<event>
 4    1  0.1806019E-005  0.8230882E+03  0.7818608E-02  0.9527186E-01
          2   -1    0    0  501    0  0.00000000000E+00  0.00000000000E+00  0.52690464398E+03  0.52690464399E+03  0.25500000000E-02 0.  1.
         -2   -1    0    0    0  501 -0.00000000000E+00 -0.00000000000E+00 -0.32144063322E+03  0.32144063323E+03  0.25500000000E-02 0. -1.
   -5000001    1    1    2    0    0  0.46349561780E+02  0.24575832854E+03 -0.11425885110E+03  0.37161878717E+03  0.25000000000E+03 0.  0.
    5000001    1    1    2    0    0 -0.46349561780E+02 -0.24575832854E+03  0.31972286186E+03  0.47672649005E+03  0.25000000000E+03 0.  0.
<mgrwt>
<rscale>  0 0.82308824E+03</rscale>
<asrwt>0</asrwt>
<pdfrwt beam="1">  1        2 0.81062252E-01 0.82308824E+03</pdfrwt>
<pdfrwt beam="2">  1       -2 0.49452406E-01 0.82308824E+03</pdfrwt>
<totfact> 0.22555494E+02</totfact>
</mgrwt>
</event>
<event>
 4    1  0.1806019E-005  0.1016518E+04  0.7818608E-02  0.9290611E-01
          2   -1    0    0  501    0  0.00000000000E+00  0.00000000000E+00  0.65885047257E+03  0.65885047257E+03  0.25500000000E-02 0.  1.
         -2   -1    0    0    0  501 -0.00000000000E+00 -0.00000000000E+00 -0.39208797227E+03  0.39208797228E+03  0.25500000000E-02 0. -1.
   -5000001    1    1    2    0    0 -0.14750714460E+03  0.40347402884E+03  0.23588847772E+02  0.49760032495E+03  0.25000000000E+03 0.  0.
    5000001    1    1    2    0    0  0.14750714460E+03 -0.40347402884E+03  0.24317365252E+03  0.55333811990E+03  0.25000000000E+03 0.  0.
<mgrwt>
<rscale>  0 0.10165183E+04</rscale>
<asrwt>0</asrwt>
<pdfrwt beam="1">  1        2 0.10136161E+00 0.10165183E+04</pdfrwt>
<pdfrwt beam="2">  1       -2 0.60321227E-01 0.10165183E+04</pdfrwt>
<totfact> 0.11300521E+02</totfact>
</mgrwt>
</event>
<event>
 4    1  0.1806019E-005  0.7195202E+03  0.7818608E-02  0.9684420E-01
         -2   -1    0    0    0  501 -0.00000000000E+00  0.00000000000E+00  0.90261181860E+02  0.90261181896E+02  0.25500000000E-02 0. -1.
          2   -1    0    0  501    0  0.00000000000E+00 -0.00000000000E+00 -0.14339202629E+04  0.14339202629E+04  0.25500000000E-02 0.  1.
   -5000001    1    1    2    0    0 -0.21839397310E+03  0.10882770420E+03 -0.85390665994E+03  0.92260282927E+03  0.25000000000E+03 0.  0.
    5000001    1    1    2    0    0  0.21839397310E+03 -0.10882770420E+03 -0.48975242110E+03  0.60157861553E+03  0.25000000000E+03 0.  0.
<mgrwt>
<rscale>  0 0.71952022E+03</rscale>
<asrwt>0</asrwt>
<pdfrwt beam="1">  1        2 0.22060310E+00 0.71952022E+03</pdfrwt>
<pdfrwt beam="2">  1       -2 0.13886337E-01 0.71952022E+03</pdfrwt>
<totfact> 0.55921575E+02</totfact>
</mgrwt>
</event>
<event>
 4    1  0.1806019E-005  0.7623516E+03  0.7818608E-02  0.9616169E-01
          2   -1    0    0  501    0  0.00000000000E+00  0.00000000000E+00  0.10434799415E+04  0.10434799415E+04  0.25500000000E-02 0.  1.
         -2   -1    0    0    0  501 -0.00000000000E+00 -0.00000000000E+00 -0.13924082319E+03  0.13924082321E+03  0.25500000000E-02 0. -1.
   -5000001    1    1    2    0    0 -0.16105236556E+03  0.19151281667E+03  0.23173189769E+03  0.42286486707E+03  0.25000000000E+03 0.  0.
    5000001    1    1    2    0    0  0.16105236556E+03 -0.19151281667E+03  0.67250722066E+03  0.75985589768E+03  0.25000000000E+03 0.  0.
<mgrwt>
<rscale>  0 0.76235164E+03</rscale>
<asrwt>0</asrwt>
<pdfrwt beam="1">  1        2 0.16053537E+00 0.76235164E+03</pdfrwt>
<pdfrwt beam="2">  1       -2 0.21421666E-01 0.76235164E+03</pdfrwt>
<totfact> 0.44941098E+02</totfact>
</mgrwt>
</event>
<event>
 4    1  0.1806019E-005  0.8231117E+03  0.7818608E-02  0.9527153E-01
          2   -1    0    0  501    0  0.00000000000E+00  0.00000000000E+00  0.28456789756E+03  0.28456789757E+03  0.25500000000E-02 0.  1.
         -2   -1    0    0    0  501 -0.00000000000E+00 -0.00000000000E+00 -0.59521201887E+03  0.59521201888E+03  0.25500000000E-02 0. -1.
   -5000001    1    1    2    0    0  0.28088394944E+03  0.30672629441E+02  0.20442648151E+02  0.37782867164E+03  0.25000000000E+03 0.  0.
    5000001    1    1    2    0    0 -0.28088394944E+03 -0.30672629441E+02 -0.33108676946E+03  0.50195124481E+03  0.25000000000E+03 0.  0.
<mgrwt>
<rscale>  0 0.82311174E+03</rscale>
<asrwt>0</asrwt>
<pdfrwt beam="1">  1        2 0.43779677E-01 0.82311174E+03</pdfrwt>
<pdfrwt beam="2">  1       -2 0.91571080E-01 0.82311174E+03</pdfrwt>
<totfact> 0.11901820E+02</totfact>
</mgrwt>
</event>
<event>
 4    1  0.1806019E-005  0.7322061E+03  0.7818608E-02  0.9663687E-01
          2   -1    0    0  501    0  0.00000000000E+00  0.00000000000E+00  0.86163723968E+03  0.86163723969E+03  0.25500000000E-02 0.  1.
         -2   -1    0    0    0  501 -0.00000000000E+00 -0.00000000000E+00 -0.15555439082E+03  0.15555439084E+03  0.25500000000E-02 0. -1.
   -5000001    1    1    2    0    0 -0.70518681915E+02  0.25648746932E+03  0.31442351249E+03  0.48178921908E+03  0.25000000000E+03 0.  0.
    5000001    1    1    2    0    0  0.70518681915E+02 -0.25648746932E+03  0.39165933637E+03  0.53540241145E+03  0.25000000000E+03 0.  0.
<mgrwt>
<rscale>  0 0.73220613E+03</rscale>
<asrwt>0</asrwt>
<pdfrwt beam="1">  1        2 0.13255958E+00 0.73220613E+03</pdfrwt>
<pdfrwt beam="2">  1       -2 0.23931444E-01 0.73220613E+03</pdfrwt>
<totfact> 0.48595347E+02</totfact>
</mgrwt>
</event>
<event>
 4    1  0.1806019E-005  0.1054846E+04  0.7818608E-02  0.9250355E-01
         -2   -1    0    0    0  501 -0.00000000000E+00  0.00000000000E+00  0.20121462290E+03  0.20121462291E+03  0.25500000000E-02 0. -1.
          2   -1    0    0  501    0  0.00000000000E+00 -0.00000000000E+00 -0.13824782210E+04  0.13824782210E+04  0.25500000000E-02 0.  1.
   -5000001    1    1    2    0    0  0.14227766925E+03 -0.38126426445E+03 -0.25468655968E+03  0.54126760313E+03  0.25000000000E+03 0.  0.
    5000001    1    1    2    0    0 -0.14227766925E+03  0.38126426445E+03 -0.92657703842E+03  0.10424252408E+04  0.25000000000E+03 0.  0.
<mgrwt>
<rscale>  0 0.10548456E+04</rscale>
<asrwt>0</asrwt>
<pdfrwt beam="1">  1        2 0.21268895E+00 0.10548456E+04</pdfrwt>
<pdfrwt beam="2">  1       -2 0.30956097E-01 0.10548456E+04</pdfrwt>
<totfact> 0.14238956E+02</totfact>
</mgrwt>
</event>
<event>
 4    1  0.1806019E-005  0.1138475E+04  0.7818608E-02  0.9168482E-01
         -2   -1    0    0    0  501 -0.00000000000E+00  0.00000000000E+00  0.16273792459E+03  0.16273792461E+03  0.25500000000E-02 0. -1.
          2   -1    0    0  501    0  0.00000000000E+00 -0.00000000000E+00 -0.19911228711E+04  0.19911228711E+04  0.25500000000E-02 0.  1.
   -5000001    1    1    2    0    0  0.28714399855E+03 -0.73493955307E+01 -0.11371026520E+03  0.39741126548E+03  0.25000000000E+03 0.  0.
    5000001    1    1    2    0    0 -0.28714399855E+03  0.73493955307E+01 -0.17146746813E+04  0.17564495302E+04  0.25000000000E+03 0.  0.
<mgrwt>
<rscale>  0 0.11384748E+04</rscale>
<asrwt>0</asrwt>
<pdfrwt beam="1">  1        2 0.30632658E+00 0.11384748E+04</pdfrwt>
<pdfrwt beam="2">  1       -2 0.25036605E-01 0.11384748E+04</pdfrwt>
<totfact> 0.95943923E+01</totfact>
</mgrwt>
</event>
<event>
 4    1  0.1806019E-005  0.8540731E+03  0.7818608E-02  0.9484886E-01
         -2   -1    0    0    0  501 -0.00000000000E+00  0.00000000000E+00  0.35214501165E+03  0.35214501166E+03  0.25500000000E-02 0. -1.
          2   -1    0    0  501    0  0.00000000000E+00 -0.00000000000E+00 -0.51785544644E+03  0.51785544644E+03  0.25500000000E-02 0.  1.
   -5000001    1    1    2    0    0 -0.17303922482E+03  0.29361615478E+03 -0.14487739539E+03  0.44681369649E+03  0.25000000000E+03 0.  0.
    5000001    1    1    2    0    0  0.17303922482E+03 -0.29361615478E+03 -0.20833039397E+02  0.42318676161E+03  0.25000000000E+03 0.  0.
<mgrwt>
<rscale>  0 0.85407309E+03</rscale>
<asrwt>0</asrwt>
<pdfrwt beam="1">  1        2 0.79670069E-01 0.85407309E+03</pdfrwt>
<pdfrwt beam="2">  1       -2 0.54176156E-01 0.85407309E+03</pdfrwt>
<totfact> 0.19065816E+02</totfact>
</mgrwt>
</event>
<event>
 4    1  0.1806019E-005  0.9495754E+03  0.7818608E-02  0.9365647E-01
         -2   -1    0    0    0  501 -0.00000000000E+00  0.00000000000E+00  0.26168485752E+03  0.26168485753E+03  0.25500000000E-02 0.  1.
          2   -1    0    0  501    0  0.00000000000E+00 -0.00000000000E+00 -0.86143069651E+03  0.86143069652E+03  0.25500000000E-02 0. -1.
   -5000001    1    1    2    0    0 -0.15778764153E+03 -0.29066738438E+03 -0.57354450219E+03  0.70769892197E+03  0.25000000000E+03 0.  0.
    5000001    1    1    2    0    0  0.15778764153E+03  0.29066738438E+03 -0.26201336801E+02  0.41541663208E+03  0.25000000000E+03 0.  0.
<mgrwt>
<rscale>  0 0.94957542E+03</rscale>
<asrwt>0</asrwt>
<pdfrwt beam="1">  1        2 0.13252780E+00 0.94957542E+03</pdfrwt>
<pdfrwt beam="2">  1       -2 0.40259209E-01 0.94957542E+03</pdfrwt>
<totfact> 0.18199162E+02</totfact>
</mgrwt>
</event>
<event>
 4    1  0.1806019E-005  0.6650184E+03  0.7818608E-02  0.9778999E-01
         -2   -1    0    0    0  501 -0.00000000000E+00  0.00000000000E+00  0.15119582138E+03  0.15119582140E+03  0.25500000000E-02 0. -1.
          2   -1    0    0  501    0  0.00000000000E+00 -0.00000000000E+00 -0.73125287317E+03  0.73125287318E+03  0.25500000000E-02 0.  1.
   -5000001    1    1    2    0    0  0.10379357449E+03  0.15545226128E+03 -0.13801343791E+03  0.34130077745E+03  0.25000000000E+03 0.  0.
    5000001    1    1    2    0    0 -0.10379357449E+03 -0.15545226128E+03 -0.44204361388E+03  0.54114791713E+03  0.25000000000E+03 0.  0.
<mgrwt>
<rscale>  0 0.66501843E+03</rscale>
<asrwt>0</asrwt>
<pdfrwt beam="1">  1        2 0.11250044E+00 0.66501843E+03</pdfrwt>
<pdfrwt beam="2">  1       -2 0.23260896E-01 0.66501843E+03</pdfrwt>
<totfact> 0.63615708E+02</totfact>
</mgrwt>
</event>
<event>
 4    1  0.1806019E-005  0.1135971E+04  0.7818608E-02  0.9170824E-01
         -2   -1    0    0    0  501 -0.00000000000E+00  0.00000000000E+00  0.30990690153E+03  0.30990690154E+03  0.25500000000E-02 0. -1.
          2   -1    0    0  501    0  0.00000000000E+00 -0.00000000000E+00 -0.10409824674E+04  0.10409824674E+04  0.25500000000E-02 0.  1.
   -5000001    1    1    2    0    0  0.39576489580E+03  0.20510648185E+03 -0.70845388913E+02  0.51596278042E+03  0.25000000000E+03 0.  0.
    5000001    1    1    2    0    0 -0.39576489580E+03 -0.20510648185E+03 -0.66023017694E+03  0.83492658850E+03  0.25000000000E+03 0.  0.
<mgrwt>
<rscale>  0 0.11359712E+04</rscale>
<asrwt>0</asrwt>
<pdfrwt beam="1">  1        2 0.16015115E+00 0.11359712E+04</pdfrwt>
<pdfrwt beam="2">  1       -2 0.47677985E-01 0.11359712E+04</pdfrwt>
<totfact> 0.97916962E+01</totfact>
</mgrwt>
</event>
<event>
 4    1  0.1806019E-005  0.7266520E+03  0.7818608E-02  0.9672709E-01
         -2   -1    0    0    0  501 -0.00000000000E+00  0.00000000000E+00  0.26677398702E+03  0.26677398704E+03  0.25500000000E-02 0. -1.
          2   -1    0    0  501    0  0.00000000000E+00 -0.00000000000E+00 -0.49482258997E+03  0.49482258998E+03  0.25500000000E-02 0.  1.
   -5000001    1    1    2    0    0  0.15531965196E+03 -0.17347726940E+03  0.15563165631E+02  0.34199527688E+03  0.25000000000E+03 0.  0.
    5000001    1    1    2    0    0 -0.15531965196E+03  0.17347726940E+03 -0.24361176858E+03  0.41960130013E+03  0.25000000000E+03 0.  0.
<mgrwt>
<rscale>  0 0.72665204E+03</rscale>
<asrwt>0</asrwt>
<pdfrwt beam="1">  1        2 0.76126552E-01 0.72665204E+03</pdfrwt>
<pdfrwt beam="2">  1       -2 0.41042152E-01 0.72665204E+03</pdfrwt>
<totfact> 0.35320024E+02</totfact>
</mgrwt>
</event>
<event>
 4    1  0.1806019E-005  0.6376531E+03  0.7818608E-02  0.9830227E-01
          2   -1    0    0  501    0  0.00000000000E+00  0.00000000000E+00  0.49116176036E+03  0.49116176037E+03  0.25500000000E-02 0.  1.
         -2   -1    0    0    0  501 -0.00000000000E+00 -0.00000000000E+00 -0.20695903318E+03  0.20695903320E+03  0.25500000000E-02 0. -1.
   -5000001    1    1    2    0    0 -0.14291294403E+02  0.15304172475E+03  0.27851345206E+03  0.40459331876E+03  0.25000000000E+03 0.  0.
    5000001    1    1    2    0    0  0.14291294403E+02 -0.15304172475E+03  0.56892751180E+01  0.29352747480E+03  0.25000000000E+03 0.  0.
<mgrwt>
<rscale>  0 0.63765308E+03</rscale>
<asrwt>0</asrwt>
<pdfrwt beam="1">  1        2 0.75563347E-01 0.63765308E+03</pdfrwt>
<pdfrwt beam="2">  1       -2 0.31839852E-01 0.63765308E+03</pdfrwt>
<totfact> 0.58021396E+02</totfact>
</mgrwt>
</event>
<event>
 4    1  0.1806019E-005  0.7280544E+03  0.7818608E-02  0.9670423E-01
          2   -1    0    0  501    0  0.00000000000E+00  0.00000000000E+00  0.19214399981E+03  0.19214399983E+03  0.25500000000E-02 0.  1.
         -2   -1    0    0    0  501 -0.00000000000E+00 -0.00000000000E+00 -0.68966922041E+03  0.68966922041E+03  0.25500000000E-02 0. -1.
   -5000001    1    1    2    0    0 -0.84262402079E+02  0.23942895313E+03 -0.33931426726E+03  0.49199649182E+03  0.25000000000E+03 0.  0.
    5000001    1    1    2    0    0  0.84262402079E+02 -0.23942895313E+03 -0.15821095334E+03  0.38981672842E+03  0.25000000000E+03 0.  0.
<mgrwt>
<rscale>  0 0.72805440E+03</rscale>
<asrwt>0</asrwt>
<pdfrwt beam="1">  1        2 0.29560616E-01 0.72805440E+03</pdfrwt>
<pdfrwt beam="2">  1       -2 0.10610296E+00 0.72805440E+03</pdfrwt>
<totfact> 0.13098542E+02</totfact>
</mgrwt>
</event>
<event>
 4    1  0.1806019E-005  0.8296243E+03  0.7818608E-02  0.9518100E-01
          2   -1    0    0  501    0  0.00000000000E+00  0.00000000000E+00  0.52028945260E+03  0.52028945260E+03  0.25500000000E-02 0.  1.
         -2   -1    0    0    0  501 -0.00000000000E+00 -0.00000000000E+00 -0.33071805691E+03  0.33071805692E+03  0.25500000000E-02 0. -1.
   -5000001    1    1    2    0    0 -0.50291596176E+01  0.32818102873E+03  0.50772476176E+02  0.41569931971E+03  0.25000000000E+03 0.  0.
    5000001    1    1    2    0    0  0.50291596176E+01 -0.32818102873E+03  0.13879891951E+03  0.43530818982E+03  0.25000000000E+03 0.  0.
<mgrwt>
<rscale>  0 0.82962429E+03</rscale>
<asrwt>0</asrwt>
<pdfrwt beam="1">  1        2 0.80044531E-01 0.82962429E+03</pdfrwt>
<pdfrwt beam="2">  1       -2 0.50879701E-01 0.82962429E+03</pdfrwt>
<totfact> 0.21596879E+02</totfact>
</mgrwt>
</event>
<event>
 4    1  0.1806019E-005  0.6715783E+03  0.7818608E-02  0.9767111E-01
         -2   -1    0    0    0  501 -0.00000000000E+00  0.00000000000E+00  0.76263793935E+02  0.76263793977E+02  0.25500000000E-02 0. -1.
          2   -1    0    0  501    0  0.00000000000E+00 -0.00000000000E+00 -0.14784782977E+04  0.14784782977E+04  0.25500000000E-02 0.  1.
   -5000001    1    1    2    0    0  0.13345761010E+03  0.35590198737E+02 -0.29233893360E+03  0.40870484220E+03  0.25000000000E+03 0.  0.
    5000001    1    1    2    0    0 -0.13345761010E+03 -0.35590198737E+02 -0.11098755702E+04  0.11460372495E+04  0.25000000000E+03 0.  0.
<mgrwt>
<rscale>  0 0.67157833E+03</rscale>
<asrwt>0</asrwt>
<pdfrwt beam="1">  1        2 0.22745818E+00 0.67157833E+03</pdfrwt>
<pdfrwt beam="2">  1       -2 0.11732892E-01 0.67157833E+03</pdfrwt>
<totfact> 0.70043383E+02</totfact>
</mgrwt>
</event>
<event>
 4    1  0.1806019E-005  0.6547133E+03  0.7818608E-02  0.9797975E-01
         -2   -1    0    0    0  501 -0.00000000000E+00  0.00000000000E+00  0.69288743380E+02  0.69288743427E+02  0.25500000000E-02 0. -1.
          2   -1    0    0  501    0  0.00000000000E+00 -0.00000000000E+00 -0.15466057655E+04  0.15466057655E+04  0.25500000000E-02 0.  1.
   -5000001    1    1    2    0    0  0.29768683835E+02  0.19498133699E+03 -0.55136809729E+03  0.63671867809E+03  0.25000000000E+03 0.  0.
    5000001    1    1    2    0    0 -0.29768683835E+02 -0.19498133699E+03 -0.92594892479E+03  0.97917583080E+03  0.25000000000E+03 0.  0.
<mgrwt>
<rscale>  0 0.65471328E+03</rscale>
<asrwt>0</asrwt>
<pdfrwt beam="1">  1        2 0.23793932E+00 0.65471328E+03</pdfrwt>
<pdfrwt beam="2">  1       -2 0.10659808E-01 0.65471328E+03</pdfrwt>
<totfact> 0.75220903E+02</totfact>
</mgrwt>
</event>
<event>
 4    1  0.1806019E-005  0.7802056E+03  0.7818608E-02  0.9589119E-01
          2   -1    0    0  501    0  0.00000000000E+00  0.00000000000E+00  0.40780378311E+03  0.40780378312E+03  0.25500000000E-02 0.  1.
         -2   -1    0    0    0  501 -0.00000000000E+00 -0.00000000000E+00 -0.37317015539E+03  0.37317015540E+03  0.25500000000E-02 0. -1.
   -5000001    1    1    2    0    0 -0.59087241092E+02 -0.12074469929E+03  0.28518006974E+03  0.40236582440E+03  0.25000000000E+03 0.  0.
    5000001    1    1    2    0    0  0.59087241092E+02  0.12074469929E+03 -0.25054644202E+03  0.37860811412E+03  0.25000000000E+03 0.  0.
<mgrwt>
<rscale>  0 0.78020562E+03</rscale>
<asrwt>0</asrwt>
<pdfrwt beam="1">  1        2 0.62739044E-01 0.78020562E+03</pdfrwt>
<pdfrwt beam="2">  1       -2 0.57410793E-01 0.78020562E+03</pdfrwt>
<totfact> 0.22292226E+02</totfact>
</mgrwt>
</event>
<event>
 4    1  0.1806019E-005  0.5471868E+03  0.7818608E-02  0.1002147E+00
          2   -1    0    0  501    0  0.00000000000E+00  0.00000000000E+00  0.30206923761E+03  0.30206923762E+03  0.25500000000E-02 0.  1.
         -2   -1    0    0    0  501 -0.00000000000E+00 -0.00000000000E+00 -0.24780197335E+03  0.24780197337E+03  0.25500000000E-02 0. -1.
   -5000001    1    1    2    0    0 -0.25487649397E+02  0.93504393209E+02  0.81812526461E+02  0.28033191275E+03  0.25000000000E+03 0.  0.
    5000001    1    1    2    0    0  0.25487649397E+02 -0.93504393209E+02 -0.27545262209E+02  0.26953929823E+03  0.25000000000E+03 0.  0.
<mgrwt>
<rscale>  0 0.54718682E+03</rscale>
<asrwt>0</asrwt>
<pdfrwt beam="1">  1        2 0.46472191E-01 0.54718682E+03</pdfrwt>
<pdfrwt beam="2">  1       -2 0.38123380E-01 0.54718682E+03</pdfrwt>
<totfact> 0.71163298E+02</totfact>
</mgrwt>
</event>
<event>
 4    1  0.1806019E-005  0.5455873E+03  0.7818608E-02  0.1002520E+00
         -2   -1    0    0    0  501 -0.00000000000E+00  0.00000000000E+00  0.62760850287E+02  0.62760850339E+02  0.25500000000E-02 0. -1.
          2   -1    0    0  501    0  0.00000000000E+00 -0.00000000000E+00 -0.11857133268E+04  0.11857133268E+04  0.25500000000E-02 0.  1.
   -5000001    1    1    2    0    0 -0.13581483290E+02 -0.10588419760E+03 -0.50927178143E+03  0.57728127231E+03  0.25000000000E+03 0.  0.
    5000001    1    1    2    0    0  0.13581483290E+02  0.10588419760E+03 -0.61368069508E+03  0.67119290484E+03  0.25000000000E+03 0.  0.
<mgrwt>
<rscale>  0 0.54558730E+03</rscale>
<asrwt>0</asrwt>
<pdfrwt beam="1">  1        2 0.18241742E+00 0.54558730E+03</pdfrwt>
<pdfrwt beam="2">  1       -2 0.96555163E-02 0.54558730E+03</pdfrwt>
<totfact> 0.14199611E+03</totfact>
</mgrwt>
</event>
<event>
 4    1  0.1806019E-005  0.5590492E+03  0.7818608E-02  0.9994208E-01
          2   -1    0    0  501    0  0.00000000000E+00  0.00000000000E+00  0.25346923954E+04  0.25346923954E+04  0.25500000000E-02 0.  1.
         -2   -1    0    0    0  501 -0.00000000000E+00 -0.00000000000E+00 -0.30825830773E+02  0.30825830879E+02  0.25500000000E-02 0. -1.
   -5000001    1    1    2    0    0  0.10459339611E+03 -0.46573654404E+02  0.10213298966E+04  0.10576973298E+04  0.25000000000E+03 0.  0.
    5000001    1    1    2    0    0 -0.10459339611E+03  0.46573654404E+02  0.14825366681E+04  0.15078208966E+04  0.25000000000E+03 0.  0.
<mgrwt>
<rscale>  0 0.55904919E+03</rscale>
<asrwt>0</asrwt>
<pdfrwt beam="1">  1        2 0.38995260E+00 0.55904919E+03</pdfrwt>
<pdfrwt beam="2">  1       -2 0.47424365E-02 0.55904919E+03</pdfrwt>
<totfact> 0.78633404E+02</totfact>
</mgrwt>
</event>
<event>
 4    1  0.1806019E-005  0.5836053E+03  0.7818608E-02  0.9940016E-01
          2   -1    0    0  501    0  0.00000000000E+00  0.00000000000E+00  0.19391352630E+04  0.19391352630E+04  0.25500000000E-02 0.  1.
         -2   -1    0    0    0  501 -0.00000000000E+00 -0.00000000000E+00 -0.43910702633E+02  0.43910702707E+02  0.25500000000E-02 0. -1.
   -5000001    1    1    2    0    0 -0.14496002748E+03  0.38561117910E+02  0.90621578771E+03  0.95195978028E+03  0.25000000000E+03 0.  0.
    5000001    1    1    2    0    0  0.14496002748E+03 -0.38561117910E+02  0.98900877263E+03  0.10310861854E+04  0.25000000000E+03 0.  0.
<mgrwt>
<rscale>  0 0.58360532E+03</rscale>
<asrwt>0</asrwt>
<pdfrwt beam="1">  1        2 0.29832857E+00 0.58360532E+03</pdfrwt>
<pdfrwt beam="2">  1       -2 0.67554911E-02 0.58360532E+03</pdfrwt>
<totfact> 0.95988538E+02</totfact>
</mgrwt>
</event>
<event>
 4    1  0.1806019E-005  0.9106281E+03  0.7818608E-02  0.9412392E-01
         -2   -1    0    0    0  501 -0.00000000000E+00  0.00000000000E+00  0.10143849016E+04  0.10143849016E+04  0.25500000000E-02 0. -1.
          2   -1    0    0  501    0  0.00000000000E+00 -0.00000000000E+00 -0.20437104054E+03  0.20437104055E+03  0.25500000000E-02 0.  1.
   -5000001    1    1    2    0    0 -0.36029527456E+02  0.33531584952E+03  0.16907397702E+03  0.45257138165E+03  0.25000000000E+03 0.  0.
    5000001    1    1    2    0    0  0.36029527456E+02 -0.33531584952E+03  0.64093988400E+03  0.76618456046E+03  0.25000000000E+03 0.  0.
<mgrwt>
<rscale>  0 0.91062813E+03</rscale>
<asrwt>0</asrwt>
<pdfrwt beam="1">  1        2 0.31441699E-01 0.91062813E+03</pdfrwt>
<pdfrwt beam="2">  1       -2 0.15605922E+00 0.91062813E+03</pdfrwt>
<totfact> 0.45613887E+01</totfact>
</mgrwt>
</event>
<event>
 4    1  0.1806019E-005  0.6443826E+03  0.7818608E-02  0.9817377E-01
          2   -1    0    0  501    0  0.00000000000E+00  0.00000000000E+00  0.30741598502E+03  0.30741598503E+03  0.25500000000E-02 0.  1.
         -2   -1    0    0    0  501 -0.00000000000E+00 -0.00000000000E+00 -0.33767677361E+03  0.33767677362E+03  0.25500000000E-02 0. -1.
   -5000001    1    1    2    0    0  0.16106211951E+03  0.12365340125E+03 -0.63990853274E+01  0.32213680056E+03  0.25000000000E+03 0.  0.
    5000001    1    1    2    0    0 -0.16106211951E+03 -0.12365340125E+03 -0.23861703258E+02  0.32295595809E+03  0.25000000000E+03 0.  0.
<mgrwt>
<rscale>  0 0.64438261E+03</rscale>
<asrwt>0</asrwt>
<pdfrwt beam="1">  1        2 0.47294767E-01 0.64438261E+03</pdfrwt>
<pdfrwt beam="2">  1       -2 0.51950273E-01 0.64438261E+03</pdfrwt>
<totfact> 0.37733991E+02</totfact>
</mgrwt>
</event>
<event>
 4    1  0.1806019E-005  0.6975515E+03  0.7818608E-02  0.9721429E-01
         -2   -1    0    0    0  501 -0.00000000000E+00  0.00000000000E+00  0.90257525069E+02  0.90257525105E+02  0.25500000000E-02 0. -1.
          2   -1    0    0  501    0  0.00000000000E+00 -0.00000000000E+00 -0.13477493685E+04  0.13477493686E+04  0.25500000000E-02 0.  1.
   -5000001    1    1    2    0    0  0.15979708792E+03 -0.94098312624E+02 -0.95309708749E+03  0.10026383495E+04  0.25000000000E+03 0.  0.
    5000001    1    1    2    0    0 -0.15979708792E+03  0.94098312624E+02 -0.30439475599E+03  0.43536854413E+03  0.25000000000E+03 0.  0.
<mgrwt>
<rscale>  0 0.69755150E+03</rscale>
<asrwt>0</asrwt>
<pdfrwt beam="1">  1        2 0.20734604E+00 0.69755150E+03</pdfrwt>
<pdfrwt beam="2">  1       -2 0.13885774E-01 0.69755150E+03</pdfrwt>
<totfact> 0.62630807E+02</totfact>
</mgrwt>
</event>
<event>
 4    1  0.1806019E-005  0.9055244E+03  0.7818608E-02  0.9418702E-01
         -2   -1    0    0    0  501 -0.00000000000E+00  0.00000000000E+00  0.65587464954E+03  0.65587464954E+03  0.25500000000E-02 0. -1.
          2   -1    0    0  501    0  0.00000000000E+00 -0.00000000000E+00 -0.31254996839E+03  0.31254996840E+03  0.25500000000E-02 0.  1.
   -5000001    1    1    2    0    0 -0.30529690722E+03  0.16339031623E+03  0.10918833589E+02  0.42722572245E+03  0.25000000000E+03 0.  0.
    5000001    1    1    2    0    0  0.30529690722E+03 -0.16339031623E+03  0.33240584756E+03  0.54119889550E+03  0.25000000000E+03 0.  0.
<mgrwt>
<rscale>  0 0.90552438E+03</rscale>
<asrwt>0</asrwt>
<pdfrwt beam="1">  1        2 0.48084611E-01 0.90552438E+03</pdfrwt>
<pdfrwt beam="2">  1       -2 0.10090379E+00 0.90552438E+03</pdfrwt>
<totfact> 0.85062238E+01</totfact>
</mgrwt>
</event>
<event>
 4    1  0.1806019E-005  0.1431296E+04  0.7818608E-02  0.8931471E-01
         -2   -1    0    0    0  501 -0.00000000000E+00  0.00000000000E+00  0.20962839416E+03  0.20962839418E+03  0.25500000000E-02 0. -1.
          2   -1    0    0  501    0  0.00000000000E+00 -0.00000000000E+00 -0.24431442329E+04  0.24431442329E+04  0.25500000000E-02 0.  1.
   -5000001    1    1    2    0    0  0.40563370338E+03 -0.32767688441E+03 -0.18981426480E+04  0.19842772876E+04  0.25000000000E+03 0.  0.
    5000001    1    1    2    0    0 -0.40563370338E+03  0.32767688441E+03 -0.33537319079E+03  0.66849533954E+03  0.25000000000E+03 0.  0.
<mgrwt>
<rscale>  0 0.14312965E+04</rscale>
<asrwt>0</asrwt>
<pdfrwt beam="1">  1        2 0.37586832E+00 0.14312965E+04</pdfrwt>
<pdfrwt beam="2">  1       -2 0.32250524E-01 0.14312965E+04</pdfrwt>
<totfact> 0.32735179E+01</totfact>
</mgrwt>
</event>
<event>
 4    1  0.1806019E-005  0.7301134E+03  0.7818608E-02  0.9667076E-01
          2   -1    0    0  501    0  0.00000000000E+00  0.00000000000E+00  0.89088564843E+03  0.89088564843E+03  0.25500000000E-02 0.  1.
         -2   -1    0    0    0  501 -0.00000000000E+00 -0.00000000000E+00 -0.14958864990E+03  0.14958864992E+03  0.25500000000E-02 0. -1.
   -5000001    1    1    2    0    0  0.81655801043E+02  0.25210176382E+03  0.40386896786E+03  0.54390542594E+03  0.25000000000E+03 0.  0.
    5000001    1    1    2    0    0 -0.81655801043E+02 -0.25210176382E+03  0.33742803067E+03  0.49656887241E+03  0.25000000000E+03 0.  0.
<mgrwt>
<rscale>  0 0.73011336E+03</rscale>
<asrwt>0</asrwt>
<pdfrwt beam="1">  1        2 0.13705933E+00 0.73011336E+03</pdfrwt>
<pdfrwt beam="2">  1       -2 0.23013639E-01 0.73011336E+03</pdfrwt>
<totfact> 0.49777339E+02</totfact>
</mgrwt>
</event>
<event>
 4    1  0.1806019E-005  0.7053052E+03  0.7818608E-02  0.9708202E-01
         -2   -1    0    0    0  501 -0.00000000000E+00  0.00000000000E+00  0.10239955673E+03  0.10239955676E+03  0.25500000000E-02 0. -1.
          2   -1    0    0  501    0  0.00000000000E+00 -0.00000000000E+00 -0.12144959322E+04  0.12144959323E+04  0.25500000000E-02 0.  1.
   -5000001    1    1    2    0    0  0.11149665201E+03  0.14368478532E+03 -0.23925733711E+03  0.39092313094E+03  0.25000000000E+03 0.  0.
    5000001    1    1    2    0    0 -0.11149665201E+03 -0.14368478532E+03 -0.87283903841E+03  0.92597235807E+03  0.25000000000E+03 0.  0.
<mgrwt>
<rscale>  0 0.70530517E+03</rscale>
<asrwt>0</asrwt>
<pdfrwt beam="1">  1        2 0.18684552E+00 0.70530517E+03</pdfrwt>
<pdfrwt beam="2">  1       -2 0.15753779E-01 0.70530517E+03</pdfrwt>
<totfact> 0.60422013E+02</totfact>
</mgrwt>
</event>
<event>
 4    1  0.1806019E-005  0.5979582E+03  0.7818608E-02  0.9909651E-01
         -2   -1    0    0    0  501 -0.00000000000E+00  0.00000000000E+00  0.29436303952E+02  0.29436304062E+02  0.25500000000E-02 0.  1.
          2   -1    0    0  501    0  0.00000000000E+00 -0.00000000000E+00 -0.30366754373E+04  0.30366754373E+04  0.25500000000E-02 0. -1.
   -5000001    1    1    2    0    0 -0.61591657251E+02  0.14983739925E+03 -0.13735227618E+04  0.14054570629E+04  0.25000000000E+03 0.  0.
    5000001    1    1    2    0    0  0.61591657251E+02 -0.14983739925E+03 -0.16337163715E+04  0.16606546784E+04  0.25000000000E+03 0.  0.
<mgrwt>
<rscale>  0 0.59795820E+03</rscale>
<asrwt>0</asrwt>
<pdfrwt beam="1">  1        2 0.46718059E+00 0.59795820E+03</pdfrwt>
<pdfrwt beam="2">  1       -2 0.45286646E-02 0.59795820E+03</pdfrwt>
<totfact> 0.42710402E+02</totfact>
</mgrwt>
</event>
<event>
 4    1  0.1806019E-005  0.6935889E+03  0.7818608E-02  0.9728259E-01
         -2   -1    0    0    0  501 -0.00000000000E+00  0.00000000000E+00  0.70284323094E+02  0.70284323140E+02  0.25500000000E-02 0. -1.
          2   -1    0    0  501    0  0.00000000000E+00 -0.00000000000E+00 -0.17111412575E+04  0.17111412575E+04  0.25500000000E-02 0.  1.
   -5000001    1    1    2    0    0  0.21982807586E+03  0.95896192900E+02 -0.86070778787E+03  0.92781375224E+03  0.25000000000E+03 0.  0.
    5000001    1    1    2    0    0 -0.21982807586E+03 -0.95896192900E+02 -0.78014914658E+03  0.85361182844E+03  0.25000000000E+03 0.  0.
<mgrwt>
<rscale>  0 0.69358894E+03</rscale>
<asrwt>0</asrwt>
<pdfrwt beam="1">  1        2 0.26325247E+00 0.69358894E+03</pdfrwt>
<pdfrwt beam="2">  1       -2 0.10812974E-01 0.69358894E+03</pdfrwt>
<totfact> 0.59577912E+02</totfact>
</mgrwt>
</event>
<event>
 4    1  0.1806019E-005  0.8535390E+03  0.7818608E-02  0.9485599E-01
          2   -1    0    0  501    0  0.00000000000E+00  0.00000000000E+00  0.14839163863E+04  0.14839163863E+04  0.25500000000E-02 0.  1.
         -2   -1    0    0    0  501 -0.00000000000E+00 -0.00000000000E+00 -0.12273750513E+03  0.12273750516E+03  0.25500000000E-02 0. -1.
   -5000001    1    1    2    0    0 -0.19471475647E+03 -0.66201751683E+02  0.12040560050E+04  0.12468148906E+04  0.25000000000E+03 0.  0.
    5000001    1    1    2    0    0  0.19471475647E+03  0.66201751683E+02  0.15712287619E+03  0.35983900085E+03  0.25000000000E+03 0.  0.
<mgrwt>
<rscale>  0 0.85353897E+03</rscale>
<asrwt>0</asrwt>
<pdfrwt beam="1">  1        2 0.22829483E+00 0.85353897E+03</pdfrwt>
<pdfrwt beam="2">  1       -2 0.18882693E-01 0.85353897E+03</pdfrwt>
<totfact> 0.30789109E+02</totfact>
</mgrwt>
</event>
<event>
 4    1  0.1806019E-005  0.6504494E+03  0.7818608E-02  0.9805936E-01
          2   -1    0    0  501    0  0.00000000000E+00  0.00000000000E+00  0.11086600571E+04  0.11086600571E+04  0.25500000000E-02 0.  1.
         -2   -1    0    0    0  501 -0.00000000000E+00 -0.00000000000E+00 -0.95404452135E+02  0.95404452169E+02  0.25500000000E-02 0. -1.
   -5000001    1    1    2    0    0 -0.18721411474E+03 -0.87429148406E+02  0.55113671378E+03  0.63948780913E+03  0.25000000000E+03 0.  0.
    5000001    1    1    2    0    0  0.18721411474E+03  0.87429148406E+02  0.46211889116E+03  0.56457670011E+03  0.25000000000E+03 0.  0.
<mgrwt>
<rscale>  0 0.65044940E+03</rscale>
<asrwt>0</asrwt>
<pdfrwt beam="1">  1        2 0.17056309E+00 0.65044940E+03</pdfrwt>
<pdfrwt beam="2">  1       -2 0.14677608E-01 0.65044940E+03</pdfrwt>
<totfact> 0.78941686E+02</totfact>
</mgrwt>
</event>
<event>
 4    1  0.1806019E-005  0.1224325E+04  0.7818608E-02  0.9091828E-01
         -2   -1    0    0    0  501 -0.00000000000E+00  0.00000000000E+00  0.11672641442E+03  0.11672641445E+03  0.25500000000E-02 0. -1.
          2   -1    0    0  501    0  0.00000000000E+00 -0.00000000000E+00 -0.32104357174E+04  0.32104357174E+04  0.25500000000E-02 0.  1.
   -5000001    1    1    2    0    0  0.41948635002E+03  0.34469887652E+03 -0.11878033954E+04  0.13297229108E+04  0.25000000000E+03 0.  0.
    5000001    1    1    2    0    0 -0.41948635002E+03 -0.34469887652E+03 -0.19059059076E+04  0.19974392211E+04  0.25000000000E+03 0.  0.
<mgrwt>
<rscale>  0 0.12243245E+04</rscale>
<asrwt>0</asrwt>
<pdfrwt beam="1">  1        2 0.49391312E+00 0.12243245E+04</pdfrwt>
<pdfrwt beam="2">  1       -2 0.17957912E-01 0.12243245E+04</pdfrwt>
<totfact> 0.33027185E+01</totfact>
</mgrwt>
</event>
<event>
 4    1  0.1806019E-005  0.7503183E+03  0.7818608E-02  0.9634851E-01
          2   -1    0    0  501    0  0.00000000000E+00  0.00000000000E+00  0.77578884034E+03  0.77578884034E+03  0.25500000000E-02 0.  1.
         -2   -1    0    0    0  501 -0.00000000000E+00 -0.00000000000E+00 -0.18142098293E+03  0.18142098295E+03  0.25500000000E-02 0. -1.
   -5000001    1    1    2    0    0  0.23898389843E+03  0.12292243677E+03  0.39617617180E+03  0.54007294717E+03  0.25000000000E+03 0.  0.
    5000001    1    1    2    0    0 -0.23898389843E+03 -0.12292243677E+03  0.19819168561E+03  0.41713687611E+03  0.25000000000E+03 0.  0.
<mgrwt>
<rscale>  0 0.75031826E+03</rscale>
<asrwt>0</asrwt>
<pdfrwt beam="1">  1        2 0.11935213E+00 0.75031826E+03</pdfrwt>
<pdfrwt beam="2">  1       -2 0.27910920E-01 0.75031826E+03</pdfrwt>
<totfact> 0.42279715E+02</totfact>
</mgrwt>
</event>
<event>
 4    1  0.1806019E-005  0.1041296E+04  0.7818608E-02  0.9264376E-01
          2   -1    0    0  501    0  0.00000000000E+00  0.00000000000E+00  0.14934810666E+04  0.14934810666E+04  0.25500000000E-02 0.  1.
         -2   -1    0    0    0  501 -0.00000000000E+00 -0.00000000000E+00 -0.18150518120E+03  0.18150518122E+03  0.25500000000E-02 0. -1.
   -5000001    1    1    2    0    0 -0.31666409962E+03 -0.22013112175E+03  0.26249661230E+03  0.52928095962E+03  0.25000000000E+03 0.  0.
    5000001    1    1    2    0    0  0.31666409962E+03  0.22013112175E+03  0.10494792731E+04  0.11457052882E+04  0.25000000000E+03 0.  0.
<mgrwt>
<rscale>  0 0.10412964E+04</rscale>
<asrwt>0</asrwt>
<pdfrwt beam="1">  1        2 0.22976631E+00 0.10412964E+04</pdfrwt>
<pdfrwt beam="2">  1       -2 0.27923874E-01 0.10412964E+04</pdfrwt>
<totfact> 0.14928463E+02</totfact>
</mgrwt>
</event>
<event>
 4    1  0.1806019E-005  0.1065619E+04  0.7818608E-02  0.9239365E-01
          2   -1    0    0  501    0  0.00000000000E+00  0.00000000000E+00  0.70642173142E+03  0.70642173142E+03  0.25500000000E-02 0.  1.
         -2   -1    0    0    0  501 -0.00000000000E+00 -0.00000000000E+00 -0.40186474451E+03  0.40186474452E+03  0.25500000000E-02 0. -1.
   -5000001    1    1    2    0    0  0.35437097416E+03 -0.11016098454E+03 -0.14856422747E+03  0.47147169536E+03  0.25000000000E+03 0.  0.
    5000001    1    1    2    0    0 -0.35437097416E+03  0.11016098454E+03  0.45312121438E+03  0.63681478058E+03  0.25000000000E+03 0.  0.
<mgrwt>
<rscale>  0 0.10656190E+04</rscale>
<asrwt>0</asrwt>
<pdfrwt beam="1">  1        2 0.10868027E+00 0.10656190E+04</pdfrwt>
<pdfrwt beam="2">  1       -2 0.61825345E-01 0.10656190E+04</pdfrwt>
<totfact> 0.97967653E+01</totfact>
</mgrwt>
</event>
<event>
 4    1  0.1806019E-005  0.5986318E+03  0.7818608E-02  0.9908249E-01
          2   -1    0    0  501    0  0.00000000000E+00  0.00000000000E+00  0.22946988635E+03  0.22946988636E+03  0.25500000000E-02 0.  1.
         -2   -1    0    0    0  501 -0.00000000000E+00 -0.00000000000E+00 -0.39042157670E+03  0.39042157671E+03  0.25500000000E-02 0. -1.
   -5000001    1    1    2    0    0  0.10187252794E+03 -0.11632738217E+03 -0.13886930516E+03  0.32510729876E+03  0.25000000000E+03 0.  0.
    5000001    1    1    2    0    0 -0.10187252794E+03  0.11632738217E+03 -0.22082385187E+02  0.29478416431E+03  0.25000000000E+03 0.  0.
<mgrwt>
<rscale>  0 0.59863176E+03</rscale>
<asrwt>0</asrwt>
<pdfrwt beam="1">  1        2 0.35303059E-01 0.59863176E+03</pdfrwt>
<pdfrwt beam="2">  1       -2 0.60064858E-01 0.59863176E+03</pdfrwt>
<totfact> 0.38651338E+02</totfact>
</mgrwt>
</event>
<event>
 4    1  0.1806019E-005  0.9463982E+03  0.7818608E-02  0.9369370E-01
          2   -1    0    0  501    0  0.00000000000E+00  0.00000000000E+00  0.28346740626E+04  0.28346740626E+04  0.25500000000E-02 0.  1.
         -2   -1    0    0    0  501 -0.00000000000E+00 -0.00000000000E+00 -0.78992293540E+02  0.78992293581E+02  0.25500000000E-02 0. -1.
   -5000001    1    1    2    0    0  0.37261053159E+01 -0.30987262193E+03  0.59062002827E+03  0.71229694895E+03  0.25000000000E+03 0.  0.
    5000001    1    1    2    0    0 -0.37261053159E+01  0.30987262193E+03  0.21650617408E+04  0.22013694073E+04  0.25000000000E+03 0.  0.
<mgrwt>
<rscale>  0 0.94639824E+03</rscale>
<asrwt>0</asrwt>
<pdfrwt beam="1">  1        2 0.43610376E+00 0.94639824E+03</pdfrwt>
<pdfrwt beam="2">  1       -2 0.12152659E-01 0.94639824E+03</pdfrwt>
<totfact> 0.11276314E+02</totfact>
</mgrwt>
</event>
<event>
 4    1  0.1806019E-005  0.6227934E+03  0.7818608E-02  0.9859214E-01
         -2   -1    0    0    0  501 -0.00000000000E+00  0.00000000000E+00  0.72700569353E+02  0.72700569398E+02  0.25500000000E-02 0. -1.
          2   -1    0    0  501    0  0.00000000000E+00 -0.00000000000E+00 -0.13337984404E+04  0.13337984404E+04  0.25500000000E-02 0.  1.
   -5000001    1    1    2    0    0  0.87634423377E+02  0.90229577855E+02 -0.32216137532E+03  0.42674245234E+03  0.25000000000E+03 0.  0.
    5000001    1    1    2    0    0 -0.87634423377E+02 -0.90229577855E+02 -0.93893649573E+03  0.97975655746E+03  0.25000000000E+03 0.  0.
<mgrwt>
<rscale>  0 0.62279340E+03</rscale>
<asrwt>0</asrwt>
<pdfrwt beam="1">  1        2 0.20519974E+00 0.62279340E+03</pdfrwt>
<pdfrwt beam="2">  1       -2 0.11184704E-01 0.62279340E+03</pdfrwt>
<totfact> 0.91580240E+02</totfact>
</mgrwt>
</event>
<event>
 4    1  0.1806019E-005  0.1209594E+04  0.7818608E-02  0.9104500E-01
         -2   -1    0    0    0  501 -0.00000000000E+00  0.00000000000E+00  0.25495116376E+03  0.25495116377E+03  0.25500000000E-02 0. -1.
          2   -1    0    0  501    0  0.00000000000E+00 -0.00000000000E+00 -0.14347039000E+04  0.14347039000E+04  0.25500000000E-02 0.  1.
   -5000001    1    1    2    0    0  0.35545464277E+03  0.40290460813E+03 -0.42109501064E+03  0.72698083490E+03  0.25000000000E+03 0.  0.
    5000001    1    1    2    0    0 -0.35545464277E+03 -0.40290460813E+03 -0.75865772560E+03  0.96267422888E+03  0.25000000000E+03 0.  0.
<mgrwt>
<rscale>  0 0.12095940E+04</rscale>
<asrwt>0</asrwt>
<pdfrwt beam="1">  1        2 0.22072367E+00 0.12095940E+04</pdfrwt>
<pdfrwt beam="2">  1       -2 0.39223257E-01 0.12095940E+04</pdfrwt>
<totfact> 0.83734038E+01</totfact>
</mgrwt>
</event>
<event>
 4    1  0.1806019E-005  0.7600432E+03  0.7818608E-02  0.9619725E-01
          2   -1    0    0  501    0  0.00000000000E+00  0.00000000000E+00  0.72126631196E+03  0.72126631197E+03  0.25500000000E-02 0.  1.
         -2   -1    0    0    0  501 -0.00000000000E+00 -0.00000000000E+00 -0.20022619933E+03  0.20022619935E+03  0.25500000000E-02 0. -1.
   -5000001    1    1    2    0    0 -0.23571633555E+03 -0.13804238169E+03  0.36409888853E+03  0.51931290242E+03  0.25000000000E+03 0.  0.
    5000001    1    1    2    0    0  0.23571633555E+03  0.13804238169E+03  0.15694122410E+03  0.40217960889E+03  0.25000000000E+03 0.  0.
<mgrwt>
<rscale>  0 0.76004319E+03</rscale>
<asrwt>0</asrwt>
<pdfrwt beam="1">  1        2 0.11096405E+00 0.76004319E+03</pdfrwt>
<pdfrwt beam="2">  1       -2 0.30804030E-01 0.76004319E+03</pdfrwt>
<totfact> 0.38694306E+02</totfact>
</mgrwt>
</event>
<event>
 4    1  0.1806019E-005  0.1115496E+04  0.7818608E-02  0.9190219E-01
          2   -1    0    0  501    0  0.00000000000E+00  0.00000000000E+00  0.14747392445E+04  0.14747392445E+04  0.25500000000E-02 0.  1.
         -2   -1    0    0    0  501 -0.00000000000E+00 -0.00000000000E+00 -0.21094091573E+03  0.21094091574E+03  0.25500000000E-02 0. -1.
   -5000001    1    1    2    0    0  0.45730905800E+02 -0.20111658628E+03 -0.54041839118E+02  0.32857224076E+03  0.25000000000E+03 0.  0.
    5000001    1    1    2    0    0 -0.45730905800E+02  0.20111658628E+03  0.13178401679E+04  0.13571079195E+04  0.25000000000E+03 0.  0.
<mgrwt>
<rscale>  0 0.11154960E+04</rscale>
<asrwt>0</asrwt>
<pdfrwt beam="1">  1        2 0.22688296E+00 0.11154960E+04</pdfrwt>
<pdfrwt beam="2">  1       -2 0.32452448E-01 0.11154960E+04</pdfrwt>
<totfact> 0.11502689E+02</totfact>
</mgrwt>
</event>
<event>
 4    1  0.1806019E-005  0.7321360E+03  0.7818608E-02  0.9663801E-01
          2   -1    0    0  501    0  0.00000000000E+00  0.00000000000E+00  0.10751792243E+04  0.10751792243E+04  0.25500000000E-02 0.  1.
         -2   -1    0    0    0  501 -0.00000000000E+00 -0.00000000000E+00 -0.12463576024E+03  0.12463576027E+03  0.25500000000E-02 0. -1.
   -5000001    1    1    2    0    0  0.21060331733E+03 -0.16147308099E+03  0.52908953027E+03  0.64254419630E+03  0.25000000000E+03 0.  0.
    5000001    1    1    2    0    0 -0.21060331733E+03  0.16147308099E+03  0.42145393378E+03  0.55727078827E+03  0.25000000000E+03 0.  0.
<mgrwt>
<rscale>  0 0.73213600E+03</rscale>
<asrwt>0</asrwt>
<pdfrwt beam="1">  1        2 0.16541220E+00 0.73213600E+03</pdfrwt>
<pdfrwt beam="2">  1       -2 0.19174732E-01 0.73213600E+03</pdfrwt>
<totfact> 0.52223108E+02</totfact>
</mgrwt>
</event>
<event>
 4    1  0.1806019E-005  0.8135401E+03  0.7818608E-02  0.9540623E-01
         -2   -1    0    0    0  501 -0.00000000000E+00  0.00000000000E+00  0.16353599290E+03  0.16353599292E+03  0.25500000000E-02 0. -1.
          2   -1    0    0  501    0  0.00000000000E+00 -0.00000000000E+00 -0.10117765857E+04  0.10117765857E+04  0.25500000000E-02 0.  1.
   -5000001    1    1    2    0    0  0.54347489831E+02 -0.30409718438E+03 -0.29873042456E+03  0.49716055129E+03  0.25000000000E+03 0.  0.
    5000001    1    1    2    0    0 -0.54347489831E+02  0.30409718438E+03 -0.54951016827E+03  0.67815202738E+03  0.25000000000E+03 0.  0.
<mgrwt>
<rscale>  0 0.81354014E+03</rscale>
<asrwt>0</asrwt>
<pdfrwt beam="1">  1        2 0.15565793E+00 0.81354014E+03</pdfrwt>
<pdfrwt beam="2">  1       -2 0.25159384E-01 0.81354014E+03</pdfrwt>
<totfact> 0.35226946E+02</totfact>
</mgrwt>
</event>
<event>
 4    1  0.1806019E-005  0.6172873E+03  0.7818608E-02  0.9870176E-01
         -2   -1    0    0    0  501 -0.00000000000E+00  0.00000000000E+00  0.36304238116E+03  0.36304238117E+03  0.25500000000E-02 0. -1.
          2   -1    0    0  501    0  0.00000000000E+00 -0.00000000000E+00 -0.26239609944E+03  0.26239609945E+03  0.25500000000E-02 0.  1.
   -5000001    1    1    2    0    0 -0.43206394931E+02  0.12320241054E+03  0.17733909897E+03  0.33315879480E+03  0.25000000000E+03 0.  0.
    5000001    1    1    2    0    0  0.43206394931E+02 -0.12320241054E+03 -0.76692817254E+02  0.29227968582E+03  0.25000000000E+03 0.  0.
<mgrwt>
<rscale>  0 0.61728731E+03</rscale>
<asrwt>0</asrwt>
<pdfrwt beam="1">  1        2 0.40368631E-01 0.61728731E+03</pdfrwt>
<pdfrwt beam="2">  1       -2 0.55852674E-01 0.61728731E+03</pdfrwt>
<totfact> 0.38752178E+02</totfact>
</mgrwt>
</event>
<event>
 4    1  0.1806019E-005  0.1229793E+04  0.7818608E-02  0.9087171E-01
          2   -1    0    0  501    0  0.00000000000E+00  0.00000000000E+00  0.21351533005E+04  0.21351533005E+04  0.25500000000E-02 0. -1.
         -2   -1    0    0    0  501 -0.00000000000E+00 -0.00000000000E+00 -0.17708214720E+03  0.17708214722E+03  0.25500000000E-02 0.  1.
   -5000001    1    1    2    0    0  0.44313130592E+03 -0.31606600439E+03  0.71759912791E+03  0.93472540449E+03  0.25000000000E+03 0.  0.
    5000001    1    1    2    0    0 -0.44313130592E+03  0.31606600439E+03  0.12404720253E+04  0.13775100432E+04  0.25000000000E+03 0.  0.
<mgrwt>
<rscale>  0 0.12297927E+04</rscale>
<asrwt>0</asrwt>
<pdfrwt beam="1">  1        2 0.32848514E+00 0.12297927E+04</pdfrwt>
<pdfrwt beam="2">  1       -2 0.27243406E-01 0.12297927E+04</pdfrwt>
<totfact> 0.67953332E+01</totfact>
</mgrwt>
</event>
<event>
 4    1  0.1806019E-005  0.6859957E+03  0.7818608E-02  0.9741486E-01
         -2   -1    0    0    0  501 -0.00000000000E+00  0.00000000000E+00  0.40057851068E+02  0.40057851149E+02  0.25500000000E-02 0. -1.
          2   -1    0    0  501    0  0.00000000000E+00 -0.00000000000E+00 -0.29369407277E+04  0.29369407277E+04  0.25500000000E-02 0.  1.
   -5000001    1    1    2    0    0 -0.84751036795E+02  0.21873225789E+03 -0.14007058986E+04  0.14420483880E+04  0.25000000000E+03 0.  0.
    5000001    1    1    2    0    0  0.84751036795E+02 -0.21873225789E+03 -0.14961769780E+04  0.15349501909E+04  0.25000000000E+03 0.  0.
<mgrwt>
<rscale>  0 0.68599573E+03</rscale>
<asrwt>0</asrwt>
<pdfrwt beam="1">  1        2 0.45183687E+00 0.68599573E+03</pdfrwt>
<pdfrwt beam="2">  1       -2 0.61627486E-02 0.68599573E+03</pdfrwt>
<totfact> 0.30087214E+02</totfact>
</mgrwt>
</event>
<event>
 4    1  0.1806019E-005  0.7110084E+03  0.7818608E-02  0.9698589E-01
          2   -1    0    0  501    0  0.00000000000E+00  0.00000000000E+00  0.25769168327E+03  0.25769168329E+03  0.25500000000E-02 0.  1.
         -2   -1    0    0    0  501 -0.00000000000E+00 -0.00000000000E+00 -0.49044358224E+03  0.49044358225E+03  0.25500000000E-02 0. -1.
   -5000001    1    1    2    0    0 -0.21856743238E+03 -0.12217466206E+03 -0.80156717527E+02  0.36279948995E+03  0.25000000000E+03 0.  0.
    5000001    1    1    2    0    0  0.21856743238E+03  0.12217466206E+03 -0.15259518144E+03  0.38533577558E+03  0.25000000000E+03 0.  0.
<mgrwt>
<rscale>  0 0.71100839E+03</rscale>
<asrwt>0</asrwt>
<pdfrwt beam="1">  1        2 0.39644874E-01 0.71100839E+03</pdfrwt>
<pdfrwt beam="2">  1       -2 0.75452859E-01 0.71100839E+03</pdfrwt>
<totfact> 0.20696699E+02</totfact>
</mgrwt>
</event>
<event>
 4    1  0.1806019E-005  0.7974514E+03  0.7818608E-02  0.9563713E-01
          2   -1    0    0  501    0  0.00000000000E+00  0.00000000000E+00  0.21985189626E+04  0.21985189626E+04  0.25500000000E-02 0.  1.
         -2   -1    0    0    0  501 -0.00000000000E+00 -0.00000000000E+00 -0.72313304080E+02  0.72313304125E+02  0.25500000000E-02 0. -1.
   -5000001    1    1    2    0    0 -0.16155416981E+03 -0.25251963438E+03  0.12947286445E+04  0.13522899758E+04  0.25000000000E+03 0.  0.
    5000001    1    1    2    0    0  0.16155416981E+03  0.25251963438E+03  0.83147701397E+03  0.91854229097E+03  0.25000000000E+03 0.  0.
<mgrwt>
<rscale>  0 0.79745137E+03</rscale>
<asrwt>0</asrwt>
<pdfrwt beam="1">  1        2 0.33823366E+00 0.79745137E+03</pdfrwt>
<pdfrwt beam="2">  1       -2 0.11125124E-01 0.79745137E+03</pdfrwt>
<totfact> 0.30572754E+02</totfact>
</mgrwt>
</event>
<event>
 4    1  0.1806019E-005  0.6404586E+03  0.7818608E-02  0.9824849E-01
          2   -1    0    0  501    0  0.00000000000E+00  0.00000000000E+00  0.47022112050E+02  0.47022112119E+02  0.25500000000E-02 0.  1.
         -2   -1    0    0    0  501 -0.00000000000E+00 -0.00000000000E+00 -0.21808211553E+04  0.21808211553E+04  0.25500000000E-02 0. -1.
   -5000001    1    1    2    0    0  0.16347351900E+03  0.11119344906E+03 -0.11746347414E+04  0.12171090133E+04  0.25000000000E+03 0.  0.
    5000001    1    1    2    0    0 -0.16347351900E+03 -0.11119344906E+03 -0.95916430180E+03  0.10107342541E+04  0.25000000000E+03 0.  0.
<mgrwt>
<rscale>  0 0.64045864E+03</rscale>
<asrwt>0</asrwt>
<pdfrwt beam="1">  1        2 0.72341728E-02 0.64045864E+03</pdfrwt>
<pdfrwt beam="2">  1       -2 0.33551087E+00 0.64045864E+03</pdfrwt>
<totfact> 0.20616519E+01</totfact>
</mgrwt>
</event>
<event>
 4    1  0.1806019E-005  0.6505787E+03  0.7818608E-02  0.9805694E-01
          2   -1    0    0  501    0  0.00000000000E+00  0.00000000000E+00  0.27073544975E+03  0.27073544976E+03  0.25500000000E-02 0.  1.
         -2   -1    0    0    0  501 -0.00000000000E+00 -0.00000000000E+00 -0.39083600487E+03  0.39083600488E+03  0.25500000000E-02 0. -1.
   -5000001    1    1    2    0    0 -0.18655800479E+03  0.90902721740E+02 -0.44101923739E+02  0.32789049033E+03  0.25000000000E+03 0.  0.
    5000001    1    1    2    0    0  0.18655800479E+03 -0.90902721740E+02 -0.75998631389E+02  0.33368096431E+03  0.25000000000E+03 0.  0.
<mgrwt>
<rscale>  0 0.65057870E+03</rscale>
<asrwt>0</asrwt>
<pdfrwt beam="1">  1        2 0.41651608E-01 0.65057870E+03</pdfrwt>
<pdfrwt beam="2">  1       -2 0.60128616E-01 0.65057870E+03</pdfrwt>
<totfact> 0.32057406E+02</totfact>
</mgrwt>
</event>
<event>
 4    1  0.1806019E-005  0.8809612E+03  0.7818608E-02  0.9449699E-01
         -2   -1    0    0    0  501 -0.00000000000E+00  0.00000000000E+00  0.61807306438E+02  0.61807306491E+02  0.25500000000E-02 0. -1.
          2   -1    0    0  501    0  0.00000000000E+00 -0.00000000000E+00 -0.31391622842E+04  0.31391622842E+04  0.25500000000E-02 0.  1.
   -5000001    1    1    2    0    0  0.14775406719E+03 -0.32175093153E+03 -0.12533094322E+04  0.13261370439E+04  0.25000000000E+03 0.  0.
    5000001    1    1    2    0    0 -0.14775406719E+03  0.32175093153E+03 -0.18240455455E+04  0.18748325468E+04  0.25000000000E+03 0.  0.
<mgrwt>
<rscale>  0 0.88096121E+03</rscale>
<asrwt>0</asrwt>
<pdfrwt beam="1">  1        2 0.48294792E+00 0.88096121E+03</pdfrwt>
<pdfrwt beam="2">  1       -2 0.95088188E-02 0.88096121E+03</pdfrwt>
<totfact> 0.11046746E+02</totfact>
</mgrwt>
</event>
<event>
 4    1  0.1806019E-005  0.7253640E+03  0.7818608E-02  0.9674813E-01
          2   -1    0    0  501    0  0.00000000000E+00  0.00000000000E+00  0.17621402812E+04  0.17621402812E+04  0.25500000000E-02 0.  1.
         -2   -1    0    0    0  501 -0.00000000000E+00 -0.00000000000E+00 -0.74646849056E+02  0.74646849100E+02  0.25500000000E-02 0. -1.
   -5000001    1    1    2    0    0  0.13633116924E+03 -0.81783851237E+02  0.13734815681E+04  0.14050716722E+04  0.25000000000E+03 0.  0.
    5000001    1    1    2    0    0 -0.13633116924E+03  0.81783851237E+02  0.31401186405E+03  0.43171545813E+03  0.25000000000E+03 0.  0.
<mgrwt>
<rscale>  0 0.72536396E+03</rscale>
<asrwt>0</asrwt>
<pdfrwt beam="1">  1        2 0.27109850E+00 0.72536396E+03</pdfrwt>
<pdfrwt beam="2">  1       -2 0.11484131E-01 0.72536396E+03</pdfrwt>
<totfact> 0.50521714E+02</totfact>
</mgrwt>
</event>
<event>
 4    1  0.1806019E-005  0.8427676E+03  0.7818608E-02  0.9500096E-01
          2   -1    0    0  501    0  0.00000000000E+00  0.00000000000E+00  0.11523451563E+04  0.11523451563E+04  0.25500000000E-02 0.  1.
         -2   -1    0    0    0  501 -0.00000000000E+00 -0.00000000000E+00 -0.15408949958E+03  0.15408949960E+03  0.25500000000E-02 0. -1.
   -5000001    1    1    2    0    0  0.13427993323E+03  0.28460690442E+03  0.69540738271E+03  0.80319587800E+03  0.25000000000E+03 0.  0.
    5000001    1    1    2    0    0 -0.13427993323E+03 -0.28460690442E+03  0.30284827403E+03  0.50323877792E+03  0.25000000000E+03 0.  0.
<mgrwt>
<rscale>  0 0.84276756E+03</rscale>
<asrwt>0</asrwt>
<pdfrwt beam="1">  1        2 0.17728387E+00 0.84276756E+03</pdfrwt>
<pdfrwt beam="2">  1       -2 0.23706077E-01 0.84276756E+03</pdfrwt>
<totfact> 0.32052712E+02</totfact>
</mgrwt>
</event>
<event>
 4    1  0.1806019E-005  0.1232662E+04  0.7818608E-02  0.9084739E-01
         -2   -1    0    0    0  501 -0.00000000000E+00  0.00000000000E+00  0.26465054222E+03  0.26465054223E+03  0.25500000000E-02 0. -1.
          2   -1    0    0  501    0  0.00000000000E+00 -0.00000000000E+00 -0.14353409645E+04  0.14353409645E+04  0.25500000000E-02 0.  1.
   -5000001    1    1    2    0    0  0.36286734104E+02  0.54946224615E+03 -0.42136136326E+03  0.73706911852E+03  0.25000000000E+03 0.  0.
    5000001    1    1    2    0    0 -0.36286734104E+02 -0.54946224615E+03 -0.74932905898E+03  0.96292238818E+03  0.25000000000E+03 0.  0.
<mgrwt>
<rscale>  0 0.12326618E+04</rscale>
<asrwt>0</asrwt>
<pdfrwt beam="1">  1        2 0.22082168E+00 0.12326618E+04</pdfrwt>
<pdfrwt beam="2">  1       -2 0.40715469E-01 0.12326618E+04</pdfrwt>
<totfact> 0.77646025E+01</totfact>
</mgrwt>
</event>
<event>
 4    1  0.1806019E-005  0.1584859E+04  0.7818608E-02  0.8829904E-01
         -2   -1    0    0    0  501 -0.00000000000E+00  0.00000000000E+00  0.22337173735E+03  0.22337173736E+03  0.25500000000E-02 0. -1.
          2   -1    0    0  501    0  0.00000000000E+00 -0.00000000000E+00 -0.28112067514E+04  0.28112067514E+04  0.25500000000E-02 0.  1.
   -5000001    1    1    2    0    0 -0.57549663874E+03 -0.48397219244E+03 -0.13021912448E+04  0.15243449420E+04  0.25000000000E+03 0.  0.
    5000001    1    1    2    0    0  0.57549663874E+03  0.48397219244E+03 -0.12856437692E+04  0.15102335467E+04  0.25000000000E+03 0.  0.
<mgrwt>
<rscale>  0 0.15848585E+04</rscale>
<asrwt>0</asrwt>
<pdfrwt beam="1">  1        2 0.43249332E+00 0.15848585E+04</pdfrwt>
<pdfrwt beam="2">  1       -2 0.34364885E-01 0.15848585E+04</pdfrwt>
<totfact> 0.17417206E+01</totfact>
</mgrwt>
</event>
<event>
 4    1  0.1806019E-005  0.6450827E+03  0.7818608E-02  0.9816050E-01
         -2   -1    0    0    0  501 -0.00000000000E+00  0.00000000000E+00  0.91875353169E+02  0.91875353204E+02  0.25500000000E-02 0. -1.
          2   -1    0    0  501    0  0.00000000000E+00 -0.00000000000E+00 -0.11323268441E+04  0.11323268441E+04  0.25500000000E-02 0.  1.
   -5000001    1    1    2    0    0  0.11657691398E+03 -0.13333807208E+03 -0.71154729400E+03  0.77470560211E+03  0.25000000000E+03 0.  0.
    5000001    1    1    2    0    0 -0.11657691398E+03  0.13333807208E+03 -0.32890419695E+03  0.44949659521E+03  0.25000000000E+03 0.  0.
<mgrwt>
<rscale>  0 0.64508272E+03</rscale>
<asrwt>0</asrwt>
<pdfrwt beam="1">  1        2 0.17420412E+00 0.64508272E+03</pdfrwt>
<pdfrwt beam="2">  1       -2 0.14134671E-01 0.64508272E+03</pdfrwt>
<totfact> 0.81393990E+02</totfact>
</mgrwt>
</event>
<event>
 4    1  0.1806019E-005  0.9621319E+03  0.7818608E-02  0.9351082E-01
         -2   -1    0    0    0  501 -0.00000000000E+00  0.00000000000E+00  0.12223424451E+03  0.12223424453E+03  0.25500000000E-02 0. -1.
          2   -1    0    0  501    0  0.00000000000E+00 -0.00000000000E+00 -0.18932866935E+04  0.18932866935E+04  0.25500000000E-02 0.  1.
   -5000001    1    1    2    0    0  0.23734387956E+03  0.16019100765E+03 -0.15031734567E+04  0.15504914437E+04  0.25000000000E+03 0.  0.
    5000001    1    1    2    0    0 -0.23734387956E+03 -0.16019100765E+03 -0.26787899234E+03  0.46502949437E+03  0.25000000000E+03 0.  0.
<mgrwt>
<rscale>  0 0.96213194E+03</rscale>
<asrwt>0</asrwt>
<pdfrwt beam="1">  1        2 0.29127486E+00 0.96213194E+03</pdfrwt>
<pdfrwt beam="2">  1       -2 0.18805270E-01 0.96213194E+03</pdfrwt>
<totfact> 0.18296637E+02</totfact>
</mgrwt>
</event>
<event>
 4    1  0.1806019E-005  0.1279322E+04  0.7818608E-02  0.9046125E-01
         -2   -1    0    0    0  501 -0.00000000000E+00  0.00000000000E+00  0.17266636606E+03  0.17266636608E+03  0.25500000000E-02 0. -1.
          2   -1    0    0  501    0  0.00000000000E+00 -0.00000000000E+00 -0.23696935607E+04  0.23696935607E+04  0.25500000000E-02 0.  1.
   -5000001    1    1    2    0    0  0.32294274522E+03 -0.30054172203E+03 -0.18734193779E+04  0.19408290777E+04  0.25000000000E+03 0.  0.
    5000001    1    1    2    0    0 -0.32294274522E+03  0.30054172203E+03 -0.32360781681E+03  0.60153084914E+03  0.25000000000E+03 0.  0.
<mgrwt>
<rscale>  0 0.12793223E+04</rscale>
<asrwt>0</asrwt>
<pdfrwt beam="1">  1        2 0.36456822E+00 0.12793223E+04</pdfrwt>
<pdfrwt beam="2">  1       -2 0.26564058E-01 0.12793223E+04</pdfrwt>
<totfact> 0.52352095E+01</totfact>
</mgrwt>
</event>
<event>
 4    1  0.1806019E-005  0.1470326E+04  0.7818608E-02  0.8904429E-01
          2   -1    0    0  501    0  0.00000000000E+00  0.00000000000E+00  0.21800160496E+04  0.21800160496E+04  0.25500000000E-02 0.  1.
         -2   -1    0    0    0  501 -0.00000000000E+00 -0.00000000000E+00 -0.24791789354E+03  0.24791789355E+03  0.25500000000E-02 0. -1.
   -5000001    1    1    2    0    0  0.61772086337E+03  0.62821265852E+02  0.46399364360E+03  0.81444194255E+03  0.25000000000E+03 0.  0.
    5000001    1    1    2    0    0 -0.61772086337E+03 -0.62821265852E+02  0.14681045125E+04  0.16134920006E+04  0.25000000000E+03 0.  0.
<mgrwt>
<rscale>  0 0.14703265E+04</rscale>
<asrwt>0</asrwt>
<pdfrwt beam="1">  1        2 0.33538708E+00 0.14703265E+04</pdfrwt>
<pdfrwt beam="2">  1       -2 0.38141215E-01 0.14703265E+04</pdfrwt>
<totfact> 0.33340024E+01</totfact>
</mgrwt>
</event>
<event>
 4    1  0.1806019E-005  0.9563339E+03  0.7818608E-02  0.9357778E-01
          2   -1    0    0  501    0  0.00000000000E+00  0.00000000000E+00  0.47566277528E+03  0.47566277528E+03  0.25500000000E-02 0.  1.
         -2   -1    0    0    0  501 -0.00000000000E+00 -0.00000000000E+00 -0.48068429769E+03  0.48068429769E+03  0.25500000000E-02 0. -1.
   -5000001    1    1    2    0    0 -0.26864646823E+03  0.16372497775E+03  0.25665846092E+03  0.47681270830E+03  0.25000000000E+03 0.  0.
    5000001    1    1    2    0    0  0.26864646823E+03 -0.16372497775E+03 -0.26167998334E+03  0.47953436468E+03  0.25000000000E+03 0.  0.
<mgrwt>
<rscale>  0 0.95633389E+03</rscale>
<asrwt>0</asrwt>
<pdfrwt beam="1">  1        2 0.73178889E-01 0.95633389E+03</pdfrwt>
<pdfrwt beam="2">  1       -2 0.73951430E-01 0.95633389E+03</pdfrwt>
<totfact> 0.10764487E+02</totfact>
</mgrwt>
</event>
<event>
 4    1  0.1806019E-005  0.6131318E+03  0.7818608E-02  0.9878530E-01
         -2   -1    0    0    0  501 -0.00000000000E+00  0.00000000000E+00  0.69611485047E+02  0.69611485093E+02  0.25500000000E-02 0. -1.
          2   -1    0    0  501    0  0.00000000000E+00 -0.00000000000E+00 -0.13501024587E+04  0.13501024587E+04  0.25500000000E-02 0.  1.
   -5000001    1    1    2    0    0  0.12788771420E+03  0.31875667243E+02 -0.91530757057E+03  0.95794533996E+03  0.25000000000E+03 0.  0.
    5000001    1    1    2    0    0 -0.12788771420E+03 -0.31875667243E+02 -0.36518340310E+03  0.46176860385E+03  0.25000000000E+03 0.  0.
<mgrwt>
<rscale>  0 0.61313175E+03</rscale>
<asrwt>0</asrwt>
<pdfrwt beam="1">  1        2 0.20770805E+00 0.61313175E+03</pdfrwt>
<pdfrwt beam="2">  1       -2 0.10709460E-01 0.61313175E+03</pdfrwt>
<totfact> 0.96282813E+02</totfact>
</mgrwt>
</event>
<event>
 4    1  0.1806019E-005  0.1001288E+04  0.7818608E-02  0.9307134E-01
          2   -1    0    0  501    0  0.00000000000E+00  0.00000000000E+00  0.19085028522E+04  0.19085028522E+04  0.25500000000E-02 0.  1.
         -2   -1    0    0    0  501 -0.00000000000E+00 -0.00000000000E+00 -0.13133031951E+03  0.13133031953E+03  0.25500000000E-02 0. -1.
   -5000001    1    1    2    0    0  0.41605448226E+03 -0.81206572326E+02  0.10758373160E+04  0.11830561145E+04  0.25000000000E+03 0.  0.
    5000001    1    1    2    0    0 -0.41605448226E+03  0.81206572326E+02  0.70133521670E+03  0.85677705722E+03  0.25000000000E+03 0.  0.
<mgrwt>
<rscale>  0 0.10012877E+04</rscale>
<asrwt>0</asrwt>
<pdfrwt beam="1">  1        2 0.29361585E+00 0.10012877E+04</pdfrwt>
<pdfrwt beam="2">  1       -2 0.20204663E-01 0.10012877E+04</pdfrwt>
<totfact> 0.15783549E+02</totfact>
</mgrwt>
</event>
<event>
 4    1  0.1806019E-005  0.1336922E+04  0.7818608E-02  0.9000787E-01
         -2   -1    0    0    0  501 -0.00000000000E+00  0.00000000000E+00  0.18097396366E+03  0.18097396368E+03  0.25500000000E-02 0. -1.
          2   -1    0    0  501    0  0.00000000000E+00 -0.00000000000E+00 -0.24690868985E+04  0.24690868985E+04  0.25500000000E-02 0.  1.
   -5000001    1    1    2    0    0 -0.49922582756E+03  0.36725568456E+03 -0.11745900857E+04  0.13513937376E+04  0.25000000000E+03 0.  0.
    5000001    1    1    2    0    0  0.49922582756E+03 -0.36725568456E+03 -0.11135228491E+04  0.12986671245E+04  0.25000000000E+03 0.  0.
<mgrwt>
<rscale>  0 0.13369225E+04</rscale>
<asrwt>0</asrwt>
<pdfrwt beam="1">  1        2 0.37985950E+00 0.13369225E+04</pdfrwt>
<pdfrwt beam="2">  1       -2 0.27842150E-01 0.13369225E+04</pdfrwt>
<totfact> 0.41946142E+01</totfact>
</mgrwt>
</event>
<event>
 4    1  0.1806019E-005  0.9917545E+03  0.7818608E-02  0.9317635E-01
         -2   -1    0    0    0  501 -0.00000000000E+00  0.00000000000E+00  0.26359147881E+03  0.26359147882E+03  0.25500000000E-02 0. -1.
          2   -1    0    0  501    0  0.00000000000E+00 -0.00000000000E+00 -0.93286107182E+03  0.93286107182E+03  0.25500000000E-02 0.  1.
   -5000001    1    1    2    0    0  0.30668081687E+03 -0.14654206000E+03 -0.64891653008E+03  0.77402865696E+03  0.25000000000E+03 0.  0.
    5000001    1    1    2    0    0 -0.30668081687E+03  0.14654206000E+03 -0.20353062926E+02  0.42242389368E+03  0.25000000000E+03 0.  0.
<mgrwt>
<rscale>  0 0.99175446E+03</rscale>
<asrwt>0</asrwt>
<pdfrwt beam="1">  1        2 0.14351709E+00 0.99175446E+03</pdfrwt>
<pdfrwt beam="2">  1       -2 0.40552536E-01 0.99175446E+03</pdfrwt>
<totfact> 0.16012490E+02</totfact>
</mgrwt>
</event>
<event>
 4    1  0.1806019E-005  0.1061232E+04  0.7818608E-02  0.9243824E-01
         -2   -1    0    0    0  501 -0.00000000000E+00  0.00000000000E+00  0.32084314911E+03  0.32084314912E+03  0.25500000000E-02 0. -1.
          2   -1    0    0  501    0  0.00000000000E+00 -0.00000000000E+00 -0.87754176577E+03  0.87754176578E+03  0.25500000000E-02 0.  1.
   -5000001    1    1    2    0    0  0.28463710810E+03 -0.14377744083E+03  0.10850880333E+03  0.41948110351E+03  0.25000000000E+03 0.  0.
    5000001    1    1    2    0    0 -0.28463710810E+03  0.14377744083E+03 -0.66520741999E+03  0.77890381139E+03  0.25000000000E+03 0.  0.
<mgrwt>
<rscale>  0 0.10612319E+04</rscale>
<asrwt>0</asrwt>
<pdfrwt beam="1">  1        2 0.13500642E+00 0.10612319E+04</pdfrwt>
<pdfrwt beam="2">  1       -2 0.49360485E-01 0.10612319E+04</pdfrwt>
<totfact> 0.11740921E+02</totfact>
</mgrwt>
</event>
<event>
 4    1  0.1806019E-005  0.6045936E+03  0.7818608E-02  0.9895921E-01
         -2   -1    0    0    0  501 -0.00000000000E+00  0.00000000000E+00  0.52603661505E+02  0.52603661567E+02  0.25500000000E-02 0. -1.
          2   -1    0    0  501    0  0.00000000000E+00 -0.00000000000E+00 -0.17372053571E+04  0.17372053571E+04  0.25500000000E-02 0.  1.
   -5000001    1    1    2    0    0  0.41763705645E+00 -0.14659701742E+03 -0.58777090808E+03  0.65533617352E+03  0.25000000000E+03 0.  0.
    5000001    1    1    2    0    0 -0.41763705645E+00  0.14659701742E+03 -0.10968307875E+04  0.11344728451E+04  0.25000000000E+03 0.  0.
<mgrwt>
<rscale>  0 0.60459362E+03</rscale>
<asrwt>0</asrwt>
<pdfrwt beam="1">  1        2 0.26726232E+00 0.60459362E+03</pdfrwt>
<pdfrwt beam="2">  1       -2 0.80928723E-02 0.60459362E+03</pdfrwt>
<totfact> 0.92576037E+02</totfact>
</mgrwt>
</event>
<event>
 4    1  0.1806019E-005  0.6395964E+03  0.7818608E-02  0.9826499E-01
         -2   -1    0    0    0  501 -0.00000000000E+00  0.00000000000E+00  0.22894961800E+03  0.22894961801E+03  0.25500000000E-02 0. -1.
          2   -1    0    0  501    0  0.00000000000E+00 -0.00000000000E+00 -0.44669608286E+03  0.44669608287E+03  0.25500000000E-02 0.  1.
   -5000001    1    1    2    0    0 -0.86028812270E+02  0.32810049970E+00  0.81183483269E+02  0.27657154978E+03  0.25000000000E+03 0.  0.
    5000001    1    1    2    0    0  0.86028812270E+02 -0.32810049970E+00 -0.29892994813E+03  0.39907415111E+03  0.25000000000E+03 0.  0.
<mgrwt>
<rscale>  0 0.63959643E+03</rscale>
<asrwt>0</asrwt>
<pdfrwt beam="1">  1        2 0.68722474E-01 0.63959643E+03</pdfrwt>
<pdfrwt beam="2">  1       -2 0.35223018E-01 0.63959643E+03</pdfrwt>
<totfact> 0.53460342E+02</totfact>
</mgrwt>
</event>
<event>
 4    1  0.1806019E-005  0.6828608E+03  0.7818608E-02  0.9747000E-01
         -2   -1    0    0    0  501 -0.00000000000E+00  0.00000000000E+00  0.14086264731E+03  0.14086264733E+03  0.25500000000E-02 0. -1.
          2   -1    0    0  501    0  0.00000000000E+00 -0.00000000000E+00 -0.82757717599E+03  0.82757717599E+03  0.25500000000E-02 0.  1.
   -5000001    1    1    2    0    0 -0.22152035590E+03  0.43968565955E+02 -0.42193951069E+03  0.53994208351E+03  0.25000000000E+03 0.  0.
    5000001    1    1    2    0    0  0.22152035590E+03 -0.43968565955E+02 -0.26477501800E+03  0.42849773981E+03  0.25000000000E+03 0.  0.
<mgrwt>
<rscale>  0 0.68286078E+03</rscale>
<asrwt>0</asrwt>
<pdfrwt beam="1">  1        2 0.12731956E+00 0.68286078E+03</pdfrwt>
<pdfrwt beam="2">  1       -2 0.21671177E-01 0.68286078E+03</pdfrwt>
<totfact> 0.61327028E+02</totfact>
</mgrwt>
</event>
<event>
 4    1  0.1806019E-005  0.9763094E+03  0.7818608E-02  0.9334917E-01
          2   -1    0    0  501    0  0.00000000000E+00  0.00000000000E+00  0.11107588666E+04  0.11107588666E+04  0.25500000000E-02 0.  1.
         -2   -1    0    0    0  501 -0.00000000000E+00 -0.00000000000E+00 -0.21453354334E+03  0.21453354335E+03  0.25500000000E-02 0. -1.
   -5000001    1    1    2    0    0 -0.18815782505E+03 -0.31096475002E+03  0.73185760151E+03  0.85452793504E+03  0.25000000000E+03 0.  0.
    5000001    1    1    2    0    0  0.18815782505E+03  0.31096475002E+03  0.16436772174E+03  0.47076447490E+03  0.25000000000E+03 0.  0.
<mgrwt>
<rscale>  0 0.97630945E+03</rscale>
<asrwt>0</asrwt>
<pdfrwt beam="1">  1        2 0.17088598E+00 0.97630945E+03</pdfrwt>
<pdfrwt beam="2">  1       -2 0.33005161E-01 0.97630945E+03</pdfrwt>
<totfact> 0.18347867E+02</totfact>
</mgrwt>
</event>
<event>
 4    1  0.1806019E-005  0.9048011E+03  0.7818608E-02  0.9419600E-01
          2   -1    0    0  501    0  0.00000000000E+00  0.00000000000E+00  0.17959708857E+04  0.17959708857E+04  0.25500000000E-02 0. -1.
         -2   -1    0    0    0  501 -0.00000000000E+00 -0.00000000000E+00 -0.11395856234E+03  0.11395856237E+03  0.25500000000E-02 0.  1.
   -5000001    1    1    2    0    0 -0.21607449496E+03  0.34276719258E+02  0.14892335398E+04  0.15258373494E+04  0.25000000000E+03 0.  0.
    5000001    1    1    2    0    0  0.21607449496E+03 -0.34276719258E+02  0.19277878359E+03  0.38409209866E+03  0.25000000000E+03 0.  0.
<mgrwt>
<rscale>  0 0.90480111E+03</rscale>
<asrwt>0</asrwt>
<pdfrwt beam="1">  1        2 0.27630316E+00 0.90480111E+03</pdfrwt>
<pdfrwt beam="2">  1       -2 0.17532090E-01 0.90480111E+03</pdfrwt>
<totfact> 0.23458293E+02</totfact>
</mgrwt>
</event>
<event>
 4    1  0.1806019E-005  0.9248824E+03  0.7818608E-02  0.9395001E-01
         -2   -1    0    0    0  501 -0.00000000000E+00  0.00000000000E+00  0.95952333735E+02  0.95952333769E+02  0.25500000000E-02 0. -1.
          2   -1    0    0  501    0  0.00000000000E+00 -0.00000000000E+00 -0.22287299903E+04  0.22287299903E+04  0.25500000000E-02 0.  1.
   -5000001    1    1    2    0    0  0.18761070982E+03  0.34062705141E+03 -0.10947453244E+04  0.11883568033E+04  0.25000000000E+03 0.  0.
    5000001    1    1    2    0    0 -0.18761070982E+03 -0.34062705141E+03 -0.10380323321E+04  0.11363255208E+04  0.25000000000E+03 0.  0.
<mgrwt>
<rscale>  0 0.92488236E+03</rscale>
<asrwt>0</asrwt>
<pdfrwt beam="1">  1        2 0.34288150E+00 0.92488236E+03</pdfrwt>
<pdfrwt beam="2">  1       -2 0.14761899E-01 0.92488236E+03</pdfrwt>
<totfact> 0.18163619E+02</totfact>
</mgrwt>
</event>
<event>
 4    1  0.1806019E-005  0.7594330E+03  0.7818608E-02  0.9620667E-01
          2   -1    0    0  501    0  0.00000000000E+00  0.00000000000E+00  0.72248536489E+03  0.72248536489E+03  0.25500000000E-02 0.  1.
         -2   -1    0    0    0  501 -0.00000000000E+00 -0.00000000000E+00 -0.19956750848E+03  0.19956750849E+03  0.25500000000E-02 0. -1.
   -5000001    1    1    2    0    0 -0.26049831240E+03  0.74571493388E+02  0.15108408488E+03  0.39843026880E+03  0.25000000000E+03 0.  0.
    5000001    1    1    2    0    0  0.26049831240E+03 -0.74571493388E+02  0.37183377152E+03  0.52362260459E+03  0.25000000000E+03 0.  0.
<mgrwt>
<rscale>  0 0.75943296E+03</rscale>
<asrwt>0</asrwt>
<pdfrwt beam="1">  1        2 0.11115159E+00 0.75943296E+03</pdfrwt>
<pdfrwt beam="2">  1       -2 0.30702694E-01 0.75943296E+03</pdfrwt>
<totfact> 0.38849724E+02</totfact>
</mgrwt>
</event>
<event>
 4    1  0.1806019E-005  0.8080155E+03  0.7818608E-02  0.9548487E-01
          2   -1    0    0  501    0  0.00000000000E+00  0.00000000000E+00  0.42732345255E+03  0.42732345255E+03  0.25500000000E-02 0.  1.
         -2   -1    0    0    0  501 -0.00000000000E+00 -0.00000000000E+00 -0.38196421157E+03  0.38196421157E+03  0.25500000000E-02 0. -1.
   -5000001    1    1    2    0    0  0.25465785605E+03  0.27727372625E+02 -0.16497286412E+03  0.39412621930E+03  0.25000000000E+03 0.  0.
    5000001    1    1    2    0    0 -0.25465785605E+03 -0.27727372625E+02  0.21033210510E+03  0.41516144483E+03  0.25000000000E+03 0.  0.
<mgrwt>
<rscale>  0 0.80801551E+03</rscale>
<asrwt>0</asrwt>
<pdfrwt beam="1">  1        2 0.65742070E-01 0.80801551E+03</pdfrwt>
<pdfrwt beam="2">  1       -2 0.58763725E-01 0.80801551E+03</pdfrwt>
<totfact> 0.20113983E+02</totfact>
</mgrwt>
</event>
<event>
 4    1  0.1806019E-005  0.1220593E+04  0.7818608E-02  0.9095020E-01
         -2   -1    0    0    0  501 -0.00000000000E+00  0.00000000000E+00  0.29035709319E+03  0.29035709320E+03  0.25500000000E-02 0. -1.
          2   -1    0    0  501    0  0.00000000000E+00 -0.00000000000E+00 -0.12827709544E+04  0.12827709544E+04  0.25500000000E-02 0.  1.
   -5000001    1    1    2    0    0  0.33529563600E+03 -0.33271660059E+03 -0.11641251876E+03  0.54696926271E+03  0.25000000000E+03 0.  0.
    5000001    1    1    2    0    0 -0.33529563600E+03  0.33271660059E+03 -0.87600134248E+03  0.10261587849E+04  0.25000000000E+03 0.  0.
<mgrwt>
<rscale>  0 0.12205927E+04</rscale>
<asrwt>0</asrwt>
<pdfrwt beam="1">  1        2 0.19734937E+00 0.12205927E+04</pdfrwt>
<pdfrwt beam="2">  1       -2 0.44670323E-01 0.12205927E+04</pdfrwt>
<totfact> 0.79202725E+01</totfact>
</mgrwt>
</event>
<event>
 4    1  0.1806019E-005  0.1058444E+04  0.7818608E-02  0.9246669E-01
          2   -1    0    0  501    0  0.00000000000E+00  0.00000000000E+00  0.34742618604E+04  0.34742618604E+04  0.25500000000E-02 0.  1.
         -2   -1    0    0    0  501 -0.00000000000E+00 -0.00000000000E+00 -0.80614582892E+02  0.80614582932E+02  0.25500000000E-02 0. -1.
   -5000001    1    1    2    0    0 -0.40592093065E+03  0.22633868325E+03  0.18301205413E+04  0.19046895278E+04  0.25000000000E+03 0.  0.
    5000001    1    1    2    0    0  0.40592093065E+03 -0.22633868325E+03  0.15635267362E+04  0.16501869155E+04  0.25000000000E+03 0.  0.
<mgrwt>
<rscale>  0 0.10584445E+04</rscale>
<asrwt>0</asrwt>
<pdfrwt beam="1">  1        2 0.53450170E+00 0.10584445E+04</pdfrwt>
<pdfrwt beam="2">  1       -2 0.12402246E-01 0.10584445E+04</pdfrwt>
<totfact> 0.42138586E+01</totfact>
</mgrwt>
</event>
<event>
 4    1  0.1806019E-005  0.8371264E+03  0.7818608E-02  0.9507780E-01
          2   -1    0    0  501    0  0.00000000000E+00  0.00000000000E+00  0.15725819314E+04  0.15725819314E+04  0.25500000000E-02 0.  1.
         -2   -1    0    0    0  501 -0.00000000000E+00 -0.00000000000E+00 -0.11140606009E+03  0.11140606012E+03  0.25500000000E-02 0. -1.
   -5000001    1    1    2    0    0 -0.42966080284E+02 -0.25123088767E+03  0.11700822707E+04  0.12233378777E+04  0.25000000000E+03 0.  0.
    5000001    1    1    2    0    0  0.42966080284E+02  0.25123088767E+03  0.29109360060E+03  0.46065011374E+03  0.25000000000E+03 0.  0.
<mgrwt>
<rscale>  0 0.83712641E+03</rscale>
<asrwt>0</asrwt>
<pdfrwt beam="1">  1        2 0.24193568E+00 0.83712641E+03</pdfrwt>
<pdfrwt beam="2">  1       -2 0.17139394E-01 0.83712641E+03</pdfrwt>
<totfact> 0.32522356E+02</totfact>
</mgrwt>
</event>
<event>
 4    1  0.1806019E-005  0.6427334E+03  0.7818608E-02  0.9820511E-01
          2   -1    0    0  501    0  0.00000000000E+00  0.00000000000E+00  0.51936265206E+03  0.51936265207E+03  0.25500000000E-02 0.  1.
         -2   -1    0    0    0  501 -0.00000000000E+00 -0.00000000000E+00 -0.19885249642E+03  0.19885249644E+03  0.25500000000E-02 0. -1.
   -5000001    1    1    2    0    0  0.19014190713E+01  0.17286432874E+03  0.27687021788E+03  0.41114815954E+03  0.25000000000E+03 0.  0.
    5000001    1    1    2    0    0 -0.19014190713E+01 -0.17286432874E+03  0.43639937763E+02  0.30706698897E+03  0.25000000000E+03 0.  0.
<mgrwt>
<rscale>  0 0.64273341E+03</rscale>
<asrwt>0</asrwt>
<pdfrwt beam="1">  1        2 0.79901946E-01 0.64273341E+03</pdfrwt>
<pdfrwt beam="2">  1       -2 0.30592692E-01 0.64273341E+03</pdfrwt>
<totfact> 0.58586366E+02</totfact>
</mgrwt>
</event>
<event>
 4    1  0.1806019E-005  0.7779177E+03  0.7818608E-02  0.9592542E-01
         -2   -1    0    0    0  501 -0.00000000000E+00  0.00000000000E+00  0.50969343385E+02  0.50969343449E+02  0.25500000000E-02 0. -1.
          2   -1    0    0  501    0  0.00000000000E+00 -0.00000000000E+00 -0.29682350285E+04  0.29682350285E+04  0.25500000000E-02 0.  1.
   -5000001    1    1    2    0    0 -0.29482172879E+03  0.30837346997E+02 -0.15762380996E+04  0.16232366865E+04  0.25000000000E+03 0.  0.
    5000001    1    1    2    0    0  0.29482172879E+03 -0.30837346997E+02 -0.13410275855E+04  0.13959676855E+04  0.25000000000E+03 0.  0.
<mgrwt>
<rscale>  0 0.77791771E+03</rscale>
<asrwt>0</asrwt>
<pdfrwt beam="1">  1        2 0.45665141E+00 0.77791771E+03</pdfrwt>
<pdfrwt beam="2">  1       -2 0.78414398E-02 0.77791771E+03</pdfrwt>
<totfact> 0.19459584E+02</totfact>
</mgrwt>
</event>
<event>
 4    1  0.1806019E-005  0.7671532E+03  0.7818608E-02  0.9608818E-01
          2   -1    0    0  501    0  0.00000000000E+00  0.00000000000E+00  0.92050518989E+03  0.92050518989E+03  0.25500000000E-02 0.  1.
         -2   -1    0    0    0  501 -0.00000000000E+00 -0.00000000000E+00 -0.15983722086E+03  0.15983722088E+03  0.25500000000E-02 0. -1.
   -5000001    1    1    2    0    0 -0.62274513778E+02  0.25253983419E+03  0.56382023917E+03  0.66936368666E+03  0.25000000000E+03 0.  0.
    5000001    1    1    2    0    0  0.62274513778E+02 -0.25253983419E+03  0.19684772986E+03  0.41097872411E+03  0.25000000000E+03 0.  0.
<mgrwt>
<rscale>  0 0.76715316E+03</rscale>
<asrwt>0</asrwt>
<pdfrwt beam="1">  1        2 0.14161618E+00 0.76715316E+03</pdfrwt>
<pdfrwt beam="2">  1       -2 0.24590342E-01 0.76715316E+03</pdfrwt>
<totfact> 0.42169281E+02</totfact>
</mgrwt>
</event>
<event>
 4    1  0.1806019E-005  0.1532430E+04  0.7818608E-02  0.8863169E-01
          2   -1    0    0  501    0  0.00000000000E+00  0.00000000000E+00  0.92105403825E+03  0.92105403825E+03  0.25500000000E-02 0.  1.
         -2   -1    0    0    0  501 -0.00000000000E+00 -0.00000000000E+00 -0.63740640757E+03  0.63740640758E+03  0.25500000000E-02 0. -1.
   -5000001    1    1    2    0    0 -0.63471385978E+03 -0.34840790773E+03  0.12318238115E+03  0.77583738824E+03  0.25000000000E+03 0.  0.
    5000001    1    1    2    0    0  0.63471385978E+03  0.34840790773E+03  0.16046524952E+03  0.78262305759E+03  0.25000000000E+03 0.  0.
<mgrwt>
<rscale>  0 0.15324304E+04</rscale>
<asrwt>0</asrwt>
<pdfrwt beam="1">  1        2 0.14170062E+00 0.15324304E+04</pdfrwt>
<pdfrwt beam="2">  1       -2 0.98062524E-01 0.15324304E+04</pdfrwt>
<totfact> 0.23668493E+01</totfact>
</mgrwt>
</event>
<event>
 4    1  0.1806019E-005  0.5825312E+03  0.7818608E-02  0.9942326E-01
          2   -1    0    0  501    0  0.00000000000E+00  0.00000000000E+00  0.40468444416E+03  0.40468444417E+03  0.25500000000E-02 0.  1.
         -2   -1    0    0    0  501 -0.00000000000E+00 -0.00000000000E+00 -0.20963406919E+03  0.20963406921E+03  0.25500000000E-02 0. -1.
   -5000001    1    1    2    0    0 -0.14645823982E+03 -0.23484770175E+02  0.11680089269E+03  0.31327942635E+03  0.25000000000E+03 0.  0.
    5000001    1    1    2    0    0  0.14645823982E+03  0.23484770175E+02  0.78249482270E+02  0.30103908702E+03  0.25000000000E+03 0.  0.
<mgrwt>
<rscale>  0 0.58253119E+03</rscale>
<asrwt>0</asrwt>
<pdfrwt beam="1">  1        2 0.62259145E-01 0.58253119E+03</pdfrwt>
<pdfrwt beam="2">  1       -2 0.32251395E-01 0.58253119E+03</pdfrwt>
<totfact> 0.70627225E+02</totfact>
</mgrwt>
</event>
<event>
 4    1  0.1806019E-005  0.6591058E+03  0.7818608E-02  0.9789841E-01
          2   -1    0    0  501    0  0.00000000000E+00  0.00000000000E+00  0.45219758666E+03  0.45219758667E+03  0.25500000000E-02 0.  1.
         -2   -1    0    0    0  501 -0.00000000000E+00 -0.00000000000E+00 -0.24017184665E+03  0.24017184666E+03  0.25500000000E-02 0. -1.
   -5000001    1    1    2    0    0  0.16035491465E+03 -0.13852871820E+03  0.69605030493E+02  0.33503546781E+03  0.25000000000E+03 0.  0.
    5000001    1    1    2    0    0 -0.16035491465E+03  0.13852871820E+03  0.14242070952E+03  0.35733396553E+03  0.25000000000E+03 0.  0.
<mgrwt>
<rscale>  0 0.65910585E+03</rscale>
<asrwt>0</asrwt>
<pdfrwt beam="1">  1        2 0.69568858E-01 0.65910585E+03</pdfrwt>
<pdfrwt beam="2">  1       -2 0.36949516E-01 0.65910585E+03</pdfrwt>
<totfact> 0.48096662E+02</totfact>
</mgrwt>
</event>
<event>
 4    1  0.1806019E-005  0.6558003E+03  0.7818608E-02  0.9795956E-01
          2   -1    0    0  501    0  0.00000000000E+00  0.00000000000E+00  0.20027930186E+04  0.20027930186E+04  0.25500000000E-02 0.  1.
         -2   -1    0    0    0  501 -0.00000000000E+00 -0.00000000000E+00 -0.53684289808E+02  0.53684289869E+02  0.25500000000E-02 0. -1.
   -5000001    1    1    2    0    0 -0.12937872514E+03 -0.16055682894E+03  0.81772622741E+03  0.87959850661E+03  0.25000000000E+03 0.  0.
    5000001    1    1    2    0    0  0.12937872514E+03  0.16055682894E+03  0.11313825014E+04  0.11768788019E+04  0.25000000000E+03 0.  0.
<mgrwt>
<rscale>  0 0.65580034E+03</rscale>
<asrwt>0</asrwt>
<pdfrwt beam="1">  1        2 0.30812203E+00 0.65580034E+03</pdfrwt>
<pdfrwt beam="2">  1       -2 0.82591208E-02 0.65580034E+03</pdfrwt>
<totfact> 0.64121605E+02</totfact>
</mgrwt>
</event>
<event>
 4    1  0.1806019E-005  0.5469929E+03  0.7818608E-02  0.1002192E+00
          2   -1    0    0  501    0  0.00000000000E+00  0.00000000000E+00  0.13982102549E+04  0.13982102549E+04  0.25500000000E-02 0.  1.
         -2   -1    0    0    0  501 -0.00000000000E+00 -0.00000000000E+00 -0.53497182734E+02  0.53497182794E+02  0.25500000000E-02 0. -1.
   -5000001    1    1    2    0    0  0.23380349585E+02 -0.36122741812E+02  0.94364476875E+03  0.97714734959E+03  0.25000000000E+03 0.  0.
    5000001    1    1    2    0    0 -0.23380349585E+02  0.36122741812E+02  0.40106830345E+03  0.47456008814E+03  0.25000000000E+03 0.  0.
<mgrwt>
<rscale>  0 0.54699291E+03</rscale>
<asrwt>0</asrwt>
<pdfrwt beam="1">  1        2 0.21510922E+00 0.54699291E+03</pdfrwt>
<pdfrwt beam="2">  1       -2 0.82303376E-02 0.54699291E+03</pdfrwt>
<totfact> 0.13866900E+03</totfact>
</mgrwt>
</event>
<event>
 4    1  0.1806019E-005  0.6745875E+03  0.7818608E-02  0.9761706E-01
          2   -1    0    0  501    0  0.00000000000E+00  0.00000000000E+00  0.28530190925E+03  0.28530190927E+03  0.25500000000E-02 0.  1.
         -2   -1    0    0    0  501 -0.00000000000E+00 -0.00000000000E+00 -0.39876033786E+03  0.39876033787E+03  0.25500000000E-02 0. -1.
   -5000001    1    1    2    0    0  0.11737810529E+02 -0.17301663728E+03 -0.20435745312E+03  0.36651671397E+03  0.25000000000E+03 0.  0.
    5000001    1    1    2    0    0 -0.11737810529E+02  0.17301663728E+03  0.90899024521E+02  0.31754553316E+03  0.25000000000E+03 0.  0.
<mgrwt>
<rscale>  0 0.67458754E+03</rscale>
<asrwt>0</asrwt>
<pdfrwt beam="1">  1        2 0.43892601E-01 0.67458754E+03</pdfrwt>
<pdfrwt beam="2">  1       -2 0.61347744E-01 0.67458754E+03</pdfrwt>
<totfact> 0.28975120E+02</totfact>
</mgrwt>
</event>
<event>
 4    1  0.1806019E-005  0.5932506E+03  0.7818608E-02  0.9919509E-01
          2   -1    0    0  501    0  0.00000000000E+00  0.00000000000E+00  0.76476016508E+03  0.76476016508E+03  0.25500000000E-02 0.  1.
         -2   -1    0    0    0  501 -0.00000000000E+00 -0.00000000000E+00 -0.11505120060E+03  0.11505120063E+03  0.25500000000E-02 0. -1.
   -5000001    1    1    2    0    0 -0.56051069227E+02 -0.12051184732E+03  0.19369392263E+03  0.34304833970E+03  0.25000000000E+03 0.  0.
    5000001    1    1    2    0    0  0.56051069227E+02  0.12051184732E+03  0.45601504184E+03  0.53676302601E+03  0.25000000000E+03 0.  0.
<mgrwt>
<rscale>  0 0.59325062E+03</rscale>
<asrwt>0</asrwt>
<pdfrwt beam="1">  1        2 0.11765541E+00 0.59325062E+03</pdfrwt>
<pdfrwt beam="2">  1       -2 0.17700185E-01 0.59325062E+03</pdfrwt>
<totfact> 0.96993903E+02</totfact>
</mgrwt>
</event>
<event>
 4    1  0.1806019E-005  0.6926131E+03  0.7818608E-02  0.9729949E-01
         -2   -1    0    0    0  501 -0.00000000000E+00  0.00000000000E+00  0.14785688444E+03  0.14785688447E+03  0.25500000000E-02 0. -1.
          2   -1    0    0  501    0  0.00000000000E+00 -0.00000000000E+00 -0.81111020624E+03  0.81111020624E+03  0.25500000000E-02 0.  1.
   -5000001    1    1    2    0    0 -0.13326996422E+03 -0.95766641038E+02 -0.89838452969E+02  0.31225483268E+03  0.25000000000E+03 0.  0.
    5000001    1    1    2    0    0  0.13326996422E+03  0.95766641038E+02 -0.57341486882E+03  0.64671225803E+03  0.25000000000E+03 0.  0.
<mgrwt>
<rscale>  0 0.69261310E+03</rscale>
<asrwt>0</asrwt>
<pdfrwt beam="1">  1        2 0.12478618E+00 0.69261310E+03</pdfrwt>
<pdfrwt beam="2">  1       -2 0.22747213E-01 0.69261310E+03</pdfrwt>
<totfact> 0.57793263E+02</totfact>
</mgrwt>
</event>
<event>
 4    1  0.1806019E-005  0.6143972E+03  0.7818608E-02  0.9875979E-01
         -2   -1    0    0    0  501 -0.00000000000E+00  0.00000000000E+00  0.10349063432E+04  0.10349063432E+04  0.25500000000E-02 0. -1.
          2   -1    0    0  501    0  0.00000000000E+00 -0.00000000000E+00 -0.91187947020E+02  0.91187947055E+02  0.25500000000E-02 0.  1.
   -5000001    1    1    2    0    0 -0.71175318333E+02  0.13084465682E+03  0.29148709030E+03  0.41188708886E+03  0.25000000000E+03 0.  0.
    5000001    1    1    2    0    0  0.71175318333E+02 -0.13084465682E+03  0.65223130588E+03  0.71420720140E+03  0.25000000000E+03 0.  0.
<mgrwt>
<rscale>  0 0.61439722E+03</rscale>
<asrwt>0</asrwt>
<pdfrwt beam="1">  1        2 0.14028915E-01 0.61439722E+03</pdfrwt>
<pdfrwt beam="2">  1       -2 0.15921636E+00 0.61439722E+03</pdfrwt>
<totfact> 0.11304144E+02</totfact>
</mgrwt>
</event>
<event>
 4    1  0.1806019E-005  0.5700339E+03  0.7818608E-02  0.9969604E-01
          2   -1    0    0  501    0  0.00000000000E+00  0.00000000000E+00  0.21211663375E+03  0.21211663376E+03  0.25500000000E-02 0.  1.
         -2   -1    0    0    0  501 -0.00000000000E+00 -0.00000000000E+00 -0.38297171445E+03  0.38297171446E+03  0.25500000000E-02 0. -1.
   -5000001    1    1    2    0    0 -0.72929375091E+02 -0.72035549778E+02  0.92610617777E+01  0.27035824650E+03  0.25000000000E+03 0.  0.
    5000001    1    1    2    0    0  0.72929375091E+02  0.72035549778E+02 -0.18011614248E+03  0.32473010172E+03  0.25000000000E+03 0.  0.
<mgrwt>
<rscale>  0 0.57003393E+03</rscale>
<asrwt>0</asrwt>
<pdfrwt beam="1">  1        2 0.32633328E-01 0.57003393E+03</pdfrwt>
<pdfrwt beam="2">  1       -2 0.58918725E-01 0.57003393E+03</pdfrwt>
<totfact> 0.43956589E+02</totfact>
</mgrwt>
</event>
<event>
 4    1  0.1806019E-005  0.8670568E+03  0.7818608E-02  0.9467726E-01
         -2   -1    0    0    0  501 -0.00000000000E+00  0.00000000000E+00  0.88023854454E+02  0.88023854491E+02  0.25500000000E-02 0.  1.
          2   -1    0    0  501    0  0.00000000000E+00 -0.00000000000E+00 -0.21351813778E+04  0.21351813778E+04  0.25500000000E-02 0. -1.
   -5000001    1    1    2    0    0 -0.25582482971E+03  0.83748004689E+02 -0.43335604133E+03  0.56811753216E+03  0.25000000000E+03 0.  0.
    5000001    1    1    2    0    0  0.25582482971E+03 -0.83748004689E+02 -0.16138014820E+04  0.16550877001E+04  0.25000000000E+03 0.  0.
<mgrwt>
<rscale>  0 0.86705685E+03</rscale>
<asrwt>0</asrwt>
<pdfrwt beam="1">  1        2 0.32848940E+00 0.86705685E+03</pdfrwt>
<pdfrwt beam="2">  1       -2 0.13542133E-01 0.86705685E+03</pdfrwt>
<totfact> 0.23773969E+02</totfact>
</mgrwt>
</event>
<event>
 4    1  0.1806019E-005  0.9146124E+03  0.7818608E-02  0.9407497E-01
         -2   -1    0    0    0  501 -0.00000000000E+00  0.00000000000E+00  0.27153517124E+03  0.27153517125E+03  0.25500000000E-02 0. -1.
          2   -1    0    0  501    0  0.00000000000E+00 -0.00000000000E+00 -0.77017259443E+03  0.77017259443E+03  0.25500000000E-02 0.  1.
   -5000001    1    1    2    0    0 -0.28388725033E+03  0.10611508017E+03  0.17248195066E+02  0.39325549122E+03  0.25000000000E+03 0.  0.
    5000001    1    1    2    0    0  0.28388725033E+03 -0.10611508017E+03 -0.51588561825E+03  0.64845227447E+03  0.25000000000E+03 0.  0.
<mgrwt>
<rscale>  0 0.91461237E+03</rscale>
<asrwt>0</asrwt>
<pdfrwt beam="1">  1        2 0.11848809E+00 0.91461237E+03</pdfrwt>
<pdfrwt beam="2">  1       -2 0.41774642E-01 0.91461237E+03</pdfrwt>
<totfact> 0.19704692E+02</totfact>
</mgrwt>
</event>
<event>
 4    1  0.1806019E-005  0.5555835E+03  0.7818608E-02  0.1000210E+00
         -2   -1    0    0    0  501 -0.00000000000E+00  0.00000000000E+00  0.62782792197E+02  0.62782792249E+02  0.25500000000E-02 0. -1.
          2   -1    0    0  501    0  0.00000000000E+00 -0.00000000000E+00 -0.12291307780E+04  0.12291307780E+04  0.25500000000E-02 0.  1.
   -5000001    1    1    2    0    0 -0.11646155707E+01 -0.11727001786E+03 -0.65349924486E+03  0.70944688064E+03  0.25000000000E+03 0.  0.
    5000001    1    1    2    0    0  0.11646155707E+01  0.11727001786E+03 -0.51284874095E+03  0.58246668961E+03  0.25000000000E+03 0.  0.
<mgrwt>
<rscale>  0 0.55558352E+03</rscale>
<asrwt>0</asrwt>
<pdfrwt beam="1">  1        2 0.18909702E+00 0.55558352E+03</pdfrwt>
<pdfrwt beam="2">  1       -2 0.96588921E-02 0.55558352E+03</pdfrwt>
<totfact> 0.13382927E+03</totfact>
</mgrwt>
</event>
<event>
 4    1  0.1806019E-005  0.6765168E+03  0.7818608E-02  0.9758256E-01
         -2   -1    0    0    0  501 -0.00000000000E+00  0.00000000000E+00  0.69549114156E+03  0.69549114156E+03  0.25500000000E-02 0. -1.
          2   -1    0    0  501    0  0.00000000000E+00 -0.00000000000E+00 -0.16451505264E+03  0.16451505266E+03  0.25500000000E-02 0.  1.
   -5000001    1    1    2    0    0  0.24218730210E+01  0.14403390941E+03  0.48991311109E+03  0.56856528996E+03  0.25000000000E+03 0.  0.
    5000001    1    1    2    0    0 -0.24218730210E+01 -0.14403390941E+03  0.41062977831E+02  0.29144090426E+03  0.25000000000E+03 0.  0.
<mgrwt>
<rscale>  0 0.67651685E+03</rscale>
<asrwt>0</asrwt>
<pdfrwt beam="1">  1        2 0.25310009E-01 0.67651685E+03</pdfrwt>
<pdfrwt beam="2">  1       -2 0.10699863E+00 0.67651685E+03</pdfrwt>
<totfact> 0.15347284E+02</totfact>
</mgrwt>
</event>
<event>
 4    1  0.1806019E-005  0.8101836E+03  0.7818608E-02  0.9545393E-01
         -2   -1    0    0    0  501 -0.00000000000E+00  0.00000000000E+00  0.70875521912E+03  0.70875521912E+03  0.25500000000E-02 0. -1.
          2   -1    0    0  501    0  0.00000000000E+00 -0.00000000000E+00 -0.23153177619E+03  0.23153177620E+03  0.25500000000E-02 0.  1.
   -5000001    1    1    2    0    0  0.23505771450E+03  0.13875675378E+03  0.42964624902E+03  0.56709916696E+03  0.25000000000E+03 0.  0.
    5000001    1    1    2    0    0 -0.23505771450E+03 -0.13875675378E+03  0.47577193905E+02  0.37318782837E+03  0.25000000000E+03 0.  0.
<mgrwt>
<rscale>  0 0.81018357E+03</rscale>
<asrwt>0</asrwt>
<pdfrwt beam="1">  1        2 0.35620274E-01 0.81018357E+03</pdfrwt>
<pdfrwt beam="2">  1       -2 0.10903926E+00 0.81018357E+03</pdfrwt>
<totfact> 0.99096952E+01</totfact>
</mgrwt>
</event>
<event>
 4    1  0.1806019E-005  0.5335711E+03  0.7818608E-02  0.1005370E+00
          2   -1    0    0  501    0  0.00000000000E+00  0.00000000000E+00  0.39439594718E+03  0.39439594719E+03  0.25500000000E-02 0.  1.
         -2   -1    0    0    0  501 -0.00000000000E+00 -0.00000000000E+00 -0.18046466895E+03  0.18046466897E+03  0.25500000000E-02 0. -1.
   -5000001    1    1    2    0    0  0.15225083607E+02 -0.68598730641E+02  0.17282668135E+03  0.31194013978E+03  0.25000000000E+03 0.  0.
    5000001    1    1    2    0    0 -0.15225083607E+02  0.68598730641E+02  0.41104596880E+02  0.26292047638E+03  0.25000000000E+03 0.  0.
<mgrwt>
<rscale>  0 0.53357112E+03</rscale>
<asrwt>0</asrwt>
<pdfrwt beam="1">  1        2 0.60676299E-01 0.53357112E+03</pdfrwt>
<pdfrwt beam="2">  1       -2 0.27763796E-01 0.53357112E+03</pdfrwt>
<totfact> 0.95878238E+02</totfact>
</mgrwt>
</event>
<event>
 4    1  0.1806019E-005  0.6216043E+03  0.7818608E-02  0.9861571E-01
          2   -1    0    0  501    0  0.00000000000E+00  0.00000000000E+00  0.30597801800E+03  0.30597801801E+03  0.25500000000E-02 0. -1.
         -2   -1    0    0    0  501 -0.00000000000E+00 -0.00000000000E+00 -0.31570233598E+03  0.31570233599E+03  0.25500000000E-02 0.  1.
   -5000001    1    1    2    0    0  0.52869751896E+02 -0.17567322940E+03  0.16156617104E+02  0.31051140151E+03  0.25000000000E+03 0.  0.
    5000001    1    1    2    0    0 -0.52869751896E+02  0.17567322940E+03 -0.25880935085E+02  0.31116895249E+03  0.25000000000E+03 0.  0.
<mgrwt>
<rscale>  0 0.62160430E+03</rscale>
<asrwt>0</asrwt>
<pdfrwt beam="1">  1        2 0.47073541E-01 0.62160430E+03</pdfrwt>
<pdfrwt beam="2">  1       -2 0.48569590E-01 0.62160430E+03</pdfrwt>
<totfact> 0.43507887E+02</totfact>
</mgrwt>
</event>
<event>
 4    1  0.1806019E-005  0.6908202E+03  0.7818608E-02  0.9733061E-01
          2   -1    0    0  501    0  0.00000000000E+00  0.00000000000E+00  0.24027208347E+04  0.24027208347E+04  0.25500000000E-02 0.  1.
         -2   -1    0    0    0  501 -0.00000000000E+00 -0.00000000000E+00 -0.49655435430E+02  0.49655435496E+02  0.25500000000E-02 0. -1.
   -5000001    1    1    2    0    0 -0.61181454109E+02  0.12608863220E+03  0.49215053800E+03  0.56952055762E+03  0.25000000000E+03 0.  0.
    5000001    1    1    2    0    0  0.61181454109E+02 -0.12608863220E+03  0.18609148612E+04  0.18828557126E+04  0.25000000000E+03 0.  0.
<mgrwt>
<rscale>  0 0.69082024E+03</rscale>
<asrwt>0</asrwt>
<pdfrwt beam="1">  1        2 0.36964930E+00 0.69082024E+03</pdfrwt>
<pdfrwt beam="2">  1       -2 0.76392990E-02 0.69082024E+03</pdfrwt>
<totfact> 0.43643697E+02</totfact>
</mgrwt>
</event>
<event>
 4    1  0.1806019E-005  0.6661763E+03  0.7818608E-02  0.9776890E-01
         -2   -1    0    0    0  501 -0.00000000000E+00  0.00000000000E+00  0.22639645374E+03  0.22639645375E+03  0.25500000000E-02 0. -1.
          2   -1    0    0  501    0  0.00000000000E+00 -0.00000000000E+00 -0.49005946765E+03  0.49005946766E+03  0.25500000000E-02 0.  1.
   -5000001    1    1    2    0    0  0.17647667638E+03  0.17663150922E+02  0.83591168325E+01  0.30663639550E+03  0.25000000000E+03 0.  0.
    5000001    1    1    2    0    0 -0.17647667638E+03 -0.17663150922E+02 -0.27202213074E+03  0.40981952592E+03  0.25000000000E+03 0.  0.
<mgrwt>
<rscale>  0 0.66617633E+03</rscale>
<asrwt>0</asrwt>
<pdfrwt beam="1">  1        2 0.75393764E-01 0.66617633E+03</pdfrwt>
<pdfrwt beam="2">  1       -2 0.34830224E-01 0.66617633E+03</pdfrwt>
<totfact> 0.49090467E+02</totfact>
</mgrwt>
</event>
<event>
 4    1  0.1806019E-005  0.6846478E+03  0.7818608E-02  0.9743853E-01
         -2   -1    0    0    0  501 -0.00000000000E+00  0.00000000000E+00  0.56079592205E+02  0.56079592263E+02  0.25500000000E-02 0. -1.
          2   -1    0    0  501    0  0.00000000000E+00 -0.00000000000E+00 -0.20896307494E+04  0.20896307494E+04  0.25500000000E-02 0.  1.
   -5000001    1    1    2    0    0  0.20924561912E+03 -0.12977792156E+02 -0.13414696362E+04  0.13805770305E+04  0.25000000000E+03 0.  0.
    5000001    1    1    2    0    0 -0.20924561912E+03  0.12977792156E+02 -0.69208152105E+03  0.76513331125E+03  0.25000000000E+03 0.  0.
<mgrwt>
<rscale>  0 0.68464776E+03</rscale>
<asrwt>0</asrwt>
<pdfrwt beam="1">  1        2 0.32148159E+00 0.68464776E+03</pdfrwt>
<pdfrwt beam="2">  1       -2 0.86276312E-02 0.68464776E+03</pdfrwt>
<totfact> 0.53504562E+02</totfact>
</mgrwt>
</event>
<event>
 4    1  0.1806019E-005  0.9962213E+03  0.7818608E-02  0.9312699E-01
         -2   -1    0    0    0  501 -0.00000000000E+00  0.00000000000E+00  0.15944186911E+03  0.15944186913E+03  0.25500000000E-02 0. -1.
          2   -1    0    0  501    0  0.00000000000E+00 -0.00000000000E+00 -0.15561422382E+04  0.15561422382E+04  0.25500000000E-02 0.  1.
   -5000001    1    1    2    0    0  0.26200295842E+03 -0.29439737985E+03 -0.39859318973E+03  0.61375231029E+03  0.25000000000E+03 0.  0.
    5000001    1    1    2    0    0 -0.26200295842E+03  0.29439737985E+03 -0.99810717938E+03  0.11018317971E+04  0.25000000000E+03 0.  0.
<mgrwt>
<rscale>  0 0.99622131E+03</rscale>
<asrwt>0</asrwt>
<pdfrwt beam="1">  1        2 0.23940649E+00 0.99622131E+03</pdfrwt>
<pdfrwt beam="2">  1       -2 0.24529519E-01 0.99622131E+03</pdfrwt>
<totfact> 0.17490169E+02</totfact>
</mgrwt>
</event>
<event>
 4    1  0.1806019E-005  0.6897585E+03  0.7818608E-02  0.9734909E-01
          2   -1    0    0  501    0  0.00000000000E+00  0.00000000000E+00  0.17325837916E+04  0.17325837916E+04  0.25500000000E-02 0.  1.
         -2   -1    0    0    0  501 -0.00000000000E+00 -0.00000000000E+00 -0.68649891559E+02  0.68649891606E+02  0.25500000000E-02 0. -1.
   -5000001    1    1    2    0    0  0.16685631391E+03  0.67366751618E+02  0.12370483570E+04  0.12748207507E+04  0.25000000000E+03 0.  0.
    5000001    1    1    2    0    0 -0.16685631391E+03 -0.67366751618E+02  0.42688554305E+03  0.52641293258E+03  0.25000000000E+03 0.  0.
<mgrwt>
<rscale>  0 0.68975848E+03</rscale>
<asrwt>0</asrwt>
<pdfrwt beam="1">  1        2 0.26655134E+00 0.68975848E+03</pdfrwt>
<pdfrwt beam="2">  1       -2 0.10561522E-01 0.68975848E+03</pdfrwt>
<totfact> 0.60284030E+02</totfact>
</mgrwt>
</event>
<event>
 4    1  0.1806019E-005  0.5969769E+03  0.7818608E-02  0.9911698E-01
         -2   -1    0    0    0  501 -0.00000000000E+00  0.00000000000E+00  0.13893399616E+03  0.13893399618E+03  0.25500000000E-02 0.  1.
          2   -1    0    0  501    0  0.00000000000E+00 -0.00000000000E+00 -0.64127830431E+03  0.64127830432E+03  0.25500000000E-02 0. -1.
   -5000001    1    1    2    0    0 -0.12157331453E+03 -0.94939081546E+02 -0.32035179115E+03  0.43464786909E+03  0.25000000000E+03 0.  0.
    5000001    1    1    2    0    0  0.12157331453E+03  0.94939081546E+02 -0.18199251700E+03  0.34556443141E+03  0.25000000000E+03 0.  0.
<mgrwt>
<rscale>  0 0.59697691E+03</rscale>
<asrwt>0</asrwt>
<pdfrwt beam="1">  1        2 0.98658199E-01 0.59697691E+03</pdfrwt>
<pdfrwt beam="2">  1       -2 0.21374461E-01 0.59697691E+03</pdfrwt>
<totfact> 0.87169753E+02</totfact>
</mgrwt>
</event>
<event>
 4    1  0.1806019E-005  0.6997847E+03  0.7818608E-02  0.9717600E-01
         -2   -1    0    0    0  501 -0.00000000000E+00  0.00000000000E+00  0.19538484133E+03  0.19538484134E+03  0.25500000000E-02 0. -1.
          2   -1    0    0  501    0  0.00000000000E+00 -0.00000000000E+00 -0.62658216100E+03  0.62658216101E+03  0.25500000000E-02 0.  1.
   -5000001    1    1    2    0    0 -0.10709959728E+03 -0.20151403587E+03 -0.31964477640E+03  0.46556526231E+03  0.25000000000E+03 0.  0.
    5000001    1    1    2    0    0  0.10709959728E+03  0.20151403587E+03 -0.11155254328E+03  0.35640174004E+03  0.25000000000E+03 0.  0.
<mgrwt>
<rscale>  0 0.69978470E+03</rscale>
<asrwt>0</asrwt>
<pdfrwt beam="1">  1        2 0.96397255E-01 0.69978470E+03</pdfrwt>
<pdfrwt beam="2">  1       -2 0.30059207E-01 0.69978470E+03</pdfrwt>
<totfact> 0.48351238E+02</totfact>
</mgrwt>
</event>
<event>
 4    1  0.1806019E-005  0.9544423E+03  0.7818608E-02  0.9359973E-01
          2   -1    0    0  501    0  0.00000000000E+00  0.00000000000E+00  0.20126494217E+04  0.20126494217E+04  0.25500000000E-02 0.  1.
         -2   -1    0    0    0  501 -0.00000000000E+00 -0.00000000000E+00 -0.11315434315E+03  0.11315434318E+03  0.25500000000E-02 0. -1.
   -5000001    1    1    2    0    0  0.28373079331E+03  0.28435544054E+03  0.81103215304E+03  0.93895385025E+03  0.25000000000E+03 0.  0.
    5000001    1    1    2    0    0 -0.28373079331E+03 -0.28435544054E+03  0.10884629255E+04  0.11868499147E+04  0.25000000000E+03 0.  0.
<mgrwt>
<rscale>  0 0.95444229E+03</rscale>
<asrwt>0</asrwt>
<pdfrwt beam="1">  1        2 0.30963836E+00 0.95444229E+03</pdfrwt>
<pdfrwt beam="2">  1       -2 0.17408361E-01 0.95444229E+03</pdfrwt>
<totfact> 0.17995280E+02</totfact>
</mgrwt>
</event>
<event>
 4    1  0.1806019E-005  0.1382854E+04  0.7818608E-02  0.8966324E-01
         -2   -1    0    0    0  501 -0.00000000000E+00  0.00000000000E+00  0.11199774238E+04  0.11199774238E+04  0.25500000000E-02 0. -1.
          2   -1    0    0  501    0  0.00000000000E+00 -0.00000000000E+00 -0.42685823880E+03  0.42685823881E+03  0.25500000000E-02 0.  1.
   -5000001    1    1    2    0    0 -0.52169869883E+03  0.28753890095E+01  0.77013709445E+03  0.96321801502E+03  0.25000000000E+03 0.  0.
    5000001    1    1    2    0    0  0.52169869883E+03 -0.28753890095E+01 -0.77017909432E+02  0.58361764760E+03  0.25000000000E+03 0.  0.
<mgrwt>
<rscale>  0 0.13828544E+04</rscale>
<asrwt>0</asrwt>
<pdfrwt beam="1">  1        2 0.65670498E-01 0.13828544E+04</pdfrwt>
<pdfrwt beam="2">  1       -2 0.17230422E+00 0.13828544E+04</pdfrwt>
<totfact> 0.14758758E+01</totfact>
</mgrwt>
</event>
<event>
 4    1  0.1806019E-005  0.1421846E+04  0.7818608E-02  0.8938155E-01
          2   -1    0    0  501    0  0.00000000000E+00  0.00000000000E+00  0.12673951871E+04  0.12673951871E+04  0.25500000000E-02 0.  1.
         -2   -1    0    0    0  501 -0.00000000000E+00 -0.00000000000E+00 -0.39878000320E+03  0.39878000321E+03  0.25500000000E-02 0. -1.
   -5000001    1    1    2    0    0 -0.73049682831E+02 -0.36613268408E+03 -0.21129218284E+03  0.49652168638E+03  0.25000000000E+03 0.  0.
    5000001    1    1    2    0    0  0.73049682831E+02  0.36613268408E+03  0.10799073667E+04  0.11696535039E+04  0.25000000000E+03 0.  0.
<mgrwt>
<rscale>  0 0.14218465E+04</rscale>
<asrwt>0</asrwt>
<pdfrwt beam="1">  1        2 0.19498388E+00 0.14218465E+04</pdfrwt>
<pdfrwt beam="2">  1       -2 0.61350769E-01 0.14218465E+04</pdfrwt>
<totfact> 0.41470698E+01</totfact>
</mgrwt>
</event>
<event>
 4    1  0.1806019E-005  0.1367188E+04  0.7818608E-02  0.8977918E-01
         -2   -1    0    0    0  501 -0.00000000000E+00  0.00000000000E+00  0.72492292536E+03  0.72492292537E+03  0.25500000000E-02 0.  1.
          2   -1    0    0  501    0  0.00000000000E+00 -0.00000000000E+00 -0.64462126868E+03  0.64462126869E+03  0.25500000000E-02 0. -1.
   -5000001    1    1    2    0    0 -0.44755710003E+03  0.38252557309E+03 -0.20144434923E+03  0.67060644024E+03  0.25000000000E+03 0.  0.
    5000001    1    1    2    0    0  0.44755710003E+03 -0.38252557309E+03  0.28174600591E+03  0.69893775381E+03  0.25000000000E+03 0.  0.
<mgrwt>
<rscale>  0 0.13671880E+04</rscale>
<asrwt>0</asrwt>
<pdfrwt beam="1">  1        2 0.99172502E-01 0.13671880E+04</pdfrwt>
<pdfrwt beam="2">  1       -2 0.11152660E+00 0.13671880E+04</pdfrwt>
<totfact> 0.28160540E+01</totfact>
</mgrwt>
</event>
<event>
 4    1  0.1806019E-005  0.6373450E+03  0.7818608E-02  0.9830819E-01
          2   -1    0    0  501    0  0.00000000000E+00  0.00000000000E+00  0.63554802357E+03  0.63554802357E+03  0.25500000000E-02 0.  1.
         -2   -1    0    0    0  501 -0.00000000000E+00 -0.00000000000E+00 -0.15978677235E+03  0.15978677237E+03  0.25500000000E-02 0. -1.
   -5000001    1    1    2    0    0 -0.24817473126E+02 -0.15988262943E+03  0.96291840291E+02  0.31297041501E+03  0.25000000000E+03 0.  0.
    5000001    1    1    2    0    0  0.24817473126E+02  0.15988262943E+03  0.37946941092E+03  0.48236438093E+03  0.25000000000E+03 0.  0.
<mgrwt>
<rscale>  0 0.63734502E+03</rscale>
<asrwt>0</asrwt>
<pdfrwt beam="1">  1        2 0.97776619E-01 0.63734502E+03</pdfrwt>
<pdfrwt beam="2">  1       -2 0.24582580E-01 0.63734502E+03</pdfrwt>
<totfact> 0.68690613E+02</totfact>
</mgrwt>
</event>
<event>
 4    1  0.1806019E-005  0.7766991E+03  0.7818608E-02  0.9594370E-01
         -2   -1    0    0    0  501 -0.00000000000E+00  0.00000000000E+00  0.56892600956E+02  0.56892601014E+02  0.25500000000E-02 0. -1.
          2   -1    0    0  501    0  0.00000000000E+00 -0.00000000000E+00 -0.26508786896E+04  0.26508786896E+04  0.25500000000E-02 0.  1.
   -5000001    1    1    2    0    0 -0.26822157337E+03 -0.78574596034E+02 -0.16490634547E+04  0.16911614521E+04  0.25000000000E+03 0.  0.
    5000001    1    1    2    0    0  0.26822157337E+03  0.78574596034E+02 -0.94492263401E+03  0.10166098385E+04  0.25000000000E+03 0.  0.
<mgrwt>
<rscale>  0 0.77669913E+03</rscale>
<asrwt>0</asrwt>
<pdfrwt beam="1">  1        2 0.40782740E+00 0.77669913E+03</pdfrwt>
<pdfrwt beam="2">  1       -2 0.87527099E-02 0.77669913E+03</pdfrwt>
<totfact> 0.25158491E+02</totfact>
</mgrwt>
</event>
<event>
 4    1  0.1806019E-005  0.7205469E+03  0.7818608E-02  0.9682725E-01
          2   -1    0    0  501    0  0.00000000000E+00  0.00000000000E+00  0.13840548729E+04  0.13840548729E+04  0.25500000000E-02 0.  1.
         -2   -1    0    0    0  501 -0.00000000000E+00 -0.00000000000E+00 -0.93780206166E+02  0.93780206201E+02  0.25500000000E-02 0. -1.
   -5000001    1    1    2    0    0  0.93310949891E+02 -0.23538950592E+03  0.52944620288E+03  0.63790942509E+03  0.25000000000E+03 0.  0.
    5000001    1    1    2    0    0 -0.93310949891E+02  0.23538950592E+03  0.76082846384E+03  0.83992565400E+03  0.25000000000E+03 0.  0.
<mgrwt>
<rscale>  0 0.72054688E+03</rscale>
<asrwt>0</asrwt>
<pdfrwt beam="1">  1        2 0.21293151E+00 0.72054688E+03</pdfrwt>
<pdfrwt beam="2">  1       -2 0.14427725E-01 0.72054688E+03</pdfrwt>
<totfact> 0.55944123E+02</totfact>
</mgrwt>
</event>
<event>
 4    1  0.1806019E-005  0.8551294E+03  0.7818608E-02  0.9483478E-01
          2   -1    0    0  501    0  0.00000000000E+00  0.00000000000E+00  0.17127244011E+04  0.17127244011E+04  0.25500000000E-02 0. -1.
         -2   -1    0    0    0  501 -0.00000000000E+00 -0.00000000000E+00 -0.10673730362E+03  0.10673730365E+03  0.25500000000E-02 0.  1.
   -5000001    1    1    2    0    0 -0.25633855513E+03  0.14066104025E+03  0.40598098124E+03  0.55929915092E+03  0.25000000000E+03 0.  0.
    5000001    1    1    2    0    0  0.25633855513E+03 -0.14066104025E+03  0.12000061163E+04  0.12601625539E+04  0.25000000000E+03 0.  0.
<mgrwt>
<rscale>  0 0.85512943E+03</rscale>
<asrwt>0</asrwt>
<pdfrwt beam="1">  1        2 0.26349604E+00 0.85512943E+03</pdfrwt>
<pdfrwt beam="2">  1       -2 0.16421125E-01 0.85512943E+03</pdfrwt>
<totfact> 0.29261100E+02</totfact>
</mgrwt>
</event>
<event>
 4    1  0.1806019E-005  0.6966501E+03  0.7818608E-02  0.9722978E-01
         -2   -1    0    0    0  501 -0.00000000000E+00  0.00000000000E+00  0.20415632424E+03  0.20415632426E+03  0.25500000000E-02 0. -1.
          2   -1    0    0  501    0  0.00000000000E+00 -0.00000000000E+00 -0.59430119889E+03  0.59430119890E+03  0.25500000000E-02 0.  1.
   -5000001    1    1    2    0    0 -0.93191093600E+02 -0.73197693120E+02 -0.43763137665E+03  0.51774868811E+03  0.25000000000E+03 0.  0.
    5000001    1    1    2    0    0  0.93191093600E+02  0.73197693120E+02  0.47486502003E+02  0.28070883505E+03  0.25000000000E+03 0.  0.
<mgrwt>
<rscale>  0 0.69665012E+03</rscale>
<asrwt>0</asrwt>
<pdfrwt beam="1">  1        2 0.91430954E-01 0.69665012E+03</pdfrwt>
<pdfrwt beam="2">  1       -2 0.31408665E-01 0.69665012E+03</pdfrwt>
<totfact> 0.47505972E+02</totfact>
</mgrwt>
</event>
<event>
 4    1  0.1806019E-005  0.7348466E+03  0.7818608E-02  0.9659428E-01
         -2   -1    0    0    0  501 -0.00000000000E+00  0.00000000000E+00  0.74131261440E+02  0.74131261483E+02  0.25500000000E-02 0.  1.
          2   -1    0    0  501    0  0.00000000000E+00 -0.00000000000E+00 -0.18210925957E+04  0.18210925957E+04  0.25500000000E-02 0. -1.
   -5000001    1    1    2    0    0 -0.34920582220E+02 -0.25823218599E+03 -0.10483369876E+04  0.11087893166E+04  0.25000000000E+03 0.  0.
    5000001    1    1    2    0    0  0.34920582220E+02  0.25823218599E+03 -0.69862434663E+03  0.78643454060E+03  0.25000000000E+03 0.  0.
<mgrwt>
<rscale>  0 0.73484663E+03</rscale>
<asrwt>0</asrwt>
<pdfrwt beam="1">  1        2 0.28016806E+00 0.73484663E+03</pdfrwt>
<pdfrwt beam="2">  1       -2 0.11404811E-01 0.73484663E+03</pdfrwt>
<totfact> 0.47428625E+02</totfact>
</mgrwt>
</event>
<event>
 4    1  0.1806019E-005  0.1408958E+04  0.7818608E-02  0.8947359E-01
          2   -1    0    0  501    0  0.00000000000E+00  0.00000000000E+00  0.60347319145E+03  0.60347319146E+03  0.25500000000E-02 0.  1.
         -2   -1    0    0    0  501 -0.00000000000E+00 -0.00000000000E+00 -0.82239108994E+03  0.82239108994E+03  0.25500000000E-02 0. -1.
   -5000001    1    1    2    0    0 -0.16274260192E+03  0.59627460045E+03 -0.33970240756E+03  0.74828221903E+03  0.25000000000E+03 0.  0.
    5000001    1    1    2    0    0  0.16274260192E+03 -0.59627460045E+03  0.12078450907E+03  0.67758206237E+03  0.25000000000E+03 0.  0.
<mgrwt>
<rscale>  0 0.14089584E+04</rscale>
<asrwt>0</asrwt>
<pdfrwt beam="1">  1        2 0.92842030E-01 0.14089584E+04</pdfrwt>
<pdfrwt beam="2">  1       -2 0.12652171E+00 0.14089584E+04</pdfrwt>
<totfact> 0.22273271E+01</totfact>
</mgrwt>
</event>
<event>
 4    1  0.1806019E-005  0.7687734E+03  0.7818608E-02  0.9606350E-01
          2   -1    0    0  501    0  0.00000000000E+00  0.00000000000E+00  0.39827476573E+03  0.39827476574E+03  0.25500000000E-02 0.  1.
         -2   -1    0    0    0  501 -0.00000000000E+00 -0.00000000000E+00 -0.37098296689E+03  0.37098296690E+03  0.25500000000E-02 0. -1.
   -5000001    1    1    2    0    0  0.20636886767E+03 -0.17380965031E+03  0.12531929497E+03  0.38859082565E+03  0.25000000000E+03 0.  0.
    5000001    1    1    2    0    0 -0.20636886767E+03  0.17380965031E+03 -0.98027496124E+02  0.38066690700E+03  0.25000000000E+03 0.  0.
<mgrwt>
<rscale>  0 0.76877345E+03</rscale>
<asrwt>0</asrwt>
<pdfrwt beam="1">  1        2 0.61273041E-01 0.76877345E+03</pdfrwt>
<pdfrwt beam="2">  1       -2 0.57074302E-01 0.76877345E+03</pdfrwt>
<totfact> 0.23187005E+02</totfact>
</mgrwt>
</event>
<event>
 4    1  0.1806019E-005  0.6820557E+03  0.7818608E-02  0.9748421E-01
         -2   -1    0    0    0  501 -0.00000000000E+00  0.00000000000E+00  0.12507735083E+03  0.12507735086E+03  0.25500000000E-02 0. -1.
          2   -1    0    0  501    0  0.00000000000E+00 -0.00000000000E+00 -0.92982448409E+03  0.92982448409E+03  0.25500000000E-02 0.  1.
   -5000001    1    1    2    0    0 -0.81985761901E+02  0.18134419991E+03 -0.21811690611E+03  0.38688805710E+03  0.25000000000E+03 0.  0.
    5000001    1    1    2    0    0  0.81985761901E+02 -0.18134419991E+03 -0.58663022715E+03  0.66801377785E+03  0.25000000000E+03 0.  0.
<mgrwt>
<rscale>  0 0.68205567E+03</rscale>
<asrwt>0</asrwt>
<pdfrwt beam="1">  1        2 0.14304992E+00 0.68205567E+03</pdfrwt>
<pdfrwt beam="2">  1       -2 0.19242670E-01 0.68205567E+03</pdfrwt>
<totfact> 0.64353863E+02</totfact>
</mgrwt>
</event>
<event>
 4    1  0.1806019E-005  0.9510418E+03  0.7818608E-02  0.9363934E-01
         -2   -1    0    0    0  501 -0.00000000000E+00  0.00000000000E+00  0.16961582917E+03  0.16961582919E+03  0.25500000000E-02 0. -1.
          2   -1    0    0  501    0  0.00000000000E+00 -0.00000000000E+00 -0.13331311499E+04  0.13331311499E+04  0.25500000000E-02 0.  1.
   -5000001    1    1    2    0    0 -0.12353539931E+03 -0.38420783350E+03 -0.53867285304E+03  0.71801469122E+03  0.25000000000E+03 0.  0.
    5000001    1    1    2    0    0  0.12353539931E+03  0.38420783350E+03 -0.62484246768E+03  0.78473228787E+03  0.25000000000E+03 0.  0.
<mgrwt>
<rscale>  0 0.95104184E+03</rscale>
<asrwt>0</asrwt>
<pdfrwt beam="1">  1        2 0.20509709E+00 0.95104184E+03</pdfrwt>
<pdfrwt beam="2">  1       -2 0.26094744E-01 0.95104184E+03</pdfrwt>
<totfact> 0.20967965E+02</totfact>
</mgrwt>
</event>
<event>
 4    1  0.1806019E-005  0.6246590E+03  0.7818608E-02  0.9855527E-01
         -2   -1    0    0    0  501 -0.00000000000E+00  0.00000000000E+00  0.84056542841E+03  0.84056542841E+03  0.25500000000E-02 0. -1.
          2   -1    0    0  501    0  0.00000000000E+00 -0.00000000000E+00 -0.11605247921E+03  0.11605247924E+03  0.25500000000E-02 0.  1.
   -5000001    1    1    2    0    0 -0.71549490795E+01 -0.14879813074E+03  0.18860602439E+03  0.34679144950E+03  0.25000000000E+03 0.  0.
    5000001    1    1    2    0    0  0.71549490795E+01  0.14879813074E+03  0.53590692480E+03  0.60982645815E+03  0.25000000000E+03 0.  0.
<mgrwt>
<rscale>  0 0.62465895E+03</rscale>
<asrwt>0</asrwt>
<pdfrwt beam="1">  1        2 0.17854227E-01 0.62465895E+03</pdfrwt>
<pdfrwt beam="2">  1       -2 0.12931777E+00 0.62465895E+03</pdfrwt>
<totfact> 0.14504678E+02</totfact>
</mgrwt>
</event>
<event>
 4    1  0.1806019E-005  0.6711007E+03  0.7818608E-02  0.9767971E-01
         -2   -1    0    0    0  501 -0.00000000000E+00  0.00000000000E+00  0.53409825319E+03  0.53409825320E+03  0.25500000000E-02 0. -1.
          2   -1    0    0  501    0  0.00000000000E+00 -0.00000000000E+00 -0.21081146508E+03  0.21081146510E+03  0.25500000000E-02 0.  1.
   -5000001    1    1    2    0    0 -0.11089080808E+03 -0.19090029307E+03  0.12079451589E+03  0.35472666700E+03  0.25000000000E+03 0.  0.
    5000001    1    1    2    0    0  0.11089080808E+03  0.19090029307E+03  0.20249227222E+03  0.39018305130E+03  0.25000000000E+03 0.  0.
<mgrwt>
<rscale>  0 0.67110069E+03</rscale>
<asrwt>0</asrwt>
<pdfrwt beam="1">  1        2 0.32432533E-01 0.67110069E+03</pdfrwt>
<pdfrwt beam="2">  1       -2 0.82168962E-01 0.67110069E+03</pdfrwt>
<totfact> 0.21428092E+02</totfact>
</mgrwt>
</event>
<event>
 4    1  0.1806019E-005  0.7250764E+03  0.7818608E-02  0.9675284E-01
          2   -1    0    0  501    0  0.00000000000E+00  0.00000000000E+00  0.15269216054E+04  0.15269216054E+04  0.25500000000E-02 0.  1.
         -2   -1    0    0    0  501 -0.00000000000E+00 -0.00000000000E+00 -0.86077733528E+02  0.86077733566E+02  0.25500000000E-02 0. -1.
   -5000001    1    1    2    0    0  0.71731402554E+02  0.23594007997E+03  0.51995129791E+03  0.62742526858E+03  0.25000000000E+03 0.  0.
    5000001    1    1    2    0    0 -0.71731402554E+02 -0.23594007997E+03  0.92089257395E+03  0.98557407038E+03  0.25000000000E+03 0.  0.
<mgrwt>
<rscale>  0 0.72507641E+03</rscale>
<asrwt>0</asrwt>
<pdfrwt beam="1">  1        2 0.23491102E+00 0.72507641E+03</pdfrwt>
<pdfrwt beam="2">  1       -2 0.13242728E-01 0.72507641E+03</pdfrwt>
<totfact> 0.53710868E+02</totfact>
</mgrwt>
</event>
<event>
 4    1  0.1806019E-005  0.7188836E+03  0.7818608E-02  0.9685473E-01
          2   -1    0    0  501    0  0.00000000000E+00  0.00000000000E+00  0.60904268962E+03  0.60904268963E+03  0.25500000000E-02 0. -1.
         -2   -1    0    0    0  501 -0.00000000000E+00 -0.00000000000E+00 -0.21213357230E+03  0.21213357232E+03  0.25500000000E-02 0.  1.
   -5000001    1    1    2    0    0 -0.24600261244E+03 -0.78513148757E+01  0.10909627240E+03  0.36739750288E+03  0.25000000000E+03 0.  0.
    5000001    1    1    2    0    0  0.24600261244E+03  0.78513148757E+01  0.28781284492E+03  0.45377875906E+03  0.25000000000E+03 0.  0.
<mgrwt>
<rscale>  0 0.71888358E+03</rscale>
<asrwt>0</asrwt>
<pdfrwt beam="1">  1        2 0.93698874E-01 0.71888358E+03</pdfrwt>
<pdfrwt beam="2">  1       -2 0.32635935E-01 0.71888358E+03</pdfrwt>
<totfact> 0.42898460E+02</totfact>
</mgrwt>
</event>
<event>
 4    1  0.1806019E-005  0.1225435E+04  0.7818608E-02  0.9090880E-01
         -2   -1    0    0    0  501 -0.00000000000E+00  0.00000000000E+00  0.44227554847E+03  0.44227554848E+03  0.25500000000E-02 0. -1.
          2   -1    0    0  501    0  0.00000000000E+00 -0.00000000000E+00 -0.84884360989E+03  0.84884360989E+03  0.25500000000E-02 0.  1.
   -5000001    1    1    2    0    0 -0.54348573219E+03 -0.12887457486E+03 -0.17102636502E+03  0.63540177422E+03  0.25000000000E+03 0.  0.
    5000001    1    1    2    0    0  0.54348573219E+03  0.12887457486E+03 -0.23554169640E+03  0.65571738416E+03  0.25000000000E+03 0.  0.
<mgrwt>
<rscale>  0 0.12254351E+04</rscale>
<asrwt>0</asrwt>
<pdfrwt beam="1">  1        2 0.13059132E+00 0.12254351E+04</pdfrwt>
<pdfrwt beam="2">  1       -2 0.68042392E-01 0.12254351E+04</pdfrwt>
<totfact> 0.61966923E+01</totfact>
</mgrwt>
</event>
<event>
 4    1  0.1806019E-005  0.1031910E+04  0.7818608E-02  0.9274223E-01
          2   -1    0    0  501    0  0.00000000000E+00  0.00000000000E+00  0.24816844060E+03  0.24816844062E+03  0.25500000000E-02 0.  1.
         -2   -1    0    0    0  501 -0.00000000000E+00 -0.00000000000E+00 -0.10726969889E+04  0.10726969889E+04  0.25500000000E-02 0. -1.
   -5000001    1    1    2    0    0  0.36623282028E+03  0.11576745514E+02 -0.74938215027E+02  0.44986246315E+03  0.25000000000E+03 0.  0.
    5000001    1    1    2    0    0 -0.36623282028E+03 -0.11576745514E+02 -0.74959033327E+03  0.87100296637E+03  0.25000000000E+03 0.  0.
<mgrwt>
<rscale>  0 0.10319100E+04</rscale>
<asrwt>0</asrwt>
<pdfrwt beam="1">  1        2 0.38179761E-01 0.10319100E+04</pdfrwt>
<pdfrwt beam="2">  1       -2 0.16503030E+00 0.10319100E+04</pdfrwt>
<totfact> 0.31270275E+01</totfact>
</mgrwt>
</event>
<event>
 4    1  0.1806019E-005  0.1063666E+04  0.7818608E-02  0.9241347E-01
          2   -1    0    0  501    0  0.00000000000E+00  0.00000000000E+00  0.15862954324E+04  0.15862954324E+04  0.25500000000E-02 0.  1.
         -2   -1    0    0    0  501 -0.00000000000E+00 -0.00000000000E+00 -0.17830633407E+03  0.17830633409E+03  0.25500000000E-02 0. -1.
   -5000001    1    1    2    0    0  0.42801355683E+03  0.18069458555E+03  0.81528711045E+03  0.97110205979E+03  0.25000000000E+03 0.  0.
    5000001    1    1    2    0    0 -0.42801355683E+03 -0.18069458555E+03  0.59270198785E+03  0.79349970666E+03  0.25000000000E+03 0.  0.
<mgrwt>
<rscale>  0 0.10636663E+04</rscale>
<asrwt>0</asrwt>
<pdfrwt beam="1">  1        2 0.24404544E+00 0.10636663E+04</pdfrwt>
<pdfrwt beam="2">  1       -2 0.27431745E-01 0.10636663E+04</pdfrwt>
<totfact> 0.13665437E+02</totfact>
</mgrwt>
</event>
<event>
 4    1  0.1806019E-005  0.8303000E+03  0.7818608E-02  0.9517166E-01
         -2   -1    0    0    0  501 -0.00000000000E+00  0.00000000000E+00  0.70262272806E+02  0.70262272852E+02  0.25500000000E-02 0.  1.
          2   -1    0    0  501    0  0.00000000000E+00 -0.00000000000E+00 -0.24529454014E+04  0.24529454014E+04  0.25500000000E-02 0. -1.
   -5000001    1    1    2    0    0  0.79148646165E+02 -0.32107272364E+03 -0.12591111153E+04  0.13255991108E+04  0.25000000000E+03 0.  0.
    5000001    1    1    2    0    0 -0.79148646165E+02  0.32107272364E+03 -0.11235720134E+04  0.11976085635E+04  0.25000000000E+03 0.  0.
<mgrwt>
<rscale>  0 0.83029999E+03</rscale>
<asrwt>0</asrwt>
<pdfrwt beam="1">  1        2 0.37737615E+00 0.83029999E+03</pdfrwt>
<pdfrwt beam="2">  1       -2 0.10809582E-01 0.83029999E+03</pdfrwt>
<totfact> 0.23045952E+02</totfact>
</mgrwt>
</event>
<event>
 4    1  0.1806019E-005  0.1037923E+04  0.7818608E-02  0.9267902E-01
          2   -1    0    0  501    0  0.00000000000E+00  0.00000000000E+00  0.18798280988E+04  0.18798280988E+04  0.25500000000E-02 0. -1.
         -2   -1    0    0    0  501 -0.00000000000E+00 -0.00000000000E+00 -0.14326906038E+03  0.14326906040E+03  0.25500000000E-02 0.  1.
   -5000001    1    1    2    0    0 -0.10210207901E+03  0.36848832717E+03  0.13481603140E+04  0.14234622278E+04  0.25000000000E+03 0.  0.
    5000001    1    1    2    0    0  0.10210207901E+03 -0.36848832717E+03  0.38839872441E+03  0.59963493137E+03  0.25000000000E+03 0.  0.
<mgrwt>
<rscale>  0 0.10379233E+04</rscale>
<asrwt>0</asrwt>
<pdfrwt beam="1">  1        2 0.28920431E+00 0.10379233E+04</pdfrwt>
<pdfrwt beam="2">  1       -2 0.22041395E-01 0.10379233E+04</pdfrwt>
<totfact> 0.13994281E+02</totfact>
</mgrwt>
</event>
<event>
 4    1  0.1806019E-005  0.6316189E+03  0.7818608E-02  0.9841895E-01
          2   -1    0    0  501    0  0.00000000000E+00  0.00000000000E+00  0.39183856772E+04  0.39183856772E+04  0.25500000000E-02 0.  1.
         -2   -1    0    0    0  501 -0.00000000000E+00 -0.00000000000E+00 -0.25453243190E+02  0.25453243317E+02  0.25500000000E-02 0. -1.
   -5000001    1    1    2    0    0 -0.11027728215E+03  0.10219102173E+03  0.27017480474E+04  0.27174522251E+04  0.25000000000E+03 0.  0.
    5000001    1    1    2    0    0  0.11027728215E+03 -0.10219102173E+03  0.11911843866E+04  0.12263866955E+04  0.25000000000E+03 0.  0.
<mgrwt>
<rscale>  0 0.63161895E+03</rscale>
<asrwt>0</asrwt>
<pdfrwt beam="1">  1        2 0.60282822E+00 0.63161895E+03</pdfrwt>
<pdfrwt beam="2">  1       -2 0.39158858E-02 0.63161895E+03</pdfrwt>
<totfact> 0.13392890E+02</totfact>
</mgrwt>
</event>
<event>
 4    1  0.1806019E-005  0.8034123E+03  0.7818608E-02  0.9555091E-01
          2   -1    0    0  501    0  0.00000000000E+00  0.00000000000E+00  0.23953111437E+03  0.23953111438E+03  0.25500000000E-02 0.  1.
         -2   -1    0    0    0  501 -0.00000000000E+00 -0.00000000000E+00 -0.67368207047E+03  0.67368207048E+03  0.25500000000E-02 0. -1.
   -5000001    1    1    2    0    0 -0.20764950303E+02  0.19837853605E+03 -0.49336440477E+03  0.58795719455E+03  0.25000000000E+03 0.  0.
    5000001    1    1    2    0    0  0.20764950303E+02 -0.19837853605E+03  0.59213448666E+02  0.32525599031E+03  0.25000000000E+03 0.  0.
<mgrwt>
<rscale>  0 0.80341227E+03</rscale>
<asrwt>0</asrwt>
<pdfrwt beam="1">  1        2 0.36850941E-01 0.80341227E+03</pdfrwt>
<pdfrwt beam="2">  1       -2 0.10364339E+00 0.80341227E+03</pdfrwt>
<totfact> 0.10782569E+02</totfact>
</mgrwt>
</event>
<event>
 4    1  0.1806019E-005  0.6448965E+03  0.7818608E-02  0.9816403E-01
          2   -1    0    0  501    0  0.00000000000E+00  0.00000000000E+00  0.56172028815E+03  0.56172028816E+03  0.25500000000E-02 0.  1.
         -2   -1    0    0    0  501 -0.00000000000E+00 -0.00000000000E+00 -0.18509723939E+03  0.18509723941E+03  0.25500000000E-02 0. -1.
   -5000001    1    1    2    0    0  0.16117928289E+03 -0.11001360610E+03  0.12087486428E+03  0.33940018794E+03  0.25000000000E+03 0.  0.
    5000001    1    1    2    0    0 -0.16117928289E+03  0.11001360610E+03  0.25574818448E+03  0.40741733962E+03  0.25000000000E+03 0.  0.
<mgrwt>
<rscale>  0 0.64489650E+03</rscale>
<asrwt>0</asrwt>
<pdfrwt beam="1">  1        2 0.86418508E-01 0.64489650E+03</pdfrwt>
<pdfrwt beam="2">  1       -2 0.28476498E-01 0.64489650E+03</pdfrwt>
<totfact> 0.60997902E+02</totfact>
</mgrwt>
</event>
<event>
 4    1  0.1806019E-005  0.1301850E+04  0.7818608E-02  0.9028100E-01
          2   -1    0    0  501    0  0.00000000000E+00  0.00000000000E+00  0.55872685452E+03  0.55872685453E+03  0.25500000000E-02 0.  1.
         -2   -1    0    0    0  501 -0.00000000000E+00 -0.00000000000E+00 -0.75833663762E+03  0.75833663763E+03  0.25500000000E-02 0. -1.
   -5000001    1    1    2    0    0 -0.15501081995E+03 -0.21193968507E+03  0.44712018323E+03  0.57564159219E+03  0.25000000000E+03 0.  0.
    5000001    1    1    2    0    0  0.15501081995E+03  0.21193968507E+03 -0.64672996632E+03  0.74142189997E+03  0.25000000000E+03 0.  0.
<mgrwt>
<rscale>  0 0.13018495E+04</rscale>
<asrwt>0</asrwt>
<pdfrwt beam="1">  1        2 0.85957978E-01 0.13018495E+04</pdfrwt>
<pdfrwt beam="2">  1       -2 0.11666717E+00 0.13018495E+04</pdfrwt>
<totfact> 0.30137858E+01</totfact>
</mgrwt>
</event>
<event>
 4    1  0.1806019E-005  0.7503823E+03  0.7818608E-02  0.9634751E-01
          2   -1    0    0  501    0  0.00000000000E+00  0.00000000000E+00  0.25908997664E+04  0.25908997664E+04  0.25500000000E-02 0.  1.
         -2   -1    0    0    0  501 -0.00000000000E+00 -0.00000000000E+00 -0.54331857403E+02  0.54331857463E+02  0.25500000000E-02 0. -1.
   -5000001    1    1    2    0    0 -0.16584232921E+03 -0.18783161810E+03  0.17069386021E+04  0.17432509246E+04  0.25000000000E+03 0.  0.
    5000001    1    1    2    0    0  0.16584232921E+03  0.18783161810E+03  0.82962930691E+03  0.90198069924E+03  0.25000000000E+03 0.  0.
<mgrwt>
<rscale>  0 0.75038229E+03</rscale>
<asrwt>0</asrwt>
<pdfrwt beam="1">  1        2 0.39860007E+00 0.75038229E+03</pdfrwt>
<pdfrwt beam="2">  1       -2 0.83587451E-02 0.75038229E+03</pdfrwt>
<totfact> 0.29409970E+02</totfact>
</mgrwt>
</event>
<event>
 4    1  0.1806019E-005  0.1171544E+04  0.7818608E-02  0.9138136E-01
          2   -1    0    0  501    0  0.00000000000E+00  0.00000000000E+00  0.94586008878E+03  0.94586008878E+03  0.25500000000E-02 0.  1.
         -2   -1    0    0    0  501 -0.00000000000E+00 -0.00000000000E+00 -0.36276884785E+03  0.36276884786E+03  0.25500000000E-02 0. -1.
   -5000001    1    1    2    0    0 -0.49260816842E+03  0.17878948361E+03  0.20502156329E+03  0.61576158411E+03  0.25000000000E+03 0.  0.
    5000001    1    1    2    0    0  0.49260816842E+03 -0.17878948361E+03  0.37806967765E+03  0.69286735253E+03  0.25000000000E+03 0.  0.
<mgrwt>
<rscale>  0 0.11715436E+04</rscale>
<asrwt>0</asrwt>
<pdfrwt beam="1">  1        2 0.14551694E+00 0.11715436E+04</pdfrwt>
<pdfrwt beam="2">  1       -2 0.55810592E-01 0.11715436E+04</pdfrwt>
<totfact> 0.81450667E+01</totfact>
</mgrwt>
</event>
<event>
 4    1  0.1806019E-005  0.1124500E+04  0.7818608E-02  0.9181636E-01
          2   -1    0    0  501    0  0.00000000000E+00  0.00000000000E+00  0.10254335800E+04  0.10254335800E+04  0.25500000000E-02 0.  1.
         -2   -1    0    0    0  501 -0.00000000000E+00 -0.00000000000E+00 -0.30828411225E+03  0.30828411226E+03  0.25500000000E-02 0. -1.
   -5000001    1    1    2    0    0  0.41403802857E+03 -0.11808157079E+03  0.48712206393E+02  0.50024356619E+03  0.25000000000E+03 0.  0.
    5000001    1    1    2    0    0 -0.41403802857E+03  0.11808157079E+03  0.66843726134E+03  0.83347412606E+03  0.25000000000E+03 0.  0.
<mgrwt>
<rscale>  0 0.11244997E+04</rscale>
<asrwt>0</asrwt>
<pdfrwt beam="1">  1        2 0.15775901E+00 0.11244997E+04</pdfrwt>
<pdfrwt beam="2">  1       -2 0.47428326E-01 0.11244997E+04</pdfrwt>
<totfact> 0.10130583E+02</totfact>
</mgrwt>
</event>
<event>
 4    1  0.1806019E-005  0.1173720E+04  0.7818608E-02  0.9136176E-01
          2   -1    0    0  501    0  0.00000000000E+00  0.00000000000E+00  0.96794932564E+03  0.96794932564E+03  0.25500000000E-02 0.  1.
         -2   -1    0    0    0  501 -0.00000000000E+00 -0.00000000000E+00 -0.35580837787E+03  0.35580837788E+03  0.25500000000E-02 0. -1.
   -5000001    1    1    2    0    0 -0.16409859342E+03  0.48924255695E+03  0.16512382521E+03  0.59670135373E+03  0.25000000000E+03 0.  0.
    5000001    1    1    2    0    0  0.16409859342E+03 -0.48924255695E+03  0.44701712256E+03  0.72705634979E+03  0.25000000000E+03 0.  0.
<mgrwt>
<rscale>  0 0.11737197E+04</rscale>
<asrwt>0</asrwt>
<pdfrwt beam="1">  1        2 0.14891528E+00 0.11737197E+04</pdfrwt>
<pdfrwt beam="2">  1       -2 0.54739750E-01 0.11737197E+04</pdfrwt>
<totfact> 0.82002732E+01</totfact>
</mgrwt>
</event>
<event>
 4    1  0.1806019E-005  0.6166214E+03  0.7818608E-02  0.9871510E-01
         -2   -1    0    0    0  501 -0.00000000000E+00  0.00000000000E+00  0.57623336253E+02  0.57623336309E+02  0.25500000000E-02 0.  1.
          2   -1    0    0  501    0  0.00000000000E+00 -0.00000000000E+00 -0.16496006340E+04  0.16496006340E+04  0.25500000000E-02 0. -1.
   -5000001    1    1    2    0    0  0.16432166271E+03  0.67378118764E+02 -0.70782158760E+03  0.77139666812E+03  0.25000000000E+03 0.  0.
    5000001    1    1    2    0    0 -0.16432166271E+03 -0.67378118764E+02 -0.88415571011E+03  0.93582730215E+03  0.25000000000E+03 0.  0.
<mgrwt>
<rscale>  0 0.61662141E+03</rscale>
<asrwt>0</asrwt>
<pdfrwt beam="1">  1        2 0.25378468E+00 0.61662141E+03</pdfrwt>
<pdfrwt beam="2">  1       -2 0.88651299E-02 0.61662141E+03</pdfrwt>
<totfact> 0.89219677E+02</totfact>
</mgrwt>
</event>
<event>
 4    1  0.1806019E-005  0.5448052E+03  0.7818608E-02  0.1002704E+00
          2   -1    0    0  501    0  0.00000000000E+00  0.00000000000E+00  0.15136585940E+04  0.15136585940E+04  0.25500000000E-02 0.  1.
         -2   -1    0    0    0  501 -0.00000000000E+00 -0.00000000000E+00 -0.49022406712E+02  0.49022406778E+02  0.25500000000E-02 0. -1.
   -5000001    1    1    2    0    0 -0.10455786362E+03 -0.79998062927E+01  0.65605916523E+03  0.70986616487E+03  0.25000000000E+03 0.  0.
    5000001    1    1    2    0    0  0.10455786362E+03  0.79998062927E+01  0.80857702202E+03  0.85281483587E+03  0.25000000000E+03 0.  0.
<mgrwt>
<rscale>  0 0.54480524E+03</rscale>
<asrwt>0</asrwt>
<pdfrwt beam="1">  1        2 0.23287055E+00 0.54480524E+03</pdfrwt>
<pdfrwt beam="2">  1       -2 0.75419088E-02 0.54480524E+03</pdfrwt>
<totfact> 0.13751534E+03</totfact>
</mgrwt>
</event>
<event>
 4    1  0.1806019E-005  0.6325556E+03  0.7818608E-02  0.9840074E-01
         -2   -1    0    0    0  501 -0.00000000000E+00  0.00000000000E+00  0.58462659403E+02  0.58462659458E+02  0.25500000000E-02 0. -1.
          2   -1    0    0  501    0  0.00000000000E+00 -0.00000000000E+00 -0.17110347746E+04  0.17110347746E+04  0.25500000000E-02 0.  1.
   -5000001    1    1    2    0    0 -0.94573430285E+02  0.78509870884E+02 -0.12451808599E+04  0.12759636779E+04  0.25000000000E+03 0.  0.
    5000001    1    1    2    0    0  0.94573430285E+02 -0.78509870884E+02 -0.40739125529E+03  0.49353375612E+03  0.25000000000E+03 0.  0.
<mgrwt>
<rscale>  0 0.63255559E+03</rscale>
<asrwt>0</asrwt>
<pdfrwt beam="1">  1        2 0.26323608E+00 0.63255559E+03</pdfrwt>
<pdfrwt beam="2">  1       -2 0.89942566E-02 0.63255559E+03</pdfrwt>
<totfact> 0.80635180E+02</totfact>
</mgrwt>
</event>
<event>
 4    1  0.1806019E-005  0.6884076E+03  0.7818608E-02  0.9737265E-01
          2   -1    0    0  501    0  0.00000000000E+00  0.00000000000E+00  0.55950718839E+03  0.55950718839E+03  0.25500000000E-02 0.  1.
         -2   -1    0    0    0  501 -0.00000000000E+00 -0.00000000000E+00 -0.21175109584E+03  0.21175109586E+03  0.25500000000E-02 0. -1.
   -5000001    1    1    2    0    0 -0.18503816473E+03  0.13279293434E+03  0.24564329087E+03  0.41798769380E+03  0.25000000000E+03 0.  0.
    5000001    1    1    2    0    0  0.18503816473E+03 -0.13279293434E+03  0.10211280167E+03  0.35327059045E+03  0.25000000000E+03 0.  0.
<mgrwt>
<rscale>  0 0.68840761E+03</rscale>
<asrwt>0</asrwt>
<pdfrwt beam="1">  1        2 0.86078028E-01 0.68840761E+03</pdfrwt>
<pdfrwt beam="2">  1       -2 0.32577092E-01 0.68840761E+03</pdfrwt>
<totfact> 0.47685346E+02</totfact>
</mgrwt>
</event>
<event>
 4    1  0.1806019E-005  0.1546726E+04  0.7818608E-02  0.8853962E-01
          2   -1    0    0  501    0  0.00000000000E+00  0.00000000000E+00  0.15676549333E+04  0.15676549333E+04  0.25500000000E-02 0.  1.
         -2   -1    0    0    0  501 -0.00000000000E+00 -0.00000000000E+00 -0.38151927090E+03  0.38151927091E+03  0.25500000000E-02 0. -1.
   -5000001    1    1    2    0    0  0.14390045593E+03  0.67605697954E+03  0.89611796424E+03  0.11590029278E+04  0.25000000000E+03 0.  0.
    5000001    1    1    2    0    0 -0.14390045593E+03 -0.67605697954E+03  0.29001769813E+03  0.79017127638E+03  0.25000000000E+03 0.  0.
<mgrwt>
<rscale>  0 0.15467263E+04</rscale>
<asrwt>0</asrwt>
<pdfrwt beam="1">  1        2 0.24117768E+00 0.15467263E+04</pdfrwt>
<pdfrwt beam="2">  1       -2 0.58695273E-01 0.15467263E+04</pdfrwt>
<totfact> 0.30368526E+01</totfact>
</mgrwt>
</event>
<event>
 4    1  0.1806019E-005  0.7610997E+03  0.7818608E-02  0.9618096E-01
          2   -1    0    0  501    0  0.00000000000E+00  0.00000000000E+00  0.10693775351E+04  0.10693775351E+04  0.25500000000E-02 0.  1.
         -2   -1    0    0    0  501 -0.00000000000E+00 -0.00000000000E+00 -0.13542289192E+03  0.13542289194E+03  0.25500000000E-02 0. -1.
   -5000001    1    1    2    0    0 -0.28047393268E+03 -0.56097901309E+02  0.43138340633E+03  0.57480800682E+03  0.25000000000E+03 0.  0.
    5000001    1    1    2    0    0  0.28047393268E+03  0.56097901309E+02  0.50257123686E+03  0.62999242024E+03  0.25000000000E+03 0.  0.
<mgrwt>
<rscale>  0 0.76109973E+03</rscale>
<asrwt>0</asrwt>
<pdfrwt beam="1">  1        2 0.16451962E+00 0.76109973E+03</pdfrwt>
<pdfrwt beam="2">  1       -2 0.20834292E-01 0.76109973E+03</pdfrwt>
<totfact> 0.45480863E+02</totfact>
</mgrwt>
</event>
<event>
 4    1  0.1806019E-005  0.8101836E+03  0.7818608E-02  0.9545393E-01
         -2   -1    0    0    0  501 -0.00000000000E+00  0.00000000000E+00  0.64421449311E+03  0.64421449311E+03  0.25500000000E-02 0. -1.
          2   -1    0    0  501    0  0.00000000000E+00 -0.00000000000E+00 -0.25472785117E+03  0.25472785118E+03  0.25500000000E-02 0.  1.
   -5000001    1    1    2    0    0 -0.23068909582E+03 -0.21559909502E+03  0.14639242191E+03  0.42852207632E+03  0.25000000000E+03 0.  0.
    5000001    1    1    2    0    0  0.23068909582E+03  0.21559909502E+03  0.24309422003E+03  0.47042026797E+03  0.25000000000E+03 0.  0.
<mgrwt>
<rscale>  0 0.81018362E+03</rscale>
<asrwt>0</asrwt>
<pdfrwt beam="1">  1        2 0.39188901E-01 0.81018362E+03</pdfrwt>
<pdfrwt beam="2">  1       -2 0.99109920E-01 0.81018362E+03</pdfrwt>
<totfact> 0.11194694E+02</totfact>
</mgrwt>
</event>
<event>
 4    1  0.1806019E-005  0.1464339E+04  0.7818608E-02  0.8908520E-01
          2   -1    0    0  501    0  0.00000000000E+00  0.00000000000E+00  0.81984569740E+03  0.81984569741E+03  0.25500000000E-02 0.  1.
         -2   -1    0    0    0  501 -0.00000000000E+00 -0.00000000000E+00 -0.65386927081E+03  0.65386927082E+03  0.25500000000E-02 0. -1.
   -5000001    1    1    2    0    0 -0.47906037369E+03  0.47119137078E+03 -0.66460985457E+02  0.72002584129E+03  0.25000000000E+03 0.  0.
    5000001    1    1    2    0    0  0.47906037369E+03 -0.47119137078E+03  0.23243741205E+03  0.75368912693E+03  0.25000000000E+03 0.  0.
<mgrwt>
<rscale>  0 0.14643386E+04</rscale>
<asrwt>0</asrwt>
<pdfrwt beam="1">  1        2 0.12613011E+00 0.14643386E+04</pdfrwt>
<pdfrwt beam="2">  1       -2 0.10059527E+00 0.14643386E+04</pdfrwt>
<totfact> 0.26305305E+01</totfact>
</mgrwt>
</event>
<event>
 4    1  0.1806019E-005  0.8534445E+03  0.7818608E-02  0.9485726E-01
          2   -1    0    0  501    0  0.00000000000E+00  0.00000000000E+00  0.32785947246E+04  0.32785947246E+04  0.25500000000E-02 0.  1.
         -2   -1    0    0    0  501 -0.00000000000E+00 -0.00000000000E+00 -0.55539607137E+02  0.55539607195E+02  0.25500000000E-02 0. -1.
   -5000001    1    1    2    0    0 -0.26174415189E+03 -0.98750711032E+02  0.24057485597E+04  0.24348280918E+04  0.25000000000E+03 0.  0.
    5000001    1    1    2    0    0  0.26174415189E+03  0.98750711032E+02  0.81730655773E+03  0.89930623999E+03  0.25000000000E+03 0.  0.
<mgrwt>
<rscale>  0 0.85344446E+03</rscale>
<asrwt>0</asrwt>
<pdfrwt beam="1">  1        2 0.50439929E+00 0.85344446E+03</pdfrwt>
<pdfrwt beam="2">  1       -2 0.85445531E-02 0.85344446E+03</pdfrwt>
<totfact> 0.10727285E+02</totfact>
</mgrwt>
</event>
<event>
 4    1  0.1806019E-005  0.8720169E+03  0.7818608E-02  0.9461254E-01
         -2   -1    0    0    0  501 -0.00000000000E+00  0.00000000000E+00  0.99680998154E+03  0.99680998155E+03  0.25500000000E-02 0. -1.
          2   -1    0    0  501    0  0.00000000000E+00 -0.00000000000E+00 -0.19071174634E+03  0.19071174636E+03  0.25500000000E-02 0.  1.
   -5000001    1    1    2    0    0 -0.39492736422E+01 -0.35348803830E+03  0.47294041319E+03  0.64120357486E+03  0.25000000000E+03 0.  0.
    5000001    1    1    2    0    0  0.39492736422E+01  0.35348803830E+03  0.33315782201E+03  0.54631815305E+03  0.25000000000E+03 0.  0.
<mgrwt>
<rscale>  0 0.87201691E+03</rscale>
<asrwt>0</asrwt>
<pdfrwt beam="1">  1        2 0.29340269E-01 0.87201691E+03</pdfrwt>
<pdfrwt beam="2">  1       -2 0.15335538E+00 0.87201691E+03</pdfrwt>
<totfact> 0.51803894E+01</totfact>
</mgrwt>
</event>
<event>
 4    1  0.1806019E-005  0.6953316E+03  0.7818608E-02  0.9725249E-01
          2   -1    0    0  501    0  0.00000000000E+00  0.00000000000E+00  0.18246033585E+04  0.18246033585E+04  0.25500000000E-02 0.  1.
         -2   -1    0    0    0  501 -0.00000000000E+00 -0.00000000000E+00 -0.66245366096E+02  0.66245366145E+02  0.25500000000E-02 0. -1.
   -5000001    1    1    2    0    0  0.21263981758E+03  0.10506319276E+03  0.75404314758E+03  0.82905671393E+03  0.25000000000E+03 0.  0.
    5000001    1    1    2    0    0 -0.21263981758E+03 -0.10506319276E+03  0.10043148448E+04  0.10617920107E+04  0.25000000000E+03 0.  0.
<mgrwt>
<rscale>  0 0.69533163E+03</rscale>
<asrwt>0</asrwt>
<pdfrwt beam="1">  1        2 0.28070816E+00 0.69533163E+03</pdfrwt>
<pdfrwt beam="2">  1       -2 0.10191597E-01 0.69533163E+03</pdfrwt>
<totfact> 0.56914791E+02</totfact>
</mgrwt>
</event>
<event>
 4    1  0.1806019E-005  0.6360127E+03  0.7818608E-02  0.9833385E-01
         -2   -1    0    0    0  501 -0.00000000000E+00  0.00000000000E+00  0.50304671951E+03  0.50304671952E+03  0.25500000000E-02 0. -1.
          2   -1    0    0  501    0  0.00000000000E+00 -0.00000000000E+00 -0.20103108101E+03  0.20103108102E+03  0.25500000000E-02 0.  1.
   -5000001    1    1    2    0    0  0.18301679758E+03 -0.62103597569E+02  0.11146353058E+03  0.33507629531E+03  0.25000000000E+03 0.  0.
    5000001    1    1    2    0    0 -0.18301679758E+03  0.62103597569E+02  0.19055210793E+03  0.36900150523E+03  0.25000000000E+03 0.  0.
<mgrwt>
<rscale>  0 0.63601266E+03</rscale>
<asrwt>0</asrwt>
<pdfrwt beam="1">  1        2 0.30927859E-01 0.63601266E+03</pdfrwt>
<pdfrwt beam="2">  1       -2 0.77391803E-01 0.63601266E+03</pdfrwt>
<totfact> 0.25875688E+02</totfact>
</mgrwt>
</event>
<event>
 4    1  0.1806019E-005  0.7249474E+03  0.7818608E-02  0.9675495E-01
         -2   -1    0    0    0  501 -0.00000000000E+00  0.00000000000E+00  0.92090846991E+03  0.92090846992E+03  0.25500000000E-02 0. -1.
          2   -1    0    0  501    0  0.00000000000E+00 -0.00000000000E+00 -0.14267128763E+03  0.14267128765E+03  0.25500000000E-02 0.  1.
   -5000001    1    1    2    0    0 -0.10539971109E+03 -0.90275884624E+02  0.71595356060E+03  0.77093990387E+03  0.25000000000E+03 0.  0.
    5000001    1    1    2    0    0  0.10539971109E+03  0.90275884624E+02  0.62283621679E+02  0.29263985370E+03  0.25000000000E+03 0.  0.
<mgrwt>
<rscale>  0 0.72494744E+03</rscale>
<asrwt>0</asrwt>
<pdfrwt beam="1">  1        2 0.21949429E-01 0.72494744E+03</pdfrwt>
<pdfrwt beam="2">  1       -2 0.14167822E+00 0.72494744E+03</pdfrwt>
<totfact> 0.89729028E+01</totfact>
</mgrwt>
</event>
<event>
 4    1  0.1806019E-005  0.6383339E+03  0.7818608E-02  0.9828919E-01
          2   -1    0    0  501    0  0.00000000000E+00  0.00000000000E+00  0.11447794053E+04  0.11447794053E+04  0.25500000000E-02 0.  1.
         -2   -1    0    0    0  501 -0.00000000000E+00 -0.00000000000E+00 -0.88984441987E+02  0.88984442023E+02  0.25500000000E-02 0. -1.
   -5000001    1    1    2    0    0  0.18929061009E+03 -0.55012537158E+02  0.48423862816E+03  0.57952080490E+03  0.25000000000E+03 0.  0.
    5000001    1    1    2    0    0 -0.18929061009E+03  0.55012537158E+02  0.57155633517E+03  0.65424304244E+03  0.25000000000E+03 0.  0.
<mgrwt>
<rscale>  0 0.63833395E+03</rscale>
<asrwt>0</asrwt>
<pdfrwt beam="1">  1        2 0.17611991E+00 0.63833395E+03</pdfrwt>
<pdfrwt beam="2">  1       -2 0.13689914E-01 0.63833395E+03</pdfrwt>
<totfact> 0.84423835E+02</totfact>
</mgrwt>
</event>
<event>
 4    1  0.1806019E-005  0.7174316E+03  0.7818608E-02  0.9687878E-01
         -2   -1    0    0    0  501 -0.00000000000E+00  0.00000000000E+00  0.59623824494E+02  0.59623824549E+02  0.25500000000E-02 0. -1.
          2   -1    0    0  501    0  0.00000000000E+00 -0.00000000000E+00 -0.21581476510E+04  0.21581476510E+04  0.25500000000E-02 0.  1.
   -5000001    1    1    2    0    0 -0.24206643003E+02 -0.25204425810E+03 -0.90879638668E+03  0.97597292076E+03  0.25000000000E+03 0.  0.
    5000001    1    1    2    0    0  0.24206643003E+02  0.25204425810E+03 -0.11897274398E+04  0.12417985548E+04  0.25000000000E+03 0.  0.
<mgrwt>
<rscale>  0 0.71743158E+03</rscale>
<asrwt>0</asrwt>
<pdfrwt beam="1">  1        2 0.33202266E+00 0.71743158E+03</pdfrwt>
<pdfrwt beam="2">  1       -2 0.91728977E-02 0.71743158E+03</pdfrwt>
<totfact> 0.44349906E+02</totfact>
</mgrwt>
</event>
<event>
 4    1  0.1806019E-005  0.1090029E+04  0.7818608E-02  0.9214965E-01
         -2   -1    0    0    0  501 -0.00000000000E+00  0.00000000000E+00  0.14364092291E+03  0.14364092293E+03  0.25500000000E-02 0. -1.
          2   -1    0    0  501    0  0.00000000000E+00 -0.00000000000E+00 -0.20679397566E+04  0.20679397566E+04  0.25500000000E-02 0.  1.
   -5000001    1    1    2    0    0 -0.40226666567E+03 -0.26467058055E+03 -0.10670229280E+04  0.11970408997E+04  0.25000000000E+03 0.  0.
    5000001    1    1    2    0    0  0.40226666567E+03  0.26467058055E+03 -0.85727590564E+03  0.10145397799E+04  0.25000000000E+03 0.  0.
<mgrwt>
<rscale>  0 0.10900289E+04</rscale>
<asrwt>0</asrwt>
<pdfrwt beam="1">  1        2 0.31814456E+00 0.10900289E+04</pdfrwt>
<pdfrwt beam="2">  1       -2 0.22098605E-01 0.10900289E+04</pdfrwt>
<totfact> 0.10928955E+02</totfact>
</mgrwt>
</event>
<event>
 4    1  0.1806019E-005  0.8451379E+03  0.7818608E-02  0.9496886E-01
         -2   -1    0    0    0  501 -0.00000000000E+00  0.00000000000E+00  0.64843900304E+02  0.64843900354E+02  0.25500000000E-02 0. -1.
          2   -1    0    0  501    0  0.00000000000E+00 -0.00000000000E+00 -0.27537596886E+04  0.27537596886E+04  0.25500000000E-02 0.  1.
   -5000001    1    1    2    0    0 -0.23077114557E+02  0.32707370242E+03 -0.10359897615E+04  0.11150267019E+04  0.25000000000E+03 0.  0.
    5000001    1    1    2    0    0  0.23077114557E+02 -0.32707370242E+03 -0.16529260268E+04  0.17035768870E+04  0.25000000000E+03 0.  0.
<mgrwt>
<rscale>  0 0.84513790E+03</rscale>
<asrwt>0</asrwt>
<pdfrwt beam="1">  1        2 0.42365525E+00 0.84513790E+03</pdfrwt>
<pdfrwt beam="2">  1       -2 0.99759868E-02 0.84513790E+03</pdfrwt>
<totfact> 0.17603245E+02</totfact>
</mgrwt>
</event>
<event>
 4    1  0.1806019E-005  0.1805674E+04  0.7818608E-02  0.8703288E-01
          2   -1    0    0  501    0  0.00000000000E+00  0.00000000000E+00  0.71930110085E+03  0.71930110085E+03  0.25500000000E-02 0.  1.
         -2   -1    0    0    0  501 -0.00000000000E+00 -0.00000000000E+00 -0.11332041828E+04  0.11332041828E+04  0.25500000000E-02 0. -1.
   -5000001    1    1    2    0    0 -0.19510024907E+03  0.84201749961E+03 -0.13046986814E+03  0.90916443141E+03  0.25000000000E+03 0.  0.
    5000001    1    1    2    0    0  0.19510024907E+03 -0.84201749961E+03 -0.28343321381E+03  0.94334085226E+03  0.25000000000E+03 0.  0.
<mgrwt>
<rscale>  0 0.18056744E+04</rscale>
<asrwt>0</asrwt>
<pdfrwt beam="1">  1        2 0.11066171E+00 0.18056744E+04</pdfrwt>
<pdfrwt beam="2">  1       -2 0.17433910E+00 0.18056744E+04</pdfrwt>
<totfact> 0.74117875E+00</totfact>
</mgrwt>
</event>
<event>
 4    1  0.1806019E-005  0.6510933E+03  0.7818608E-02  0.9804730E-01
          2   -1    0    0  501    0  0.00000000000E+00  0.00000000000E+00  0.34623864591E+03  0.34623864592E+03  0.25500000000E-02 0.  1.
         -2   -1    0    0    0  501 -0.00000000000E+00 -0.00000000000E+00 -0.30609122736E+03  0.30609122737E+03  0.25500000000E-02 0. -1.
   -5000001    1    1    2    0    0 -0.10416892727E+02  0.20035116784E+03 -0.36880629064E+02  0.32265970141E+03  0.25000000000E+03 0.  0.
    5000001    1    1    2    0    0  0.10416892727E+02 -0.20035116784E+03  0.77028047619E+02  0.32967017189E+03  0.25000000000E+03 0.  0.
<mgrwt>
<rscale>  0 0.65109327E+03</rscale>
<asrwt>0</asrwt>
<pdfrwt beam="1">  1        2 0.53267484E-01 0.65109327E+03</pdfrwt>
<pdfrwt beam="2">  1       -2 0.47090958E-01 0.65109327E+03</pdfrwt>
<totfact> 0.40343372E+02</totfact>
</mgrwt>
</event>
<event>
 4    1  0.1806019E-005  0.1384608E+04  0.7818608E-02  0.8965036E-01
         -2   -1    0    0    0  501 -0.00000000000E+00  0.00000000000E+00  0.49010542781E+03  0.49010542782E+03  0.25500000000E-02 0. -1.
          2   -1    0    0  501    0  0.00000000000E+00 -0.00000000000E+00 -0.97792157564E+03  0.97792157565E+03  0.25500000000E-02 0.  1.
   -5000001    1    1    2    0    0 -0.56577677011E+03 -0.27638709690E+03 -0.39493843522E+03  0.78419994168E+03  0.25000000000E+03 0.  0.
    5000001    1    1    2    0    0  0.56577677011E+03  0.27638709690E+03 -0.92877712617E+02  0.68382706178E+03  0.25000000000E+03 0.  0.
<mgrwt>
<rscale>  0 0.13846078E+04</rscale>
<asrwt>0</asrwt>
<pdfrwt beam="1">  1        2 0.15044947E+00 0.13846078E+04</pdfrwt>
<pdfrwt beam="2">  1       -2 0.75400835E-01 0.13846078E+04</pdfrwt>
<totfact> 0.40035450E+01</totfact>
</mgrwt>
</event>
<event>
 4    1  0.1806019E-005  0.9765245E+03  0.7818608E-02  0.9334674E-01
          2   -1    0    0  501    0  0.00000000000E+00  0.00000000000E+00  0.38104278587E+03  0.38104278587E+03  0.25500000000E-02 0.  1.
         -2   -1    0    0    0  501 -0.00000000000E+00 -0.00000000000E+00 -0.62565153734E+03  0.62565153734E+03  0.25500000000E-02 0. -1.
   -5000001    1    1    2    0    0 -0.16501468077E+03  0.38347265887E+03 -0.16378275673E+03  0.51342566782E+03  0.25000000000E+03 0.  0.
    5000001    1    1    2    0    0  0.16501468077E+03 -0.38347265887E+03 -0.80825994738E+02  0.49326865540E+03  0.25000000000E+03 0.  0.
<mgrwt>
<rscale>  0 0.97652446E+03</rscale>
<asrwt>0</asrwt>
<pdfrwt beam="1">  1        2 0.58621967E-01 0.97652446E+03</pdfrwt>
<pdfrwt beam="2">  1       -2 0.96254083E-01 0.97652446E+03</pdfrwt>
<totfact> 0.75911718E+01</totfact>
</mgrwt>
</event>
<event>
 4    1  0.1806019E-005  0.6102728E+03  0.7818608E-02  0.9884319E-01
          2   -1    0    0  501    0  0.00000000000E+00  0.00000000000E+00  0.55871054105E+03  0.55871054106E+03  0.25500000000E-02 0.  1.
         -2   -1    0    0    0  501 -0.00000000000E+00 -0.00000000000E+00 -0.16664842092E+03  0.16664842094E+03  0.25500000000E-02 0. -1.
   -5000001    1    1    2    0    0  0.10398925147E+03 -0.60305774699E+02  0.44947074341E+02  0.28101742006E+03  0.25000000000E+03 0.  0.
    5000001    1    1    2    0    0 -0.10398925147E+03  0.60305774699E+02  0.34711504579E+03  0.44434154194E+03  0.25000000000E+03 0.  0.
<mgrwt>
<rscale>  0 0.61027282E+03</rscale>
<asrwt>0</asrwt>
<pdfrwt beam="1">  1        2 0.85955469E-01 0.61027282E+03</pdfrwt>
<pdfrwt beam="2">  1       -2 0.25638218E-01 0.61027282E+03</pdfrwt>
<totfact> 0.74363632E+02</totfact>
</mgrwt>
</event>
<event>
 4    1  0.1806019E-005  0.7525240E+03  0.7818608E-02  0.9631399E-01
         -2   -1    0    0    0  501 -0.00000000000E+00  0.00000000000E+00  0.71697100100E+02  0.71697100146E+02  0.25500000000E-02 0. -1.
          2   -1    0    0  501    0  0.00000000000E+00 -0.00000000000E+00 -0.19745997544E+04  0.19745997544E+04  0.25500000000E-02 0.  1.
   -5000001    1    1    2    0    0 -0.26234799979E+03 -0.83066553091E+02 -0.11087579598E+04  0.11694318016E+04  0.25000000000E+03 0.  0.
    5000001    1    1    2    0    0  0.26234799979E+03  0.83066553091E+02 -0.79414469453E+03  0.87686505295E+03  0.25000000000E+03 0.  0.
<mgrwt>
<rscale>  0 0.75252396E+03</rscale>
<asrwt>0</asrwt>
<pdfrwt beam="1">  1        2 0.30378454E+00 0.75252396E+03</pdfrwt>
<pdfrwt beam="2">  1       -2 0.11030325E-01 0.75252396E+03</pdfrwt>
<totfact> 0.41277176E+02</totfact>
</mgrwt>
</event>
<event>
 4    1  0.1806019E-005  0.6401435E+03  0.7818608E-02  0.9825452E-01
          2   -1    0    0  501    0  0.00000000000E+00  0.00000000000E+00  0.88854522034E+03  0.88854522034E+03  0.25500000000E-02 0.  1.
         -2   -1    0    0    0  501 -0.00000000000E+00 -0.00000000000E+00 -0.11529625823E+03  0.11529625825E+03  0.25500000000E-02 0. -1.
   -5000001    1    1    2    0    0 -0.18454246550E+03 -0.75999783755E+02  0.40337145460E+03  0.51482076404E+03  0.25000000000E+03 0.  0.
    5000001    1    1    2    0    0  0.18454246550E+03  0.75999783755E+02  0.36987750752E+03  0.48902071456E+03  0.25000000000E+03 0.  0.
<mgrwt>
<rscale>  0 0.64014354E+03</rscale>
<asrwt>0</asrwt>
<pdfrwt beam="1">  1        2 0.13669926E+00 0.64014354E+03</pdfrwt>
<pdfrwt beam="2">  1       -2 0.17737886E-01 0.64014354E+03</pdfrwt>
<totfact> 0.79027471E+02</totfact>
</mgrwt>
</event>
<event>
 4    1  0.1806019E-005  0.6717485E+03  0.7818608E-02  0.9766804E-01
         -2   -1    0    0    0  501 -0.00000000000E+00  0.00000000000E+00  0.10358175477E+03  0.10358175480E+03  0.25500000000E-02 0.  1.
          2   -1    0    0  501    0  0.00000000000E+00 -0.00000000000E+00 -0.10891061028E+04  0.10891061028E+04  0.25500000000E-02 0. -1.
   -5000001    1    1    2    0    0 -0.22401696143E+03 -0.10722086204E+02 -0.48637059495E+03  0.59106253288E+03  0.25000000000E+03 0.  0.
    5000001    1    1    2    0    0  0.22401696143E+03  0.10722086204E+02 -0.49915375307E+03  0.60162532472E+03  0.25000000000E+03 0.  0.
<mgrwt>
<rscale>  0 0.67174853E+03</rscale>
<asrwt>0</asrwt>
<pdfrwt beam="1">  1        2 0.16755478E+00 0.67174853E+03</pdfrwt>
<pdfrwt beam="2">  1       -2 0.15935655E-01 0.67174853E+03</pdfrwt>
<totfact> 0.70546813E+02</totfact>
</mgrwt>
</event>
<event>
 4    1  0.1806019E-005  0.1234342E+04  0.7818608E-02  0.9083317E-01
          2   -1    0    0  501    0  0.00000000000E+00  0.00000000000E+00  0.74241389214E+03  0.74241389214E+03  0.25500000000E-02 0.  1.
         -2   -1    0    0    0  501 -0.00000000000E+00 -0.00000000000E+00 -0.51305660434E+03  0.51305660434E+03  0.25500000000E-02 0. -1.
   -5000001    1    1    2    0    0  0.56366083003E+03 -0.89954523103E+01  0.13971503243E+03  0.63230905399E+03  0.25000000000E+03 0.  0.
    5000001    1    1    2    0    0 -0.56366083003E+03  0.89954523103E+01  0.89642255366E+02  0.62316144250E+03  0.25000000000E+03 0.  0.
<mgrwt>
<rscale>  0 0.12343425E+04</rscale>
<asrwt>0</asrwt>
<pdfrwt beam="1">  1        2 0.11421752E+00 0.12343425E+04</pdfrwt>
<pdfrwt beam="2">  1       -2 0.78931786E-01 0.12343425E+04</pdfrwt>
<totfact> 0.53323551E+01</totfact>
</mgrwt>
</event>
<event>
 4    1  0.1806019E-005  0.7765287E+03  0.7818608E-02  0.9594626E-01
          2   -1    0    0  501    0  0.00000000000E+00  0.00000000000E+00  0.28921284712E+03  0.28921284713E+03  0.25500000000E-02 0.  1.
         -2   -1    0    0    0  501 -0.00000000000E+00 -0.00000000000E+00 -0.52123962488E+03  0.52123962489E+03  0.25500000000E-02 0. -1.
   -5000001    1    1    2    0    0 -0.14341391741E+03 -0.10383735919E+03  0.13294345893E+03  0.33395166138E+03  0.25000000000E+03 0.  0.
    5000001    1    1    2    0    0  0.14341391741E+03  0.10383735919E+03 -0.36497023668E+03  0.47650081063E+03  0.25000000000E+03 0.  0.
<mgrwt>
<rscale>  0 0.77652868E+03</rscale>
<asrwt>0</asrwt>
<pdfrwt beam="1">  1        2 0.44494284E-01 0.77652868E+03</pdfrwt>
<pdfrwt beam="2">  1       -2 0.80190711E-01 0.77652868E+03</pdfrwt>
<totfact> 0.15854607E+02</totfact>
</mgrwt>
</event>
<event>
 4    1  0.1806019E-005  0.6405959E+03  0.7818608E-02  0.9824587E-01
         -2   -1    0    0    0  501 -0.00000000000E+00  0.00000000000E+00  0.23361123104E+03  0.23361123106E+03  0.25500000000E-02 0. -1.
          2   -1    0    0  501    0  0.00000000000E+00 -0.00000000000E+00 -0.43915178588E+03  0.43915178589E+03  0.25500000000E-02 0.  1.
   -5000001    1    1    2    0    0  0.45376637690E+02 -0.10876607070E+03  0.67227246706E+02  0.28444437080E+03  0.25000000000E+03 0.  0.
    5000001    1    1    2    0    0 -0.45376637690E+02  0.10876607070E+03 -0.27276780155E+03  0.38831864614E+03  0.25000000000E+03 0.  0.
<mgrwt>
<rscale>  0 0.64059594E+03</rscale>
<asrwt>0</asrwt>
<pdfrwt beam="1">  1        2 0.67561813E-01 0.64059594E+03</pdfrwt>
<pdfrwt beam="2">  1       -2 0.35940189E-01 0.64059594E+03</pdfrwt>
<totfact> 0.52449552E+02</totfact>
</mgrwt>
</event>
<event>
 4    1  0.1806019E-005  0.8752794E+03  0.7818608E-02  0.9457022E-01
         -2   -1    0    0    0  501 -0.00000000000E+00  0.00000000000E+00  0.76849284767E+02  0.76849284809E+02  0.25500000000E-02 0. -1.
          2   -1    0    0  501    0  0.00000000000E+00 -0.00000000000E+00 -0.24922613530E+04  0.24922613530E+04  0.25500000000E-02 0.  1.
   -5000001    1    1    2    0    0  0.29056178900E+03 -0.21109703410E+03 -0.11890516535E+04  0.12670169477E+04  0.25000000000E+03 0.  0.
    5000001    1    1    2    0    0 -0.29056178900E+03  0.21109703410E+03 -0.12263604147E+04  0.13020936901E+04  0.25000000000E+03 0.  0.
<mgrwt>
<rscale>  0 0.87527939E+03</rscale>
<asrwt>0</asrwt>
<pdfrwt beam="1">  1        2 0.38342476E+00 0.87527939E+03</pdfrwt>
<pdfrwt beam="2">  1       -2 0.11822969E-01 0.87527939E+03</pdfrwt>
<totfact> 0.18809836E+02</totfact>
</mgrwt>
</event>
<event>
 4    1  0.1806019E-005  0.6023563E+03  0.7818608E-02  0.9900529E-01
          2   -1    0    0  501    0  0.00000000000E+00  0.00000000000E+00  0.66652074965E+03  0.66652074965E+03  0.25500000000E-02 0.  1.
         -2   -1    0    0    0  501 -0.00000000000E+00 -0.00000000000E+00 -0.13609222447E+03  0.13609222449E+03  0.25500000000E-02 0. -1.
   -5000001    1    1    2    0    0 -0.48787503233E+02  0.14437064709E+03  0.35929342134E+03  0.46348124755E+03  0.25000000000E+03 0.  0.
    5000001    1    1    2    0    0  0.48787503233E+02 -0.14437064709E+03  0.17113510384E+03  0.33913172659E+03  0.25000000000E+03 0.  0.
<mgrwt>
<rscale>  0 0.60235634E+03</rscale>
<asrwt>0</asrwt>
<pdfrwt beam="1">  1        2 0.10254165E+00 0.60235634E+03</pdfrwt>
<pdfrwt beam="2">  1       -2 0.20937266E-01 0.60235634E+03</pdfrwt>
<totfact> 0.86199393E+02</totfact>
</mgrwt>
</event>
<event>
 4    1  0.1806019E-005  0.8842208E+03  0.7818608E-02  0.9445524E-01
         -2   -1    0    0    0  501 -0.00000000000E+00  0.00000000000E+00  0.14560552020E+03  0.14560552023E+03  0.25500000000E-02 0. -1.
          2   -1    0    0  501    0  0.00000000000E+00 -0.00000000000E+00 -0.13424051172E+04  0.13424051172E+04  0.25500000000E-02 0.  1.
   -5000001    1    1    2    0    0  0.36148533591E+03  0.40116130425E+02 -0.55449569130E+03  0.70869346242E+03  0.25000000000E+03 0.  0.
    5000001    1    1    2    0    0 -0.36148533591E+03 -0.40116130425E+02 -0.64230390566E+03  0.77931717498E+03  0.25000000000E+03 0.  0.
<mgrwt>
<rscale>  0 0.88422078E+03</rscale>
<asrwt>0</asrwt>
<pdfrwt beam="1">  1        2 0.20652386E+00 0.88422078E+03</pdfrwt>
<pdfrwt beam="2">  1       -2 0.22400850E-01 0.88422078E+03</pdfrwt>
<totfact> 0.27367130E+02</totfact>
</mgrwt>
</event>
<event>
 4    1  0.1806019E-005  0.9003699E+03  0.7818608E-02  0.9425119E-01
         -2   -1    0    0    0  501 -0.00000000000E+00  0.00000000000E+00  0.14049667365E+03  0.14049667367E+03  0.25500000000E-02 0. -1.
          2   -1    0    0  501    0  0.00000000000E+00 -0.00000000000E+00 -0.14425002353E+04  0.14425002353E+04  0.25500000000E-02 0.  1.
   -5000001    1    1    2    0    0 -0.84161897662E+02  0.34555482855E+03 -0.44540103726E+03  0.62239332302E+03  0.25000000000E+03 0.  0.
    5000001    1    1    2    0    0  0.84161897662E+02 -0.34555482855E+03 -0.85660252443E+03  0.96060358598E+03  0.25000000000E+03 0.  0.
<mgrwt>
<rscale>  0 0.90036989E+03</rscale>
<asrwt>0</asrwt>
<pdfrwt beam="1">  1        2 0.22192310E+00 0.90036989E+03</pdfrwt>
<pdfrwt beam="2">  1       -2 0.21614874E-01 0.90036989E+03</pdfrwt>
<totfact> 0.25550930E+02</totfact>
</mgrwt>
</event>
<event>
 4    1  0.1806019E-005  0.1726136E+04  0.7818608E-02  0.8746597E-01
         -2   -1    0    0    0  501 -0.00000000000E+00  0.00000000000E+00  0.29290626985E+03  0.29290626986E+03  0.25500000000E-02 0. -1.
          2   -1    0    0  501    0  0.00000000000E+00 -0.00000000000E+00 -0.25430866333E+04  0.25430866333E+04  0.25500000000E-02 0.  1.
   -5000001    1    1    2    0    0  0.79213079626E+02 -0.81009418033E+03 -0.13566194674E+04  0.16017002442E+04  0.25000000000E+03 0.  0.
    5000001    1    1    2    0    0 -0.79213079626E+02  0.81009418033E+03 -0.89356089601E+03  0.12342926589E+04  0.25000000000E+03 0.  0.
<mgrwt>
<rscale>  0 0.17261356E+04</rscale>
<asrwt>0</asrwt>
<pdfrwt beam="1">  1        2 0.39124408E+00 0.17261356E+04</pdfrwt>
<pdfrwt beam="2">  1       -2 0.45062505E-01 0.17261356E+04</pdfrwt>
<totfact> 0.14597322E+01</totfact>
</mgrwt>
</event>
<event>
 4    1  0.1806019E-005  0.1062236E+04  0.7818608E-02  0.9242802E-01
          2   -1    0    0  501    0  0.00000000000E+00  0.00000000000E+00  0.20074908417E+04  0.20074908417E+04  0.25500000000E-02 0.  1.
         -2   -1    0    0    0  501 -0.00000000000E+00 -0.00000000000E+00 -0.14051675698E+03  0.14051675700E+03  0.25500000000E-02 0. -1.
   -5000001    1    1    2    0    0 -0.25436991712E+02  0.46484852821E+03  0.82544045984E+03  0.98009343813E+03  0.25000000000E+03 0.  0.
    5000001    1    1    2    0    0  0.25436991712E+02 -0.46484852821E+03  0.10415336249E+04  0.11679141606E+04  0.25000000000E+03 0.  0.
<mgrwt>
<rscale>  0 0.10622356E+04</rscale>
<asrwt>0</asrwt>
<pdfrwt beam="1">  1        2 0.30884475E+00 0.10622356E+04</pdfrwt>
<pdfrwt beam="2">  1       -2 0.21617962E-01 0.10622356E+04</pdfrwt>
<totfact> 0.12298594E+02</totfact>
</mgrwt>
</event>
<event>
 4    1  0.1806019E-005  0.6145578E+03  0.7818608E-02  0.9875655E-01
          2   -1    0    0  501    0  0.00000000000E+00  0.00000000000E+00  0.18508935621E+04  0.18508935622E+04  0.25500000000E-02 0.  1.
         -2   -1    0    0    0  501 -0.00000000000E+00 -0.00000000000E+00 -0.51013378326E+02  0.51013378390E+02  0.25500000000E-02 0. -1.
   -5000001    1    1    2    0    0  0.87066830238E+01  0.17836225695E+03  0.88258941813E+03  0.93453356388E+03  0.25000000000E+03 0.  0.
    5000001    1    1    2    0    0 -0.87066830238E+01 -0.17836225695E+03  0.91729076570E+03  0.96737337666E+03  0.25000000000E+03 0.  0.
<mgrwt>
<rscale>  0 0.61455784E+03</rscale>
<asrwt>0</asrwt>
<pdfrwt beam="1">  1        2 0.28475289E+00 0.61455784E+03</pdfrwt>
<pdfrwt beam="2">  1       -2 0.78482112E-02 0.61455784E+03</pdfrwt>
<totfact> 0.84318354E+02</totfact>
</mgrwt>
</event>
<event>
 4    1  0.1806019E-005  0.6036258E+03  0.7818608E-02  0.9897912E-01
          2   -1    0    0  501    0  0.00000000000E+00  0.00000000000E+00  0.29559523449E+04  0.29559523449E+04  0.25500000000E-02 0.  1.
         -2   -1    0    0    0  501 -0.00000000000E+00 -0.00000000000E+00 -0.30816134779E+02  0.30816134884E+02  0.25500000000E-02 0. -1.
   -5000001    1    1    2    0    0 -0.10520545125E+03  0.11654337095E+03  0.11519631168E+04  0.11891886170E+04  0.25000000000E+03 0.  0.
    5000001    1    1    2    0    0  0.10520545125E+03 -0.11654337095E+03  0.17731730933E+04  0.17975798628E+04  0.25000000000E+03 0.  0.
<mgrwt>
<rscale>  0 0.60362580E+03</rscale>
<asrwt>0</asrwt>
<pdfrwt beam="1">  1        2 0.45476194E+00 0.60362580E+03</pdfrwt>
<pdfrwt beam="2">  1       -2 0.47409434E-02 0.60362580E+03</pdfrwt>
<totfact> 0.44518561E+02</totfact>
</mgrwt>
</event>
<event>
 4    1  0.1806019E-005  0.9413706E+03  0.7818608E-02  0.9375294E-01
          2   -1    0    0  501    0  0.00000000000E+00  0.00000000000E+00  0.21476117532E+04  0.21476117532E+04  0.25500000000E-02 0.  1.
         -2   -1    0    0    0  501 -0.00000000000E+00 -0.00000000000E+00 -0.10315862359E+03  0.10315862362E+03  0.25500000000E-02 0. -1.
   -5000001    1    1    2    0    0 -0.18476067351E+03 -0.35118477596E+03  0.11171873063E+04  0.12116413374E+04  0.25000000000E+03 0.  0.
    5000001    1    1    2    0    0  0.18476067351E+03  0.35118477596E+03  0.92726582335E+03  0.10391290394E+04  0.25000000000E+03 0.  0.
<mgrwt>
<rscale>  0 0.94137064E+03</rscale>
<asrwt>0</asrwt>
<pdfrwt beam="1">  1        2 0.33040176E+00 0.94137064E+03</pdfrwt>
<pdfrwt beam="2">  1       -2 0.15870560E-01 0.94137064E+03</pdfrwt>
<totfact> 0.17787719E+02</totfact>
</mgrwt>
</event>
<event>
 4    1  0.1806019E-005  0.8427853E+03  0.7818608E-02  0.9500072E-01
          2   -1    0    0  501    0  0.00000000000E+00  0.00000000000E+00  0.13603373417E+04  0.13603373417E+04  0.25500000000E-02 0. -1.
         -2   -1    0    0    0  501 -0.00000000000E+00 -0.00000000000E+00 -0.13053509256E+03  0.13053509259E+03  0.25500000000E-02 0.  1.
   -5000001    1    1    2    0    0 -0.55014859091E+02 -0.29166722127E+03  0.90544193819E+03  0.98509974425E+03  0.25000000000E+03 0.  0.
    5000001    1    1    2    0    0  0.55014859091E+02  0.29166722127E+03  0.32436031098E+03  0.50577269007E+03  0.25000000000E+03 0.  0.
<mgrwt>
<rscale>  0 0.84278529E+03</rscale>
<asrwt>0</asrwt>
<pdfrwt beam="1">  1        2 0.20928267E+00 0.84278529E+03</pdfrwt>
<pdfrwt beam="2">  1       -2 0.20082321E-01 0.84278529E+03</pdfrwt>
<totfact> 0.32494832E+02</totfact>
</mgrwt>
</event>
<event>
 4    1  0.1806019E-005  0.6276590E+03  0.7818608E-02  0.9849628E-01
         -2   -1    0    0    0  501 -0.00000000000E+00  0.00000000000E+00  0.46166919843E+02  0.46166919914E+02  0.25500000000E-02 0. -1.
          2   -1    0    0  501    0  0.00000000000E+00 -0.00000000000E+00 -0.21333232119E+04  0.21333232119E+04  0.25500000000E-02 0.  1.
   -5000001    1    1    2    0    0 -0.18530559160E+03 -0.39976820299E+02 -0.10183814159E+04  0.10656157922E+04  0.25000000000E+03 0.  0.
    5000001    1    1    2    0    0  0.18530559160E+03  0.39976820299E+02 -0.10687748762E+04  0.11138743396E+04  0.25000000000E+03 0.  0.
<mgrwt>
<rscale>  0 0.62765902E+03</rscale>
<asrwt>0</asrwt>
<pdfrwt beam="1">  1        2 0.32820350E+00 0.62765902E+03</pdfrwt>
<pdfrwt beam="2">  1       -2 0.71026047E-02 0.62765902E+03</pdfrwt>
<totfact> 0.69361953E+02</totfact>
</mgrwt>
</event>
<event>
 4    1  0.1806019E-005  0.6241366E+03  0.7818608E-02  0.9856558E-01
         -2   -1    0    0    0  501 -0.00000000000E+00  0.00000000000E+00  0.12811319209E+03  0.12811319212E+03  0.25500000000E-02 0. -1.
          2   -1    0    0  501    0  0.00000000000E+00 -0.00000000000E+00 -0.76016080461E+03  0.76016080462E+03  0.25500000000E-02 0.  1.
   -5000001    1    1    2    0    0  0.15051586652E+03 -0.72392688269E+02 -0.19702740447E+03  0.35946561101E+03  0.25000000000E+03 0.  0.
    5000001    1    1    2    0    0 -0.15051586652E+03  0.72392688269E+02 -0.43502020806E+03  0.52880838572E+03  0.25000000000E+03 0.  0.
<mgrwt>
<rscale>  0 0.62413661E+03</rscale>
<asrwt>0</asrwt>
<pdfrwt beam="1">  1        2 0.11694781E+00 0.62413661E+03</pdfrwt>
<pdfrwt beam="2">  1       -2 0.19709722E-01 0.62413661E+03</pdfrwt>
<totfact> 0.81118614E+02</totfact>
</mgrwt>
</event>
<event>
 4    1  0.1806019E-005  0.1031082E+04  0.7818608E-02  0.9275097E-01
         -2   -1    0    0    0  501 -0.00000000000E+00  0.00000000000E+00  0.19834022917E+03  0.19834022919E+03  0.25500000000E-02 0. -1.
          2   -1    0    0  501    0  0.00000000000E+00 -0.00000000000E+00 -0.13400323659E+04  0.13400323659E+04  0.25500000000E-02 0.  1.
   -5000001    1    1    2    0    0 -0.27731055198E+03  0.76323305186E+02 -0.52806668227E+02  0.38472708946E+03  0.25000000000E+03 0.  0.
    5000001    1    1    2    0    0  0.27731055198E+03 -0.76323305186E+02 -0.10888854685E+04  0.11536455056E+04  0.25000000000E+03 0.  0.
<mgrwt>
<rscale>  0 0.10310816E+04</rscale>
<asrwt>0</asrwt>
<pdfrwt beam="1">  1        2 0.20615882E+00 0.10310816E+04</pdfrwt>
<pdfrwt beam="2">  1       -2 0.30513882E-01 0.10310816E+04</pdfrwt>
<totfact> 0.15495125E+02</totfact>
</mgrwt>
</event>
<event>
 4    1  0.1806019E-005  0.9669603E+03  0.7818608E-02  0.9345543E-01
         -2   -1    0    0    0  501 -0.00000000000E+00  0.00000000000E+00  0.28997872068E+03  0.28997872069E+03  0.25500000000E-02 0. -1.
          2   -1    0    0  501    0  0.00000000000E+00 -0.00000000000E+00 -0.80610422928E+03  0.80610422929E+03  0.25500000000E-02 0.  1.
   -5000001    1    1    2    0    0 -0.15421308010E+03  0.15566027496E+03 -0.65599841357E+03  0.73542213312E+03  0.25000000000E+03 0.  0.
    5000001    1    1    2    0    0  0.15421308010E+03 -0.15566027496E+03  0.13987290496E+03  0.36066081686E+03  0.25000000000E+03 0.  0.
<mgrwt>
<rscale>  0 0.96696034E+03</rscale>
<asrwt>0</asrwt>
<pdfrwt beam="1">  1        2 0.12401603E+00 0.96696034E+03</pdfrwt>
<pdfrwt beam="2">  1       -2 0.44612111E-01 0.96696034E+03</pdfrwt>
<totfact> 0.16242424E+02</totfact>
</mgrwt>
</event>
<event>
 4    1  0.1806019E-005  0.8718962E+03  0.7818608E-02  0.9461411E-01
          2   -1    0    0  501    0  0.00000000000E+00  0.00000000000E+00  0.97287981124E+03  0.97287981125E+03  0.25500000000E-02 0.  1.
         -2   -1    0    0    0  501 -0.00000000000E+00 -0.00000000000E+00 -0.19534861632E+03  0.19534861634E+03  0.25500000000E-02 0. -1.
   -5000001    1    1    2    0    0  0.24906005401E+02  0.11837315490E+03  0.83900656149E+03  0.88377854869E+03  0.25000000000E+03 0.  0.
    5000001    1    1    2    0    0 -0.24906005401E+02 -0.11837315490E+03 -0.61475366570E+02  0.28444987889E+03  0.25000000000E+03 0.  0.
<mgrwt>
<rscale>  0 0.87189615E+03</rscale>
<asrwt>0</asrwt>
<pdfrwt beam="1">  1        2 0.14967382E+00 0.87189615E+03</pdfrwt>
<pdfrwt beam="2">  1       -2 0.30053633E-01 0.87189615E+03</pdfrwt>
<totfact> 0.26863015E+02</totfact>
</mgrwt>
</event>
<event>
 4    1  0.1806019E-005  0.5751140E+03  0.7818608E-02  0.9958426E-01
         -2   -1    0    0    0  501 -0.00000000000E+00  0.00000000000E+00  0.71081594542E+02  0.71081594588E+02  0.25500000000E-02 0. -1.
          2   -1    0    0  501    0  0.00000000000E+00 -0.00000000000E+00 -0.11632972674E+04  0.11632972674E+04  0.25500000000E-02 0.  1.
   -5000001    1    1    2    0    0  0.90113985962E+02  0.57150271463E+02 -0.34473836349E+03  0.43901164364E+03  0.25000000000E+03 0.  0.
    5000001    1    1    2    0    0 -0.90113985962E+02 -0.57150271463E+02 -0.74747730934E+03  0.79536721832E+03  0.25000000000E+03 0.  0.
<mgrwt>
<rscale>  0 0.57511399E+03</rscale>
<asrwt>0</asrwt>
<pdfrwt beam="1">  1        2 0.17896880E+00 0.57511399E+03</pdfrwt>
<pdfrwt beam="2">  1       -2 0.10935631E-01 0.57511399E+03</pdfrwt>
<totfact> 0.11950819E+03</totfact>
</mgrwt>
</event>
<event>
 4    1  0.1806019E-005  0.6560421E+03  0.7818608E-02  0.9795507E-01
         -2   -1    0    0    0  501 -0.00000000000E+00  0.00000000000E+00  0.13429453023E+03  0.13429453025E+03  0.25500000000E-02 0. -1.
          2   -1    0    0  501    0  0.00000000000E+00 -0.00000000000E+00 -0.80120778361E+03  0.80120778361E+03  0.25500000000E-02 0.  1.
   -5000001    1    1    2    0    0 -0.17590422028E+03  0.29162454442E+02 -0.16897330620E+03  0.35049211356E+03  0.25000000000E+03 0.  0.
    5000001    1    1    2    0    0  0.17590422028E+03 -0.29162454442E+02 -0.49793994718E+03  0.58501020031E+03  0.25000000000E+03 0.  0.
<mgrwt>
<rscale>  0 0.65604214E+03</rscale>
<asrwt>0</asrwt>
<pdfrwt beam="1">  1        2 0.12326273E+00 0.65604214E+03</pdfrwt>
<pdfrwt beam="2">  1       -2 0.20660697E-01 0.65604214E+03</pdfrwt>
<totfact> 0.69692441E+02</totfact>
</mgrwt>
</event>
<event>
 4    1  0.1806019E-005  0.6805572E+03  0.7818608E-02  0.9751072E-01
          2   -1    0    0  501    0  0.00000000000E+00  0.00000000000E+00  0.13331656792E+04  0.13331656792E+04  0.25500000000E-02 0.  1.
         -2   -1    0    0    0  501 -0.00000000000E+00 -0.00000000000E+00 -0.86853069455E+02  0.86853069492E+02  0.25500000000E-02 0. -1.
   -5000001    1    1    2    0    0 -0.13412279123E+03 -0.14074674849E+03  0.88285431102E+03  0.93793939293E+03  0.25000000000E+03 0.  0.
    5000001    1    1    2    0    0  0.13412279123E+03  0.14074674849E+03  0.36345829873E+03  0.48207935577E+03  0.25000000000E+03 0.  0.
<mgrwt>
<rscale>  0 0.68055722E+03</rscale>
<asrwt>0</asrwt>
<pdfrwt beam="1">  1        2 0.20510240E+00 0.68055722E+03</pdfrwt>
<pdfrwt beam="2">  1       -2 0.13362011E-01 0.68055722E+03</pdfrwt>
<totfact> 0.68135692E+02</totfact>
</mgrwt>
</event>
<event>
 4    1  0.1806019E-005  0.6221256E+03  0.7818608E-02  0.9860537E-01
         -2   -1    0    0    0  501 -0.00000000000E+00  0.00000000000E+00  0.32391893440E+02  0.32391893540E+02  0.25500000000E-02 0. -1.
          2   -1    0    0  501    0  0.00000000000E+00 -0.00000000000E+00 -0.29871695625E+04  0.29871695625E+04  0.25500000000E-02 0.  1.
   -5000001    1    1    2    0    0  0.11188781996E+03 -0.10313893875E+03 -0.19888312752E+04  0.20102503242E+04  0.25000000000E+03 0.  0.
    5000001    1    1    2    0    0 -0.11188781996E+03  0.10313893875E+03 -0.96594639385E+03  0.10093111318E+04  0.25000000000E+03 0.  0.
<mgrwt>
<rscale>  0 0.62212564E+03</rscale>
<asrwt>0</asrwt>
<pdfrwt beam="1">  1        2 0.45956433E+00 0.62212564E+03</pdfrwt>
<pdfrwt beam="2">  1       -2 0.49833706E-02 0.62212564E+03</pdfrwt>
<totfact> 0.39372295E+02</totfact>
</mgrwt>
</event>
<event>
 4    1  0.1806019E-005  0.1111644E+04  0.7818608E-02  0.9193916E-01
         -2   -1    0    0    0  501 -0.00000000000E+00  0.00000000000E+00  0.25772839799E+03  0.25772839801E+03  0.25500000000E-02 0. -1.
          2   -1    0    0  501    0  0.00000000000E+00 -0.00000000000E+00 -0.11986968329E+04  0.11986968329E+04  0.25500000000E-02 0.  1.
   -5000001    1    1    2    0    0  0.29619672620E+03  0.30794621611E+03 -0.80160565664E+03  0.94214383264E+03  0.25000000000E+03 0.  0.
    5000001    1    1    2    0    0 -0.29619672620E+03 -0.30794621611E+03 -0.13936277825E+03  0.51428139825E+03  0.25000000000E+03 0.  0.
<mgrwt>
<rscale>  0 0.11116442E+04</rscale>
<asrwt>0</asrwt>
<pdfrwt beam="1">  1        2 0.18441489E+00 0.11116442E+04</pdfrwt>
<pdfrwt beam="2">  1       -2 0.39650524E-01 0.11116442E+04</pdfrwt>
<totfact> 0.11318592E+02</totfact>
</mgrwt>
</event>
<event>
 4    1  0.1806019E-005  0.1084662E+04  0.7818608E-02  0.9220271E-01
          2   -1    0    0  501    0  0.00000000000E+00  0.00000000000E+00  0.79241705547E+03  0.79241705547E+03  0.25500000000E-02 0.  1.
         -2   -1    0    0    0  501 -0.00000000000E+00 -0.00000000000E+00 -0.37117213173E+03  0.37117213173E+03  0.25500000000E-02 0. -1.
   -5000001    1    1    2    0    0  0.44734216908E+03  0.15287686561E+03  0.11385457484E+03  0.54676248636E+03  0.25000000000E+03 0.  0.
    5000001    1    1    2    0    0 -0.44734216908E+03 -0.15287686561E+03  0.30739034890E+03  0.61682670085E+03  0.25000000000E+03 0.  0.
<mgrwt>
<rscale>  0 0.10846624E+04</rscale>
<asrwt>0</asrwt>
<pdfrwt beam="1">  1        2 0.12191032E+00 0.10846624E+04</pdfrwt>
<pdfrwt beam="2">  1       -2 0.57103405E-01 0.10846624E+04</pdfrwt>
<totfact> 0.99679665E+01</totfact>
</mgrwt>
</event>
<event>
 4    1  0.1806019E-005  0.6459484E+03  0.7818608E-02  0.9814412E-01
          2   -1    0    0  501    0  0.00000000000E+00  0.00000000000E+00  0.76179190853E+03  0.76179190853E+03  0.25500000000E-02 0.  1.
         -2   -1    0    0    0  501 -0.00000000000E+00 -0.00000000000E+00 -0.13693021696E+03  0.13693021698E+03  0.25500000000E-02 0. -1.
   -5000001    1    1    2    0    0  0.17915795741E+03  0.68222657721E+02  0.21345683339E+03  0.38054661272E+03  0.25000000000E+03 0.  0.
    5000001    1    1    2    0    0 -0.17915795741E+03 -0.68222657721E+02  0.41140485817E+03  0.51817551279E+03  0.25000000000E+03 0.  0.
<mgrwt>
<rscale>  0 0.64594839E+03</rscale>
<asrwt>0</asrwt>
<pdfrwt beam="1">  1        2 0.11719876E+00 0.64594839E+03</pdfrwt>
<pdfrwt beam="2">  1       -2 0.21066187E-01 0.64594839E+03</pdfrwt>
<totfact> 0.71964598E+02</totfact>
</mgrwt>
</event>
<event>
 4    1  0.1806019E-005  0.5822212E+03  0.7818608E-02  0.9942994E-01
          2   -1    0    0  501    0  0.00000000000E+00  0.00000000000E+00  0.52868131226E+03  0.52868131226E+03  0.25500000000E-02 0.  1.
         -2   -1    0    0    0  501 -0.00000000000E+00 -0.00000000000E+00 -0.16029576059E+03  0.16029576061E+03  0.25500000000E-02 0. -1.
   -5000001    1    1    2    0    0  0.14301281947E+03 -0.10266566283E+02  0.13558413656E+03  0.31849823705E+03  0.25000000000E+03 0.  0.
    5000001    1    1    2    0    0 -0.14301281947E+03  0.10266566283E+02  0.23280141511E+03  0.37047883582E+03  0.25000000000E+03 0.  0.
<mgrwt>
<rscale>  0 0.58222117E+03</rscale>
<asrwt>0</asrwt>
<pdfrwt beam="1">  1        2 0.81335586E-01 0.58222117E+03</pdfrwt>
<pdfrwt beam="2">  1       -2 0.24660887E-01 0.58222117E+03</pdfrwt>
<totfact> 0.85115764E+02</totfact>
</mgrwt>
</event>
<event>
 4    1  0.1806019E-005  0.8539170E+03  0.7818608E-02  0.9485095E-01
         -2   -1    0    0    0  501 -0.00000000000E+00  0.00000000000E+00  0.82860343953E+03  0.82860343953E+03  0.25500000000E-02 0. -1.
          2   -1    0    0  501    0  0.00000000000E+00 -0.00000000000E+00 -0.22000097689E+03  0.22000097691E+03  0.25500000000E-02 0.  1.
   -5000001    1    1    2    0    0  0.29148757761E+03 -0.86150408908E+02  0.10100744041E+03  0.40631195389E+03  0.25000000000E+03 0.  0.
    5000001    1    1    2    0    0 -0.29148757761E+03  0.86150408908E+02  0.50759502223E+03  0.64229246255E+03  0.25000000000E+03 0.  0.
<mgrwt>
<rscale>  0 0.85391701E+03</rscale>
<asrwt>0</asrwt>
<pdfrwt beam="1">  1        2 0.33846304E-01 0.85391701E+03</pdfrwt>
<pdfrwt beam="2">  1       -2 0.12747745E+00 0.85391701E+03</pdfrwt>
<totfact> 0.71235538E+01</totfact>
</mgrwt>
</event>
<event>
 4    1  0.1806019E-005  0.9614743E+03  0.7818608E-02  0.9351839E-01
         -2   -1    0    0    0  501 -0.00000000000E+00  0.00000000000E+00  0.26082973273E+03  0.26082973274E+03  0.25500000000E-02 0. -1.
          2   -1    0    0  501    0  0.00000000000E+00 -0.00000000000E+00 -0.88605006719E+03  0.88605006719E+03  0.25500000000E-02 0.  1.
   -5000001    1    1    2    0    0 -0.40763329625E+03 -0.49163735922E+02 -0.30650161032E+03  0.57010982650E+03  0.25000000000E+03 0.  0.
    5000001    1    1    2    0    0  0.40763329625E+03  0.49163735922E+02 -0.31871872414E+03  0.57676997344E+03  0.25000000000E+03 0.  0.
<mgrwt>
<rscale>  0 0.96147429E+03</rscale>
<asrwt>0</asrwt>
<pdfrwt beam="1">  1        2 0.13631539E+00 0.96147429E+03</pdfrwt>
<pdfrwt beam="2">  1       -2 0.40127651E-01 0.96147429E+03</pdfrwt>
<totfact> 0.17605006E+02</totfact>
</mgrwt>
</event>
<event>
 4    1  0.1806019E-005  0.9379222E+03  0.7818608E-02  0.9379380E-01
         -2   -1    0    0    0  501 -0.00000000000E+00  0.00000000000E+00  0.48442897863E+03  0.48442897864E+03  0.25500000000E-02 0. -1.
          2   -1    0    0  501    0  0.00000000000E+00 -0.00000000000E+00 -0.45398708240E+03  0.45398708240E+03  0.25500000000E-02 0.  1.
   -5000001    1    1    2    0    0  0.31464750103E+02  0.18190030419E+03  0.36661344359E+03  0.48060708295E+03  0.25000000000E+03 0.  0.
    5000001    1    1    2    0    0 -0.31464750103E+02 -0.18190030419E+03 -0.33617154736E+03  0.45780897809E+03  0.25000000000E+03 0.  0.
<mgrwt>
<rscale>  0 0.93792217E+03</rscale>
<asrwt>0</asrwt>
<pdfrwt beam="1">  1        2 0.69844166E-01 0.93792217E+03</pdfrwt>
<pdfrwt beam="2">  1       -2 0.74527535E-01 0.93792217E+03</pdfrwt>
<totfact> 0.11174568E+02</totfact>
</mgrwt>
</event>
<event>
 4    1  0.1806019E-005  0.8539493E+03  0.7818608E-02  0.9485052E-01
         -2   -1    0    0    0  501 -0.00000000000E+00  0.00000000000E+00  0.10026349054E+04  0.10026349054E+04  0.25500000000E-02 0. -1.
          2   -1    0    0  501    0  0.00000000000E+00 -0.00000000000E+00 -0.18182823984E+03  0.18182823986E+03  0.25500000000E-02 0.  1.
   -5000001    1    1    2    0    0 -0.22199583545E+03 -0.25916310291E+03  0.49080001484E+03  0.64794468856E+03  0.25000000000E+03 0.  0.
    5000001    1    1    2    0    0  0.22199583545E+03  0.25916310291E+03  0.33000665071E+03  0.53651845670E+03  0.25000000000E+03 0.  0.
<mgrwt>
<rscale>  0 0.85394927E+03</rscale>
<asrwt>0</asrwt>
<pdfrwt beam="1">  1        2 0.27973575E-01 0.85394927E+03</pdfrwt>
<pdfrwt beam="2">  1       -2 0.15425153E+00 0.85394927E+03</pdfrwt>
<totfact> 0.53899977E+01</totfact>
</mgrwt>
</event>
<event>
 4    1  0.1806019E-005  0.6458894E+03  0.7818608E-02  0.9814523E-01
          2   -1    0    0  501    0  0.00000000000E+00  0.00000000000E+00  0.18923266745E+04  0.18923266745E+04  0.25500000000E-02 0.  1.
         -2   -1    0    0    0  501 -0.00000000000E+00 -0.00000000000E+00 -0.55113779220E+02  0.55113779279E+02  0.25500000000E-02 0. -1.
   -5000001    1    1    2    0    0 -0.14864373448E+03 -0.14030076262E+03  0.90732050604E+03  0.96307308366E+03  0.25000000000E+03 0.  0.
    5000001    1    1    2    0    0  0.14864373448E+03  0.14030076262E+03  0.92989238927E+03  0.98436737015E+03  0.25000000000E+03 0.  0.
<mgrwt>
<rscale>  0 0.64588939E+03</rscale>
<asrwt>0</asrwt>
<pdfrwt beam="1">  1        2 0.29112714E+00 0.64588939E+03</pdfrwt>
<pdfrwt beam="2">  1       -2 0.84790440E-02 0.64588939E+03</pdfrwt>
<totfact> 0.70625115E+02</totfact>
</mgrwt>
</event>
<event>
 4    1  0.1806019E-005  0.8759049E+03  0.7818608E-02  0.9456213E-01
         -2   -1    0    0    0  501 -0.00000000000E+00  0.00000000000E+00  0.18251244981E+03  0.18251244983E+03  0.25500000000E-02 0. -1.
          2   -1    0    0  501    0  0.00000000000E+00 -0.00000000000E+00 -0.10509001534E+04  0.10509001534E+04  0.25500000000E-02 0.  1.
   -5000001    1    1    2    0    0  0.29231588327E+03  0.15820581012E+03 -0.62739759217E+03  0.75273195271E+03  0.25000000000E+03 0.  0.
    5000001    1    1    2    0    0 -0.29231588327E+03 -0.15820581012E+03 -0.24099011138E+03  0.48068065048E+03  0.25000000000E+03 0.  0.
<mgrwt>
<rscale>  0 0.87590493E+03</rscale>
<asrwt>0</asrwt>
<pdfrwt beam="1">  1        2 0.16167694E+00 0.87590493E+03</pdfrwt>
<pdfrwt beam="2">  1       -2 0.28078839E-01 0.87590493E+03</pdfrwt>
<totfact> 0.27160504E+02</totfact>
</mgrwt>
</event>
<event>
 4    1  0.1806019E-005  0.9943690E+03  0.7818608E-02  0.9314742E-01
          2   -1    0    0  501    0  0.00000000000E+00  0.00000000000E+00  0.38855384939E+04  0.38855384939E+04  0.25500000000E-02 0.  1.
         -2   -1    0    0    0  501 -0.00000000000E+00 -0.00000000000E+00 -0.63618575069E+02  0.63618575120E+02  0.25500000000E-02 0. -1.
   -5000001    1    1    2    0    0  0.34240399646E+03 -0.24046961763E+03  0.23006203623E+04  0.23516845420E+04  0.25000000000E+03 0.  0.
    5000001    1    1    2    0    0 -0.34240399646E+03  0.24046961763E+03  0.15212995566E+04  0.15974725271E+04  0.25000000000E+03 0.  0.
<mgrwt>
<rscale>  0 0.99436899E+03</rscale>
<asrwt>0</asrwt>
<pdfrwt beam="1">  1        2 0.59777518E+00 0.99436899E+03</pdfrwt>
<pdfrwt beam="2">  1       -2 0.97874726E-02 0.99436899E+03</pdfrwt>
<totfact> 0.31669176E+01</totfact>
</mgrwt>
</event>
<event>
 4    1  0.1806019E-005  0.5769391E+03  0.7818608E-02  0.9954440E-01
         -2   -1    0    0    0  501 -0.00000000000E+00  0.00000000000E+00  0.69425027280E+03  0.69425027281E+03  0.25500000000E-02 0. -1.
          2   -1    0    0  501    0  0.00000000000E+00 -0.00000000000E+00 -0.11986267551E+03  0.11986267554E+03  0.25500000000E-02 0.  1.
   -5000001    1    1    2    0    0 -0.14151794470E+03  0.19977095814E+02  0.26323508290E+03  0.39015269050E+03  0.25000000000E+03 0.  0.
    5000001    1    1    2    0    0  0.14151794470E+03 -0.19977095814E+02  0.31115251438E+03  0.42396025785E+03  0.25000000000E+03 0.  0.
<mgrwt>
<rscale>  0 0.57693915E+03</rscale>
<asrwt>0</asrwt>
<pdfrwt beam="1">  1        2 0.18440411E-01 0.57693915E+03</pdfrwt>
<pdfrwt beam="2">  1       -2 0.10680774E+00 0.57693915E+03</pdfrwt>
<totfact> 0.22349815E+02</totfact>
</mgrwt>
</event>
<event>
 4    1  0.1806019E-005  0.7202660E+03  0.7818608E-02  0.9683189E-01
         -2   -1    0    0    0  501 -0.00000000000E+00  0.00000000000E+00  0.52905030435E+02  0.52905030496E+02  0.25500000000E-02 0. -1.
          2   -1    0    0  501    0  0.00000000000E+00 -0.00000000000E+00 -0.24514829362E+04  0.24514829362E+04  0.25500000000E-02 0.  1.
   -5000001    1    1    2    0    0 -0.17346771794E+03  0.87406554869E+02 -0.17961326608E+04  0.18238211234E+04  0.25000000000E+03 0.  0.
    5000001    1    1    2    0    0  0.17346771794E+03 -0.87406554869E+02 -0.60244524497E+03  0.68056684329E+03  0.25000000000E+03 0.  0.
<mgrwt>
<rscale>  0 0.72026600E+03</rscale>
<asrwt>0</asrwt>
<pdfrwt beam="1">  1        2 0.37715113E+00 0.72026600E+03</pdfrwt>
<pdfrwt beam="2">  1       -2 0.81392374E-02 0.72026600E+03</pdfrwt>
<totfact> 0.36933501E+02</totfact>
</mgrwt>
</event>
<event>
 4    1  0.1806019E-005  0.5511437E+03  0.7818608E-02  0.1001230E+00
         -2   -1    0    0    0  501 -0.00000000000E+00  0.00000000000E+00  0.80358277454E+02  0.80358277495E+02  0.25500000000E-02 0. -1.
          2   -1    0    0  501    0  0.00000000000E+00 -0.00000000000E+00 -0.94501584430E+03  0.94501584431E+03  0.25500000000E-02 0.  1.
   -5000001    1    1    2    0    0 -0.35021345561E+02  0.76700870202E+02 -0.28430531194E+03  0.38786470390E+03  0.25000000000E+03 0.  0.
    5000001    1    1    2    0    0  0.35021345561E+02 -0.76700870202E+02 -0.58035225491E+03  0.63750941790E+03  0.25000000000E+03 0.  0.
<mgrwt>
<rscale>  0 0.55114370E+03</rscale>
<asrwt>0</asrwt>
<pdfrwt beam="1">  1        2 0.14538704E+00 0.55114370E+03</pdfrwt>
<pdfrwt beam="2">  1       -2 0.12362813E-01 0.55114370E+03</pdfrwt>
<totfact> 0.13340385E+03</totfact>
</mgrwt>
</event>
<event>
 4    1  0.1806019E-005  0.8971625E+03  0.7818608E-02  0.9429135E-01
          2   -1    0    0  501    0  0.00000000000E+00  0.00000000000E+00  0.10615707411E+04  0.10615707411E+04  0.25500000000E-02 0.  1.
         -2   -1    0    0    0  501 -0.00000000000E+00 -0.00000000000E+00 -0.18955415997E+03  0.18955415998E+03  0.25500000000E-02 0. -1.
   -5000001    1    1    2    0    0  0.25756273305E+03  0.18580368910E+03  0.16465170472E+03  0.43643070035E+03  0.25000000000E+03 0.  0.
    5000001    1    1    2    0    0 -0.25756273305E+03 -0.18580368910E+03  0.70736487638E+03  0.81469420071E+03  0.25000000000E+03 0.  0.
<mgrwt>
<rscale>  0 0.89716253E+03</rscale>
<asrwt>0</asrwt>
<pdfrwt beam="1">  1        2 0.16331858E+00 0.89716253E+03</pdfrwt>
<pdfrwt beam="2">  1       -2 0.29162178E-01 0.89716253E+03</pdfrwt>
<totfact> 0.24914320E+02</totfact>
</mgrwt>
</event>
<event>
 4    1  0.1806019E-005  0.8075697E+03  0.7818608E-02  0.9549124E-01
          2   -1    0    0  501    0  0.00000000000E+00  0.00000000000E+00  0.28863932169E+03  0.28863932170E+03  0.25500000000E-02 0.  1.
         -2   -1    0    0    0  501 -0.00000000000E+00 -0.00000000000E+00 -0.56486481168E+03  0.56486481168E+03  0.25500000000E-02 0. -1.
   -5000001    1    1    2    0    0  0.17324747964E+03  0.26394239490E+03 -0.16914110837E+03  0.43679399214E+03  0.25000000000E+03 0.  0.
    5000001    1    1    2    0    0 -0.17324747964E+03 -0.26394239490E+03 -0.10708438162E+03  0.41671014124E+03  0.25000000000E+03 0.  0.
<mgrwt>
<rscale>  0 0.80756968E+03</rscale>
<asrwt>0</asrwt>
<pdfrwt beam="1">  1        2 0.44406050E-01 0.80756968E+03</pdfrwt>
<pdfrwt beam="2">  1       -2 0.86902278E-01 0.80756968E+03</pdfrwt>
<totfact> 0.13224585E+02</totfact>
</mgrwt>
</event>
<event>
 4    1  0.1806019E-005  0.6269822E+03  0.7818608E-02  0.9850956E-01
         -2   -1    0    0    0  501 -0.00000000000E+00  0.00000000000E+00  0.43623971824E+02  0.43623971898E+02  0.25500000000E-02 0. -1.
          2   -1    0    0  501    0  0.00000000000E+00 -0.00000000000E+00 -0.22528131361E+04  0.22528131361E+04  0.25500000000E-02 0.  1.
   -5000001    1    1    2    0    0 -0.16616736975E+03 -0.89474439348E+02 -0.11508354036E+04  0.11927025598E+04  0.25000000000E+03 0.  0.
    5000001    1    1    2    0    0  0.16616736975E+03  0.89474439348E+02 -0.10583537607E+04  0.11037345482E+04  0.25000000000E+03 0.  0.
<mgrwt>
<rscale>  0 0.62698216E+03</rscale>
<asrwt>0</asrwt>
<pdfrwt beam="1">  1        2 0.34658654E+00 0.62698216E+03</pdfrwt>
<pdfrwt beam="2">  1       -2 0.67113821E-02 0.62698216E+03</pdfrwt>
<totfact> 0.65249807E+02</totfact>
</mgrwt>
</event>
<event>
 4    1  0.1806019E-005  0.5685249E+03  0.7818608E-02  0.9972948E-01
         -2   -1    0    0    0  501 -0.00000000000E+00  0.00000000000E+00  0.58859826111E+02  0.58859826167E+02  0.25500000000E-02 0. -1.
          2   -1    0    0  501    0  0.00000000000E+00 -0.00000000000E+00 -0.13728405086E+04  0.13728405086E+04  0.25500000000E-02 0.  1.
   -5000001    1    1    2    0    0 -0.76842273921E+02 -0.10892530215E+03 -0.59870460764E+03  0.66235690056E+03  0.25000000000E+03 0.  0.
    5000001    1    1    2    0    0  0.76842273921E+02  0.10892530215E+03 -0.71527607483E+03  0.76934343419E+03  0.25000000000E+03 0.  0.
<mgrwt>
<rscale>  0 0.56852495E+03</rscale>
<asrwt>0</asrwt>
<pdfrwt beam="1">  1        2 0.21120621E+00 0.56852495E+03</pdfrwt>
<pdfrwt beam="2">  1       -2 0.90553589E-02 0.56852495E+03</pdfrwt>
<totfact> 0.12287338E+03</totfact>
</mgrwt>
</event>
<event>
 4    1  0.1806019E-005  0.9173568E+03  0.7818608E-02  0.9404141E-01
          2   -1    0    0  501    0  0.00000000000E+00  0.00000000000E+00  0.13454471821E+04  0.13454471821E+04  0.25500000000E-02 0.  1.
         -2   -1    0    0    0  501 -0.00000000000E+00 -0.00000000000E+00 -0.15636875093E+03  0.15636875095E+03  0.25500000000E-02 0. -1.
   -5000001    1    1    2    0    0 -0.11636072976E+03 -0.47778184787E+02 -0.39576999254E+00  0.27986198564E+03  0.25000000000E+03 0.  0.
    5000001    1    1    2    0    0  0.11636072976E+03  0.47778184787E+02  0.11894742012E+04  0.12219539474E+04  0.25000000000E+03 0.  0.
<mgrwt>
<rscale>  0 0.91735685E+03</rscale>
<asrwt>0</asrwt>
<pdfrwt beam="1">  1        2 0.20699187E+00 0.91735685E+03</pdfrwt>
<pdfrwt beam="2">  1       -2 0.24056731E-01 0.91735685E+03</pdfrwt>
<totfact> 0.23945956E+02</totfact>
</mgrwt>
</event>
<event>
 4    1  0.1806019E-005  0.7187827E+03  0.7818608E-02  0.9685640E-01
          2   -1    0    0  501    0  0.00000000000E+00  0.00000000000E+00  0.78392902098E+03  0.78392902098E+03  0.25500000000E-02 0.  1.
         -2   -1    0    0    0  501 -0.00000000000E+00 -0.00000000000E+00 -0.16476253925E+03  0.16476253927E+03  0.25500000000E-02 0. -1.
   -5000001    1    1    2    0    0  0.96077638391E+01 -0.24896456839E+03  0.22019780918E+03  0.41600810161E+03  0.25000000000E+03 0.  0.
    5000001    1    1    2    0    0 -0.96077638391E+01  0.24896456839E+03  0.39896867255E+03  0.53268345864E+03  0.25000000000E+03 0.  0.
<mgrwt>
<rscale>  0 0.71878268E+03</rscale>
<asrwt>0</asrwt>
<pdfrwt beam="1">  1        2 0.12060446E+00 0.71878268E+03</pdfrwt>
<pdfrwt beam="2">  1       -2 0.25348083E-01 0.71878268E+03</pdfrwt>
<totfact> 0.49752077E+02</totfact>
</mgrwt>
</event>
<event>
 4    1  0.1806019E-005  0.9248849E+03  0.7818608E-02  0.9394998E-01
         -2   -1    0    0    0  501 -0.00000000000E+00  0.00000000000E+00  0.30953515721E+03  0.30953515722E+03  0.25500000000E-02 0. -1.
          2   -1    0    0  501    0  0.00000000000E+00 -0.00000000000E+00 -0.69088440513E+03  0.69088440513E+03  0.25500000000E-02 0.  1.
   -5000001    1    1    2    0    0 -0.37013506477E+02 -0.36586112215E+03 -0.53304105642E+02  0.44784560737E+03  0.25000000000E+03 0.  0.
    5000001    1    1    2    0    0  0.37013506477E+02  0.36586112215E+03 -0.32804514227E+03  0.55257395499E+03  0.25000000000E+03 0.  0.
<mgrwt>
<rscale>  0 0.92488489E+03</rscale>
<asrwt>0</asrwt>
<pdfrwt beam="1">  1        2 0.10628991E+00 0.92488489E+03</pdfrwt>
<pdfrwt beam="2">  1       -2 0.47620794E-01 0.92488489E+03</pdfrwt>
<totfact> 0.17442394E+02</totfact>
</mgrwt>
</event>
<event>
 4    1  0.1806019E-005  0.6391514E+03  0.7818608E-02  0.9827351E-01
         -2   -1    0    0    0  501 -0.00000000000E+00  0.00000000000E+00  0.10468104122E+03  0.10468104125E+03  0.25500000000E-02 0. -1.
          2   -1    0    0  501    0  0.00000000000E+00 -0.00000000000E+00 -0.97561733535E+03  0.97561733536E+03  0.25500000000E-02 0.  1.
   -5000001    1    1    2    0    0  0.13007275915E+03  0.13628354441E+03 -0.32676125794E+03  0.45250972016E+03  0.25000000000E+03 0.  0.
    5000001    1    1    2    0    0 -0.13007275915E+03 -0.13628354441E+03 -0.54417503619E+03  0.62778865644E+03  0.25000000000E+03 0.  0.
<mgrwt>
<rscale>  0 0.63915143E+03</rscale>
<asrwt>0</asrwt>
<pdfrwt beam="1">  1        2 0.15009497E+00 0.63915143E+03</pdfrwt>
<pdfrwt beam="2">  1       -2 0.16104776E-01 0.63915143E+03</pdfrwt>
<totfact> 0.81704864E+02</totfact>
</mgrwt>
</event>
<event>
 4    1  0.1806019E-005  0.6522052E+03  0.7818608E-02  0.9802650E-01
          2   -1    0    0  501    0  0.00000000000E+00  0.00000000000E+00  0.84120934221E+03  0.84120934221E+03  0.25500000000E-02 0.  1.
         -2   -1    0    0    0  501 -0.00000000000E+00 -0.00000000000E+00 -0.12641669148E+03  0.12641669151E+03  0.25500000000E-02 0. -1.
   -5000001    1    1    2    0    0 -0.15879618018E+03 -0.13485879963E+03  0.38850923640E+03  0.50679635895E+03  0.25000000000E+03 0.  0.
    5000001    1    1    2    0    0  0.15879618018E+03  0.13485879963E+03  0.32628341432E+03  0.46082967476E+03  0.25000000000E+03 0.  0.
<mgrwt>
<rscale>  0 0.65220519E+03</rscale>
<asrwt>0</asrwt>
<pdfrwt beam="1">  1        2 0.12941682E+00 0.65220519E+03</pdfrwt>
<pdfrwt beam="2">  1       -2 0.19448722E-01 0.65220519E+03</pdfrwt>
<totfact> 0.72590063E+02</totfact>
</mgrwt>
</event>
<event>
 4    1  0.1806019E-005  0.1130839E+04  0.7818608E-02  0.9175645E-01
         -2   -1    0    0    0  501 -0.00000000000E+00  0.00000000000E+00  0.96257963267E+03  0.96257963268E+03  0.25500000000E-02 0. -1.
          2   -1    0    0  501    0  0.00000000000E+00 -0.00000000000E+00 -0.33212753776E+03  0.33212753777E+03  0.25500000000E-02 0.  1.
   -5000001    1    1    2    0    0  0.30044791190E+03 -0.11377268957E+03 -0.13404811440E+03  0.42858146207E+03  0.25000000000E+03 0.  0.
    5000001    1    1    2    0    0 -0.30044791190E+03  0.11377268957E+03  0.76450020931E+03  0.86612570837E+03  0.25000000000E+03 0.  0.
<mgrwt>
<rscale>  0 0.11308390E+04</rscale>
<asrwt>0</asrwt>
<pdfrwt beam="1">  1        2 0.51096545E-01 0.11308390E+04</pdfrwt>
<pdfrwt beam="2">  1       -2 0.14808917E+00 0.11308390E+04</pdfrwt>
<totfact> 0.30071247E+01</totfact>
</mgrwt>
</event>
<event>
 4    1  0.1806019E-005  0.7689962E+03  0.7818608E-02  0.9606011E-01
          2   -1    0    0  501    0  0.00000000000E+00  0.00000000000E+00  0.37064567539E+03  0.37064567540E+03  0.25500000000E-02 0.  1.
         -2   -1    0    0    0  501 -0.00000000000E+00 -0.00000000000E+00 -0.39886829120E+03  0.39886829121E+03  0.25500000000E-02 0. -1.
   -5000001    1    1    2    0    0  0.25668591425E+03 -0.27508893068E+02  0.12270824312E+03  0.37973900340E+03  0.25000000000E+03 0.  0.
    5000001    1    1    2    0    0 -0.25668591425E+03  0.27508893068E+02 -0.15093085892E+03  0.38977496321E+03  0.25000000000E+03 0.  0.
<mgrwt>
<rscale>  0 0.76899625E+03</rscale>
<asrwt>0</asrwt>
<pdfrwt beam="1">  1        2 0.57022412E-01 0.76899625E+03</pdfrwt>
<pdfrwt beam="2">  1       -2 0.61364352E-01 0.76899625E+03</pdfrwt>
<totfact> 0.21578332E+02</totfact>
</mgrwt>
</event>
<event>
 4    1  0.1806019E-005  0.6863950E+03  0.7818608E-02  0.9740786E-01
          2   -1    0    0  501    0  0.00000000000E+00  0.00000000000E+00  0.51564571431E+03  0.51564571431E+03  0.25500000000E-02 0.  1.
         -2   -1    0    0    0  501 -0.00000000000E+00 -0.00000000000E+00 -0.22842140046E+03  0.22842140047E+03  0.25500000000E-02 0. -1.
   -5000001    1    1    2    0    0  0.22277802500E+03 -0.74440112783E+02  0.15514247021E+03  0.37648448159E+03  0.25000000000E+03 0.  0.
    5000001    1    1    2    0    0 -0.22277802500E+03  0.74440112783E+02  0.13208184364E+03  0.36758263320E+03  0.25000000000E+03 0.  0.
<mgrwt>
<rscale>  0 0.68639498E+03</rscale>
<asrwt>0</asrwt>
<pdfrwt beam="1">  1        2 0.79330110E-01 0.68639498E+03</pdfrwt>
<pdfrwt beam="2">  1       -2 0.35141754E-01 0.68639498E+03</pdfrwt>
<totfact> 0.45479596E+02</totfact>
</mgrwt>
</event>
<event>
 4    1  0.1806019E-005  0.9756871E+03  0.7818608E-02  0.9335620E-01
          2   -1    0    0  501    0  0.00000000000E+00  0.00000000000E+00  0.28953514304E+03  0.28953514306E+03  0.25500000000E-02 0.  1.
         -2   -1    0    0    0  501 -0.00000000000E+00 -0.00000000000E+00 -0.82197734116E+03  0.82197734116E+03  0.25500000000E-02 0. -1.
   -5000001    1    1    2    0    0 -0.34981685879E+03  0.68373610167E+02 -0.51696259365E+03  0.67586767085E+03  0.25000000000E+03 0.  0.
    5000001    1    1    2    0    0  0.34981685879E+03 -0.68373610167E+02 -0.15479604464E+02  0.43564481337E+03  0.25000000000E+03 0.  0.
<mgrwt>
<rscale>  0 0.97568710E+03</rscale>
<asrwt>0</asrwt>
<pdfrwt beam="1">  1        2 0.44543868E-01 0.97568710E+03</pdfrwt>
<pdfrwt beam="2">  1       -2 0.12645805E+00 0.97568710E+03</pdfrwt>
<totfact> 0.53144985E+01</totfact>
</mgrwt>
</event>
<event>
 4    1  0.1806019E-005  0.7282330E+03  0.7818608E-02  0.9670132E-01
         -2   -1    0    0    0  501 -0.00000000000E+00  0.00000000000E+00  0.19834989079E+03  0.19834989081E+03  0.25500000000E-02 0. -1.
          2   -1    0    0  501    0  0.00000000000E+00 -0.00000000000E+00 -0.66841898033E+03  0.66841898034E+03  0.25500000000E-02 0.  1.
   -5000001    1    1    2    0    0 -0.39317933493E+02 -0.19637224307E+03 -0.44109617656E+03  0.54513649183E+03  0.25000000000E+03 0.  0.
    5000001    1    1    2    0    0  0.39317933493E+02  0.19637224307E+03 -0.28972912975E+02  0.32163237932E+03  0.25000000000E+03 0.  0.
<mgrwt>
<rscale>  0 0.72823302E+03</rscale>
<asrwt>0</asrwt>
<pdfrwt beam="1">  1        2 0.10283369E+00 0.72823302E+03</pdfrwt>
<pdfrwt beam="2">  1       -2 0.30515368E-01 0.72823302E+03</pdfrwt>
<totfact> 0.43384877E+02</totfact>
</mgrwt>
</event>
<event>
 4    1  0.1806019E-005  0.1245065E+04  0.7818608E-02  0.9074301E-01
         -2   -1    0    0    0  501 -0.00000000000E+00  0.00000000000E+00  0.28051203527E+03  0.28051203528E+03  0.25500000000E-02 0. -1.
          2   -1    0    0  501    0  0.00000000000E+00 -0.00000000000E+00 -0.13815688720E+04  0.13815688720E+04  0.25500000000E-02 0.  1.
   -5000001    1    1    2    0    0 -0.32970969806E+02 -0.49345317342E+03 -0.17185936578E+03  0.58018855626E+03  0.25000000000E+03 0.  0.
    5000001    1    1    2    0    0  0.32970969806E+02  0.49345317342E+03 -0.92919747099E+03  0.10818923511E+04  0.25000000000E+03 0.  0.
<mgrwt>
<rscale>  0 0.12450650E+04</rscale>
<asrwt>0</asrwt>
<pdfrwt beam="1">  1        2 0.21254905E+00 0.12450650E+04</pdfrwt>
<pdfrwt beam="2">  1       -2 0.43155699E-01 0.12450650E+04</pdfrwt>
<totfact> 0.74229619E+01</totfact>
</mgrwt>
</event>
<event>
 4    1  0.1806019E-005  0.1381214E+04  0.7818608E-02  0.8967530E-01
         -2   -1    0    0    0  501 -0.00000000000E+00  0.00000000000E+00  0.20592317166E+03  0.20592317167E+03  0.25500000000E-02 0. -1.
          2   -1    0    0  501    0  0.00000000000E+00 -0.00000000000E+00 -0.23160977520E+04  0.23160977520E+04  0.25500000000E-02 0.  1.
   -5000001    1    1    2    0    0  0.13658702297E+03  0.62733682008E+03 -0.96884750444E+03  0.11888536443E+04  0.25000000000E+03 0.  0.
    5000001    1    1    2    0    0 -0.13658702297E+03 -0.62733682008E+03 -0.11413270759E+04  0.13331672794E+04  0.25000000000E+03 0.  0.
<mgrwt>
<rscale>  0 0.13812142E+04</rscale>
<asrwt>0</asrwt>
<pdfrwt beam="1">  1        2 0.35632271E+00 0.13812142E+04</pdfrwt>
<pdfrwt beam="2">  1       -2 0.31680490E-01 0.13812142E+04</pdfrwt>
<totfact> 0.40148582E+01</totfact>
</mgrwt>
</event>
<event>
 4    1  0.1806019E-005  0.5410565E+03  0.7818608E-02  0.1003585E+00
          2   -1    0    0  501    0  0.00000000000E+00  0.00000000000E+00  0.22806355505E+04  0.22806355505E+04  0.25500000000E-02 0.  1.
         -2   -1    0    0    0  501 -0.00000000000E+00 -0.00000000000E+00 -0.32089969018E+02  0.32089969120E+02  0.25500000000E-02 0. -1.
   -5000001    1    1    2    0    0  0.61775983109E+02 -0.63669565136E+01  0.14774974106E+04  0.14997851208E+04  0.25000000000E+03 0.  0.
    5000001    1    1    2    0    0 -0.61775983109E+02  0.63669565136E+01  0.77104817087E+03  0.81294039882E+03  0.25000000000E+03 0.  0.
<mgrwt>
<rscale>  0 0.54105646E+03</rscale>
<asrwt>0</asrwt>
<pdfrwt beam="1">  1        2 0.35086712E+00 0.54105646E+03</pdfrwt>
<pdfrwt beam="2">  1       -2 0.49369167E-02 0.54105646E+03</pdfrwt>
<totfact> 0.10245096E+03</totfact>
</mgrwt>
</event>
<event>
 4    1  0.1806019E-005  0.7356987E+03  0.7818608E-02  0.9658058E-01
          2   -1    0    0  501    0  0.00000000000E+00  0.00000000000E+00  0.36320335874E+04  0.36320335874E+04  0.25500000000E-02 0.  1.
         -2   -1    0    0    0  501 -0.00000000000E+00 -0.00000000000E+00 -0.37255481777E+02  0.37255481864E+02  0.25500000000E-02 0. -1.
   -5000001    1    1    2    0    0 -0.99254172546E+02 -0.18334723825E+03  0.26517730741E+04  0.26716788798E+04  0.25000000000E+03 0.  0.
    5000001    1    1    2    0    0  0.99254172546E+02  0.18334723825E+03  0.94300503157E+03  0.99761018946E+03  0.25000000000E+03 0.  0.
<mgrwt>
<rscale>  0 0.73569875E+03</rscale>
<asrwt>0</asrwt>
<pdfrwt beam="1">  1        2 0.55877453E+00 0.73569875E+03</pdfrwt>
<pdfrwt beam="2">  1       -2 0.57316113E-02 0.73569875E+03</pdfrwt>
<totfact> 0.11844169E+02</totfact>
</mgrwt>
</event>
<event>
 4    1  0.1806019E-005  0.6093633E+03  0.7818608E-02  0.9886168E-01
          2   -1    0    0  501    0  0.00000000000E+00  0.00000000000E+00  0.74846618662E+03  0.74846618663E+03  0.25500000000E-02 0.  1.
         -2   -1    0    0    0  501 -0.00000000000E+00 -0.00000000000E+00 -0.12402820616E+03  0.12402820618E+03  0.25500000000E-02 0. -1.
   -5000001    1    1    2    0    0  0.16831876745E+03 -0.25923558256E+02  0.26004752213E+03  0.39890845080E+03  0.25000000000E+03 0.  0.
    5000001    1    1    2    0    0 -0.16831876745E+03  0.25923558256E+02  0.36439045833E+03  0.47358594201E+03  0.25000000000E+03 0.  0.
<mgrwt>
<rscale>  0 0.60936333E+03</rscale>
<asrwt>0</asrwt>
<pdfrwt beam="1">  1        2 0.11514865E+00 0.60936333E+03</pdfrwt>
<pdfrwt beam="2">  1       -2 0.19081262E-01 0.60936333E+03</pdfrwt>
<totfact> 0.87575247E+02</totfact>
</mgrwt>
</event>
<event>
 4    1  0.1806019E-005  0.9213016E+03  0.7818608E-02  0.9399338E-01
          2   -1    0    0  501    0  0.00000000000E+00  0.00000000000E+00  0.13118979298E+04  0.13118979298E+04  0.25500000000E-02 0.  1.
         -2   -1    0    0    0  501 -0.00000000000E+00 -0.00000000000E+00 -0.16174976402E+03  0.16174976404E+03  0.25500000000E-02 0. -1.
   -5000001    1    1    2    0    0 -0.31973788346E+03 -0.11614409987E+02  0.92306597154E+03  0.10084235204E+04  0.25000000000E+03 0.  0.
    5000001    1    1    2    0    0  0.31973788346E+03  0.11614409987E+02  0.22708219423E+03  0.46522417346E+03  0.25000000000E+03 0.  0.
<mgrwt>
<rscale>  0 0.92130165E+03</rscale>
<asrwt>0</asrwt>
<pdfrwt beam="1">  1        2 0.20183045E+00 0.92130165E+03</pdfrwt>
<pdfrwt beam="2">  1       -2 0.24884579E-01 0.92130165E+03</pdfrwt>
<totfact> 0.23549509E+02</totfact>
</mgrwt>
</event>
<event>
 4    1  0.1806019E-005  0.7415463E+03  0.7818608E-02  0.9648707E-01
         -2   -1    0    0    0  501 -0.00000000000E+00  0.00000000000E+00  0.10910245436E+04  0.10910245436E+04  0.25500000000E-02 0. -1.
          2   -1    0    0  501    0  0.00000000000E+00 -0.00000000000E+00 -0.12600333295E+03  0.12600333297E+03  0.25500000000E-02 0.  1.
   -5000001    1    1    2    0    0  0.24338657537E+03  0.93924818711E+02  0.61897572834E+03  0.71672159792E+03  0.25000000000E+03 0.  0.
    5000001    1    1    2    0    0 -0.24338657537E+03 -0.93924818711E+02  0.34604548232E+03  0.50030627867E+03  0.25000000000E+03 0.  0.
<mgrwt>
<rscale>  0 0.74154630E+03</rscale>
<asrwt>0</asrwt>
<pdfrwt beam="1">  1        2 0.19385130E-01 0.74154630E+03</pdfrwt>
<pdfrwt beam="2">  1       -2 0.16784992E+00 0.74154630E+03</pdfrwt>
<totfact> 0.65948457E+01</totfact>
</mgrwt>
</event>
<event>
 4    1  0.1806019E-005  0.6841328E+03  0.7818608E-02  0.9744759E-01
          2   -1    0    0  501    0  0.00000000000E+00  0.00000000000E+00  0.28728293714E+03  0.28728293716E+03  0.25500000000E-02 0.  1.
         -2   -1    0    0    0  501 -0.00000000000E+00 -0.00000000000E+00 -0.40729685133E+03  0.40729685134E+03  0.25500000000E-02 0. -1.
   -5000001    1    1    2    0    0 -0.99050916554E+02  0.16455153503E+03  0.74764757492E+02  0.32400318010E+03  0.25000000000E+03 0.  0.
    5000001    1    1    2    0    0  0.99050916554E+02 -0.16455153503E+03 -0.19477867168E+03  0.37057660840E+03  0.25000000000E+03 0.  0.
<mgrwt>
<rscale>  0 0.68413284E+03</rscale>
<asrwt>0</asrwt>
<pdfrwt beam="1">  1        2 0.44197375E-01 0.68413284E+03</pdfrwt>
<pdfrwt beam="2">  1       -2 0.62661054E-01 0.68413284E+03</pdfrwt>
<totfact> 0.27482417E+02</totfact>
</mgrwt>
</event>
<event>
 4    1  0.1806019E-005  0.8880625E+03  0.7818608E-02  0.9440628E-01
         -2   -1    0    0    0  501 -0.00000000000E+00  0.00000000000E+00  0.84752703797E+02  0.84752703835E+02  0.25500000000E-02 0. -1.
          2   -1    0    0  501    0  0.00000000000E+00 -0.00000000000E+00 -0.23263419757E+04  0.23263419757E+04  0.25500000000E-02 0.  1.
   -5000001    1    1    2    0    0 -0.55039018488E+02 -0.35956766095E+03 -0.98930380432E+03  0.10833006109E+04  0.25000000000E+03 0.  0.
    5000001    1    1    2    0    0  0.55039018488E+02  0.35956766095E+03 -0.12522854675E+04  0.13277940686E+04  0.25000000000E+03 0.  0.
<mgrwt>
<rscale>  0 0.88806255E+03</rscale>
<asrwt>0</asrwt>
<pdfrwt beam="1">  1        2 0.35789872E+00 0.88806255E+03</pdfrwt>
<pdfrwt beam="2">  1       -2 0.13038879E-01 0.88806255E+03</pdfrwt>
<totfact> 0.19805460E+02</totfact>
</mgrwt>
</event>
<event>
 4    1  0.1806019E-005  0.7880938E+03  0.7818608E-02  0.9577413E-01
          2   -1    0    0  501    0  0.00000000000E+00  0.00000000000E+00  0.17765185799E+04  0.17765185799E+04  0.25500000000E-02 0.  1.
         -2   -1    0    0    0  501 -0.00000000000E+00 -0.00000000000E+00 -0.87402936134E+02  0.87402936172E+02  0.25500000000E-02 0. -1.
   -5000001    1    1    2    0    0 -0.13429773457E+02 -0.29886748151E+03  0.97982031131E+03  0.10545378005E+04  0.25000000000E+03 0.  0.
    5000001    1    1    2    0    0  0.13429773457E+02  0.29886748151E+03  0.70929533246E+03  0.80938371554E+03  0.25000000000E+03 0.  0.
<mgrwt>
<rscale>  0 0.78809375E+03</rscale>
<asrwt>0</asrwt>
<pdfrwt beam="1">  1        2 0.27331053E+00 0.78809375E+03</pdfrwt>
<pdfrwt beam="2">  1       -2 0.13446607E-01 0.78809375E+03</pdfrwt>
<totfact> 0.38031944E+02</totfact>
</mgrwt>
</event>
<event>
 4    1  0.1806019E-005  0.7082901E+03  0.7818608E-02  0.9703159E-01
         -2   -1    0    0    0  501 -0.00000000000E+00  0.00000000000E+00  0.55937271111E+02  0.55937271170E+02  0.25500000000E-02 0. -1.
          2   -1    0    0  501    0  0.00000000000E+00 -0.00000000000E+00 -0.22421316861E+04  0.22421316861E+04  0.25500000000E-02 0.  1.
   -5000001    1    1    2    0    0 -0.17350621952E+03  0.12662093357E+03 -0.15134043044E+04  0.15488801947E+04  0.25000000000E+03 0.  0.
    5000001    1    1    2    0    0  0.17350621952E+03 -0.12662093357E+03 -0.67279011065E+03  0.74918876260E+03  0.25000000000E+03 0.  0.
<mgrwt>
<rscale>  0 0.70829013E+03</rscale>
<asrwt>0</asrwt>
<pdfrwt beam="1">  1        2 0.34494327E+00 0.70829013E+03</pdfrwt>
<pdfrwt beam="2">  1       -2 0.86057358E-02 0.70829013E+03</pdfrwt>
<totfact> 0.44225364E+02</totfact>
</mgrwt>
</event>
<event>
 4    1  0.1806019E-005  0.6490235E+03  0.7818608E-02  0.9808613E-01
         -2   -1    0    0    0  501 -0.00000000000E+00  0.00000000000E+00  0.44389539708E+03  0.44389539708E+03  0.25500000000E-02 0. -1.
          2   -1    0    0  501    0  0.00000000000E+00 -0.00000000000E+00 -0.23723576454E+03  0.23723576456E+03  0.25500000000E-02 0.  1.
   -5000001    1    1    2    0    0 -0.32926185410E+01  0.20444737282E+03  0.70170951603E+02  0.33050496523E+03  0.25000000000E+03 0.  0.
    5000001    1    1    2    0    0  0.32926185410E+01 -0.20444737282E+03  0.13648868093E+03  0.35062619641E+03  0.25000000000E+03 0.  0.
<mgrwt>
<rscale>  0 0.64902346E+03</rscale>
<asrwt>0</asrwt>
<pdfrwt beam="1">  1        2 0.36497810E-01 0.64902346E+03</pdfrwt>
<pdfrwt beam="2">  1       -2 0.68291599E-01 0.64902346E+03</pdfrwt>
<totfact> 0.28285113E+02</totfact>
</mgrwt>
</event>
<event>
 4    1  0.1806019E-005  0.1015245E+04  0.7818608E-02  0.9291981E-01
         -2   -1    0    0    0  501 -0.00000000000E+00  0.00000000000E+00  0.14533012449E+03  0.14533012451E+03  0.25500000000E-02 0. -1.
          2   -1    0    0  501    0  0.00000000000E+00 -0.00000000000E+00 -0.17730699339E+04  0.17730699339E+04  0.25500000000E-02 0.  1.
   -5000001    1    1    2    0    0  0.26601973644E+03  0.11484630272E+03 -0.18368460246E+03  0.42449523743E+03  0.25000000000E+03 0.  0.
    5000001    1    1    2    0    0 -0.26601973644E+03 -0.11484630272E+03 -0.14440552069E+04  0.14939048210E+04  0.25000000000E+03 0.  0.
<mgrwt>
<rscale>  0 0.10152447E+04</rscale>
<asrwt>0</asrwt>
<pdfrwt beam="1">  1        2 0.27277997E+00 0.10152447E+04</pdfrwt>
<pdfrwt beam="2">  1       -2 0.22358482E-01 0.10152447E+04</pdfrwt>
<totfact> 0.15643958E+02</totfact>
</mgrwt>
</event>
<event>
 4    1  0.1806019E-005  0.9905564E+03  0.7818608E-02  0.9318963E-01
         -2   -1    0    0    0  501 -0.00000000000E+00  0.00000000000E+00  0.12412004251E+03  0.12412004254E+03  0.25500000000E-02 0. -1.
          2   -1    0    0  501    0  0.00000000000E+00 -0.00000000000E+00 -0.19763166987E+04  0.19763166987E+04  0.25500000000E-02 0.  1.
   -5000001    1    1    2    0    0 -0.13973934051E+03  0.20996230296E+03 -0.19403450444E+03  0.40467349909E+03  0.25000000000E+03 0.  0.
    5000001    1    1    2    0    0  0.13973934051E+03 -0.20996230296E+03 -0.16581621518E+04  0.16957632422E+04  0.25000000000E+03 0.  0.
<mgrwt>
<rscale>  0 0.99055643E+03</rscale>
<asrwt>0</asrwt>
<pdfrwt beam="1">  1        2 0.30404870E+00 0.99055643E+03</pdfrwt>
<pdfrwt beam="2">  1       -2 0.19095393E-01 0.99055643E+03</pdfrwt>
<totfact> 0.16004748E+02</totfact>
</mgrwt>
</event>
<event>
 4    1  0.1806019E-005  0.7523921E+03  0.7818608E-02  0.9631605E-01
         -2   -1    0    0    0  501 -0.00000000000E+00  0.00000000000E+00  0.71513062866E+02  0.71513062911E+02  0.25500000000E-02 0. -1.
          2   -1    0    0  501    0  0.00000000000E+00 -0.00000000000E+00 -0.19789875643E+04  0.19789875643E+04  0.25500000000E-02 0.  1.
   -5000001    1    1    2    0    0 -0.24483556355E+03  0.12100663729E+03 -0.11352600453E+04  0.11941115651E+04  0.25000000000E+03 0.  0.
    5000001    1    1    2    0    0  0.24483556355E+03 -0.12100663729E+03 -0.77221445615E+03  0.85638906213E+03  0.25000000000E+03 0.  0.
<mgrwt>
<rscale>  0 0.75239208E+03</rscale>
<asrwt>0</asrwt>
<pdfrwt beam="1">  1        2 0.30445958E+00 0.75239208E+03</pdfrwt>
<pdfrwt beam="2">  1       -2 0.11002011E-01 0.75239208E+03</pdfrwt>
<totfact> 0.41224260E+02</totfact>
</mgrwt>
</event>
<event>
 4    1  0.1806019E-005  0.1361732E+04  0.7818608E-02  0.8981994E-01
         -2   -1    0    0    0  501 -0.00000000000E+00  0.00000000000E+00  0.25477678970E+03  0.25477678971E+03  0.25500000000E-02 0. -1.
          2   -1    0    0  501    0  0.00000000000E+00 -0.00000000000E+00 -0.18195489160E+04  0.18195489160E+04  0.25500000000E-02 0.  1.
   -5000001    1    1    2    0    0 -0.55025547442E+03 -0.13009525989E+03 -0.34785059261E+03  0.70937007165E+03  0.25000000000E+03 0.  0.
    5000001    1    1    2    0    0  0.55025547442E+03  0.13009525989E+03 -0.12169215337E+04  0.13649556340E+04  0.25000000000E+03 0.  0.
<mgrwt>
<rscale>  0 0.13617325E+04</rscale>
<asrwt>0</asrwt>
<pdfrwt beam="1">  1        2 0.27993059E+00 0.13617325E+04</pdfrwt>
<pdfrwt beam="2">  1       -2 0.39196430E-01 0.13617325E+04</pdfrwt>
<totfact> 0.50550652E+01</totfact>
</mgrwt>
</event>
<event>
 4    1  0.1806019E-005  0.6195607E+03  0.7818608E-02  0.9865635E-01
          2   -1    0    0  501    0  0.00000000000E+00  0.00000000000E+00  0.28954741589E+04  0.28954741589E+04  0.25500000000E-02 0.  1.
         -2   -1    0    0    0  501 -0.00000000000E+00 -0.00000000000E+00 -0.33142713840E+02  0.33142713938E+02  0.25500000000E-02 0. -1.
   -5000001    1    1    2    0    0  0.13740202624E+03 -0.28934211182E+02  0.87693775781E+03  0.92262469968E+03  0.25000000000E+03 0.  0.
    5000001    1    1    2    0    0 -0.13740202624E+03  0.28934211182E+02  0.19853936872E+04  0.20059921731E+04  0.25000000000E+03 0.  0.
<mgrwt>
<rscale>  0 0.61956072E+03</rscale>
<asrwt>0</asrwt>
<pdfrwt beam="1">  1        2 0.44545776E+00 0.61956072E+03</pdfrwt>
<pdfrwt beam="2">  1       -2 0.50988768E-02 0.61956072E+03</pdfrwt>
<totfact> 0.43157801E+02</totfact>
</mgrwt>
</event>
<event>
 4    1  0.1806019E-005  0.9057798E+03  0.7818608E-02  0.9418385E-01
          2   -1    0    0  501    0  0.00000000000E+00  0.00000000000E+00  0.38054780500E+03  0.38054780500E+03  0.25500000000E-02 0.  1.
         -2   -1    0    0    0  501 -0.00000000000E+00 -0.00000000000E+00 -0.53898425258E+03  0.53898425259E+03  0.25500000000E-02 0. -1.
   -5000001    1    1    2    0    0  0.37539311096E+03  0.21828481307E+02 -0.11457230239E+03  0.46585757783E+03  0.25000000000E+03 0.  0.
    5000001    1    1    2    0    0 -0.37539311096E+03 -0.21828481307E+02 -0.43864145195E+02  0.45367447976E+03  0.25000000000E+03 0.  0.
<mgrwt>
<rscale>  0 0.90577983E+03</rscale>
<asrwt>0</asrwt>
<pdfrwt beam="1">  1        2 0.58545816E-01 0.90577983E+03</pdfrwt>
<pdfrwt beam="2">  1       -2 0.82920654E-01 0.90577983E+03</pdfrwt>
<totfact> 0.10761344E+02</totfact>
</mgrwt>
</event>
<event>
 4    1  0.1806019E-005  0.9137705E+03  0.7818608E-02  0.9408529E-01
          2   -1    0    0  501    0  0.00000000000E+00  0.00000000000E+00  0.67983419420E+03  0.67983419420E+03  0.25500000000E-02 0.  1.
         -2   -1    0    0    0  501 -0.00000000000E+00 -0.00000000000E+00 -0.30705155254E+03  0.30705155255E+03  0.25500000000E-02 0. -1.
   -5000001    1    1    2    0    0 -0.84211528446E+02  0.18889222997E+03 -0.16101823302E+03  0.36221364887E+03  0.25000000000E+03 0.  0.
    5000001    1    1    2    0    0  0.84211528446E+02 -0.18889222997E+03  0.53380087467E+03  0.62467209788E+03  0.25000000000E+03 0.  0.
<mgrwt>
<rscale>  0 0.91377053E+03</rscale>
<asrwt>0</asrwt>
<pdfrwt beam="1">  1        2 0.10458988E+00 0.91377053E+03</pdfrwt>
<pdfrwt beam="2">  1       -2 0.47238700E-01 0.91377053E+03</pdfrwt>
<totfact> 0.18101397E+02</totfact>
</mgrwt>
</event>
<event>
 4    1  0.1806019E-005  0.6555869E+03  0.7818608E-02  0.9796352E-01
          2   -1    0    0  501    0  0.00000000000E+00  0.00000000000E+00  0.15497536344E+04  0.15497536344E+04  0.25500000000E-02 0.  1.
         -2   -1    0    0    0  501 -0.00000000000E+00 -0.00000000000E+00 -0.69332670433E+02  0.69332670480E+02  0.25500000000E-02 0. -1.
   -5000001    1    1    2    0    0  0.47862388939E+02  0.19553278144E+03  0.57593199390E+03  0.65933416300E+03  0.25000000000E+03 0.  0.
    5000001    1    1    2    0    0 -0.47862388939E+02 -0.19553278144E+03  0.90448897011E+03  0.95975214193E+03  0.25000000000E+03 0.  0.
<mgrwt>
<rscale>  0 0.65558694E+03</rscale>
<asrwt>0</asrwt>
<pdfrwt beam="1">  1        2 0.23842365E+00 0.65558694E+03</pdfrwt>
<pdfrwt beam="2">  1       -2 0.10666564E-01 0.65558694E+03</pdfrwt>
<totfact> 0.74840027E+02</totfact>
</mgrwt>
</event>
<event>
 4    1  0.1806019E-005  0.1055993E+04  0.7818608E-02  0.9249179E-01
         -2   -1    0    0    0  501 -0.00000000000E+00  0.00000000000E+00  0.12998234600E+03  0.12998234602E+03  0.25500000000E-02 0. -1.
          2   -1    0    0  501    0  0.00000000000E+00 -0.00000000000E+00 -0.21447541546E+04  0.21447541546E+04  0.25500000000E-02 0.  1.
   -5000001    1    1    2    0    0 -0.25878857618E+03  0.38215196319E+03 -0.88423257367E+03  0.10282893048E+04  0.25000000000E+03 0.  0.
    5000001    1    1    2    0    0  0.25878857618E+03 -0.38215196319E+03 -0.11305392349E+04  0.12464471958E+04  0.25000000000E+03 0.  0.
<mgrwt>
<rscale>  0 0.10559928E+04</rscale>
<asrwt>0</asrwt>
<pdfrwt beam="1">  1        2 0.32996215E+00 0.10559928E+04</pdfrwt>
<pdfrwt beam="2">  1       -2 0.19997286E-01 0.10559928E+04</pdfrwt>
<totfact> 0.11856495E+02</totfact>
</mgrwt>
</event>
<event>
 4    1  0.1806019E-005  0.7258287E+03  0.7818608E-02  0.9674053E-01
         -2   -1    0    0    0  501 -0.00000000000E+00  0.00000000000E+00  0.41508265050E+03  0.41508265051E+03  0.25500000000E-02 0. -1.
          2   -1    0    0  501    0  0.00000000000E+00 -0.00000000000E+00 -0.31730265868E+03  0.31730265869E+03  0.25500000000E-02 0.  1.
   -5000001    1    1    2    0    0  0.16007698796E+03 -0.95769022652E+02 -0.13828630183E+03  0.34120294408E+03  0.25000000000E+03 0.  0.
    5000001    1    1    2    0    0 -0.16007698796E+03  0.95769022652E+02  0.23606629366E+03  0.39118236511E+03  0.25000000000E+03 0.  0.
<mgrwt>
<rscale>  0 0.72582871E+03</rscale>
<asrwt>0</asrwt>
<pdfrwt beam="1">  1        2 0.48815794E-01 0.72582871E+03</pdfrwt>
<pdfrwt beam="2">  1       -2 0.63858869E-01 0.72582871E+03</pdfrwt>
<totfact> 0.23608959E+02</totfact>
</mgrwt>
</event>
<event>
 4    1  0.1806019E-005  0.6588235E+03  0.7818608E-02  0.9790362E-01
          2   -1    0    0  501    0  0.00000000000E+00  0.00000000000E+00  0.10740584962E+04  0.10740584962E+04  0.25500000000E-02 0.  1.
         -2   -1    0    0    0  501 -0.00000000000E+00 -0.00000000000E+00 -0.10102996246E+03  0.10102996249E+03  0.25500000000E-02 0. -1.
   -5000001    1    1    2    0    0 -0.18478718311E+03  0.10665484994E+03  0.52601763043E+03  0.62025487308E+03  0.25000000000E+03 0.  0.
    5000001    1    1    2    0    0  0.18478718311E+03 -0.10665484994E+03  0.44701090332E+03  0.55483358563E+03  0.25000000000E+03 0.  0.
<mgrwt>
<rscale>  0 0.65882347E+03</rscale>
<asrwt>0</asrwt>
<pdfrwt beam="1">  1        2 0.16523976E+00 0.65882347E+03</pdfrwt>
<pdfrwt beam="2">  1       -2 0.15543072E-01 0.65882347E+03</pdfrwt>
<totfact> 0.75213865E+02</totfact>
</mgrwt>
</event>
<event>
 4    1  0.1806019E-005  0.6739845E+03  0.7818608E-02  0.9762786E-01
          2   -1    0    0  501    0  0.00000000000E+00  0.00000000000E+00  0.26467454825E+03  0.26467454826E+03  0.25500000000E-02 0.  1.
         -2   -1    0    0    0  501 -0.00000000000E+00 -0.00000000000E+00 -0.42906952882E+03  0.42906952882E+03  0.25500000000E-02 0. -1.
   -5000001    1    1    2    0    0 -0.10510562993E+03  0.80166243315E+02 -0.27084632763E+03  0.39157573112E+03  0.25000000000E+03 0.  0.
    5000001    1    1    2    0    0  0.10510562993E+03 -0.80166243315E+02  0.10645134707E+03  0.30216834596E+03  0.25000000000E+03 0.  0.
<mgrwt>
<rscale>  0 0.67398452E+03</rscale>
<asrwt>0</asrwt>
<pdfrwt beam="1">  1        2 0.40719161E-01 0.67398452E+03</pdfrwt>
<pdfrwt beam="2">  1       -2 0.66010697E-01 0.67398452E+03</pdfrwt>
<totfact> 0.26931760E+02</totfact>
</mgrwt>
</event>
<event>
 4    1  0.1806019E-005  0.8860643E+03  0.7818608E-02  0.9443171E-01
          2   -1    0    0  501    0  0.00000000000E+00  0.00000000000E+00  0.12763633584E+04  0.12763633584E+04  0.25500000000E-02 0.  1.
         -2   -1    0    0    0  501 -0.00000000000E+00 -0.00000000000E+00 -0.15377868017E+03  0.15377868019E+03  0.25500000000E-02 0. -1.
   -5000001    1    1    2    0    0  0.32001985687E+03 -0.17039294688E+03  0.63921894988E+03  0.77623922280E+03  0.25000000000E+03 0.  0.
    5000001    1    1    2    0    0 -0.32001985687E+03  0.17039294688E+03  0.48336572832E+03  0.65390281575E+03  0.25000000000E+03 0.  0.
<mgrwt>
<rscale>  0 0.88606427E+03</rscale>
<asrwt>0</asrwt>
<pdfrwt beam="1">  1        2 0.19636359E+00 0.88606427E+03</pdfrwt>
<pdfrwt beam="2">  1       -2 0.23658259E-01 0.88606427E+03</pdfrwt>
<totfact> 0.27101744E+02</totfact>
</mgrwt>
</event>
<event>
 4    1  0.1806019E-005  0.1933251E+04  0.7818608E-02  0.8638480E-01
          2   -1    0    0  501    0  0.00000000000E+00  0.00000000000E+00  0.35061502147E+04  0.35061502147E+04  0.25500000000E-02 0.  1.
         -2   -1    0    0    0  501 -0.00000000000E+00 -0.00000000000E+00 -0.26649323507E+03  0.26649323508E+03  0.25500000000E-02 0. -1.
   -5000001    1    1    2    0    0  0.35590100788E+03 -0.83196485816E+03  0.11704257947E+04  0.15004091421E+04  0.25000000000E+03 0.  0.
    5000001    1    1    2    0    0 -0.35590100788E+03  0.83196485816E+03  0.20692311849E+04  0.22722343077E+04  0.25000000000E+03 0.  0.
<mgrwt>
<rscale>  0 0.19332515E+04</rscale>
<asrwt>0</asrwt>
<pdfrwt beam="1">  1        2 0.53940769E+00 0.19332515E+04</pdfrwt>
<pdfrwt beam="2">  1       -2 0.40998962E-01 0.19332515E+04</pdfrwt>
<totfact> 0.42639740E+00</totfact>
</mgrwt>
</event>
<event>
 4    1  0.1806019E-005  0.8006080E+03  0.7818608E-02  0.9559137E-01
          2   -1    0    0  501    0  0.00000000000E+00  0.00000000000E+00  0.10746389837E+03  0.10746389840E+03  0.25500000000E-02 0.  1.
         -2   -1    0    0    0  501 -0.00000000000E+00 -0.00000000000E+00 -0.14911362200E+04  0.14911362200E+04  0.25500000000E-02 0. -1.
   -5000001    1    1    2    0    0 -0.14187845465E+03 -0.27823905165E+03 -0.71985064353E+03  0.82354806462E+03  0.25000000000E+03 0.  0.
    5000001    1    1    2    0    0  0.14187845465E+03  0.27823905165E+03 -0.66382167810E+03  0.77505205378E+03  0.25000000000E+03 0.  0.
<mgrwt>
<rscale>  0 0.80060805E+03</rscale>
<asrwt>0</asrwt>
<pdfrwt beam="1">  1        2 0.16532909E-01 0.80060805E+03</pdfrwt>
<pdfrwt beam="2">  1       -2 0.22940556E+00 0.80060805E+03</pdfrwt>
<totfact> 0.31324498E+01</totfact>
</mgrwt>
</event>
<event>
 4    1  0.1806019E-005  0.7516244E+03  0.7818608E-02  0.9632805E-01
          2   -1    0    0  501    0  0.00000000000E+00  0.00000000000E+00  0.48359020780E+03  0.48359020780E+03  0.25500000000E-02 0.  1.
         -2   -1    0    0    0  501 -0.00000000000E+00 -0.00000000000E+00 -0.29205476210E+03  0.29205476211E+03  0.25500000000E-02 0. -1.
   -5000001    1    1    2    0    0  0.17930491958E+03 -0.16114209244E+03  0.24394554169E+03  0.42441307173E+03  0.25000000000E+03 0.  0.
    5000001    1    1    2    0    0 -0.17930491958E+03  0.16114209244E+03 -0.52410096000E+02  0.35123189819E+03  0.25000000000E+03 0.  0.
<mgrwt>
<rscale>  0 0.75162444E+03</rscale>
<asrwt>0</asrwt>
<pdfrwt beam="1">  1        2 0.74398493E-01 0.75162444E+03</pdfrwt>
<pdfrwt beam="2">  1       -2 0.44931502E-01 0.75162444E+03</pdfrwt>
<totfact> 0.30306081E+02</totfact>
</mgrwt>
</event>
<event>
 4    1  0.1806019E-005  0.1214750E+04  0.7818608E-02  0.9100043E-01
         -2   -1    0    0    0  501 -0.00000000000E+00  0.00000000000E+00  0.17541304317E+03  0.17541304319E+03  0.25500000000E-02 0. -1.
          2   -1    0    0  501    0  0.00000000000E+00 -0.00000000000E+00 -0.21030610666E+04  0.21030610666E+04  0.25500000000E-02 0.  1.
   -5000001    1    1    2    0    0  0.44827853293E+03 -0.92438166522E+02 -0.15477156997E+04  0.16332245237E+04  0.25000000000E+03 0.  0.
    5000001    1    1    2    0    0 -0.44827853293E+03  0.92438166522E+02 -0.37993232368E+03  0.64524958604E+03  0.25000000000E+03 0.  0.
<mgrwt>
<rscale>  0 0.12147499E+04</rscale>
<asrwt>0</asrwt>
<pdfrwt beam="1">  1        2 0.32354784E+00 0.12147499E+04</pdfrwt>
<pdfrwt beam="2">  1       -2 0.26986624E-01 0.12147499E+04</pdfrwt>
<totfact> 0.72129336E+01</totfact>
</mgrwt>
</event>
<event>
 4    1  0.1806019E-005  0.7690212E+03  0.7818608E-02  0.9605973E-01
         -2   -1    0    0    0  501 -0.00000000000E+00  0.00000000000E+00  0.19175466254E+03  0.19175466256E+03  0.25500000000E-02 0. -1.
          2   -1    0    0  501    0  0.00000000000E+00 -0.00000000000E+00 -0.77102888675E+03  0.77102888675E+03  0.25500000000E-02 0.  1.
   -5000001    1    1    2    0    0  0.17856421675E+02  0.29151248575E+03 -0.28078416692E+03  0.47606525764E+03  0.25000000000E+03 0.  0.
    5000001    1    1    2    0    0 -0.17856421675E+02 -0.29151248575E+03 -0.29849005729E+03  0.48671829167E+03  0.25000000000E+03 0.  0.
<mgrwt>
<rscale>  0 0.76902115E+03</rscale>
<asrwt>0</asrwt>
<pdfrwt beam="1">  1        2 0.11861983E+00 0.76902115E+03</pdfrwt>
<pdfrwt beam="2">  1       -2 0.29500718E-01 0.76902115E+03</pdfrwt>
<totfact> 0.38457828E+02</totfact>
</mgrwt>
</event>
<event>
 4    1  0.1806019E-005  0.7826085E+03  0.7818608E-02  0.9585537E-01
          2   -1    0    0  501    0  0.00000000000E+00  0.00000000000E+00  0.12042609931E+04  0.12042609931E+04  0.25500000000E-02 0.  1.
         -2   -1    0    0    0  501 -0.00000000000E+00 -0.00000000000E+00 -0.12714768782E+03  0.12714768784E+03  0.25500000000E-02 0. -1.
   -5000001    1    1    2    0    0  0.29987883157E+03  0.97060158557E+01  0.58014088561E+03  0.69934609995E+03  0.25000000000E+03 0.  0.
    5000001    1    1    2    0    0 -0.29987883157E+03 -0.97060158557E+01  0.49697241965E+03  0.63206258097E+03  0.25000000000E+03 0.  0.
<mgrwt>
<rscale>  0 0.78260846E+03</rscale>
<asrwt>0</asrwt>
<pdfrwt beam="1">  1        2 0.18527093E+00 0.78260846E+03</pdfrwt>
<pdfrwt beam="2">  1       -2 0.19561182E-01 0.78260846E+03</pdfrwt>
<totfact> 0.42055851E+02</totfact>
</mgrwt>
</event>
<event>
 4    1  0.1806019E-005  0.6455177E+03  0.7818608E-02  0.9815227E-01
         -2   -1    0    0    0  501 -0.00000000000E+00  0.00000000000E+00  0.38538204290E+03  0.38538204291E+03  0.25500000000E-02 0. -1.
          2   -1    0    0  501    0  0.00000000000E+00 -0.00000000000E+00 -0.27031166384E+03  0.27031166386E+03  0.25500000000E-02 0.  1.
   -5000001    1    1    2    0    0 -0.16992865412E+03 -0.11305019602E+03  0.53326575027E+02  0.32710826635E+03  0.25000000000E+03 0.  0.
    5000001    1    1    2    0    0  0.16992865412E+03  0.11305019602E+03  0.61743804029E+02  0.32858544041E+03  0.25000000000E+03 0.  0.
<mgrwt>
<rscale>  0 0.64551766E+03</rscale>
<asrwt>0</asrwt>
<pdfrwt beam="1">  1        2 0.41586410E-01 0.64551766E+03</pdfrwt>
<pdfrwt beam="2">  1       -2 0.59289545E-01 0.64551766E+03</pdfrwt>
<totfact> 0.33080984E+02</totfact>
</mgrwt>
</event>
<event>
 4    1  0.1806019E-005  0.7279208E+03  0.7818608E-02  0.9670640E-01
          2   -1    0    0  501    0  0.00000000000E+00  0.00000000000E+00  0.54277444614E+03  0.54277444615E+03  0.25500000000E-02 0.  1.
         -2   -1    0    0    0  501 -0.00000000000E+00 -0.00000000000E+00 -0.24405563704E+03  0.24405563706E+03  0.25500000000E-02 0. -1.
   -5000001    1    1    2    0    0  0.77378803962E+02 -0.19618430052E+03 -0.23221889764E+02  0.32789482344E+03  0.25000000000E+03 0.  0.
    5000001    1    1    2    0    0 -0.77378803962E+02  0.19618430052E+03  0.32194069886E+03  0.45893525976E+03  0.25000000000E+03 0.  0.
<mgrwt>
<rscale>  0 0.72792077E+03</rscale>
<asrwt>0</asrwt>
<pdfrwt beam="1">  1        2 0.83503760E-01 0.72792077E+03</pdfrwt>
<pdfrwt beam="2">  1       -2 0.37547022E-01 0.72792077E+03</pdfrwt>
<totfact> 0.37685302E+02</totfact>
</mgrwt>
</event>
<event>
 4    1  0.1806019E-005  0.7580700E+03  0.7818608E-02  0.9622774E-01
          2   -1    0    0  501    0  0.00000000000E+00  0.00000000000E+00  0.11532948710E+04  0.11532948710E+04  0.25500000000E-02 0.  1.
         -2   -1    0    0    0  501 -0.00000000000E+00 -0.00000000000E+00 -0.12457137302E+03  0.12457137304E+03  0.25500000000E-02 0. -1.
   -5000001    1    1    2    0    0  0.24898385573E+03 -0.70581220849E+02  0.31353988151E+03  0.47726504843E+03  0.25000000000E+03 0.  0.
    5000001    1    1    2    0    0 -0.24898385573E+03  0.70581220849E+02  0.71518361647E+03  0.80060119561E+03  0.25000000000E+03 0.  0.
<mgrwt>
<rscale>  0 0.75806999E+03</rscale>
<asrwt>0</asrwt>
<pdfrwt beam="1">  1        2 0.17742999E+00 0.75806999E+03</pdfrwt>
<pdfrwt beam="2">  1       -2 0.19164826E-01 0.75806999E+03</pdfrwt>
<totfact> 0.46796668E+02</totfact>
</mgrwt>
</event>
<event>
 4    1  0.1806019E-005  0.7844322E+03  0.7818608E-02  0.9582828E-01
         -2   -1    0    0    0  501 -0.00000000000E+00  0.00000000000E+00  0.10835364301E+03  0.10835364304E+03  0.25500000000E-02 0. -1.
          2   -1    0    0  501    0  0.00000000000E+00 -0.00000000000E+00 -0.14197350731E+04  0.14197350732E+04  0.25500000000E-02 0.  1.
   -5000001    1    1    2    0    0 -0.25236219882E+03 -0.13114450403E+03 -0.45657395945E+03  0.59316552562E+03  0.25000000000E+03 0.  0.
    5000001    1    1    2    0    0  0.25236219882E+03  0.13114450403E+03 -0.85480747069E+03  0.93492319057E+03  0.25000000000E+03 0.  0.
<mgrwt>
<rscale>  0 0.78443220E+03</rscale>
<asrwt>0</asrwt>
<pdfrwt beam="1">  1        2 0.21842077E+00 0.78443220E+03</pdfrwt>
<pdfrwt beam="2">  1       -2 0.16669792E-01 0.78443220E+03</pdfrwt>
<totfact> 0.41651254E+02</totfact>
</mgrwt>
</event>
<event>
 4    1  0.1806019E-005  0.6786886E+03  0.7818608E-02  0.9754388E-01
          2   -1    0    0  501    0  0.00000000000E+00  0.00000000000E+00  0.14482298980E+04  0.14482298980E+04  0.25500000000E-02 0.  1.
         -2   -1    0    0    0  501 -0.00000000000E+00 -0.00000000000E+00 -0.79514004917E+02  0.79514004958E+02  0.25500000000E-02 0. -1.
   -5000001    1    1    2    0    0 -0.13154286354E+03 -0.11396079601E+03  0.10209892183E+04  0.10654621401E+04  0.25000000000E+03 0.  0.
    5000001    1    1    2    0    0  0.13154286354E+03  0.11396079601E+03  0.34772667479E+03  0.46228176293E+03  0.25000000000E+03 0.  0.
<mgrwt>
<rscale>  0 0.67868862E+03</rscale>
<asrwt>0</asrwt>
<pdfrwt beam="1">  1        2 0.22280461E+00 0.67868862E+03</pdfrwt>
<pdfrwt beam="2">  1       -2 0.12232923E-01 0.67868862E+03</pdfrwt>
<totfact> 0.67945569E+02</totfact>
</mgrwt>
</event>
<event>
 4    1  0.1806019E-005  0.6305195E+03  0.7818608E-02  0.9844035E-01
         -2   -1    0    0    0  501 -0.00000000000E+00  0.00000000000E+00  0.58242474695E+02  0.58242474751E+02  0.25500000000E-02 0. -1.
          2   -1    0    0  501    0  0.00000000000E+00 -0.00000000000E+00 -0.17064646053E+04  0.17064646053E+04  0.25500000000E-02 0.  1.
   -5000001    1    1    2    0    0 -0.73254719515E+01  0.18607732063E+03 -0.69252839526E+03  0.75945639114E+03  0.25000000000E+03 0.  0.
    5000001    1    1    2    0    0  0.73254719515E+01 -0.18607732063E+03 -0.95569373531E+03  0.10052506889E+04  0.25000000000E+03 0.  0.
<mgrwt>
<rscale>  0 0.63051954E+03</rscale>
<asrwt>0</asrwt>
<pdfrwt beam="1">  1        2 0.26253298E+00 0.63051954E+03</pdfrwt>
<pdfrwt beam="2">  1       -2 0.89603820E-02 0.63051954E+03</pdfrwt>
<totfact> 0.81601576E+02</totfact>
</mgrwt>
</event>
<event>
 4    1  0.1806019E-005  0.9353858E+03  0.7818608E-02  0.9382397E-01
          2   -1    0    0  501    0  0.00000000000E+00  0.00000000000E+00  0.16354690009E+04  0.16354690009E+04  0.25500000000E-02 0.  1.
         -2   -1    0    0    0  501 -0.00000000000E+00 -0.00000000000E+00 -0.13374551591E+03  0.13374551593E+03  0.25500000000E-02 0. -1.
   -5000001    1    1    2    0    0  0.32565549722E+03 -0.19424944701E+03  0.53979761773E+03  0.70545433491E+03  0.25000000000E+03 0.  0.
    5000001    1    1    2    0    0 -0.32565549722E+03  0.19424944701E+03  0.96192586722E+03  0.10637601819E+04  0.25000000000E+03 0.  0.
<mgrwt>
<rscale>  0 0.93538579E+03</rscale>
<asrwt>0</asrwt>
<pdfrwt beam="1">  1        2 0.25161060E+00 0.93538579E+03</pdfrwt>
<pdfrwt beam="2">  1       -2 0.20576235E-01 0.93538579E+03</pdfrwt>
<totfact> 0.21704007E+02</totfact>
</mgrwt>
</event>
<event>
 4    1  0.1806019E-005  0.5943252E+03  0.7818608E-02  0.9917250E-01
         -2   -1    0    0    0  501 -0.00000000000E+00  0.00000000000E+00  0.31849497685E+03  0.31849497686E+03  0.25500000000E-02 0. -1.
          2   -1    0    0  501    0  0.00000000000E+00 -0.00000000000E+00 -0.27725901124E+03  0.27725901125E+03  0.25500000000E-02 0.  1.
   -5000001    1    1    2    0    0  0.39725566733E+02  0.15433752912E+03  0.38508679160E+00  0.29647654518E+03  0.25000000000E+03 0.  0.
    5000001    1    1    2    0    0 -0.39725566733E+02 -0.15433752912E+03  0.40850878818E+02  0.29927744293E+03  0.25000000000E+03 0.  0.
<mgrwt>
<rscale>  0 0.59432517E+03</rscale>
<asrwt>0</asrwt>
<pdfrwt beam="1">  1        2 0.42655233E-01 0.59432517E+03</pdfrwt>
<pdfrwt beam="2">  1       -2 0.48999227E-01 0.59432517E+03</pdfrwt>
<totfact> 0.47686107E+02</totfact>
</mgrwt>
</event>
<event>
 4    1  0.1806019E-005  0.1211373E+04  0.7818608E-02  0.9102960E-01
         -2   -1    0    0    0  501 -0.00000000000E+00  0.00000000000E+00  0.47255417041E+03  0.47255417042E+03  0.25500000000E-02 0. -1.
          2   -1    0    0  501    0  0.00000000000E+00 -0.00000000000E+00 -0.77632572316E+03  0.77632572316E+03  0.25500000000E-02 0.  1.
   -5000001    1    1    2    0    0 -0.26856193328E+03  0.28152498404E+03 -0.55511489339E+03  0.72251946238E+03  0.25000000000E+03 0.  0.
    5000001    1    1    2    0    0  0.26856193328E+03 -0.28152498404E+03  0.25134334064E+03  0.52636043120E+03  0.25000000000E+03 0.  0.
<mgrwt>
<rscale>  0 0.12113727E+04</rscale>
<asrwt>0</asrwt>
<pdfrwt beam="1">  1        2 0.11943473E+00 0.12113727E+04</pdfrwt>
<pdfrwt beam="2">  1       -2 0.72700642E-01 0.12113727E+04</pdfrwt>
<totfact> 0.60489840E+01</totfact>
</mgrwt>
</event>
<event>
 4    1  0.1806019E-005  0.6415153E+03  0.7818608E-02  0.9822832E-01
          2   -1    0    0  501    0  0.00000000000E+00  0.00000000000E+00  0.15445187741E+03  0.15445187743E+03  0.25500000000E-02 0.  1.
         -2   -1    0    0    0  501 -0.00000000000E+00 -0.00000000000E+00 -0.66613290591E+03  0.66613290591E+03  0.25500000000E-02 0. -1.
   -5000001    1    1    2    0    0 -0.17026207481E+03 -0.44550815497E+02 -0.37993329266E+03  0.48767125827E+03  0.25000000000E+03 0.  0.
    5000001    1    1    2    0    0  0.17026207481E+03  0.44550815497E+02 -0.13174773584E+03  0.33291352507E+03  0.25000000000E+03 0.  0.
<mgrwt>
<rscale>  0 0.64151532E+03</rscale>
<asrwt>0</asrwt>
<pdfrwt beam="1">  1        2 0.23761828E-01 0.64151532E+03</pdfrwt>
<pdfrwt beam="2">  1       -2 0.10248198E+00 0.64151532E+03</pdfrwt>
<totfact> 0.18317220E+02</totfact>
</mgrwt>
</event>
<event>
 4    1  0.1806019E-005  0.7437513E+03  0.7818608E-02  0.9645205E-01
         -2   -1    0    0    0  501 -0.00000000000E+00  0.00000000000E+00  0.20126142650E+03  0.20126142652E+03  0.25500000000E-02 0. -1.
          2   -1    0    0  501    0  0.00000000000E+00 -0.00000000000E+00 -0.68712373471E+03  0.68712373471E+03  0.25500000000E-02 0.  1.
   -5000001    1    1    2    0    0 -0.18295223686E+02 -0.26039953647E+03 -0.34739648158E+03  0.50132519308E+03  0.25000000000E+03 0.  0.
    5000001    1    1    2    0    0  0.18295223686E+02  0.26039953647E+03 -0.13846582662E+03  0.38705996815E+03  0.25000000000E+03 0.  0.
<mgrwt>
<rscale>  0 0.74375131E+03</rscale>
<asrwt>0</asrwt>
<pdfrwt beam="1">  1        2 0.10571134E+00 0.74375131E+03</pdfrwt>
<pdfrwt beam="2">  1       -2 0.30963297E-01 0.74375131E+03</pdfrwt>
<totfact> 0.40771527E+02</totfact>
</mgrwt>
</event>
<event>
 4    1  0.1806019E-005  0.7776907E+03  0.7818608E-02  0.9592882E-01
          2   -1    0    0  501    0  0.00000000000E+00  0.00000000000E+00  0.13708363938E+04  0.13708363938E+04  0.25500000000E-02 0. -1.
         -2   -1    0    0    0  501 -0.00000000000E+00 -0.00000000000E+00 -0.11029814334E+03  0.11029814337E+03  0.25500000000E-02 0.  1.
   -5000001    1    1    2    0    0 -0.19869768319E+03 -0.14567483757E+03  0.31158739612E+03  0.46934915897E+03  0.25000000000E+03 0.  0.
    5000001    1    1    2    0    0  0.19869768319E+03  0.14567483757E+03  0.94895085435E+03  0.10117853782E+04  0.25000000000E+03 0.  0.
<mgrwt>
<rscale>  0 0.77769071E+03</rscale>
<asrwt>0</asrwt>
<pdfrwt beam="1">  1        2 0.21089790E+00 0.77769071E+03</pdfrwt>
<pdfrwt beam="2">  1       -2 0.16968945E-01 0.77769071E+03</pdfrwt>
<totfact> 0.43077015E+02</totfact>
</mgrwt>
</event>
<event>
 4    1  0.1806019E-005  0.1251455E+04  0.7818608E-02  0.9068973E-01
          2   -1    0    0  501    0  0.00000000000E+00  0.00000000000E+00  0.40844666985E+04  0.40844666985E+04  0.25500000000E-02 0.  1.
         -2   -1    0    0    0  501 -0.00000000000E+00 -0.00000000000E+00 -0.95859529050E+02  0.95859529084E+02  0.25500000000E-02 0. -1.
   -5000001    1    1    2    0    0  0.21704155403E+03 -0.53052836964E+03  0.19220659964E+04  0.20212385019E+04  0.25000000000E+03 0.  0.
    5000001    1    1    2    0    0 -0.21704155403E+03  0.53052836964E+03  0.20665411731E+04  0.21590877257E+04  0.25000000000E+03 0.  0.
<mgrwt>
<rscale>  0 0.12514552E+04</rscale>
<asrwt>0</asrwt>
<pdfrwt beam="1">  1        2 0.62837938E+00 0.12514552E+04</pdfrwt>
<pdfrwt beam="2">  1       -2 0.14747622E-01 0.12514552E+04</pdfrwt>
<totfact> 0.10775968E+01</totfact>
</mgrwt>
</event>
<event>
 4    1  0.1806019E-005  0.5747611E+03  0.7818608E-02  0.9959198E-01
          2   -1    0    0  501    0  0.00000000000E+00  0.00000000000E+00  0.61689024000E+03  0.61689024001E+03  0.25500000000E-02 0.  1.
         -2   -1    0    0    0  501 -0.00000000000E+00 -0.00000000000E+00 -0.13387725229E+03  0.13387725231E+03  0.25500000000E-02 0. -1.
   -5000001    1    1    2    0    0 -0.69606463889E+01  0.13825967543E+03  0.28119902440E+03  0.40092029105E+03  0.25000000000E+03 0.  0.
    5000001    1    1    2    0    0  0.69606463889E+01 -0.13825967543E+03  0.20181396332E+03  0.34984720127E+03  0.25000000000E+03 0.  0.
<mgrwt>
<rscale>  0 0.57476106E+03</rscale>
<asrwt>0</asrwt>
<pdfrwt beam="1">  1        2 0.94906192E-01 0.57476106E+03</pdfrwt>
<pdfrwt beam="2">  1       -2 0.20596500E-01 0.57476106E+03</pdfrwt>
<totfact> 0.97533839E+02</totfact>
</mgrwt>
</event>
<event>
 4    1  0.1806019E-005  0.6661948E+03  0.7818608E-02  0.9776857E-01
          2   -1    0    0  501    0  0.00000000000E+00  0.00000000000E+00  0.16957204976E+04  0.16957204976E+04  0.25500000000E-02 0.  1.
         -2   -1    0    0    0  501 -0.00000000000E+00 -0.00000000000E+00 -0.65431693349E+02  0.65431693398E+02  0.25500000000E-02 0. -1.
   -5000001    1    1    2    0    0  0.36468519269E+02  0.20418984329E+03  0.62033391482E+03  0.70024110910E+03  0.25000000000E+03 0.  0.
    5000001    1    1    2    0    0 -0.36468519269E+02 -0.20418984329E+03  0.10099548894E+04  0.10609110819E+04  0.25000000000E+03 0.  0.
<mgrwt>
<rscale>  0 0.66619476E+03</rscale>
<asrwt>0</asrwt>
<pdfrwt beam="1">  1        2 0.26088011E+00 0.66619476E+03</pdfrwt>
<pdfrwt beam="2">  1       -2 0.10066413E-01 0.66619476E+03</pdfrwt>
<totfact> 0.68373776E+02</totfact>
</mgrwt>
</event>
<event>
 4    1  0.1806019E-005  0.1004086E+04  0.7818608E-02  0.9304075E-01
          2   -1    0    0  501    0  0.00000000000E+00  0.00000000000E+00  0.15764929150E+03  0.15764929152E+03  0.25500000000E-02 0.  1.
         -2   -1    0    0    0  501 -0.00000000000E+00 -0.00000000000E+00 -0.15987844231E+04  0.15987844231E+04  0.25500000000E-02 0. -1.
   -5000001    1    1    2    0    0 -0.11347875018E+02  0.39659683063E+03 -0.40701368020E+03  0.62094923803E+03  0.25000000000E+03 0.  0.
    5000001    1    1    2    0    0  0.11347875018E+02 -0.39659683063E+03 -0.10341214514E+04  0.11354844766E+04  0.25000000000E+03 0.  0.
<mgrwt>
<rscale>  0 0.10040861E+04</rscale>
<asrwt>0</asrwt>
<pdfrwt beam="1">  1        2 0.24253738E-01 0.10040861E+04</pdfrwt>
<pdfrwt beam="2">  1       -2 0.24596682E+00 0.10040861E+04</pdfrwt>
<totfact> 0.15525836E+01</totfact>
</mgrwt>
</event>
<event>
 4    1  0.1806019E-005  0.5708043E+03  0.7818608E-02  0.9967900E-01
         -2   -1    0    0    0  501 -0.00000000000E+00  0.00000000000E+00  0.67768520740E+02  0.67768520788E+02  0.25500000000E-02 0. -1.
          2   -1    0    0  501    0  0.00000000000E+00 -0.00000000000E+00 -0.12019502006E+04  0.12019502006E+04  0.25500000000E-02 0.  1.
   -5000001    1    1    2    0    0  0.13192013566E+03 -0.86793455537E+01 -0.65255482974E+03  0.71120043521E+03  0.25000000000E+03 0.  0.
    5000001    1    1    2    0    0 -0.13192013566E+03  0.86793455537E+01 -0.48162685008E+03  0.55851828614E+03  0.25000000000E+03 0.  0.
<mgrwt>
<rscale>  0 0.57080430E+03</rscale>
<asrwt>0</asrwt>
<pdfrwt beam="1">  1        2 0.18491540E+00 0.57080430E+03</pdfrwt>
<pdfrwt beam="2">  1       -2 0.10425927E-01 0.57080430E+03</pdfrwt>
<totfact> 0.12258614E+03</totfact>
</mgrwt>
</event>
<event>
 4    1  0.1806019E-005  0.5418962E+03  0.7818608E-02  0.1003387E+00
         -2   -1    0    0    0  501 -0.00000000000E+00  0.00000000000E+00  0.70897183635E+02  0.70897183681E+02  0.25500000000E-02 0. -1.
          2   -1    0    0  501    0  0.00000000000E+00 -0.00000000000E+00 -0.10354837160E+04  0.10354837160E+04  0.25500000000E-02 0.  1.
   -5000001    1    1    2    0    0 -0.88492827419E+02 -0.93206615014E+01 -0.59402812777E+03  0.65060531186E+03  0.25000000000E+03 0.  0.
    5000001    1    1    2    0    0  0.88492827419E+02  0.93206615014E+01 -0.37055840456E+03  0.45577558779E+03  0.25000000000E+03 0.  0.
<mgrwt>
<rscale>  0 0.54189622E+03</rscale>
<asrwt>0</asrwt>
<pdfrwt beam="1">  1        2 0.15930518E+00 0.54189622E+03</pdfrwt>
<pdfrwt beam="2">  1       -2 0.10907260E-01 0.54189622E+03</pdfrwt>
<totfact> 0.14356385E+03</totfact>
</mgrwt>
</event>
<event>
 4    1  0.1806019E-005  0.5770739E+03  0.7818608E-02  0.9954146E-01
         -2   -1    0    0    0  501 -0.00000000000E+00  0.00000000000E+00  0.26951687465E+03  0.26951687466E+03  0.25500000000E-02 0. -1.
          2   -1    0    0  501    0  0.00000000000E+00 -0.00000000000E+00 -0.30889932772E+03  0.30889932773E+03  0.25500000000E-02 0.  1.
   -5000001    1    1    2    0    0  0.39148925959E+02 -0.63351965796E+02 -0.14329664125E+03  0.29762398654E+03  0.25000000000E+03 0.  0.
    5000001    1    1    2    0    0 -0.39148925959E+02  0.63351965796E+02  0.10391418817E+03  0.28079221584E+03  0.25000000000E+03 0.  0.
<mgrwt>
<rscale>  0 0.57707393E+03</rscale>
<asrwt>0</asrwt>
<pdfrwt beam="1">  1        2 0.47522974E-01 0.57707393E+03</pdfrwt>
<pdfrwt beam="2">  1       -2 0.41464134E-01 0.57707393E+03</pdfrwt>
<totfact> 0.58980019E+02</totfact>
</mgrwt>
</event>
<event>
 4    1  0.1806019E-005  0.9093978E+03  0.7818608E-02  0.9413909E-01
          2   -1    0    0  501    0  0.00000000000E+00  0.00000000000E+00  0.38700792422E+04  0.38700792422E+04  0.25500000000E-02 0.  1.
         -2   -1    0    0    0  501 -0.00000000000E+00 -0.00000000000E+00 -0.53422956569E+02  0.53422956630E+02  0.25500000000E-02 0. -1.
   -5000001    1    1    2    0    0  0.29821534869E+03  0.98603519451E+02  0.28295909066E+04  0.28579257770E+04  0.25000000000E+03 0.  0.
    5000001    1    1    2    0    0 -0.29821534869E+03 -0.98603519451E+02  0.98706537905E+03  0.10655764218E+04  0.25000000000E+03 0.  0.
<mgrwt>
<rscale>  0 0.90939777E+03</rscale>
<asrwt>0</asrwt>
<pdfrwt beam="1">  1        2 0.59539698E+00 0.90939777E+03</pdfrwt>
<pdfrwt beam="2">  1       -2 0.82189140E-02 0.90939777E+03</pdfrwt>
<totfact> 0.43679328E+01</totfact>
</mgrwt>
</event>
<event>
 4    1  0.1806019E-005  0.8870849E+03  0.7818608E-02  0.9441871E-01
         -2   -1    0    0    0  501 -0.00000000000E+00  0.00000000000E+00  0.26432695179E+03  0.26432695181E+03  0.25500000000E-02 0. -1.
          2   -1    0    0  501    0  0.00000000000E+00 -0.00000000000E+00 -0.74426735077E+03  0.74426735077E+03  0.25500000000E-02 0.  1.
   -5000001    1    1    2    0    0  0.24732742588E+03 -0.26707016317E+03 -0.19264422957E+03  0.48177705096E+03  0.25000000000E+03 0.  0.
    5000001    1    1    2    0    0 -0.24732742588E+03  0.26707016317E+03 -0.28729616941E+03  0.52681725162E+03  0.25000000000E+03 0.  0.
<mgrwt>
<rscale>  0 0.88708493E+03</rscale>
<asrwt>0</asrwt>
<pdfrwt beam="1">  1        2 0.11450267E+00 0.88708493E+03</pdfrwt>
<pdfrwt beam="2">  1       -2 0.40665685E-01 0.88708493E+03</pdfrwt>
<totfact> 0.21749033E+02</totfact>
</mgrwt>
</event>
<event>
 4    1  0.1806019E-005  0.1619200E+04  0.7818608E-02  0.8808839E-01
          2   -1    0    0  501    0  0.00000000000E+00  0.00000000000E+00  0.16509086041E+04  0.16509086041E+04  0.25500000000E-02 0.  1.
         -2   -1    0    0    0  501 -0.00000000000E+00 -0.00000000000E+00 -0.39702529403E+03  0.39702529404E+03  0.25500000000E-02 0. -1.
   -5000001    1    1    2    0    0 -0.12693129129E+03 -0.75557982746E+03  0.52946284366E+03  0.96428384368E+03  0.25000000000E+03 0.  0.
    5000001    1    1    2    0    0  0.12693129129E+03  0.75557982746E+03  0.72442046644E+03  0.10836500545E+04  0.25000000000E+03 0.  0.
<mgrwt>
<rscale>  0 0.16192004E+04</rscale>
<asrwt>0</asrwt>
<pdfrwt beam="1">  1        2 0.25398594E+00 0.16192004E+04</pdfrwt>
<pdfrwt beam="2">  1       -2 0.61080814E-01 0.16192004E+04</pdfrwt>
<totfact> 0.24936435E+01</totfact>
</mgrwt>
</event>
<event>
 4    1  0.1806019E-005  0.7575839E+03  0.7818608E-02  0.9623527E-01
         -2   -1    0    0    0  501 -0.00000000000E+00  0.00000000000E+00  0.68845512378E+02  0.68845512425E+02  0.25500000000E-02 0. -1.
          2   -1    0    0  501    0  0.00000000000E+00 -0.00000000000E+00 -0.20841348506E+04  0.20841348506E+04  0.25500000000E-02 0.  1.
   -5000001    1    1    2    0    0  0.22687833438E+03 -0.16249169215E+03 -0.84926104084E+03  0.92823576968E+03  0.25000000000E+03 0.  0.
    5000001    1    1    2    0    0 -0.22687833438E+03  0.16249169215E+03 -0.11660282974E+04  0.12247445934E+04  0.25000000000E+03 0.  0.
<mgrwt>
<rscale>  0 0.75758387E+03</rscale>
<asrwt>0</asrwt>
<pdfrwt beam="1">  1        2 0.32063608E+00 0.75758387E+03</pdfrwt>
<pdfrwt beam="2">  1       -2 0.10591619E-01 0.75758387E+03</pdfrwt>
<totfact> 0.38422047E+02</totfact>
</mgrwt>
</event>
<event>
 4    1  0.1806019E-005  0.6897539E+03  0.7818608E-02  0.9734917E-01
         -2   -1    0    0    0  501 -0.00000000000E+00  0.00000000000E+00  0.33985767651E+03  0.33985767652E+03  0.25500000000E-02 0. -1.
          2   -1    0    0  501    0  0.00000000000E+00 -0.00000000000E+00 -0.34997037358E+03  0.34997037359E+03  0.25500000000E-02 0.  1.
   -5000001    1    1    2    0    0 -0.12787298439E+02 -0.20037659530E+03 -0.13205748783E+03  0.34677582822E+03  0.25000000000E+03 0.  0.
    5000001    1    1    2    0    0  0.12787298439E+02  0.20037659530E+03  0.12194479076E+03  0.34305222188E+03  0.25000000000E+03 0.  0.
<mgrwt>
<rscale>  0 0.68975392E+03</rscale>
<asrwt>0</asrwt>
<pdfrwt beam="1">  1        2 0.53841596E-01 0.68975392E+03</pdfrwt>
<pdfrwt beam="2">  1       -2 0.52285797E-01 0.68975392E+03</pdfrwt>
<totfact> 0.32209570E+02</totfact>
</mgrwt>
</event>
<event>
 4    1  0.1806019E-005  0.6384964E+03  0.7818608E-02  0.9828608E-01
         -2   -1    0    0    0  501 -0.00000000000E+00  0.00000000000E+00  0.63229750143E+02  0.63229750195E+02  0.25500000000E-02 0. -1.
          2   -1    0    0  501    0  0.00000000000E+00 -0.00000000000E+00 -0.16118899599E+04  0.16118899599E+04  0.25500000000E-02 0.  1.
   -5000001    1    1    2    0    0  0.12489685315E+03  0.34194050239E+02 -0.37948154027E+03  0.47251951960E+03  0.25000000000E+03 0.  0.
    5000001    1    1    2    0    0 -0.12489685315E+03 -0.34194050239E+02 -0.11691786695E+04  0.12026001905E+04  0.25000000000E+03 0.  0.
<mgrwt>
<rscale>  0 0.63849636E+03</rscale>
<asrwt>0</asrwt>
<pdfrwt beam="1">  1        2 0.24798304E+00 0.63849636E+03</pdfrwt>
<pdfrwt beam="2">  1       -2 0.97276551E-02 0.63849636E+03</pdfrwt>
<totfact> 0.80442514E+02</totfact>
</mgrwt>
</event>
<event>
 4    1  0.1806019E-005  0.7173924E+03  0.7818608E-02  0.9687943E-01
         -2   -1    0    0    0  501 -0.00000000000E+00  0.00000000000E+00  0.63205201517E+02  0.63205201569E+02  0.25500000000E-02 0. -1.
          2   -1    0    0  501    0  0.00000000000E+00 -0.00000000000E+00 -0.20356387144E+04  0.20356387144E+04  0.25500000000E-02 0.  1.
   -5000001    1    1    2    0    0  0.13919445470E+03  0.10888899090E+03 -0.43941590100E+03  0.53555414536E+03  0.25000000000E+03 0.  0.
    5000001    1    1    2    0    0 -0.13919445470E+03 -0.10888899090E+03 -0.15330176119E+04  0.15632897706E+04  0.25000000000E+03 0.  0.
<mgrwt>
<rscale>  0 0.71739238E+03</rscale>
<asrwt>0</asrwt>
<pdfrwt beam="1">  1        2 0.31317514E+00 0.71739238E+03</pdfrwt>
<pdfrwt beam="2">  1       -2 0.97238787E-02 0.71739238E+03</pdfrwt>
<totfact> 0.47085677E+02</totfact>
</mgrwt>
</event>
<event>
 4    1  0.1806019E-005  0.6963870E+03  0.7818608E-02  0.9723431E-01
         -2   -1    0    0    0  501 -0.00000000000E+00  0.00000000000E+00  0.22370489629E+03  0.22370489630E+03  0.25500000000E-02 0. -1.
          2   -1    0    0  501    0  0.00000000000E+00 -0.00000000000E+00 -0.54195820444E+03  0.54195820444E+03  0.25500000000E-02 0.  1.
   -5000001    1    1    2    0    0 -0.13349811933E+03  0.16240234982E+03 -0.26538228704E+02  0.32772022927E+03  0.25000000000E+03 0.  0.
    5000001    1    1    2    0    0  0.13349811933E+03 -0.16240234982E+03 -0.29171507945E+03  0.43794287147E+03  0.25000000000E+03 0.  0.
<mgrwt>
<rscale>  0 0.69638697E+03</rscale>
<asrwt>0</asrwt>
<pdfrwt beam="1">  1        2 0.83378185E-01 0.69638697E+03</pdfrwt>
<pdfrwt beam="2">  1       -2 0.34416138E-01 0.69638697E+03</pdfrwt>
<totfact> 0.44628543E+02</totfact>
</mgrwt>
</event>
<event>
 4    1  0.1806019E-005  0.1275923E+04  0.7818608E-02  0.9048879E-01
          2   -1    0    0  501    0  0.00000000000E+00  0.00000000000E+00  0.11243919958E+04  0.11243919958E+04  0.25500000000E-02 0.  1.
         -2   -1    0    0    0  501 -0.00000000000E+00 -0.00000000000E+00 -0.36196911307E+03  0.36196911308E+03  0.25500000000E-02 0. -1.
   -5000001    1    1    2    0    0  0.57940209494E+03  0.51166575525E+02  0.28970425127E+03  0.69624231362E+03  0.25000000000E+03 0.  0.
    5000001    1    1    2    0    0 -0.57940209494E+03 -0.51166575525E+02  0.47271863145E+03  0.79011879524E+03  0.25000000000E+03 0.  0.
<mgrwt>
<rscale>  0 0.12759235E+04</rscale>
<asrwt>0</asrwt>
<pdfrwt beam="1">  1        2 0.17298338E+00 0.12759235E+04</pdfrwt>
<pdfrwt beam="2">  1       -2 0.55687556E-01 0.12759235E+04</pdfrwt>
<totfact> 0.62593973E+01</totfact>
</mgrwt>
</event>
<event>
 4    1  0.1806019E-005  0.8318813E+03  0.7818608E-02  0.9514983E-01
          2   -1    0    0  501    0  0.00000000000E+00  0.00000000000E+00  0.45963576731E+03  0.45963576731E+03  0.25500000000E-02 0.  1.
         -2   -1    0    0    0  501 -0.00000000000E+00 -0.00000000000E+00 -0.37639939284E+03  0.37639939285E+03  0.25500000000E-02 0. -1.
   -5000001    1    1    2    0    0 -0.24533717320E+03  0.22348980251E+03  0.60913100491E+02  0.41993859812E+03  0.25000000000E+03 0.  0.
    5000001    1    1    2    0    0  0.24533717320E+03 -0.22348980251E+03  0.22323273974E+02  0.41609656204E+03  0.25000000000E+03 0.  0.
<mgrwt>
<rscale>  0 0.83188130E+03</rscale>
<asrwt>0</asrwt>
<pdfrwt beam="1">  1        2 0.70713195E-01 0.83188130E+03</pdfrwt>
<pdfrwt beam="2">  1       -2 0.57907599E-01 0.83188130E+03</pdfrwt>
<totfact> 0.19070361E+02</totfact>
</mgrwt>
</event>
<event>
 4    1  0.1806019E-005  0.5797867E+03  0.7818608E-02  0.9948253E-01
         -2   -1    0    0    0  501 -0.00000000000E+00  0.00000000000E+00  0.12270832898E+03  0.12270832901E+03  0.25500000000E-02 0. -1.
          2   -1    0    0  501    0  0.00000000000E+00 -0.00000000000E+00 -0.68486095463E+03  0.68486095463E+03  0.25500000000E-02 0.  1.
   -5000001    1    1    2    0    0 -0.12815076616E+03  0.60360869760E+02 -0.22763480113E+03  0.36658376417E+03  0.25000000000E+03 0.  0.
    5000001    1    1    2    0    0  0.12815076616E+03 -0.60360869760E+02 -0.33451782451E+03  0.44098551947E+03  0.25000000000E+03 0.  0.
<mgrwt>
<rscale>  0 0.57978666E+03</rscale>
<asrwt>0</asrwt>
<pdfrwt beam="1">  1        2 0.10536322E+00 0.57978666E+03</pdfrwt>
<pdfrwt beam="2">  1       -2 0.18878205E-01 0.57978666E+03</pdfrwt>
<totfact> 0.99850714E+02</totfact>
</mgrwt>
</event>
<event>
 4    1  0.1806019E-005  0.1999902E+04  0.7818608E-02  0.8606667E-01
         -2   -1    0    0    0  501 -0.00000000000E+00  0.00000000000E+00  0.48646328523E+03  0.48646328523E+03  0.25500000000E-02 0. -1.
          2   -1    0    0  501    0  0.00000000000E+00 -0.00000000000E+00 -0.20554519863E+04  0.20554519863E+04  0.25500000000E-02 0.  1.
   -5000001    1    1    2    0    0  0.96606268954E+03 -0.64019997534E+02 -0.77798284876E+03  0.12669384331E+04  0.25000000000E+03 0.  0.
    5000001    1    1    2    0    0 -0.96606268954E+03  0.64019997534E+02 -0.79100585228E+03  0.12749768384E+04  0.25000000000E+03 0.  0.
<mgrwt>
<rscale>  0 0.19999019E+04</rscale>
<asrwt>0</asrwt>
<pdfrwt beam="1">  1        2 0.31622338E+00 0.19999019E+04</pdfrwt>
<pdfrwt beam="2">  1       -2 0.74840507E-01 0.19999019E+04</pdfrwt>
<totfact> 0.92742100E+00</totfact>
</mgrwt>
</event>
<event>
 4    1  0.1806019E-005  0.6676526E+03  0.7818608E-02  0.9774208E-01
          2   -1    0    0  501    0  0.00000000000E+00  0.00000000000E+00  0.38294251944E+04  0.38294251944E+04  0.25500000000E-02 0.  1.
         -2   -1    0    0    0  501 -0.00000000000E+00 -0.00000000000E+00 -0.29100973535E+02  0.29100973647E+02  0.25500000000E-02 0. -1.
   -5000001    1    1    2    0    0  0.21628609062E+03 -0.32899668300E+02  0.20899061976E+04  0.21161450744E+04  0.25000000000E+03 0.  0.
    5000001    1    1    2    0    0 -0.21628609062E+03  0.32899668300E+02  0.17104180232E+04  0.17423810936E+04  0.25000000000E+03 0.  0.
<mgrwt>
<rscale>  0 0.66765261E+03</rscale>
<asrwt>0</asrwt>
<pdfrwt beam="1">  1        2 0.58914215E+00 0.66765261E+03</pdfrwt>
<pdfrwt beam="2">  1       -2 0.44770743E-02 0.66765261E+03</pdfrwt>
<totfact> 0.12643427E+02</totfact>
</mgrwt>
</event>
<event>
 4    1  0.1806019E-005  0.6405479E+03  0.7818608E-02  0.9824679E-01
         -2   -1    0    0    0  501 -0.00000000000E+00  0.00000000000E+00  0.45030309465E+02  0.45030309537E+02  0.25500000000E-02 0. -1.
          2   -1    0    0  501    0  0.00000000000E+00 -0.00000000000E+00 -0.22779194292E+04  0.22779194292E+04  0.25500000000E-02 0.  1.
   -5000001    1    1    2    0    0  0.12115597236E+03 -0.11477614565E+03 -0.15173838013E+04  0.15468697210E+04  0.25000000000E+03 0.  0.
    5000001    1    1    2    0    0 -0.12115597236E+03  0.11477614565E+03 -0.71550531842E+03  0.77608001775E+03  0.25000000000E+03 0.  0.
<mgrwt>
<rscale>  0 0.64054794E+03</rscale>
<asrwt>0</asrwt>
<pdfrwt beam="1">  1        2 0.35044905E+00 0.64054794E+03</pdfrwt>
<pdfrwt beam="2">  1       -2 0.69277417E-02 0.64054794E+03</pdfrwt>
<totfact> 0.60049122E+02</totfact>
</mgrwt>
</event>
<event>
 4    1  0.1806019E-005  0.6465543E+03  0.7818608E-02  0.9813266E-01
          2   -1    0    0  501    0  0.00000000000E+00  0.00000000000E+00  0.17826778736E+03  0.17826778738E+03  0.25500000000E-02 0.  1.
         -2   -1    0    0    0  501 -0.00000000000E+00 -0.00000000000E+00 -0.58624237375E+03  0.58624237376E+03  0.25500000000E-02 0. -1.
   -5000001    1    1    2    0    0  0.56846123435E+02 -0.14756957607E+03 -0.35815769967E+03  0.46452685538E+03  0.25000000000E+03 0.  0.
    5000001    1    1    2    0    0 -0.56846123435E+02  0.14756957607E+03 -0.49816886716E+02  0.29998330576E+03  0.25000000000E+03 0.  0.
<mgrwt>
<rscale>  0 0.64655435E+03</rscale>
<asrwt>0</asrwt>
<pdfrwt beam="1">  1        2 0.27425814E-01 0.64655435E+03</pdfrwt>
<pdfrwt beam="2">  1       -2 0.90191134E-01 0.64655435E+03</pdfrwt>
<totfact> 0.20955315E+02</totfact>
</mgrwt>
</event>
<event>
 4    1  0.1806019E-005  0.8383230E+03  0.7818608E-02  0.9506145E-01
          2   -1    0    0  501    0  0.00000000000E+00  0.00000000000E+00  0.70166453883E+03  0.70166453883E+03  0.25500000000E-02 0.  1.
         -2   -1    0    0    0  501 -0.00000000000E+00 -0.00000000000E+00 -0.25039936021E+03  0.25039936023E+03  0.25500000000E-02 0. -1.
   -5000001    1    1    2    0    0  0.12532951710E+03  0.30994578486E+03  0.26846543516E+03  0.49633412867E+03  0.25000000000E+03 0.  0.
    5000001    1    1    2    0    0 -0.12532951710E+03 -0.30994578486E+03  0.18279974345E+03  0.45572977039E+03  0.25000000000E+03 0.  0.
<mgrwt>
<rscale>  0 0.83832297E+03</rscale>
<asrwt>0</asrwt>
<pdfrwt beam="1">  1        2 0.10794839E+00 0.83832297E+03</pdfrwt>
<pdfrwt beam="2">  1       -2 0.38522978E-01 0.83832297E+03</pdfrwt>
<totfact> 0.26119000E+02</totfact>
</mgrwt>
</event>
<event>
 4    1  0.1806019E-005  0.8222754E+03  0.7818608E-02  0.9528323E-01
         -2   -1    0    0    0  501 -0.00000000000E+00  0.00000000000E+00  0.63774774911E+02  0.63774774962E+02  0.25500000000E-02 0. -1.
          2   -1    0    0  501    0  0.00000000000E+00 -0.00000000000E+00 -0.26504866294E+04  0.26504866294E+04  0.25500000000E-02 0.  1.
   -5000001    1    1    2    0    0  0.17938141661E+03  0.10932757052E+03 -0.21179506230E+04  0.21429757468E+04  0.25000000000E+03 0.  0.
    5000001    1    1    2    0    0 -0.17938141661E+03 -0.10932757052E+03 -0.46876123157E+03  0.57128565756E+03  0.25000000000E+03 0.  0.
<mgrwt>
<rscale>  0 0.82227535E+03</rscale>
<asrwt>0</asrwt>
<pdfrwt beam="1">  1        2 0.40776709E+00 0.82227535E+03</pdfrwt>
<pdfrwt beam="2">  1       -2 0.98115059E-02 0.82227535E+03</pdfrwt>
<totfact> 0.20828245E+02</totfact>
</mgrwt>
</event>
<event>
 4    1  0.1806019E-005  0.5919043E+03  0.7818608E-02  0.9922346E-01
         -2   -1    0    0    0  501 -0.00000000000E+00  0.00000000000E+00  0.14135393124E+03  0.14135393127E+03  0.25500000000E-02 0. -1.
          2   -1    0    0  501    0  0.00000000000E+00 -0.00000000000E+00 -0.61963373997E+03  0.61963373997E+03  0.25500000000E-02 0.  1.
   -5000001    1    1    2    0    0 -0.11555713465E+03 -0.83690574536E+02 -0.32756211703E+03  0.43606708675E+03  0.25000000000E+03 0.  0.
    5000001    1    1    2    0    0  0.11555713465E+03  0.83690574536E+02 -0.15071769169E+03  0.32492058449E+03  0.25000000000E+03 0.  0.
<mgrwt>
<rscale>  0 0.59190427E+03</rscale>
<asrwt>0</asrwt>
<pdfrwt beam="1">  1        2 0.95328266E-01 0.59190427E+03</pdfrwt>
<pdfrwt beam="2">  1       -2 0.21746759E-01 0.59190427E+03</pdfrwt>
<totfact> 0.88167174E+02</totfact>
</mgrwt>
</event>
<event>
 4    1  0.1806019E-005  0.6986093E+03  0.7818608E-02  0.9719613E-01
         -2   -1    0    0    0  501 -0.00000000000E+00  0.00000000000E+00  0.71044150006E+02  0.71044150052E+02  0.25500000000E-02 0. -1.
          2   -1    0    0  501    0  0.00000000000E+00 -0.00000000000E+00 -0.17174354292E+04  0.17174354292E+04  0.25500000000E-02 0.  1.
   -5000001    1    1    2    0    0  0.16806108136E+03  0.16428298689E+01 -0.12758736035E+04  0.13109541098E+04  0.25000000000E+03 0.  0.
    5000001    1    1    2    0    0 -0.16806108136E+03 -0.16428298689E+01 -0.37051767573E+03  0.47752546947E+03  0.25000000000E+03 0.  0.
<mgrwt>
<rscale>  0 0.69860931E+03</rscale>
<asrwt>0</asrwt>
<pdfrwt beam="1">  1        2 0.26422080E+00 0.69860931E+03</pdfrwt>
<pdfrwt beam="2">  1       -2 0.10929871E-01 0.69860931E+03</pdfrwt>
<totfact> 0.58059204E+02</totfact>
</mgrwt>
</event>
<event>
 4    1  0.1806019E-005  0.6256041E+03  0.7818608E-02  0.9853665E-01
         -2   -1    0    0    0  501 -0.00000000000E+00  0.00000000000E+00  0.46253557314E+02  0.46253557385E+02  0.25500000000E-02 0. -1.
          2   -1    0    0  501    0  0.00000000000E+00 -0.00000000000E+00 -0.21154072150E+04  0.21154072150E+04  0.25500000000E-02 0.  1.
   -5000001    1    1    2    0    0 -0.17930199147E+03 -0.25219303967E+02 -0.12093999078E+04  0.12481720052E+04  0.25000000000E+03 0.  0.
    5000001    1    1    2    0    0  0.17930199147E+03  0.25219303967E+02 -0.85975374991E+03  0.91348876727E+03  0.25000000000E+03 0.  0.
<mgrwt>
<rscale>  0 0.62560406E+03</rscale>
<asrwt>0</asrwt>
<pdfrwt beam="1">  1        2 0.32544719E+00 0.62560406E+03</pdfrwt>
<pdfrwt beam="2">  1       -2 0.71159336E-02 0.62560406E+03</pdfrwt>
<totfact> 0.70740700E+02</totfact>
</mgrwt>
</event>
<event>
 4    1  0.1806019E-005  0.1334466E+04  0.7818608E-02  0.9002671E-01
          2   -1    0    0  501    0  0.00000000000E+00  0.00000000000E+00  0.94830278283E+03  0.94830278283E+03  0.25500000000E-02 0.  1.
         -2   -1    0    0    0  501 -0.00000000000E+00 -0.00000000000E+00 -0.46947034708E+03  0.46947034708E+03  0.25500000000E-02 0. -1.
   -5000001    1    1    2    0    0  0.45921687796E+02  0.54603827573E+03 -0.65619610368E+02  0.60586511142E+03  0.25000000000E+03 0.  0.
    5000001    1    1    2    0    0 -0.45921687796E+02 -0.54603827573E+03  0.54445204612E+03  0.81190801850E+03  0.25000000000E+03 0.  0.
<mgrwt>
<rscale>  0 0.13344662E+04</rscale>
<asrwt>0</asrwt>
<pdfrwt beam="1">  1        2 0.14589273E+00 0.13344662E+04</pdfrwt>
<pdfrwt beam="2">  1       -2 0.72226208E-01 0.13344662E+04</pdfrwt>
<totfact> 0.46207585E+01</totfact>
</mgrwt>
</event>
<event>
 4    1  0.1806019E-005  0.6281010E+03  0.7818608E-02  0.9848762E-01
         -2   -1    0    0    0  501 -0.00000000000E+00  0.00000000000E+00  0.11822179276E+03  0.11822179278E+03  0.25500000000E-02 0. -1.
          2   -1    0    0  501    0  0.00000000000E+00 -0.00000000000E+00 -0.83425993085E+03  0.83425993085E+03  0.25500000000E-02 0.  1.
   -5000001    1    1    2    0    0  0.81355352304E+02 -0.89266341485E+02 -0.58058331652E+03  0.64355587209E+03  0.25000000000E+03 0.  0.
    5000001    1    1    2    0    0 -0.81355352304E+02  0.89266341485E+02 -0.13545482157E+03  0.30892585155E+03  0.25000000000E+03 0.  0.
<mgrwt>
<rscale>  0 0.62810096E+03</rscale>
<asrwt>0</asrwt>
<pdfrwt beam="1">  1        2 0.12834768E+00 0.62810096E+03</pdfrwt>
<pdfrwt beam="2">  1       -2 0.18187969E-01 0.62810096E+03</pdfrwt>
<totfact> 0.82489750E+02</totfact>
</mgrwt>
</event>
<event>
 4    1  0.1806019E-005  0.8443702E+03  0.7818608E-02  0.9497924E-01
          2   -1    0    0  501    0  0.00000000000E+00  0.00000000000E+00  0.11003468668E+04  0.11003468668E+04  0.25500000000E-02 0.  1.
         -2   -1    0    0    0  501 -0.00000000000E+00 -0.00000000000E+00 -0.16198552883E+03  0.16198552885E+03  0.25500000000E-02 0. -1.
   -5000001    1    1    2    0    0  0.29167161774E+03 -0.11455470275E+03  0.27115593337E+03  0.48396348284E+03  0.25000000000E+03 0.  0.
    5000001    1    1    2    0    0 -0.29167161774E+03  0.11455470275E+03  0.66720540456E+03  0.77836891278E+03  0.25000000000E+03 0.  0.
<mgrwt>
<rscale>  0 0.84437022E+03</rscale>
<asrwt>0</asrwt>
<pdfrwt beam="1">  1        2 0.16928413E+00 0.84437022E+03</pdfrwt>
<pdfrwt beam="2">  1       -2 0.24920852E-01 0.84437022E+03</pdfrwt>
<totfact> 0.31506418E+02</totfact>
</mgrwt>
</event>
<event>
 4    1  0.1806019E-005  0.6317401E+03  0.7818608E-02  0.9841659E-01
          2   -1    0    0  501    0  0.00000000000E+00  0.00000000000E+00  0.31802670678E+03  0.31802670679E+03  0.25500000000E-02 0.  1.
         -2   -1    0    0    0  501 -0.00000000000E+00 -0.00000000000E+00 -0.31372806263E+03  0.31372806264E+03  0.25500000000E-02 0. -1.
   -5000001    1    1    2    0    0 -0.95884255957E+02  0.88407427867E+02 -0.14020648915E+03  0.31490875415E+03  0.25000000000E+03 0.  0.
    5000001    1    1    2    0    0  0.95884255957E+02 -0.88407427867E+02  0.14450513331E+03  0.31684601527E+03  0.25000000000E+03 0.  0.
<mgrwt>
<rscale>  0 0.63174014E+03</rscale>
<asrwt>0</asrwt>
<pdfrwt beam="1">  1        2 0.48927186E-01 0.63174014E+03</pdfrwt>
<pdfrwt beam="2">  1       -2 0.48265856E-01 0.63174014E+03</pdfrwt>
<totfact> 0.42208514E+02</totfact>
</mgrwt>
</event>
<event>
 4    1  0.1806019E-005  0.8181635E+03  0.7818608E-02  0.9534092E-01
          2   -1    0    0  501    0  0.00000000000E+00  0.00000000000E+00  0.19237531318E+04  0.19237531318E+04  0.25500000000E-02 0.  1.
         -2   -1    0    0    0  501 -0.00000000000E+00 -0.00000000000E+00 -0.86990300008E+02  0.86990300046E+02  0.25500000000E-02 0. -1.
   -5000001    1    1    2    0    0 -0.30521227605E+03 -0.51568494859E+02  0.68478989266E+03  0.79199181827E+03  0.25000000000E+03 0.  0.
    5000001    1    1    2    0    0  0.30521227605E+03  0.51568494859E+02  0.11519729391E+04  0.12187516135E+04  0.25000000000E+03 0.  0.
<mgrwt>
<rscale>  0 0.81816346E+03</rscale>
<asrwt>0</asrwt>
<pdfrwt beam="1">  1        2 0.29596203E+00 0.81816346E+03</pdfrwt>
<pdfrwt beam="2">  1       -2 0.13383123E-01 0.81816346E+03</pdfrwt>
<totfact> 0.31788273E+02</totfact>
</mgrwt>
</event>
<event>
 4    1  0.1806019E-005  0.1249157E+04  0.7818608E-02  0.9070885E-01
          2   -1    0    0  501    0  0.00000000000E+00  0.00000000000E+00  0.30054279646E+04  0.30054279646E+04  0.25500000000E-02 0.  1.
         -2   -1    0    0    0  501 -0.00000000000E+00 -0.00000000000E+00 -0.12979786128E+03  0.12979786131E+03  0.25500000000E-02 0. -1.
   -5000001    1    1    2    0    0  0.26708127439E+03 -0.37073430529E+03  0.23029820548E+04  0.23611443575E+04  0.25000000000E+03 0.  0.
    5000001    1    1    2    0    0 -0.26708127439E+03  0.37073430529E+03  0.57264804852E+03  0.77408146841E+03  0.25000000000E+03 0.  0.
<mgrwt>
<rscale>  0 0.12491567E+04</rscale>
<asrwt>0</asrwt>
<pdfrwt beam="1">  1        2 0.46237351E+00 0.12491567E+04</pdfrwt>
<pdfrwt beam="2">  1       -2 0.19968903E-01 0.12491567E+04</pdfrwt>
<totfact> 0.36893584E+01</totfact>
</mgrwt>
</event>
<event>
 4    1  0.1806019E-005  0.7955012E+03  0.7818608E-02  0.9566552E-01
         -2   -1    0    0    0  501 -0.00000000000E+00  0.00000000000E+00  0.15287455671E+03  0.15287455674E+03  0.25500000000E-02 0. -1.
          2   -1    0    0  501    0  0.00000000000E+00 -0.00000000000E+00 -0.10348716785E+04  0.10348716785E+04  0.25500000000E-02 0.  1.
   -5000001    1    1    2    0    0 -0.28469849484E+03 -0.10250042897E+03 -0.53713683447E+03  0.66526351910E+03  0.25000000000E+03 0.  0.
    5000001    1    1    2    0    0  0.28469849484E+03  0.10250042897E+03 -0.34486028734E+03  0.52248271616E+03  0.25000000000E+03 0.  0.
<mgrwt>
<rscale>  0 0.79550122E+03</rscale>
<asrwt>0</asrwt>
<pdfrwt beam="1">  1        2 0.15921102E+00 0.79550122E+03</pdfrwt>
<pdfrwt beam="2">  1       -2 0.23519163E-01 0.79550122E+03</pdfrwt>
<totfact> 0.38484226E+02</totfact>
</mgrwt>
</event>
<event>
 4    1  0.1806019E-005  0.1152129E+04  0.7818608E-02  0.9155822E-01
         -2   -1    0    0    0  501 -0.00000000000E+00  0.00000000000E+00  0.30873142594E+03  0.30873142595E+03  0.25500000000E-02 0. -1.
          2   -1    0    0  501    0  0.00000000000E+00 -0.00000000000E+00 -0.10748830153E+04  0.10748830153E+04  0.25500000000E-02 0.  1.
   -5000001    1    1    2    0    0 -0.74440006351E+02  0.51168419839E+03 -0.43662299205E+03  0.72145801722E+03  0.25000000000E+03 0.  0.
    5000001    1    1    2    0    0  0.74440006351E+02 -0.51168419839E+03 -0.32952859731E+03  0.66215642403E+03  0.25000000000E+03 0.  0.
<mgrwt>
<rscale>  0 0.11521288E+04</rscale>
<asrwt>0</asrwt>
<pdfrwt beam="1">  1        2 0.16536662E+00 0.11521288E+04</pdfrwt>
<pdfrwt beam="2">  1       -2 0.47497143E-01 0.11521288E+04</pdfrwt>
<totfact> 0.93857820E+01</totfact>
</mgrwt>
</event>
<event>
 4    1  0.1806019E-005  0.6744928E+03  0.7818608E-02  0.9761875E-01
         -2   -1    0    0    0  501 -0.00000000000E+00  0.00000000000E+00  0.35683771042E+02  0.35683771133E+02  0.25500000000E-02 0. -1.
          2   -1    0    0  501    0  0.00000000000E+00 -0.00000000000E+00 -0.31873068302E+04  0.31873068302E+04  0.25500000000E-02 0.  1.
   -5000001    1    1    2    0    0  0.86100042510E+02  0.17675968296E+03 -0.21117145758E+04  0.21355317025E+04  0.25000000000E+03 0.  0.
    5000001    1    1    2    0    0 -0.86100042510E+02 -0.17675968296E+03 -0.10399084834E+04  0.10874588988E+04  0.25000000000E+03 0.  0.
<mgrwt>
<rscale>  0 0.67449278E+03</rscale>
<asrwt>0</asrwt>
<pdfrwt beam="1">  1        2 0.49035467E+00 0.67449278E+03</pdfrwt>
<pdfrwt beam="2">  1       -2 0.54898134E-02 0.67449278E+03</pdfrwt>
<totfact> 0.25295639E+02</totfact>
</mgrwt>
</event>
<event>
 4    1  0.1806019E-005  0.7359231E+03  0.7818608E-02  0.9657697E-01
          2   -1    0    0  501    0  0.00000000000E+00  0.00000000000E+00  0.22645440794E+04  0.22645440794E+04  0.25500000000E-02 0.  1.
         -2   -1    0    0    0  501 -0.00000000000E+00 -0.00000000000E+00 -0.59789388379E+02  0.59789388433E+02  0.25500000000E-02 0. -1.
   -5000001    1    1    2    0    0  0.23649283571E+03  0.90220184226E+02  0.13991176631E+04  0.14436408065E+04  0.25000000000E+03 0.  0.
    5000001    1    1    2    0    0 -0.23649283571E+03 -0.90220184226E+02  0.80563702796E+03  0.88069266138E+03  0.25000000000E+03 0.  0.
<mgrwt>
<rscale>  0 0.73592311E+03</rscale>
<asrwt>0</asrwt>
<pdfrwt beam="1">  1        2 0.34839139E+00 0.73592311E+03</pdfrwt>
<pdfrwt beam="2">  1       -2 0.91983676E-02 0.73592311E+03</pdfrwt>
<totfact> 0.38518667E+02</totfact>
</mgrwt>
</event>
<event>
 4    1  0.1806019E-005  0.1154671E+04  0.7818608E-02  0.9153485E-01
         -2   -1    0    0    0  501 -0.00000000000E+00  0.00000000000E+00  0.93241529747E+03  0.93241529747E+03  0.25500000000E-02 0. -1.
          2   -1    0    0  501    0  0.00000000000E+00 -0.00000000000E+00 -0.35747600279E+03  0.35747600280E+03  0.25500000000E-02 0.  1.
   -5000001    1    1    2    0    0 -0.28732713077E+03 -0.25019354186E+03 -0.10853260863E+03  0.46843677866E+03  0.25000000000E+03 0.  0.
    5000001    1    1    2    0    0  0.28732713077E+03  0.25019354186E+03  0.68347190331E+03  0.82145452161E+03  0.25000000000E+03 0.  0.
<mgrwt>
<rscale>  0 0.11546707E+04</rscale>
<asrwt>0</asrwt>
<pdfrwt beam="1">  1        2 0.54996308E-01 0.11546707E+04</pdfrwt>
<pdfrwt beam="2">  1       -2 0.14344851E+00 0.11546707E+04</pdfrwt>
<totfact> 0.30071106E+01</totfact>
</mgrwt>
</event>
<event>
 4    1  0.1806019E-005  0.8641424E+03  0.7818608E-02  0.9471550E-01
          2   -1    0    0  501    0  0.00000000000E+00  0.00000000000E+00  0.21476999060E+04  0.21476999060E+04  0.25500000000E-02 0. -1.
         -2   -1    0    0    0  501 -0.00000000000E+00 -0.00000000000E+00 -0.86923461420E+02  0.86923461457E+02  0.25500000000E-02 0.  1.
   -5000001    1    1    2    0    0  0.30866206534E+03  0.25944447881E+00  0.14700987921E+04  0.15228141044E+04  0.25000000000E+03 0.  0.
    5000001    1    1    2    0    0 -0.30866206534E+03 -0.25944447881E+00  0.59067765243E+03  0.71180926305E+03  0.25000000000E+03 0.  0.
<mgrwt>
<rscale>  0 0.86414237E+03</rscale>
<asrwt>0</asrwt>
<pdfrwt beam="1">  1        2 0.33041539E+00 0.86414237E+03</pdfrwt>
<pdfrwt beam="2">  1       -2 0.13372839E-01 0.86414237E+03</pdfrwt>
<totfact> 0.23903232E+02</totfact>
</mgrwt>
</event>
<event>
 4    1  0.1806019E-005  0.5643738E+03  0.7818608E-02  0.9982207E-01
          2   -1    0    0  501    0  0.00000000000E+00  0.00000000000E+00  0.11858549945E+04  0.11858549945E+04  0.25500000000E-02 0.  1.
         -2   -1    0    0    0  501 -0.00000000000E+00 -0.00000000000E+00 -0.67149390088E+02  0.67149390136E+02  0.25500000000E-02 0. -1.
   -5000001    1    1    2    0    0 -0.94931246890E+02  0.11035123708E+01  0.35933701167E+03  0.44792437680E+03  0.25000000000E+03 0.  0.
    5000001    1    1    2    0    0  0.94931246890E+02 -0.11035123708E+01  0.75936859271E+03  0.80508000780E+03  0.25000000000E+03 0.  0.
<mgrwt>
<rscale>  0 0.56437378E+03</rscale>
<asrwt>0</asrwt>
<pdfrwt beam="1">  1        2 0.18243922E+00 0.56437378E+03</pdfrwt>
<pdfrwt beam="2">  1       -2 0.10330676E-01 0.56437378E+03</pdfrwt>
<totfact> 0.12718877E+03</totfact>
</mgrwt>
</event>
<event>
 4    1  0.1806019E-005  0.5407551E+03  0.7818608E-02  0.1003657E+00
         -2   -1    0    0    0  501 -0.00000000000E+00  0.00000000000E+00  0.41765443513E+03  0.41765443514E+03  0.25500000000E-02 0. -1.
          2   -1    0    0  501    0  0.00000000000E+00 -0.00000000000E+00 -0.17503467345E+03  0.17503467347E+03  0.25500000000E-02 0.  1.
   -5000001    1    1    2    0    0 -0.97262182643E+02  0.15362093091E+02  0.88281384986E+02  0.28282420160E+03  0.25000000000E+03 0.  0.
    5000001    1    1    2    0    0  0.97262182643E+02 -0.15362093091E+02  0.15433837669E+03  0.30986490701E+03  0.25000000000E+03 0.  0.
<mgrwt>
<rscale>  0 0.54075506E+03</rscale>
<asrwt>0</asrwt>
<pdfrwt beam="1">  1        2 0.26928412E-01 0.54075506E+03</pdfrwt>
<pdfrwt beam="2">  1       -2 0.64254527E-01 0.54075506E+03</pdfrwt>
<totfact> 0.45447461E+02</totfact>
</mgrwt>
</event>
<event>
 4    1  0.1806019E-005  0.7118651E+03  0.7818608E-02  0.9697154E-01
         -2   -1    0    0    0  501 -0.00000000000E+00  0.00000000000E+00  0.50093726947E+03  0.50093726948E+03  0.25500000000E-02 0. -1.
          2   -1    0    0  501    0  0.00000000000E+00 -0.00000000000E+00 -0.25290187163E+03  0.25290187164E+03  0.25500000000E-02 0.  1.
   -5000001    1    1    2    0    0 -0.45450075788E+02  0.24855279632E+03  0.14365200969E+03  0.38337984015E+03  0.25000000000E+03 0.  0.
    5000001    1    1    2    0    0  0.45450075788E+02 -0.24855279632E+03  0.10438338815E+03  0.37045930097E+03  0.25000000000E+03 0.  0.
<mgrwt>
<rscale>  0 0.71186508E+03</rscale>
<asrwt>0</asrwt>
<pdfrwt beam="1">  1        2 0.38907980E-01 0.71186508E+03</pdfrwt>
<pdfrwt beam="2">  1       -2 0.77067272E-01 0.71186508E+03</pdfrwt>
<totfact> 0.20161714E+02</totfact>
</mgrwt>
</event>
<event>
 4    1  0.1806019E-005  0.7986392E+03  0.7818608E-02  0.9561989E-01
          2   -1    0    0  501    0  0.00000000000E+00  0.00000000000E+00  0.60064755552E+03  0.60064755553E+03  0.25500000000E-02 0.  1.
         -2   -1    0    0    0  501 -0.00000000000E+00 -0.00000000000E+00 -0.26547374335E+03  0.26547374337E+03  0.25500000000E-02 0. -1.
   -5000001    1    1    2    0    0 -0.25284123593E+03  0.16916250687E+02  0.36382172596E+03  0.50900009666E+03  0.25000000000E+03 0.  0.
    5000001    1    1    2    0    0  0.25284123593E+03 -0.16916250687E+02 -0.28647913784E+02  0.35712120224E+03  0.25000000000E+03 0.  0.
<mgrwt>
<rscale>  0 0.79863923E+03</rscale>
<asrwt>0</asrwt>
<pdfrwt beam="1">  1        2 0.92407315E-01 0.79863923E+03</pdfrwt>
<pdfrwt beam="2">  1       -2 0.40842115E-01 0.79863923E+03</pdfrwt>
<totfact> 0.28290746E+02</totfact>
</mgrwt>
</event>
<event>
 4    1  0.1806019E-005  0.7779620E+03  0.7818608E-02  0.9592476E-01
         -2   -1    0    0    0  501 -0.00000000000E+00  0.00000000000E+00  0.55170555440E+02  0.55170555498E+02  0.25500000000E-02 0. -1.
          2   -1    0    0  501    0  0.00000000000E+00 -0.00000000000E+00 -0.27425174470E+04  0.27425174470E+04  0.25500000000E-02 0.  1.
   -5000001    1    1    2    0    0 -0.13936727091E+03  0.26339804166E+03 -0.13512565060E+04  0.14061279847E+04  0.25000000000E+03 0.  0.
    5000001    1    1    2    0    0  0.13936727091E+03 -0.26339804166E+03 -0.13360903856E+04  0.13915600177E+04  0.25000000000E+03 0.  0.
<mgrwt>
<rscale>  0 0.77796198E+03</rscale>
<asrwt>0</asrwt>
<pdfrwt beam="1">  1        2 0.42192565E+00 0.77796198E+03</pdfrwt>
<pdfrwt beam="2">  1       -2 0.84877799E-02 0.77796198E+03</pdfrwt>
<totfact> 0.23375058E+02</totfact>
</mgrwt>
</event>
<event>
 4    1  0.1806019E-005  0.1150786E+04  0.7818608E-02  0.9157059E-01
         -2   -1    0    0    0  501 -0.00000000000E+00  0.00000000000E+00  0.51587425995E+03  0.51587425996E+03  0.25500000000E-02 0. -1.
          2   -1    0    0  501    0  0.00000000000E+00 -0.00000000000E+00 -0.64177872570E+03  0.64177872570E+03  0.25500000000E-02 0.  1.
   -5000001    1    1    2    0    0  0.10632668272E+03  0.28691949464E+03 -0.48371713086E+03  0.62458820238E+03  0.25000000000E+03 0.  0.
    5000001    1    1    2    0    0 -0.10632668272E+03 -0.28691949464E+03  0.35781266511E+03  0.53306478328E+03  0.25000000000E+03 0.  0.
<mgrwt>
<rscale>  0 0.11507860E+04</rscale>
<asrwt>0</asrwt>
<pdfrwt beam="1">  1        2 0.98735188E-01 0.11507860E+04</pdfrwt>
<pdfrwt beam="2">  1       -2 0.79365271E-01 0.11507860E+04</pdfrwt>
<totfact> 0.63661481E+01</totfact>
</mgrwt>
</event>
<event>
 4    1  0.1806019E-005  0.5842824E+03  0.7818608E-02  0.9938562E-01
          2   -1    0    0  501    0  0.00000000000E+00  0.00000000000E+00  0.22913109281E+03  0.22913109283E+03  0.25500000000E-02 0.  1.
         -2   -1    0    0    0  501 -0.00000000000E+00 -0.00000000000E+00 -0.37247885750E+03  0.37247885751E+03  0.25500000000E-02 0. -1.
   -5000001    1    1    2    0    0 -0.91341594964E+02  0.67455780992E+02  0.31049050012E+02  0.27632881295E+03  0.25000000000E+03 0.  0.
    5000001    1    1    2    0    0  0.91341594964E+02 -0.67455780992E+02 -0.17439681470E+03  0.32528113738E+03  0.25000000000E+03 0.  0.
<mgrwt>
<rscale>  0 0.58428242E+03</rscale>
<asrwt>0</asrwt>
<pdfrwt beam="1">  1        2 0.35250937E-01 0.58428242E+03</pdfrwt>
<pdfrwt beam="2">  1       -2 0.57304440E-01 0.58428242E+03</pdfrwt>
<totfact> 0.42732792E+02</totfact>
</mgrwt>
</event>
<event>
 4    1  0.1806019E-005  0.1511524E+04  0.7818608E-02  0.8876825E-01
         -2   -1    0    0    0  501 -0.00000000000E+00  0.00000000000E+00  0.35458611568E+03  0.35458611569E+03  0.25500000000E-02 0. -1.
          2   -1    0    0  501    0  0.00000000000E+00 -0.00000000000E+00 -0.16108256736E+04  0.16108256736E+04  0.25500000000E-02 0.  1.
   -5000001    1    1    2    0    0 -0.61241332245E+03  0.16004759307E+03 -0.20078067074E+03  0.70956196862E+03  0.25000000000E+03 0.  0.
    5000001    1    1    2    0    0  0.61241332245E+03 -0.16004759307E+03 -0.10554588872E+04  0.12558498207E+04  0.25000000000E+03 0.  0.
<mgrwt>
<rscale>  0 0.15115243E+04</rscale>
<asrwt>0</asrwt>
<pdfrwt beam="1">  1        2 0.24781933E+00 0.15115243E+04</pdfrwt>
<pdfrwt beam="2">  1       -2 0.54551711E-01 0.15115243E+04</pdfrwt>
<totfact> 0.33567556E+01</totfact>
</mgrwt>
</event>
<event>
 4    1  0.1806019E-005  0.6821972E+03  0.7818608E-02  0.9748171E-01
          2   -1    0    0  501    0  0.00000000000E+00  0.00000000000E+00  0.40125093142E+03  0.40125093143E+03  0.25500000000E-02 0.  1.
         -2   -1    0    0    0  501 -0.00000000000E+00 -0.00000000000E+00 -0.28996379450E+03  0.28996379451E+03  0.25500000000E-02 0. -1.
   -5000001    1    1    2    0    0 -0.61452610276E+02  0.17937873639E+03  0.19118435284E+03  0.36742973634E+03  0.25000000000E+03 0.  0.
    5000001    1    1    2    0    0  0.61452610276E+02 -0.17937873639E+03 -0.79897215918E+02  0.32378498960E+03  0.25000000000E+03 0.  0.
<mgrwt>
<rscale>  0 0.68219716E+03</rscale>
<asrwt>0</asrwt>
<pdfrwt beam="1">  1        2 0.61730912E-01 0.68219716E+03</pdfrwt>
<pdfrwt beam="2">  1       -2 0.44609815E-01 0.68219716E+03</pdfrwt>
<totfact> 0.38092475E+02</totfact>
</mgrwt>
</event>
<event>
 4    1  0.1806019E-005  0.8738938E+03  0.7818608E-02  0.9458817E-01
         -2   -1    0    0    0  501 -0.00000000000E+00  0.00000000000E+00  0.22393464615E+03  0.22393464617E+03  0.25500000000E-02 0. -1.
          2   -1    0    0  501    0  0.00000000000E+00 -0.00000000000E+00 -0.85258171680E+03  0.85258171680E+03  0.25500000000E-02 0.  1.
   -5000001    1    1    2    0    0  0.32396966545E+03  0.14123902467E+03 -0.24126074504E+03  0.49559212395E+03  0.25000000000E+03 0.  0.
    5000001    1    1    2    0    0 -0.32396966545E+03 -0.14123902467E+03 -0.38738632561E+03  0.58092423903E+03  0.25000000000E+03 0.  0.
<mgrwt>
<rscale>  0 0.87389378E+03</rscale>
<asrwt>0</asrwt>
<pdfrwt beam="1">  1        2 0.13116642E+00 0.87389378E+03</pdfrwt>
<pdfrwt beam="2">  1       -2 0.34451484E-01 0.87389378E+03</pdfrwt>
<totfact> 0.25021284E+02</totfact>
</mgrwt>
</event>
<event>
 4    1  0.1806019E-005  0.6813613E+03  0.7818608E-02  0.9749649E-01
         -2   -1    0    0    0  501 -0.00000000000E+00  0.00000000000E+00  0.78661726008E+02  0.78661726050E+02  0.25500000000E-02 0. -1.
          2   -1    0    0  501    0  0.00000000000E+00 -0.00000000000E+00 -0.14754735202E+04  0.14754735202E+04  0.25500000000E-02 0.  1.
   -5000001    1    1    2    0    0  0.19158747806E+03 -0.76572271024E+01 -0.99403812561E+03  0.10427733167E+04  0.25000000000E+03 0.  0.
    5000001    1    1    2    0    0 -0.19158747806E+03  0.76572271024E+01 -0.40277366856E+03  0.51136192952E+03  0.25000000000E+03 0.  0.
<mgrwt>
<rscale>  0 0.68136127E+03</rscale>
<asrwt>0</asrwt>
<pdfrwt beam="1">  1        2 0.22699591E+00 0.68136127E+03</pdfrwt>
<pdfrwt beam="2">  1       -2 0.12101805E-01 0.68136127E+03</pdfrwt>
<totfact> 0.66778937E+02</totfact>
</mgrwt>
</event>
<event>
 4    1  0.1806019E-005  0.6924399E+03  0.7818608E-02  0.9730249E-01
         -2   -1    0    0    0  501 -0.00000000000E+00  0.00000000000E+00  0.90061367486E+02  0.90061367522E+02  0.25500000000E-02 0. -1.
          2   -1    0    0  501    0  0.00000000000E+00 -0.00000000000E+00 -0.13309619840E+04  0.13309619840E+04  0.25500000000E-02 0.  1.
   -5000001    1    1    2    0    0  0.20695909928E+03  0.78527240551E+02 -0.43270329555E+03  0.54656265722E+03  0.25000000000E+03 0.  0.
    5000001    1    1    2    0    0 -0.20695909928E+03 -0.78527240551E+02 -0.80819732098E+03  0.87446069432E+03  0.25000000000E+03 0.  0.
<mgrwt>
<rscale>  0 0.69243991E+03</rscale>
<asrwt>0</asrwt>
<pdfrwt beam="1">  1        2 0.20476337E+00 0.69243991E+03</pdfrwt>
<pdfrwt beam="2">  1       -2 0.13855596E-01 0.69243991E+03</pdfrwt>
<totfact> 0.64276257E+02</totfact>
</mgrwt>
</event>
<event>
 4    1  0.1806019E-005  0.9228586E+03  0.7818608E-02  0.9397450E-01
          2   -1    0    0  501    0  0.00000000000E+00  0.00000000000E+00  0.87378216074E+03  0.87378216075E+03  0.25500000000E-02 0.  1.
         -2   -1    0    0    0  501 -0.00000000000E+00 -0.00000000000E+00 -0.24367284399E+03  0.24367284400E+03  0.25500000000E-02 0. -1.
   -5000001    1    1    2    0    0 -0.22768957482E+03  0.22250669489E+03  0.58326884044E+03  0.70996782461E+03  0.25000000000E+03 0.  0.
    5000001    1    1    2    0    0  0.22768957482E+03 -0.22250669489E+03  0.46840476315E+02  0.40748718013E+03  0.25000000000E+03 0.  0.
<mgrwt>
<rscale>  0 0.92285857E+03</rscale>
<asrwt>0</asrwt>
<pdfrwt beam="1">  1        2 0.13442802E+00 0.92285857E+03</pdfrwt>
<pdfrwt beam="2">  1       -2 0.37488130E-01 0.92285857E+03</pdfrwt>
<totfact> 0.20526525E+02</totfact>
</mgrwt>
</event>
<event>
 4    1  0.1806019E-005  0.9975528E+03  0.7818608E-02  0.9311233E-01
          2   -1    0    0  501    0  0.00000000000E+00  0.00000000000E+00  0.10823574751E+04  0.10823574751E+04  0.25500000000E-02 0.  1.
         -2   -1    0    0    0  501 -0.00000000000E+00 -0.00000000000E+00 -0.22984820384E+03  0.22984820385E+03  0.25500000000E-02 0. -1.
   -5000001    1    1    2    0    0 -0.15781822424E+02  0.38197418745E+03  0.16276033454E+03  0.48491676842E+03  0.25000000000E+03 0.  0.
    5000001    1    1    2    0    0  0.15781822424E+02 -0.38197418745E+03  0.68974893671E+03  0.82728891053E+03  0.25000000000E+03 0.  0.
<mgrwt>
<rscale>  0 0.99755285E+03</rscale>
<asrwt>0</asrwt>
<pdfrwt beam="1">  1        2 0.16651654E+00 0.99755285E+03</pdfrwt>
<pdfrwt beam="2">  1       -2 0.35361262E-01 0.99755285E+03</pdfrwt>
<totfact> 0.16735913E+02</totfact>
</mgrwt>
</event>
<event>
 4    1  0.1806019E-005  0.5936826E+03  0.7818608E-02  0.9918600E-01
          2   -1    0    0  501    0  0.00000000000E+00  0.00000000000E+00  0.50793951857E+03  0.50793951858E+03  0.25500000000E-02 0.  1.
         -2   -1    0    0    0  501 -0.00000000000E+00 -0.00000000000E+00 -0.17347490017E+03  0.17347490019E+03  0.25500000000E-02 0. -1.
   -5000001    1    1    2    0    0  0.69378606054E+02  0.14047400283E+03  0.12971530318E+03  0.32229240811E+03  0.25000000000E+03 0.  0.
    5000001    1    1    2    0    0 -0.69378606054E+02 -0.14047400283E+03  0.20474931522E+03  0.35912201065E+03  0.25000000000E+03 0.  0.
<mgrwt>
<rscale>  0 0.59368260E+03</rscale>
<asrwt>0</asrwt>
<pdfrwt beam="1">  1        2 0.78144542E-01 0.59368260E+03</pdfrwt>
<pdfrwt beam="2">  1       -2 0.26688446E-01 0.59368260E+03</pdfrwt>
<totfact> 0.77310611E+02</totfact>
</mgrwt>
</event>
<event>
 4    1  0.1806019E-005  0.9626682E+03  0.7818608E-02  0.9350465E-01
         -2   -1    0    0    0  501 -0.00000000000E+00  0.00000000000E+00  0.50585284491E+03  0.50585284492E+03  0.25500000000E-02 0. -1.
          2   -1    0    0  501    0  0.00000000000E+00 -0.00000000000E+00 -0.45800373750E+03  0.45800373751E+03  0.25500000000E-02 0.  1.
   -5000001    1    1    2    0    0 -0.23027586691E+03 -0.30270829795E+03 -0.13286763676E+03  0.47414459548E+03  0.25000000000E+03 0.  0.
    5000001    1    1    2    0    0  0.23027586691E+03  0.30270829795E+03  0.18071674416E+03  0.48971198694E+03  0.25000000000E+03 0.  0.
<mgrwt>
<rscale>  0 0.96266815E+03</rscale>
<asrwt>0</asrwt>
<pdfrwt beam="1">  1        2 0.70462113E-01 0.96266815E+03</pdfrwt>
<pdfrwt beam="2">  1       -2 0.77823515E-01 0.96266815E+03</pdfrwt>
<totfact> 0.10033473E+02</totfact>
</mgrwt>
</event>
<event>
 4    1  0.1806019E-005  0.6562066E+03  0.7818608E-02  0.9795202E-01
         -2   -1    0    0    0  501 -0.00000000000E+00  0.00000000000E+00  0.14067971556E+03  0.14067971558E+03  0.25500000000E-02 0. -1.
          2   -1    0    0  501    0  0.00000000000E+00 -0.00000000000E+00 -0.76522605354E+03  0.76522605355E+03  0.25500000000E-02 0.  1.
   -5000001    1    1    2    0    0  0.19903343312E+03  0.52162564469E+01 -0.20979562091E+03  0.38230317731E+03  0.25000000000E+03 0.  0.
    5000001    1    1    2    0    0 -0.19903343312E+03 -0.52162564469E+01 -0.41475071708E+03  0.52360259181E+03  0.25000000000E+03 0.  0.
<mgrwt>
<rscale>  0 0.65620662E+03</rscale>
<asrwt>0</asrwt>
<pdfrwt beam="1">  1        2 0.11772708E+00 0.65620662E+03</pdfrwt>
<pdfrwt beam="2">  1       -2 0.21643034E-01 0.65620662E+03</pdfrwt>
<totfact> 0.68204412E+02</totfact>
</mgrwt>
</event>
<event>
 4    1  0.1806019E-005  0.7773633E+03  0.7818608E-02  0.9593373E-01
         -2   -1    0    0    0  501 -0.00000000000E+00  0.00000000000E+00  0.91581565773E+03  0.91581565774E+03  0.25500000000E-02 0. -1.
          2   -1    0    0  501    0  0.00000000000E+00 -0.00000000000E+00 -0.16496053753E+03  0.16496053755E+03  0.25500000000E-02 0.  1.
   -5000001    1    1    2    0    0  0.19663225026E+03  0.22150678606E+03  0.41581709040E+03  0.56844819534E+03  0.25000000000E+03 0.  0.
    5000001    1    1    2    0    0 -0.19663225026E+03 -0.22150678606E+03  0.33503802980E+03  0.51232799994E+03  0.25000000000E+03 0.  0.
<mgrwt>
<rscale>  0 0.77736335E+03</rscale>
<asrwt>0</asrwt>
<pdfrwt beam="1">  1        2 0.25378544E-01 0.77736335E+03</pdfrwt>
<pdfrwt beam="2">  1       -2 0.14089472E+00 0.77736335E+03</pdfrwt>
<totfact> 0.76771468E+01</totfact>
</mgrwt>
</event>
<event>
 4    1  0.1806019E-005  0.5978407E+03  0.7818608E-02  0.9909896E-01
         -2   -1    0    0    0  501 -0.00000000000E+00  0.00000000000E+00  0.48830376096E+02  0.48830376162E+02  0.25500000000E-02 0. -1.
          2   -1    0    0  501    0  0.00000000000E+00 -0.00000000000E+00 -0.18298726511E+04  0.18298726511E+04  0.25500000000E-02 0.  1.
   -5000001    1    1    2    0    0 -0.14735751433E+03 -0.68871201927E+02 -0.95304706223E+03  0.99862714880E+03  0.25000000000E+03 0.  0.
    5000001    1    1    2    0    0  0.14735751433E+03  0.68871201927E+02 -0.82799521273E+03  0.88007587843E+03  0.25000000000E+03 0.  0.
<mgrwt>
<rscale>  0 0.59784068E+03</rscale>
<asrwt>0</asrwt>
<pdfrwt beam="1">  1        2 0.28151882E+00 0.59784068E+03</pdfrwt>
<pdfrwt beam="2">  1       -2 0.75123670E-02 0.59784068E+03</pdfrwt>
<totfact> 0.92883950E+02</totfact>
</mgrwt>
</event>
<event>
 4    1  0.1806019E-005  0.8232793E+03  0.7818608E-02  0.9526919E-01
          2   -1    0    0  501    0  0.00000000000E+00  0.00000000000E+00  0.13437373052E+04  0.13437373052E+04  0.25500000000E-02 0.  1.
         -2   -1    0    0    0  501 -0.00000000000E+00 -0.00000000000E+00 -0.12610143127E+03  0.12610143129E+03  0.25500000000E-02 0. -1.
   -5000001    1    1    2    0    0 -0.10867055732E+03  0.30678063670E+03  0.66593642240E+03  0.78223715570E+03  0.25000000000E+03 0.  0.
    5000001    1    1    2    0    0  0.10867055732E+03 -0.30678063670E+03  0.55169945150E+03  0.68760158077E+03  0.25000000000E+03 0.  0.
<mgrwt>
<rscale>  0 0.82327929E+03</rscale>
<asrwt>0</asrwt>
<pdfrwt beam="1">  1        2 0.20672881E+00 0.82327929E+03</pdfrwt>
<pdfrwt beam="2">  1       -2 0.19400220E-01 0.82327929E+03</pdfrwt>
<totfact> 0.35321544E+02</totfact>
</mgrwt>
</event>
<event>
 4    1  0.1806019E-005  0.5252369E+03  0.7818608E-02  0.1007394E+00
         -2   -1    0    0    0  501 -0.00000000000E+00  0.00000000000E+00  0.11975382881E+03  0.11975382883E+03  0.25500000000E-02 0. -1.
          2   -1    0    0  501    0  0.00000000000E+00 -0.00000000000E+00 -0.57591854487E+03  0.57591854488E+03  0.25500000000E-02 0.  1.
   -5000001    1    1    2    0    0 -0.23917335141E+02 -0.76648308644E+02 -0.22194826967E+03  0.34381395630E+03  0.25000000000E+03 0.  0.
    5000001    1    1    2    0    0  0.23917335141E+02  0.76648308644E+02 -0.23421644640E+03  0.35185841741E+03  0.25000000000E+03 0.  0.
<mgrwt>
<rscale>  0 0.52523690E+03</rscale>
<asrwt>0</asrwt>
<pdfrwt beam="1">  1        2 0.88602851E-01 0.52523690E+03</pdfrwt>
<pdfrwt beam="2">  1       -2 0.18423666E-01 0.52523690E+03</pdfrwt>
<totfact> 0.12850055E+03</totfact>
</mgrwt>
</event>
<event>
 4    1  0.1806019E-005  0.5386166E+03  0.7818608E-02  0.1004164E+00
         -2   -1    0    0    0  501 -0.00000000000E+00  0.00000000000E+00  0.36760582553E+02  0.36760582642E+02  0.25500000000E-02 0. -1.
          2   -1    0    0  501    0  0.00000000000E+00 -0.00000000000E+00 -0.19729547771E+04  0.19729547771E+04  0.25500000000E-02 0.  1.
   -5000001    1    1    2    0    0  0.99597089832E+02 -0.15970405615E+01 -0.92989295530E+03  0.96805115524E+03  0.25000000000E+03 0.  0.
    5000001    1    1    2    0    0 -0.99597089832E+02  0.15970405615E+01 -0.10063012393E+04  0.10416642045E+04  0.25000000000E+03 0.  0.
<mgrwt>
<rscale>  0 0.53861662E+03</rscale>
<asrwt>0</asrwt>
<pdfrwt beam="1">  1        2 0.30353142E+00 0.53861662E+03</pdfrwt>
<pdfrwt beam="2">  1       -2 0.56554758E-02 0.53861662E+03</pdfrwt>
<totfact> 0.12193179E+03</totfact>
</mgrwt>
</event>
<event>
 4    1  0.1806019E-005  0.5814132E+03  0.7818608E-02  0.9944736E-01
          2   -1    0    0  501    0  0.00000000000E+00  0.00000000000E+00  0.84120610227E+03  0.84120610227E+03  0.25500000000E-02 0.  1.
         -2   -1    0    0    0  501 -0.00000000000E+00 -0.00000000000E+00 -0.10046327346E+03  0.10046327349E+03  0.25500000000E-02 0. -1.
   -5000001    1    1    2    0    0 -0.36627858275E+02  0.13535356236E+03  0.29188855419E+03  0.40909792827E+03  0.25000000000E+03 0.  0.
    5000001    1    1    2    0    0  0.36627858275E+02 -0.13535356236E+03  0.44885427462E+03  0.53257144750E+03  0.25000000000E+03 0.  0.
<mgrwt>
<rscale>  0 0.58141317E+03</rscale>
<asrwt>0</asrwt>
<pdfrwt beam="1">  1        2 0.12941632E+00 0.58141317E+03</pdfrwt>
<pdfrwt beam="2">  1       -2 0.15455888E-01 0.58141317E+03</pdfrwt>
<totfact> 0.10779963E+03</totfact>
</mgrwt>
</event>
<event>
 4    1  0.1806019E-005  0.6281634E+03  0.7818608E-02  0.9848639E-01
         -2   -1    0    0    0  501 -0.00000000000E+00  0.00000000000E+00  0.84513845933E+02  0.84513845971E+02  0.25500000000E-02 0. -1.
          2   -1    0    0  501    0  0.00000000000E+00 -0.00000000000E+00 -0.11672324298E+04  0.11672324298E+04  0.25500000000E-02 0.  1.
   -5000001    1    1    2    0    0  0.39067632368E+02 -0.18248030980E+03 -0.46890692102E+03  0.56320426485E+03  0.25000000000E+03 0.  0.
    5000001    1    1    2    0    0 -0.39067632368E+02  0.18248030980E+03 -0.61381166286E+03  0.68854201093E+03  0.25000000000E+03 0.  0.
<mgrwt>
<rscale>  0 0.62816336E+03</rscale>
<asrwt>0</asrwt>
<pdfrwt beam="1">  1        2 0.17957421E+00 0.62816336E+03</pdfrwt>
<pdfrwt beam="2">  1       -2 0.13002131E-01 0.62816336E+03</pdfrwt>
<totfact> 0.89235331E+02</totfact>
</mgrwt>
</event>
<event>
 4    1  0.1806019E-005  0.9036012E+03  0.7818608E-02  0.9421091E-01
         -2   -1    0    0    0  501 -0.00000000000E+00  0.00000000000E+00  0.36842145236E+03  0.36842145236E+03  0.25500000000E-02 0. -1.
          2   -1    0    0  501    0  0.00000000000E+00 -0.00000000000E+00 -0.55404971847E+03  0.55404971847E+03  0.25500000000E-02 0.  1.
   -5000001    1    1    2    0    0  0.22007480332E+03 -0.20131027188E+03  0.14146697157E+03  0.41409135305E+03  0.25000000000E+03 0.  0.
    5000001    1    1    2    0    0 -0.22007480332E+03  0.20131027188E+03 -0.32709523768E+03  0.50837981779E+03  0.25000000000E+03 0.  0.
<mgrwt>
<rscale>  0 0.90360124E+03</rscale>
<asrwt>0</asrwt>
<pdfrwt beam="1">  1        2 0.85238419E-01 0.90360124E+03</pdfrwt>
<pdfrwt beam="2">  1       -2 0.56680223E-01 0.90360124E+03</pdfrwt>
<totfact> 0.15990709E+02</totfact>
</mgrwt>
</event>
<event>
 4    1  0.1806019E-005  0.6163662E+03  0.7818608E-02  0.9872021E-01
          2   -1    0    0  501    0  0.00000000000E+00  0.00000000000E+00  0.15986972604E+04  0.15986972604E+04  0.25500000000E-02 0.  1.
         -2   -1    0    0    0  501 -0.00000000000E+00 -0.00000000000E+00 -0.59408880252E+02  0.59408880307E+02  0.25500000000E-02 0. -1.
   -5000001    1    1    2    0    0 -0.10946472519E+03 -0.10630966581E+03  0.51172041947E+03  0.58961178652E+03  0.25000000000E+03 0.  0.
    5000001    1    1    2    0    0  0.10946472519E+03  0.10630966581E+03  0.10275679606E+04  0.10684943541E+04  0.25000000000E+03 0.  0.
<mgrwt>
<rscale>  0 0.61636617E+03</rscale>
<asrwt>0</asrwt>
<pdfrwt beam="1">  1        2 0.24595337E+00 0.61636617E+03</pdfrwt>
<pdfrwt beam="2">  1       -2 0.91398297E-02 0.61636617E+03</pdfrwt>
<totfact> 0.90562180E+02</totfact>
</mgrwt>
</event>
<event>
 4    1  0.1806019E-005  0.6812582E+03  0.7818608E-02  0.9749831E-01
          2   -1    0    0  501    0  0.00000000000E+00  0.00000000000E+00  0.86458334170E+03  0.86458334170E+03  0.25500000000E-02 0.  1.
         -2   -1    0    0    0  501 -0.00000000000E+00 -0.00000000000E+00 -0.13420128292E+03  0.13420128294E+03  0.25500000000E-02 0. -1.
   -5000001    1    1    2    0    0  0.31293256353E+02 -0.11396734741E+03  0.65679286703E+03  0.71263222938E+03  0.25000000000E+03 0.  0.
    5000001    1    1    2    0    0 -0.31293256353E+02  0.11396734741E+03  0.73589191749E+02  0.28615239526E+03  0.25000000000E+03 0.  0.
<mgrwt>
<rscale>  0 0.68125823E+03</rscale>
<asrwt>0</asrwt>
<pdfrwt beam="1">  1        2 0.13301282E+00 0.68125823E+03</pdfrwt>
<pdfrwt beam="2">  1       -2 0.20646351E-01 0.68125823E+03</pdfrwt>
<totfact> 0.62953585E+02</totfact>
</mgrwt>
</event>
<event>
 4    1  0.1806019E-005  0.1049022E+04  0.7818608E-02  0.9256355E-01
         -2   -1    0    0    0  501 -0.00000000000E+00  0.00000000000E+00  0.30865922425E+03  0.30865922426E+03  0.25500000000E-02 0. -1.
          2   -1    0    0  501    0  0.00000000000E+00 -0.00000000000E+00 -0.89131207567E+03  0.89131207567E+03  0.25500000000E-02 0.  1.
   -5000001    1    1    2    0    0 -0.40650900242E+03  0.98212379422E+02 -0.51347921039E+03  0.70785319101E+03  0.25000000000E+03 0.  0.
    5000001    1    1    2    0    0  0.40650900242E+03 -0.98212379422E+02 -0.69173641022E+02  0.49211810892E+03  0.25000000000E+03 0.  0.
<mgrwt>
<rscale>  0 0.10490218E+04</rscale>
<asrwt>0</asrwt>
<pdfrwt beam="1">  1        2 0.13712493E+00 0.10490218E+04</pdfrwt>
<pdfrwt beam="2">  1       -2 0.47486035E-01 0.10490218E+04</pdfrwt>
<totfact> 0.12435697E+02</totfact>
</mgrwt>
</event>
<event>
 4    1  0.1806019E-005  0.6368089E+03  0.7818608E-02  0.9831851E-01
         -2   -1    0    0    0  501 -0.00000000000E+00  0.00000000000E+00  0.33150300042E+02  0.33150300140E+02  0.25500000000E-02 0. -1.
          2   -1    0    0  501    0  0.00000000000E+00 -0.00000000000E+00 -0.30582346335E+04  0.30582346335E+04  0.25500000000E-02 0.  1.
   -5000001    1    1    2    0    0 -0.89405381763E+02  0.16560993008E+03 -0.12269334904E+04  0.12662092090E+04  0.25000000000E+03 0.  0.
    5000001    1    1    2    0    0  0.89405381763E+02 -0.16560993008E+03 -0.17981508431E+04  0.18251757247E+04  0.25000000000E+03 0.  0.
<mgrwt>
<rscale>  0 0.63680891E+03</rscale>
<asrwt>0</asrwt>
<pdfrwt beam="1">  1        2 0.47049741E+00 0.63680891E+03</pdfrwt>
<pdfrwt beam="2">  1       -2 0.51000486E-02 0.63680891E+03</pdfrwt>
<totfact> 0.34308732E+02</totfact>
</mgrwt>
</event>
<event>
 4    1  0.1806019E-005  0.6937325E+03  0.7818608E-02  0.9728011E-01
          2   -1    0    0  501    0  0.00000000000E+00  0.00000000000E+00  0.14261692309E+04  0.14261692309E+04  0.25500000000E-02 0.  1.
         -2   -1    0    0    0  501 -0.00000000000E+00 -0.00000000000E+00 -0.84363205432E+02  0.84363205471E+02  0.25500000000E-02 0. -1.
   -5000001    1    1    2    0    0  0.20728481297E+03 -0.15571989269E+02  0.40774629989E+03  0.52150409932E+03  0.25000000000E+03 0.  0.
    5000001    1    1    2    0    0 -0.20728481297E+03  0.15571989269E+02  0.93405972560E+03  0.98902833707E+03  0.25000000000E+03 0.  0.
<mgrwt>
<rscale>  0 0.69373254E+03</rscale>
<asrwt>0</asrwt>
<pdfrwt beam="1">  1        2 0.21941062E+00 0.69373254E+03</pdfrwt>
<pdfrwt beam="2">  1       -2 0.12978956E-01 0.69373254E+03</pdfrwt>
<totfact> 0.63319644E+02</totfact>
</mgrwt>
</event>
<event>
 4    1  0.1806019E-005  0.8647914E+03  0.7818608E-02  0.9470697E-01
         -2   -1    0    0    0  501 -0.00000000000E+00  0.00000000000E+00  0.85646911921E+02  0.85646911959E+02  0.25500000000E-02 0. -1.
          2   -1    0    0  501    0  0.00000000000E+00 -0.00000000000E+00 -0.21829862474E+04  0.21829862474E+04  0.25500000000E-02 0.  1.
   -5000001    1    1    2    0    0 -0.25558238609E+03 -0.13929332806E+03 -0.15716345896E+04  0.16177948790E+04  0.25000000000E+03 0.  0.
    5000001    1    1    2    0    0  0.25558238609E+03  0.13929332806E+03 -0.52570474586E+03  0.65083828033E+03  0.25000000000E+03 0.  0.
<mgrwt>
<rscale>  0 0.86479138E+03</rscale>
<asrwt>0</asrwt>
<pdfrwt beam="1">  1        2 0.33584400E+00 0.86479138E+03</pdfrwt>
<pdfrwt beam="2">  1       -2 0.13176450E-01 0.86479138E+03</pdfrwt>
<totfact> 0.23426171E+02</totfact>
</mgrwt>
</event>
<event>
 4    1  0.1806019E-005  0.7070577E+03  0.7818608E-02  0.9705238E-01
          2   -1    0    0  501    0  0.00000000000E+00  0.00000000000E+00  0.39626782233E+03  0.39626782233E+03  0.25500000000E-02 0.  1.
         -2   -1    0    0    0  501 -0.00000000000E+00 -0.00000000000E+00 -0.31539940983E+03  0.31539940984E+03  0.25500000000E-02 0. -1.
   -5000001    1    1    2    0    0 -0.93603131112E+02 -0.22815154007E+03 -0.67278750368E+00  0.35116253222E+03  0.25000000000E+03 0.  0.
    5000001    1    1    2    0    0  0.93603131112E+02  0.22815154007E+03  0.81541199998E+02  0.36050469996E+03  0.25000000000E+03 0.  0.
<mgrwt>
<rscale>  0 0.70705767E+03</rscale>
<asrwt>0</asrwt>
<pdfrwt beam="1">  1        2 0.60964280E-01 0.70705767E+03</pdfrwt>
<pdfrwt beam="2">  1       -2 0.48522986E-01 0.70705767E+03</pdfrwt>
<totfact> 0.32618703E+02</totfact>
</mgrwt>
</event>
<event>
 4    1  0.1806019E-005  0.8031388E+03  0.7818608E-02  0.9555485E-01
          2   -1    0    0  501    0  0.00000000000E+00  0.00000000000E+00  0.40110996674E+03  0.40110996675E+03  0.25500000000E-02 0.  1.
         -2   -1    0    0    0  501 -0.00000000000E+00 -0.00000000000E+00 -0.40202933069E+03  0.40202933070E+03  0.25500000000E-02 0. -1.
   -5000001    1    1    2    0    0 -0.21852174316E+03 -0.22146722325E+03  0.43795157609E+02  0.40151898964E+03  0.25000000000E+03 0.  0.
    5000001    1    1    2    0    0  0.21852174316E+03  0.22146722325E+03 -0.44714521560E+02  0.40162030781E+03  0.25000000000E+03 0.  0.
<mgrwt>
<rscale>  0 0.80313877E+03</rscale>
<asrwt>0</asrwt>
<pdfrwt beam="1">  1        2 0.61709225E-01 0.80313877E+03</pdfrwt>
<pdfrwt beam="2">  1       -2 0.61850667E-01 0.80313877E+03</pdfrwt>
<totfact> 0.19393800E+02</totfact>
</mgrwt>
</event>
<event>
 4    1  0.1806019E-005  0.2483584E+04  0.7818608E-02  0.8408857E-01
          2   -1    0    0  501    0  0.00000000000E+00  0.00000000000E+00  0.17164515903E+04  0.17164515903E+04  0.25500000000E-02 0.  1.
         -2   -1    0    0    0  501 -0.00000000000E+00 -0.00000000000E+00 -0.89839236804E+03  0.89839236805E+03  0.25500000000E-02 0. -1.
   -5000001    1    1    2    0    0 -0.35492628279E+03  0.11482240714E+04  0.21162121581E+03  0.12456623633E+04  0.25000000000E+03 0.  0.
    5000001    1    1    2    0    0  0.35492628279E+03 -0.11482240714E+04  0.60643800645E+03  0.13691815950E+04  0.25000000000E+03 0.  0.
<mgrwt>
<rscale>  0 0.24835837E+04</rscale>
<asrwt>0</asrwt>
<pdfrwt beam="1">  1        2 0.26406947E+00 0.24835837E+04</pdfrwt>
<pdfrwt beam="2">  1       -2 0.13821421E+00 0.24835837E+04</pdfrwt>
<totfact> 0.31848958E+00</totfact>
</mgrwt>
</event>
<event>
 4    1  0.1806019E-005  0.6450154E+03  0.7818608E-02  0.9816178E-01
         -2   -1    0    0    0  501 -0.00000000000E+00  0.00000000000E+00  0.28903671110E+03  0.28903671111E+03  0.25500000000E-02 0. -1.
          2   -1    0    0  501    0  0.00000000000E+00 -0.00000000000E+00 -0.35985471301E+03  0.35985471302E+03  0.25500000000E-02 0.  1.
   -5000001    1    1    2    0    0 -0.18867106573E+02  0.16713768120E+03  0.80261277425E+02  0.31182181585E+03  0.25000000000E+03 0.  0.
    5000001    1    1    2    0    0  0.18867106573E+02 -0.16713768120E+03 -0.15107927933E+03  0.33706960829E+03  0.25000000000E+03 0.  0.
<mgrwt>
<rscale>  0 0.64501542E+03</rscale>
<asrwt>0</asrwt>
<pdfrwt beam="1">  1        2 0.55362263E-01 0.64501542E+03</pdfrwt>
<pdfrwt beam="2">  1       -2 0.44467187E-01 0.64501542E+03</pdfrwt>
<totfact> 0.43337532E+02</totfact>
</mgrwt>
</event>
<event>
 4    1  0.1806019E-005  0.7237298E+03  0.7818608E-02  0.9677490E-01
         -2   -1    0    0    0  501 -0.00000000000E+00  0.00000000000E+00  0.50241747196E+02  0.50241747260E+02  0.25500000000E-02 0. -1.
          2   -1    0    0  501    0  0.00000000000E+00 -0.00000000000E+00 -0.26063223675E+04  0.26063223675E+04  0.25500000000E-02 0.  1.
   -5000001    1    1    2    0    0 -0.18507639889E+03 -0.16051072258E+03 -0.94103427875E+03  0.10040231468E+04  0.25000000000E+03 0.  0.
    5000001    1    1    2    0    0  0.18507639889E+03  0.16051072258E+03 -0.16150463416E+04  0.16525409680E+04  0.25000000000E+03 0.  0.
<mgrwt>
<rscale>  0 0.72372976E+03</rscale>
<asrwt>0</asrwt>
<pdfrwt beam="1">  1        2 0.40097256E+00 0.72372976E+03</pdfrwt>
<pdfrwt beam="2">  1       -2 0.77295016E-02 0.72372976E+03</pdfrwt>
<totfact> 0.32745456E+02</totfact>
</mgrwt>
</event>
<event>
 4    1  0.1806019E-005  0.1144534E+04  0.7818608E-02  0.9162841E-01
         -2   -1    0    0    0  501 -0.00000000000E+00  0.00000000000E+00  0.26263294369E+03  0.26263294370E+03  0.25500000000E-02 0. -1.
          2   -1    0    0  501    0  0.00000000000E+00 -0.00000000000E+00 -0.12469468028E+04  0.12469468028E+04  0.25500000000E-02 0.  1.
   -5000001    1    1    2    0    0  0.23516387013E+03 -0.35976337513E+03 -0.86581169422E+03  0.99842957776E+03  0.25000000000E+03 0.  0.
    5000001    1    1    2    0    0 -0.23516387013E+03  0.35976337513E+03 -0.11850216487E+03  0.51115016871E+03  0.25000000000E+03 0.  0.
<mgrwt>
<rscale>  0 0.11445336E+04</rscale>
<asrwt>0</asrwt>
<pdfrwt beam="1">  1        2 0.19183797E+00 0.11445336E+04</pdfrwt>
<pdfrwt beam="2">  1       -2 0.40405069E-01 0.11445336E+04</pdfrwt>
<totfact> 0.10190745E+02</totfact>
</mgrwt>
</event>
<event>
 4    1  0.1806019E-005  0.7579376E+03  0.7818608E-02  0.9622979E-01
         -2   -1    0    0    0  501 -0.00000000000E+00  0.00000000000E+00  0.56914378689E+02  0.56914378746E+02  0.25500000000E-02 0. -1.
          2   -1    0    0  501    0  0.00000000000E+00 -0.00000000000E+00 -0.25233928283E+04  0.25233928283E+04  0.25500000000E-02 0.  1.
   -5000001    1    1    2    0    0 -0.21331404043E+03  0.12777960599E+03 -0.17060293381E+04  0.17420868549E+04  0.25000000000E+03 0.  0.
    5000001    1    1    2    0    0  0.21331404043E+03 -0.12777960599E+03 -0.76044911145E+03  0.83822035209E+03  0.25000000000E+03 0.  0.
<mgrwt>
<rscale>  0 0.75793756E+03</rscale>
<asrwt>0</asrwt>
<pdfrwt beam="1">  1        2 0.38821419E+00 0.75793756E+03</pdfrwt>
<pdfrwt beam="2">  1       -2 0.87560602E-02 0.75793756E+03</pdfrwt>
<totfact> 0.29805465E+02</totfact>
</mgrwt>
</event>
<event>
 4    1  0.1806019E-005  0.5825422E+03  0.7818608E-02  0.9942302E-01
         -2   -1    0    0    0  501 -0.00000000000E+00  0.00000000000E+00  0.56666438842E+03  0.56666438843E+03  0.25500000000E-02 0. -1.
          2   -1    0    0  501    0  0.00000000000E+00 -0.00000000000E+00 -0.14971625022E+03  0.14971625024E+03  0.25500000000E-02 0.  1.
   -5000001    1    1    2    0    0  0.11329989881E+03  0.93272575131E+02  0.17364313995E+03  0.33791800839E+03  0.25000000000E+03 0.  0.
    5000001    1    1    2    0    0 -0.11329989881E+03 -0.93272575131E+02  0.24330499826E+03  0.37846263028E+03  0.25000000000E+03 0.  0.
<mgrwt>
<rscale>  0 0.58254225E+03</rscale>
<asrwt>0</asrwt>
<pdfrwt beam="1">  1        2 0.23033269E-01 0.58254225E+03</pdfrwt>
<pdfrwt beam="2">  1       -2 0.87179137E-01 0.58254225E+03</pdfrwt>
<totfact> 0.27708919E+02</totfact>
</mgrwt>
</event>
<event>
 4    1  0.1806019E-005  0.6875905E+03  0.7818608E-02  0.9738693E-01
          2   -1    0    0  501    0  0.00000000000E+00  0.00000000000E+00  0.57026624061E+03  0.57026624062E+03  0.25500000000E-02 0.  1.
         -2   -1    0    0    0  501 -0.00000000000E+00 -0.00000000000E+00 -0.20726312991E+03  0.20726312992E+03  0.25500000000E-02 0. -1.
   -5000001    1    1    2    0    0  0.15063200792E+03  0.16173415077E+03  0.87929889063E+02  0.34507912531E+03  0.25000000000E+03 0.  0.
    5000001    1    1    2    0    0 -0.15063200792E+03 -0.16173415077E+03  0.27507322164E+03  0.43245024523E+03  0.25000000000E+03 0.  0.
<mgrwt>
<rscale>  0 0.68759048E+03</rscale>
<asrwt>0</asrwt>
<pdfrwt beam="1">  1        2 0.87733268E-01 0.68759048E+03</pdfrwt>
<pdfrwt beam="2">  1       -2 0.31886635E-01 0.68759048E+03</pdfrwt>
<totfact> 0.48531484E+02</totfact>
</mgrwt>
</event>
<event>
 4    1  0.1806019E-005  0.1117608E+04  0.7818608E-02  0.9188197E-01
          2   -1    0    0  501    0  0.00000000000E+00  0.00000000000E+00  0.98265353288E+03  0.98265353288E+03  0.25500000000E-02 0.  1.
         -2   -1    0    0    0  501 -0.00000000000E+00 -0.00000000000E+00 -0.31777441270E+03  0.31777441271E+03  0.25500000000E-02 0. -1.
   -5000001    1    1    2    0    0  0.41455155598E+03  0.16270027816E+03  0.59633854406E+03  0.78513949856E+03  0.25000000000E+03 0.  0.
    5000001    1    1    2    0    0 -0.41455155598E+03 -0.16270027816E+03  0.68540576119E+02  0.51528844704E+03  0.25000000000E+03 0.  0.
<mgrwt>
<rscale>  0 0.11176084E+04</rscale>
<asrwt>0</asrwt>
<pdfrwt beam="1">  1        2 0.15117746E+00 0.11176084E+04</pdfrwt>
<pdfrwt beam="2">  1       -2 0.48888372E-01 0.11176084E+04</pdfrwt>
<totfact> 0.10153875E+02</totfact>
</mgrwt>
</event>
<event>
 4    1  0.1806019E-005  0.1167208E+04  0.7818608E-02  0.9142053E-01
         -2   -1    0    0    0  501 -0.00000000000E+00  0.00000000000E+00  0.75354826808E+03  0.75354826809E+03  0.25500000000E-02 0. -1.
          2   -1    0    0  501    0  0.00000000000E+00 -0.00000000000E+00 -0.45198681110E+03  0.45198681111E+03  0.25500000000E-02 0.  1.
   -5000001    1    1    2    0    0 -0.45064907209E+03 -0.27386755697E+03  0.15327963221E+03  0.60339263385E+03  0.25000000000E+03 0.  0.
    5000001    1    1    2    0    0  0.45064907209E+03  0.27386755697E+03  0.14828182478E+03  0.60214244535E+03  0.25000000000E+03 0.  0.
<mgrwt>
<rscale>  0 0.11672084E+04</rscale>
<asrwt>0</asrwt>
<pdfrwt beam="1">  1        2 0.69536433E-01 0.11672084E+04</pdfrwt>
<pdfrwt beam="2">  1       -2 0.11593050E+00 0.11672084E+04</pdfrwt>
<totfact> 0.39549319E+01</totfact>
</mgrwt>
</event>
<event>
 4    1  0.1806019E-005  0.8689157E+03  0.7818608E-02  0.9465295E-01
         -2   -1    0    0    0  501 -0.00000000000E+00  0.00000000000E+00  0.17357637312E+03  0.17357637313E+03  0.25500000000E-02 0. -1.
          2   -1    0    0  501    0  0.00000000000E+00 -0.00000000000E+00 -0.10874385057E+04  0.10874385057E+04  0.25500000000E-02 0.  1.
   -5000001    1    1    2    0    0  0.34089072639E+03  0.58396328122E+02 -0.33870073613E+03  0.54482548319E+03  0.25000000000E+03 0.  0.
    5000001    1    1    2    0    0 -0.34089072639E+03 -0.58396328122E+02 -0.57516139649E+03  0.71618939568E+03  0.25000000000E+03 0.  0.
<mgrwt>
<rscale>  0 0.86891572E+03</rscale>
<asrwt>0</asrwt>
<pdfrwt beam="1">  1        2 0.16729823E+00 0.86891572E+03</pdfrwt>
<pdfrwt beam="2">  1       -2 0.26704058E-01 0.86891572E+03</pdfrwt>
<totfact> 0.28269871E+02</totfact>
</mgrwt>
</event>
<event>
 4    1  0.1806019E-005  0.6599702E+03  0.7818608E-02  0.9788249E-01
         -2   -1    0    0    0  501 -0.00000000000E+00  0.00000000000E+00  0.15722513912E+03  0.15722513914E+03  0.25500000000E-02 0. -1.
          2   -1    0    0  501    0  0.00000000000E+00 -0.00000000000E+00 -0.69257471958E+03  0.69257471958E+03  0.25500000000E-02 0.  1.
   -5000001    1    1    2    0    0  0.14234363746E+03  0.15931230208E+03 -0.23245769130E+03  0.40271416534E+03  0.25000000000E+03 0.  0.
    5000001    1    1    2    0    0 -0.14234363746E+03 -0.15931230208E+03 -0.30289188915E+03  0.44708569339E+03  0.25000000000E+03 0.  0.
<mgrwt>
<rscale>  0 0.65997017E+03</rscale>
<asrwt>0</asrwt>
<pdfrwt beam="1">  1        2 0.10654995E+00 0.65997017E+03</pdfrwt>
<pdfrwt beam="2">  1       -2 0.24188483E-01 0.65997017E+03</pdfrwt>
<totfact> 0.63550557E+02</totfact>
</mgrwt>
</event>
<event>
 4    1  0.1806019E-005  0.6552048E+03  0.7818608E-02  0.9797061E-01
          2   -1    0    0  501    0  0.00000000000E+00  0.00000000000E+00  0.16347257680E+04  0.16347257680E+04  0.25500000000E-02 0.  1.
         -2   -1    0    0    0  501 -0.00000000000E+00 -0.00000000000E+00 -0.65652194170E+02  0.65652194220E+02  0.25500000000E-02 0. -1.
   -5000001    1    1    2    0    0  0.14923499703E+03  0.50179236080E+02  0.11518659514E+04  0.11891527278E+04  0.25000000000E+03 0.  0.
    5000001    1    1    2    0    0 -0.14923499703E+03 -0.50179236080E+02  0.41720762238E+03  0.51122523436E+03  0.25000000000E+03 0.  0.
<mgrwt>
<rscale>  0 0.65520480E+03</rscale>
<asrwt>0</asrwt>
<pdfrwt beam="1">  1        2 0.25149628E+00 0.65520480E+03</pdfrwt>
<pdfrwt beam="2">  1       -2 0.10100337E-01 0.65520480E+03</pdfrwt>
<totfact> 0.73467358E+02</totfact>
</mgrwt>
</event>
<event>
 4    1  0.1806019E-005  0.6843575E+03  0.7818608E-02  0.9744363E-01
          2   -1    0    0  501    0  0.00000000000E+00  0.00000000000E+00  0.23475830340E+04  0.23475830340E+04  0.25500000000E-02 0.  1.
         -2   -1    0    0    0  501 -0.00000000000E+00 -0.00000000000E+00 -0.49875257870E+02  0.49875257935E+02  0.25500000000E-02 0. -1.
   -5000001    1    1    2    0    0  0.83156937023E+02 -0.16208772194E+03  0.63639060813E+03  0.70758781214E+03  0.25000000000E+03 0.  0.
    5000001    1    1    2    0    0 -0.83156937023E+02  0.16208772194E+03  0.16613171680E+04  0.16898704798E+04  0.25000000000E+03 0.  0.
<mgrwt>
<rscale>  0 0.68435754E+03</rscale>
<asrwt>0</asrwt>
<pdfrwt beam="1">  1        2 0.36116648E+00 0.68435754E+03</pdfrwt>
<pdfrwt beam="2">  1       -2 0.76731196E-02 0.68435754E+03</pdfrwt>
<totfact> 0.46544247E+02</totfact>
</mgrwt>
</event>
<event>
 4    1  0.1806019E-005  0.7606969E+03  0.7818608E-02  0.9618716E-01
         -2   -1    0    0    0  501 -0.00000000000E+00  0.00000000000E+00  0.65257064679E+02  0.65257064729E+02  0.25500000000E-02 0. -1.
          2   -1    0    0  501    0  0.00000000000E+00 -0.00000000000E+00 -0.22168474950E+04  0.22168474950E+04  0.25500000000E-02 0.  1.
   -5000001    1    1    2    0    0  0.92176573191E+02 -0.26665808101E+03 -0.12276419992E+04  0.12842149085E+04  0.25000000000E+03 0.  0.
    5000001    1    1    2    0    0 -0.92176573191E+02  0.26665808101E+03 -0.92394843108E+03  0.99788965127E+03  0.25000000000E+03 0.  0.
<mgrwt>
<rscale>  0 0.76069694E+03</rscale>
<asrwt>0</asrwt>
<pdfrwt beam="1">  1        2 0.34105340E+00 0.76069694E+03</pdfrwt>
<pdfrwt beam="2">  1       -2 0.10039550E-01 0.76069694E+03</pdfrwt>
<totfact> 0.35438927E+02</totfact>
</mgrwt>
</event>
<event>
 4    1  0.1806019E-005  0.7695185E+03  0.7818608E-02  0.9605217E-01
          2   -1    0    0  501    0  0.00000000000E+00  0.00000000000E+00  0.61497566652E+03  0.61497566653E+03  0.25500000000E-02 0.  1.
         -2   -1    0    0    0  501 -0.00000000000E+00 -0.00000000000E+00 -0.24072445537E+03  0.24072445538E+03  0.25500000000E-02 0. -1.
   -5000001    1    1    2    0    0 -0.23970539136E+03  0.16744875001E+03  0.19432561720E+03  0.43099907660E+03  0.25000000000E+03 0.  0.
    5000001    1    1    2    0    0  0.23970539136E+03 -0.16744875001E+03  0.17992559395E+03  0.42470104531E+03  0.25000000000E+03 0.  0.
<mgrwt>
<rscale>  0 0.76951851E+03</rscale>
<asrwt>0</asrwt>
<pdfrwt beam="1">  1        2 0.94611640E-01 0.76951851E+03</pdfrwt>
<pdfrwt beam="2">  1       -2 0.37034532E-01 0.76951851E+03</pdfrwt>
<totfact> 0.33279961E+02</totfact>
</mgrwt>
</event>
<event>
 4    1  0.1806019E-005  0.9906164E+03  0.7818608E-02  0.9318897E-01
          2   -1    0    0  501    0  0.00000000000E+00  0.00000000000E+00  0.10787329724E+04  0.10787329724E+04  0.25500000000E-02 0.  1.
         -2   -1    0    0    0  501 -0.00000000000E+00 -0.00000000000E+00 -0.22742440363E+03  0.22742440365E+03  0.25500000000E-02 0. -1.
   -5000001    1    1    2    0    0  0.18674460682E+03  0.38458248633E+03  0.41605832298E+03  0.64682436958E+03  0.25000000000E+03 0.  0.
    5000001    1    1    2    0    0 -0.18674460682E+03 -0.38458248633E+03  0.43525024583E+03  0.65933300650E+03  0.25000000000E+03 0.  0.
<mgrwt>
<rscale>  0 0.99061638E+03</rscale>
<asrwt>0</asrwt>
<pdfrwt beam="1">  1        2 0.16595892E+00 0.99061638E+03</pdfrwt>
<pdfrwt beam="2">  1       -2 0.34988370E-01 0.99061638E+03</pdfrwt>
<totfact> 0.17173875E+02</totfact>
</mgrwt>
</event>
<event>
 4    1  0.1806019E-005  0.5706821E+03  0.7818608E-02  0.9968170E-01
          2   -1    0    0  501    0  0.00000000000E+00  0.00000000000E+00  0.35277684900E+04  0.35277684900E+04  0.25500000000E-02 0.  1.
         -2   -1    0    0    0  501 -0.00000000000E+00 -0.00000000000E+00 -0.23079608919E+02  0.23079609060E+02  0.25500000000E-02 0. -1.
   -5000001    1    1    2    0    0 -0.58534884342E+01 -0.11266126011E+03  0.22419853146E+04  0.22586998415E+04  0.25000000000E+03 0.  0.
    5000001    1    1    2    0    0  0.58534884342E+01  0.11266126011E+03  0.12627035664E+04  0.12921482575E+04  0.25000000000E+03 0.  0.
<mgrwt>
<rscale>  0 0.57068211E+03</rscale>
<asrwt>0</asrwt>
<pdfrwt beam="1">  1        2 0.54273318E+00 0.57068211E+03</pdfrwt>
<pdfrwt beam="2">  1       -2 0.35507119E-02 0.57068211E+03</pdfrwt>
<totfact> 0.30043123E+02</totfact>
</mgrwt>
</event>
<event>
 4    1  0.1806019E-005  0.7853935E+03  0.7818608E-02  0.9581403E-01
         -2   -1    0    0    0  501 -0.00000000000E+00  0.00000000000E+00  0.15680215774E+03  0.15680215776E+03  0.25500000000E-02 0. -1.
          2   -1    0    0  501    0  0.00000000000E+00 -0.00000000000E+00 -0.98347321440E+03  0.98347321440E+03  0.25500000000E-02 0.  1.
   -5000001    1    1    2    0    0  0.23303662649E+03 -0.72489952213E+02 -0.15301284986E+03  0.38141027081E+03  0.25000000000E+03 0.  0.
    5000001    1    1    2    0    0 -0.23303662649E+03  0.72489952213E+02 -0.67365820680E+03  0.75886510135E+03  0.25000000000E+03 0.  0.
<mgrwt>
<rscale>  0 0.78539346E+03</rscale>
<asrwt>0</asrwt>
<pdfrwt beam="1">  1        2 0.15130357E+00 0.78539346E+03</pdfrwt>
<pdfrwt beam="2">  1       -2 0.24123410E-01 0.78539346E+03</pdfrwt>
<totfact> 0.39667499E+02</totfact>
</mgrwt>
</event>
<event>
 4    1  0.1806019E-005  0.8268794E+03  0.7818608E-02  0.9521905E-01
          2   -1    0    0  501    0  0.00000000000E+00  0.00000000000E+00  0.18411415258E+04  0.18411415258E+04  0.25500000000E-02 0.  1.
         -2   -1    0    0    0  501 -0.00000000000E+00 -0.00000000000E+00 -0.92840435218E+02  0.92840435253E+02  0.25500000000E-02 0. -1.
   -5000001    1    1    2    0    0  0.28493700802E+03  0.74890550527E+02  0.53012906055E+03  0.65599886733E+03  0.25000000000E+03 0.  0.
    5000001    1    1    2    0    0 -0.28493700802E+03 -0.74890550527E+02  0.12181720301E+04  0.12779830937E+04  0.25000000000E+03 0.  0.
<mgrwt>
<rscale>  0 0.82687939E+03</rscale>
<asrwt>0</asrwt>
<pdfrwt beam="1">  1        2 0.28325255E+00 0.82687939E+03</pdfrwt>
<pdfrwt beam="2">  1       -2 0.14283143E-01 0.82687939E+03</pdfrwt>
<totfact> 0.31598348E+02</totfact>
</mgrwt>
</event>
<event>
 4    1  0.1806019E-005  0.6716558E+03  0.7818608E-02  0.9766971E-01
         -2   -1    0    0    0  501 -0.00000000000E+00  0.00000000000E+00  0.10724355878E+03  0.10724355881E+03  0.25500000000E-02 0. -1.
          2   -1    0    0  501    0  0.00000000000E+00 -0.00000000000E+00 -0.10516284936E+04  0.10516284936E+04  0.25500000000E-02 0.  1.
   -5000001    1    1    2    0    0 -0.10590459576E+03  0.13523693460E+03 -0.22349853476E+03  0.37677102718E+03  0.25000000000E+03 0.  0.
    5000001    1    1    2    0    0  0.10590459576E+03 -0.13523693460E+03 -0.72088640004E+03  0.78210102522E+03  0.25000000000E+03 0.  0.
<mgrwt>
<rscale>  0 0.67165581E+03</rscale>
<asrwt>0</asrwt>
<pdfrwt beam="1">  1        2 0.16178899E+00 0.67165581E+03</pdfrwt>
<pdfrwt beam="2">  1       -2 0.16499010E-01 0.67165581E+03</pdfrwt>
<totfact> 0.70129031E+02</totfact>
</mgrwt>
</event>
<event>
 4    1  0.1806019E-005  0.6683594E+03  0.7818608E-02  0.9772926E-01
          2   -1    0    0  501    0  0.00000000000E+00  0.00000000000E+00  0.63118072033E+03  0.63118072034E+03  0.25500000000E-02 0.  1.
         -2   -1    0    0    0  501 -0.00000000000E+00 -0.00000000000E+00 -0.17693201507E+03  0.17693201508E+03  0.25500000000E-02 0. -1.
   -5000001    1    1    2    0    0 -0.36898466305E+02  0.20939776658E+03  0.30327988882E+03  0.44686419909E+03  0.25000000000E+03 0.  0.
    5000001    1    1    2    0    0  0.36898466305E+02 -0.20939776658E+03  0.15096881645E+03  0.36124853633E+03  0.25000000000E+03 0.  0.
<mgrwt>
<rscale>  0 0.66835941E+03</rscale>
<asrwt>0</asrwt>
<pdfrwt beam="1">  1        2 0.97104727E-01 0.66835941E+03</pdfrwt>
<pdfrwt beam="2">  1       -2 0.27220310E-01 0.66835941E+03</pdfrwt>
<totfact> 0.57564084E+02</totfact>
</mgrwt>
</event>
<event>
 4    1  0.1806019E-005  0.6765742E+03  0.7818608E-02  0.9758154E-01
         -2   -1    0    0    0  501 -0.00000000000E+00  0.00000000000E+00  0.92843855834E+02  0.92843855869E+02  0.25500000000E-02 0. -1.
          2   -1    0    0  501    0  0.00000000000E+00 -0.00000000000E+00 -0.12325873046E+04  0.12325873046E+04  0.25500000000E-02 0.  1.
   -5000001    1    1    2    0    0  0.18399324581E+03  0.12929292107E+03 -0.49741440293E+03  0.60040924558E+03  0.25000000000E+03 0.  0.
    5000001    1    1    2    0    0 -0.18399324581E+03 -0.12929292107E+03 -0.64232904586E+03  0.72502191491E+03  0.25000000000E+03 0.  0.
<mgrwt>
<rscale>  0 0.67657419E+03</rscale>
<asrwt>0</asrwt>
<pdfrwt beam="1">  1        2 0.18962880E+00 0.67657419E+03</pdfrwt>
<pdfrwt beam="2">  1       -2 0.14283671E-01 0.67657419E+03</pdfrwt>
<totfact> 0.69662068E+02</totfact>
</mgrwt>
</event>
<event>
 4    1  0.1806019E-005  0.6405576E+03  0.7818608E-02  0.9824660E-01
         -2   -1    0    0    0  501 -0.00000000000E+00  0.00000000000E+00  0.10760641463E+04  0.10760641463E+04  0.25500000000E-02 0. -1.
          2   -1    0    0  501    0  0.00000000000E+00 -0.00000000000E+00 -0.95327509987E+02  0.95327510021E+02  0.25500000000E-02 0.  1.
   -5000001    1    1    2    0    0  0.14625485371E+03  0.98249767291E+02  0.31654485256E+03  0.44016376803E+03  0.25000000000E+03 0.  0.
    5000001    1    1    2    0    0 -0.14625485371E+03 -0.98249767291E+02  0.66419178373E+03  0.73122788826E+03  0.25000000000E+03 0.  0.
<mgrwt>
<rscale>  0 0.64055762E+03</rscale>
<asrwt>0</asrwt>
<pdfrwt beam="1">  1        2 0.14665771E-01 0.64055762E+03</pdfrwt>
<pdfrwt beam="2">  1       -2 0.16554833E+00 0.64055762E+03</pdfrwt>
<totfact> 0.96211175E+01</totfact>
</mgrwt>
</event>
<event>
 4    1  0.1806019E-005  0.6081038E+03  0.7818608E-02  0.9888734E-01
          2   -1    0    0  501    0  0.00000000000E+00  0.00000000000E+00  0.17278499682E+03  0.17278499683E+03  0.25500000000E-02 0.  1.
         -2   -1    0    0    0  501 -0.00000000000E+00 -0.00000000000E+00 -0.53504394828E+03  0.53504394829E+03  0.25500000000E-02 0. -1.
   -5000001    1    1    2    0    0  0.97128745687E+02  0.90788583255E+02 -0.52188581305E+02  0.28792396237E+03  0.25000000000E+03 0.  0.
    5000001    1    1    2    0    0 -0.97128745687E+02 -0.90788583255E+02 -0.31007037016E+03  0.41990498275E+03  0.25000000000E+03 0.  0.
<mgrwt>
<rscale>  0 0.60810383E+03</rscale>
<asrwt>0</asrwt>
<pdfrwt beam="1">  1        2 0.26582308E-01 0.60810383E+03</pdfrwt>
<pdfrwt beam="2">  1       -2 0.82314453E-01 0.60810383E+03</pdfrwt>
<totfact> 0.26764814E+02</totfact>
</mgrwt>
</event>
<event>
 4    1  0.1806019E-005  0.8004997E+03  0.7818608E-02  0.9559294E-01
         -2   -1    0    0    0  501 -0.00000000000E+00  0.00000000000E+00  0.12399364881E+03  0.12399364884E+03  0.25500000000E-02 0. -1.
          2   -1    0    0  501    0  0.00000000000E+00 -0.00000000000E+00 -0.12920013132E+04  0.12920013132E+04  0.25500000000E-02 0.  1.
   -5000001    1    1    2    0    0 -0.30618890234E+03  0.40146745930E+02 -0.49849947651E+03  0.63746775072E+03  0.25000000000E+03 0.  0.
    5000001    1    1    2    0    0  0.30618890234E+03 -0.40146745930E+02 -0.66950818785E+03  0.77852721129E+03  0.25000000000E+03 0.  0.
<mgrwt>
<rscale>  0 0.80049974E+03</rscale>
<asrwt>0</asrwt>
<pdfrwt beam="1">  1        2 0.19876942E+00 0.80049974E+03</pdfrwt>
<pdfrwt beam="2">  1       -2 0.19075947E-01 0.80049974E+03</pdfrwt>
<totfact> 0.39005078E+02</totfact>
</mgrwt>
</event>
<event>
 4    1  0.1806019E-005  0.5560755E+03  0.7818608E-02  0.1000097E+00
         -2   -1    0    0    0  501 -0.00000000000E+00  0.00000000000E+00  0.14436329551E+03  0.14436329554E+03  0.25500000000E-02 0. -1.
          2   -1    0    0  501    0  0.00000000000E+00 -0.00000000000E+00 -0.53548918916E+03  0.53548918916E+03  0.25500000000E-02 0.  1.
   -5000001    1    1    2    0    0 -0.11962979830E+03 -0.20771185822E+02 -0.20520927462E+03  0.34547587063E+03  0.25000000000E+03 0.  0.
    5000001    1    1    2    0    0  0.11962979830E+03  0.20771185822E+02 -0.18591661903E+03  0.33437661406E+03  0.25000000000E+03 0.  0.
<mgrwt>
<rscale>  0 0.55607548E+03</rscale>
<asrwt>0</asrwt>
<pdfrwt beam="1">  1        2 0.82382951E-01 0.55607548E+03</pdfrwt>
<pdfrwt beam="2">  1       -2 0.22209738E-01 0.55607548E+03</pdfrwt>
<totfact> 0.10104307E+03</totfact>
</mgrwt>
</event>
<event>
 4    1  0.1806019E-005  0.8081826E+03  0.7818608E-02  0.9548248E-01
          2   -1    0    0  501    0  0.00000000000E+00  0.00000000000E+00  0.85779765384E+03  0.85779765384E+03  0.25500000000E-02 0. -1.
         -2   -1    0    0    0  501 -0.00000000000E+00 -0.00000000000E+00 -0.19035932832E+03  0.19035932833E+03  0.25500000000E-02 0.  1.
   -5000001    1    1    2    0    0 -0.24092199476E+03  0.19092475558E+03  0.23082655439E+03  0.45855923070E+03  0.25000000000E+03 0.  0.
    5000001    1    1    2    0    0  0.24092199476E+03 -0.19092475558E+03  0.43661177114E+03  0.58959775148E+03  0.25000000000E+03 0.  0.
<mgrwt>
<rscale>  0 0.80818262E+03</rscale>
<asrwt>0</asrwt>
<pdfrwt beam="1">  1        2 0.13196887E+00 0.80818262E+03</pdfrwt>
<pdfrwt beam="2">  1       -2 0.29286051E-01 0.80818262E+03</pdfrwt>
<totfact> 0.33751679E+02</totfact>
</mgrwt>
</event>
<event>
 4    1  0.1806019E-005  0.6147870E+03  0.7818608E-02  0.9875194E-01
          2   -1    0    0  501    0  0.00000000000E+00  0.00000000000E+00  0.94988300913E+03  0.94988300913E+03  0.25500000000E-02 0.  1.
         -2   -1    0    0    0  501 -0.00000000000E+00 -0.00000000000E+00 -0.99476202989E+02  0.99476203022E+02  0.25500000000E-02 0. -1.
   -5000001    1    1    2    0    0 -0.15259695879E+03 -0.46014895351E+01  0.58426054262E+03  0.65358043667E+03  0.25000000000E+03 0.  0.
    5000001    1    1    2    0    0  0.15259695879E+03  0.46014895351E+01  0.26614626353E+03  0.39577877549E+03  0.25000000000E+03 0.  0.
<mgrwt>
<rscale>  0 0.61478697E+03</rscale>
<asrwt>0</asrwt>
<pdfrwt beam="1">  1        2 0.14613584E+00 0.61478697E+03</pdfrwt>
<pdfrwt beam="2">  1       -2 0.15304032E-01 0.61478697E+03</pdfrwt>
<totfact> 0.92621240E+02</totfact>
</mgrwt>
</event>
<event>
 4    1  0.1806019E-005  0.6333726E+03  0.7818608E-02  0.9838489E-01
          2   -1    0    0  501    0  0.00000000000E+00  0.00000000000E+00  0.93131756925E+03  0.93131756925E+03  0.25500000000E-02 0.  1.
         -2   -1    0    0    0  501 -0.00000000000E+00 -0.00000000000E+00 -0.10768638009E+03  0.10768638012E+03  0.25500000000E-02 0. -1.
   -5000001    1    1    2    0    0  0.17223217876E+03  0.66007872793E+02  0.51252862885E+03  0.59933843366E+03  0.25000000000E+03 0.  0.
    5000001    1    1    2    0    0 -0.17223217876E+03 -0.66007872793E+02  0.31110256031E+03  0.43966551571E+03  0.25000000000E+03 0.  0.
<mgrwt>
<rscale>  0 0.63337262E+03</rscale>
<asrwt>0</asrwt>
<pdfrwt beam="1">  1        2 0.14327962E+00 0.63337262E+03</pdfrwt>
<pdfrwt beam="2">  1       -2 0.16567136E-01 0.63337262E+03</pdfrwt>
<totfact> 0.83208486E+02</totfact>
</mgrwt>
</event>
<event>
 4    1  0.1806019E-005  0.5310332E+03  0.7818608E-02  0.1005982E+00
          2   -1    0    0  501    0  0.00000000000E+00  0.00000000000E+00  0.17797448037E+04  0.17797448037E+04  0.25500000000E-02 0.  1.
         -2   -1    0    0    0  501 -0.00000000000E+00 -0.00000000000E+00 -0.39611901527E+02  0.39611901609E+02  0.25500000000E-02 0. -1.
   -5000001    1    1    2    0    0 -0.51868494991E+02 -0.57131359191E+02  0.71514358829E+03  0.76150159872E+03  0.25000000000E+03 0.  0.
    5000001    1    1    2    0    0  0.51868494991E+02  0.57131359191E+02  0.10249893139E+04  0.10578551066E+04  0.25000000000E+03 0.  0.
<mgrwt>
<rscale>  0 0.53103324E+03</rscale>
<asrwt>0</asrwt>
<pdfrwt beam="1">  1        2 0.27380687E+00 0.53103324E+03</pdfrwt>
<pdfrwt beam="2">  1       -2 0.60941392E-02 0.53103324E+03</pdfrwt>
<totfact> 0.13796810E+03</totfact>
</mgrwt>
</event>
<event>
 4    1  0.1806019E-005  0.7231592E+03  0.7818608E-02  0.9678426E-01
          2   -1    0    0  501    0  0.00000000000E+00  0.00000000000E+00  0.17731241734E+04  0.17731241734E+04  0.25500000000E-02 0.  1.
         -2   -1    0    0    0  501 -0.00000000000E+00 -0.00000000000E+00 -0.73734157825E+02  0.73734157869E+02  0.25500000000E-02 0. -1.
   -5000001    1    1    2    0    0 -0.23192856106E+03  0.96650620509E+02  0.66717568619E+03  0.75548368356E+03  0.25000000000E+03 0.  0.
    5000001    1    1    2    0    0  0.23192856106E+03 -0.96650620509E+02  0.10322143294E+04  0.10913746477E+04  0.25000000000E+03 0.  0.
<mgrwt>
<rscale>  0 0.72315923E+03</rscale>
<asrwt>0</asrwt>
<pdfrwt beam="1">  1        2 0.27278830E+00 0.72315923E+03</pdfrwt>
<pdfrwt beam="2">  1       -2 0.11343718E-01 0.72315923E+03</pdfrwt>
<totfact> 0.50856044E+02</totfact>
</mgrwt>
</event>
<event>
 4    1  0.1806019E-005  0.1383320E+04  0.7818608E-02  0.8965982E-01
          2   -1    0    0  501    0  0.00000000000E+00  0.00000000000E+00  0.26057834623E+04  0.26057834623E+04  0.25500000000E-02 0.  1.
         -2   -1    0    0    0  501 -0.00000000000E+00 -0.00000000000E+00 -0.18358912788E+03  0.18358912790E+03  0.25500000000E-02 0. -1.
   -5000001    1    1    2    0    0 -0.38548489119E+03 -0.49057225029E+03  0.15401762589E+04  0.16804471555E+04  0.25000000000E+03 0.  0.
    5000001    1    1    2    0    0  0.38548489119E+03  0.49057225029E+03  0.88201807551E+03  0.11089254347E+04  0.25000000000E+03 0.  0.
<mgrwt>
<rscale>  0 0.13833199E+04</rscale>
<asrwt>0</asrwt>
<pdfrwt beam="1">  1        2 0.40088976E+00 0.13833199E+04</pdfrwt>
<pdfrwt beam="2">  1       -2 0.28244481E-01 0.13833199E+04</pdfrwt>
<totfact> 0.33916279E+01</totfact>
</mgrwt>
</event>
<event>
 4    1  0.1806019E-005  0.1252910E+04  0.7818608E-02  0.9067765E-01
          2   -1    0    0  501    0  0.00000000000E+00  0.00000000000E+00  0.21795230336E+04  0.21795230336E+04  0.25500000000E-02 0.  1.
         -2   -1    0    0    0  501 -0.00000000000E+00 -0.00000000000E+00 -0.18006042832E+03  0.18006042834E+03  0.25500000000E-02 0. -1.
   -5000001    1    1    2    0    0 -0.35461943031E+02  0.56253119705E+03  0.79131604050E+03  0.10031849147E+04  0.25000000000E+03 0.  0.
    5000001    1    1    2    0    0  0.35461943031E+02 -0.56253119705E+03  0.12081465647E+04  0.13563985472E+04  0.25000000000E+03 0.  0.
<mgrwt>
<rscale>  0 0.12529100E+04</rscale>
<asrwt>0</asrwt>
<pdfrwt beam="1">  1        2 0.33531125E+00 0.12529100E+04</pdfrwt>
<pdfrwt beam="2">  1       -2 0.27701604E-01 0.12529100E+04</pdfrwt>
<totfact> 0.62138206E+01</totfact>
</mgrwt>
</event>
<event>
 4    1  0.1806019E-005  0.8674780E+03  0.7818608E-02  0.9467174E-01
          2   -1    0    0  501    0  0.00000000000E+00  0.00000000000E+00  0.22024277685E+04  0.22024277685E+04  0.25500000000E-02 0.  1.
         -2   -1    0    0    0  501 -0.00000000000E+00 -0.00000000000E+00 -0.85419152431E+02  0.85419152469E+02  0.25500000000E-02 0. -1.
   -5000001    1    1    2    0    0  0.24800080111E+03 -0.10950187719E+03  0.16606906752E+04  0.17011433147E+04  0.25000000000E+03 0.  0.
    5000001    1    1    2    0    0 -0.24800080111E+03  0.10950187719E+03  0.45631794090E+03  0.58670360630E+03  0.25000000000E+03 0.  0.
<mgrwt>
<rscale>  0 0.86747798E+03</rscale>
<asrwt>0</asrwt>
<pdfrwt beam="1">  1        2 0.33883497E+00 0.86747798E+03</pdfrwt>
<pdfrwt beam="2">  1       -2 0.13141411E-01 0.86747798E+03</pdfrwt>
<totfact> 0.22950035E+02</totfact>
</mgrwt>
</event>
<event>
 4    1  0.1806019E-005  0.6629040E+03  0.7818608E-02  0.9782863E-01
          2   -1    0    0  501    0  0.00000000000E+00  0.00000000000E+00  0.33180574810E+04  0.33180574810E+04  0.25500000000E-02 0.  1.
         -2   -1    0    0    0  501 -0.00000000000E+00 -0.00000000000E+00 -0.33109859291E+02  0.33109859389E+02  0.25500000000E-02 0. -1.
   -5000001    1    1    2    0    0  0.20391038706E+03 -0.54483632841E+02  0.19105708977E+04  0.19383831065E+04  0.25000000000E+03 0.  0.
    5000001    1    1    2    0    0 -0.20391038706E+03  0.54483632841E+02  0.13743767240E+04  0.14127842340E+04  0.25000000000E+03 0.  0.
<mgrwt>
<rscale>  0 0.66290396E+03</rscale>
<asrwt>0</asrwt>
<pdfrwt beam="1">  1        2 0.51047056E+00 0.66290396E+03</pdfrwt>
<pdfrwt beam="2">  1       -2 0.50938227E-02 0.66290396E+03</pdfrwt>
<totfact> 0.23466528E+02</totfact>
</mgrwt>
</event>
<event>
 4    1  0.1806019E-005  0.8038293E+03  0.7818608E-02  0.9554491E-01
          2   -1    0    0  501    0  0.00000000000E+00  0.00000000000E+00  0.11747788471E+03  0.11747788474E+03  0.25500000000E-02 0.  1.
         -2   -1    0    0    0  501 -0.00000000000E+00 -0.00000000000E+00 -0.13750280947E+04  0.13750280948E+04  0.25500000000E-02 0. -1.
   -5000001    1    1    2    0    0 -0.26968856998E+03 -0.11714342872E+03 -0.42051416511E+03  0.57077725141E+03  0.25000000000E+03 0.  0.
    5000001    1    1    2    0    0  0.26968856998E+03  0.11714342872E+03 -0.83703604492E+03  0.92172872808E+03  0.25000000000E+03 0.  0.
<mgrwt>
<rscale>  0 0.80382932E+03</rscale>
<asrwt>0</asrwt>
<pdfrwt beam="1">  1        2 0.18073522E-01 0.80382932E+03</pdfrwt>
<pdfrwt beam="2">  1       -2 0.21154277E+00 0.80382932E+03</pdfrwt>
<totfact> 0.36411784E+01</totfact>
</mgrwt>
</event>
<event>
 4    1  0.1806019E-005  0.9938466E+03  0.7818608E-02  0.9315320E-01
          2   -1    0    0  501    0  0.00000000000E+00  0.00000000000E+00  0.21859285746E+04  0.21859285746E+04  0.25500000000E-02 0.  1.
         -2   -1    0    0    0  501 -0.00000000000E+00 -0.00000000000E+00 -0.11296471135E+03  0.11296471138E+03  0.25500000000E-02 0. -1.
   -5000001    1    1    2    0    0 -0.41621475150E+03 -0.21060755939E+02  0.12763623861E+04  0.13657522526E+04  0.25000000000E+03 0.  0.
    5000001    1    1    2    0    0  0.41621475150E+03  0.21060755939E+02  0.79660147714E+03  0.93314103338E+03  0.25000000000E+03 0.  0.
<mgrwt>
<rscale>  0 0.99384665E+03</rscale>
<asrwt>0</asrwt>
<pdfrwt beam="1">  1        2 0.33629670E+00 0.99384665E+03</pdfrwt>
<pdfrwt beam="2">  1       -2 0.17379187E-01 0.99384665E+03</pdfrwt>
<totfact> 0.14433920E+02</totfact>
</mgrwt>
</event>
<event>
 4    1  0.1806019E-005  0.5396316E+03  0.7818608E-02  0.1003923E+00
          2   -1    0    0  501    0  0.00000000000E+00  0.00000000000E+00  0.23242809937E+04  0.23242809937E+04  0.25500000000E-02 0.  1.
         -2   -1    0    0    0  501 -0.00000000000E+00 -0.00000000000E+00 -0.31321754040E+02  0.31321754144E+02  0.25500000000E-02 0. -1.
   -5000001    1    1    2    0    0  0.34251178497E+02  0.95533391765E+02  0.11503485788E+04  0.11815674441E+04  0.25000000000E+03 0.  0.
    5000001    1    1    2    0    0 -0.34251178497E+02 -0.95533391765E+02  0.11426106608E+04  0.11740353037E+04  0.25000000000E+03 0.  0.
<mgrwt>
<rscale>  0 0.53963157E+03</rscale>
<asrwt>0</asrwt>
<pdfrwt beam="1">  1        2 0.35758176E+00 0.53963157E+03</pdfrwt>
<pdfrwt beam="2">  1       -2 0.48187304E-02 0.53963157E+03</pdfrwt>
<totfact> 0.10065607E+03</totfact>
</mgrwt>
</event>
<event>
 4    1  0.1806019E-005  0.8077178E+03  0.7818608E-02  0.9548913E-01
          2   -1    0    0  501    0  0.00000000000E+00  0.00000000000E+00  0.13298700906E+03  0.13298700908E+03  0.25500000000E-02 0.  1.
         -2   -1    0    0    0  501 -0.00000000000E+00 -0.00000000000E+00 -0.12264508245E+04  0.12264508245E+04  0.25500000000E-02 0. -1.
   -5000001    1    1    2    0    0  0.31213412550E+03 -0.53250743889E+02 -0.51575843535E+03  0.65480540442E+03  0.25000000000E+03 0.  0.
    5000001    1    1    2    0    0 -0.31213412550E+03  0.53250743889E+02 -0.57770538007E+03  0.70463242913E+03  0.25000000000E+03 0.  0.
<mgrwt>
<rscale>  0 0.80771784E+03</rscale>
<asrwt>0</asrwt>
<pdfrwt beam="1">  1        2 0.20459541E-01 0.80771784E+03</pdfrwt>
<pdfrwt beam="2">  1       -2 0.18868473E+00 0.80771784E+03</pdfrwt>
<totfact> 0.44280514E+01</totfact>
</mgrwt>
</event>
<event>
 4    1  0.1806019E-005  0.7936463E+03  0.7818608E-02  0.9569260E-01
          2   -1    0    0  501    0  0.00000000000E+00  0.00000000000E+00  0.21093814698E+04  0.21093814698E+04  0.25500000000E-02 0.  1.
         -2   -1    0    0    0  501 -0.00000000000E+00 -0.00000000000E+00 -0.74651555753E+02  0.74651555796E+02  0.25500000000E-02 0. -1.
   -5000001    1    1    2    0    0  0.24885254038E+03  0.17468520018E+03  0.87905364876E+03  0.96316033110E+03  0.25000000000E+03 0.  0.
    5000001    1    1    2    0    0 -0.24885254038E+03 -0.17468520018E+03  0.11556762653E+04  0.12208726945E+04  0.25000000000E+03 0.  0.
<mgrwt>
<rscale>  0 0.79364629E+03</rscale>
<asrwt>0</asrwt>
<pdfrwt beam="1">  1        2 0.32452016E+00 0.79364629E+03</pdfrwt>
<pdfrwt beam="2">  1       -2 0.11484857E-01 0.79364629E+03</pdfrwt>
<totfact> 0.32492537E+02</totfact>
</mgrwt>
</event>
<event>
 4    1  0.1806019E-005  0.1202216E+04  0.7818608E-02  0.9110919E-01
          2   -1    0    0  501    0  0.00000000000E+00  0.00000000000E+00  0.97029403893E+03  0.97029403894E+03  0.25500000000E-02 0.  1.
         -2   -1    0    0    0  501 -0.00000000000E+00 -0.00000000000E+00 -0.37239324119E+03  0.37239324120E+03  0.25500000000E-02 0. -1.
   -5000001    1    1    2    0    0  0.35680937612E+03 -0.39818143297E+03  0.17175983758E+03  0.61470547928E+03  0.25000000000E+03 0.  0.
    5000001    1    1    2    0    0 -0.35680937612E+03  0.39818143297E+03  0.42614096016E+03  0.72798180086E+03  0.25000000000E+03 0.  0.
<mgrwt>
<rscale>  0 0.12022162E+04</rscale>
<asrwt>0</asrwt>
<pdfrwt beam="1">  1        2 0.14927600E+00 0.12022162E+04</pdfrwt>
<pdfrwt beam="2">  1       -2 0.57291269E-01 0.12022162E+04</pdfrwt>
<totfact> 0.74165379E+01</totfact>
</mgrwt>
</event>
<event>
 4    1  0.1806019E-005  0.5521745E+03  0.7818608E-02  0.1000992E+00
         -2   -1    0    0    0  501 -0.00000000000E+00  0.00000000000E+00  0.53176108018E+02  0.53176108079E+02  0.25500000000E-02 0. -1.
          2   -1    0    0  501    0  0.00000000000E+00 -0.00000000000E+00 -0.14334288632E+04  0.14334288632E+04  0.25500000000E-02 0.  1.
   -5000001    1    1    2    0    0 -0.14662425644E+02 -0.86820865594E+02 -0.89816997905E+03  0.93646257837E+03  0.25000000000E+03 0.  0.
    5000001    1    1    2    0    0  0.14662425644E+02  0.86820865594E+02 -0.48208277611E+03  0.55014239288E+03  0.25000000000E+03 0.  0.
<mgrwt>
<rscale>  0 0.55217449E+03</rscale>
<asrwt>0</asrwt>
<pdfrwt beam="1">  1        2 0.22052749E+00 0.55217449E+03</pdfrwt>
<pdfrwt beam="2">  1       -2 0.81809408E-02 0.55217449E+03</pdfrwt>
<totfact> 0.13379187E+03</totfact>
</mgrwt>
</event>
<event>
 4    1  0.1806019E-005  0.7220221E+03  0.7818608E-02  0.9680295E-01
          2   -1    0    0  501    0  0.00000000000E+00  0.00000000000E+00  0.71993503800E+03  0.71993503800E+03  0.25500000000E-02 0.  1.
         -2   -1    0    0    0  501 -0.00000000000E+00 -0.00000000000E+00 -0.18102877950E+03  0.18102877952E+03  0.25500000000E-02 0. -1.
   -5000001    1    1    2    0    0 -0.84505361990E+02  0.21617599260E+03  0.41686532140E+03  0.53865565269E+03  0.25000000000E+03 0.  0.
    5000001    1    1    2    0    0  0.84505361990E+02 -0.21617599260E+03  0.12204093709E+03  0.36230816484E+03  0.25000000000E+03 0.  0.
<mgrwt>
<rscale>  0 0.72202205E+03</rscale>
<asrwt>0</asrwt>
<pdfrwt beam="1">  1        2 0.11075924E+00 0.72202205E+03</pdfrwt>
<pdfrwt beam="2">  1       -2 0.27850581E-01 0.72202205E+03</pdfrwt>
<totfact> 0.46790407E+02</totfact>
</mgrwt>
</event>
<event>
 4    1  0.1806019E-005  0.8457816E+03  0.7818608E-02  0.9496016E-01
         -2   -1    0    0    0  501 -0.00000000000E+00  0.00000000000E+00  0.20489481322E+03  0.20489481324E+03  0.25500000000E-02 0. -1.
          2   -1    0    0  501    0  0.00000000000E+00 -0.00000000000E+00 -0.87282157467E+03  0.87282157468E+03  0.25500000000E-02 0.  1.
   -5000001    1    1    2    0    0  0.63619080500E+02  0.29176698436E+03 -0.12396247268E+03  0.40870778706E+03  0.25000000000E+03 0.  0.
    5000001    1    1    2    0    0 -0.63619080500E+02 -0.29176698436E+03 -0.54396428877E+03  0.66900860086E+03  0.25000000000E+03 0.  0.
<mgrwt>
<rscale>  0 0.84578156E+03</rscale>
<asrwt>0</asrwt>
<pdfrwt beam="1">  1        2 0.13428024E+00 0.84578156E+03</pdfrwt>
<pdfrwt beam="2">  1       -2 0.31522279E-01 0.84578156E+03</pdfrwt>
<totfact> 0.28689897E+02</totfact>
</mgrwt>
</event>
<event>
 4    1  0.1806019E-005  0.6716976E+03  0.7818608E-02  0.9766896E-01
         -2   -1    0    0    0  501 -0.00000000000E+00  0.00000000000E+00  0.10742855304E+03  0.10742855307E+03  0.25500000000E-02 0. -1.
          2   -1    0    0  501    0  0.00000000000E+00 -0.00000000000E+00 -0.10499482120E+04  0.10499482120E+04  0.25500000000E-02 0.  1.
   -5000001    1    1    2    0    0  0.92147741148E+02 -0.18701952392E+03 -0.32889162485E+03  0.46274961850E+03  0.25000000000E+03 0.  0.
    5000001    1    1    2    0    0 -0.92147741148E+02  0.18701952392E+03 -0.61362803415E+03  0.69462714662E+03  0.25000000000E+03 0.  0.
<mgrwt>
<rscale>  0 0.67169760E+03</rscale>
<asrwt>0</asrwt>
<pdfrwt beam="1">  1        2 0.16153049E+00 0.67169760E+03</pdfrwt>
<pdfrwt beam="2">  1       -2 0.16527470E-01 0.67169760E+03</pdfrwt>
<totfact> 0.70091353E+02</totfact>
</mgrwt>
</event>
<event>
 4    1  0.1806019E-005  0.8425844E+03  0.7818608E-02  0.9500344E-01
         -2   -1    0    0    0  501 -0.00000000000E+00  0.00000000000E+00  0.13518777101E+03  0.13518777103E+03  0.25500000000E-02 0. -1.
          2   -1    0    0  501    0  0.00000000000E+00 -0.00000000000E+00 -0.13128931890E+04  0.13128931890E+04  0.25500000000E-02 0.  1.
   -5000001    1    1    2    0    0 -0.32921959599E+03 -0.69018311489E+02 -0.66253383071E+03  0.78396437836E+03  0.25000000000E+03 0.  0.
    5000001    1    1    2    0    0  0.32921959599E+03  0.69018311489E+02 -0.51517158730E+03  0.66411658168E+03  0.25000000000E+03 0.  0.
<mgrwt>
<rscale>  0 0.84258437E+03</rscale>
<asrwt>0</asrwt>
<pdfrwt beam="1">  1        2 0.20198356E+00 0.84258437E+03</pdfrwt>
<pdfrwt beam="2">  1       -2 0.20798120E-01 0.84258437E+03</pdfrwt>
<totfact> 0.32533020E+02</totfact>
</mgrwt>
</event>
<event>
 4    1  0.1806019E-005  0.6654647E+03  0.7818608E-02  0.9778186E-01
          2   -1    0    0  501    0  0.00000000000E+00  0.00000000000E+00  0.15285436910E+04  0.15285436910E+04  0.25500000000E-02 0.  1.
         -2   -1    0    0    0  501 -0.00000000000E+00 -0.00000000000E+00 -0.72428941928E+02  0.72428941973E+02  0.25500000000E-02 0. -1.
   -5000001    1    1    2    0    0 -0.21458959429E+03 -0.26298530213E+01  0.83974419132E+03  0.90206757893E+03  0.25000000000E+03 0.  0.
    5000001    1    1    2    0    0  0.21458959429E+03  0.26298530213E+01  0.61637055775E+03  0.69890505404E+03  0.25000000000E+03 0.  0.
<mgrwt>
<rscale>  0 0.66546466E+03</rscale>
<asrwt>0</asrwt>
<pdfrwt beam="1">  1        2 0.23516055E+00 0.66546466E+03</pdfrwt>
<pdfrwt beam="2">  1       -2 0.11142915E-01 0.66546466E+03</pdfrwt>
<totfact> 0.71543066E+02</totfact>
</mgrwt>
</event>
<event>
 4    1  0.1806019E-005  0.6286768E+03  0.7818608E-02  0.9847634E-01
         -2   -1    0    0    0  501 -0.00000000000E+00  0.00000000000E+00  0.26691111759E+03  0.26691111760E+03  0.25500000000E-02 0. -1.
          2   -1    0    0  501    0  0.00000000000E+00 -0.00000000000E+00 -0.37019304249E+03  0.37019304250E+03  0.25500000000E-02 0.  1.
   -5000001    1    1    2    0    0 -0.39362064310E+02  0.16454413336E+03 -0.14047730027E+03  0.33295347396E+03  0.25000000000E+03 0.  0.
    5000001    1    1    2    0    0  0.39362064310E+02 -0.16454413336E+03  0.37195375375E+02  0.30415068614E+03  0.25000000000E+03 0.  0.
<mgrwt>
<rscale>  0 0.62867683E+03</rscale>
<asrwt>0</asrwt>
<pdfrwt beam="1">  1        2 0.56952776E-01 0.62867683E+03</pdfrwt>
<pdfrwt beam="2">  1       -2 0.41063249E-01 0.62867683E+03</pdfrwt>
<totfact> 0.49135670E+02</totfact>
</mgrwt>
</event>
<event>
 4    1  0.1806019E-005  0.9089223E+03  0.7818608E-02  0.9414496E-01
         -2   -1    0    0    0  501 -0.00000000000E+00  0.00000000000E+00  0.20907227762E+03  0.20907227764E+03  0.25500000000E-02 0. -1.
          2   -1    0    0  501    0  0.00000000000E+00 -0.00000000000E+00 -0.98786373397E+03  0.98786373398E+03  0.25500000000E-02 0.  1.
   -5000001    1    1    2    0    0  0.25429810735E+03 -0.26186195292E+03 -0.52622210214E+03  0.68749466221E+03  0.25000000000E+03 0.  0.
    5000001    1    1    2    0    0 -0.25429810735E+03  0.26186195292E+03 -0.25256935421E+03  0.50944134940E+03  0.25000000000E+03 0.  0.
<mgrwt>
<rscale>  0 0.90892226E+03</rscale>
<asrwt>0</asrwt>
<pdfrwt beam="1">  1        2 0.15197903E+00 0.90892226E+03</pdfrwt>
<pdfrwt beam="2">  1       -2 0.32164966E-01 0.90892226E+03</pdfrwt>
<totfact> 0.23094510E+02</totfact>
</mgrwt>
</event>
<event>
 4    1  0.1806019E-005  0.8335098E+03  0.7818608E-02  0.9512741E-01
          2   -1    0    0  501    0  0.00000000000E+00  0.00000000000E+00  0.57049837853E+03  0.57049837853E+03  0.25500000000E-02 0.  1.
         -2   -1    0    0    0  501 -0.00000000000E+00 -0.00000000000E+00 -0.30444372571E+03  0.30444372572E+03  0.25500000000E-02 0. -1.
   -5000001    1    1    2    0    0 -0.19133446688E+03 -0.22133416369E+03  0.30093786644E+03  0.48852972243E+03  0.25000000000E+03 0.  0.
    5000001    1    1    2    0    0  0.19133446688E+03  0.22133416369E+03 -0.34883213623E+02  0.38641238182E+03  0.25000000000E+03 0.  0.
<mgrwt>
<rscale>  0 0.83350981E+03</rscale>
<asrwt>0</asrwt>
<pdfrwt beam="1">  1        2 0.87768982E-01 0.83350981E+03</pdfrwt>
<pdfrwt beam="2">  1       -2 0.46837496E-01 0.83350981E+03</pdfrwt>
<totfact> 0.22902571E+02</totfact>
</mgrwt>
</event>
<event>
 4    1  0.1806019E-005  0.5675862E+03  0.7818608E-02  0.9975034E-01
          2   -1    0    0  501    0  0.00000000000E+00  0.00000000000E+00  0.64070579009E+02  0.64070579059E+02  0.25500000000E-02 0.  1.
         -2   -1    0    0    0  501 -0.00000000000E+00 -0.00000000000E+00 -0.12570281963E+04  0.12570281964E+04  0.25500000000E-02 0. -1.
   -5000001    1    1    2    0    0  0.74708722407E+02 -0.51447138862E+02 -0.36593943139E+03  0.45237138365E+03  0.25000000000E+03 0.  0.
    5000001    1    1    2    0    0 -0.74708722407E+02  0.51447138862E+02 -0.82701818595E+03  0.86872739176E+03  0.25000000000E+03 0.  0.
<mgrwt>
<rscale>  0 0.56758620E+03</rscale>
<asrwt>0</asrwt>
<pdfrwt beam="1">  1        2 0.98570131E-02 0.56758620E+03</pdfrwt>
<pdfrwt beam="2">  1       -2 0.19338893E+00 0.56758620E+03</pdfrwt>
<totfact> 0.10212141E+02</totfact>
</mgrwt>
</event>
<event>
 4    1  0.1806019E-005  0.1752527E+04  0.7818608E-02  0.8731960E-01
         -2   -1    0    0    0  501 -0.00000000000E+00  0.00000000000E+00  0.39351779321E+03  0.39351779321E+03  0.25500000000E-02 0. -1.
          2   -1    0    0  501    0  0.00000000000E+00 -0.00000000000E+00 -0.19512150318E+04  0.19512150318E+04  0.25500000000E-02 0.  1.
   -5000001    1    1    2    0    0 -0.27404349819E+03 -0.68357928994E+03 -0.13189379393E+04  0.15311687602E+04  0.25000000000E+03 0.  0.
    5000001    1    1    2    0    0  0.27404349819E+03  0.68357928994E+03 -0.23875929930E+03  0.81356406480E+03  0.25000000000E+03 0.  0.
<mgrwt>
<rscale>  0 0.17525271E+04</rscale>
<asrwt>0</asrwt>
<pdfrwt beam="1">  1        2 0.30018692E+00 0.17525271E+04</pdfrwt>
<pdfrwt beam="2">  1       -2 0.60541200E-01 0.17525271E+04</pdfrwt>
<totfact> 0.17125802E+01</totfact>
</mgrwt>
</event>
<event>
 4    1  0.1806019E-005  0.6406277E+03  0.7818608E-02  0.9824526E-01
         -2   -1    0    0    0  501 -0.00000000000E+00  0.00000000000E+00  0.48539118861E+02  0.48539118928E+02  0.25500000000E-02 0. -1.
          2   -1    0    0  501    0  0.00000000000E+00 -0.00000000000E+00 -0.21137788134E+04  0.21137788134E+04  0.25500000000E-02 0.  1.
   -5000001    1    1    2    0    0  0.12355046823E+03 -0.15113357541E+03 -0.88186447144E+03  0.93717182086E+03  0.25000000000E+03 0.  0.
    5000001    1    1    2    0    0 -0.12355046823E+03  0.15113357541E+03 -0.11833752231E+04  0.12251461115E+04  0.25000000000E+03 0.  0.
<mgrwt>
<rscale>  0 0.64062770E+03</rscale>
<asrwt>0</asrwt>
<pdfrwt beam="1">  1        2 0.32519667E+00 0.64062770E+03</pdfrwt>
<pdfrwt beam="2">  1       -2 0.74675584E-02 0.64062770E+03</pdfrwt>
<totfact> 0.65591546E+02</totfact>
</mgrwt>
</event>
<event>
 4    1  0.1806019E-005  0.9557954E+03  0.7818608E-02  0.9358402E-01
          2   -1    0    0  501    0  0.00000000000E+00  0.00000000000E+00  0.34754684141E+03  0.34754684142E+03  0.25500000000E-02 0.  1.
         -2   -1    0    0    0  501 -0.00000000000E+00 -0.00000000000E+00 -0.65713788707E+03  0.65713788707E+03  0.25500000000E-02 0. -1.
   -5000001    1    1    2    0    0 -0.35524811103E+03  0.18408461587E+03 -0.23483378471E+03  0.52700595123E+03  0.25000000000E+03 0.  0.
    5000001    1    1    2    0    0  0.35524811103E+03 -0.18408461587E+03 -0.74757260951E+02  0.47767877727E+03  0.25000000000E+03 0.  0.
<mgrwt>
<rscale>  0 0.95579537E+03</rscale>
<asrwt>0</asrwt>
<pdfrwt beam="1">  1        2 0.53468745E-01 0.95579537E+03</pdfrwt>
<pdfrwt beam="2">  1       -2 0.10109814E+00 0.95579537E+03</pdfrwt>
<totfact> 0.75022563E+01</totfact>
</mgrwt>
</event>
<event>
 4    1  0.1806019E-005  0.7437488E+03  0.7818608E-02  0.9645209E-01
          2   -1    0    0  501    0  0.00000000000E+00  0.00000000000E+00  0.18814233679E+03  0.18814233681E+03  0.25500000000E-02 0.  1.
         -2   -1    0    0    0  501 -0.00000000000E+00 -0.00000000000E+00 -0.73503170614E+03  0.73503170614E+03  0.25500000000E-02 0. -1.
   -5000001    1    1    2    0    0 -0.55932360366E+01  0.27447365149E+03 -0.24790057646E+03  0.44645466227E+03  0.25000000000E+03 0.  0.
    5000001    1    1    2    0    0  0.55932360366E+01 -0.27447365149E+03 -0.29898879288E+03  0.47671938068E+03  0.25000000000E+03 0.  0.
<mgrwt>
<rscale>  0 0.74374884E+03</rscale>
<asrwt>0</asrwt>
<pdfrwt beam="1">  1        2 0.28944975E-01 0.74374884E+03</pdfrwt>
<pdfrwt beam="2">  1       -2 0.11308180E+00 0.74374884E+03</pdfrwt>
<totfact> 0.11492882E+02</totfact>
</mgrwt>
</event>
<event>
 4    1  0.1806019E-005  0.6533732E+03  0.7818608E-02  0.9800470E-01
         -2   -1    0    0    0  501 -0.00000000000E+00  0.00000000000E+00  0.14773066978E+03  0.14773066980E+03  0.25500000000E-02 0. -1.
          2   -1    0    0  501    0  0.00000000000E+00 -0.00000000000E+00 -0.72242369986E+03  0.72242369986E+03  0.25500000000E-02 0.  1.
   -5000001    1    1    2    0    0  0.16255034005E+03 -0.10918333400E+03 -0.38947408108E+03  0.50252728613E+03  0.25000000000E+03 0.  0.
    5000001    1    1    2    0    0 -0.16255034005E+03  0.10918333400E+03 -0.18521894900E+03  0.36762708353E+03  0.25000000000E+03 0.  0.
<mgrwt>
<rscale>  0 0.65337321E+03</rscale>
<asrwt>0</asrwt>
<pdfrwt beam="1">  1        2 0.11114211E+00 0.65337321E+03</pdfrwt>
<pdfrwt beam="2">  1       -2 0.22727796E-01 0.65337321E+03</pdfrwt>
<totfact> 0.67348443E+02</totfact>
</mgrwt>
</event>
<event>
 4    1  0.1806019E-005  0.6496527E+03  0.7818608E-02  0.9807431E-01
         -2   -1    0    0    0  501 -0.00000000000E+00  0.00000000000E+00  0.10628094454E+03  0.10628094457E+03  0.25500000000E-02 0. -1.
          2   -1    0    0  501    0  0.00000000000E+00 -0.00000000000E+00 -0.99276642411E+03  0.99276642412E+03  0.25500000000E-02 0.  1.
   -5000001    1    1    2    0    0 -0.17766808946E+03  0.47020715916E+02 -0.28066554311E+03  0.41838982400E+03  0.25000000000E+03 0.  0.
    5000001    1    1    2    0    0  0.17766808946E+03 -0.47020715916E+02 -0.60581993645E+03  0.68065754469E+03  0.25000000000E+03 0.  0.
<mgrwt>
<rscale>  0 0.64965269E+03</rscale>
<asrwt>0</asrwt>
<pdfrwt beam="1">  1        2 0.15273329E+00 0.64965269E+03</pdfrwt>
<pdfrwt beam="2">  1       -2 0.16350915E-01 0.64965269E+03</pdfrwt>
<totfact> 0.77611420E+02</totfact>
</mgrwt>
</event>
<event>
 4    1  0.1806019E-005  0.8587147E+03  0.7818608E-02  0.9478714E-01
         -2   -1    0    0    0  501 -0.00000000000E+00  0.00000000000E+00  0.12040353167E+03  0.12040353170E+03  0.25500000000E-02 0. -1.
          2   -1    0    0  501    0  0.00000000000E+00 -0.00000000000E+00 -0.15310824440E+04  0.15310824440E+04  0.25500000000E-02 0.  1.
   -5000001    1    1    2    0    0  0.22301073710E+03  0.26607986837E+03 -0.63558645596E+03  0.76616083704E+03  0.25000000000E+03 0.  0.
    5000001    1    1    2    0    0 -0.22301073710E+03 -0.26607986837E+03 -0.77509245633E+03  0.88532513863E+03  0.25000000000E+03 0.  0.
<mgrwt>
<rscale>  0 0.85871470E+03</rscale>
<asrwt>0</asrwt>
<pdfrwt beam="1">  1        2 0.23555113E+00 0.85871470E+03</pdfrwt>
<pdfrwt beam="2">  1       -2 0.18523621E-01 0.85871470E+03</pdfrwt>
<totfact> 0.29950344E+02</totfact>
</mgrwt>
</event>
<event>
 4    1  0.1806019E-005  0.7515659E+03  0.7818608E-02  0.9632897E-01
          2   -1    0    0  501    0  0.00000000000E+00  0.00000000000E+00  0.18221321831E+03  0.18221321833E+03  0.25500000000E-02 0.  1.
         -2   -1    0    0    0  501 -0.00000000000E+00 -0.00000000000E+00 -0.77498672888E+03  0.77498672889E+03  0.25500000000E-02 0. -1.
   -5000001    1    1    2    0    0 -0.26565408351E+03 -0.63294138634E+02 -0.37828066605E+03  0.52931512578E+03  0.25000000000E+03 0.  0.
    5000001    1    1    2    0    0  0.26565408351E+03  0.63294138634E+02 -0.21449284452E+03  0.42788482144E+03  0.25000000000E+03 0.  0.
<mgrwt>
<rscale>  0 0.75156590E+03</rscale>
<asrwt>0</asrwt>
<pdfrwt beam="1">  1        2 0.28032803E-01 0.75156590E+03</pdfrwt>
<pdfrwt beam="2">  1       -2 0.11922873E+00 0.75156590E+03</pdfrwt>
<totfact> 0.10466842E+02</totfact>
</mgrwt>
</event>
<event>
 4    1  0.1806019E-005  0.5897433E+03  0.7818608E-02  0.9926917E-01
         -2   -1    0    0    0  501 -0.00000000000E+00  0.00000000000E+00  0.38211847448E+02  0.38211847533E+02  0.25500000000E-02 0. -1.
          2   -1    0    0  501    0  0.00000000000E+00 -0.00000000000E+00 -0.22754540782E+04  0.22754540782E+04  0.25500000000E-02 0.  1.
   -5000001    1    1    2    0    0  0.14276980752E+03  0.63087950607E+02 -0.10822397791E+04  0.11216533542E+04  0.25000000000E+03 0.  0.
    5000001    1    1    2    0    0 -0.14276980752E+03 -0.63087950607E+02 -0.11550024516E+04  0.11920125715E+04  0.25000000000E+03 0.  0.
<mgrwt>
<rscale>  0 0.58974335E+03</rscale>
<asrwt>0</asrwt>
<pdfrwt beam="1">  1        2 0.35006975E+00 0.58974335E+03</pdfrwt>
<pdfrwt beam="2">  1       -2 0.58787475E-02 0.58974335E+03</pdfrwt>
<totfact> 0.78300734E+02</totfact>
</mgrwt>
</event>
<event>
 4    1  0.1806019E-005  0.8158765E+03  0.7818608E-02  0.9537317E-01
          2   -1    0    0  501    0  0.00000000000E+00  0.00000000000E+00  0.27778367921E+04  0.27778367921E+04  0.25500000000E-02 0.  1.
         -2   -1    0    0    0  501 -0.00000000000E+00 -0.00000000000E+00 -0.59907629784E+02  0.59907629839E+02  0.25500000000E-02 0. -1.
   -5000001    1    1    2    0    0 -0.26787426272E+03 -0.16320300722E+03  0.16174215489E+04  0.16664166073E+04  0.25000000000E+03 0.  0.
    5000001    1    1    2    0    0  0.26787426272E+03  0.16320300722E+03  0.11005076134E+04  0.11713278146E+04  0.25000000000E+03 0.  0.
<mgrwt>
<rscale>  0 0.81587651E+03</rscale>
<asrwt>0</asrwt>
<pdfrwt beam="1">  1        2 0.42735943E+00 0.81587651E+03</pdfrwt>
<pdfrwt beam="2">  1       -2 0.92165602E-02 0.81587651E+03</pdfrwt>
<totfact> 0.19434442E+02</totfact>
</mgrwt>
</event>
<event>
 4    1  0.1806019E-005  0.5976160E+03  0.7818608E-02  0.9910365E-01
         -2   -1    0    0    0  501 -0.00000000000E+00  0.00000000000E+00  0.49411187465E+02  0.49411187531E+02  0.25500000000E-02 0. -1.
          2   -1    0    0  501    0  0.00000000000E+00 -0.00000000000E+00 -0.18070039961E+04  0.18070039961E+04  0.25500000000E-02 0.  1.
   -5000001    1    1    2    0    0 -0.15681821762E+03 -0.29979035349E+02 -0.99060482845E+03  0.10340641286E+04  0.25000000000E+03 0.  0.
    5000001    1    1    2    0    0  0.15681821762E+03  0.29979035349E+02 -0.76698798015E+03  0.82235105498E+03  0.25000000000E+03 0.  0.
<mgrwt>
<rscale>  0 0.59761597E+03</rscale>
<asrwt>0</asrwt>
<pdfrwt beam="1">  1        2 0.27800056E+00 0.59761597E+03</pdfrwt>
<pdfrwt beam="2">  1       -2 0.76017226E-02 0.59761597E+03</pdfrwt>
<totfact> 0.93791173E+02</totfact>
</mgrwt>
</event>
<event>
 4    1  0.1806019E-005  0.6342938E+03  0.7818608E-02  0.9836705E-01
         -2   -1    0    0    0  501 -0.00000000000E+00  0.00000000000E+00  0.15544186117E+03  0.15544186119E+03  0.25500000000E-02 0. -1.
          2   -1    0    0  501    0  0.00000000000E+00 -0.00000000000E+00 -0.64707259466E+03  0.64707259466E+03  0.25500000000E-02 0.  1.
   -5000001    1    1    2    0    0  0.11319251184E+03  0.64924860697E+02 -0.62231859108E+02  0.28879159711E+03  0.25000000000E+03 0.  0.
    5000001    1    1    2    0    0 -0.11319251184E+03 -0.64924860697E+02 -0.42939887438E+03  0.51372285874E+03  0.25000000000E+03 0.  0.
<mgrwt>
<rscale>  0 0.63429384E+03</rscale>
<asrwt>0</asrwt>
<pdfrwt beam="1">  1        2 0.99549629E-01 0.63429384E+03</pdfrwt>
<pdfrwt beam="2">  1       -2 0.23914133E-01 0.63429384E+03</pdfrwt>
<totfact> 0.70603756E+02</totfact>
</mgrwt>
</event>
<event>
 4    1  0.1806019E-005  0.1552160E+04  0.7818608E-02  0.8850489E-01
         -2   -1    0    0    0  501 -0.00000000000E+00  0.00000000000E+00  0.11067899461E+04  0.11067899461E+04  0.25500000000E-02 0. -1.
          2   -1    0    0  501    0  0.00000000000E+00 -0.00000000000E+00 -0.54418661351E+03  0.54418661351E+03  0.25500000000E-02 0.  1.
   -5000001    1    1    2    0    0 -0.51042979020E+03 -0.51885546503E+03  0.17466594363E+03  0.78915002134E+03  0.25000000000E+03 0.  0.
    5000001    1    1    2    0    0  0.51042979020E+03  0.51885546503E+03  0.38793738897E+03  0.86182653828E+03  0.25000000000E+03 0.  0.
<mgrwt>
<rscale>  0 0.15521601E+04</rscale>
<asrwt>0</asrwt>
<pdfrwt beam="1">  1        2 0.83721019E-01 0.15521601E+04</pdfrwt>
<pdfrwt beam="2">  1       -2 0.17027537E+00 0.15521601E+04</pdfrwt>
<totfact> 0.11372763E+01</totfact>
</mgrwt>
</event>
<event>
 4    1  0.1806019E-005  0.5224798E+03  0.7818608E-02  0.1008072E+00
          2   -1    0    0  501    0  0.00000000000E+00  0.00000000000E+00  0.20866831606E+04  0.20866831606E+04  0.25500000000E-02 0.  1.
         -2   -1    0    0    0  501 -0.00000000000E+00 -0.00000000000E+00 -0.32705625186E+02  0.32705625286E+02  0.25500000000E-02 0. -1.
   -5000001    1    1    2    0    0 -0.77672347123E+01 -0.75379428167E+02  0.10349885405E+04  0.10674472667E+04  0.25000000000E+03 0.  0.
    5000001    1    1    2    0    0  0.77672347123E+01  0.75379428167E+02  0.10189889949E+04  0.10519415192E+04  0.25000000000E+03 0.  0.
<mgrwt>
<rscale>  0 0.52247977E+03</rscale>
<asrwt>0</asrwt>
<pdfrwt beam="1">  1        2 0.32102817E+00 0.52247977E+03</pdfrwt>
<pdfrwt beam="2">  1       -2 0.50316347E-02 0.52247977E+03</pdfrwt>
<totfact> 0.12703778E+03</totfact>
</mgrwt>
</event>
<event>
 4    1  0.1806019E-005  0.7298184E+03  0.7818608E-02  0.9667555E-01
          2   -1    0    0  501    0  0.00000000000E+00  0.00000000000E+00  0.33055520670E+03  0.33055520671E+03  0.25500000000E-02 0.  1.
         -2   -1    0    0    0  501 -0.00000000000E+00 -0.00000000000E+00 -0.40283351243E+03  0.40283351244E+03  0.25500000000E-02 0. -1.
   -5000001    1    1    2    0    0 -0.12758518494E+03  0.21142888255E+03 -0.13500012504E+03  0.37643749222E+03  0.25000000000E+03 0.  0.
    5000001    1    1    2    0    0  0.12758518494E+03 -0.21142888255E+03  0.62721819313E+02  0.35695122693E+03  0.25000000000E+03 0.  0.
<mgrwt>
<rscale>  0 0.72981837E+03</rscale>
<asrwt>0</asrwt>
<pdfrwt beam="1">  1        2 0.50854647E-01 0.72981837E+03</pdfrwt>
<pdfrwt beam="2">  1       -2 0.61974387E-01 0.72981837E+03</pdfrwt>
<totfact> 0.24042703E+02</totfact>
</mgrwt>
</event>
<event>
 4    1  0.1806019E-005  0.7222144E+03  0.7818608E-02  0.9679979E-01
         -2   -1    0    0    0  501 -0.00000000000E+00  0.00000000000E+00  0.13434925480E+03  0.13434925482E+03  0.25500000000E-02 0. -1.
          2   -1    0    0  501    0  0.00000000000E+00 -0.00000000000E+00 -0.97059259756E+03  0.97059259757E+03  0.25500000000E-02 0.  1.
   -5000001    1    1    2    0    0  0.25603675132E+02  0.25796060906E+03 -0.45857592038E+03  0.58308755668E+03  0.25000000000E+03 0.  0.
    5000001    1    1    2    0    0 -0.25603675132E+02 -0.25796060906E+03 -0.37766742239E+03  0.52185429570E+03  0.25000000000E+03 0.  0.
<mgrwt>
<rscale>  0 0.72221435E+03</rscale>
<asrwt>0</asrwt>
<pdfrwt beam="1">  1        2 0.14932193E+00 0.72221435E+03</pdfrwt>
<pdfrwt beam="2">  1       -2 0.20669117E-01 0.72221435E+03</pdfrwt>
<totfact> 0.53341222E+02</totfact>
</mgrwt>
</event>
<event>
 4    1  0.1806019E-005  0.8246463E+03  0.7818608E-02  0.9525012E-01
         -2   -1    0    0    0  501 -0.00000000000E+00  0.00000000000E+00  0.16973781644E+03  0.16973781646E+03  0.25500000000E-02 0. -1.
          2   -1    0    0  501    0  0.00000000000E+00 -0.00000000000E+00 -0.10016057522E+04  0.10016057522E+04  0.25500000000E-02 0.  1.
   -5000001    1    1    2    0    0  0.15769343474E+03 -0.22385461533E+03 -0.15973714312E+03  0.40372523213E+03  0.25000000000E+03 0.  0.
    5000001    1    1    2    0    0 -0.15769343474E+03  0.22385461533E+03 -0.67213079266E+03  0.76761833655E+03  0.25000000000E+03 0.  0.
<mgrwt>
<rscale>  0 0.82464628E+03</rscale>
<asrwt>0</asrwt>
<pdfrwt beam="1">  1        2 0.15409319E+00 0.82464628E+03</pdfrwt>
<pdfrwt beam="2">  1       -2 0.26113511E-01 0.82464628E+03</pdfrwt>
<totfact> 0.33406944E+02</totfact>
</mgrwt>
</event>
<event>
 4    1  0.1806019E-005  0.6306998E+03  0.7818608E-02  0.9843684E-01
          2   -1    0    0  501    0  0.00000000000E+00  0.00000000000E+00  0.17797877531E+03  0.17797877533E+03  0.25500000000E-02 0.  1.
         -2   -1    0    0    0  501 -0.00000000000E+00 -0.00000000000E+00 -0.55874958623E+03  0.55874958624E+03  0.25500000000E-02 0. -1.
   -5000001    1    1    2    0    0  0.27247788518E+02  0.13525816527E+03 -0.34670467330E+03  0.44915625760E+03  0.25000000000E+03 0.  0.
    5000001    1    1    2    0    0 -0.27247788518E+02 -0.13525816527E+03 -0.34066137618E+02  0.28757210397E+03  0.25000000000E+03 0.  0.
<mgrwt>
<rscale>  0 0.63069982E+03</rscale>
<asrwt>0</asrwt>
<pdfrwt beam="1">  1        2 0.27381350E-01 0.63069982E+03</pdfrwt>
<pdfrwt beam="2">  1       -2 0.85961474E-01 0.63069982E+03</pdfrwt>
<totfact> 0.23444504E+02</totfact>
</mgrwt>
</event>
<event>
 4    1  0.1806019E-005  0.6750563E+03  0.7818608E-02  0.9760866E-01
          2   -1    0    0  501    0  0.00000000000E+00  0.00000000000E+00  0.22327396541E+03  0.22327396542E+03  0.25500000000E-02 0.  1.
         -2   -1    0    0    0  501 -0.00000000000E+00 -0.00000000000E+00 -0.51024871355E+03  0.51024871356E+03  0.25500000000E-02 0. -1.
   -5000001    1    1    2    0    0  0.11815556820E+03 -0.18751946011E+03 -0.19561029937E+03  0.38715329708E+03  0.25000000000E+03 0.  0.
    5000001    1    1    2    0    0 -0.11815556820E+03  0.18751946011E+03 -0.91364448769E+02  0.34636938190E+03  0.25000000000E+03 0.  0.
<mgrwt>
<rscale>  0 0.67505630E+03</rscale>
<asrwt>0</asrwt>
<pdfrwt beam="1">  1        2 0.34349841E-01 0.67505630E+03</pdfrwt>
<pdfrwt beam="2">  1       -2 0.78499802E-01 0.67505630E+03</pdfrwt>
<totfact> 0.22261270E+02</totfact>
</mgrwt>
</event>
<event>
 4    1  0.1806019E-005  0.7156154E+03  0.7818608E-02  0.9690894E-01
          2   -1    0    0  501    0  0.00000000000E+00  0.00000000000E+00  0.81045427861E+03  0.81045427861E+03  0.25500000000E-02 0.  1.
         -2   -1    0    0    0  501 -0.00000000000E+00 -0.00000000000E+00 -0.15796861675E+03  0.15796861677E+03  0.25500000000E-02 0. -1.
   -5000001    1    1    2    0    0  0.50523146971E+02 -0.24586104027E+03  0.25822687394E+03  0.43838494264E+03  0.25000000000E+03 0.  0.
    5000001    1    1    2    0    0 -0.50523146971E+02  0.24586104027E+03  0.39425878792E+03  0.53003795275E+03  0.25000000000E+03 0.  0.
<mgrwt>
<rscale>  0 0.71561538E+03</rscale>
<asrwt>0</asrwt>
<pdfrwt beam="1">  1        2 0.12468527E+00 0.71561538E+03</pdfrwt>
<pdfrwt beam="2">  1       -2 0.24302864E-01 0.71561538E+03</pdfrwt>
<totfact> 0.51368160E+02</totfact>
</mgrwt>
</event>
<event>
 4    1  0.1806019E-005  0.7378683E+03  0.7818608E-02  0.9654578E-01
         -2   -1    0    0    0  501 -0.00000000000E+00  0.00000000000E+00  0.69302000085E+03  0.69302000086E+03  0.25500000000E-02 0. -1.
          2   -1    0    0  501    0  0.00000000000E+00 -0.00000000000E+00 -0.19640471548E+03  0.19640471550E+03  0.25500000000E-02 0.  1.
   -5000001    1    1    2    0    0  0.25410414875E+03 -0.36871169752E+02  0.14264441275E+03  0.38571470034E+03  0.25000000000E+03 0.  0.
    5000001    1    1    2    0    0 -0.25410414875E+03  0.36871169752E+02  0.35397087261E+03  0.50371001601E+03  0.25000000000E+03 0.  0.
<mgrwt>
<rscale>  0 0.73786827E+03</rscale>
<asrwt>0</asrwt>
<pdfrwt beam="1">  1        2 0.30216110E-01 0.73786827E+03</pdfrwt>
<pdfrwt beam="2">  1       -2 0.10661846E+00 0.73786827E+03</pdfrwt>
<totfact> 0.12624910E+02</totfact>
</mgrwt>
</event>
<event>
 4    1  0.1806019E-005  0.7772786E+03  0.7818608E-02  0.9593501E-01
         -2   -1    0    0    0  501 -0.00000000000E+00  0.00000000000E+00  0.11750963010E+03  0.11750963012E+03  0.25500000000E-02 0. -1.
          2   -1    0    0  501    0  0.00000000000E+00 -0.00000000000E+00 -0.12853456429E+04  0.12853456429E+04  0.25500000000E-02 0.  1.
   -5000001    1    1    2    0    0  0.20996624039E+03 -0.20427122098E+03 -0.67818363456E+03  0.77990101681E+03  0.25000000000E+03 0.  0.
    5000001    1    1    2    0    0 -0.20996624039E+03  0.20427122098E+03 -0.48965237823E+03  0.62295425621E+03  0.25000000000E+03 0.  0.
<mgrwt>
<rscale>  0 0.77727856E+03</rscale>
<asrwt>0</asrwt>
<pdfrwt beam="1">  1        2 0.19774547E+00 0.77727856E+03</pdfrwt>
<pdfrwt beam="2">  1       -2 0.18078406E-01 0.77727856E+03</pdfrwt>
<totfact> 0.43246826E+02</totfact>
</mgrwt>
</event>
<event>
 4    1  0.1806019E-005  0.5995541E+03  0.7818608E-02  0.9906332E-01
         -2   -1    0    0    0  501 -0.00000000000E+00  0.00000000000E+00  0.35006082643E+03  0.35006082644E+03  0.25500000000E-02 0. -1.
          2   -1    0    0  501    0  0.00000000000E+00 -0.00000000000E+00 -0.25671619273E+03  0.25671619274E+03  0.25500000000E-02 0.  1.
   -5000001    1    1    2    0    0 -0.10901880372E+03  0.32835975439E+02 -0.74785912361E+02  0.28470376452E+03  0.25000000000E+03 0.  0.
    5000001    1    1    2    0    0  0.10901880372E+03 -0.32835975439E+02  0.16813054606E+03  0.32207325466E+03  0.25000000000E+03 0.  0.
<mgrwt>
<rscale>  0 0.59955411E+03</rscale>
<asrwt>0</asrwt>
<pdfrwt beam="1">  1        2 0.39494799E-01 0.59955411E+03</pdfrwt>
<pdfrwt beam="2">  1       -2 0.53855512E-01 0.59955411E+03</pdfrwt>
<totfact> 0.42820764E+02</totfact>
</mgrwt>
</event>
<event>
 4    1  0.1806019E-005  0.8235906E+03  0.7818608E-02  0.9526485E-01
          2   -1    0    0  501    0  0.00000000000E+00  0.00000000000E+00  0.91422039522E+03  0.91422039523E+03  0.25500000000E-02 0.  1.
         -2   -1    0    0    0  501 -0.00000000000E+00 -0.00000000000E+00 -0.18548631632E+03  0.18548631634E+03  0.25500000000E-02 0. -1.
   -5000001    1    1    2    0    0  0.31421115495E+03  0.23323992078E+02  0.24641964292E+03  0.47169407344E+03  0.25000000000E+03 0.  0.
    5000001    1    1    2    0    0 -0.31421115495E+03 -0.23323992078E+02  0.48231443597E+03  0.62801263813E+03  0.25000000000E+03 0.  0.
<mgrwt>
<rscale>  0 0.82359061E+03</rscale>
<asrwt>0</asrwt>
<pdfrwt beam="1">  1        2 0.14064929E+00 0.82359061E+03</pdfrwt>
<pdfrwt beam="2">  1       -2 0.28536356E-01 0.82359061E+03</pdfrwt>
<totfact> 0.32391368E+02</totfact>
</mgrwt>
</event>
<event>
 4    1  0.1806019E-005  0.7998166E+03  0.7818608E-02  0.9560283E-01
         -2   -1    0    0    0  501 -0.00000000000E+00  0.00000000000E+00  0.17486047342E+03  0.17486047344E+03  0.25500000000E-02 0. -1.
          2   -1    0    0  501    0  0.00000000000E+00 -0.00000000000E+00 -0.91459565807E+03  0.91459565808E+03  0.25500000000E-02 0.  1.
   -5000001    1    1    2    0    0 -0.22875976544E+03  0.20921553196E+03 -0.32029531243E+03  0.51106873927E+03  0.25000000000E+03 0.  0.
    5000001    1    1    2    0    0  0.22875976544E+03 -0.20921553196E+03 -0.41943987223E+03  0.57838739225E+03  0.25000000000E+03 0.  0.
<mgrwt>
<rscale>  0 0.79981655E+03</rscale>
<asrwt>0</asrwt>
<pdfrwt beam="1">  1        2 0.14070702E+00 0.79981655E+03</pdfrwt>
<pdfrwt beam="2">  1       -2 0.26901612E-01 0.79981655E+03</pdfrwt>
<totfact> 0.36110141E+02</totfact>
</mgrwt>
</event>
<event>
 4    1  0.1806019E-005  0.5667899E+03  0.7818608E-02  0.9976807E-01
          2   -1    0    0  501    0  0.00000000000E+00  0.00000000000E+00  0.23327195202E+03  0.23327195204E+03  0.25500000000E-02 0.  1.
         -2   -1    0    0    0  501 -0.00000000000E+00 -0.00000000000E+00 -0.34428785658E+03  0.34428785659E+03  0.25500000000E-02 0. -1.
   -5000001    1    1    2    0    0  0.39863822581E+02 -0.12735819561E+03 -0.57405055491E+02  0.28914455682E+03  0.25000000000E+03 0.  0.
    5000001    1    1    2    0    0 -0.39863822581E+02  0.12735819561E+03 -0.53610849071E+02  0.28841525181E+03  0.25000000000E+03 0.  0.
<mgrwt>
<rscale>  0 0.56678991E+03</rscale>
<asrwt>0</asrwt>
<pdfrwt beam="1">  1        2 0.35887993E-01 0.56678991E+03</pdfrwt>
<pdfrwt beam="2">  1       -2 0.52967362E-01 0.56678991E+03</pdfrwt>
<totfact> 0.49301239E+02</totfact>
</mgrwt>
</event>
<event>
 4    1  0.1806019E-005  0.6499990E+03  0.7818608E-02  0.9806781E-01
          2   -1    0    0  501    0  0.00000000000E+00  0.00000000000E+00  0.31368627939E+04  0.31368627939E+04  0.25500000000E-02 0.  1.
         -2   -1    0    0    0  501 -0.00000000000E+00 -0.00000000000E+00 -0.33672073175E+02  0.33672073272E+02  0.25500000000E-02 0. -1.
   -5000001    1    1    2    0    0  0.13522590444E+03  0.13910513727E+03  0.11902335110E+04  0.12315811363E+04  0.25000000000E+03 0.  0.
    5000001    1    1    2    0    0 -0.13522590444E+03 -0.13910513727E+03  0.19129572097E+04  0.19389537309E+04  0.25000000000E+03 0.  0.
<mgrwt>
<rscale>  0 0.64999900E+03</rscale>
<asrwt>0</asrwt>
<pdfrwt beam="1">  1        2 0.48259408E+00 0.64999900E+03</pdfrwt>
<pdfrwt beam="2">  1       -2 0.51803211E-02 0.64999900E+03</pdfrwt>
<totfact> 0.29879792E+02</totfact>
</mgrwt>
</event>
<event>
 4    1  0.1806019E-005  0.9824137E+03  0.7818608E-02  0.9328046E-01
          2   -1    0    0  501    0  0.00000000000E+00  0.00000000000E+00  0.11409315525E+04  0.11409315525E+04  0.25500000000E-02 0.  1.
         -2   -1    0    0    0  501 -0.00000000000E+00 -0.00000000000E+00 -0.21147997983E+03  0.21147997985E+03  0.25500000000E-02 0. -1.
   -5000001    1    1    2    0    0 -0.22709584078E+03 -0.34532468276E+03  0.34188578022E+03  0.59178335913E+03  0.25000000000E+03 0.  0.
    5000001    1    1    2    0    0  0.22709584078E+03  0.34532468276E+03  0.58756579240E+03  0.76062817317E+03  0.25000000000E+03 0.  0.
<mgrwt>
<rscale>  0 0.98241372E+03</rscale>
<asrwt>0</asrwt>
<pdfrwt beam="1">  1        2 0.17552793E+00 0.98241372E+03</pdfrwt>
<pdfrwt beam="2">  1       -2 0.32535382E-01 0.98241372E+03</pdfrwt>
<totfact> 0.18062224E+02</totfact>
</mgrwt>
</event>
<event>
 4    1  0.1806019E-005  0.6687953E+03  0.7818608E-02  0.9772136E-01
          2   -1    0    0  501    0  0.00000000000E+00  0.00000000000E+00  0.73069816511E+03  0.73069816511E+03  0.25500000000E-02 0.  1.
         -2   -1    0    0    0  501 -0.00000000000E+00 -0.00000000000E+00 -0.15303419289E+03  0.15303419291E+03  0.25500000000E-02 0. -1.
   -5000001    1    1    2    0    0 -0.14533221580E+03  0.16654110539E+03  0.31730797835E+03  0.46047990820E+03  0.25000000000E+03 0.  0.
    5000001    1    1    2    0    0  0.14533221580E+03 -0.16654110539E+03  0.26035599387E+03  0.42325244982E+03  0.25000000000E+03 0.  0.
<mgrwt>
<rscale>  0 0.66879535E+03</rscale>
<asrwt>0</asrwt>
<pdfrwt beam="1">  1        2 0.11241510E+00 0.66879535E+03</pdfrwt>
<pdfrwt beam="2">  1       -2 0.23543722E-01 0.66879535E+03</pdfrwt>
<totfact> 0.62312924E+02</totfact>
</mgrwt>
</event>
<event>
 4    1  0.1806019E-005  0.1430612E+04  0.7818608E-02  0.8931953E-01
          2   -1    0    0  501    0  0.00000000000E+00  0.00000000000E+00  0.81712058717E+03  0.81712058717E+03  0.25500000000E-02 0.  1.
         -2   -1    0    0    0  501 -0.00000000000E+00 -0.00000000000E+00 -0.62617750712E+03  0.62617750712E+03  0.25500000000E-02 0. -1.
   -5000001    1    1    2    0    0 -0.32838470711E+03  0.58045763734E+03  0.16235382302E+03  0.73049732954E+03  0.25000000000E+03 0.  0.
    5000001    1    1    2    0    0  0.32838470711E+03 -0.58045763734E+03  0.28589257031E+02  0.71280076475E+03  0.25000000000E+03 0.  0.
<mgrwt>
<rscale>  0 0.14306118E+04</rscale>
<asrwt>0</asrwt>
<pdfrwt beam="1">  1        2 0.12571086E+00 0.14306118E+04</pdfrwt>
<pdfrwt beam="2">  1       -2 0.96335001E-01 0.14306118E+04</pdfrwt>
<totfact> 0.29339158E+01</totfact>
</mgrwt>
</event>
<event>
 4    1  0.1806019E-005  0.6167767E+03  0.7818608E-02  0.9871198E-01
          2   -1    0    0  501    0  0.00000000000E+00  0.00000000000E+00  0.22761165745E+04  0.22761165745E+04  0.25500000000E-02 0.  1.
         -2   -1    0    0    0  501 -0.00000000000E+00 -0.00000000000E+00 -0.41783169062E+02  0.41783169140E+02  0.25500000000E-02 0. -1.
   -5000001    1    1    2    0    0 -0.11277250064E+03 -0.13589232327E+03  0.97560088019E+03  0.10224878668E+04  0.25000000000E+03 0.  0.
    5000001    1    1    2    0    0  0.11277250064E+03  0.13589232327E+03  0.12587325253E+04  0.12954118768E+04  0.25000000000E+03 0.  0.
<mgrwt>
<rscale>  0 0.61677667E+03</rscale>
<asrwt>0</asrwt>
<pdfrwt beam="1">  1        2 0.35017187E+00 0.61677667E+03</pdfrwt>
<pdfrwt beam="2">  1       -2 0.64281782E-02 0.61677667E+03</pdfrwt>
<totfact> 0.67858552E+02</totfact>
</mgrwt>
</event>
<event>
 4    1  0.1806019E-005  0.8234881E+03  0.7818608E-02  0.9526628E-01
          2   -1    0    0  501    0  0.00000000000E+00  0.00000000000E+00  0.14796873727E+04  0.14796873727E+04  0.25500000000E-02 0.  1.
         -2   -1    0    0    0  501 -0.00000000000E+00 -0.00000000000E+00 -0.11457364226E+03  0.11457364229E+03  0.25500000000E-02 0. -1.
   -5000001    1    1    2    0    0  0.19487161506E+03  0.19845473881E+03  0.10160521584E+04  0.10826916543E+04  0.25000000000E+03 0.  0.
    5000001    1    1    2    0    0 -0.19487161506E+03 -0.19845473881E+03  0.34906157203E+03  0.51156936067E+03  0.25000000000E+03 0.  0.
<mgrwt>
<rscale>  0 0.82348812E+03</rscale>
<asrwt>0</asrwt>
<pdfrwt beam="1">  1        2 0.22764421E+00 0.82348812E+03</pdfrwt>
<pdfrwt beam="2">  1       -2 0.17626714E-01 0.82348812E+03</pdfrwt>
<totfact> 0.34939411E+02</totfact>
</mgrwt>
</event>
<event>
 4    1  0.1806019E-005  0.1007646E+04  0.7818608E-02  0.9300198E-01
         -2   -1    0    0    0  501 -0.00000000000E+00  0.00000000000E+00  0.21719247704E+04  0.21719247704E+04  0.25500000000E-02 0. -1.
          2   -1    0    0  501    0  0.00000000000E+00 -0.00000000000E+00 -0.11687218711E+03  0.11687218714E+03  0.25500000000E-02 0.  1.
   -5000001    1    1    2    0    0 -0.52873861193E+02  0.42807854568E+03  0.86230867768E+03  0.99605378473E+03  0.25000000000E+03 0.  0.
    5000001    1    1    2    0    0  0.52873861193E+02 -0.42807854568E+03  0.11927439056E+04  0.12927431728E+04  0.25000000000E+03 0.  0.
<mgrwt>
<rscale>  0 0.10076460E+04</rscale>
<asrwt>0</asrwt>
<pdfrwt beam="1">  1        2 0.17980338E-01 0.10076460E+04</pdfrwt>
<pdfrwt beam="2">  1       -2 0.33414225E+00 0.10076460E+04</pdfrwt>
<totfact> 0.64346822E+00</totfact>
</mgrwt>
</event>
<event>
 4    1  0.1806019E-005  0.1306848E+04  0.7818608E-02  0.9024153E-01
         -2   -1    0    0    0  501 -0.00000000000E+00  0.00000000000E+00  0.58076028854E+03  0.58076028854E+03  0.25500000000E-02 0. -1.
          2   -1    0    0  501    0  0.00000000000E+00 -0.00000000000E+00 -0.73517883283E+03  0.73517883284E+03  0.25500000000E-02 0.  1.
   -5000001    1    1    2    0    0 -0.48767113698E+03  0.35006521627E+03 -0.12780734179E+02  0.65040921015E+03  0.25000000000E+03 0.  0.
    5000001    1    1    2    0    0  0.48767113698E+03 -0.35006521627E+03 -0.14163781012E+03  0.66552991123E+03  0.25000000000E+03 0.  0.
<mgrwt>
<rscale>  0 0.13068476E+04</rscale>
<asrwt>0</asrwt>
<pdfrwt beam="1">  1        2 0.11310444E+00 0.13068476E+04</pdfrwt>
<pdfrwt beam="2">  1       -2 0.89347737E-01 0.13068476E+04</pdfrwt>
<totfact> 0.40532958E+01</totfact>
</mgrwt>
</event>
<event>
 4    1  0.1806019E-005  0.6687115E+03  0.7818608E-02  0.9772288E-01
         -2   -1    0    0    0  501 -0.00000000000E+00  0.00000000000E+00  0.52052438875E+02  0.52052438937E+02  0.25500000000E-02 0. -1.
          2   -1    0    0  501    0  0.00000000000E+00 -0.00000000000E+00 -0.21477144226E+04  0.21477144226E+04  0.25500000000E-02 0.  1.
   -5000001    1    1    2    0    0  0.21665304181E+03 -0.16496305242E+02 -0.11979699677E+04  0.12429170174E+04  0.25000000000E+03 0.  0.
    5000001    1    1    2    0    0 -0.21665304181E+03  0.16496305242E+02 -0.89769201605E+03  0.95684984417E+03  0.25000000000E+03 0.  0.
<mgrwt>
<rscale>  0 0.66871152E+03</rscale>
<asrwt>0</asrwt>
<pdfrwt beam="1">  1        2 0.33041754E+00 0.66871152E+03</pdfrwt>
<pdfrwt beam="2">  1       -2 0.80080692E-02 0.66871152E+03</pdfrwt>
<totfact> 0.56107928E+02</totfact>
</mgrwt>
</event>
<event>
 4    1  0.1806019E-005  0.1210551E+04  0.7818608E-02  0.9103671E-01
          2   -1    0    0  501    0  0.00000000000E+00  0.00000000000E+00  0.19571448857E+04  0.19571448857E+04  0.25500000000E-02 0.  1.
         -2   -1    0    0    0  501 -0.00000000000E+00 -0.00000000000E+00 -0.18719022606E+03  0.18719022608E+03  0.25500000000E-02 0. -1.
   -5000001    1    1    2    0    0 -0.50567884731E+03  0.68254425531E+02  0.51557685158E+03  0.76726087682E+03  0.25000000000E+03 0.  0.
    5000001    1    1    2    0    0  0.50567884731E+03 -0.68254425531E+02  0.12543778080E+04  0.13770742349E+04  0.25000000000E+03 0.  0.
<mgrwt>
<rscale>  0 0.12105509E+04</rscale>
<asrwt>0</asrwt>
<pdfrwt beam="1">  1        2 0.30109921E+00 0.12105509E+04</pdfrwt>
<pdfrwt beam="2">  1       -2 0.28798496E-01 0.12105509E+04</pdfrwt>
<totfact> 0.77092934E+01</totfact>
</mgrwt>
</event>
<event>
 4    1  0.1806019E-005  0.6240520E+03  0.7818608E-02  0.9856725E-01
          2   -1    0    0  501    0  0.00000000000E+00  0.00000000000E+00  0.12048916236E+04  0.12048916236E+04  0.25500000000E-02 0.  1.
         -2   -1    0    0    0  501 -0.00000000000E+00 -0.00000000000E+00 -0.80804147055E+02  0.80804147095E+02  0.25500000000E-02 0. -1.
   -5000001    1    1    2    0    0 -0.15214610430E+03  0.10814742824E+03  0.57026836596E+03  0.65003870077E+03  0.25000000000E+03 0.  0.
    5000001    1    1    2    0    0  0.15214610430E+03 -0.10814742824E+03  0.55381911056E+03  0.63565706990E+03  0.25000000000E+03 0.  0.
<mgrwt>
<rscale>  0 0.62405205E+03</rscale>
<asrwt>0</asrwt>
<pdfrwt beam="1">  1        2 0.18536791E+00 0.62405205E+03</pdfrwt>
<pdfrwt beam="2">  1       -2 0.12431409E-01 0.62405205E+03</pdfrwt>
<totfact> 0.91342634E+02</totfact>
</mgrwt>
</event>
<event>
 4    1  0.1806019E-005  0.8751307E+03  0.7818608E-02  0.9457215E-01
          2   -1    0    0  501    0  0.00000000000E+00  0.00000000000E+00  0.23114547352E+03  0.23114547354E+03  0.25500000000E-02 0.  1.
         -2   -1    0    0    0  501 -0.00000000000E+00 -0.00000000000E+00 -0.82832448473E+03  0.82832448474E+03  0.25500000000E-02 0. -1.
   -5000001    1    1    2    0    0 -0.22579936225E+03 -0.31899012991E+02 -0.63444294784E+03  0.71904155171E+03  0.25000000000E+03 0.  0.
    5000001    1    1    2    0    0  0.22579936225E+03  0.31899012991E+02  0.37263936635E+02  0.34042840656E+03  0.25000000000E+03 0.  0.
<mgrwt>
<rscale>  0 0.87513075E+03</rscale>
<asrwt>0</asrwt>
<pdfrwt beam="1">  1        2 0.35560843E-01 0.87513075E+03</pdfrwt>
<pdfrwt beam="2">  1       -2 0.12743453E+00 0.87513075E+03</pdfrwt>
<totfact> 0.67379369E+01</totfact>
</mgrwt>
</event>
<event>
 4    1  0.1806019E-005  0.8238788E+03  0.7818608E-02  0.9526082E-01
         -2   -1    0    0    0  501 -0.00000000000E+00  0.00000000000E+00  0.13105126079E+03  0.13105126081E+03  0.25500000000E-02 0. -1.
          2   -1    0    0  501    0  0.00000000000E+00 -0.00000000000E+00 -0.12948679494E+04  0.12948679494E+04  0.25500000000E-02 0.  1.
   -5000001    1    1    2    0    0 -0.40077798034E+01 -0.27626252052E+03 -0.88593291016E+03  0.96110049623E+03  0.25000000000E+03 0.  0.
    5000001    1    1    2    0    0  0.40077798034E+01  0.27626252052E+03 -0.27788377843E+03  0.46481871397E+03  0.25000000000E+03 0.  0.
<mgrwt>
<rscale>  0 0.82387882E+03</rscale>
<asrwt>0</asrwt>
<pdfrwt beam="1">  1        2 0.19921044E+00 0.82387882E+03</pdfrwt>
<pdfrwt beam="2">  1       -2 0.20161733E-01 0.82387882E+03</pdfrwt>
<totfact> 0.35229622E+02</totfact>
</mgrwt>
</event>
<event>
 4    1  0.1806019E-005  0.6393359E+03  0.7818608E-02  0.9826998E-01
          2   -1    0    0  501    0  0.00000000000E+00  0.00000000000E+00  0.11965304386E+04  0.11965304386E+04  0.25500000000E-02 0.  1.
         -2   -1    0    0    0  501 -0.00000000000E+00 -0.00000000000E+00 -0.85403252896E+02  0.85403252934E+02  0.25500000000E-02 0. -1.
   -5000001    1    1    2    0    0  0.15619363511E+03 -0.68451805068E+02  0.76205494205E+03  0.81994502009E+03  0.25000000000E+03 0.  0.
    5000001    1    1    2    0    0 -0.15619363511E+03  0.68451805068E+02  0.34907224370E+03  0.46198867149E+03  0.25000000000E+03 0.  0.
<mgrwt>
<rscale>  0 0.63933588E+03</rscale>
<asrwt>0</asrwt>
<pdfrwt beam="1">  1        2 0.18408160E+00 0.63933588E+03</pdfrwt>
<pdfrwt beam="2">  1       -2 0.13138962E-01 0.63933588E+03</pdfrwt>
<totfact> 0.84229178E+02</totfact>
</mgrwt>
</event>
<event>
 4    1  0.1806019E-005  0.1552809E+04  0.7818608E-02  0.8850076E-01
         -2   -1    0    0    0  501 -0.00000000000E+00  0.00000000000E+00  0.16900184330E+03  0.16900184332E+03  0.25500000000E-02 0. -1.
          2   -1    0    0  501    0  0.00000000000E+00 -0.00000000000E+00 -0.35668483222E+04  0.35668483222E+04  0.25500000000E-02 0.  1.
   -5000001    1    1    2    0    0 -0.41943297374E+03  0.56472477399E+03 -0.22119193551E+04  0.23345075119E+04  0.25000000000E+03 0.  0.
    5000001    1    1    2    0    0  0.41943297374E+03 -0.56472477399E+03 -0.11859271238E+04  0.14013426536E+04  0.25000000000E+03 0.  0.
<mgrwt>
<rscale>  0 0.15528090E+04</rscale>
<asrwt>0</asrwt>
<pdfrwt beam="1">  1        2 0.54874584E+00 0.15528090E+04</pdfrwt>
<pdfrwt beam="2">  1       -2 0.26000286E-01 0.15528090E+04</pdfrwt>
<totfact> 0.95046531E+00</totfact>
</mgrwt>
</event>
<event>
 4    1  0.1806019E-005  0.9470753E+03  0.7818608E-02  0.9368576E-01
          2   -1    0    0  501    0  0.00000000000E+00  0.00000000000E+00  0.29941153899E+03  0.29941153900E+03  0.25500000000E-02 0.  1.
         -2   -1    0    0    0  501 -0.00000000000E+00 -0.00000000000E+00 -0.74892871969E+03  0.74892871969E+03  0.25500000000E-02 0. -1.
   -5000001    1    1    2    0    0 -0.89374575514E+01  0.39252701612E+03 -0.32113450644E+03  0.56549509967E+03  0.25000000000E+03 0.  0.
    5000001    1    1    2    0    0  0.89374575514E+01 -0.39252701612E+03 -0.12838267426E+03  0.48284515901E+03  0.25000000000E+03 0.  0.
<mgrwt>
<rscale>  0 0.94707529E+03</rscale>
<asrwt>0</asrwt>
<pdfrwt beam="1">  1        2 0.46063314E-01 0.94707529E+03</pdfrwt>
<pdfrwt beam="2">  1       -2 0.11521980E+00 0.94707529E+03</pdfrwt>
<totfact> 0.64627008E+01</totfact>
</mgrwt>
</event>
<event>
 4    1  0.1806019E-005  0.1283681E+04  0.7818608E-02  0.9042608E-01
         -2   -1    0    0    0  501 -0.00000000000E+00  0.00000000000E+00  0.24787180372E+03  0.24787180373E+03  0.25500000000E-02 0. -1.
          2   -1    0    0  501    0  0.00000000000E+00 -0.00000000000E+00 -0.16619842167E+04  0.16619842167E+04  0.25500000000E-02 0.  1.
   -5000001    1    1    2    0    0 -0.38547984476E+03 -0.44792519610E+03 -0.68462382508E+03  0.93831842883E+03  0.25000000000E+03 0.  0.
    5000001    1    1    2    0    0  0.38547984476E+03  0.44792519610E+03 -0.72948858790E+03  0.97153759160E+03  0.25000000000E+03 0.  0.
<mgrwt>
<rscale>  0 0.12836807E+04</rscale>
<asrwt>0</asrwt>
<pdfrwt beam="1">  1        2 0.25568987E+00 0.12836807E+04</pdfrwt>
<pdfrwt beam="2">  1       -2 0.38134125E-01 0.12836807E+04</pdfrwt>
<totfact> 0.65584156E+01</totfact>
</mgrwt>
</event>
<event>
 4    1  0.1806019E-005  0.1088098E+04  0.7818608E-02  0.9216870E-01
          2   -1    0    0  501    0  0.00000000000E+00  0.00000000000E+00  0.13376077697E+04  0.13376077697E+04  0.25500000000E-02 0.  1.
         -2   -1    0    0    0  501 -0.00000000000E+00 -0.00000000000E+00 -0.22128271960E+03  0.22128271961E+03  0.25500000000E-02 0. -1.
   -5000001    1    1    2    0    0  0.36404668027E+03  0.19873254926E+03  0.20297233197E+03  0.52509273381E+03  0.25000000000E+03 0.  0.
    5000001    1    1    2    0    0 -0.36404668027E+03 -0.19873254926E+03  0.91335271811E+03  0.10337977555E+04  0.25000000000E+03 0.  0.
<mgrwt>
<rscale>  0 0.10880983E+04</rscale>
<asrwt>0</asrwt>
<pdfrwt beam="1">  1        2 0.20578581E+00 0.10880983E+04</pdfrwt>
<pdfrwt beam="2">  1       -2 0.34043495E-01 0.10880983E+04</pdfrwt>
<totfact> 0.12602821E+02</totfact>
</mgrwt>
</event>
<event>
 4    1  0.1806019E-005  0.1609423E+04  0.7818608E-02  0.8814780E-01
         -2   -1    0    0    0  501 -0.00000000000E+00  0.00000000000E+00  0.15103910691E+04  0.15103910691E+04  0.25500000000E-02 0. -1.
          2   -1    0    0  501    0  0.00000000000E+00 -0.00000000000E+00 -0.42873693730E+03  0.42873693731E+03  0.25500000000E-02 0.  1.
   -5000001    1    1    2    0    0  0.30529886302E+03  0.51372126577E+03  0.11160682087E+04  0.12904360430E+04  0.25000000000E+03 0.  0.
    5000001    1    1    2    0    0 -0.30529886302E+03 -0.51372126577E+03 -0.34414076905E+02  0.64869196338E+03  0.25000000000E+03 0.  0.
<mgrwt>
<rscale>  0 0.16094228E+04</rscale>
<asrwt>0</asrwt>
<pdfrwt beam="1">  1        2 0.65959529E-01 0.16094228E+04</pdfrwt>
<pdfrwt beam="2">  1       -2 0.23236786E+00 0.16094228E+04</pdfrwt>
<totfact> 0.58178418E+00</totfact>
</mgrwt>
</event>
<event>
 4    1  0.1806019E-005  0.8528954E+03  0.7818608E-02  0.9486459E-01
          2   -1    0    0  501    0  0.00000000000E+00  0.00000000000E+00  0.71005707640E+03  0.71005707641E+03  0.25500000000E-02 0.  1.
         -2   -1    0    0    0  501 -0.00000000000E+00 -0.00000000000E+00 -0.25611693171E+03  0.25611693172E+03  0.25500000000E-02 0. -1.
   -5000001    1    1    2    0    0  0.26212976503E+03  0.12003848131E+03  0.44261141938E+03  0.58440236077E+03  0.25000000000E+03 0.  0.
    5000001    1    1    2    0    0 -0.26212976503E+03 -0.12003848131E+03  0.11328725310E+02  0.38177164736E+03  0.25000000000E+03 0.  0.
<mgrwt>
<rscale>  0 0.85289540E+03</rscale>
<asrwt>0</asrwt>
<pdfrwt beam="1">  1        2 0.10923955E+00 0.85289540E+03</pdfrwt>
<pdfrwt beam="2">  1       -2 0.39402605E-01 0.85289540E+03</pdfrwt>
<totfact> 0.24608430E+02</totfact>
</mgrwt>
</event>
<event>
 4    1  0.1806019E-005  0.7349778E+03  0.7818608E-02  0.9659217E-01
          2   -1    0    0  501    0  0.00000000000E+00  0.00000000000E+00  0.67306645312E+03  0.67306645313E+03  0.25500000000E-02 0.  1.
         -2   -1    0    0    0  501 -0.00000000000E+00 -0.00000000000E+00 -0.20064597811E+03  0.20064597812E+03  0.25500000000E-02 0. -1.
   -5000001    1    1    2    0    0  0.20478813001E+03 -0.12009768998E+03  0.38745140983E+03  0.51863303820E+03  0.25000000000E+03 0.  0.
    5000001    1    1    2    0    0 -0.20478813001E+03  0.12009768998E+03  0.84969065191E+02  0.35507939305E+03  0.25000000000E+03 0.  0.
<mgrwt>
<rscale>  0 0.73497776E+03</rscale>
<asrwt>0</asrwt>
<pdfrwt beam="1">  1        2 0.10354868E+00 0.73497776E+03</pdfrwt>
<pdfrwt beam="2">  1       -2 0.30868612E-01 0.73497776E+03</pdfrwt>
<totfact> 0.42090999E+02</totfact>
</mgrwt>
</event>
<event>
 4    1  0.1806019E-005  0.7785825E+03  0.7818608E-02  0.9591546E-01
          2   -1    0    0  501    0  0.00000000000E+00  0.00000000000E+00  0.11612542162E+03  0.11612542165E+03  0.25500000000E-02 0.  1.
         -2   -1    0    0    0  501 -0.00000000000E+00 -0.00000000000E+00 -0.13050343476E+04  0.13050343476E+04  0.25500000000E-02 0. -1.
   -5000001    1    1    2    0    0  0.25380311532E+03  0.11850556280E+03 -0.40663232829E+03  0.55345229259E+03  0.25000000000E+03 0.  0.
    5000001    1    1    2    0    0 -0.25380311532E+03 -0.11850556280E+03 -0.78227659769E+03  0.86770747666E+03  0.25000000000E+03 0.  0.
<mgrwt>
<rscale>  0 0.77858247E+03</rscale>
<asrwt>0</asrwt>
<pdfrwt beam="1">  1        2 0.17865450E-01 0.77858247E+03</pdfrwt>
<pdfrwt beam="2">  1       -2 0.20077450E+00 0.77858247E+03</pdfrwt>
<totfact> 0.43358282E+01</totfact>
</mgrwt>
</event>
<event>
 4    1  0.1806019E-005  0.7555876E+03  0.7818608E-02  0.9626625E-01
          2   -1    0    0  501    0  0.00000000000E+00  0.00000000000E+00  0.14495669696E+04  0.14495669696E+04  0.25500000000E-02 0.  1.
         -2   -1    0    0    0  501 -0.00000000000E+00 -0.00000000000E+00 -0.98462612668E+02  0.98462612701E+02  0.25500000000E-02 0. -1.
   -5000001    1    1    2    0    0  0.18812659421E+03  0.18105254373E+03  0.45059218938E+03  0.57767201782E+03  0.25000000000E+03 0.  0.
    5000001    1    1    2    0    0 -0.18812659421E+03 -0.18105254373E+03  0.90051216752E+03  0.97035756445E+03  0.25000000000E+03 0.  0.
<mgrwt>
<rscale>  0 0.75558759E+03</rscale>
<asrwt>0</asrwt>
<pdfrwt beam="1">  1        2 0.22301030E+00 0.75558759E+03</pdfrwt>
<pdfrwt beam="2">  1       -2 0.15148094E-01 0.75558759E+03</pdfrwt>
<totfact> 0.47241014E+02</totfact>
</mgrwt>
</event>
<event>
 4    1  0.1806019E-005  0.1140435E+04  0.7818608E-02  0.9166653E-01
          2   -1    0    0  501    0  0.00000000000E+00  0.00000000000E+00  0.45282343849E+03  0.45282343849E+03  0.25500000000E-02 0.  1.
         -2   -1    0    0    0  501 -0.00000000000E+00 -0.00000000000E+00 -0.71804578212E+03  0.71804578212E+03  0.25500000000E-02 0. -1.
   -5000001    1    1    2    0    0 -0.43700994113E+03 -0.16440863311E+03 -0.34953153557E+03  0.63457086416E+03  0.25000000000E+03 0.  0.
    5000001    1    1    2    0    0  0.43700994113E+03  0.16440863311E+03  0.84309191940E+02  0.53629835645E+03  0.25000000000E+03 0.  0.
<mgrwt>
<rscale>  0 0.11404349E+04</rscale>
<asrwt>0</asrwt>
<pdfrwt beam="1">  1        2 0.69665144E-01 0.11404349E+04</pdfrwt>
<pdfrwt beam="2">  1       -2 0.11046858E+00 0.11404349E+04</pdfrwt>
<totfact> 0.44471669E+01</totfact>
</mgrwt>
</event>
<event>
 4    1  0.1806019E-005  0.9688637E+03  0.7818608E-02  0.9343370E-01
          2   -1    0    0  501    0  0.00000000000E+00  0.00000000000E+00  0.17595219238E+04  0.17595219238E+04  0.25500000000E-02 0. -1.
         -2   -1    0    0    0  501 -0.00000000000E+00 -0.00000000000E+00 -0.13337385273E+03  0.13337385275E+03  0.25500000000E-02 0.  1.
   -5000001    1    1    2    0    0  0.38255061012E+03  0.15584648394E+03  0.88977177091E+03  0.10123373450E+04  0.25000000000E+03 0.  0.
    5000001    1    1    2    0    0 -0.38255061012E+03 -0.15584648394E+03  0.73637630018E+03  0.88055843152E+03  0.25000000000E+03 0.  0.
<mgrwt>
<rscale>  0 0.96886370E+03</rscale>
<asrwt>0</asrwt>
<pdfrwt beam="1">  1        2 0.27069568E+00 0.96886370E+03</pdfrwt>
<pdfrwt beam="2">  1       -2 0.20519054E-01 0.96886370E+03</pdfrwt>
<totfact> 0.18590116E+02</totfact>
</mgrwt>
</event>
<event>
 4    1  0.1806019E-005  0.1124491E+04  0.7818608E-02  0.9181644E-01
          2   -1    0    0  501    0  0.00000000000E+00  0.00000000000E+00  0.13095198886E+04  0.13095198886E+04  0.25500000000E-02 0.  1.
         -2   -1    0    0    0  501 -0.00000000000E+00 -0.00000000000E+00 -0.24140164858E+03  0.24140164859E+03  0.25500000000E-02 0. -1.
   -5000001    1    1    2    0    0 -0.23588721115E+03 -0.41931318138E+03  0.32877320690E+03  0.63408054854E+03  0.25000000000E+03 0.  0.
    5000001    1    1    2    0    0  0.23588721115E+03  0.41931318138E+03  0.73934503309E+03  0.91684098863E+03  0.25000000000E+03 0.  0.
<mgrwt>
<rscale>  0 0.11244915E+04</rscale>
<asrwt>0</asrwt>
<pdfrwt beam="1">  1        2 0.20146459E+00 0.11244915E+04</pdfrwt>
<pdfrwt beam="2">  1       -2 0.37138716E-01 0.11244915E+04</pdfrwt>
<totfact> 0.11049035E+02</totfact>
</mgrwt>
</event>
<event>
 4    1  0.1806019E-005  0.8008421E+03  0.7818608E-02  0.9558799E-01
         -2   -1    0    0    0  501 -0.00000000000E+00  0.00000000000E+00  0.12638534290E+03  0.12638534292E+03  0.25500000000E-02 0. -1.
          2   -1    0    0  501    0  0.00000000000E+00 -0.00000000000E+00 -0.12686361568E+04  0.12686361568E+04  0.25500000000E-02 0.  1.
   -5000001    1    1    2    0    0 -0.26135030272E+02  0.62898375928E+02 -0.39339568081E+02  0.26208175655E+03  0.25000000000E+03 0.  0.
    5000001    1    1    2    0    0  0.26135030272E+02 -0.62898375928E+02 -0.11029112459E+04  0.11329397432E+04  0.25000000000E+03 0.  0.
<mgrwt>
<rscale>  0 0.80084210E+03</rscale>
<asrwt>0</asrwt>
<pdfrwt beam="1">  1        2 0.19517479E+00 0.80084210E+03</pdfrwt>
<pdfrwt beam="2">  1       -2 0.19443900E-01 0.80084210E+03</pdfrwt>
<totfact> 0.38923409E+02</totfact>
</mgrwt>
</event>
<event>
 4    1  0.1806019E-005  0.6943049E+03  0.7818608E-02  0.9727021E-01
         -2   -1    0    0    0  501 -0.00000000000E+00  0.00000000000E+00  0.14732087717E+03  0.14732087719E+03  0.25500000000E-02 0. -1.
          2   -1    0    0  501    0  0.00000000000E+00 -0.00000000000E+00 -0.81804312944E+03  0.81804312944E+03  0.25500000000E-02 0.  1.
   -5000001    1    1    2    0    0  0.20435302388E+03  0.47633750188E+02 -0.17093041143E+03  0.36843769905E+03  0.25000000000E+03 0.  0.
    5000001    1    1    2    0    0 -0.20435302388E+03 -0.47633750188E+02 -0.49979184083E+03  0.59692630759E+03  0.25000000000E+03 0.  0.
<mgrwt>
<rscale>  0 0.69430492E+03</rscale>
<asrwt>0</asrwt>
<pdfrwt beam="1">  1        2 0.12585279E+00 0.69430492E+03</pdfrwt>
<pdfrwt beam="2">  1       -2 0.22664751E-01 0.69430492E+03</pdfrwt>
<totfact> 0.57509015E+02</totfact>
</mgrwt>
</event>
<event>
 4    1  0.1806019E-005  0.1368400E+04  0.7818608E-02  0.8977015E-01
          2   -1    0    0  501    0  0.00000000000E+00  0.00000000000E+00  0.12601462906E+04  0.12601462906E+04  0.25500000000E-02 0.  1.
         -2   -1    0    0    0  501 -0.00000000000E+00 -0.00000000000E+00 -0.37148828599E+03  0.37148828600E+03  0.25500000000E-02 0. -1.
   -5000001    1    1    2    0    0  0.52998619132E+03  0.11465330471E+03  0.84265596484E+03  0.10327631957E+04  0.25000000000E+03 0.  0.
    5000001    1    1    2    0    0 -0.52998619132E+03 -0.11465330471E+03  0.46002039812E+02  0.59887138096E+03  0.25000000000E+03 0.  0.
<mgrwt>
<rscale>  0 0.13683999E+04</rscale>
<asrwt>0</asrwt>
<pdfrwt beam="1">  1        2 0.19386866E+00 0.13683999E+04</pdfrwt>
<pdfrwt beam="2">  1       -2 0.57152045E-01 0.13683999E+04</pdfrwt>
<totfact> 0.48827149E+01</totfact>
</mgrwt>
</event>
<event>
 4    1  0.1806019E-005  0.1097451E+04  0.7818608E-02  0.9207680E-01
          2   -1    0    0  501    0  0.00000000000E+00  0.00000000000E+00  0.44418299004E+03  0.44418299005E+03  0.25500000000E-02 0.  1.
         -2   -1    0    0    0  501 -0.00000000000E+00 -0.00000000000E+00 -0.67787280176E+03  0.67787280176E+03  0.25500000000E-02 0. -1.
   -5000001    1    1    2    0    0 -0.38341785138E+03 -0.29495463348E+03 -0.47560695273E+02  0.54659811956E+03  0.25000000000E+03 0.  0.
    5000001    1    1    2    0    0  0.38341785138E+03  0.29495463348E+03 -0.18612911644E+03  0.57545767225E+03  0.25000000000E+03 0.  0.
<mgrwt>
<rscale>  0 0.10974508E+04</rscale>
<asrwt>0</asrwt>
<pdfrwt beam="1">  1        2 0.68335845E-01 0.10974508E+04</pdfrwt>
<pdfrwt beam="2">  1       -2 0.10428812E+00 0.10974508E+04</pdfrwt>
<totfact> 0.52383602E+01</totfact>
</mgrwt>
</event>
<event>
 4    1  0.1806019E-005  0.8172980E+03  0.7818608E-02  0.9535311E-01
          2   -1    0    0  501    0  0.00000000000E+00  0.00000000000E+00  0.10243697022E+04  0.10243697022E+04  0.25500000000E-02 0.  1.
         -2   -1    0    0    0  501 -0.00000000000E+00 -0.00000000000E+00 -0.16302124368E+03  0.16302124370E+03  0.25500000000E-02 0. -1.
   -5000001    1    1    2    0    0 -0.31029444416E+03  0.62020364693E+02  0.52665808497E+03  0.66332337979E+03  0.25000000000E+03 0.  0.
    5000001    1    1    2    0    0  0.31029444416E+03 -0.62020364693E+02  0.33469037358E+03  0.52406756614E+03  0.25000000000E+03 0.  0.
<mgrwt>
<rscale>  0 0.81729804E+03</rscale>
<asrwt>0</asrwt>
<pdfrwt beam="1">  1        2 0.15759534E+00 0.81729804E+03</pdfrwt>
<pdfrwt beam="2">  1       -2 0.25080191E-01 0.81729804E+03</pdfrwt>
<totfact> 0.34776560E+02</totfact>
</mgrwt>
</event>
<event>
 4    1  0.1806019E-005  0.6024153E+03  0.7818608E-02  0.9900408E-01
          2   -1    0    0  501    0  0.00000000000E+00  0.00000000000E+00  0.78232802581E+03  0.78232802581E+03  0.25500000000E-02 0.  1.
         -2   -1    0    0    0  501 -0.00000000000E+00 -0.00000000000E+00 -0.11596930667E+03  0.11596930669E+03  0.25500000000E-02 0. -1.
   -5000001    1    1    2    0    0  0.74133627111E+02 -0.10404986961E+03  0.49587211104E+03  0.56983446766E+03  0.25000000000E+03 0.  0.
    5000001    1    1    2    0    0 -0.74133627111E+02  0.10404986961E+03  0.17048660810E+03  0.32846286484E+03  0.25000000000E+03 0.  0.
<mgrwt>
<rscale>  0 0.60241527E+03</rscale>
<asrwt>0</asrwt>
<pdfrwt beam="1">  1        2 0.12035815E+00 0.60241527E+03</pdfrwt>
<pdfrwt beam="2">  1       -2 0.17841433E-01 0.60241527E+03</pdfrwt>
<totfact> 0.92882581E+02</totfact>
</mgrwt>
</event>
<event>
 4    1  0.1806019E-005  0.6108543E+03  0.7818608E-02  0.9883139E-01
         -2   -1    0    0    0  501 -0.00000000000E+00  0.00000000000E+00  0.67576874100E+02  0.67576874148E+02  0.25500000000E-02 0. -1.
          2   -1    0    0  501    0  0.00000000000E+00 -0.00000000000E+00 -0.13804388262E+04  0.13804388262E+04  0.25500000000E-02 0.  1.
   -5000001    1    1    2    0    0  0.11289056905E+03  0.95792890465E+02 -0.43323853638E+03  0.52164757054E+03  0.25000000000E+03 0.  0.
    5000001    1    1    2    0    0 -0.11289056905E+03 -0.95792890465E+02 -0.87962341571E+03  0.92636812980E+03  0.25000000000E+03 0.  0.
<mgrwt>
<rscale>  0 0.61085429E+03</rscale>
<asrwt>0</asrwt>
<pdfrwt beam="1">  1        2 0.21237518E+00 0.61085429E+03</pdfrwt>
<pdfrwt beam="2">  1       -2 0.10396443E-01 0.61085429E+03</pdfrwt>
<totfact> 0.97151104E+02</totfact>
</mgrwt>
</event>
<event>
 4    1  0.1806019E-005  0.6047471E+03  0.7818608E-02  0.9895606E-01
          2   -1    0    0  501    0  0.00000000000E+00  0.00000000000E+00  0.28547269138E+04  0.28547269138E+04  0.25500000000E-02 0.  1.
         -2   -1    0    0    0  501 -0.00000000000E+00 -0.00000000000E+00 -0.32027494761E+02  0.32027494863E+02  0.25500000000E-02 0. -1.
   -5000001    1    1    2    0    0 -0.10553220925E+03  0.11930588573E+03  0.16961159263E+04  0.17218246650E+04  0.25000000000E+03 0.  0.
    5000001    1    1    2    0    0  0.10553220925E+03 -0.11930588573E+03  0.11265834928E+04  0.11649297437E+04  0.25000000000E+03 0.  0.
<mgrwt>
<rscale>  0 0.60474706E+03</rscale>
<asrwt>0</asrwt>
<pdfrwt beam="1">  1        2 0.43918909E+00 0.60474706E+03</pdfrwt>
<pdfrwt beam="2">  1       -2 0.49273032E-02 0.60474706E+03</pdfrwt>
<totfact> 0.48201046E+02</totfact>
</mgrwt>
</event>
<event>
 4    1  0.1806019E-005  0.9880774E+03  0.7818608E-02  0.9321719E-01
          2   -1    0    0  501    0  0.00000000000E+00  0.00000000000E+00  0.94467035277E+03  0.94467035277E+03  0.25500000000E-02 0.  1.
         -2   -1    0    0    0  501 -0.00000000000E+00 -0.00000000000E+00 -0.25836976175E+03  0.25836976176E+03  0.25500000000E-02 0. -1.
   -5000001    1    1    2    0    0  0.91576097437E+02 -0.35065426179E+03  0.61602875313E+03  0.75718955197E+03  0.25000000000E+03 0.  0.
    5000001    1    1    2    0    0 -0.91576097437E+02  0.35065426179E+03  0.70271837889E+02  0.44585056256E+03  0.25000000000E+03 0.  0.
<mgrwt>
<rscale>  0 0.98807743E+03</rscale>
<asrwt>0</asrwt>
<pdfrwt beam="1">  1        2 0.14533390E+00 0.98807743E+03</pdfrwt>
<pdfrwt beam="2">  1       -2 0.39749194E-01 0.98807743E+03</pdfrwt>
<totfact> 0.16357644E+02</totfact>
</mgrwt>
</event>
<event>
 4    1  0.1806019E-005  0.5906786E+03  0.7818608E-02  0.9924936E-01
          2   -1    0    0  501    0  0.00000000000E+00  0.00000000000E+00  0.34801944324E+03  0.34801944325E+03  0.25500000000E-02 0.  1.
         -2   -1    0    0    0  501 -0.00000000000E+00 -0.00000000000E+00 -0.25063337827E+03  0.25063337829E+03  0.25500000000E-02 0. -1.
   -5000001    1    1    2    0    0 -0.11817761766E+03 -0.71819445778E+02 -0.27159224062E+02  0.28698711741E+03  0.25000000000E+03 0.  0.
    5000001    1    1    2    0    0  0.11817761766E+03  0.71819445778E+02  0.12454528903E+03  0.31166570412E+03  0.25000000000E+03 0.  0.
<mgrwt>
<rscale>  0 0.59067855E+03</rscale>
<asrwt>0</asrwt>
<pdfrwt beam="1">  1        2 0.53541453E-01 0.59067855E+03</pdfrwt>
<pdfrwt beam="2">  1       -2 0.38558981E-01 0.59067855E+03</pdfrwt>
<totfact> 0.59508573E+02</totfact>
</mgrwt>
</event>
<event>
 4    1  0.1806019E-005  0.5951109E+03  0.7818608E-02  0.9915602E-01
         -2   -1    0    0    0  501 -0.00000000000E+00  0.00000000000E+00  0.55449837002E+02  0.55449837061E+02  0.25500000000E-02 0. -1.
          2   -1    0    0  501    0  0.00000000000E+00 -0.00000000000E+00 -0.15967451254E+04  0.15967451254E+04  0.25500000000E-02 0.  1.
   -5000001    1    1    2    0    0 -0.12840903384E+03  0.96254879919E+02 -0.72374779935E+03  0.78234567739E+03  0.25000000000E+03 0.  0.
    5000001    1    1    2    0    0  0.12840903384E+03 -0.96254879919E+02 -0.81754748905E+03  0.86984928507E+03  0.25000000000E+03 0.  0.
<mgrwt>
<rscale>  0 0.59511094E+03</rscale>
<asrwt>0</asrwt>
<pdfrwt beam="1">  1        2 0.24565306E+00 0.59511094E+03</pdfrwt>
<pdfrwt beam="2">  1       -2 0.85307454E-02 0.59511094E+03</pdfrwt>
<totfact> 0.10152780E+03</totfact>
</mgrwt>
</event>
<event>
 4    1  0.1806019E-005  0.5790975E+03  0.7818608E-02  0.9949747E-01
          2   -1    0    0  501    0  0.00000000000E+00  0.00000000000E+00  0.85156089819E+03  0.85156089819E+03  0.25500000000E-02 0.  1.
         -2   -1    0    0    0  501 -0.00000000000E+00 -0.00000000000E+00 -0.98452703982E+02  0.98452704015E+02  0.25500000000E-02 0. -1.
   -5000001    1    1    2    0    0  0.13854148570E+03  0.46151928903E+02  0.37025804315E+03  0.47001570433E+03  0.25000000000E+03 0.  0.
    5000001    1    1    2    0    0 -0.13854148570E+03 -0.46151928903E+02  0.38285015106E+03  0.47999789788E+03  0.25000000000E+03 0.  0.
<mgrwt>
<rscale>  0 0.57909748E+03</rscale>
<asrwt>0</asrwt>
<pdfrwt beam="1">  1        2 0.13100937E+00 0.57909748E+03</pdfrwt>
<pdfrwt beam="2">  1       -2 0.15146570E-01 0.57909748E+03</pdfrwt>
<totfact> 0.10972465E+03</totfact>
</mgrwt>
</event>
<event>
 4    1  0.1806019E-005  0.7512496E+03  0.7818608E-02  0.9633392E-01
          2   -1    0    0  501    0  0.00000000000E+00  0.00000000000E+00  0.23143618812E+03  0.23143618814E+03  0.25500000000E-02 0.  1.
         -2   -1    0    0    0  501 -0.00000000000E+00 -0.00000000000E+00 -0.60964532517E+03  0.60964532517E+03  0.25500000000E-02 0. -1.
   -5000001    1    1    2    0    0  0.24538802438E+03  0.13004787869E+03 -0.14623403678E+03  0.40126316399E+03  0.25000000000E+03 0.  0.
    5000001    1    1    2    0    0 -0.24538802438E+03 -0.13004787869E+03 -0.23197510026E+03  0.43981834932E+03  0.25000000000E+03 0.  0.
<mgrwt>
<rscale>  0 0.75124960E+03</rscale>
<asrwt>0</asrwt>
<pdfrwt beam="1">  1        2 0.35605568E-01 0.75124960E+03</pdfrwt>
<pdfrwt beam="2">  1       -2 0.93791588E-01 0.75124960E+03</pdfrwt>
<totfact> 0.14214468E+02</totfact>
</mgrwt>
</event>
<event>
 4    1  0.1806019E-005  0.6775477E+03  0.7818608E-02  0.9756418E-01
         -2   -1    0    0    0  501 -0.00000000000E+00  0.00000000000E+00  0.77626132924E+02  0.77626132966E+02  0.25500000000E-02 0. -1.
          2   -1    0    0  501    0  0.00000000000E+00 -0.00000000000E+00 -0.14784677588E+04  0.14784677588E+04  0.25500000000E-02 0.  1.
   -5000001    1    1    2    0    0 -0.11730741301E+03  0.47342914252E+02 -0.11377836305E+04  0.11717738564E+04  0.25000000000E+03 0.  0.
    5000001    1    1    2    0    0  0.11730741301E+03 -0.47342914252E+02 -0.26305799542E+03  0.38432003543E+03  0.25000000000E+03 0.  0.
<mgrwt>
<rscale>  0 0.67754774E+03</rscale>
<asrwt>0</asrwt>
<pdfrwt beam="1">  1        2 0.22745656E+00 0.67754774E+03</pdfrwt>
<pdfrwt beam="2">  1       -2 0.11942483E-01 0.67754774E+03</pdfrwt>
<totfact> 0.68008301E+02</totfact>
</mgrwt>
</event>
<event>
 4    1  0.1806019E-005  0.8835288E+03  0.7818608E-02  0.9446409E-01
         -2   -1    0    0    0  501 -0.00000000000E+00  0.00000000000E+00  0.64516532753E+03  0.64516532754E+03  0.25500000000E-02 0. -1.
          2   -1    0    0  501    0  0.00000000000E+00 -0.00000000000E+00 -0.30248959045E+03  0.30248959046E+03  0.25500000000E-02 0.  1.
   -5000001    1    1    2    0    0  0.20679993192E+03  0.81239391139E+02 -0.13820818048E+03  0.36189439297E+03  0.25000000000E+03 0.  0.
    5000001    1    1    2    0    0 -0.20679993192E+03 -0.81239391139E+02  0.48088391756E+03  0.58576052503E+03  0.25000000000E+03 0.  0.
<mgrwt>
<rscale>  0 0.88352882E+03</rscale>
<asrwt>0</asrwt>
<pdfrwt beam="1">  1        2 0.46536860E-01 0.88352882E+03</pdfrwt>
<pdfrwt beam="2">  1       -2 0.99256204E-01 0.88352882E+03</pdfrwt>
<totfact> 0.91832590E+01</totfact>
</mgrwt>
</event>
<event>
 4    1  0.1806019E-005  0.1021422E+04  0.7818608E-02  0.9285356E-01
         -2   -1    0    0    0  501 -0.00000000000E+00  0.00000000000E+00  0.33240094578E+03  0.33240094579E+03  0.25500000000E-02 0. -1.
          2   -1    0    0  501    0  0.00000000000E+00 -0.00000000000E+00 -0.78467235457E+03  0.78467235458E+03  0.25500000000E-02 0.  1.
   -5000001    1    1    2    0    0 -0.17983673883E+03  0.40641633639E+03 -0.19500345769E+03  0.54593208335E+03  0.25000000000E+03 0.  0.
    5000001    1    1    2    0    0  0.17983673883E+03 -0.40641633639E+03 -0.25726795110E+03  0.57114121702E+03  0.25000000000E+03 0.  0.
<mgrwt>
<rscale>  0 0.10214222E+04</rscale>
<asrwt>0</asrwt>
<pdfrwt beam="1">  1        2 0.12071882E+00 0.10214222E+04</pdfrwt>
<pdfrwt beam="2">  1       -2 0.51138608E-01 0.10214222E+04</pdfrwt>
<totfact> 0.12737772E+02</totfact>
</mgrwt>
</event>
<event>
 4    1  0.1806019E-005  0.1232187E+04  0.7818608E-02  0.9085141E-01
         -2   -1    0    0    0  501 -0.00000000000E+00  0.00000000000E+00  0.73027252102E+03  0.73027252103E+03  0.25500000000E-02 0. -1.
          2   -1    0    0  501    0  0.00000000000E+00 -0.00000000000E+00 -0.51976616076E+03  0.51976616077E+03  0.25500000000E-02 0.  1.
   -5000001    1    1    2    0    0  0.52908685509E+03  0.17699860946E+03  0.27928573028E+02  0.61199788657E+03  0.25000000000E+03 0.  0.
    5000001    1    1    2    0    0 -0.52908685509E+03 -0.17699860946E+03  0.18257778724E+03  0.63804079522E+03  0.25000000000E+03 0.  0.
<mgrwt>
<rscale>  0 0.12321866E+04</rscale>
<asrwt>0</asrwt>
<pdfrwt beam="1">  1        2 0.79964025E-01 0.12321866E+04</pdfrwt>
<pdfrwt beam="2">  1       -2 0.11234962E+00 0.12321866E+04</pdfrwt>
<totfact> 0.36165573E+01</totfact>
</mgrwt>
</event>
<event>
 4    1  0.1806019E-005  0.6446927E+03  0.7818608E-02  0.9816789E-01
          2   -1    0    0  501    0  0.00000000000E+00  0.00000000000E+00  0.19018045679E+03  0.19018045681E+03  0.25500000000E-02 0.  1.
         -2   -1    0    0    0  501 -0.00000000000E+00 -0.00000000000E+00 -0.54636097026E+03  0.54636097027E+03  0.25500000000E-02 0. -1.
   -5000001    1    1    2    0    0 -0.11272611614E+03  0.12008377633E+03 -0.41566945954E+02  0.30225006467E+03  0.25000000000E+03 0.  0.
    5000001    1    1    2    0    0  0.11272611614E+03 -0.12008377633E+03 -0.31461356751E+03  0.43429136241E+03  0.25000000000E+03 0.  0.
<mgrwt>
<rscale>  0 0.64469273E+03</rscale>
<asrwt>0</asrwt>
<pdfrwt beam="1">  1        2 0.29258532E-01 0.64469273E+03</pdfrwt>
<pdfrwt beam="2">  1       -2 0.84055533E-01 0.64469273E+03</pdfrwt>
<totfact> 0.22875596E+02</totfact>
</mgrwt>
</event>
<event>
 4    1  0.1806019E-005  0.7928862E+03  0.7818608E-02  0.9570371E-01
         -2   -1    0    0    0  501 -0.00000000000E+00  0.00000000000E+00  0.95932737383E+02  0.95932737417E+02  0.25500000000E-02 0. -1.
          2   -1    0    0  501    0  0.00000000000E+00 -0.00000000000E+00 -0.16383055555E+04  0.16383055555E+04  0.25500000000E-02 0.  1.
   -5000001    1    1    2    0    0 -0.14472504507E+03  0.22629421945E+03 -0.44300654492E+03  0.57524708714E+03  0.25000000000E+03 0.  0.
    5000001    1    1    2    0    0  0.14472504507E+03 -0.22629421945E+03 -0.10993662732E+04  0.11589912058E+04  0.25000000000E+03 0.  0.
<mgrwt>
<rscale>  0 0.79288621E+03</rscale>
<asrwt>0</asrwt>
<pdfrwt beam="1">  1        2 0.25204699E+00 0.79288621E+03</pdfrwt>
<pdfrwt beam="2">  1       -2 0.14758884E-01 0.79288621E+03</pdfrwt>
<totfact> 0.38704266E+02</totfact>
</mgrwt>
</event>
<event>
 4    1  0.1806019E-005  0.1308296E+04  0.7818608E-02  0.9023012E-01
          2   -1    0    0  501    0  0.00000000000E+00  0.00000000000E+00  0.23144641177E+04  0.23144641177E+04  0.25500000000E-02 0.  1.
         -2   -1    0    0    0  501 -0.00000000000E+00 -0.00000000000E+00 -0.18488485389E+03  0.18488485391E+03  0.25500000000E-02 0. -1.
   -5000001    1    1    2    0    0 -0.18989781849E+03  0.54347892128E+03  0.14169376836E+04  0.15497234974E+04  0.25000000000E+03 0.  0.
    5000001    1    1    2    0    0  0.18989781849E+03 -0.54347892128E+03  0.71264158026E+03  0.94962547421E+03  0.25000000000E+03 0.  0.
<mgrwt>
<rscale>  0 0.13082956E+04</rscale>
<asrwt>0</asrwt>
<pdfrwt beam="1">  1        2 0.35607140E+00 0.13082956E+04</pdfrwt>
<pdfrwt beam="2">  1       -2 0.28443824E-01 0.13082956E+04</pdfrwt>
<totfact> 0.49489158E+01</totfact>
</mgrwt>
</event>
<event>
 4    1  0.1806019E-005  0.8519758E+03  0.7818608E-02  0.9487689E-01
         -2   -1    0    0    0  501 -0.00000000000E+00  0.00000000000E+00  0.51693596435E+03  0.51693596435E+03  0.25500000000E-02 0. -1.
          2   -1    0    0  501    0  0.00000000000E+00 -0.00000000000E+00 -0.35104095189E+03  0.35104095190E+03  0.25500000000E-02 0.  1.
   -5000001    1    1    2    0    0  0.30947766838E+02  0.33446703754E+03  0.31194538693E+01  0.41873105267E+03  0.25000000000E+03 0.  0.
    5000001    1    1    2    0    0 -0.30947766838E+02 -0.33446703754E+03  0.16277555859E+03  0.44924586359E+03  0.25000000000E+03 0.  0.
<mgrwt>
<rscale>  0 0.85197580E+03</rscale>
<asrwt>0</asrwt>
<pdfrwt beam="1">  1        2 0.54006301E-01 0.85197580E+03</pdfrwt>
<pdfrwt beam="2">  1       -2 0.79528609E-01 0.85197580E+03</pdfrwt>
<totfact> 0.12977516E+02</totfact>
</mgrwt>
</event>
<event>
 4    1  0.1806019E-005  0.6688726E+03  0.7818608E-02  0.9771997E-01
          2   -1    0    0  501    0  0.00000000000E+00  0.00000000000E+00  0.24255153169E+03  0.24255153171E+03  0.25500000000E-02 0.  1.
         -2   -1    0    0    0  501 -0.00000000000E+00 -0.00000000000E+00 -0.46112934971E+03  0.46112934972E+03  0.25500000000E-02 0. -1.
   -5000001    1    1    2    0    0  0.87738374075E+02  0.20406942057E+03 -0.10687164398E+03  0.35108958826E+03  0.25000000000E+03 0.  0.
    5000001    1    1    2    0    0 -0.87738374075E+02 -0.20406942057E+03 -0.11170617404E+03  0.35259129317E+03  0.25000000000E+03 0.  0.
<mgrwt>
<rscale>  0 0.66887257E+03</rscale>
<asrwt>0</asrwt>
<pdfrwt beam="1">  1        2 0.37315620E-01 0.66887257E+03</pdfrwt>
<pdfrwt beam="2">  1       -2 0.70942977E-01 0.66887257E+03</pdfrwt>
<totfact> 0.25387662E+02</totfact>
</mgrwt>
</event>
<event>
 4    1  0.1806019E-005  0.8176350E+03  0.7818608E-02  0.9534836E-01
          2   -1    0    0  501    0  0.00000000000E+00  0.00000000000E+00  0.98298180230E+03  0.98298180231E+03  0.25500000000E-02 0.  1.
         -2   -1    0    0    0  501 -0.00000000000E+00 -0.00000000000E+00 -0.17002526255E+03  0.17002526257E+03  0.25500000000E-02 0. -1.
   -5000001    1    1    2    0    0  0.32273961086E+03 -0.20546045323E+02  0.41632352591E+03  0.58344517705E+03  0.25000000000E+03 0.  0.
    5000001    1    1    2    0    0 -0.32273961086E+03  0.20546045323E+02  0.39663301384E+03  0.56956188783E+03  0.25000000000E+03 0.  0.
<mgrwt>
<rscale>  0 0.81763498E+03</rscale>
<asrwt>0</asrwt>
<pdfrwt beam="1">  1        2 0.15122796E+00 0.81763498E+03</pdfrwt>
<pdfrwt beam="2">  1       -2 0.26157734E-01 0.81763498E+03</pdfrwt>
<totfact> 0.34245073E+02</totfact>
</mgrwt>
</event>
<event>
 4    1  0.1806019E-005  0.8108194E+03  0.7818608E-02  0.9544487E-01
         -2   -1    0    0    0  501 -0.00000000000E+00  0.00000000000E+00  0.32677197233E+03  0.32677197234E+03  0.25500000000E-02 0. -1.
          2   -1    0    0  501    0  0.00000000000E+00 -0.00000000000E+00 -0.50297163476E+03  0.50297163476E+03  0.25500000000E-02 0.  1.
   -5000001    1    1    2    0    0 -0.12063202381E+03  0.27526166744E+03 -0.19801223062E+03  0.43821217943E+03  0.25000000000E+03 0.  0.
    5000001    1    1    2    0    0  0.12063202381E+03 -0.27526166744E+03  0.21812568193E+02  0.39153142768E+03  0.25000000000E+03 0.  0.
<mgrwt>
<rscale>  0 0.81081942E+03</rscale>
<asrwt>0</asrwt>
<pdfrwt beam="1">  1        2 0.77380252E-01 0.81081942E+03</pdfrwt>
<pdfrwt beam="2">  1       -2 0.50272611E-01 0.81081942E+03</pdfrwt>
<totfact> 0.23041873E+02</totfact>
</mgrwt>
</event>
<event>
 4    1  0.1806019E-005  0.1103160E+04  0.7818608E-02  0.9202118E-01
         -2   -1    0    0    0  501 -0.00000000000E+00  0.00000000000E+00  0.18838401029E+03  0.18838401030E+03  0.25500000000E-02 0. -1.
          2   -1    0    0  501    0  0.00000000000E+00 -0.00000000000E+00 -0.16150002760E+04  0.16150002760E+04  0.25500000000E-02 0.  1.
   -5000001    1    1    2    0    0  0.86228066731E+02  0.31670955301E+03 -0.13117230052E+04  0.13750845294E+04  0.25000000000E+03 0.  0.
    5000001    1    1    2    0    0 -0.86228066731E+02 -0.31670955301E+03 -0.11489326044E+03  0.42829975689E+03  0.25000000000E+03 0.  0.
<mgrwt>
<rscale>  0 0.11031595E+04</rscale>
<asrwt>0</asrwt>
<pdfrwt beam="1">  1        2 0.24846157E+00 0.11031595E+04</pdfrwt>
<pdfrwt beam="2">  1       -2 0.28982157E-01 0.11031595E+04</pdfrwt>
<totfact> 0.11869339E+02</totfact>
</mgrwt>
</event>
<event>
 4    1  0.1806019E-005  0.8188308E+03  0.7818608E-02  0.9533153E-01
          2   -1    0    0  501    0  0.00000000000E+00  0.00000000000E+00  0.74069260696E+03  0.74069260697E+03  0.25500000000E-02 0.  1.
         -2   -1    0    0    0  501 -0.00000000000E+00 -0.00000000000E+00 -0.22630300015E+03  0.22630300016E+03  0.25500000000E-02 0. -1.
   -5000001    1    1    2    0    0 -0.20801258739E+03 -0.23813941109E+03  0.34187242600E+03  0.52854174034E+03  0.25000000000E+03 0.  0.
    5000001    1    1    2    0    0  0.20801258739E+03  0.23813941109E+03  0.17251718081E+03  0.43845386679E+03  0.25000000000E+03 0.  0.
<mgrwt>
<rscale>  0 0.81883077E+03</rscale>
<asrwt>0</asrwt>
<pdfrwt beam="1">  1        2 0.11395271E+00 0.81883077E+03</pdfrwt>
<pdfrwt beam="2">  1       -2 0.34815846E-01 0.81883077E+03</pdfrwt>
<totfact> 0.29627332E+02</totfact>
</mgrwt>
</event>
<event>
 4    1  0.1806019E-005  0.7288382E+03  0.7818608E-02  0.9669148E-01
         -2   -1    0    0    0  501 -0.00000000000E+00  0.00000000000E+00  0.52562665879E+03  0.52562665879E+03  0.25500000000E-02 0. -1.
          2   -1    0    0  501    0  0.00000000000E+00 -0.00000000000E+00 -0.25265324061E+03  0.25265324063E+03  0.25500000000E-02 0.  1.
   -5000001    1    1    2    0    0  0.21199332152E+03 -0.99002345513E+02  0.32908912950E+01  0.34242292966E+03  0.25000000000E+03 0.  0.
    5000001    1    1    2    0    0 -0.21199332152E+03  0.99002345513E+02  0.26968252688E+03  0.43585696977E+03  0.25000000000E+03 0.  0.
<mgrwt>
<rscale>  0 0.72883820E+03</rscale>
<asrwt>0</asrwt>
<pdfrwt beam="1">  1        2 0.38869730E-01 0.72883820E+03</pdfrwt>
<pdfrwt beam="2">  1       -2 0.80865639E-01 0.72883820E+03</pdfrwt>
<totfact> 0.18111898E+02</totfact>
</mgrwt>
</event>
<event>
 4    1  0.1806019E-005  0.6001299E+03  0.7818608E-02  0.9905137E-01
          2   -1    0    0  501    0  0.00000000000E+00  0.00000000000E+00  0.74120500406E+03  0.74120500407E+03  0.25500000000E-02 0.  1.
         -2   -1    0    0    0  501 -0.00000000000E+00 -0.00000000000E+00 -0.12147646879E+03  0.12147646882E+03  0.25500000000E-02 0. -1.
   -5000001    1    1    2    0    0 -0.11946065332E+03 -0.32315875989E+02  0.46879518720E+03  0.54551268644E+03  0.25000000000E+03 0.  0.
    5000001    1    1    2    0    0  0.11946065332E+03  0.32315875989E+02  0.15093334808E+03  0.31716878644E+03  0.25000000000E+03 0.  0.
<mgrwt>
<rscale>  0 0.60012987E+03</rscale>
<asrwt>0</asrwt>
<pdfrwt beam="1">  1        2 0.11403154E+00 0.60012987E+03</pdfrwt>
<pdfrwt beam="2">  1       -2 0.18688687E-01 0.60012987E+03</pdfrwt>
<totfact> 0.91941584E+02</totfact>
</mgrwt>
</event>
<event>
 4    1  0.1806019E-005  0.6298796E+03  0.7818608E-02  0.9845284E-01
          2   -1    0    0  501    0  0.00000000000E+00  0.00000000000E+00  0.16017184996E+04  0.16017184996E+04  0.25500000000E-02 0. -1.
         -2   -1    0    0    0  501 -0.00000000000E+00 -0.00000000000E+00 -0.61925406051E+02  0.61925406103E+02  0.25500000000E-02 0.  1.
   -5000001    1    1    2    0    0  0.15022039052E+03 -0.11732662382E+03  0.81968640227E+03  0.87790517737E+03  0.25000000000E+03 0.  0.
    5000001    1    1    2    0    0 -0.15022039052E+03  0.11732662382E+03  0.72010669129E+03  0.78573872835E+03  0.25000000000E+03 0.  0.
<mgrwt>
<rscale>  0 0.62987957E+03</rscale>
<asrwt>0</asrwt>
<pdfrwt beam="1">  1        2 0.24641819E+00 0.62987957E+03</pdfrwt>
<pdfrwt beam="2">  1       -2 0.95269872E-02 0.62987957E+03</pdfrwt>
<totfact> 0.84315207E+02</totfact>
</mgrwt>
</event>
<event>
 4    1  0.1806019E-005  0.5930826E+03  0.7818608E-02  0.9919862E-01
         -2   -1    0    0    0  501 -0.00000000000E+00  0.00000000000E+00  0.11853410638E+03  0.11853410640E+03  0.25500000000E-02 0. -1.
          2   -1    0    0  501    0  0.00000000000E+00 -0.00000000000E+00 -0.74186862819E+03  0.74186862820E+03  0.25500000000E-02 0.  1.
   -5000001    1    1    2    0    0 -0.60927039286E+01  0.15481467157E+03 -0.25676845755E+03  0.39042892358E+03  0.25000000000E+03 0.  0.
    5000001    1    1    2    0    0  0.60927039286E+01 -0.15481467157E+03 -0.36656606426E+03  0.46997381102E+03  0.25000000000E+03 0.  0.
<mgrwt>
<rscale>  0 0.59308257E+03</rscale>
<asrwt>0</asrwt>
<pdfrwt beam="1">  1        2 0.11413363E+00 0.59308257E+03</pdfrwt>
<pdfrwt beam="2">  1       -2 0.18236017E-01 0.59308257E+03</pdfrwt>
<totfact> 0.95816258E+02</totfact>
</mgrwt>
</event>
<event>
 4    1  0.1806019E-005  0.1147037E+04  0.7818608E-02  0.9160521E-01
         -2   -1    0    0    0  501 -0.00000000000E+00  0.00000000000E+00  0.16062132754E+03  0.16062132756E+03  0.25500000000E-02 0. -1.
          2   -1    0    0  501    0  0.00000000000E+00 -0.00000000000E+00 -0.20478208854E+04  0.20478208854E+04  0.25500000000E-02 0.  1.
   -5000001    1    1    2    0    0 -0.35992462655E+03 -0.15408561150E+03 -0.29599791427E+03  0.55082018638E+03  0.25000000000E+03 0.  0.
    5000001    1    1    2    0    0  0.35992462655E+03  0.15408561150E+03 -0.15912016436E+04  0.16576220266E+04  0.25000000000E+03 0.  0.
<mgrwt>
<rscale>  0 0.11470374E+04</rscale>
<asrwt>0</asrwt>
<pdfrwt beam="1">  1        2 0.31504935E+00 0.11470374E+04</pdfrwt>
<pdfrwt beam="2">  1       -2 0.24710975E-01 0.11470374E+04</pdfrwt>
<totfact> 0.91347936E+01</totfact>
</mgrwt>
</event>
<event>
 4    1  0.1806019E-005  0.1110428E+04  0.7818608E-02  0.9195087E-01
          2   -1    0    0  501    0  0.00000000000E+00  0.00000000000E+00  0.17603709843E+03  0.17603709845E+03  0.25500000000E-02 0.  1.
         -2   -1    0    0    0  501 -0.00000000000E+00 -0.00000000000E+00 -0.17511226580E+04  0.17511226580E+04  0.25500000000E-02 0. -1.
   -5000001    1    1    2    0    0  0.13707706429E+03  0.36418587393E+03 -0.13206048214E+04  0.13992564335E+04  0.25000000000E+03 0.  0.
    5000001    1    1    2    0    0 -0.13707706429E+03 -0.36418587393E+03 -0.25448073820E+03  0.52790332300E+03  0.25000000000E+03 0.  0.
<mgrwt>
<rscale>  0 0.11104279E+04</rscale>
<asrwt>0</asrwt>
<pdfrwt beam="1">  1        2 0.27082632E-01 0.11104279E+04</pdfrwt>
<pdfrwt beam="2">  1       -2 0.26940347E+00 0.11104279E+04</pdfrwt>
<totfact> 0.97689311E+00</totfact>
</mgrwt>
</event>
<event>
 4    1  0.1806019E-005  0.6035947E+03  0.7818608E-02  0.9897976E-01
          2   -1    0    0  501    0  0.00000000000E+00  0.00000000000E+00  0.93513295888E+03  0.93513295888E+03  0.25500000000E-02 0.  1.
         -2   -1    0    0    0  501 -0.00000000000E+00 -0.00000000000E+00 -0.97399670836E+02  0.97399670870E+02  0.25500000000E-02 0. -1.
   -5000001    1    1    2    0    0  0.75713746088E+02 -0.98273012382E+02  0.22239258176E+03  0.35685937949E+03  0.25000000000E+03 0.  0.
    5000001    1    1    2    0    0 -0.75713746088E+02  0.98273012382E+02  0.61534070628E+03  0.67567325026E+03  0.25000000000E+03 0.  0.
<mgrwt>
<rscale>  0 0.60359471E+03</rscale>
<asrwt>0</asrwt>
<pdfrwt beam="1">  1        2 0.14386660E+00 0.60359471E+03</pdfrwt>
<pdfrwt beam="2">  1       -2 0.14984566E-01 0.60359471E+03</pdfrwt>
<totfact> 0.98155669E+02</totfact>
</mgrwt>
</event>
<event>
 4    1  0.1806019E-005  0.7739259E+03  0.7818608E-02  0.9598545E-01
         -2   -1    0    0    0  501 -0.00000000000E+00  0.00000000000E+00  0.73566663409E+03  0.73566663410E+03  0.25500000000E-02 0. -1.
          2   -1    0    0  501    0  0.00000000000E+00 -0.00000000000E+00 -0.20354370536E+03  0.20354370537E+03  0.25500000000E-02 0.  1.
   -5000001    1    1    2    0    0 -0.19907971216E+03 -0.12170784079E+03  0.46292744839E+02  0.34509208703E+03  0.25000000000E+03 0.  0.
    5000001    1    1    2    0    0  0.19907971216E+03  0.12170784079E+03  0.48583018390E+03  0.59411825245E+03  0.25000000000E+03 0.  0.
<mgrwt>
<rscale>  0 0.77392587E+03</rscale>
<asrwt>0</asrwt>
<pdfrwt beam="1">  1        2 0.31314416E-01 0.77392587E+03</pdfrwt>
<pdfrwt beam="2">  1       -2 0.11317948E+00 0.77392587E+03</pdfrwt>
<totfact> 0.10479455E+02</totfact>
</mgrwt>
</event>
<event>
 4    1  0.1806019E-005  0.1705181E+04  0.7818608E-02  0.8758415E-01
          2   -1    0    0  501    0  0.00000000000E+00  0.00000000000E+00  0.25522384855E+04  0.25522384855E+04  0.25500000000E-02 0.  1.
         -2   -1    0    0    0  501 -0.00000000000E+00 -0.00000000000E+00 -0.28481278171E+03  0.28481278172E+03  0.25500000000E-02 0. -1.
   -5000001    1    1    2    0    0 -0.73679689155E+03  0.32414463955E+03  0.13472401111E+04  0.15891807083E+04  0.25000000000E+03 0.  0.
    5000001    1    1    2    0    0  0.73679689155E+03 -0.32414463955E+03  0.92018559263E+03  0.12478705588E+04  0.25000000000E+03 0.  0.
<mgrwt>
<rscale>  0 0.17051805E+04</rscale>
<asrwt>0</asrwt>
<pdfrwt beam="1">  1        2 0.39265208E+00 0.17051805E+04</pdfrwt>
<pdfrwt beam="2">  1       -2 0.43817351E-01 0.17051805E+04</pdfrwt>
<totfact> 0.15276680E+01</totfact>
</mgrwt>
</event>
<event>
 4    1  0.1806019E-005  0.5149687E+03  0.7818608E-02  0.1009944E+00
          2   -1    0    0  501    0  0.00000000000E+00  0.00000000000E+00  0.86423724632E+03  0.86423724632E+03  0.25500000000E-02 0.  1.
         -2   -1    0    0    0  501 -0.00000000000E+00 -0.00000000000E+00 -0.76712963013E+02  0.76712963056E+02  0.25500000000E-02 0. -1.
   -5000001    1    1    2    0    0 -0.59076855132E+02 -0.17448513344E+02  0.39025958565E+03  0.46754365531E+03  0.25000000000E+03 0.  0.
    5000001    1    1    2    0    0  0.59076855132E+02  0.17448513344E+02  0.39726469765E+03  0.47340655406E+03  0.25000000000E+03 0.  0.
<mgrwt>
<rscale>  0 0.51496874E+03</rscale>
<asrwt>0</asrwt>
<pdfrwt beam="1">  1        2 0.13295958E+00 0.51496874E+03</pdfrwt>
<pdfrwt beam="2">  1       -2 0.11801994E-01 0.51496874E+03</pdfrwt>
<totfact> 0.16296707E+03</totfact>
</mgrwt>
</event>
<event>
 4    1  0.1806019E-005  0.5763729E+03  0.7818608E-02  0.9955675E-01
         -2   -1    0    0    0  501 -0.00000000000E+00  0.00000000000E+00  0.94247433249E+02  0.94247433283E+02  0.25500000000E-02 0. -1.
          2   -1    0    0  501    0  0.00000000000E+00 -0.00000000000E+00 -0.88120638784E+03  0.88120638784E+03  0.25500000000E-02 0.  1.
   -5000001    1    1    2    0    0 -0.10525063665E+02 -0.13062218735E+03 -0.29510881972E+03  0.40836521432E+03  0.25000000000E+03 0.  0.
    5000001    1    1    2    0    0  0.10525063665E+02  0.13062218735E+03 -0.49185013487E+03  0.56708860680E+03  0.25000000000E+03 0.  0.
<mgrwt>
<rscale>  0 0.57637294E+03</rscale>
<asrwt>0</asrwt>
<pdfrwt beam="1">  1        2 0.13557021E+00 0.57637294E+03</pdfrwt>
<pdfrwt beam="2">  1       -2 0.14499606E-01 0.57637294E+03</pdfrwt>
<totfact> 0.11272408E+03</totfact>
</mgrwt>
</event>
<event>
 4    1  0.1806019E-005  0.7557395E+03  0.7818608E-02  0.9626389E-01
         -2   -1    0    0    0  501 -0.00000000000E+00  0.00000000000E+00  0.26812327749E+03  0.26812327750E+03  0.25500000000E-02 0. -1.
          2   -1    0    0  501    0  0.00000000000E+00 -0.00000000000E+00 -0.53253687837E+03  0.53253687838E+03  0.25500000000E-02 0.  1.
   -5000001    1    1    2    0    0  0.23003332287E+03 -0.11070690979E+03 -0.19595794883E+01  0.35731665153E+03  0.25000000000E+03 0.  0.
    5000001    1    1    2    0    0 -0.23003332287E+03  0.11070690979E+03 -0.26245402139E+03  0.44334350435E+03  0.25000000000E+03 0.  0.
<mgrwt>
<rscale>  0 0.75573946E+03</rscale>
<asrwt>0</asrwt>
<pdfrwt beam="1">  1        2 0.81928751E-01 0.75573946E+03</pdfrwt>
<pdfrwt beam="2">  1       -2 0.41249735E-01 0.75573946E+03</pdfrwt>
<totfact> 0.32071581E+02</totfact>
</mgrwt>
</event>
<event>
 4    1  0.1806019E-005  0.7113482E+03  0.7818608E-02  0.9698020E-01
         -2   -1    0    0    0  501 -0.00000000000E+00  0.00000000000E+00  0.50139844099E+03  0.50139844100E+03  0.25500000000E-02 0.  1.
          2   -1    0    0  501    0  0.00000000000E+00 -0.00000000000E+00 -0.25230250093E+03  0.25230250095E+03  0.25500000000E-02 0. -1.
   -5000001    1    1    2    0    0 -0.23162680832E+03  0.82736107895E+02  0.61794664723E+02  0.35611068851E+03  0.25000000000E+03 0.  0.
    5000001    1    1    2    0    0  0.23162680832E+03 -0.82736107895E+02  0.18730127534E+03  0.39759025344E+03  0.25000000000E+03 0.  0.
<mgrwt>
<rscale>  0 0.71134824E+03</rscale>
<asrwt>0</asrwt>
<pdfrwt beam="1">  1        2 0.38815770E-01 0.71134824E+03</pdfrwt>
<pdfrwt beam="2">  1       -2 0.77138221E-01 0.71134824E+03</pdfrwt>
<totfact> 0.20174000E+02</totfact>
</mgrwt>
</event>
<event>
 4    1  0.1806019E-005  0.1036252E+04  0.7818608E-02  0.9269654E-01
         -2   -1    0    0    0  501 -0.00000000000E+00  0.00000000000E+00  0.18894490640E+03  0.18894490641E+03  0.25500000000E-02 0. -1.
          2   -1    0    0  501    0  0.00000000000E+00 -0.00000000000E+00 -0.14208083921E+04  0.14208083921E+04  0.25500000000E-02 0.  1.
   -5000001    1    1    2    0    0 -0.34594458124E+03  0.77228704210E+02 -0.17569552090E+03  0.46798594221E+03  0.25000000000E+03 0.  0.
    5000001    1    1    2    0    0  0.34594458124E+03 -0.77228704210E+02 -0.10561679648E+04  0.11417673563E+04  0.25000000000E+03 0.  0.
<mgrwt>
<rscale>  0 0.10362519E+04</rscale>
<asrwt>0</asrwt>
<pdfrwt beam="1">  1        2 0.21858590E+00 0.10362519E+04</pdfrwt>
<pdfrwt beam="2">  1       -2 0.29068448E-01 0.10362519E+04</pdfrwt>
<totfact> 0.15241161E+02</totfact>
</mgrwt>
</event>
<event>
 4    1  0.1806019E-005  0.6213251E+03  0.7818608E-02  0.9862125E-01
          2   -1    0    0  501    0  0.00000000000E+00  0.00000000000E+00  0.92506460652E+03  0.92506460653E+03  0.25500000000E-02 0.  1.
         -2   -1    0    0    0  501 -0.00000000000E+00 -0.00000000000E+00 -0.10432918203E+03  0.10432918206E+03  0.25500000000E-02 0. -1.
   -5000001    1    1    2    0    0  0.15685730379E+03  0.13668184534E+02  0.25128140468E+03  0.38785741885E+03  0.25000000000E+03 0.  0.
    5000001    1    1    2    0    0 -0.15685730379E+03 -0.13668184534E+02  0.56945401981E+03  0.64153636974E+03  0.25000000000E+03 0.  0.
<mgrwt>
<rscale>  0 0.62132514E+03</rscale>
<asrwt>0</asrwt>
<pdfrwt beam="1">  1        2 0.14231764E+00 0.62132514E+03</pdfrwt>
<pdfrwt beam="2">  1       -2 0.16050643E-01 0.62132514E+03</pdfrwt>
<totfact> 0.88681961E+02</totfact>
</mgrwt>
</event>
<event>
 4    1  0.1806019E-005  0.8663813E+03  0.7818608E-02  0.9468611E-01
          2   -1    0    0  501    0  0.00000000000E+00  0.00000000000E+00  0.81410793710E+03  0.81410793710E+03  0.25500000000E-02 0.  1.
         -2   -1    0    0    0  501 -0.00000000000E+00 -0.00000000000E+00 -0.23050275316E+03  0.23050275317E+03  0.25500000000E-02 0. -1.
   -5000001    1    1    2    0    0 -0.85164052760E+02 -0.33394647867E+03  0.19548885424E+03  0.46849659404E+03  0.25000000000E+03 0.  0.
    5000001    1    1    2    0    0  0.85164052760E+02  0.33394647867E+03  0.38811632970E+03  0.57611409623E+03  0.25000000000E+03 0.  0.
<mgrwt>
<rscale>  0 0.86638126E+03</rscale>
<asrwt>0</asrwt>
<pdfrwt beam="1">  1        2 0.12524737E+00 0.86638126E+03</pdfrwt>
<pdfrwt beam="2">  1       -2 0.35461962E-01 0.86638126E+03</pdfrwt>
<totfact> 0.25214098E+02</totfact>
</mgrwt>
</event>
<event>
 4    1  0.1806019E-005  0.1188704E+04  0.7818608E-02  0.9122801E-01
          2   -1    0    0  501    0  0.00000000000E+00  0.00000000000E+00  0.19423652016E+04  0.19423652016E+04  0.25500000000E-02 0.  1.
         -2   -1    0    0    0  501 -0.00000000000E+00 -0.00000000000E+00 -0.18186824122E+03  0.18186824124E+03  0.25500000000E-02 0. -1.
   -5000001    1    1    2    0    0  0.20585626402E+03  0.48348429475E+03  0.10963272654E+04  0.12411959303E+04  0.25000000000E+03 0.  0.
    5000001    1    1    2    0    0 -0.20585626402E+03 -0.48348429475E+03  0.66416969501E+03  0.88303751250E+03  0.25000000000E+03 0.  0.
<mgrwt>
<rscale>  0 0.11887044E+04</rscale>
<asrwt>0</asrwt>
<pdfrwt beam="1">  1        2 0.29882541E+00 0.11887044E+04</pdfrwt>
<pdfrwt beam="2">  1       -2 0.27979730E-01 0.11887044E+04</pdfrwt>
<totfact> 0.82994597E+01</totfact>
</mgrwt>
</event>
<event>
 4    1  0.1806019E-005  0.7103203E+03  0.7818608E-02  0.9699744E-01
         -2   -1    0    0    0  501 -0.00000000000E+00  0.00000000000E+00  0.24693686653E+03  0.24693686654E+03  0.25500000000E-02 0. -1.
          2   -1    0    0  501    0  0.00000000000E+00 -0.00000000000E+00 -0.51081371280E+03  0.51081371281E+03  0.25500000000E-02 0.  1.
   -5000001    1    1    2    0    0  0.12301326248E+03 -0.20065368047E+03 -0.35075808423E+02  0.34514413593E+03  0.25000000000E+03 0.  0.
    5000001    1    1    2    0    0 -0.12301326248E+03  0.20065368047E+03 -0.22880103785E+03  0.41260644342E+03  0.25000000000E+03 0.  0.
<mgrwt>
<rscale>  0 0.71032032E+03</rscale>
<asrwt>0</asrwt>
<pdfrwt beam="1">  1        2 0.78586725E-01 0.71032032E+03</pdfrwt>
<pdfrwt beam="2">  1       -2 0.37990287E-01 0.71032032E+03</pdfrwt>
<totfact> 0.39576044E+02</totfact>
</mgrwt>
</event>
<event>
 4    1  0.1806019E-005  0.9186594E+03  0.7818608E-02  0.9402552E-01
          2   -1    0    0  501    0  0.00000000000E+00  0.00000000000E+00  0.81554937396E+03  0.81554937396E+03  0.25500000000E-02 0.  1.
         -2   -1    0    0    0  501 -0.00000000000E+00 -0.00000000000E+00 -0.25870139574E+03  0.25870139575E+03  0.25500000000E-02 0. -1.
   -5000001    1    1    2    0    0  0.35875541122E+03 -0.87063370414E+02  0.40757581929E+03  0.60407244931E+03  0.25000000000E+03 0.  0.
    5000001    1    1    2    0    0 -0.35875541122E+03  0.87063370414E+02  0.14927215892E+03  0.47017832040E+03  0.25000000000E+03 0.  0.
<mgrwt>
<rscale>  0 0.91865937E+03</rscale>
<asrwt>0</asrwt>
<pdfrwt beam="1">  1        2 0.12546913E+00 0.91865937E+03</pdfrwt>
<pdfrwt beam="2">  1       -2 0.39800215E-01 0.91865937E+03</pdfrwt>
<totfact> 0.20078575E+02</totfact>
</mgrwt>
</event>
<event>
 4    1  0.1806019E-005  0.7566698E+03  0.7818608E-02  0.9624944E-01
         -2   -1    0    0    0  501 -0.00000000000E+00  0.00000000000E+00  0.14022142636E+03  0.14022142638E+03  0.25500000000E-02 0. -1.
          2   -1    0    0  501    0  0.00000000000E+00 -0.00000000000E+00 -0.10207946296E+04  0.10207946296E+04  0.25500000000E-02 0.  1.
   -5000001    1    1    2    0    0  0.18408622462E+03 -0.98073517774E+02 -0.73595227849E+03  0.80475580719E+03  0.25000000000E+03 0.  0.
    5000001    1    1    2    0    0 -0.18408622462E+03  0.98073517774E+02 -0.14462092471E+03  0.35626024876E+03  0.25000000000E+03 0.  0.
<mgrwt>
<rscale>  0 0.75666975E+03</rscale>
<asrwt>0</asrwt>
<pdfrwt beam="1">  1        2 0.15704532E+00 0.75666975E+03</pdfrwt>
<pdfrwt beam="2">  1       -2 0.21572528E-01 0.75666975E+03</pdfrwt>
<totfact> 0.45881136E+02</totfact>
</mgrwt>
</event>
<event>
 4    1  0.1806019E-005  0.6112922E+03  0.7818608E-02  0.9882251E-01
          2   -1    0    0  501    0  0.00000000000E+00  0.00000000000E+00  0.11332951484E+04  0.11332951484E+04  0.25500000000E-02 0.  1.
         -2   -1    0    0    0  501 -0.00000000000E+00 -0.00000000000E+00 -0.82431781170E+02  0.82431781209E+02  0.25500000000E-02 0. -1.
   -5000001    1    1    2    0    0  0.44111092496E+02 -0.13559981952E+03  0.73005829718E+03  0.78474085966E+03  0.25000000000E+03 0.  0.
    5000001    1    1    2    0    0 -0.44111092496E+02  0.13559981952E+03  0.32080507009E+03  0.43098607000E+03  0.25000000000E+03 0.  0.
<mgrwt>
<rscale>  0 0.61129220E+03</rscale>
<asrwt>0</asrwt>
<pdfrwt beam="1">  1        2 0.17435310E+00 0.61129220E+03</pdfrwt>
<pdfrwt beam="2">  1       -2 0.12681813E-01 0.61129220E+03</pdfrwt>
<totfact> 0.97505067E+02</totfact>
</mgrwt>
</event>
<event>
 4    1  0.1806019E-005  0.7300267E+03  0.7818608E-02  0.9667217E-01
          2   -1    0    0  501    0  0.00000000000E+00  0.00000000000E+00  0.43771324475E+03  0.43771324475E+03  0.25500000000E-02 0.  1.
         -2   -1    0    0    0  501 -0.00000000000E+00 -0.00000000000E+00 -0.30438821140E+03  0.30438821141E+03  0.25500000000E-02 0. -1.
   -5000001    1    1    2    0    0  0.77542786455E+02  0.20709501102E+03  0.21686823005E+03  0.39803650149E+03  0.25000000000E+03 0.  0.
    5000001    1    1    2    0    0 -0.77542786455E+02 -0.20709501102E+03 -0.83543196701E+02  0.34406495467E+03  0.25000000000E+03 0.  0.
<mgrwt>
<rscale>  0 0.73002672E+03</rscale>
<asrwt>0</asrwt>
<pdfrwt beam="1">  1        2 0.67340499E-01 0.73002672E+03</pdfrwt>
<pdfrwt beam="2">  1       -2 0.46828955E-01 0.73002672E+03</pdfrwt>
<totfact> 0.31294050E+02</totfact>
</mgrwt>
</event>
<event>
 4    1  0.1806019E-005  0.6039683E+03  0.7818608E-02  0.9897207E-01
          2   -1    0    0  501    0  0.00000000000E+00  0.00000000000E+00  0.17948256204E+04  0.17948256204E+04  0.25500000000E-02 0.  1.
         -2   -1    0    0    0  501 -0.00000000000E+00 -0.00000000000E+00 -0.50809630198E+02  0.50809630262E+02  0.25500000000E-02 0. -1.
   -5000001    1    1    2    0    0 -0.11679683662E+03  0.10480682202E+03  0.10669235496E+04  0.11070012790E+04  0.25000000000E+03 0.  0.
    5000001    1    1    2    0    0  0.11679683662E+03 -0.10480682202E+03  0.67709244053E+03  0.73863397160E+03  0.25000000000E+03 0.  0.
<mgrwt>
<rscale>  0 0.60396830E+03</rscale>
<asrwt>0</asrwt>
<pdfrwt beam="1">  1        2 0.27612705E+00 0.60396830E+03</pdfrwt>
<pdfrwt beam="2">  1       -2 0.78168653E-02 0.60396830E+03</pdfrwt>
<totfact> 0.91057370E+02</totfact>
</mgrwt>
</event>
<event>
 4    1  0.1806019E-005  0.6678986E+03  0.7818608E-02  0.9773762E-01
          2   -1    0    0  501    0  0.00000000000E+00  0.00000000000E+00  0.10065258994E+04  0.10065258994E+04  0.25500000000E-02 0.  1.
         -2   -1    0    0    0  501 -0.00000000000E+00 -0.00000000000E+00 -0.11079905586E+03  0.11079905589E+03  0.25500000000E-02 0. -1.
   -5000001    1    1    2    0    0  0.87297882120E+02  0.17936822550E+03  0.28715878453E+03  0.42983025495E+03  0.25000000000E+03 0.  0.
    5000001    1    1    2    0    0 -0.87297882120E+02 -0.17936822550E+03  0.60856805905E+03  0.68749470037E+03  0.25000000000E+03 0.  0.
<mgrwt>
<rscale>  0 0.66789855E+03</rscale>
<asrwt>0</asrwt>
<pdfrwt beam="1">  1        2 0.15485014E+00 0.66789855E+03</pdfrwt>
<pdfrwt beam="2">  1       -2 0.17046008E-01 0.66789855E+03</pdfrwt>
<totfact> 0.70801415E+02</totfact>
</mgrwt>
</event>
<event>
 4    1  0.1806019E-005  0.1672339E+04  0.7818608E-02  0.8777300E-01
          2   -1    0    0  501    0  0.00000000000E+00  0.00000000000E+00  0.20727055740E+04  0.20727055740E+04  0.25500000000E-02 0.  1.
         -2   -1    0    0    0  501 -0.00000000000E+00 -0.00000000000E+00 -0.33732680855E+03  0.33732680855E+03  0.25500000000E-02 0. -1.
   -5000001    1    1    2    0    0  0.60682864185E+03 -0.47963393102E+03  0.58532846837E+03  0.10016981203E+04  0.25000000000E+03 0.  0.
    5000001    1    1    2    0    0 -0.60682864185E+03  0.47963393102E+03  0.11500502971E+04  0.14083342622E+04  0.25000000000E+03 0.  0.
<mgrwt>
<rscale>  0 0.16723387E+04</rscale>
<asrwt>0</asrwt>
<pdfrwt beam="1">  1        2 0.31887778E+00 0.16723387E+04</pdfrwt>
<pdfrwt beam="2">  1       -2 0.51896431E-01 0.16723387E+04</pdfrwt>
<totfact> 0.20353390E+01</totfact>
</mgrwt>
</event>
<event>
 4    1  0.1806019E-005  0.6951124E+03  0.7818608E-02  0.9725627E-01
         -2   -1    0    0    0  501 -0.00000000000E+00  0.00000000000E+00  0.11316307231E+04  0.11316307231E+04  0.25500000000E-02 0. -1.
          2   -1    0    0  501    0  0.00000000000E+00 -0.00000000000E+00 -0.10674444791E+03  0.10674444794E+03  0.25500000000E-02 0.  1.
   -5000001    1    1    2    0    0  0.23780755076E+03 -0.24529771458E+01  0.58669001556E+03  0.68063472043E+03  0.25000000000E+03 0.  0.
    5000001    1    1    2    0    0 -0.23780755076E+03  0.24529771458E+01  0.43819625958E+03  0.55774045057E+03  0.25000000000E+03 0.  0.
<mgrwt>
<rscale>  0 0.69511236E+03</rscale>
<asrwt>0</asrwt>
<pdfrwt beam="1">  1        2 0.16422224E-01 0.69511236E+03</pdfrwt>
<pdfrwt beam="2">  1       -2 0.17409702E+00 0.69511236E+03</pdfrwt>
<totfact> 0.72808851E+01</totfact>
</mgrwt>
</event>
<event>
 4    1  0.1806019E-005  0.7280032E+03  0.7818608E-02  0.9670506E-01
         -2   -1    0    0    0  501 -0.00000000000E+00  0.00000000000E+00  0.17429547406E+03  0.17429547408E+03  0.25500000000E-02 0. -1.
          2   -1    0    0  501    0  0.00000000000E+00 -0.00000000000E+00 -0.76018713724E+03  0.76018713724E+03  0.25500000000E-02 0.  1.
   -5000001    1    1    2    0    0 -0.17520190184E+03 -0.10394168345E+01 -0.54741569064E+03  0.62678602821E+03  0.25000000000E+03 0.  0.
    5000001    1    1    2    0    0  0.17520190184E+03  0.10394168345E+01 -0.38475972536E+02  0.30769658311E+03  0.25000000000E+03 0.  0.
<mgrwt>
<rscale>  0 0.72800323E+03</rscale>
<asrwt>0</asrwt>
<pdfrwt beam="1">  1        2 0.11695186E+00 0.72800323E+03</pdfrwt>
<pdfrwt beam="2">  1       -2 0.26814689E-01 0.72800323E+03</pdfrwt>
<totfact> 0.46751315E+02</totfact>
</mgrwt>
</event>
<event>
 4    1  0.1806019E-005  0.1122295E+04  0.7818608E-02  0.9183730E-01
          2   -1    0    0  501    0  0.00000000000E+00  0.00000000000E+00  0.20737084412E+04  0.20737084412E+04  0.25500000000E-02 0.  1.
         -2   -1    0    0    0  501 -0.00000000000E+00 -0.00000000000E+00 -0.15184706958E+03  0.15184706961E+03  0.25500000000E-02 0. -1.
   -5000001    1    1    2    0    0  0.38767923415E+03  0.19983303535E+03  0.14553327932E+04  0.15397148988E+04  0.25000000000E+03 0.  0.
    5000001    1    1    2    0    0 -0.38767923415E+03 -0.19983303535E+03  0.46652857841E+03  0.68584061201E+03  0.25000000000E+03 0.  0.
<mgrwt>
<rscale>  0 0.11222951E+04</rscale>
<asrwt>0</asrwt>
<pdfrwt beam="1">  1        2 0.31903206E+00 0.11222951E+04</pdfrwt>
<pdfrwt beam="2">  1       -2 0.23361088E-01 0.11222951E+04</pdfrwt>
<totfact> 0.97986943E+01</totfact>
</mgrwt>
</event>
<event>
 4    1  0.1806019E-005  0.7892050E+03  0.7818608E-02  0.9575775E-01
         -2   -1    0    0    0  501 -0.00000000000E+00  0.00000000000E+00  0.26445898877E+03  0.26445898879E+03  0.25500000000E-02 0. -1.
          2   -1    0    0  501    0  0.00000000000E+00 -0.00000000000E+00 -0.58879121361E+03  0.58879121361E+03  0.25500000000E-02 0.  1.
   -5000001    1    1    2    0    0 -0.24566543300E+03  0.17734862739E+03 -0.12161084574E+03  0.41120948239E+03  0.25000000000E+03 0.  0.
    5000001    1    1    2    0    0  0.24566543300E+03 -0.17734862739E+03 -0.20272137910E+03  0.44204072001E+03  0.25000000000E+03 0.  0.
<mgrwt>
<rscale>  0 0.78920499E+03</rscale>
<asrwt>0</asrwt>
<pdfrwt beam="1">  1        2 0.90583263E-01 0.78920499E+03</pdfrwt>
<pdfrwt beam="2">  1       -2 0.40685998E-01 0.78920499E+03</pdfrwt>
<totfact> 0.29207525E+02</totfact>
</mgrwt>
</event>
<event>
 4    1  0.1806019E-005  0.9878375E+03  0.7818608E-02  0.9321986E-01
         -2   -1    0    0    0  501 -0.00000000000E+00  0.00000000000E+00  0.15924491944E+04  0.15924491944E+04  0.25500000000E-02 0. -1.
          2   -1    0    0  501    0  0.00000000000E+00 -0.00000000000E+00 -0.15319528760E+03  0.15319528762E+03  0.25500000000E-02 0.  1.
   -5000001    1    1    2    0    0 -0.32866485292E+03 -0.92885053909E+02  0.11694926942E+04  0.12437288212E+04  0.25000000000E+03 0.  0.
    5000001    1    1    2    0    0  0.32866485292E+03  0.92885053909E+02  0.26976121258E+03  0.50191566084E+03  0.25000000000E+03 0.  0.
<mgrwt>
<rscale>  0 0.98783746E+03</rscale>
<asrwt>0</asrwt>
<pdfrwt beam="1">  1        2 0.23568506E-01 0.98783746E+03</pdfrwt>
<pdfrwt beam="2">  1       -2 0.24499218E+00 0.98783746E+03</pdfrwt>
<totfact> 0.16292074E+01</totfact>
</mgrwt>
</event>
<event>
 4    1  0.1806019E-005  0.1586664E+04  0.7818608E-02  0.8828783E-01
          2   -1    0    0  501    0  0.00000000000E+00  0.00000000000E+00  0.53607644500E+03  0.53607644501E+03  0.25500000000E-02 0.  1.
         -2   -1    0    0    0  501 -0.00000000000E+00 -0.00000000000E+00 -0.11740403981E+04  0.11740403981E+04  0.25500000000E-02 0. -1.
   -5000001    1    1    2    0    0  0.70075805242E+03  0.46676094209E+02 -0.61145293480E+03  0.96416554454E+03  0.25000000000E+03 0.  0.
    5000001    1    1    2    0    0 -0.70075805242E+03 -0.46676094209E+02 -0.26511018335E+02  0.74595129861E+03  0.25000000000E+03 0.  0.
<mgrwt>
<rscale>  0 0.15866637E+04</rscale>
<asrwt>0</asrwt>
<pdfrwt beam="1">  1        2 0.82473299E-01 0.15866637E+04</pdfrwt>
<pdfrwt beam="2">  1       -2 0.18062160E+00 0.15866637E+04</pdfrwt>
<totfact> 0.97702937E+00</totfact>
</mgrwt>
</event>
<event>
 4    1  0.1806019E-005  0.6136823E+03  0.7818608E-02  0.9877419E-01
         -2   -1    0    0    0  501 -0.00000000000E+00  0.00000000000E+00  0.50824440186E+02  0.50824440250E+02  0.25500000000E-02 0. -1.
          2   -1    0    0  501    0  0.00000000000E+00 -0.00000000000E+00 -0.18524843101E+04  0.18524843101E+04  0.25500000000E-02 0.  1.
   -5000001    1    1    2    0    0 -0.12637300340E+03 -0.12445871675E+03 -0.85792546823E+03  0.91104128183E+03  0.25000000000E+03 0.  0.
    5000001    1    1    2    0    0  0.12637300340E+03  0.12445871675E+03 -0.94373440170E+03  0.99226746854E+03  0.25000000000E+03 0.  0.
<mgrwt>
<rscale>  0 0.61368226E+03</rscale>
<asrwt>0</asrwt>
<pdfrwt beam="1">  1        2 0.28499754E+00 0.61368226E+03</pdfrwt>
<pdfrwt beam="2">  1       -2 0.78191460E-02 0.61368226E+03</pdfrwt>
<totfact> 0.84654775E+02</totfact>
</mgrwt>
</event>
<event>
 4    1  0.1806019E-005  0.8070778E+03  0.7818608E-02  0.9549828E-01
          2   -1    0    0  501    0  0.00000000000E+00  0.00000000000E+00  0.29266742373E+04  0.29266742373E+04  0.25500000000E-02 0.  1.
         -2   -1    0    0    0  501 -0.00000000000E+00 -0.00000000000E+00 -0.55641187688E+02  0.55641187746E+02  0.25500000000E-02 0. -1.
   -5000001    1    1    2    0    0 -0.22932109039E+03 -0.20089068275E+03  0.17533554952E+04  0.17971368121E+04  0.25000000000E+03 0.  0.
    5000001    1    1    2    0    0  0.22932109039E+03  0.20089068275E+03  0.11176775544E+04  0.11851786130E+04  0.25000000000E+03 0.  0.
<mgrwt>
<rscale>  0 0.80707777E+03</rscale>
<asrwt>0</asrwt>
<pdfrwt beam="1">  1        2 0.45025753E+00 0.80707777E+03</pdfrwt>
<pdfrwt beam="2">  1       -2 0.85601836E-02 0.80707777E+03</pdfrwt>
<totfact> 0.17859323E+02</totfact>
</mgrwt>
</event>
<event>
 4    1  0.1806019E-005  0.6154006E+03  0.7818608E-02  0.9873960E-01
          2   -1    0    0  501    0  0.00000000000E+00  0.00000000000E+00  0.97138379539E+03  0.97138379539E+03  0.25500000000E-02 0.  1.
         -2   -1    0    0    0  501 -0.00000000000E+00 -0.00000000000E+00 -0.97468666817E+02  0.97468666850E+02  0.25500000000E-02 0. -1.
   -5000001    1    1    2    0    0 -0.15136228293E+03 -0.84157864637E+02  0.51817033042E+03  0.60082741132E+03  0.25000000000E+03 0.  0.
    5000001    1    1    2    0    0  0.15136228293E+03  0.84157864637E+02  0.35574479815E+03  0.46802505092E+03  0.25000000000E+03 0.  0.
<mgrwt>
<rscale>  0 0.61540063E+03</rscale>
<asrwt>0</asrwt>
<pdfrwt beam="1">  1        2 0.14944366E+00 0.61540063E+03</pdfrwt>
<pdfrwt beam="2">  1       -2 0.14995180E-01 0.61540063E+03</pdfrwt>
<totfact> 0.92842930E+02</totfact>
</mgrwt>
</event>
<event>
 4    1  0.1806019E-005  0.7712419E+03  0.7818608E-02  0.9602602E-01
         -2   -1    0    0    0  501 -0.00000000000E+00  0.00000000000E+00  0.15400740787E+03  0.15400740789E+03  0.25500000000E-02 0. -1.
          2   -1    0    0  501    0  0.00000000000E+00 -0.00000000000E+00 -0.96556090953E+03  0.96556090954E+03  0.25500000000E-02 0.  1.
   -5000001    1    1    2    0    0  0.17704094304E+03 -0.56608185631E+02 -0.75849294505E+02  0.32062610260E+03  0.25000000000E+03 0.  0.
    5000001    1    1    2    0    0 -0.17704094304E+03  0.56608185631E+02 -0.73570420716E+03  0.79894221482E+03  0.25000000000E+03 0.  0.
<mgrwt>
<rscale>  0 0.77124194E+03</rscale>
<asrwt>0</asrwt>
<pdfrwt beam="1">  1        2 0.14854783E+00 0.77124194E+03</pdfrwt>
<pdfrwt beam="2">  1       -2 0.23693448E-01 0.77124194E+03</pdfrwt>
<totfact> 0.42100547E+02</totfact>
</mgrwt>
</event>
<event>
 4    1  0.1806019E-005  0.5400546E+03  0.7818608E-02  0.1003822E+00
         -2   -1    0    0    0  501 -0.00000000000E+00  0.00000000000E+00  0.36395459767E+02  0.36395459856E+02  0.25500000000E-02 0. -1.
          2   -1    0    0  501    0  0.00000000000E+00 -0.00000000000E+00 -0.20034020481E+04  0.20034020481E+04  0.25500000000E-02 0.  1.
   -5000001    1    1    2    0    0  0.75740789194E+02 -0.17071834995E+02 -0.73334517319E+03  0.77866761699E+03  0.25000000000E+03 0.  0.
    5000001    1    1    2    0    0 -0.75740789194E+02  0.17071834995E+02 -0.12336614152E+04  0.12611298910E+04  0.25000000000E+03 0.  0.
<mgrwt>
<rscale>  0 0.54005459E+03</rscale>
<asrwt>0</asrwt>
<pdfrwt beam="1">  1        2 0.30821561E+00 0.54005459E+03</pdfrwt>
<pdfrwt beam="2">  1       -2 0.55993031E-02 0.54005459E+03</pdfrwt>
<totfact> 0.11923404E+03</totfact>
</mgrwt>
</event>
<event>
 4    1  0.1806019E-005  0.6820508E+03  0.7818608E-02  0.9748430E-01
          2   -1    0    0  501    0  0.00000000000E+00  0.00000000000E+00  0.97191477705E+03  0.97191477706E+03  0.25500000000E-02 0.  1.
         -2   -1    0    0    0  501 -0.00000000000E+00 -0.00000000000E+00 -0.11965897730E+03  0.11965897733E+03  0.25500000000E-02 0. -1.
   -5000001    1    1    2    0    0 -0.21995370935E+03  0.73611755120E+02  0.42603304762E+03  0.54571282046E+03  0.25000000000E+03 0.  0.
    5000001    1    1    2    0    0  0.21995370935E+03 -0.73611755120E+02  0.42622275214E+03  0.54586093393E+03  0.25000000000E+03 0.  0.
<mgrwt>
<rscale>  0 0.68205081E+03</rscale>
<asrwt>0</asrwt>
<pdfrwt beam="1">  1        2 0.14952534E+00 0.68205081E+03</pdfrwt>
<pdfrwt beam="2">  1       -2 0.18409074E-01 0.68205081E+03</pdfrwt>
<totfact> 0.65234913E+02</totfact>
</mgrwt>
</event>
<event>
 4    1  0.1806019E-005  0.6176147E+03  0.7818608E-02  0.9869520E-01
         -2   -1    0    0    0  501 -0.00000000000E+00  0.00000000000E+00  0.97914571616E+02  0.97914571649E+02  0.25500000000E-02 0. -1.
          2   -1    0    0  501    0  0.00000000000E+00 -0.00000000000E+00 -0.97393055352E+03  0.97393055353E+03  0.25500000000E-02 0.  1.
   -5000001    1    1    2    0    0 -0.12391215045E+03 -0.11420601208E+03 -0.55396937215E+03  0.63069747067E+03  0.25000000000E+03 0.  0.
    5000001    1    1    2    0    0  0.12391215045E+03  0.11420601208E+03 -0.32204660975E+03  0.44114765451E+03  0.25000000000E+03 0.  0.
<mgrwt>
<rscale>  0 0.61761474E+03</rscale>
<asrwt>0</asrwt>
<pdfrwt beam="1">  1        2 0.14983546E+00 0.61761474E+03</pdfrwt>
<pdfrwt beam="2">  1       -2 0.15063781E-01 0.61761474E+03</pdfrwt>
<totfact> 0.91779060E+02</totfact>
</mgrwt>
</event>
<event>
 4    1  0.1806019E-005  0.5784700E+03  0.7818608E-02  0.9951109E-01
          2   -1    0    0  501    0  0.00000000000E+00  0.00000000000E+00  0.11975840899E+04  0.11975840899E+04  0.25500000000E-02 0. -1.
         -2   -1    0    0    0  501 -0.00000000000E+00 -0.00000000000E+00 -0.69854702732E+02  0.69854702779E+02  0.25500000000E-02 0.  1.
   -5000001    1    1    2    0    0 -0.13698183158E+03 -0.47515059832E+02  0.53839061818E+03  0.61105332078E+03  0.25000000000E+03 0.  0.
    5000001    1    1    2    0    0  0.13698183158E+03  0.47515059832E+02  0.58933876902E+03  0.65638547193E+03  0.25000000000E+03 0.  0.
<mgrwt>
<rscale>  0 0.57846998E+03</rscale>
<asrwt>0</asrwt>
<pdfrwt beam="1">  1        2 0.18424370E+00 0.57846998E+03</pdfrwt>
<pdfrwt beam="2">  1       -2 0.10746878E-01 0.57846998E+03</pdfrwt>
<totfact> 0.11734499E+03</totfact>
</mgrwt>
</event>
<event>
 4    1  0.1806019E-005  0.7588911E+03  0.7818608E-02  0.9621504E-01
          2   -1    0    0  501    0  0.00000000000E+00  0.00000000000E+00  0.14902505753E+04  0.14902505753E+04  0.25500000000E-02 0.  1.
         -2   -1    0    0    0  501 -0.00000000000E+00 -0.00000000000E+00 -0.96613915556E+02  0.96613915590E+02  0.25500000000E-02 0. -1.
   -5000001    1    1    2    0    0  0.95821046080E+02  0.16736231612E+03  0.11368653680E+04  0.11798960474E+04  0.25000000000E+03 0.  0.
    5000001    1    1    2    0    0 -0.95821046080E+02 -0.16736231612E+03  0.25677129174E+03  0.40696844348E+03  0.25000000000E+03 0.  0.
<mgrwt>
<rscale>  0 0.75889115E+03</rscale>
<asrwt>0</asrwt>
<pdfrwt beam="1">  1        2 0.22926932E+00 0.75889115E+03</pdfrwt>
<pdfrwt beam="2">  1       -2 0.14863679E-01 0.75889115E+03</pdfrwt>
<totfact> 0.46281872E+02</totfact>
</mgrwt>
</event>
<event>
 4    1  0.1806019E-005  0.8544117E+03  0.7818608E-02  0.9484435E-01
         -2   -1    0    0    0  501 -0.00000000000E+00  0.00000000000E+00  0.54376105518E+02  0.54376105578E+02  0.25500000000E-02 0. -1.
          2   -1    0    0  501    0  0.00000000000E+00 -0.00000000000E+00 -0.33563422596E+04  0.33563422596E+04  0.25500000000E-02 0.  1.
   -5000001    1    1    2    0    0  0.31385261968E+03 -0.14231674689E+03 -0.17919651021E+04  0.18418459356E+04  0.25000000000E+03 0.  0.
    5000001    1    1    2    0    0 -0.31385261968E+03  0.14231674689E+03 -0.15100010520E+04  0.15688724296E+04  0.25000000000E+03 0.  0.
<mgrwt>
<rscale>  0 0.85441166E+03</rscale>
<asrwt>0</asrwt>
<pdfrwt beam="1">  1        2 0.51636019E+00 0.85441166E+03</pdfrwt>
<pdfrwt beam="2">  1       -2 0.83655573E-02 0.85441166E+03</pdfrwt>
<totfact> 0.98694234E+01</totfact>
</mgrwt>
</event>
<event>
 4    1  0.1806019E-005  0.6602453E+03  0.7818608E-02  0.9787742E-01
          2   -1    0    0  501    0  0.00000000000E+00  0.00000000000E+00  0.10566106697E+04  0.10566106697E+04  0.25500000000E-02 0.  1.
         -2   -1    0    0    0  501 -0.00000000000E+00 -0.00000000000E+00 -0.10314203347E+03  0.10314203351E+03  0.25500000000E-02 0. -1.
   -5000001    1    1    2    0    0 -0.57260299401E+02 -0.19708448086E+03  0.36074974084E+03  0.48452183645E+03  0.25000000000E+03 0.  0.
    5000001    1    1    2    0    0  0.57260299401E+02  0.19708448086E+03  0.59271889542E+03  0.67523086679E+03  0.25000000000E+03 0.  0.
<mgrwt>
<rscale>  0 0.66024533E+03</rscale>
<asrwt>0</asrwt>
<pdfrwt beam="1">  1        2 0.16255548E+00 0.66024533E+03</pdfrwt>
<pdfrwt beam="2">  1       -2 0.15868006E-01 0.66024533E+03</pdfrwt>
<totfact> 0.74440318E+02</totfact>
</mgrwt>
</event>
<event>
 4    1  0.1806019E-005  0.6156821E+03  0.7818608E-02  0.9873394E-01
          2   -1    0    0  501    0  0.00000000000E+00  0.00000000000E+00  0.20884188638E+03  0.20884188640E+03  0.25500000000E-02 0.  1.
         -2   -1    0    0    0  501 -0.00000000000E+00 -0.00000000000E+00 -0.45376971738E+03  0.45376971738E+03  0.25500000000E-02 0. -1.
   -5000001    1    1    2    0    0 -0.12568323168E+03  0.11127698396E+03 -0.53658950535E+02  0.30587272657E+03  0.25000000000E+03 0.  0.
    5000001    1    1    2    0    0  0.12568323168E+03 -0.11127698396E+03 -0.19126888046E+03  0.35673887722E+03  0.25000000000E+03 0.  0.
<mgrwt>
<rscale>  0 0.61568214E+03</rscale>
<asrwt>0</asrwt>
<pdfrwt beam="1">  1        2 0.32129521E-01 0.61568214E+03</pdfrwt>
<pdfrwt beam="2">  1       -2 0.69810726E-01 0.61568214E+03</pdfrwt>
<totfact> 0.31118869E+02</totfact>
</mgrwt>
</event>
<event>
 4    1  0.1806019E-005  0.7622922E+03  0.7818608E-02  0.9616261E-01
          2   -1    0    0  501    0  0.00000000000E+00  0.00000000000E+00  0.13782960877E+03  0.13782960880E+03  0.25500000000E-02 0.  1.
         -2   -1    0    0    0  501 -0.00000000000E+00 -0.00000000000E+00 -0.10539994858E+04  0.10539994858E+04  0.25500000000E-02 0. -1.
   -5000001    1    1    2    0    0 -0.13998016289E+03 -0.24807638885E+03 -0.52132374355E+03  0.64452679254E+03  0.25000000000E+03 0.  0.
    5000001    1    1    2    0    0  0.13998016289E+03  0.24807638885E+03 -0.39484613343E+03  0.54730230202E+03  0.25000000000E+03 0.  0.
<mgrwt>
<rscale>  0 0.76229217E+03</rscale>
<asrwt>0</asrwt>
<pdfrwt beam="1">  1        2 0.21204556E-01 0.76229217E+03</pdfrwt>
<pdfrwt beam="2">  1       -2 0.16215376E+00 0.76229217E+03</pdfrwt>
<totfact> 0.65160827E+01</totfact>
</mgrwt>
</event>
<event>
 4    1  0.1806019E-005  0.5882618E+03  0.7818608E-02  0.9930063E-01
         -2   -1    0    0    0  501 -0.00000000000E+00  0.00000000000E+00  0.36547488029E+02  0.36547488118E+02  0.25500000000E-02 0. -1.
          2   -1    0    0  501    0  0.00000000000E+00 -0.00000000000E+00 -0.23671389638E+04  0.23671389638E+04  0.25500000000E-02 0.  1.
   -5000001    1    1    2    0    0  0.13934245323E+03  0.51373205123E+02 -0.98451450017E+03  0.10265594608E+04  0.25000000000E+03 0.  0.
    5000001    1    1    2    0    0 -0.13934245323E+03 -0.51373205123E+02 -0.13460769756E+04  0.13771269911E+04  0.25000000000E+03 0.  0.
<mgrwt>
<rscale>  0 0.58826179E+03</rscale>
<asrwt>0</asrwt>
<pdfrwt beam="1">  1        2 0.36417511E+00 0.58826179E+03</pdfrwt>
<pdfrwt beam="2">  1       -2 0.56226923E-02 0.58826179E+03</pdfrwt>
<totfact> 0.74711526E+02</totfact>
</mgrwt>
</event>
<event>
 4    1  0.1806019E-005  0.8678768E+03  0.7818608E-02  0.9466653E-01
         -2   -1    0    0    0  501 -0.00000000000E+00  0.00000000000E+00  0.26877349450E+03  0.26877349451E+03  0.25500000000E-02 0. -1.
          2   -1    0    0  501    0  0.00000000000E+00 -0.00000000000E+00 -0.70059930677E+03  0.70059930677E+03  0.25500000000E-02 0.  1.
   -5000001    1    1    2    0    0  0.30428020621E+03 -0.58490388299E+02 -0.40871161769E+03  0.57057230554E+03  0.25000000000E+03 0.  0.
    5000001    1    1    2    0    0 -0.30428020621E+03  0.58490388299E+02 -0.23114194581E+02  0.39880049574E+03  0.25000000000E+03 0.  0.
<mgrwt>
<rscale>  0 0.86787677E+03</rscale>
<asrwt>0</asrwt>
<pdfrwt beam="1">  1        2 0.10778451E+00 0.86787677E+03</pdfrwt>
<pdfrwt beam="2">  1       -2 0.41349769E-01 0.86787677E+03</pdfrwt>
<totfact> 0.22762491E+02</totfact>
</mgrwt>
</event>
<event>
 4    1  0.1806019E-005  0.9142310E+03  0.7818608E-02  0.9407965E-01
         -2   -1    0    0    0  501 -0.00000000000E+00  0.00000000000E+00  0.15350041671E+04  0.15350041671E+04  0.25500000000E-02 0. -1.
          2   -1    0    0  501    0  0.00000000000E+00 -0.00000000000E+00 -0.13612640228E+03  0.13612640231E+03  0.25500000000E-02 0.  1.
   -5000001    1    1    2    0    0 -0.14618550288E+02 -0.34702986005E+03  0.40576977547E+03  0.58973938012E+03  0.25000000000E+03 0.  0.
    5000001    1    1    2    0    0  0.14618550288E+02  0.34702986005E+03  0.99310798938E+03  0.10813911893E+04  0.25000000000E+03 0.  0.
<mgrwt>
<rscale>  0 0.91423103E+03</rscale>
<asrwt>0</asrwt>
<pdfrwt beam="1">  1        2 0.20942524E-01 0.91423103E+03</pdfrwt>
<pdfrwt beam="2">  1       -2 0.23615448E+00 0.91423103E+03</pdfrwt>
<totfact> 0.21303692E+01</totfact>
</mgrwt>
</event>
<event>
 4    1  0.1806019E-005  0.1010229E+04  0.7818608E-02  0.9297396E-01
         -2   -1    0    0    0  501 -0.00000000000E+00  0.00000000000E+00  0.47416200952E+03  0.47416200953E+03  0.25500000000E-02 0. -1.
          2   -1    0    0  501    0  0.00000000000E+00 -0.00000000000E+00 -0.53808802939E+03  0.53808802939E+03  0.25500000000E-02 0.  1.
   -5000001    1    1    2    0    0 -0.37849244583E+03 -0.22213955640E+03 -0.38171146630E+02  0.50651707820E+03  0.25000000000E+03 0.  0.
    5000001    1    1    2    0    0  0.37849244583E+03  0.22213955640E+03 -0.25754873234E+02  0.50573296073E+03  0.25000000000E+03 0.  0.
<mgrwt>
<rscale>  0 0.10102295E+04</rscale>
<asrwt>0</asrwt>
<pdfrwt beam="1">  1        2 0.82782774E-01 0.10102295E+04</pdfrwt>
<pdfrwt beam="2">  1       -2 0.72948002E-01 0.10102295E+04</pdfrwt>
<totfact> 0.95796617E+01</totfact>
</mgrwt>
</event>
<event>
 4    1  0.1806019E-005  0.1202231E+04  0.7818608E-02  0.9110906E-01
         -2   -1    0    0    0  501 -0.00000000000E+00  0.00000000000E+00  0.49249307917E+03  0.49249307918E+03  0.25500000000E-02 0. -1.
          2   -1    0    0  501    0  0.00000000000E+00 -0.00000000000E+00 -0.73369518680E+03  0.73369518680E+03  0.25500000000E-02 0.  1.
   -5000001    1    1    2    0    0 -0.24752312597E+03  0.35298639611E+03 -0.46341306401E+03  0.68052829597E+03  0.25000000000E+03 0.  0.
    5000001    1    1    2    0    0  0.24752312597E+03 -0.35298639611E+03  0.22221095639E+03  0.54565997000E+03  0.25000000000E+03 0.  0.
<mgrwt>
<rscale>  0 0.12022309E+04</rscale>
<asrwt>0</asrwt>
<pdfrwt beam="1">  1        2 0.11287618E+00 0.12022309E+04</pdfrwt>
<pdfrwt beam="2">  1       -2 0.75768166E-01 0.12022309E+04</pdfrwt>
<totfact> 0.59452255E+01</totfact>
</mgrwt>
</event>
<event>
 4    1  0.1806019E-005  0.1033011E+04  0.7818608E-02  0.9273062E-01
         -2   -1    0    0    0  501 -0.00000000000E+00  0.00000000000E+00  0.18416898640E+03  0.18416898641E+03  0.25500000000E-02 0. -1.
          2   -1    0    0  501    0  0.00000000000E+00 -0.00000000000E+00 -0.14485503323E+04  0.14485503323E+04  0.25500000000E-02 0.  1.
   -5000001    1    1    2    0    0 -0.45147842973E+03 -0.17633565662E+02 -0.61387195298E+03  0.80217360328E+03  0.25000000000E+03 0.  0.
    5000001    1    1    2    0    0  0.45147842973E+03  0.17633565662E+02 -0.65050939293E+03  0.83054571544E+03  0.25000000000E+03 0.  0.
<mgrwt>
<rscale>  0 0.10330112E+04</rscale>
<asrwt>0</asrwt>
<pdfrwt beam="1">  1        2 0.22285389E+00 0.10330112E+04</pdfrwt>
<pdfrwt beam="2">  1       -2 0.28333691E-01 0.10330112E+04</pdfrwt>
<totfact> 0.15414708E+02</totfact>
</mgrwt>
</event>
<event>
 4    1  0.1806019E-005  0.6738822E+03  0.7818608E-02  0.9762970E-01
          2   -1    0    0  501    0  0.00000000000E+00  0.00000000000E+00  0.33171435635E+03  0.33171435636E+03  0.25500000000E-02 0.  1.
         -2   -1    0    0    0  501 -0.00000000000E+00 -0.00000000000E+00 -0.34225022234E+03  0.34225022235E+03  0.25500000000E-02 0. -1.
   -5000001    1    1    2    0    0 -0.19248598618E+03 -0.37188998750E+02  0.10697517169E+03  0.33522762992E+03  0.25000000000E+03 0.  0.
    5000001    1    1    2    0    0  0.19248598618E+03  0.37188998750E+02 -0.11751103768E+03  0.33873694880E+03  0.25000000000E+03 0.  0.
<mgrwt>
<rscale>  0 0.67388222E+03</rscale>
<asrwt>0</asrwt>
<pdfrwt beam="1">  1        2 0.51032978E-01 0.67388222E+03</pdfrwt>
<pdfrwt beam="2">  1       -2 0.52653880E-01 0.67388222E+03</pdfrwt>
<totfact> 0.33713443E+02</totfact>
</mgrwt>
</event>
<event>
 4    1  0.1806019E-005  0.5656877E+03  0.7818608E-02  0.9979267E-01
         -2   -1    0    0    0  501 -0.00000000000E+00  0.00000000000E+00  0.59038551720E+02  0.59038551775E+02  0.25500000000E-02 0. -1.
          2   -1    0    0  501    0  0.00000000000E+00 -0.00000000000E+00 -0.13550576640E+04  0.13550576640E+04  0.25500000000E-02 0.  1.
   -5000001    1    1    2    0    0  0.86659020321E+02 -0.30369380467E+02 -0.88606127441E+03  0.92522249599E+03  0.25000000000E+03 0.  0.
    5000001    1    1    2    0    0 -0.86659020321E+02  0.30369380467E+02 -0.40995783789E+03  0.48887371981E+03  0.25000000000E+03 0.  0.
<mgrwt>
<rscale>  0 0.56568769E+03</rscale>
<asrwt>0</asrwt>
<pdfrwt beam="1">  1        2 0.20847039E+00 0.56568769E+03</pdfrwt>
<pdfrwt beam="2">  1       -2 0.90828551E-02 0.56568769E+03</pdfrwt>
<totfact> 0.12514236E+03</totfact>
</mgrwt>
</event>
<event>
 4    1  0.1806019E-005  0.9127830E+03  0.7818608E-02  0.9409742E-01
          2   -1    0    0  501    0  0.00000000000E+00  0.00000000000E+00  0.73407841537E+03  0.73407841537E+03  0.25500000000E-02 0.  1.
         -2   -1    0    0    0  501 -0.00000000000E+00 -0.00000000000E+00 -0.28374791580E+03  0.28374791581E+03  0.25500000000E-02 0. -1.
   -5000001    1    1    2    0    0  0.24310518421E+03  0.27601924361E+03  0.33946215431E+03  0.55948307181E+03  0.25000000000E+03 0.  0.
    5000001    1    1    2    0    0 -0.24310518421E+03 -0.27601924361E+03  0.11086834525E+03  0.45834325937E+03  0.25000000000E+03 0.  0.
<mgrwt>
<rscale>  0 0.91278304E+03</rscale>
<asrwt>0</asrwt>
<pdfrwt beam="1">  1        2 0.11293514E+00 0.91278304E+03</pdfrwt>
<pdfrwt beam="2">  1       -2 0.43653526E-01 0.91278304E+03</pdfrwt>
<totfact> 0.19227176E+02</totfact>
</mgrwt>
</event>
<event>
 4    1  0.1806019E-005  0.1097074E+04  0.7818608E-02  0.9208049E-01
         -2   -1    0    0    0  501 -0.00000000000E+00  0.00000000000E+00  0.17812611926E+03  0.17812611927E+03  0.25500000000E-02 0. -1.
          2   -1    0    0  501    0  0.00000000000E+00 -0.00000000000E+00 -0.16892118809E+04  0.16892118809E+04  0.25500000000E-02 0.  1.
   -5000001    1    1    2    0    0  0.60540045589E+02  0.45723281316E+03 -0.48285577820E+03  0.71300536120E+03  0.25000000000E+03 0.  0.
    5000001    1    1    2    0    0 -0.60540045589E+02 -0.45723281316E+03 -0.10282299834E+04  0.11543326390E+04  0.25000000000E+03 0.  0.
<mgrwt>
<rscale>  0 0.10970738E+04</rscale>
<asrwt>0</asrwt>
<pdfrwt beam="1">  1        2 0.25987874E+00 0.10970738E+04</pdfrwt>
<pdfrwt beam="2">  1       -2 0.27404020E-01 0.10970738E+04</pdfrwt>
<totfact> 0.11975652E+02</totfact>
</mgrwt>
</event>
<event>
 4    1  0.1806019E-005  0.6995940E+03  0.7818608E-02  0.9717927E-01
          2   -1    0    0  501    0  0.00000000000E+00  0.00000000000E+00  0.34234501722E+03  0.34234501723E+03  0.25500000000E-02 0.  1.
         -2   -1    0    0    0  501 -0.00000000000E+00 -0.00000000000E+00 -0.35741116179E+03  0.35741116180E+03  0.25500000000E-02 0. -1.
   -5000001    1    1    2    0    0  0.22691879064E+03  0.27841578964E+02  0.79611403538E+02  0.34800181988E+03  0.25000000000E+03 0.  0.
    5000001    1    1    2    0    0 -0.22691879064E+03 -0.27841578964E+02 -0.94677548108E+02  0.35175435915E+03  0.25000000000E+03 0.  0.
<mgrwt>
<rscale>  0 0.69959397E+03</rscale>
<asrwt>0</asrwt>
<pdfrwt beam="1">  1        2 0.52668464E-01 0.69959397E+03</pdfrwt>
<pdfrwt beam="2">  1       -2 0.54986333E-01 0.69959397E+03</pdfrwt>
<totfact> 0.29746762E+02</totfact>
</mgrwt>
</event>
<event>
 4    1  0.1806019E-005  0.1151684E+04  0.7818608E-02  0.9156231E-01
          2   -1    0    0  501    0  0.00000000000E+00  0.00000000000E+00  0.27513791244E+04  0.27513791244E+04  0.25500000000E-02 0.  1.
         -2   -1    0    0    0  501 -0.00000000000E+00 -0.00000000000E+00 -0.12051919206E+03  0.12051919209E+03  0.25500000000E-02 0. -1.
   -5000001    1    1    2    0    0  0.22174840825E+03  0.40935105897E+03  0.74486125984E+03  0.91326827519E+03  0.25000000000E+03 0.  0.
    5000001    1    1    2    0    0 -0.22174840825E+03 -0.40935105897E+03  0.18859986724E+04  0.19586300413E+04  0.25000000000E+03 0.  0.
<mgrwt>
<rscale>  0 0.11516840E+04</rscale>
<asrwt>0</asrwt>
<pdfrwt beam="1">  1        2 0.42328913E+00 0.11516840E+04</pdfrwt>
<pdfrwt beam="2">  1       -2 0.18541413E-01 0.11516840E+04</pdfrwt>
<totfact> 0.60452810E+01</totfact>
</mgrwt>
</event>
<event>
 4    1  0.1806019E-005  0.8614805E+03  0.7818608E-02  0.9475056E-01
          2   -1    0    0  501    0  0.00000000000E+00  0.00000000000E+00  0.78760181147E+03  0.78760181148E+03  0.25500000000E-02 0.  1.
         -2   -1    0    0    0  501 -0.00000000000E+00 -0.00000000000E+00 -0.23557229940E+03  0.23557229941E+03  0.25500000000E-02 0. -1.
   -5000001    1    1    2    0    0 -0.10193434012E+03 -0.31135605033E+03  0.42485103767E+03  0.59188816847E+03  0.25000000000E+03 0.  0.
    5000001    1    1    2    0    0  0.10193434012E+03  0.31135605033E+03  0.12717847441E+03  0.43128594242E+03  0.25000000000E+03 0.  0.
<mgrwt>
<rscale>  0 0.86148052E+03</rscale>
<asrwt>0</asrwt>
<pdfrwt beam="1">  1        2 0.12116951E+00 0.86148052E+03</pdfrwt>
<pdfrwt beam="2">  1       -2 0.36241892E-01 0.86148052E+03</pdfrwt>
<totfact> 0.25279611E+02</totfact>
</mgrwt>
</event>
<event>
 4    1  0.1806019E-005  0.8504967E+03  0.7818608E-02  0.9489671E-01
         -2   -1    0    0    0  501 -0.00000000000E+00  0.00000000000E+00  0.14714340700E+03  0.14714340702E+03  0.25500000000E-02 0. -1.
          2   -1    0    0  501    0  0.00000000000E+00 -0.00000000000E+00 -0.12289789232E+04  0.12289789232E+04  0.25500000000E-02 0.  1.
   -5000001    1    1    2    0    0 -0.24947532083E+03  0.14683473119E+03 -0.84161648112E+03  0.92445479894E+03  0.25000000000E+03 0.  0.
    5000001    1    1    2    0    0  0.24947532083E+03 -0.14683473119E+03 -0.24021903504E+03  0.45166753125E+03  0.25000000000E+03 0.  0.
<mgrwt>
<rscale>  0 0.85049667E+03</rscale>
<asrwt>0</asrwt>
<pdfrwt beam="1">  1        2 0.18907367E+00 0.85049667E+03</pdfrwt>
<pdfrwt beam="2">  1       -2 0.22637448E-01 0.85049667E+03</pdfrwt>
<totfact> 0.31321637E+02</totfact>
</mgrwt>
</event>
<event>
 4    1  0.1806019E-005  0.6427755E+03  0.7818608E-02  0.9820431E-01
         -2   -1    0    0    0  501 -0.00000000000E+00  0.00000000000E+00  0.49991578616E+02  0.49991578681E+02  0.25500000000E-02 0. -1.
          2   -1    0    0  501    0  0.00000000000E+00 -0.00000000000E+00 -0.20661499265E+04  0.20661499265E+04  0.25500000000E-02 0.  1.
   -5000001    1    1    2    0    0  0.19764285233E+03 -0.38785725928E+02 -0.95890886103E+03  0.10112236317E+04  0.25000000000E+03 0.  0.
    5000001    1    1    2    0    0 -0.19764285233E+03  0.38785725928E+02 -0.10572494868E+04  0.11049178734E+04  0.25000000000E+03 0.  0.
<mgrwt>
<rscale>  0 0.64277553E+03</rscale>
<asrwt>0</asrwt>
<pdfrwt beam="1">  1        2 0.31786915E+00 0.64277553E+03</pdfrwt>
<pdfrwt beam="2">  1       -2 0.76910137E-02 0.64277553E+03</pdfrwt>
<totfact> 0.66429751E+02</totfact>
</mgrwt>
</event>
<event>
 4    1  0.1806019E-005  0.8777635E+03  0.7818608E-02  0.9453813E-01
         -2   -1    0    0    0  501 -0.00000000000E+00  0.00000000000E+00  0.11674492209E+04  0.11674492209E+04  0.25500000000E-02 0. -1.
          2   -1    0    0  501    0  0.00000000000E+00 -0.00000000000E+00 -0.16498979199E+03  0.16498979200E+03  0.25500000000E-02 0.  1.
   -5000001    1    1    2    0    0 -0.30133991477E+03 -0.16319499271E+03  0.67215637660E+03  0.79481604443E+03  0.25000000000E+03 0.  0.
    5000001    1    1    2    0    0  0.30133991477E+03  0.16319499271E+03  0.33030305234E+03  0.53762296850E+03  0.25000000000E+03 0.  0.
<mgrwt>
<rscale>  0 0.87776353E+03</rscale>
<asrwt>0</asrwt>
<pdfrwt beam="1">  1        2 0.25383044E-01 0.87776353E+03</pdfrwt>
<pdfrwt beam="2">  1       -2 0.17960758E+00 0.87776353E+03</pdfrwt>
<totfact> 0.39542556E+01</totfact>
</mgrwt>
</event>
<event>
 4    1  0.1806019E-005  0.9182402E+03  0.7818608E-02  0.9403063E-01
          2   -1    0    0  501    0  0.00000000000E+00  0.00000000000E+00  0.19890852673E+04  0.19890852673E+04  0.25500000000E-02 0.  1.
         -2   -1    0    0    0  501 -0.00000000000E+00 -0.00000000000E+00 -0.10597398261E+03  0.10597398264E+03  0.25500000000E-02 0. -1.
   -5000001    1    1    2    0    0 -0.77395277929E+02  0.13364245347E+03  0.13669322234E+03  0.32409160966E+03  0.25000000000E+03 0.  0.
    5000001    1    1    2    0    0  0.77395277929E+02 -0.13364245347E+03  0.17464180623E+04  0.17709676402E+04  0.25000000000E+03 0.  0.
<mgrwt>
<rscale>  0 0.91824025E+03</rscale>
<asrwt>0</asrwt>
<pdfrwt beam="1">  1        2 0.30601313E+00 0.91824025E+03</pdfrwt>
<pdfrwt beam="2">  1       -2 0.16303689E-01 0.91824025E+03</pdfrwt>
<totfact> 0.20807003E+02</totfact>
</mgrwt>
</event>
<event>
 4    1  0.1806019E-005  0.9035147E+03  0.7818608E-02  0.9421199E-01
          2   -1    0    0  501    0  0.00000000000E+00  0.00000000000E+00  0.56842344770E+03  0.56842344771E+03  0.25500000000E-02 0. -1.
         -2   -1    0    0    0  501 -0.00000000000E+00 -0.00000000000E+00 -0.35903637176E+03  0.35903637177E+03  0.25500000000E-02 0.  1.
   -5000001    1    1    2    0    0 -0.27341124617E+03 -0.14385087807E+03 -0.11579643295E+03  0.41395120309E+03  0.25000000000E+03 0.  0.
    5000001    1    1    2    0    0  0.27341124617E+03  0.14385087807E+03  0.32518350889E+03  0.51350861639E+03  0.25000000000E+03 0.  0.
<mgrwt>
<rscale>  0 0.90351468E+03</rscale>
<asrwt>0</asrwt>
<pdfrwt beam="1">  1        2 0.87449761E-01 0.90351468E+03</pdfrwt>
<pdfrwt beam="2">  1       -2 0.55236365E-01 0.90351468E+03</pdfrwt>
<totfact> 0.16367425E+02</totfact>
</mgrwt>
</event>
<event>
 4    1  0.1806019E-005  0.6262255E+03  0.7818608E-02  0.9852442E-01
          2   -1    0    0  501    0  0.00000000000E+00  0.00000000000E+00  0.11361190288E+04  0.11361190288E+04  0.25500000000E-02 0.  1.
         -2   -1    0    0    0  501 -0.00000000000E+00 -0.00000000000E+00 -0.86293415317E+02  0.86293415355E+02  0.25500000000E-02 0. -1.
   -5000001    1    1    2    0    0  0.82979321554E+02 -0.15744669458E+02  0.85391064683E+03  0.89375435954E+03  0.25000000000E+03 0.  0.
    5000001    1    1    2    0    0 -0.82979321554E+02  0.15744669458E+02  0.19591496663E+03  0.32865808460E+03  0.25000000000E+03 0.  0.
<mgrwt>
<rscale>  0 0.62622549E+03</rscale>
<asrwt>0</asrwt>
<pdfrwt beam="1">  1        2 0.17478755E+00 0.62622549E+03</pdfrwt>
<pdfrwt beam="2">  1       -2 0.13275909E-01 0.62622549E+03</pdfrwt>
<totfact> 0.89968362E+02</totfact>
</mgrwt>
</event>
<event>
 4    1  0.1806019E-005  0.6686974E+03  0.7818608E-02  0.9772314E-01
          2   -1    0    0  501    0  0.00000000000E+00  0.00000000000E+00  0.22153090308E+03  0.22153090310E+03  0.25500000000E-02 0.  1.
         -2   -1    0    0    0  501 -0.00000000000E+00 -0.00000000000E+00 -0.50462061931E+03  0.50462061932E+03  0.25500000000E-02 0. -1.
   -5000001    1    1    2    0    0  0.12304769303E+03 -0.17352503629E+03 -0.72545051360E+02  0.33617622976E+03  0.25000000000E+03 0.  0.
    5000001    1    1    2    0    0 -0.12304769303E+03  0.17352503629E+03 -0.21054466487E+03  0.38997529266E+03  0.25000000000E+03 0.  0.
<mgrwt>
<rscale>  0 0.66869742E+03</rscale>
<asrwt>0</asrwt>
<pdfrwt beam="1">  1        2 0.34081677E-01 0.66869742E+03</pdfrwt>
<pdfrwt beam="2">  1       -2 0.77633941E-01 0.66869742E+03</pdfrwt>
<totfact> 0.23024386E+02</totfact>
</mgrwt>
</event>
<event>
 4    1  0.1806019E-005  0.6617092E+03  0.7818608E-02  0.9785052E-01
          2   -1    0    0  501    0  0.00000000000E+00  0.00000000000E+00  0.14943962985E+04  0.14943962985E+04  0.25500000000E-02 0.  1.
         -2   -1    0    0    0  501 -0.00000000000E+00 -0.00000000000E+00 -0.73250151852E+02  0.73250151897E+02  0.25500000000E-02 0. -1.
   -5000001    1    1    2    0    0 -0.18752334824E+03  0.10861544546E+03  0.71426968379E+03  0.78717437859E+03  0.25000000000E+03 0.  0.
    5000001    1    1    2    0    0  0.18752334824E+03 -0.10861544546E+03  0.70687646282E+03  0.78047207178E+03  0.25000000000E+03 0.  0.
<mgrwt>
<rscale>  0 0.66170917E+03</rscale>
<asrwt>0</asrwt>
<pdfrwt beam="1">  1        2 0.22990711E+00 0.66170917E+03</pdfrwt>
<pdfrwt beam="2">  1       -2 0.11269255E-01 0.66170917E+03</pdfrwt>
<totfact> 0.73371965E+02</totfact>
</mgrwt>
</event>
<event>
 4    1  0.1806019E-005  0.1436417E+04  0.7818608E-02  0.8927872E-01
         -2   -1    0    0    0  501 -0.00000000000E+00  0.00000000000E+00  0.32836143513E+03  0.32836143514E+03  0.25500000000E-02 0. -1.
          2   -1    0    0  501    0  0.00000000000E+00 -0.00000000000E+00 -0.15709016931E+04  0.15709016931E+04  0.25500000000E-02 0.  1.
   -5000001    1    1    2    0    0 -0.43514403123E+03  0.19469653942E+03 -0.12499399831E+04  0.13609213907E+04  0.25000000000E+03 0.  0.
    5000001    1    1    2    0    0  0.43514403123E+03 -0.19469653942E+03  0.73997251751E+01  0.53834173748E+03  0.25000000000E+03 0.  0.
<mgrwt>
<rscale>  0 0.14364171E+04</rscale>
<asrwt>0</asrwt>
<pdfrwt beam="1">  1        2 0.24167718E+00 0.14364171E+04</pdfrwt>
<pdfrwt beam="2">  1       -2 0.50517145E-01 0.14364171E+04</pdfrwt>
<totfact> 0.41641022E+01</totfact>
</mgrwt>
</event>
<event>
 4    1  0.1806019E-005  0.9724844E+03  0.7818608E-02  0.9339249E-01
         -2   -1    0    0    0  501 -0.00000000000E+00  0.00000000000E+00  0.18513907731E+03  0.18513907733E+03  0.25500000000E-02 0. -1.
          2   -1    0    0  501    0  0.00000000000E+00 -0.00000000000E+00 -0.12770479534E+04  0.12770479534E+04  0.25500000000E-02 0.  1.
   -5000001    1    1    2    0    0  0.40876972571E+03  0.52031608681E+02 -0.64259830731E+03  0.80326369364E+03  0.25000000000E+03 0.  0.
    5000001    1    1    2    0    0 -0.40876972571E+03 -0.52031608681E+02 -0.44931056878E+03  0.65892333710E+03  0.25000000000E+03 0.  0.
<mgrwt>
<rscale>  0 0.97248441E+03</rscale>
<asrwt>0</asrwt>
<pdfrwt beam="1">  1        2 0.19646891E+00 0.97248441E+03</pdfrwt>
<pdfrwt beam="2">  1       -2 0.28482936E-01 0.97248441E+03</pdfrwt>
<totfact> 0.19223054E+02</totfact>
</mgrwt>
</event>
<event>
 4    1  0.1806019E-005  0.6158202E+03  0.7818608E-02  0.9873117E-01
         -2   -1    0    0    0  501 -0.00000000000E+00  0.00000000000E+00  0.13079854144E+03  0.13079854147E+03  0.25500000000E-02 0. -1.
          2   -1    0    0  501    0  0.00000000000E+00 -0.00000000000E+00 -0.72484467233E+03  0.72484467233E+03  0.25500000000E-02 0.  1.
   -5000001    1    1    2    0    0  0.13197039371E+03  0.93078089554E+02 -0.18736392718E+03  0.35168872143E+03  0.25000000000E+03 0.  0.
    5000001    1    1    2    0    0 -0.13197039371E+03 -0.93078089554E+02 -0.40668220370E+03  0.50395449237E+03  0.25000000000E+03 0.  0.
<mgrwt>
<rscale>  0 0.61582019E+03</rscale>
<asrwt>0</asrwt>
<pdfrwt beam="1">  1        2 0.11151456E+00 0.61582019E+03</pdfrwt>
<pdfrwt beam="2">  1       -2 0.20122853E-01 0.61582019E+03</pdfrwt>
<totfact> 0.83165306E+02</totfact>
</mgrwt>
</event>
<event>
 4    1  0.1806019E-005  0.5793681E+03  0.7818608E-02  0.9949160E-01
         -2   -1    0    0    0  501 -0.00000000000E+00  0.00000000000E+00  0.47769066188E+03  0.47769066188E+03  0.25500000000E-02 0. -1.
          2   -1    0    0  501    0  0.00000000000E+00 -0.00000000000E+00 -0.17567196681E+03  0.17567196683E+03  0.25500000000E-02 0.  1.
   -5000001    1    1    2    0    0 -0.98880593606E+02  0.43303843460E+02  0.26244378654E+03  0.37819219419E+03  0.25000000000E+03 0.  0.
    5000001    1    1    2    0    0  0.98880593606E+02 -0.43303843460E+02  0.39574908527E+02  0.27517043452E+03  0.25000000000E+03 0.  0.
<mgrwt>
<rscale>  0 0.57936813E+03</rscale>
<asrwt>0</asrwt>
<pdfrwt beam="1">  1        2 0.27026457E-01 0.57936813E+03</pdfrwt>
<pdfrwt beam="2">  1       -2 0.73490871E-01 0.57936813E+03</pdfrwt>
<totfact> 0.33826273E+02</totfact>
</mgrwt>
</event>
<event>
 4    1  0.1806019E-005  0.1030382E+04  0.7818608E-02  0.9275836E-01
          2   -1    0    0  501    0  0.00000000000E+00  0.00000000000E+00  0.35667516070E+04  0.35667516070E+04  0.25500000000E-02 0.  1.
         -2   -1    0    0    0  501 -0.00000000000E+00 -0.00000000000E+00 -0.74415586370E+02  0.74415586414E+02  0.25500000000E-02 0. -1.
   -5000001    1    1    2    0    0  0.22890304887E+03 -0.34958857672E+03  0.11515525354E+04  0.12502727784E+04  0.25000000000E+03 0.  0.
    5000001    1    1    2    0    0 -0.22890304887E+03  0.34958857672E+03  0.23407834853E+04  0.23908944150E+04  0.25000000000E+03 0.  0.
<mgrwt>
<rscale>  0 0.10303823E+04</rscale>
<asrwt>0</asrwt>
<pdfrwt beam="1">  1        2 0.54873091E+00 0.10303823E+04</pdfrwt>
<pdfrwt beam="2">  1       -2 0.11448554E-01 0.10303823E+04</pdfrwt>
<totfact> 0.41671185E+01</totfact>
</mgrwt>
</event>
<event>
 4    1  0.1806019E-005  0.8184836E+03  0.7818608E-02  0.9533642E-01
         -2   -1    0    0    0  501 -0.00000000000E+00  0.00000000000E+00  0.36796274998E+03  0.36796274999E+03  0.25500000000E-02 0. -1.
          2   -1    0    0  501    0  0.00000000000E+00 -0.00000000000E+00 -0.45515163889E+03  0.45515163889E+03  0.25500000000E-02 0.  1.
   -5000001    1    1    2    0    0  0.22669850067E+03 -0.23016614302E+03 -0.18752761319E+02  0.40892582415E+03  0.25000000000E+03 0.  0.
    5000001    1    1    2    0    0 -0.22669850067E+03  0.23016614302E+03 -0.68436127589E+02  0.41418856473E+03  0.25000000000E+03 0.  0.
<mgrwt>
<rscale>  0 0.81848359E+03</rscale>
<asrwt>0</asrwt>
<pdfrwt beam="1">  1        2 0.70023329E-01 0.81848359E+03</pdfrwt>
<pdfrwt beam="2">  1       -2 0.56609654E-01 0.81848359E+03</pdfrwt>
<totfact> 0.20233658E+02</totfact>
</mgrwt>
</event>
<event>
 4    1  0.1806019E-005  0.8755660E+03  0.7818608E-02  0.9456651E-01
          2   -1    0    0  501    0  0.00000000000E+00  0.00000000000E+00  0.27586354173E+04  0.27586354173E+04  0.25500000000E-02 0.  1.
         -2   -1    0    0    0  501 -0.00000000000E+00 -0.00000000000E+00 -0.69474188801E+02  0.69474188848E+02  0.25500000000E-02 0. -1.
   -5000001    1    1    2    0    0 -0.15702580890E+03  0.31124729575E+03  0.16265754012E+04  0.16821948519E+04  0.25000000000E+03 0.  0.
    5000001    1    1    2    0    0  0.15702580890E+03 -0.31124729575E+03  0.10625858273E+04  0.11459147543E+04  0.25000000000E+03 0.  0.
<mgrwt>
<rscale>  0 0.87556601E+03</rscale>
<asrwt>0</asrwt>
<pdfrwt beam="1">  1        2 0.42440536E+00 0.87556601E+03</pdfrwt>
<pdfrwt beam="2">  1       -2 0.10688339E-01 0.87556601E+03</pdfrwt>
<totfact> 0.15574034E+02</totfact>
</mgrwt>
</event>
<event>
 4    1  0.1806019E-005  0.5737612E+03  0.7818608E-02  0.9961390E-01
          2   -1    0    0  501    0  0.00000000000E+00  0.00000000000E+00  0.44074107189E+04  0.44074107189E+04  0.25500000000E-02 0.  1.
         -2   -1    0    0    0  501 -0.00000000000E+00 -0.00000000000E+00 -0.18673201475E+02  0.18673201649E+02  0.25500000000E-02 0. -1.
   -5000001    1    1    2    0    0  0.10303574244E+03 -0.93059649700E+02  0.20177825977E+04  0.20379457976E+04  0.25000000000E+03 0.  0.
    5000001    1    1    2    0    0 -0.10303574244E+03  0.93059649700E+02  0.23709549198E+04  0.23881381229E+04  0.25000000000E+03 0.  0.
<mgrwt>
<rscale>  0 0.57376117E+03</rscale>
<asrwt>0</asrwt>
<pdfrwt beam="1">  1        2 0.67806418E+00 0.57376117E+03</pdfrwt>
<pdfrwt beam="2">  1       -2 0.28727961E-02 0.57376117E+03</pdfrwt>
<totfact> 0.85093211E+01</totfact>
</mgrwt>
</event>
<event>
 4    1  0.1806019E-005  0.1854851E+04  0.7818608E-02  0.8677662E-01
          2   -1    0    0  501    0  0.00000000000E+00  0.00000000000E+00  0.94913917778E+03  0.94913917778E+03  0.25500000000E-02 0.  1.
         -2   -1    0    0    0  501 -0.00000000000E+00 -0.00000000000E+00 -0.90620836433E+03  0.90620836433E+03  0.25500000000E-02 0. -1.
   -5000001    1    1    2    0    0  0.50895810532E+02 -0.89140365701E+03  0.42134884379E+02  0.92815204128E+03  0.25000000000E+03 0.  0.
    5000001    1    1    2    0    0 -0.50895810532E+02  0.89140365701E+03  0.79592907304E+00  0.92719550083E+03  0.25000000000E+03 0.  0.
<mgrwt>
<rscale>  0 0.18548508E+04</rscale>
<asrwt>0</asrwt>
<pdfrwt beam="1">  1        2 0.14602141E+00 0.18548508E+04</pdfrwt>
<pdfrwt beam="2">  1       -2 0.13941667E+00 0.18548508E+04</pdfrwt>
<totfact> 0.92767382E+00</totfact>
</mgrwt>
</event>
<event>
 4    1  0.1806019E-005  0.7273455E+03  0.7818608E-02  0.9671578E-01
         -2   -1    0    0    0  501 -0.00000000000E+00  0.00000000000E+00  0.49397353454E+02  0.49397353520E+02  0.25500000000E-02 0. -1.
          2   -1    0    0  501    0  0.00000000000E+00 -0.00000000000E+00 -0.26774284130E+04  0.26774284130E+04  0.25500000000E-02 0.  1.
   -5000001    1    1    2    0    0 -0.12726459470E+03  0.45162845145E+02 -0.21649823562E+04  0.21835486169E+04  0.25000000000E+03 0.  0.
    5000001    1    1    2    0    0  0.12726459470E+03 -0.45162845145E+02 -0.46304870334E+03  0.54327714963E+03  0.25000000000E+03 0.  0.
<mgrwt>
<rscale>  0 0.72734552E+03</rscale>
<asrwt>0</asrwt>
<pdfrwt beam="1">  1        2 0.41191195E+00 0.72734552E+03</pdfrwt>
<pdfrwt beam="2">  1       -2 0.75995949E-02 0.72734552E+03</pdfrwt>
<totfact> 0.30600851E+02</totfact>
</mgrwt>
</event>
<event>
 4    1  0.1806019E-005  0.1521296E+04  0.7818608E-02  0.8870414E-01
         -2   -1    0    0    0  501 -0.00000000000E+00  0.00000000000E+00  0.23339092532E+03  0.23339092533E+03  0.25500000000E-02 0. -1.
          2   -1    0    0  501    0  0.00000000000E+00 -0.00000000000E+00 -0.24790384312E+04  0.24790384312E+04  0.25500000000E-02 0.  1.
   -5000001    1    1    2    0    0  0.57618815984E+03  0.40139390685E+03 -0.85256823699E+03  0.11324674224E+04  0.25000000000E+03 0.  0.
    5000001    1    1    2    0    0 -0.57618815984E+03 -0.40139390685E+03 -0.13930792689E+04  0.15799619341E+04  0.25000000000E+03 0.  0.
<mgrwt>
<rscale>  0 0.15212956E+04</rscale>
<asrwt>0</asrwt>
<pdfrwt beam="1">  1        2 0.38139051E+00 0.15212956E+04</pdfrwt>
<pdfrwt beam="2">  1       -2 0.35906298E-01 0.15212956E+04</pdfrwt>
<totfact> 0.25250809E+01</totfact>
</mgrwt>
</event>
<event>
 4    1  0.1806019E-005  0.8615835E+03  0.7818608E-02  0.9474920E-01
         -2   -1    0    0    0  501 -0.00000000000E+00  0.00000000000E+00  0.11702599419E+03  0.11702599422E+03  0.25500000000E-02 0. -1.
          2   -1    0    0  501    0  0.00000000000E+00 -0.00000000000E+00 -0.15858147195E+04  0.15858147195E+04  0.25500000000E-02 0.  1.
   -5000001    1    1    2    0    0 -0.19864531180E+03 -0.28770008016E+03 -0.79202447776E+03  0.90112933001E+03  0.25000000000E+03 0.  0.
    5000001    1    1    2    0    0  0.19864531180E+03  0.28770008016E+03 -0.67676424754E+03  0.80171138371E+03  0.25000000000E+03 0.  0.
<mgrwt>
<rscale>  0 0.86158353E+03</rscale>
<asrwt>0</asrwt>
<pdfrwt beam="1">  1        2 0.24397148E+00 0.86158353E+03</pdfrwt>
<pdfrwt beam="2">  1       -2 0.18004000E-01 0.86158353E+03</pdfrwt>
<totfact> 0.29330937E+02</totfact>
</mgrwt>
</event>
<event>
 4    1  0.1806019E-005  0.7973296E+03  0.7818608E-02  0.9563890E-01
         -2   -1    0    0    0  501 -0.00000000000E+00  0.00000000000E+00  0.11390681903E+03  0.11390681906E+03  0.25500000000E-02 0. -1.
          2   -1    0    0  501    0  0.00000000000E+00 -0.00000000000E+00 -0.13952951318E+04  0.13952951318E+04  0.25500000000E-02 0.  1.
   -5000001    1    1    2    0    0 -0.21517717093E+03 -0.12000157900E+03 -0.99849251482E+03  0.10583897656E+04  0.25000000000E+03 0.  0.
    5000001    1    1    2    0    0  0.21517717093E+03  0.12000157900E+03 -0.28289579796E+03  0.45081218523E+03  0.25000000000E+03 0.  0.
<mgrwt>
<rscale>  0 0.79732962E+03</rscale>
<asrwt>0</asrwt>
<pdfrwt beam="1">  1        2 0.21466078E+00 0.79732962E+03</pdfrwt>
<pdfrwt beam="2">  1       -2 0.17524127E-01 0.79732962E+03</pdfrwt>
<totfact> 0.39433249E+02</totfact>
</mgrwt>
</event>
<event>
 4    1  0.1806019E-005  0.7785444E+03  0.7818608E-02  0.9591603E-01
         -2   -1    0    0    0  501 -0.00000000000E+00  0.00000000000E+00  0.64571668333E+03  0.64571668333E+03  0.25500000000E-02 0.  1.
          2   -1    0    0  501    0  0.00000000000E+00 -0.00000000000E+00 -0.23467391580E+03  0.23467391582E+03  0.25500000000E-02 0. -1.
   -5000001    1    1    2    0    0  0.24572196546E+03 -0.16901980508E+03  0.19504171568E+03  0.43530248067E+03  0.25000000000E+03 0.  0.
    5000001    1    1    2    0    0 -0.24572196546E+03  0.16901980508E+03  0.21600105184E+03  0.44508811849E+03  0.25000000000E+03 0.  0.
<mgrwt>
<rscale>  0 0.77854444E+03</rscale>
<asrwt>0</asrwt>
<pdfrwt beam="1">  1        2 0.36103680E-01 0.77854444E+03</pdfrwt>
<pdfrwt beam="2">  1       -2 0.99341026E-01 0.77854444E+03</pdfrwt>
<totfact> 0.12217139E+02</totfact>
</mgrwt>
</event>
<event>
 4    1  0.1806019E-005  0.6845118E+03  0.7818608E-02  0.9744092E-01
         -2   -1    0    0    0  501 -0.00000000000E+00  0.00000000000E+00  0.67852244999E+03  0.67852245000E+03  0.25500000000E-02 0.  1.
          2   -1    0    0  501    0  0.00000000000E+00 -0.00000000000E+00 -0.17263849998E+03  0.17263850000E+03  0.25500000000E-02 0. -1.
   -5000001    1    1    2    0    0 -0.21268463846E+02 -0.22448528364E+03  0.17635968422E+03  0.38006411084E+03  0.25000000000E+03 0.  0.
    5000001    1    1    2    0    0  0.21268463846E+02  0.22448528364E+03  0.32952426579E+03  0.47109683916E+03  0.25000000000E+03 0.  0.
<mgrwt>
<rscale>  0 0.68451179E+03</rscale>
<asrwt>0</asrwt>
<pdfrwt beam="1">  1        2 0.26559769E-01 0.68451179E+03</pdfrwt>
<pdfrwt beam="2">  1       -2 0.10438807E+00 0.68451179E+03</pdfrwt>
<totfact> 0.15406022E+02</totfact>
</mgrwt>
</event>
<event>
 4    1  0.1806019E-005  0.9136177E+03  0.7818608E-02  0.9408717E-01
          2   -1    0    0  501    0  0.00000000000E+00  0.00000000000E+00  0.25335582630E+04  0.25335582630E+04  0.25500000000E-02 0.  1.
         -2   -1    0    0    0  501 -0.00000000000E+00 -0.00000000000E+00 -0.82364128803E+02  0.82364128842E+02  0.25500000000E-02 0. -1.
   -5000001    1    1    2    0    0  0.17533886259E+03  0.83759082929E+02  0.28282852850E+03  0.42456009850E+03  0.25000000000E+03 0.  0.
    5000001    1    1    2    0    0 -0.17533886259E+03 -0.83759082929E+02  0.21683656057E+04  0.21913622934E+04  0.25000000000E+03 0.  0.
<mgrwt>
<rscale>  0 0.91361769E+03</rscale>
<asrwt>0</asrwt>
<pdfrwt beam="1">  1        2 0.38977818E+00 0.91361769E+03</pdfrwt>
<pdfrwt beam="2">  1       -2 0.12671405E-01 0.91361769E+03</pdfrwt>
<totfact> 0.15824676E+02</totfact>
</mgrwt>
</event>
<event>
 4    1  0.1806019E-005  0.7052989E+03  0.7818608E-02  0.9708213E-01
          2   -1    0    0  501    0  0.00000000000E+00  0.00000000000E+00  0.68576343901E+03  0.68576343901E+03  0.25500000000E-02 0.  1.
         -2   -1    0    0    0  501 -0.00000000000E+00 -0.00000000000E+00 -0.18134772748E+03  0.18134772750E+03  0.25500000000E-02 0. -1.
   -5000001    1    1    2    0    0 -0.12729752909E+03 -0.21152907330E+03  0.21507129374E+03  0.41195251080E+03  0.25000000000E+03 0.  0.
    5000001    1    1    2    0    0  0.12729752909E+03  0.21152907330E+03  0.28934441779E+03  0.45515865571E+03  0.25000000000E+03 0.  0.
<mgrwt>
<rscale>  0 0.70529892E+03</rscale>
<asrwt>0</asrwt>
<pdfrwt beam="1">  1        2 0.10550207E+00 0.70529892E+03</pdfrwt>
<pdfrwt beam="2">  1       -2 0.27899650E-01 0.70529892E+03</pdfrwt>
<totfact> 0.49617590E+02</totfact>
</mgrwt>
</event>
<event>
 4    1  0.1806019E-005  0.1055264E+04  0.7818608E-02  0.9249926E-01
          2   -1    0    0  501    0  0.00000000000E+00  0.00000000000E+00  0.31744479499E+03  0.31744479500E+03  0.25500000000E-02 0.  1.
         -2   -1    0    0    0  501 -0.00000000000E+00 -0.00000000000E+00 -0.87698912300E+03  0.87698912300E+03  0.25500000000E-02 0. -1.
   -5000001    1    1    2    0    0  0.27910051429E+03  0.16012845611E+03  0.99631733754E+02  0.41948146789E+03  0.25000000000E+03 0.  0.
    5000001    1    1    2    0    0 -0.27910051429E+03 -0.16012845611E+03 -0.65917606176E+03  0.77495245011E+03  0.25000000000E+03 0.  0.
<mgrwt>
<rscale>  0 0.10552642E+04</rscale>
<asrwt>0</asrwt>
<pdfrwt beam="1">  1        2 0.48837661E-01 0.10552642E+04</pdfrwt>
<pdfrwt beam="2">  1       -2 0.13492140E+00 0.10552642E+04</pdfrwt>
<totfact> 0.40505782E+01</totfact>
</mgrwt>
</event>
<event>
 4    1  0.1806019E-005  0.7204297E+03  0.7818608E-02  0.9682919E-01
          2   -1    0    0  501    0  0.00000000000E+00  0.00000000000E+00  0.72789002950E+03  0.72789002950E+03  0.25500000000E-02 0.  1.
         -2   -1    0    0    0  501 -0.00000000000E+00 -0.00000000000E+00 -0.17826144908E+03  0.17826144910E+03  0.25500000000E-02 0. -1.
   -5000001    1    1    2    0    0  0.96980199913E+02 -0.22380066216E+03  0.16399396800E+03  0.38585737922E+03  0.25000000000E+03 0.  0.
    5000001    1    1    2    0    0 -0.96980199913E+02  0.22380066216E+03  0.38563461242E+03  0.52029409938E+03  0.25000000000E+03 0.  0.
<mgrwt>
<rscale>  0 0.72042968E+03</rscale>
<asrwt>0</asrwt>
<pdfrwt beam="1">  1        2 0.11198308E+00 0.72042968E+03</pdfrwt>
<pdfrwt beam="2">  1       -2 0.27424838E-01 0.72042968E+03</pdfrwt>
<totfact> 0.47461821E+02</totfact>
</mgrwt>
</event>
<event>
 4    1  0.1806019E-005  0.7173833E+03  0.7818608E-02  0.9687958E-01
         -2   -1    0    0    0  501 -0.00000000000E+00  0.00000000000E+00  0.12364291168E+03  0.12364291170E+03  0.25500000000E-02 0. -1.
          2   -1    0    0  501    0  0.00000000000E+00 -0.00000000000E+00 -0.10405747454E+04  0.10405747454E+04  0.25500000000E-02 0.  1.
   -5000001    1    1    2    0    0 -0.17960862291E+03  0.16511200918E+03 -0.32624001098E+03  0.47796838573E+03  0.25000000000E+03 0.  0.
    5000001    1    1    2    0    0  0.17960862291E+03 -0.16511200918E+03 -0.59069182273E+03  0.68624927135E+03  0.25000000000E+03 0.  0.
<mgrwt>
<rscale>  0 0.71738328E+03</rscale>
<asrwt>0</asrwt>
<pdfrwt beam="1">  1        2 0.16008842E+00 0.71738328E+03</pdfrwt>
<pdfrwt beam="2">  1       -2 0.19021987E-01 0.71738328E+03</pdfrwt>
<totfact> 0.55675801E+02</totfact>
</mgrwt>
</event>
<event>
 4    1  0.1806019E-005  0.6228857E+03  0.7818608E-02  0.9859031E-01
          2   -1    0    0  501    0  0.00000000000E+00  0.00000000000E+00  0.15334925782E+04  0.15334925782E+04  0.25500000000E-02 0.  1.
         -2   -1    0    0    0  501 -0.00000000000E+00 -0.00000000000E+00 -0.63252110305E+02  0.63252110357E+02  0.25500000000E-02 0. -1.
   -5000001    1    1    2    0    0  0.98253483637E+02  0.15478599362E+03  0.81134571121E+03  0.86855875677E+03  0.25000000000E+03 0.  0.
    5000001    1    1    2    0    0 -0.98253483637E+02 -0.15478599362E+03  0.65889475672E+03  0.72818593182E+03  0.25000000000E+03 0.  0.
<mgrwt>
<rscale>  0 0.62288568E+03</rscale>
<asrwt>0</asrwt>
<pdfrwt beam="1">  1        2 0.23592192E+00 0.62288568E+03</pdfrwt>
<pdfrwt beam="2">  1       -2 0.97310946E-02 0.62288568E+03</pdfrwt>
<totfact> 0.88846920E+02</totfact>
</mgrwt>
</event>
<event>
 4    1  0.1806019E-005  0.6975509E+03  0.7818608E-02  0.9721430E-01
          2   -1    0    0  501    0  0.00000000000E+00  0.00000000000E+00  0.58738666571E+03  0.58738666572E+03  0.25500000000E-02 0.  1.
         -2   -1    0    0    0  501 -0.00000000000E+00 -0.00000000000E+00 -0.20709412352E+03  0.20709412353E+03  0.25500000000E-02 0. -1.
   -5000001    1    1    2    0    0  0.22488711671E+03 -0.59757415646E+02  0.27067597680E+03  0.43578738899E+03  0.25000000000E+03 0.  0.
    5000001    1    1    2    0    0 -0.22488711671E+03  0.59757415646E+02  0.10961656540E+03  0.35869340027E+03  0.25000000000E+03 0.  0.
<mgrwt>
<rscale>  0 0.69755093E+03</rscale>
<asrwt>0</asrwt>
<pdfrwt beam="1">  1        2 0.90367180E-01 0.69755093E+03</pdfrwt>
<pdfrwt beam="2">  1       -2 0.31860634E-01 0.69755093E+03</pdfrwt>
<totfact> 0.46906624E+02</totfact>
</mgrwt>
</event>
<event>
 4    1  0.1806019E-005  0.9736954E+03  0.7818608E-02  0.9337875E-01
         -2   -1    0    0    0  501 -0.00000000000E+00  0.00000000000E+00  0.47238852838E+03  0.47238852838E+03  0.25500000000E-02 0. -1.
          2   -1    0    0  501    0  0.00000000000E+00 -0.00000000000E+00 -0.50174942239E+03  0.50174942239E+03  0.25500000000E-02 0.  1.
   -5000001    1    1    2    0    0  0.39898190578E+03  0.12377008169E+03 -0.10795770723E+02  0.48695188975E+03  0.25000000000E+03 0.  0.
    5000001    1    1    2    0    0 -0.39898190578E+03 -0.12377008169E+03 -0.18565123286E+02  0.48718606103E+03  0.25000000000E+03 0.  0.
<mgrwt>
<rscale>  0 0.97369538E+03</rscale>
<asrwt>0</asrwt>
<pdfrwt beam="1">  1        2 0.77192219E-01 0.97369538E+03</pdfrwt>
<pdfrwt beam="2">  1       -2 0.72675158E-01 0.97369538E+03</pdfrwt>
<totfact> 0.10505305E+02</totfact>
</mgrwt>
</event>
<event>
 4    1  0.1806019E-005  0.7034325E+03  0.7818608E-02  0.9711380E-01
          2   -1    0    0  501    0  0.00000000000E+00  0.00000000000E+00  0.23498639923E+04  0.23498639923E+04  0.25500000000E-02 0.  1.
         -2   -1    0    0    0  501 -0.00000000000E+00 -0.00000000000E+00 -0.52643186619E+02  0.52643186681E+02  0.25500000000E-02 0. -1.
   -5000001    1    1    2    0    0 -0.12956864035E+02  0.24704667977E+03  0.11414572354E+04  0.11944138991E+04  0.25000000000E+03 0.  0.
    5000001    1    1    2    0    0  0.12956864035E+02 -0.24704667977E+03  0.11557635704E+04  0.12080932799E+04  0.25000000000E+03 0.  0.
<mgrwt>
<rscale>  0 0.70343252E+03</rscale>
<asrwt>0</asrwt>
<pdfrwt beam="1">  1        2 0.36151757E+00 0.70343252E+03</pdfrwt>
<pdfrwt beam="2">  1       -2 0.80989511E-02 0.70343252E+03</pdfrwt>
<totfact> 0.42502729E+02</totfact>
</mgrwt>
</event>
<event>
 4    1  0.1806019E-005  0.6021379E+03  0.7818608E-02  0.9900981E-01
         -2   -1    0    0    0  501 -0.00000000000E+00  0.00000000000E+00  0.13552088997E+03  0.13552088999E+03  0.25500000000E-02 0. -1.
          2   -1    0    0  501    0  0.00000000000E+00 -0.00000000000E+00 -0.66884528451E+03  0.66884528452E+03  0.25500000000E-02 0.  1.
   -5000001    1    1    2    0    0  0.91313390800E+02 -0.13252185009E+03 -0.20340531024E+03  0.36024144171E+03  0.25000000000E+03 0.  0.
    5000001    1    1    2    0    0 -0.91313390800E+02  0.13252185009E+03 -0.32991908431E+03  0.44412473280E+03  0.25000000000E+03 0.  0.
<mgrwt>
<rscale>  0 0.60213789E+03</rscale>
<asrwt>0</asrwt>
<pdfrwt beam="1">  1        2 0.10289927E+00 0.60213789E+03</pdfrwt>
<pdfrwt beam="2">  1       -2 0.20849368E-01 0.60213789E+03</pdfrwt>
<totfact> 0.86465267E+02</totfact>
</mgrwt>
</event>
<event>
 4    1  0.1806019E-005  0.6693303E+03  0.7818608E-02  0.9771168E-01
         -2   -1    0    0    0  501 -0.00000000000E+00  0.00000000000E+00  0.12369768670E+03  0.12369768672E+03  0.25500000000E-02 0.  1.
          2   -1    0    0  501    0  0.00000000000E+00 -0.00000000000E+00 -0.90543955750E+03  0.90543955750E+03  0.25500000000E-02 0. -1.
   -5000001    1    1    2    0    0  0.18385293760E+03 -0.11506149896E+03 -0.46712733179E+03  0.57249366399E+03  0.25000000000E+03 0.  0.
    5000001    1    1    2    0    0 -0.18385293760E+03  0.11506149896E+03 -0.31461453901E+03  0.45664358023E+03  0.25000000000E+03 0.  0.
<mgrwt>
<rscale>  0 0.66933035E+03</rscale>
<asrwt>0</asrwt>
<pdfrwt beam="1">  1        2 0.13929839E+00 0.66933035E+03</pdfrwt>
<pdfrwt beam="2">  1       -2 0.19030414E-01 0.66933035E+03</pdfrwt>
<totfact> 0.68125152E+02</totfact>
</mgrwt>
</event>
<event>
 4    1  0.1806019E-005  0.2044042E+04  0.7818608E-02  0.8586302E-01
         -2   -1    0    0    0  501 -0.00000000000E+00  0.00000000000E+00  0.46045501952E+03  0.46045501953E+03  0.25500000000E-02 0. -1.
          2   -1    0    0  501    0  0.00000000000E+00 -0.00000000000E+00 -0.22684666195E+04  0.22684666195E+04  0.25500000000E-02 0.  1.
   -5000001    1    1    2    0    0 -0.70789706332E+03  0.61267654875E+03 -0.13377180171E+04  0.16518112177E+04  0.25000000000E+03 0.  0.
    5000001    1    1    2    0    0  0.70789706332E+03 -0.61267654875E+03 -0.47029358289E+03  0.10771104213E+04  0.25000000000E+03 0.  0.
<mgrwt>
<rscale>  0 0.20440419E+04</rscale>
<asrwt>0</asrwt>
<pdfrwt beam="1">  1        2 0.34899486E+00 0.20440419E+04</pdfrwt>
<pdfrwt beam="2">  1       -2 0.70839235E-01 0.20440419E+04</pdfrwt>
<totfact> 0.79207806E+00</totfact>
</mgrwt>
</event>
<event>
 4    1  0.1806019E-005  0.9156542E+03  0.7818608E-02  0.9406222E-01
          2   -1    0    0  501    0  0.00000000000E+00  0.00000000000E+00  0.19439566170E+04  0.19439566170E+04  0.25500000000E-02 0.  1.
         -2   -1    0    0    0  501 -0.00000000000E+00 -0.00000000000E+00 -0.10782423844E+03  0.10782423847E+03  0.25500000000E-02 0. -1.
   -5000001    1    1    2    0    0  0.25465008610E+03  0.11575215522E+03  0.33005673578E+03  0.49968257587E+03  0.25000000000E+03 0.  0.
    5000001    1    1    2    0    0 -0.25465008610E+03 -0.11575215522E+03  0.15060756428E+04  0.15520982796E+04  0.25000000000E+03 0.  0.
<mgrwt>
<rscale>  0 0.91565417E+03</rscale>
<asrwt>0</asrwt>
<pdfrwt beam="1">  1        2 0.29907025E+00 0.91565417E+03</pdfrwt>
<pdfrwt beam="2">  1       -2 0.16588345E-01 0.91565417E+03</pdfrwt>
<totfact> 0.21388161E+02</totfact>
</mgrwt>
</event>
<event>
 4    1  0.1806019E-005  0.1005930E+04  0.7818608E-02  0.9302065E-01
          2   -1    0    0  501    0  0.00000000000E+00  0.00000000000E+00  0.27804836184E+04  0.27804836184E+04  0.25500000000E-02 0.  1.
         -2   -1    0    0    0  501 -0.00000000000E+00 -0.00000000000E+00 -0.90981967322E+02  0.90981967358E+02  0.25500000000E-02 0. -1.
   -5000001    1    1    2    0    0  0.30084405594E+03 -0.27029723831E+03  0.18129831367E+04  0.18742933594E+04  0.25000000000E+03 0.  0.
    5000001    1    1    2    0    0 -0.30084405594E+03  0.27029723831E+03  0.87651851440E+03  0.99717222640E+03  0.25000000000E+03 0.  0.
<mgrwt>
<rscale>  0 0.10059302E+04</rscale>
<asrwt>0</asrwt>
<pdfrwt beam="1">  1        2 0.42776678E+00 0.10059302E+04</pdfrwt>
<pdfrwt beam="2">  1       -2 0.13997223E-01 0.10059302E+04</pdfrwt>
<totfact> 0.95330544E+01</totfact>
</mgrwt>
</event>
<event>
 4    1  0.1806019E-005  0.6478452E+03  0.7818608E-02  0.9810831E-01
         -2   -1    0    0    0  501 -0.00000000000E+00  0.00000000000E+00  0.37871703667E+03  0.37871703668E+03  0.25500000000E-02 0. -1.
          2   -1    0    0  501    0  0.00000000000E+00 -0.00000000000E+00 -0.27705609652E+03  0.27705609653E+03  0.25500000000E-02 0.  1.
   -5000001    1    1    2    0    0  0.18773637814E+03 -0.80335153715E+02  0.23534213494E+02  0.32365497649E+03  0.25000000000E+03 0.  0.
    5000001    1    1    2    0    0 -0.18773637814E+03  0.80335153715E+02  0.78126726659E+02  0.33211815672E+03  0.25000000000E+03 0.  0.
<mgrwt>
<rscale>  0 0.64784524E+03</rscale>
<asrwt>0</asrwt>
<pdfrwt beam="1">  1        2 0.42624015E-01 0.64784524E+03</pdfrwt>
<pdfrwt beam="2">  1       -2 0.58264159E-01 0.64784524E+03</pdfrwt>
<totfact> 0.33387986E+02</totfact>
</mgrwt>
</event>
<event>
 4    1  0.1806019E-005  0.8723165E+03  0.7818608E-02  0.9460864E-01
          2   -1    0    0  501    0  0.00000000000E+00  0.00000000000E+00  0.22216569391E+04  0.22216569391E+04  0.25500000000E-02 0.  1.
         -2   -1    0    0    0  501 -0.00000000000E+00 -0.00000000000E+00 -0.85627093890E+02  0.85627093928E+02  0.25500000000E-02 0. -1.
   -5000001    1    1    2    0    0 -0.34812420673E+03  0.79091289910E+02  0.10231173724E+04  0.11120769097E+04  0.25000000000E+03 0.  0.
    5000001    1    1    2    0    0  0.34812420673E+03 -0.79091289910E+02  0.11129124729E+04  0.11952071234E+04  0.25000000000E+03 0.  0.
<mgrwt>
<rscale>  0 0.87231652E+03</rscale>
<asrwt>0</asrwt>
<pdfrwt beam="1">  1        2 0.34179338E+00 0.87231652E+03</pdfrwt>
<pdfrwt beam="2">  1       -2 0.13173399E-01 0.87231652E+03</pdfrwt>
<totfact> 0.22294284E+02</totfact>
</mgrwt>
</event>
<event>
 4    1  0.1806019E-005  0.6655379E+03  0.7818608E-02  0.9778052E-01
          2   -1    0    0  501    0  0.00000000000E+00  0.00000000000E+00  0.59720809351E+03  0.59720809351E+03  0.25500000000E-02 0.  1.
         -2   -1    0    0    0  501 -0.00000000000E+00 -0.00000000000E+00 -0.18542142956E+03  0.18542142958E+03  0.25500000000E-02 0. -1.
   -5000001    1    1    2    0    0  0.19899831555E+03 -0.79521635539E+02  0.14936082090E+03  0.36156973730E+03  0.25000000000E+03 0.  0.
    5000001    1    1    2    0    0 -0.19899831555E+03  0.79521635539E+02  0.26242584305E+03  0.42105978579E+03  0.25000000000E+03 0.  0.
<mgrwt>
<rscale>  0 0.66553791E+03</rscale>
<asrwt>0</asrwt>
<pdfrwt beam="1">  1        2 0.91878166E-01 0.66553791E+03</pdfrwt>
<pdfrwt beam="2">  1       -2 0.28526374E-01 0.66553791E+03</pdfrwt>
<totfact> 0.56493054E+02</totfact>
</mgrwt>
</event>
<event>
 4    1  0.1806019E-005  0.9443529E+03  0.7818608E-02  0.9371776E-01
          2   -1    0    0  501    0  0.00000000000E+00  0.00000000000E+00  0.41488016333E+03  0.41488016334E+03  0.25500000000E-02 0.  1.
         -2   -1    0    0    0  501 -0.00000000000E+00 -0.00000000000E+00 -0.53738548843E+03  0.53738548844E+03  0.25500000000E-02 0. -1.
   -5000001    1    1    2    0    0  0.33879396539E+03 -0.12470775908E+03 -0.23624987870E+03  0.49864554680E+03  0.25000000000E+03 0.  0.
    5000001    1    1    2    0    0 -0.33879396539E+03  0.12470775908E+03  0.11374455360E+03  0.45362010497E+03  0.25000000000E+03 0.  0.
<mgrwt>
<rscale>  0 0.94435286E+03</rscale>
<asrwt>0</asrwt>
<pdfrwt beam="1">  1        2 0.63827717E-01 0.94435286E+03</pdfrwt>
<pdfrwt beam="2">  1       -2 0.82674691E-01 0.94435286E+03</pdfrwt>
<totfact> 0.98096906E+01</totfact>
</mgrwt>
</event>
<event>
 4    1  0.1806019E-005  0.9941515E+03  0.7818608E-02  0.9314983E-01
         -2   -1    0    0    0  501 -0.00000000000E+00  0.00000000000E+00  0.15473901988E+03  0.15473901990E+03  0.25500000000E-02 0. -1.
          2   -1    0    0  501    0  0.00000000000E+00 -0.00000000000E+00 -0.15967806859E+04  0.15967806859E+04  0.25500000000E-02 0.  1.
   -5000001    1    1    2    0    0  0.41307943554E+03 -0.58375378421E+02 -0.54012713592E+03  0.72682847208E+03  0.25000000000E+03 0.  0.
    5000001    1    1    2    0    0 -0.41307943554E+03  0.58375378421E+02 -0.90191453013E+03  0.10246912338E+04  0.25000000000E+03 0.  0.
<mgrwt>
<rscale>  0 0.99415145E+03</rscale>
<asrwt>0</asrwt>
<pdfrwt beam="1">  1        2 0.24565856E+00 0.99415145E+03</pdfrwt>
<pdfrwt beam="2">  1       -2 0.23806004E-01 0.99415145E+03</pdfrwt>
<totfact> 0.17524457E+02</totfact>
</mgrwt>
</event>
<event>
 4    1  0.1806019E-005  0.9353884E+03  0.7818608E-02  0.9382394E-01
          2   -1    0    0  501    0  0.00000000000E+00  0.00000000000E+00  0.66388401181E+03  0.66388401182E+03  0.25500000000E-02 0.  1.
         -2   -1    0    0    0  501 -0.00000000000E+00 -0.00000000000E+00 -0.32948204489E+03  0.32948204490E+03  0.25500000000E-02 0. -1.
   -5000001    1    1    2    0    0 -0.16506660754E+03 -0.35731502468E+03  0.20573865702E+03  0.50965616525E+03  0.25000000000E+03 0.  0.
    5000001    1    1    2    0    0  0.16506660754E+03  0.35731502468E+03  0.12866330991E+03  0.48370989147E+03  0.25000000000E+03 0.  0.
<mgrwt>
<rscale>  0 0.93538839E+03</rscale>
<asrwt>0</asrwt>
<pdfrwt beam="1">  1        2 0.10213600E+00 0.93538839E+03</pdfrwt>
<pdfrwt beam="2">  1       -2 0.50689546E-01 0.93538839E+03</pdfrwt>
<totfact> 0.16143714E+02</totfact>
</mgrwt>
</event>
<event>
 4    1  0.1806019E-005  0.8186805E+03  0.7818608E-02  0.9533365E-01
          2   -1    0    0  501    0  0.00000000000E+00  0.00000000000E+00  0.11665523353E+04  0.11665523353E+04  0.25500000000E-02 0.  1.
         -2   -1    0    0    0  501 -0.00000000000E+00 -0.00000000000E+00 -0.14363646875E+03  0.14363646878E+03  0.25500000000E-02 0. -1.
   -5000001    1    1    2    0    0  0.14296895928E+03 -0.27649051835E+03  0.36678332682E+03  0.54214125363E+03  0.25000000000E+03 0.  0.
    5000001    1    1    2    0    0 -0.14296895928E+03  0.27649051835E+03  0.65613253971E+03  0.76804755043E+03  0.25000000000E+03 0.  0.
<mgrwt>
<rscale>  0 0.81868054E+03</rscale>
<asrwt>0</asrwt>
<pdfrwt beam="1">  1        2 0.17946959E+00 0.81868054E+03</pdfrwt>
<pdfrwt beam="2">  1       -2 0.22097918E-01 0.81868054E+03</pdfrwt>
<totfact> 0.35668221E+02</totfact>
</mgrwt>
</event>
<event>
 4    1  0.1806019E-005  0.7163100E+03  0.7818608E-02  0.9689739E-01
         -2   -1    0    0    0  501 -0.00000000000E+00  0.00000000000E+00  0.33131830621E+03  0.33131830622E+03  0.25500000000E-02 0. -1.
          2   -1    0    0  501    0  0.00000000000E+00 -0.00000000000E+00 -0.38716548013E+03  0.38716548013E+03  0.25500000000E-02 0.  1.
   -5000001    1    1    2    0    0  0.54627717654E+02  0.11118353745E+03 -0.25316918689E+03  0.37675005471E+03  0.25000000000E+03 0.  0.
    5000001    1    1    2    0    0 -0.54627717654E+02 -0.11118353745E+03  0.19732201298E+03  0.34173373164E+03  0.25000000000E+03 0.  0.
<mgrwt>
<rscale>  0 0.71631002E+03</rscale>
<asrwt>0</asrwt>
<pdfrwt beam="1">  1        2 0.59563920E-01 0.71631002E+03</pdfrwt>
<pdfrwt beam="2">  1       -2 0.50972047E-01 0.71631002E+03</pdfrwt>
<totfact> 0.30286127E+02</totfact>
</mgrwt>
</event>
<event>
 4    1  0.1806019E-005  0.8047983E+03  0.7818608E-02  0.9553098E-01
         -2   -1    0    0    0  501 -0.00000000000E+00  0.00000000000E+00  0.16592067910E+03  0.16592067912E+03  0.25500000000E-02 0. -1.
          2   -1    0    0  501    0  0.00000000000E+00 -0.00000000000E+00 -0.97591853989E+03  0.97591853989E+03  0.25500000000E-02 0.  1.
   -5000001    1    1    2    0    0 -0.83458745912E+02  0.25476128721E+03 -0.16947822792E+03  0.40384594274E+03  0.25000000000E+03 0.  0.
    5000001    1    1    2    0    0  0.83458745912E+02 -0.25476128721E+03 -0.64051963286E+03  0.73799327627E+03  0.25000000000E+03 0.  0.
<mgrwt>
<rscale>  0 0.80479828E+03</rscale>
<asrwt>0</asrwt>
<pdfrwt beam="1">  1        2 0.15014131E+00 0.80479828E+03</pdfrwt>
<pdfrwt beam="2">  1       -2 0.25526259E-01 0.80479828E+03</pdfrwt>
<totfact> 0.36196643E+02</totfact>
</mgrwt>
</event>
<event>
 4    1  0.1806019E-005  0.6752697E+03  0.7818608E-02  0.9760485E-01
          2   -1    0    0  501    0  0.00000000000E+00  0.00000000000E+00  0.15368698327E+03  0.15368698329E+03  0.25500000000E-02 0.  1.
         -2   -1    0    0    0  501 -0.00000000000E+00 -0.00000000000E+00 -0.74174979359E+03  0.74174979360E+03  0.25500000000E-02 0. -1.
   -5000001    1    1    2    0    0  0.96340408940E+02  0.19790270087E+03 -0.36726855271E+03  0.49581563430E+03  0.25000000000E+03 0.  0.
    5000001    1    1    2    0    0 -0.96340408940E+02 -0.19790270087E+03 -0.22079425761E+03  0.39962114259E+03  0.25000000000E+03 0.  0.
<mgrwt>
<rscale>  0 0.67526969E+03</rscale>
<asrwt>0</asrwt>
<pdfrwt beam="1">  1        2 0.23644152E-01 0.67526969E+03</pdfrwt>
<pdfrwt beam="2">  1       -2 0.11411535E+00 0.67526969E+03</pdfrwt>
<totfact> 0.14204960E+02</totfact>
</mgrwt>
</event>
<event>
 4    1  0.1806019E-005  0.5929791E+03  0.7818608E-02  0.9920080E-01
          2   -1    0    0  501    0  0.00000000000E+00  0.00000000000E+00  0.76810335328E+03  0.76810335328E+03  0.25500000000E-02 0.  1.
         -2   -1    0    0    0  501 -0.00000000000E+00 -0.00000000000E+00 -0.11444561639E+03  0.11444561642E+03  0.25500000000E-02 0. -1.
   -5000001    1    1    2    0    0  0.38843577680E+02 -0.15421376670E+03  0.34281386916E+03  0.45311373655E+03  0.25000000000E+03 0.  0.
    5000001    1    1    2    0    0 -0.38843577680E+02  0.15421376670E+03  0.31084386772E+03  0.42943523315E+03  0.25000000000E+03 0.  0.
<mgrwt>
<rscale>  0 0.59297913E+03</rscale>
<asrwt>0</asrwt>
<pdfrwt beam="1">  1        2 0.11816975E+00 0.59297913E+03</pdfrwt>
<pdfrwt beam="2">  1       -2 0.17607018E-01 0.59297913E+03</pdfrwt>
<totfact> 0.97325940E+02</totfact>
</mgrwt>
</event>
<event>
 4    1  0.1806019E-005  0.7325092E+03  0.7818608E-02  0.9663197E-01
          2   -1    0    0  501    0  0.00000000000E+00  0.00000000000E+00  0.94659937452E+03  0.94659937452E+03  0.25500000000E-02 0.  1.
         -2   -1    0    0    0  501 -0.00000000000E+00 -0.00000000000E+00 -0.14170983972E+03  0.14170983974E+03  0.25500000000E-02 0. -1.
   -5000001    1    1    2    0    0 -0.14165333464E+03  0.22250647885E+03  0.33488669947E+03  0.49419014744E+03  0.25000000000E+03 0.  0.
    5000001    1    1    2    0    0  0.14165333464E+03 -0.22250647885E+03  0.47000283532E+03  0.59411906682E+03  0.25000000000E+03 0.  0.
<mgrwt>
<rscale>  0 0.73250924E+03</rscale>
<asrwt>0</asrwt>
<pdfrwt beam="1">  1        2 0.14563067E+00 0.73250924E+03</pdfrwt>
<pdfrwt beam="2">  1       -2 0.21801514E-01 0.73250924E+03</pdfrwt>
<totfact> 0.50311198E+02</totfact>
</mgrwt>
</event>
<event>
 4    1  0.1806019E-005  0.1003271E+04  0.7818608E-02  0.9304965E-01
         -2   -1    0    0    0  501 -0.00000000000E+00  0.00000000000E+00  0.58999567948E+03  0.58999567949E+03  0.25500000000E-02 0. -1.
          2   -1    0    0  501    0  0.00000000000E+00 -0.00000000000E+00 -0.42650818284E+03  0.42650818285E+03  0.25500000000E-02 0.  1.
   -5000001    1    1    2    0    0 -0.33743956028E+03  0.24151115864E+03  0.21363327095E+03  0.52946413575E+03  0.25000000000E+03 0.  0.
    5000001    1    1    2    0    0  0.33743956028E+03 -0.24151115864E+03 -0.50145774313E+02  0.48703972658E+03  0.25000000000E+03 0.  0.
<mgrwt>
<rscale>  0 0.10032706E+04</rscale>
<asrwt>0</asrwt>
<pdfrwt beam="1">  1        2 0.65616644E-01 0.10032706E+04</pdfrwt>
<pdfrwt beam="2">  1       -2 0.90768565E-01 0.10032706E+04</pdfrwt>
<totfact> 0.76521671E+01</totfact>
</mgrwt>
</event>
<event>
 4    1  0.1806019E-005  0.5418289E+03  0.7818608E-02  0.1003403E+00
          2   -1    0    0  501    0  0.00000000000E+00  0.00000000000E+00  0.25063059713E+04  0.25063059713E+04  0.25500000000E-02 0.  1.
         -2   -1    0    0    0  501 -0.00000000000E+00 -0.00000000000E+00 -0.29283987224E+02  0.29283987335E+02  0.25500000000E-02 0. -1.
   -5000001    1    1    2    0    0 -0.24293696302E+02  0.10130476459E+03  0.12082579137E+04  0.12382406976E+04  0.25000000000E+03 0.  0.
    5000001    1    1    2    0    0  0.24293696302E+02 -0.10130476459E+03  0.12687640703E+04  0.12973492611E+04  0.25000000000E+03 0.  0.
<mgrwt>
<rscale>  0 0.54182887E+03</rscale>
<asrwt>0</asrwt>
<pdfrwt beam="1">  1        2 0.38558540E+00 0.54182887E+03</pdfrwt>
<pdfrwt beam="2">  1       -2 0.45052304E-02 0.54182887E+03</pdfrwt>
<totfact> 0.88438599E+02</totfact>
</mgrwt>
</event>
<event>
 4    1  0.1806019E-005  0.5286801E+03  0.7818608E-02  0.1006553E+00
         -2   -1    0    0    0  501 -0.00000000000E+00  0.00000000000E+00  0.70862068800E+02  0.70862068845E+02  0.25500000000E-02 0. -1.
          2   -1    0    0  501    0  0.00000000000E+00 -0.00000000000E+00 -0.98607988584E+03  0.98607988585E+03  0.25500000000E-02 0.  1.
   -5000001    1    1    2    0    0  0.83590870152E+02  0.17831332105E+02 -0.44085000863E+03  0.51395925917E+03  0.25000000000E+03 0.  0.
    5000001    1    1    2    0    0 -0.83590870152E+02 -0.17831332105E+02 -0.47436780841E+03  0.54298269552E+03  0.25000000000E+03 0.  0.
<mgrwt>
<rscale>  0 0.52868010E+03</rscale>
<asrwt>0</asrwt>
<pdfrwt beam="1">  1        2 0.15170459E+00 0.52868010E+03</pdfrwt>
<pdfrwt beam="2">  1       -2 0.10901857E-01 0.52868010E+03</pdfrwt>
<totfact> 0.15434436E+03</totfact>
</mgrwt>
</event>
<event>
 4    1  0.1806019E-005  0.6760964E+03  0.7818608E-02  0.9759007E-01
         -2   -1    0    0    0  501 -0.00000000000E+00  0.00000000000E+00  0.57925766145E+02  0.57925766202E+02  0.25500000000E-02 0. -1.
          2   -1    0    0  501    0  0.00000000000E+00 -0.00000000000E+00 -0.19728108251E+04  0.19728108251E+04  0.25500000000E-02 0.  1.
   -5000001    1    1    2    0    0 -0.18231193260E+03 -0.39622316673E+02 -0.56617551680E+03  0.64642268260E+03  0.25000000000E+03 0.  0.
    5000001    1    1    2    0    0  0.18231193260E+03  0.39622316673E+02 -0.13487095422E+04  0.13843139087E+04  0.25000000000E+03 0.  0.
<mgrwt>
<rscale>  0 0.67609638E+03</rscale>
<asrwt>0</asrwt>
<pdfrwt beam="1">  1        2 0.30350931E+00 0.67609638E+03</pdfrwt>
<pdfrwt beam="2">  1       -2 0.89116579E-02 0.67609638E+03</pdfrwt>
<totfact> 0.58838231E+02</totfact>
</mgrwt>
</event>
<event>
 4    1  0.1806019E-005  0.9829920E+03  0.7818608E-02  0.9327398E-01
          2   -1    0    0  501    0  0.00000000000E+00  0.00000000000E+00  0.10489234495E+04  0.10489234495E+04  0.25500000000E-02 0.  1.
         -2   -1    0    0    0  501 -0.00000000000E+00 -0.00000000000E+00 -0.23030118304E+03  0.23030118305E+03  0.25500000000E-02 0. -1.
   -5000001    1    1    2    0    0  0.18885989569E+03  0.32737757680E+03  0.65699406392E+03  0.79811361222E+03  0.25000000000E+03 0.  0.
    5000001    1    1    2    0    0 -0.18885989569E+03 -0.32737757680E+03  0.16162820250E+03  0.48111102028E+03  0.25000000000E+03 0.  0.
<mgrwt>
<rscale>  0 0.98299199E+03</rscale>
<asrwt>0</asrwt>
<pdfrwt beam="1">  1        2 0.16137284E+00 0.98299199E+03</pdfrwt>
<pdfrwt beam="2">  1       -2 0.35430951E-01 0.98299199E+03</pdfrwt>
<totfact> 0.17508506E+02</totfact>
</mgrwt>
</event>
<event>
 4    1  0.1806019E-005  0.6708889E+03  0.7818608E-02  0.9768353E-01
         -2   -1    0    0    0  501 -0.00000000000E+00  0.00000000000E+00  0.39769395187E+03  0.39769395187E+03  0.25500000000E-02 0. -1.
          2   -1    0    0  501    0  0.00000000000E+00 -0.00000000000E+00 -0.28293859830E+03  0.28293859831E+03  0.25500000000E-02 0.  1.
   -5000001    1    1    2    0    0 -0.21820521800E+03 -0.48642351336E+02  0.50696148074E+02  0.33918976243E+03  0.25000000000E+03 0.  0.
    5000001    1    1    2    0    0  0.21820521800E+03  0.48642351336E+02  0.64059205491E+02  0.34144278776E+03  0.25000000000E+03 0.  0.
<mgrwt>
<rscale>  0 0.67088887E+03</rscale>
<asrwt>0</asrwt>
<pdfrwt beam="1">  1        2 0.43529015E-01 0.67088887E+03</pdfrwt>
<pdfrwt beam="2">  1       -2 0.61183685E-01 0.67088887E+03</pdfrwt>
<totfact> 0.29412604E+02</totfact>
</mgrwt>
</event>
<event>
 4    1  0.1806019E-005  0.5429236E+03  0.7818608E-02  0.1003145E+00
          2   -1    0    0  501    0  0.00000000000E+00  0.00000000000E+00  0.21031536148E+03  0.21031536150E+03  0.25500000000E-02 0.  1.
         -2   -1    0    0    0  501 -0.00000000000E+00 -0.00000000000E+00 -0.35038576523E+03  0.35038576524E+03  0.25500000000E-02 0. -1.
   -5000001    1    1    2    0    0 -0.79917211313E+02 -0.54339674716E+02 -0.25591819978E+02  0.26924803093E+03  0.25000000000E+03 0.  0.
    5000001    1    1    2    0    0  0.79917211313E+02  0.54339674716E+02 -0.11447858377E+03  0.29145309580E+03  0.25000000000E+03 0.  0.
<mgrwt>
<rscale>  0 0.54292360E+03</rscale>
<asrwt>0</asrwt>
<pdfrwt beam="1">  1        2 0.32356210E-01 0.54292360E+03</pdfrwt>
<pdfrwt beam="2">  1       -2 0.53905502E-01 0.54292360E+03</pdfrwt>
<totfact> 0.53386891E+02</totfact>
</mgrwt>
</event>
<event>
 4    1  0.1806019E-005  0.7471633E+03  0.7818608E-02  0.9639811E-01
         -2   -1    0    0    0  501 -0.00000000000E+00  0.00000000000E+00  0.16373763971E+03  0.16373763973E+03  0.25500000000E-02 0. -1.
          2   -1    0    0  501    0  0.00000000000E+00 -0.00000000000E+00 -0.85235894921E+03  0.85235894921E+03  0.25500000000E-02 0.  1.
   -5000001    1    1    2    0    0  0.19374454997E+03  0.13731636714E+03 -0.53983238823E+03  0.64055580765E+03  0.25000000000E+03 0.  0.
    5000001    1    1    2    0    0 -0.19374454997E+03 -0.13731636714E+03 -0.14878892126E+03  0.37554078130E+03  0.25000000000E+03 0.  0.
<mgrwt>
<rscale>  0 0.74716328E+03</rscale>
<asrwt>0</asrwt>
<pdfrwt beam="1">  1        2 0.13113214E+00 0.74716328E+03</pdfrwt>
<pdfrwt beam="2">  1       -2 0.25190407E-01 0.74716328E+03</pdfrwt>
<totfact> 0.44947605E+02</totfact>
</mgrwt>
</event>
<event>
 4    1  0.1806019E-005  0.8813233E+03  0.7818608E-02  0.9449234E-01
         -2   -1    0    0    0  501 -0.00000000000E+00  0.00000000000E+00  0.37830130714E+03  0.37830130715E+03  0.25500000000E-02 0. -1.
          2   -1    0    0  501    0  0.00000000000E+00 -0.00000000000E+00 -0.51330165012E+03  0.51330165013E+03  0.25500000000E-02 0.  1.
   -5000001    1    1    2    0    0 -0.69280615861E+01 -0.32493394707E+03 -0.23079105268E+03  0.47052585263E+03  0.25000000000E+03 0.  0.
    5000001    1    1    2    0    0  0.69280615861E+01  0.32493394707E+03  0.95790709690E+02  0.42107710465E+03  0.25000000000E+03 0.  0.
<mgrwt>
<rscale>  0 0.88132329E+03</rscale>
<asrwt>0</asrwt>
<pdfrwt beam="1">  1        2 0.78969485E-01 0.88132329E+03</pdfrwt>
<pdfrwt beam="2">  1       -2 0.58200201E-01 0.88132329E+03</pdfrwt>
<totfact> 0.16570256E+02</totfact>
</mgrwt>
</event>
<event>
 4    1  0.1806019E-005  0.6432684E+03  0.7818608E-02  0.9819493E-01
         -2   -1    0    0    0  501 -0.00000000000E+00  0.00000000000E+00  0.74560540557E+03  0.74560540558E+03  0.25500000000E-02 0. -1.
          2   -1    0    0  501    0  0.00000000000E+00 -0.00000000000E+00 -0.13874437122E+03  0.13874437124E+03  0.25500000000E-02 0.  1.
   -5000001    1    1    2    0    0 -0.80091459082E+02  0.16654995013E+03  0.41675595592E+03  0.51994139526E+03  0.25000000000E+03 0.  0.
    5000001    1    1    2    0    0  0.80091459082E+02 -0.16654995013E+03  0.19010507844E+03  0.36440838157E+03  0.25000000000E+03 0.  0.
<mgrwt>
<rscale>  0 0.64326838E+03</rscale>
<asrwt>0</asrwt>
<pdfrwt beam="1">  1        2 0.21345288E-01 0.64326838E+03</pdfrwt>
<pdfrwt beam="2">  1       -2 0.11470852E+00 0.64326838E+03</pdfrwt>
<totfact> 0.15811565E+02</totfact>
</mgrwt>
</event>
<event>
 4    1  0.1806019E-005  0.5410598E+03  0.7818608E-02  0.1003585E+00
          2   -1    0    0  501    0  0.00000000000E+00  0.00000000000E+00  0.40443929269E+03  0.40443929270E+03  0.25500000000E-02 0.  1.
         -2   -1    0    0    0  501 -0.00000000000E+00 -0.00000000000E+00 -0.18095774844E+03  0.18095774846E+03  0.25500000000E-02 0. -1.
   -5000001    1    1    2    0    0  0.59707554784E+02  0.63181311007E+02  0.17226739791E+03  0.31580520347E+03  0.25000000000E+03 0.  0.
    5000001    1    1    2    0    0 -0.59707554784E+02 -0.63181311007E+02  0.51214146346E+02  0.26959183768E+03  0.25000000000E+03 0.  0.
<mgrwt>
<rscale>  0 0.54105979E+03</rscale>
<asrwt>0</asrwt>
<pdfrwt beam="1">  1        2 0.62221430E-01 0.54105979E+03</pdfrwt>
<pdfrwt beam="2">  1       -2 0.27839654E-01 0.54105979E+03</pdfrwt>
<totfact> 0.92761318E+02</totfact>
</mgrwt>
</event>
<event>
 4    1  0.1806019E-005  0.9626341E+03  0.7818608E-02  0.9350504E-01
          2   -1    0    0  501    0  0.00000000000E+00  0.00000000000E+00  0.51632924910E+03  0.51632924911E+03  0.25500000000E-02 0.  1.
         -2   -1    0    0    0  501 -0.00000000000E+00 -0.00000000000E+00 -0.44867898593E+03  0.44867898593E+03  0.25500000000E-02 0. -1.
   -5000001    1    1    2    0    0 -0.11880572770E+03  0.39303698380E+03  0.98242300254E+01  0.48082157509E+03  0.25000000000E+03 0.  0.
    5000001    1    1    2    0    0  0.11880572770E+03 -0.39303698380E+03  0.57826033150E+02  0.48418665996E+03  0.25000000000E+03 0.  0.
<mgrwt>
<rscale>  0 0.96263406E+03</rscale>
<asrwt>0</asrwt>
<pdfrwt beam="1">  1        2 0.79435269E-01 0.96263406E+03</pdfrwt>
<pdfrwt beam="2">  1       -2 0.69027536E-01 0.96263406E+03</pdfrwt>
<totfact> 0.11379686E+02</totfact>
</mgrwt>
</event>
<event>
 4    1  0.1806019E-005  0.5539322E+03  0.7818608E-02  0.1000588E+00
         -2   -1    0    0    0  501 -0.00000000000E+00  0.00000000000E+00  0.37688555794E+02  0.37688555880E+02  0.25500000000E-02 0. -1.
          2   -1    0    0  501    0  0.00000000000E+00 -0.00000000000E+00 -0.20353719469E+04  0.20353719469E+04  0.25500000000E-02 0.  1.
   -5000001    1    1    2    0    0 -0.73354942716E+02 -0.91508336969E+02 -0.91896826221E+03  0.95956104043E+03  0.25000000000E+03 0.  0.
    5000001    1    1    2    0    0  0.73354942716E+02  0.91508336969E+02 -0.10787151289E+04  0.11134994624E+04  0.25000000000E+03 0.  0.
<mgrwt>
<rscale>  0 0.55393223E+03</rscale>
<asrwt>0</asrwt>
<pdfrwt beam="1">  1        2 0.31313406E+00 0.55393223E+03</pdfrwt>
<pdfrwt beam="2">  1       -2 0.57982410E-02 0.55393223E+03</pdfrwt>
<totfact> 0.10841909E+03</totfact>
</mgrwt>
</event>
<event>
 4    1  0.1806019E-005  0.1282261E+04  0.7818608E-02  0.9043752E-01
         -2   -1    0    0    0  501 -0.00000000000E+00  0.00000000000E+00  0.25785164935E+03  0.25785164936E+03  0.25500000000E-02 0. -1.
          2   -1    0    0  501    0  0.00000000000E+00 -0.00000000000E+00 -0.15941263987E+04  0.15941263987E+04  0.25500000000E-02 0.  1.
   -5000001    1    1    2    0    0  0.22153066834E+03  0.43897137268E+03 -0.19618608276E+03  0.58545766893E+03  0.25000000000E+03 0.  0.
    5000001    1    1    2    0    0 -0.22153066834E+03 -0.43897137268E+03 -0.11400886665E+04  0.12665203791E+04  0.25000000000E+03 0.  0.
<mgrwt>
<rscale>  0 0.12822607E+04</rscale>
<asrwt>0</asrwt>
<pdfrwt beam="1">  1        2 0.24525021E+00 0.12822607E+04</pdfrwt>
<pdfrwt beam="2">  1       -2 0.39669485E-01 0.12822607E+04</pdfrwt>
<totfact> 0.66264459E+01</totfact>
</mgrwt>
</event>
<event>
 4    1  0.1806019E-005  0.9273520E+03  0.7818608E-02  0.9392021E-01
          2   -1    0    0  501    0  0.00000000000E+00  0.00000000000E+00  0.12032899908E+04  0.12032899908E+04  0.25500000000E-02 0.  1.
         -2   -1    0    0    0  501 -0.00000000000E+00 -0.00000000000E+00 -0.17867301131E+03  0.17867301133E+03  0.25500000000E-02 0. -1.
   -5000001    1    1    2    0    0 -0.28649239888E+03 -0.26018045870E+03  0.59008167137E+03  0.74864420427E+03  0.25000000000E+03 0.  0.
    5000001    1    1    2    0    0  0.28649239888E+03  0.26018045870E+03  0.43453530809E+03  0.63331879783E+03  0.25000000000E+03 0.  0.
<mgrwt>
<rscale>  0 0.92735203E+03</rscale>
<asrwt>0</asrwt>
<pdfrwt beam="1">  1        2 0.18512153E+00 0.92735203E+03</pdfrwt>
<pdfrwt beam="2">  1       -2 0.27488156E-01 0.92735203E+03</pdfrwt>
<totfact> 0.22741902E+02</totfact>
</mgrwt>
</event>
<event>
 4    1  0.1806019E-005  0.7463038E+03  0.7818608E-02  0.9641167E-01
          2   -1    0    0  501    0  0.00000000000E+00  0.00000000000E+00  0.66850163957E+03  0.66850163958E+03  0.25500000000E-02 0.  1.
         -2   -1    0    0    0  501 -0.00000000000E+00 -0.00000000000E+00 -0.20829020333E+03  0.20829020335E+03  0.25500000000E-02 0. -1.
   -5000001    1    1    2    0    0  0.17329029341E+03 -0.18908773133E+03  0.35309274529E+03  0.50294948326E+03  0.25000000000E+03 0.  0.
    5000001    1    1    2    0    0 -0.17329029341E+03  0.18908773133E+03  0.10711869095E+03  0.37384235967E+03  0.25000000000E+03 0.  0.
<mgrwt>
<rscale>  0 0.74630381E+03</rscale>
<asrwt>0</asrwt>
<pdfrwt beam="1">  1        2 0.10284641E+00 0.74630381E+03</pdfrwt>
<pdfrwt beam="2">  1       -2 0.32044646E-01 0.74630381E+03</pdfrwt>
<totfact> 0.39567695E+02</totfact>
</mgrwt>
</event>
<event>
 4    1  0.1806019E-005  0.7912619E+03  0.7818608E-02  0.9572752E-01
         -2   -1    0    0    0  501 -0.00000000000E+00  0.00000000000E+00  0.14149304858E+03  0.14149304860E+03  0.25500000000E-02 0. -1.
          2   -1    0    0  501    0  0.00000000000E+00 -0.00000000000E+00 -0.11062299412E+04  0.11062299412E+04  0.25500000000E-02 0.  1.
   -5000001    1    1    2    0    0 -0.25239968241E+03 -0.17274216171E+03 -0.51685820850E+03  0.65052890928E+03  0.25000000000E+03 0.  0.
    5000001    1    1    2    0    0  0.25239968241E+03  0.17274216171E+03 -0.44787868409E+03  0.59719408049E+03  0.25000000000E+03 0.  0.
<mgrwt>
<rscale>  0 0.79126190E+03</rscale>
<asrwt>0</asrwt>
<pdfrwt beam="1">  1        2 0.17018922E+00 0.79126190E+03</pdfrwt>
<pdfrwt beam="2">  1       -2 0.21768162E-01 0.79126190E+03</pdfrwt>
<totfact> 0.39897349E+02</totfact>
</mgrwt>
</event>
<event>
 4    1  0.1806019E-005  0.6975473E+03  0.7818608E-02  0.9721436E-01
         -2   -1    0    0    0  501 -0.00000000000E+00  0.00000000000E+00  0.15389589319E+03  0.15389589321E+03  0.25500000000E-02 0. -1.
          2   -1    0    0  501    0  0.00000000000E+00 -0.00000000000E+00 -0.79042436871E+03  0.79042436871E+03  0.25500000000E-02 0.  1.
   -5000001    1    1    2    0    0  0.21626824019E+03  0.26743219585E+02 -0.17210752043E+03  0.37364174031E+03  0.25000000000E+03 0.  0.
    5000001    1    1    2    0    0 -0.21626824019E+03 -0.26743219585E+02 -0.46442095508E+03  0.57067852161E+03  0.25000000000E+03 0.  0.
<mgrwt>
<rscale>  0 0.69754732E+03</rscale>
<asrwt>0</asrwt>
<pdfrwt beam="1">  1        2 0.12160375E+00 0.69754732E+03</pdfrwt>
<pdfrwt beam="2">  1       -2 0.23676292E-01 0.69754732E+03</pdfrwt>
<totfact> 0.55673721E+02</totfact>
</mgrwt>
</event>
<event>
 4    1  0.1806019E-005  0.1097712E+04  0.7818608E-02  0.9207425E-01
          2   -1    0    0  501    0  0.00000000000E+00  0.00000000000E+00  0.11429042830E+04  0.11429042830E+04  0.25500000000E-02 0.  1.
         -2   -1    0    0    0  501 -0.00000000000E+00 -0.00000000000E+00 -0.26357648687E+03  0.26357648688E+03  0.25500000000E-02 0. -1.
   -5000001    1    1    2    0    0  0.36001697054E+03 -0.29369682907E+02  0.18068954327E+02  0.43966041949E+03  0.25000000000E+03 0.  0.
    5000001    1    1    2    0    0 -0.36001697054E+03  0.29369682907E+02  0.86125884176E+03  0.96682035036E+03  0.25000000000E+03 0.  0.
<mgrwt>
<rscale>  0 0.10977116E+04</rscale>
<asrwt>0</asrwt>
<pdfrwt beam="1">  1        2 0.17583143E+00 0.10977116E+04</pdfrwt>
<pdfrwt beam="2">  1       -2 0.40550229E-01 0.10977116E+04</pdfrwt>
<totfact> 0.11714787E+02</totfact>
</mgrwt>
</event>
<event>
 4    1  0.1806019E-005  0.1070474E+04  0.7818608E-02  0.9234458E-01
          2   -1    0    0  501    0  0.00000000000E+00  0.00000000000E+00  0.43308569428E+04  0.43308569428E+04  0.25500000000E-02 0.  1.
         -2   -1    0    0    0  501 -0.00000000000E+00 -0.00000000000E+00 -0.66148202956E+02  0.66148203005E+02  0.25500000000E-02 0. -1.
   -5000001    1    1    2    0    0  0.43906168738E+03 -0.16377268605E+03  0.24042515098E+04  0.24622189139E+04  0.25000000000E+03 0.  0.
    5000001    1    1    2    0    0 -0.43906168738E+03  0.16377268605E+03  0.18604572301E+04  0.19347862319E+04  0.25000000000E+03 0.  0.
<mgrwt>
<rscale>  0 0.10704735E+04</rscale>
<asrwt>0</asrwt>
<pdfrwt beam="1">  1        2 0.66628569E+00 0.10704735E+04</pdfrwt>
<pdfrwt beam="2">  1       -2 0.10176647E-01 0.10704735E+04</pdfrwt>
<totfact> 0.12600970E+01</totfact>
</mgrwt>
</event>
<event>
 4    1  0.1806019E-005  0.1090213E+04  0.7818608E-02  0.9214784E-01
          2   -1    0    0  501    0  0.00000000000E+00  0.00000000000E+00  0.44475106373E+03  0.44475106374E+03  0.25500000000E-02 0.  1.
         -2   -1    0    0    0  501 -0.00000000000E+00 -0.00000000000E+00 -0.66810624444E+03  0.66810624445E+03  0.25500000000E-02 0. -1.
   -5000001    1    1    2    0    0 -0.34689341287E+03  0.68331548175E+02  0.22631427306E+03  0.48859225389E+03  0.25000000000E+03 0.  0.
    5000001    1    1    2    0    0  0.34689341287E+03 -0.68331548175E+02 -0.44966945377E+03  0.62426505430E+03  0.25000000000E+03 0.  0.
<mgrwt>
<rscale>  0 0.10902128E+04</rscale>
<asrwt>0</asrwt>
<pdfrwt beam="1">  1        2 0.68423240E-01 0.10902128E+04</pdfrwt>
<pdfrwt beam="2">  1       -2 0.10278558E+00 0.10902128E+04</pdfrwt>
<totfact> 0.54183014E+01</totfact>
</mgrwt>
</event>
<event>
 4    1  0.1806019E-005  0.1058961E+04  0.7818608E-02  0.9246141E-01
         -2   -1    0    0    0  501 -0.00000000000E+00  0.00000000000E+00  0.34784776572E+03  0.34784776573E+03  0.25500000000E-02 0. -1.
          2   -1    0    0  501    0  0.00000000000E+00 -0.00000000000E+00 -0.80595515977E+03  0.80595515977E+03  0.25500000000E-02 0.  1.
   -5000001    1    1    2    0    0  0.46293698483E+03 -0.10908088432E+02 -0.29277265464E+03  0.60220051944E+03  0.25000000000E+03 0.  0.
    5000001    1    1    2    0    0 -0.46293698483E+03  0.10908088432E+02 -0.16533473941E+03  0.55160240606E+03  0.25000000000E+03 0.  0.
<mgrwt>
<rscale>  0 0.10589612E+04</rscale>
<asrwt>0</asrwt>
<pdfrwt beam="1">  1        2 0.12399310E+00 0.10589612E+04</pdfrwt>
<pdfrwt beam="2">  1       -2 0.53515041E-01 0.10589612E+04</pdfrwt>
<totfact> 0.11171568E+02</totfact>
</mgrwt>
</event>
<event>
 4    1  0.1806019E-005  0.8835721E+03  0.7818608E-02  0.9446353E-01
         -2   -1    0    0    0  501 -0.00000000000E+00  0.00000000000E+00  0.99195642991E+02  0.99195643024E+02  0.25500000000E-02 0. -1.
          2   -1    0    0  501    0  0.00000000000E+00 -0.00000000000E+00 -0.19675755797E+04  0.19675755797E+04  0.25500000000E-02 0.  1.
   -5000001    1    1    2    0    0 -0.33279024534E+03  0.12710560294E+03 -0.75651402163E+03  0.87276494350E+03  0.25000000000E+03 0.  0.
    5000001    1    1    2    0    0  0.33279024534E+03 -0.12710560294E+03 -0.11118659150E+04  0.11940062792E+04  0.25000000000E+03 0.  0.
<mgrwt>
<rscale>  0 0.88357212E+03</rscale>
<asrwt>0</asrwt>
<pdfrwt beam="1">  1        2 0.30270391E+00 0.88357212E+03</pdfrwt>
<pdfrwt beam="2">  1       -2 0.15260870E-01 0.88357212E+03</pdfrwt>
<totfact> 0.23991884E+02</totfact>
</mgrwt>
</event>
<event>
 4    1  0.1806019E-005  0.5964286E+03  0.7818608E-02  0.9912843E-01
          2   -1    0    0  501    0  0.00000000000E+00  0.00000000000E+00  0.10461276503E+04  0.10461276503E+04  0.25500000000E-02 0.  1.
         -2   -1    0    0    0  501 -0.00000000000E+00 -0.00000000000E+00 -0.85010425591E+02  0.85010425629E+02  0.25500000000E-02 0. -1.
   -5000001    1    1    2    0    0 -0.91717657003E+02  0.12592434297E+03  0.39236154804E+03  0.49062883439E+03  0.25000000000E+03 0.  0.
    5000001    1    1    2    0    0  0.91717657003E+02 -0.12592434297E+03  0.56875567670E+03  0.64050924157E+03  0.25000000000E+03 0.  0.
<mgrwt>
<rscale>  0 0.59642856E+03</rscale>
<asrwt>0</asrwt>
<pdfrwt beam="1">  1        2 0.16094272E+00 0.59642856E+03</pdfrwt>
<pdfrwt beam="2">  1       -2 0.13078527E-01 0.59642856E+03</pdfrwt>
<totfact> 0.10475929E+03</totfact>
</mgrwt>
</event>
<event>
 4    1  0.1806019E-005  0.5897059E+03  0.7818608E-02  0.9926996E-01
         -2   -1    0    0    0  501 -0.00000000000E+00  0.00000000000E+00  0.15854507039E+03  0.15854507041E+03  0.25500000000E-02 0.  1.
          2   -1    0    0  501    0  0.00000000000E+00 -0.00000000000E+00 -0.54835038416E+03  0.54835038416E+03  0.25500000000E-02 0. -1.
   -5000001    1    1    2    0    0  0.45368824024E+01  0.15524835100E+03 -0.17360658143E+03  0.34170437355E+03  0.25000000000E+03 0.  0.
    5000001    1    1    2    0    0 -0.45368824024E+01 -0.15524835100E+03 -0.21619873234E+03  0.36519108102E+03  0.25000000000E+03 0.  0.
<mgrwt>
<rscale>  0 0.58970586E+03</rscale>
<asrwt>0</asrwt>
<pdfrwt beam="1">  1        2 0.84361597E-01 0.58970586E+03</pdfrwt>
<pdfrwt beam="2">  1       -2 0.24391550E-01 0.58970586E+03</pdfrwt>
<totfact> 0.83170812E+02</totfact>
</mgrwt>
</event>
<event>
 4    1  0.1806019E-005  0.9521308E+03  0.7818608E-02  0.9362663E-01
         -2   -1    0    0    0  501 -0.00000000000E+00  0.00000000000E+00  0.12155410779E+03  0.12155410781E+03  0.25500000000E-02 0. -1.
          2   -1    0    0  501    0  0.00000000000E+00 -0.00000000000E+00 -0.18645052358E+04  0.18645052358E+04  0.25500000000E-02 0.  1.
   -5000001    1    1    2    0    0 -0.38134727901E+03  0.18459076849E+02 -0.11542051696E+04  0.12411511021E+04  0.25000000000E+03 0.  0.
    5000001    1    1    2    0    0  0.38134727901E+03 -0.18459076849E+02 -0.58874595841E+03  0.74490824151E+03  0.25000000000E+03 0.  0.
<mgrwt>
<rscale>  0 0.95213081E+03</rscale>
<asrwt>0</asrwt>
<pdfrwt beam="1">  1        2 0.28684694E+00 0.95213081E+03</pdfrwt>
<pdfrwt beam="2">  1       -2 0.18700633E-01 0.95213081E+03</pdfrwt>
<totfact> 0.19173431E+02</totfact>
</mgrwt>
</event>
<event>
 4    1  0.1806019E-005  0.9195214E+03  0.7818608E-02  0.9401502E-01
          2   -1    0    0  501    0  0.00000000000E+00  0.00000000000E+00  0.10715831081E+04  0.10715831081E+04  0.25500000000E-02 0.  1.
         -2   -1    0    0    0  501 -0.00000000000E+00 -0.00000000000E+00 -0.19725947499E+03  0.19725947501E+03  0.25500000000E-02 0. -1.
   -5000001    1    1    2    0    0 -0.91982324788E+02  0.27437196625E+03  0.84979873404E+02  0.39174264871E+03  0.25000000000E+03 0.  0.
    5000001    1    1    2    0    0  0.91982324788E+02 -0.27437196625E+03  0.78934375967E+03  0.87709993436E+03  0.25000000000E+03 0.  0.
<mgrwt>
<rscale>  0 0.91952144E+03</rscale>
<asrwt>0</asrwt>
<pdfrwt beam="1">  1        2 0.16485893E+00 0.91952144E+03</pdfrwt>
<pdfrwt beam="2">  1       -2 0.30347613E-01 0.91952144E+03</pdfrwt>
<totfact> 0.22780312E+02</totfact>
</mgrwt>
</event>
<event>
 4    1  0.1806019E-005  0.6272320E+03  0.7818608E-02  0.9850465E-01
         -2   -1    0    0    0  501 -0.00000000000E+00  0.00000000000E+00  0.99693949392E+02  0.99693949424E+02  0.25500000000E-02 0.  1.
          2   -1    0    0  501    0  0.00000000000E+00 -0.00000000000E+00 -0.98656950479E+03  0.98656950479E+03  0.25500000000E-02 0. -1.
   -5000001    1    1    2    0    0 -0.18241627439E+03  0.48512972838E+02 -0.41741382104E+03  0.52188456932E+03  0.25000000000E+03 0.  0.
    5000001    1    1    2    0    0  0.18241627439E+03 -0.48512972838E+02 -0.46946173435E+03  0.56437888490E+03  0.25000000000E+03 0.  0.
<mgrwt>
<rscale>  0 0.62723205E+03</rscale>
<asrwt>0</asrwt>
<pdfrwt beam="1">  1        2 0.15177992E+00 0.62723205E+03</pdfrwt>
<pdfrwt beam="2">  1       -2 0.15337531E-01 0.62723205E+03</pdfrwt>
<totfact> 0.87362688E+02</totfact>
</mgrwt>
</event>
<event>
 4    1  0.1806019E-005  0.1078072E+04  0.7818608E-02  0.9226832E-01
         -2   -1    0    0    0  501 -0.00000000000E+00  0.00000000000E+00  0.73619959081E+03  0.73619959081E+03  0.25500000000E-02 0. -1.
          2   -1    0    0  501    0  0.00000000000E+00 -0.00000000000E+00 -0.39467532409E+03  0.39467532410E+03  0.25500000000E-02 0.  1.
   -5000001    1    1    2    0    0  0.41993217610E+03 -0.11859728888E+03  0.37430586295E+03  0.62690767143E+03  0.25000000000E+03 0.  0.
    5000001    1    1    2    0    0 -0.41993217610E+03  0.11859728888E+03 -0.32781596236E+02  0.50396724348E+03  0.25000000000E+03 0.  0.
<mgrwt>
<rscale>  0 0.10780720E+04</rscale>
<asrwt>0</asrwt>
<pdfrwt beam="1">  1        2 0.60719281E-01 0.10780720E+04</pdfrwt>
<pdfrwt beam="2">  1       -2 0.11326147E+00 0.10780720E+04</pdfrwt>
<totfact> 0.49108318E+01</totfact>
</mgrwt>
</event>
<event>
 4    1  0.1806019E-005  0.7116730E+03  0.7818608E-02  0.9697475E-01
         -2   -1    0    0    0  501 -0.00000000000E+00  0.00000000000E+00  0.52210738924E+03  0.52210738925E+03  0.25500000000E-02 0. -1.
          2   -1    0    0  501    0  0.00000000000E+00 -0.00000000000E+00 -0.24251645291E+03  0.24251645292E+03  0.25500000000E-02 0.  1.
   -5000001    1    1    2    0    0 -0.22441066561E+02  0.24771954754E+03  0.88820084503E+02  0.36367235682E+03  0.25000000000E+03 0.  0.
    5000001    1    1    2    0    0  0.22441066561E+02 -0.24771954754E+03  0.19077085183E+03  0.40095148536E+03  0.25000000000E+03 0.  0.
<mgrwt>
<rscale>  0 0.71167305E+03</rscale>
<asrwt>0</asrwt>
<pdfrwt beam="1">  1        2 0.37310224E-01 0.71167305E+03</pdfrwt>
<pdfrwt beam="2">  1       -2 0.80324213E-01 0.71167305E+03</pdfrwt>
<totfact> 0.19257563E+02</totfact>
</mgrwt>
</event>
<event>
 4    1  0.1806019E-005  0.6805131E+03  0.7818608E-02  0.9751150E-01
         -2   -1    0    0    0  501 -0.00000000000E+00  0.00000000000E+00  0.15143270094E+03  0.15143270096E+03  0.25500000000E-02 0. -1.
          2   -1    0    0  501    0  0.00000000000E+00 -0.00000000000E+00 -0.76452780308E+03  0.76452780308E+03  0.25500000000E-02 0.  1.
   -5000001    1    1    2    0    0  0.74269749408E+02  0.12924734261E+03 -0.69357469138E+02  0.29921786339E+03  0.25000000000E+03 0.  0.
    5000001    1    1    2    0    0 -0.74269749408E+02 -0.12924734261E+03 -0.54373763301E+03  0.61674264065E+03  0.25000000000E+03 0.  0.
<mgrwt>
<rscale>  0 0.68051307E+03</rscale>
<asrwt>0</asrwt>
<pdfrwt beam="1">  1        2 0.11761966E+00 0.68051307E+03</pdfrwt>
<pdfrwt beam="2">  1       -2 0.23297339E-01 0.68051307E+03</pdfrwt>
<totfact> 0.59881586E+02</totfact>
</mgrwt>
</event>
<event>
 4    1  0.1806019E-005  0.6468623E+03  0.7818608E-02  0.9812685E-01
         -2   -1    0    0    0  501 -0.00000000000E+00  0.00000000000E+00  0.52121619918E+03  0.52121619918E+03  0.25500000000E-02 0. -1.
          2   -1    0    0  501    0  0.00000000000E+00 -0.00000000000E+00 -0.20069928159E+03  0.20069928161E+03  0.25500000000E-02 0.  1.
   -5000001    1    1    2    0    0 -0.25506195914E+02 -0.96193916387E+02 -0.40017401289E+02  0.27203901923E+03  0.25000000000E+03 0.  0.
    5000001    1    1    2    0    0  0.25506195914E+02  0.96193916387E+02  0.36053431887E+03  0.44987646156E+03  0.25000000000E+03 0.  0.
<mgrwt>
<rscale>  0 0.64686232E+03</rscale>
<asrwt>0</asrwt>
<pdfrwt beam="1">  1        2 0.30876812E-01 0.64686232E+03</pdfrwt>
<pdfrwt beam="2">  1       -2 0.80187108E-01 0.64686232E+03</pdfrwt>
<totfact> 0.23940583E+02</totfact>
</mgrwt>
</event>
<event>
 4    1  0.1806019E-005  0.1115621E+04  0.7818608E-02  0.9190099E-01
          2   -1    0    0  501    0  0.00000000000E+00  0.00000000000E+00  0.54111347778E+03  0.54111347778E+03  0.25500000000E-02 0.  1.
         -2   -1    0    0    0  501 -0.00000000000E+00 -0.00000000000E+00 -0.57502267494E+03  0.57502267494E+03  0.25500000000E-02 0. -1.
   -5000001    1    1    2    0    0  0.30408273082E+03  0.37357771188E+03 -0.14595562687E+03  0.56198724097E+03  0.25000000000E+03 0.  0.
    5000001    1    1    2    0    0 -0.30408273082E+03 -0.37357771188E+03  0.11204642971E+03  0.55414891176E+03  0.25000000000E+03 0.  0.
<mgrwt>
<rscale>  0 0.11156209E+04</rscale>
<asrwt>0</asrwt>
<pdfrwt beam="1">  1        2 0.83248228E-01 0.11156209E+04</pdfrwt>
<pdfrwt beam="2">  1       -2 0.88465026E-01 0.11156209E+04</pdfrwt>
<totfact> 0.61246086E+01</totfact>
</mgrwt>
</event>
<event>
 4    1  0.1806019E-005  0.8558208E+03  0.7818608E-02  0.9482558E-01
          2   -1    0    0  501    0  0.00000000000E+00  0.00000000000E+00  0.36105991990E+03  0.36105991991E+03  0.25500000000E-02 0.  1.
         -2   -1    0    0    0  501 -0.00000000000E+00 -0.00000000000E+00 -0.50713823829E+03  0.50713823830E+03  0.25500000000E-02 0. -1.
   -5000001    1    1    2    0    0  0.29950186416E+02  0.27955303055E+03  0.13377287477E+03  0.39930200673E+03  0.25000000000E+03 0.  0.
    5000001    1    1    2    0    0 -0.29950186416E+02 -0.27955303055E+03 -0.27985119316E+03  0.46889615147E+03  0.25000000000E+03 0.  0.
<mgrwt>
<rscale>  0 0.85582076E+03</rscale>
<asrwt>0</asrwt>
<pdfrwt beam="1">  1        2 0.55547680E-01 0.85582076E+03</pdfrwt>
<pdfrwt beam="2">  1       -2 0.78021268E-01 0.85582076E+03</pdfrwt>
<totfact> 0.13124186E+02</totfact>
</mgrwt>
</event>
<event>
 4    1  0.1806019E-005  0.7249928E+03  0.7818608E-02  0.9675421E-01
          2   -1    0    0  501    0  0.00000000000E+00  0.00000000000E+00  0.79990805522E+03  0.79990805522E+03  0.25500000000E-02 0.  1.
         -2   -1    0    0    0  501 -0.00000000000E+00 -0.00000000000E+00 -0.16427343381E+03  0.16427343383E+03  0.25500000000E-02 0. -1.
   -5000001    1    1    2    0    0  0.15562261693E+03  0.15118454638E+03  0.12132895931E+03  0.35255621159E+03  0.25000000000E+03 0.  0.
    5000001    1    1    2    0    0 -0.15562261693E+03 -0.15118454638E+03  0.51430566210E+03  0.61162527746E+03  0.25000000000E+03 0.  0.
<mgrwt>
<rscale>  0 0.72499281E+03</rscale>
<asrwt>0</asrwt>
<pdfrwt beam="1">  1        2 0.12306278E+00 0.72499281E+03</pdfrwt>
<pdfrwt beam="2">  1       -2 0.25272836E-01 0.72499281E+03</pdfrwt>
<totfact> 0.48696588E+02</totfact>
</mgrwt>
</event>
<event>
 4    1  0.1806019E-005  0.1205739E+04  0.7818608E-02  0.9107848E-01
          2   -1    0    0  501    0  0.00000000000E+00  0.00000000000E+00  0.83150777394E+03  0.83150777394E+03  0.25500000000E-02 0.  1.
         -2   -1    0    0    0  501 -0.00000000000E+00 -0.00000000000E+00 -0.43709951888E+03  0.43709951889E+03  0.25500000000E-02 0. -1.
   -5000001    1    1    2    0    0  0.49127965087E+03  0.22572169070E+03  0.29503439429E+03  0.66471894122E+03  0.25000000000E+03 0.  0.
    5000001    1    1    2    0    0 -0.49127965087E+03 -0.22572169070E+03  0.99373860764E+02  0.60388835161E+03  0.25000000000E+03 0.  0.
<mgrwt>
<rscale>  0 0.12057390E+04</rscale>
<asrwt>0</asrwt>
<pdfrwt beam="1">  1        2 0.12792427E+00 0.12057390E+04</pdfrwt>
<pdfrwt beam="2">  1       -2 0.67246080E-01 0.12057390E+04</pdfrwt>
<totfact> 0.65466531E+01</totfact>
</mgrwt>
</event>
<event>
 4    1  0.1806019E-005  0.8677014E+03  0.7818608E-02  0.9466882E-01
          2   -1    0    0  501    0  0.00000000000E+00  0.00000000000E+00  0.20179573573E+04  0.20179573573E+04  0.25500000000E-02 0.  1.
         -2   -1    0    0    0  501 -0.00000000000E+00 -0.00000000000E+00 -0.93275731805E+02  0.93275731840E+02  0.25500000000E-02 0. -1.
   -5000001    1    1    2    0    0 -0.20685279984E+03 -0.27232305898E+03  0.11903101915E+04  0.12634422350E+04  0.25000000000E+03 0.  0.
    5000001    1    1    2    0    0  0.20685279984E+03  0.27232305898E+03  0.73437143401E+03  0.84779085413E+03  0.25000000000E+03 0.  0.
<mgrwt>
<rscale>  0 0.86770144E+03</rscale>
<asrwt>0</asrwt>
<pdfrwt beam="1">  1        2 0.31045496E+00 0.86770144E+03</pdfrwt>
<pdfrwt beam="2">  1       -2 0.14350113E-01 0.86770144E+03</pdfrwt>
<totfact> 0.25014421E+02</totfact>
</mgrwt>
</event>
<event>
 4    1  0.1806019E-005  0.9962700E+03  0.7818608E-02  0.9312645E-01
         -2   -1    0    0    0  501 -0.00000000000E+00  0.00000000000E+00  0.91190568213E+02  0.91190568249E+02  0.25500000000E-02 0. -1.
          2   -1    0    0  501    0  0.00000000000E+00 -0.00000000000E+00 -0.27210978680E+04  0.27210978680E+04  0.25500000000E-02 0.  1.
   -5000001    1    1    2    0    0 -0.15018962336E+03  0.39982478987E+03 -0.14751762236E+04  0.15559761168E+04  0.25000000000E+03 0.  0.
    5000001    1    1    2    0    0  0.15018962336E+03 -0.39982478987E+03 -0.11547310762E+04  0.12563123194E+04  0.25000000000E+03 0.  0.
<mgrwt>
<rscale>  0 0.99626997E+03</rscale>
<asrwt>0</asrwt>
<pdfrwt beam="1">  1        2 0.41863038E+00 0.99626997E+03</pdfrwt>
<pdfrwt beam="2">  1       -2 0.14029320E-01 0.99626997E+03</pdfrwt>
<totfact> 0.10305458E+02</totfact>
</mgrwt>
</event>
<event>
 4    1  0.1806019E-005  0.6187177E+03  0.7818608E-02  0.9867316E-01
         -2   -1    0    0    0  501 -0.00000000000E+00  0.00000000000E+00  0.12265155343E+03  0.12265155345E+03  0.25500000000E-02 0. -1.
          2   -1    0    0  501    0  0.00000000000E+00 -0.00000000000E+00 -0.78028286589E+03  0.78028286589E+03  0.25500000000E-02 0.  1.
   -5000001    1    1    2    0    0 -0.52279477275E+02  0.15500656707E+03 -0.21167747315E+03  0.36615233472E+03  0.25000000000E+03 0.  0.
    5000001    1    1    2    0    0  0.52279477275E+02 -0.15500656707E+03 -0.44595383931E+03  0.53678208463E+03  0.25000000000E+03 0.  0.
<mgrwt>
<rscale>  0 0.61871772E+03</rscale>
<asrwt>0</asrwt>
<pdfrwt beam="1">  1        2 0.12004352E+00 0.61871772E+03</pdfrwt>
<pdfrwt beam="2">  1       -2 0.18869470E-01 0.61871772E+03</pdfrwt>
<totfact> 0.84587331E+02</totfact>
</mgrwt>
</event>
<event>
 4    1  0.1806019E-005  0.8760584E+03  0.7818608E-02  0.9456015E-01
          2   -1    0    0  501    0  0.00000000000E+00  0.00000000000E+00  0.10568342916E+04  0.10568342916E+04  0.25500000000E-02 0.  1.
         -2   -1    0    0    0  501 -0.00000000000E+00 -0.00000000000E+00 -0.18155124999E+03  0.18155125001E+03  0.25500000000E-02 0. -1.
   -5000001    1    1    2    0    0 -0.29259989407E+03 -0.60881558615E+02  0.15475322275E+03  0.41924911705E+03  0.25000000000E+03 0.  0.
    5000001    1    1    2    0    0  0.29259989407E+03  0.60881558615E+02  0.72052981883E+03  0.81913642455E+03  0.25000000000E+03 0.  0.
<mgrwt>
<rscale>  0 0.87605842E+03</rscale>
<asrwt>0</asrwt>
<pdfrwt beam="1">  1        2 0.16258989E+00 0.87605842E+03</pdfrwt>
<pdfrwt beam="2">  1       -2 0.27930961E-01 0.87605842E+03</pdfrwt>
<totfact> 0.27191875E+02</totfact>
</mgrwt>
</event>
<event>
 4    1  0.1806019E-005  0.7680049E+03  0.7818608E-02  0.9607519E-01
         -2   -1    0    0    0  501 -0.00000000000E+00  0.00000000000E+00  0.12499129783E+03  0.12499129786E+03  0.25500000000E-02 0. -1.
          2   -1    0    0  501    0  0.00000000000E+00 -0.00000000000E+00 -0.11797451738E+04  0.11797451738E+04  0.25500000000E-02 0.  1.
   -5000001    1    1    2    0    0  0.16694149664E+03 -0.15376976986E+03 -0.21669699751E+03  0.40121340226E+03  0.25000000000E+03 0.  0.
    5000001    1    1    2    0    0 -0.16694149664E+03  0.15376976986E+03 -0.83805687850E+03  0.90352306945E+03  0.25000000000E+03 0.  0.
<mgrwt>
<rscale>  0 0.76800490E+03</rscale>
<asrwt>0</asrwt>
<pdfrwt beam="1">  1        2 0.18149925E+00 0.76800490E+03</pdfrwt>
<pdfrwt beam="2">  1       -2 0.19229431E-01 0.76800490E+03</pdfrwt>
<totfact> 0.44837940E+02</totfact>
</mgrwt>
</event>
<event>
 4    1  0.1806019E-005  0.7851194E+03  0.7818608E-02  0.9581810E-01
          2   -1    0    0  501    0  0.00000000000E+00  0.00000000000E+00  0.11057544561E+04  0.11057544561E+04  0.25500000000E-02 0.  1.
         -2   -1    0    0    0  501 -0.00000000000E+00 -0.00000000000E+00 -0.13936466466E+03  0.13936466468E+03  0.25500000000E-02 0. -1.
   -5000001    1    1    2    0    0  0.27673809424E+03  0.10675079638E+03  0.57865743460E+03  0.69665208817E+03  0.25000000000E+03 0.  0.
    5000001    1    1    2    0    0 -0.27673809424E+03 -0.10675079638E+03  0.38773235688E+03  0.54846703265E+03  0.25000000000E+03 0.  0.
<mgrwt>
<rscale>  0 0.78511935E+03</rscale>
<asrwt>0</asrwt>
<pdfrwt beam="1">  1        2 0.17011607E+00 0.78511935E+03</pdfrwt>
<pdfrwt beam="2">  1       -2 0.21440718E-01 0.78511935E+03</pdfrwt>
<totfact> 0.41020707E+02</totfact>
</mgrwt>
</event>
<event>
 4    1  0.1806019E-005  0.5835656E+03  0.7818608E-02  0.9940101E-01
         -2   -1    0    0    0  501 -0.00000000000E+00  0.00000000000E+00  0.96325656716E+02  0.96325656749E+02  0.25500000000E-02 0. -1.
          2   -1    0    0  501    0  0.00000000000E+00 -0.00000000000E+00 -0.88384768579E+03  0.88384768580E+03  0.25500000000E-02 0.  1.
   -5000001    1    1    2    0    0 -0.67946282130E+02  0.72502378231E+02 -0.20400079778E+03  0.33762348496E+03  0.25000000000E+03 0.  0.
    5000001    1    1    2    0    0  0.67946282130E+02 -0.72502378231E+02 -0.58352123130E+03  0.64254985758E+03  0.25000000000E+03 0.  0.
<mgrwt>
<rscale>  0 0.58356562E+03</rscale>
<asrwt>0</asrwt>
<pdfrwt beam="1">  1        2 0.13597656E+00 0.58356562E+03</pdfrwt>
<pdfrwt beam="2">  1       -2 0.14819332E-01 0.58356562E+03</pdfrwt>
<totfact> 0.10820968E+03</totfact>
</mgrwt>
</event>
<event>
 4    1  0.1806019E-005  0.5679168E+03  0.7818608E-02  0.9974299E-01
         -2   -1    0    0    0  501 -0.00000000000E+00  0.00000000000E+00  0.11973340691E+03  0.11973340694E+03  0.25500000000E-02 0. -1.
          2   -1    0    0  501    0  0.00000000000E+00 -0.00000000000E+00 -0.67343253671E+03  0.67343253672E+03  0.25500000000E-02 0.  1.
   -5000001    1    1    2    0    0  0.11082452611E+03 -0.62077970687E+02 -0.21444343325E+03  0.35301803933E+03  0.25000000000E+03 0.  0.
    5000001    1    1    2    0    0 -0.11082452611E+03  0.62077970687E+02 -0.33925569656E+03  0.44014790432E+03  0.25000000000E+03 0.  0.
<mgrwt>
<rscale>  0 0.56791680E+03</rscale>
<asrwt>0</asrwt>
<pdfrwt beam="1">  1        2 0.10360500E+00 0.56791680E+03</pdfrwt>
<pdfrwt beam="2">  1       -2 0.18420525E-01 0.56791680E+03</pdfrwt>
<totfact> 0.10638301E+03</totfact>
</mgrwt>
</event>
<event>
 4    1  0.1806019E-005  0.6160885E+03  0.7818608E-02  0.9872578E-01
         -2   -1    0    0    0  501 -0.00000000000E+00  0.00000000000E+00  0.69351432678E+03  0.69351432678E+03  0.25500000000E-02 0.  1.
          2   -1    0    0  501    0  0.00000000000E+00 -0.00000000000E+00 -0.13682669036E+03  0.13682669039E+03  0.25500000000E-02 0. -1.
   -5000001    1    1    2    0    0  0.14310584961E+03 -0.70113493754E+02  0.39107417197E+03  0.49074860588E+03  0.25000000000E+03 0.  0.
    5000001    1    1    2    0    0 -0.14310584961E+03  0.70113493754E+02  0.16561346445E+03  0.33959241129E+03  0.25000000000E+03 0.  0.
<mgrwt>
<rscale>  0 0.61608853E+03</rscale>
<asrwt>0</asrwt>
<pdfrwt beam="1">  1        2 0.21050260E-01 0.61608853E+03</pdfrwt>
<pdfrwt beam="2">  1       -2 0.10669451E+00 0.61608853E+03</pdfrwt>
<totfact> 0.19159935E+02</totfact>
</mgrwt>
</event>
<event>
 4    1  0.1806019E-005  0.1370086E+04  0.7818608E-02  0.8975761E-01
          2   -1    0    0  501    0  0.00000000000E+00  0.00000000000E+00  0.26588586148E+04  0.26588586148E+04  0.25500000000E-02 0.  1.
         -2   -1    0    0    0  501 -0.00000000000E+00 -0.00000000000E+00 -0.17649826077E+03  0.17649826079E+03  0.25500000000E-02 0. -1.
   -5000001    1    1    2    0    0  0.46762987825E+03 -0.43051987039E+03  0.11324813955E+04  0.13225124472E+04  0.25000000000E+03 0.  0.
    5000001    1    1    2    0    0 -0.46762987825E+03  0.43051987039E+03  0.13498789586E+04  0.15128444284E+04  0.25000000000E+03 0.  0.
<mgrwt>
<rscale>  0 0.13700860E+04</rscale>
<asrwt>0</asrwt>
<pdfrwt beam="1">  1        2 0.40905514E+00 0.13700860E+04</pdfrwt>
<pdfrwt beam="2">  1       -2 0.27153581E-01 0.13700860E+04</pdfrwt>
<totfact> 0.33990351E+01</totfact>
</mgrwt>
</event>
<event>
 4    1  0.1806019E-005  0.1150122E+04  0.7818608E-02  0.9157671E-01
          2   -1    0    0  501    0  0.00000000000E+00  0.00000000000E+00  0.12698800931E+04  0.12698800931E+04  0.25500000000E-02 0.  1.
         -2   -1    0    0    0  501 -0.00000000000E+00 -0.00000000000E+00 -0.26041440124E+03  0.26041440125E+03  0.25500000000E-02 0. -1.
   -5000001    1    1    2    0    0 -0.48699109977E+03  0.14461697882E+03  0.37087752789E+03  0.67684898058E+03  0.25000000000E+03 0.  0.
    5000001    1    1    2    0    0  0.48699109977E+03 -0.14461697882E+03  0.63858816399E+03  0.85344551379E+03  0.25000000000E+03 0.  0.
<mgrwt>
<rscale>  0 0.11501218E+04</rscale>
<asrwt>0</asrwt>
<pdfrwt beam="1">  1        2 0.19536617E+00 0.11501218E+04</pdfrwt>
<pdfrwt beam="2">  1       -2 0.40063753E-01 0.11501218E+04</pdfrwt>
<totfact> 0.10040762E+02</totfact>
</mgrwt>
</event>
<event>
 4    1  0.1806019E-005  0.6854423E+03  0.7818608E-02  0.9742457E-01
          2   -1    0    0  501    0  0.00000000000E+00  0.00000000000E+00  0.10964316146E+04  0.10964316146E+04  0.25500000000E-02 0.  1.
         -2   -1    0    0    0  501 -0.00000000000E+00 -0.00000000000E+00 -0.10712732093E+03  0.10712732096E+03  0.25500000000E-02 0. -1.
   -5000001    1    1    2    0    0 -0.15832377181E+03 -0.35474377137E+02  0.19753385473E+03  0.35755345324E+03  0.25000000000E+03 0.  0.
    5000001    1    1    2    0    0  0.15832377181E+03  0.35474377137E+02  0.79177043891E+03  0.84600548230E+03  0.25000000000E+03 0.  0.
<mgrwt>
<rscale>  0 0.68544228E+03</rscale>
<asrwt>0</asrwt>
<pdfrwt beam="1">  1        2 0.16868179E+00 0.68544228E+03</pdfrwt>
<pdfrwt beam="2">  1       -2 0.16481126E-01 0.68544228E+03</pdfrwt>
<totfact> 0.65899353E+02</totfact>
</mgrwt>
</event>
<event>
 4    1  0.1806019E-005  0.1182449E+04  0.7818608E-02  0.9128359E-01
          2   -1    0    0  501    0  0.00000000000E+00  0.00000000000E+00  0.85814057549E+03  0.85814057550E+03  0.25500000000E-02 0.  1.
         -2   -1    0    0    0  501 -0.00000000000E+00 -0.00000000000E+00 -0.40733024929E+03  0.40733024930E+03  0.25500000000E-02 0. -1.
   -5000001    1    1    2    0    0 -0.33855179362E+03 -0.56110681252E+02 -0.21492005294E+03  0.47587430554E+03  0.25000000000E+03 0.  0.
    5000001    1    1    2    0    0  0.33855179362E+03  0.56110681252E+02  0.66573037914E+03  0.78959651926E+03  0.25000000000E+03 0.  0.
<mgrwt>
<rscale>  0 0.11824493E+04</rscale>
<asrwt>0</asrwt>
<pdfrwt beam="1">  1        2 0.13202163E+00 0.11824493E+04</pdfrwt>
<pdfrwt beam="2">  1       -2 0.62666192E-01 0.11824493E+04</pdfrwt>
<totfact> 0.73093286E+01</totfact>
</mgrwt>
</event>
<event>
 4    1  0.1806019E-005  0.1421903E+04  0.7818608E-02  0.8938115E-01
         -2   -1    0    0    0  501 -0.00000000000E+00  0.00000000000E+00  0.30002218571E+03  0.30002218572E+03  0.25500000000E-02 0. -1.
          2   -1    0    0  501    0  0.00000000000E+00 -0.00000000000E+00 -0.16847150735E+04  0.16847150735E+04  0.25500000000E-02 0.  1.
   -5000001    1    1    2    0    0 -0.43968020898E+03  0.23527573775E+03 -0.13075878076E+04  0.14216044575E+04  0.25000000000E+03 0.  0.
    5000001    1    1    2    0    0  0.43968020898E+03 -0.23527573775E+03 -0.77105080131E+02  0.56313280168E+03  0.25000000000E+03 0.  0.
<mgrwt>
<rscale>  0 0.14219028E+04</rscale>
<asrwt>0</asrwt>
<pdfrwt beam="1">  1        2 0.25918693E+00 0.14219028E+04</pdfrwt>
<pdfrwt beam="2">  1       -2 0.46157260E-01 0.14219028E+04</pdfrwt>
<totfact> 0.43246216E+01</totfact>
</mgrwt>
</event>
<event>
 4    1  0.1806019E-005  0.1945132E+04  0.7818608E-02  0.8632712E-01
         -2   -1    0    0    0  501 -0.00000000000E+00  0.00000000000E+00  0.18301820656E+03  0.18301820658E+03  0.25500000000E-02 0.  1.
          2   -1    0    0  501    0  0.00000000000E+00 -0.00000000000E+00 -0.51682559879E+04  0.51682559879E+04  0.25500000000E-02 0. -1.
   -5000001    1    1    2    0    0  0.14057467632E+03 -0.89978911936E+03 -0.31319384236E+04  0.32712260681E+04  0.25000000000E+03 0.  0.
    5000001    1    1    2    0    0 -0.14057467632E+03  0.89978911936E+03 -0.18532993577E+04  0.20800481264E+04  0.25000000000E+03 0.  0.
<mgrwt>
<rscale>  0 0.19451323E+04</rscale>
<asrwt>0</asrwt>
<pdfrwt beam="1">  1        2 0.79511619E+00 0.19451323E+04</pdfrwt>
<pdfrwt beam="2">  1       -2 0.28156651E-01 0.19451323E+04</pdfrwt>
<totfact> 0.22740921E-01</totfact>
</mgrwt>
</event>
<event>
 4    1  0.1806019E-005  0.7326631E+03  0.7818608E-02  0.9662949E-01
         -2   -1    0    0    0  501 -0.00000000000E+00  0.00000000000E+00  0.10331811859E+03  0.10331811862E+03  0.25500000000E-02 0. -1.
          2   -1    0    0  501    0  0.00000000000E+00 -0.00000000000E+00 -0.12988893268E+04  0.12988893268E+04  0.25500000000E-02 0.  1.
   -5000001    1    1    2    0    0  0.50378640436E+02  0.25511341482E+03 -0.72000168531E+03  0.80530943660E+03  0.25000000000E+03 0.  0.
    5000001    1    1    2    0    0 -0.50378640436E+02 -0.25511341482E+03 -0.47556952294E+03  0.59689800886E+03  0.25000000000E+03 0.  0.
<mgrwt>
<rscale>  0 0.73266309E+03</rscale>
<asrwt>0</asrwt>
<pdfrwt beam="1">  1        2 0.19982912E+00 0.73266309E+03</pdfrwt>
<pdfrwt beam="2">  1       -2 0.15895096E-01 0.73266309E+03</pdfrwt>
<totfact> 0.53080414E+02</totfact>
</mgrwt>
</event>
<event>
 4    1  0.1806019E-005  0.8306866E+03  0.7818608E-02  0.9516632E-01
          2   -1    0    0  501    0  0.00000000000E+00  0.00000000000E+00  0.15664367130E+03  0.15664367132E+03  0.25500000000E-02 0.  1.
         -2   -1    0    0    0  501 -0.00000000000E+00 -0.00000000000E+00 -0.11012897616E+04  0.11012897616E+04  0.25500000000E-02 0. -1.
   -5000001    1    1    2    0    0  0.30512054772E+03  0.84287456196E+02 -0.32235739635E+03  0.51634989580E+03  0.25000000000E+03 0.  0.
    5000001    1    1    2    0    0 -0.30512054772E+03 -0.84287456196E+02 -0.62228869390E+03  0.74158353708E+03  0.25000000000E+03 0.  0.
<mgrwt>
<rscale>  0 0.83068664E+03</rscale>
<asrwt>0</asrwt>
<pdfrwt beam="1">  1        2 0.24099027E-01 0.83068664E+03</pdfrwt>
<pdfrwt beam="2">  1       -2 0.16942919E+00 0.83068664E+03</pdfrwt>
<totfact> 0.49592472E+01</totfact>
</mgrwt>
</event>
<event>
 4    1  0.1806019E-005  0.7586809E+03  0.7818608E-02  0.9621829E-01
          2   -1    0    0  501    0  0.00000000000E+00  0.00000000000E+00  0.30073028053E+03  0.30073028054E+03  0.25500000000E-02 0.  1.
         -2   -1    0    0    0  501 -0.00000000000E+00 -0.00000000000E+00 -0.47849914247E+03  0.47849914247E+03  0.25500000000E-02 0. -1.
   -5000001    1    1    2    0    0 -0.27324737251E+02  0.17988531926E+03  0.13682615542E+03  0.33812241298E+03  0.25000000000E+03 0.  0.
    5000001    1    1    2    0    0  0.27324737251E+02 -0.17988531926E+03 -0.31459501736E+03  0.44110701003E+03  0.25000000000E+03 0.  0.
<mgrwt>
<rscale>  0 0.75868091E+03</rscale>
<asrwt>0</asrwt>
<pdfrwt beam="1">  1        2 0.46266197E-01 0.75868091E+03</pdfrwt>
<pdfrwt beam="2">  1       -2 0.73615253E-01 0.75868091E+03</pdfrwt>
<totfact> 0.18381152E+02</totfact>
</mgrwt>
</event>
<event>
 4    1  0.1806019E-005  0.8917125E+03  0.7818608E-02  0.9436001E-01
          2   -1    0    0  501    0  0.00000000000E+00  0.00000000000E+00  0.15102092722E+04  0.15102092722E+04  0.25500000000E-02 0.  1.
         -2   -1    0    0    0  501 -0.00000000000E+00 -0.00000000000E+00 -0.13162930980E+03  0.13162930983E+03  0.25500000000E-02 0. -1.
   -5000001    1    1    2    0    0  0.27666099526E+03 -0.24413375494E+03  0.66710289648E+03  0.80228976754E+03  0.25000000000E+03 0.  0.
    5000001    1    1    2    0    0 -0.27666099526E+03  0.24413375494E+03  0.71147706590E+03  0.83954881448E+03  0.25000000000E+03 0.  0.
<mgrwt>
<rscale>  0 0.89171252E+03</rscale>
<asrwt>0</asrwt>
<pdfrwt beam="1">  1        2 0.23233990E+00 0.89171252E+03</pdfrwt>
<pdfrwt beam="2">  1       -2 0.20250662E-01 0.89171252E+03</pdfrwt>
<totfact> 0.26276020E+02</totfact>
</mgrwt>
</event>
<event>
 4    1  0.1806019E-005  0.9981697E+03  0.7818608E-02  0.9310555E-01
          2   -1    0    0  501    0  0.00000000000E+00  0.00000000000E+00  0.15702075664E+04  0.15702075664E+04  0.25500000000E-02 0.  1.
         -2   -1    0    0    0  501 -0.00000000000E+00 -0.00000000000E+00 -0.15863232628E+03  0.15863232630E+03  0.25500000000E-02 0. -1.
   -5000001    1    1    2    0    0  0.18069663003E+03  0.22110041704E+03  0.14442125566E+03  0.40607162620E+03  0.25000000000E+03 0.  0.
    5000001    1    1    2    0    0 -0.18069663003E+03 -0.22110041704E+03  0.12671539844E+04  0.13227682665E+04  0.25000000000E+03 0.  0.
<mgrwt>
<rscale>  0 0.99816968E+03</rscale>
<asrwt>0</asrwt>
<pdfrwt beam="1">  1        2 0.24157040E+00 0.99816968E+03</pdfrwt>
<pdfrwt beam="2">  1       -2 0.24404973E-01 0.99816968E+03</pdfrwt>
<totfact> 0.17333447E+02</totfact>
</mgrwt>
</event>
<event>
 4    1  0.1806019E-005  0.6231552E+03  0.7818608E-02  0.9858498E-01
         -2   -1    0    0    0  501 -0.00000000000E+00  0.00000000000E+00  0.21261872132E+02  0.21261872285E+02  0.25500000000E-02 0. -1.
          2   -1    0    0  501    0  0.00000000000E+00 -0.00000000000E+00 -0.45659484818E+04  0.45659484818E+04  0.25500000000E-02 0.  1.
   -5000001    1    1    2    0    0 -0.17248776145E+03  0.61649203018E+02 -0.25083589189E+04  0.25274329107E+04  0.25000000000E+03 0.  0.
    5000001    1    1    2    0    0  0.17248776145E+03 -0.61649203018E+02 -0.20363276908E+04  0.20597774434E+04  0.25000000000E+03 0.  0.
<mgrwt>
<rscale>  0 0.62315524E+03</rscale>
<asrwt>0</asrwt>
<pdfrwt beam="1">  1        2 0.70245283E+00 0.62315524E+03</pdfrwt>
<pdfrwt beam="2">  1       -2 0.32710609E-02 0.62315524E+03</pdfrwt>
<totfact> 0.49006080E+01</totfact>
</mgrwt>
</event>
<event>
 4    1  0.1806019E-005  0.5661077E+03  0.7818608E-02  0.9978329E-01
          2   -1    0    0  501    0  0.00000000000E+00  0.00000000000E+00  0.13852129330E+03  0.13852129332E+03  0.25500000000E-02 0.  1.
         -2   -1    0    0    0  501 -0.00000000000E+00 -0.00000000000E+00 -0.57839105032E+03  0.57839105033E+03  0.25500000000E-02 0. -1.
   -5000001    1    1    2    0    0 -0.72912142903E+02  0.78349567796E+02 -0.12050408493E+03  0.29744927272E+03  0.25000000000E+03 0.  0.
    5000001    1    1    2    0    0  0.72912142903E+02 -0.78349567796E+02 -0.31936567210E+03  0.41946307093E+03  0.25000000000E+03 0.  0.
<mgrwt>
<rscale>  0 0.56610768E+03</rscale>
<asrwt>0</asrwt>
<pdfrwt beam="1">  1        2 0.21310969E-01 0.56610768E+03</pdfrwt>
<pdfrwt beam="2">  1       -2 0.88983237E-01 0.56610768E+03</pdfrwt>
<totfact> 0.28941873E+02</totfact>
</mgrwt>
</event>
<event>
 4    1  0.1806019E-005  0.7010488E+03  0.7818608E-02  0.9715440E-01
          2   -1    0    0  501    0  0.00000000000E+00  0.00000000000E+00  0.18391791077E+04  0.18391791077E+04  0.25500000000E-02 0.  1.
         -2   -1    0    0    0  501 -0.00000000000E+00 -0.00000000000E+00 -0.66805536610E+02  0.66805536658E+02  0.25500000000E-02 0. -1.
   -5000001    1    1    2    0    0  0.17540901967E+03  0.10990398937E+03  0.52632154521E+03  0.61835392779E+03  0.25000000000E+03 0.  0.
    5000001    1    1    2    0    0 -0.17540901967E+03 -0.10990398937E+03  0.12460520259E+04  0.12876307166E+04  0.25000000000E+03 0.  0.
<mgrwt>
<rscale>  0 0.70104878E+03</rscale>
<asrwt>0</asrwt>
<pdfrwt beam="1">  1        2 0.28295061E+00 0.70104878E+03</pdfrwt>
<pdfrwt beam="2">  1       -2 0.10277776E-01 0.70104878E+03</pdfrwt>
<totfact> 0.55103310E+02</totfact>
</mgrwt>
</event>
<event>
 4    1  0.1806019E-005  0.7460876E+03  0.7818608E-02  0.9641508E-01
         -2   -1    0    0    0  501 -0.00000000000E+00  0.00000000000E+00  0.27413080741E+03  0.27413080742E+03  0.25500000000E-02 0. -1.
          2   -1    0    0  501    0  0.00000000000E+00 -0.00000000000E+00 -0.50764703406E+03  0.50764703407E+03  0.25500000000E-02 0.  1.
   -5000001    1    1    2    0    0 -0.18792320380E+03 -0.15751783798E+03  0.17980340831E+02  0.35064268488E+03  0.25000000000E+03 0.  0.
    5000001    1    1    2    0    0  0.18792320380E+03  0.15751783798E+03 -0.25149656748E+03  0.43113515661E+03  0.25000000000E+03 0.  0.
<mgrwt>
<rscale>  0 0.74608764E+03</rscale>
<asrwt>0</asrwt>
<pdfrwt beam="1">  1        2 0.78099544E-01 0.74608764E+03</pdfrwt>
<pdfrwt beam="2">  1       -2 0.42173970E-01 0.74608764E+03</pdfrwt>
<totfact> 0.32483064E+02</totfact>
</mgrwt>
</event>
<event>
 4    1  0.1806019E-005  0.5294876E+03  0.7818608E-02  0.1006356E+00
         -2   -1    0    0    0  501 -0.00000000000E+00  0.00000000000E+00  0.13304419621E+03  0.13304419623E+03  0.25500000000E-02 0. -1.
          2   -1    0    0  501    0  0.00000000000E+00 -0.00000000000E+00 -0.52681197117E+03  0.52681197117E+03  0.25500000000E-02 0.  1.
   -5000001    1    1    2    0    0  0.78863069206E+02 -0.36765279810E+02 -0.20220127318E+03  0.33310122239E+03  0.25000000000E+03 0.  0.
    5000001    1    1    2    0    0 -0.78863069206E+02  0.36765279810E+02 -0.19156650178E+03  0.32675494501E+03  0.25000000000E+03 0.  0.
<mgrwt>
<rscale>  0 0.52948758E+03</rscale>
<asrwt>0</asrwt>
<pdfrwt beam="1">  1        2 0.81047995E-01 0.52948758E+03</pdfrwt>
<pdfrwt beam="2">  1       -2 0.20468338E-01 0.52948758E+03</pdfrwt>
<totfact> 0.11885776E+03</totfact>
</mgrwt>
</event>
<event>
 4    1  0.1806019E-005  0.8926058E+03  0.7818608E-02  0.9434872E-01
         -2   -1    0    0    0  501 -0.00000000000E+00  0.00000000000E+00  0.10668215718E+03  0.10668215721E+03  0.25500000000E-02 0. -1.
          2   -1    0    0  501    0  0.00000000000E+00 -0.00000000000E+00 -0.18671003190E+04  0.18671003190E+04  0.25500000000E-02 0.  1.
   -5000001    1    1    2    0    0 -0.10818440197E+03 -0.34763141108E+03 -0.10223988144E+04  0.11137103746E+04  0.25000000000E+03 0.  0.
    5000001    1    1    2    0    0  0.10818440197E+03  0.34763141108E+03 -0.73801934739E+03  0.86007210159E+03  0.25000000000E+03 0.  0.
<mgrwt>
<rscale>  0 0.89260583E+03</rscale>
<asrwt>0</asrwt>
<pdfrwt beam="1">  1        2 0.28724618E+00 0.89260583E+03</pdfrwt>
<pdfrwt beam="2">  1       -2 0.16412641E-01 0.89260583E+03</pdfrwt>
<totfact> 0.24040089E+02</totfact>
</mgrwt>
</event>
<event>
 4    1  0.1806019E-005  0.5845316E+03  0.7818608E-02  0.9938028E-01
         -2   -1    0    0    0  501 -0.00000000000E+00  0.00000000000E+00  0.21142015934E+02  0.21142016088E+02  0.25500000000E-02 0. -1.
          2   -1    0    0  501    0  0.00000000000E+00 -0.00000000000E+00 -0.40402624235E+04  0.40402624235E+04  0.25500000000E-02 0.  1.
   -5000001    1    1    2    0    0 -0.62195415299E+02 -0.13781155709E+03 -0.19561915150E+04  0.19778891623E+04  0.25000000000E+03 0.  0.
    5000001    1    1    2    0    0  0.62195415299E+02  0.13781155709E+03 -0.20629288925E+04  0.20835152773E+04  0.25000000000E+03 0.  0.
<mgrwt>
<rscale>  0 0.58453158E+03</rscale>
<asrwt>0</asrwt>
<pdfrwt beam="1">  1        2 0.62157822E+00 0.58453158E+03</pdfrwt>
<pdfrwt beam="2">  1       -2 0.32526211E-02 0.58453158E+03</pdfrwt>
<totfact> 0.14409760E+02</totfact>
</mgrwt>
</event>
<event>
 4    1  0.1806019E-005  0.9939452E+03  0.7818608E-02  0.9315211E-01
          2   -1    0    0  501    0  0.00000000000E+00  0.00000000000E+00  0.11144410699E+04  0.11144410699E+04  0.25500000000E-02 0. -1.
         -2   -1    0    0    0  501 -0.00000000000E+00 -0.00000000000E+00 -0.22161941874E+03  0.22161941876E+03  0.25500000000E-02 0.  1.
   -5000001    1    1    2    0    0 -0.41892342811E+03  0.89248774061E+02  0.40348896444E+03  0.63934773537E+03  0.25000000000E+03 0.  0.
    5000001    1    1    2    0    0  0.41892342811E+03 -0.89248774061E+02  0.48933268668E+03  0.69671275326E+03  0.25000000000E+03 0.  0.
<mgrwt>
<rscale>  0 0.99394523E+03</rscale>
<asrwt>0</asrwt>
<pdfrwt beam="1">  1        2 0.17145247E+00 0.99394523E+03</pdfrwt>
<pdfrwt beam="2">  1       -2 0.34095295E-01 0.99394523E+03</pdfrwt>
<totfact> 0.17145160E+02</totfact>
</mgrwt>
</event>
<event>
 4    1  0.1806019E-005  0.6290868E+03  0.7818608E-02  0.9846832E-01
         -2   -1    0    0    0  501 -0.00000000000E+00  0.00000000000E+00  0.81122685285E+02  0.81122685325E+02  0.25500000000E-02 0. -1.
          2   -1    0    0  501    0  0.00000000000E+00 -0.00000000000E+00 -0.12196040082E+04  0.12196040082E+04  0.25500000000E-02 0.  1.
   -5000001    1    1    2    0    0  0.12621405698E+03  0.87453701796E+02 -0.80371000432E+03  0.85558629558E+03  0.25000000000E+03 0.  0.
    5000001    1    1    2    0    0 -0.12621405698E+03 -0.87453701796E+02 -0.33477131862E+03  0.44514039797E+03  0.25000000000E+03 0.  0.
<mgrwt>
<rscale>  0 0.62908681E+03</rscale>
<asrwt>0</asrwt>
<pdfrwt beam="1">  1        2 0.18763137E+00 0.62908681E+03</pdfrwt>
<pdfrwt beam="2">  1       -2 0.12480414E-01 0.62908681E+03</pdfrwt>
<totfact> 0.88949245E+02</totfact>
</mgrwt>
</event>
<event>
 4    1  0.1806019E-005  0.6779005E+03  0.7818608E-02  0.9755790E-01
         -2   -1    0    0    0  501 -0.00000000000E+00  0.00000000000E+00  0.14147659496E+03  0.14147659498E+03  0.25500000000E-02 0. -1.
          2   -1    0    0  501    0  0.00000000000E+00 -0.00000000000E+00 -0.81205838843E+03  0.81205838844E+03  0.25500000000E-02 0.  1.
   -5000001    1    1    2    0    0  0.18524362041E+03  0.12336133132E+03 -0.26014580136E+03  0.42392104799E+03  0.25000000000E+03 0.  0.
    5000001    1    1    2    0    0 -0.18524362041E+03 -0.12336133132E+03 -0.41043599211E+03  0.52961393542E+03  0.25000000000E+03 0.  0.
<mgrwt>
<rscale>  0 0.67790045E+03</rscale>
<asrwt>0</asrwt>
<pdfrwt beam="1">  1        2 0.12493206E+00 0.67790045E+03</pdfrwt>
<pdfrwt beam="2">  1       -2 0.21765630E-01 0.67790045E+03</pdfrwt>
<totfact> 0.62423773E+02</totfact>
</mgrwt>
</event>
<event>
 4    1  0.1806019E-005  0.6208529E+03  0.7818608E-02  0.9863063E-01
         -2   -1    0    0    0  501 -0.00000000000E+00  0.00000000000E+00  0.43787902727E+03  0.43787902728E+03  0.25500000000E-02 0. -1.
          2   -1    0    0  501    0  0.00000000000E+00 -0.00000000000E+00 -0.22007120599E+03  0.22007120601E+03  0.25500000000E-02 0.  1.
   -5000001    1    1    2    0    0  0.76463919629E+02 -0.16734228102E+03  0.11292477307E+03  0.33030618280E+03  0.25000000000E+03 0.  0.
    5000001    1    1    2    0    0 -0.76463919629E+02  0.16734228102E+03  0.10488304821E+03  0.32764405049E+03  0.25000000000E+03 0.  0.
<mgrwt>
<rscale>  0 0.62085285E+03</rscale>
<asrwt>0</asrwt>
<pdfrwt beam="1">  1        2 0.33857109E-01 0.62085285E+03</pdfrwt>
<pdfrwt beam="2">  1       -2 0.67366004E-01 0.62085285E+03</pdfrwt>
<totfact> 0.31699802E+02</totfact>
</mgrwt>
</event>
<event>
 4    1  0.1806019E-005  0.5617041E+03  0.7818608E-02  0.9988206E-01
         -2   -1    0    0    0  501 -0.00000000000E+00  0.00000000000E+00  0.78838188668E+02  0.78838188710E+02  0.25500000000E-02 0. -1.
          2   -1    0    0  501    0  0.00000000000E+00 -0.00000000000E+00 -0.10005032448E+04  0.10005032448E+04  0.25500000000E-02 0.  1.
   -5000001    1    1    2    0    0  0.91796055559E+02  0.73232309788E+02 -0.36307166771E+03  0.45619132270E+03  0.25000000000E+03 0.  0.
    5000001    1    1    2    0    0 -0.91796055559E+02 -0.73232309788E+02 -0.55859338838E+03  0.62315011077E+03  0.25000000000E+03 0.  0.
<mgrwt>
<rscale>  0 0.56170406E+03</rscale>
<asrwt>0</asrwt>
<pdfrwt beam="1">  1        2 0.15392357E+00 0.56170406E+03</pdfrwt>
<pdfrwt beam="2">  1       -2 0.12128953E-01 0.56170406E+03</pdfrwt>
<totfact> 0.12683421E+03</totfact>
</mgrwt>
</event>
<event>
 4    1  0.1806019E-005  0.6549039E+03  0.7818608E-02  0.9797621E-01
         -2   -1    0    0    0  501 -0.00000000000E+00  0.00000000000E+00  0.81161371773E+02  0.81161371813E+02  0.25500000000E-02 0.  1.
          2   -1    0    0  501    0  0.00000000000E+00 -0.00000000000E+00 -0.13211305913E+04  0.13211305913E+04  0.25500000000E-02 0. -1.
   -5000001    1    1    2    0    0  0.17109203155E+03 -0.12092319847E+03 -0.68166759363E+03  0.75568883239E+03  0.25000000000E+03 0.  0.
    5000001    1    1    2    0    0 -0.17109203155E+03  0.12092319847E+03 -0.55830162589E+03  0.64660313072E+03  0.25000000000E+03 0.  0.
<mgrwt>
<rscale>  0 0.65490387E+03</rscale>
<asrwt>0</asrwt>
<pdfrwt beam="1">  1        2 0.20325084E+00 0.65490387E+03</pdfrwt>
<pdfrwt beam="2">  1       -2 0.12486366E-01 0.65490387E+03</pdfrwt>
<totfact> 0.77567924E+02</totfact>
</mgrwt>
</event>
<event>
 4    1  0.1806019E-005  0.7137378E+03  0.7818608E-02  0.9694023E-01
         -2   -1    0    0    0  501 -0.00000000000E+00  0.00000000000E+00  0.54593471671E+02  0.54593471731E+02  0.25500000000E-02 0. -1.
          2   -1    0    0  501    0  0.00000000000E+00 -0.00000000000E+00 -0.23327959117E+04  0.23327959117E+04  0.25500000000E-02 0.  1.
   -5000001    1    1    2    0    0  0.24850886120E+02  0.24309245783E+03 -0.13790019403E+04  0.14226235837E+04  0.25000000000E+03 0.  0.
    5000001    1    1    2    0    0 -0.24850886120E+02 -0.24309245783E+03 -0.89920049975E+03  0.96476579974E+03  0.25000000000E+03 0.  0.
<mgrwt>
<rscale>  0 0.71373784E+03</rscale>
<asrwt>0</asrwt>
<pdfrwt beam="1">  1        2 0.35889160E+00 0.71373784E+03</pdfrwt>
<pdfrwt beam="2">  1       -2 0.83989975E-02 0.71373784E+03</pdfrwt>
<totfact> 0.40945719E+02</totfact>
</mgrwt>
</event>
<event>
 4    1  0.1806019E-005  0.6313821E+03  0.7818608E-02  0.9842356E-01
         -2   -1    0    0    0  501 -0.00000000000E+00  0.00000000000E+00  0.64070787677E+03  0.64070787678E+03  0.25500000000E-02 0. -1.
          2   -1    0    0  501    0  0.00000000000E+00 -0.00000000000E+00 -0.15554799408E+03  0.15554799410E+03  0.25500000000E-02 0.  1.
   -5000001    1    1    2    0    0 -0.17585304215E+03 -0.32648096381E+02  0.15189559472E+03  0.34287382858E+03  0.25000000000E+03 0.  0.
    5000001    1    1    2    0    0  0.17585304215E+03  0.32648096381E+02  0.33326428798E+03  0.45338204229E+03  0.25000000000E+03 0.  0.
<mgrwt>
<rscale>  0 0.63138206E+03</rscale>
<asrwt>0</asrwt>
<pdfrwt beam="1">  1        2 0.23930461E-01 0.63138206E+03</pdfrwt>
<pdfrwt beam="2">  1       -2 0.98570443E-01 0.63138206E+03</pdfrwt>
<totfact> 0.19927999E+02</totfact>
</mgrwt>
</event>
<event>
 4    1  0.1806019E-005  0.6444280E+03  0.7818608E-02  0.9817291E-01
          2   -1    0    0  501    0  0.00000000000E+00  0.00000000000E+00  0.14337035777E+04  0.14337035777E+04  0.25500000000E-02 0.  1.
         -2   -1    0    0    0  501 -0.00000000000E+00 -0.00000000000E+00 -0.72415160798E+02  0.72415160842E+02  0.25500000000E-02 0. -1.
   -5000001    1    1    2    0    0  0.58393089386E+02 -0.15899590178E+03  0.94332490214E+03  0.99048034845E+03  0.25000000000E+03 0.  0.
    5000001    1    1    2    0    0 -0.58393089386E+02  0.15899590178E+03  0.41796351479E+03  0.51563839012E+03  0.25000000000E+03 0.  0.
<mgrwt>
<rscale>  0 0.64442804E+03</rscale>
<asrwt>0</asrwt>
<pdfrwt beam="1">  1        2 0.22056976E+00 0.64442804E+03</pdfrwt>
<pdfrwt beam="2">  1       -2 0.11140795E-01 0.64442804E+03</pdfrwt>
<totfact> 0.80884878E+02</totfact>
</mgrwt>
</event>
<event>
 4    1  0.1806019E-005  0.6120202E+03  0.7818608E-02  0.9880777E-01
         -2   -1    0    0    0  501 -0.00000000000E+00  0.00000000000E+00  0.16136215104E+03  0.16136215106E+03  0.25500000000E-02 0. -1.
          2   -1    0    0  501    0  0.00000000000E+00 -0.00000000000E+00 -0.58032309127E+03  0.58032309127E+03  0.25500000000E-02 0.  1.
   -5000001    1    1    2    0    0 -0.97588251538E+02  0.12709531056E+03 -0.11988857372E+03  0.32023421883E+03  0.25000000000E+03 0.  0.
    5000001    1    1    2    0    0  0.97588251538E+02 -0.12709531056E+03 -0.29907236650E+03  0.42145102350E+03  0.25000000000E+03 0.  0.
<mgrwt>
<rscale>  0 0.61202020E+03</rscale>
<asrwt>0</asrwt>
<pdfrwt beam="1">  1        2 0.89280475E-01 0.61202020E+03</pdfrwt>
<pdfrwt beam="2">  1       -2 0.24824947E-01 0.61202020E+03</pdfrwt>
<totfact> 0.75339328E+02</totfact>
</mgrwt>
</event>
<event>
 4    1  0.1806019E-005  0.1259812E+04  0.7818608E-02  0.9062056E-01
          2   -1    0    0  501    0  0.00000000000E+00  0.00000000000E+00  0.11135366437E+04  0.11135366437E+04  0.25500000000E-02 0.  1.
         -2   -1    0    0    0  501 -0.00000000000E+00 -0.00000000000E+00 -0.35632556531E+03  0.35632556532E+03  0.25500000000E-02 0. -1.
   -5000001    1    1    2    0    0 -0.22369177130E+03  0.52956677049E+03  0.45055230322E+03  0.77199504590E+03  0.25000000000E+03 0.  0.
    5000001    1    1    2    0    0  0.22369177130E+03 -0.52956677049E+03  0.30665877513E+03  0.69786716309E+03  0.25000000000E+03 0.  0.
<mgrwt>
<rscale>  0 0.12598120E+04</rscale>
<asrwt>0</asrwt>
<pdfrwt beam="1">  1        2 0.17131333E+00 0.12598120E+04</pdfrwt>
<pdfrwt beam="2">  1       -2 0.54819318E-01 0.12598120E+04</pdfrwt>
<totfact> 0.65747632E+01</totfact>
</mgrwt>
</event>
<event>
 4    1  0.1806019E-005  0.8710974E+03  0.7818608E-02  0.9462450E-01
         -2   -1    0    0    0  501 -0.00000000000E+00  0.00000000000E+00  0.32718528434E+03  0.32718528435E+03  0.25500000000E-02 0. -1.
          2   -1    0    0  501    0  0.00000000000E+00 -0.00000000000E+00 -0.57980199387E+03  0.57980199388E+03  0.25500000000E-02 0.  1.
   -5000001    1    1    2    0    0  0.25675782146E+03 -0.15892404671E+03  0.71303888607E+02  0.39845410782E+03  0.25000000000E+03 0.  0.
    5000001    1    1    2    0    0 -0.25675782146E+03  0.15892404671E+03 -0.32392059814E+03  0.50853317041E+03  0.25000000000E+03 0.  0.
<mgrwt>
<rscale>  0 0.87109742E+03</rscale>
<asrwt>0</asrwt>
<pdfrwt beam="1">  1        2 0.89200306E-01 0.87109742E+03</pdfrwt>
<pdfrwt beam="2">  1       -2 0.50336198E-01 0.87109742E+03</pdfrwt>
<totfact> 0.19382553E+02</totfact>
</mgrwt>
</event>
<event>
 4    1  0.1806019E-005  0.1055504E+04  0.7818608E-02  0.9249680E-01
         -2   -1    0    0    0  501 -0.00000000000E+00  0.00000000000E+00  0.48028281539E+03  0.48028281540E+03  0.25500000000E-02 0. -1.
          2   -1    0    0  501    0  0.00000000000E+00 -0.00000000000E+00 -0.57991235187E+03  0.57991235188E+03  0.25500000000E-02 0.  1.
   -5000001    1    1    2    0    0 -0.33664338278E+03 -0.21736325739E+03 -0.28633197213E+03  0.55232377380E+03  0.25000000000E+03 0.  0.
    5000001    1    1    2    0    0  0.33664338278E+03  0.21736325739E+03  0.18670243566E+03  0.50787139348E+03  0.25000000000E+03 0.  0.
<mgrwt>
<rscale>  0 0.10555036E+04</rscale>
<asrwt>0</asrwt>
<pdfrwt beam="1">  1        2 0.89217285E-01 0.10555036E+04</pdfrwt>
<pdfrwt beam="2">  1       -2 0.73889664E-01 0.10555036E+04</pdfrwt>
<totfact> 0.84960188E+01</totfact>
</mgrwt>
</event>
<event>
 4    1  0.1806019E-005  0.7246743E+03  0.7818608E-02  0.9675942E-01
          2   -1    0    0  501    0  0.00000000000E+00  0.00000000000E+00  0.44116865490E+03  0.44116865491E+03  0.25500000000E-02 0.  1.
         -2   -1    0    0    0  501 -0.00000000000E+00 -0.00000000000E+00 -0.29759189700E+03  0.29759189702E+03  0.25500000000E-02 0. -1.
   -5000001    1    1    2    0    0  0.86115224896E+02 -0.19347940944E+03 -0.85938493851E+02  0.33872634761E+03  0.25000000000E+03 0.  0.
    5000001    1    1    2    0    0 -0.86115224896E+02  0.19347940944E+03  0.22951525175E+03  0.40003420431E+03  0.25000000000E+03 0.  0.
<mgrwt>
<rscale>  0 0.72467432E+03</rscale>
<asrwt>0</asrwt>
<pdfrwt beam="1">  1        2 0.67872101E-01 0.72467432E+03</pdfrwt>
<pdfrwt beam="2">  1       -2 0.45783369E-01 0.72467432E+03</pdfrwt>
<totfact> 0.32456233E+02</totfact>
</mgrwt>
</event>
<event>
 4    1  0.1806019E-005  0.5695095E+03  0.7818608E-02  0.9970765E-01
          2   -1    0    0  501    0  0.00000000000E+00  0.00000000000E+00  0.15605535579E+04  0.15605535579E+04  0.25500000000E-02 0.  1.
         -2   -1    0    0    0  501 -0.00000000000E+00 -0.00000000000E+00 -0.51959303730E+02  0.51959303793E+02  0.25500000000E-02 0. -1.
   -5000001    1    1    2    0    0  0.22793273481E+02  0.13422535876E+03  0.77417676590E+03  0.82485492368E+03  0.25000000000E+03 0.  0.
    5000001    1    1    2    0    0 -0.22793273481E+02 -0.13422535876E+03  0.73441748825E+03  0.78765793800E+03  0.25000000000E+03 0.  0.
<mgrwt>
<rscale>  0 0.56950953E+03</rscale>
<asrwt>0</asrwt>
<pdfrwt beam="1">  1        2 0.24008510E+00 0.56950953E+03</pdfrwt>
<pdfrwt beam="2">  1       -2 0.79937411E-02 0.56950953E+03</pdfrwt>
<totfact> 0.11803604E+03</totfact>
</mgrwt>
</event>
<event>
 4    1  0.1806019E-005  0.7526641E+03  0.7818608E-02  0.9631180E-01
         -2   -1    0    0    0  501 -0.00000000000E+00  0.00000000000E+00  0.15059781081E+03  0.15059781083E+03  0.25500000000E-02 0. -1.
          2   -1    0    0  501    0  0.00000000000E+00 -0.00000000000E+00 -0.94042408239E+03  0.94042408239E+03  0.25500000000E-02 0.  1.
   -5000001    1    1    2    0    0 -0.22728126409E+03  0.13230690717E+03 -0.53960607139E+03  0.65025887381E+03  0.25000000000E+03 0.  0.
    5000001    1    1    2    0    0  0.22728126409E+03 -0.13230690717E+03 -0.25022020020E+03  0.44076301941E+03  0.25000000000E+03 0.  0.
<mgrwt>
<rscale>  0 0.75266409E+03</rscale>
<asrwt>0</asrwt>
<pdfrwt beam="1">  1        2 0.14468062E+00 0.75266409E+03</pdfrwt>
<pdfrwt beam="2">  1       -2 0.23168895E-01 0.75266409E+03</pdfrwt>
<totfact> 0.45543586E+02</totfact>
</mgrwt>
</event>
<event>
 4    1  0.1806019E-005  0.5428005E+03  0.7818608E-02  0.1003174E+00
          2   -1    0    0  501    0  0.00000000000E+00  0.00000000000E+00  0.10638900769E+04  0.10638900769E+04  0.25500000000E-02 0.  1.
         -2   -1    0    0    0  501 -0.00000000000E+00 -0.00000000000E+00 -0.69234696691E+02  0.69234696738E+02  0.25500000000E-02 0. -1.
   -5000001    1    1    2    0    0  0.91036704229E+02 -0.51554098899E+01  0.38600323449E+03  0.46884193158E+03  0.25000000000E+03 0.  0.
    5000001    1    1    2    0    0 -0.91036704229E+02  0.51554098899E+01  0.60865214567E+03  0.66428284201E+03  0.25000000000E+03 0.  0.
<mgrwt>
<rscale>  0 0.54280054E+03</rscale>
<asrwt>0</asrwt>
<pdfrwt beam="1">  1        2 0.16367539E+00 0.54280054E+03</pdfrwt>
<pdfrwt beam="2">  1       -2 0.10651492E-01 0.54280054E+03</pdfrwt>
<totfact> 0.14331486E+03</totfact>
</mgrwt>
</event>
<event>
 4    1  0.1806019E-005  0.6081399E+03  0.7818608E-02  0.9888661E-01
          2   -1    0    0  501    0  0.00000000000E+00  0.00000000000E+00  0.16786924616E+03  0.16786924618E+03  0.25500000000E-02 0.  1.
         -2   -1    0    0    0  501 -0.00000000000E+00 -0.00000000000E+00 -0.55077713448E+03  0.55077713448E+03  0.25500000000E-02 0. -1.
   -5000001    1    1    2    0    0 -0.75163643782E+02  0.12194228807E+03 -0.76644977141E+02  0.29815088041E+03  0.25000000000E+03 0.  0.
    5000001    1    1    2    0    0  0.75163643782E+02 -0.12194228807E+03 -0.30626291118E+03  0.42049550025E+03  0.25000000000E+03 0.  0.
<mgrwt>
<rscale>  0 0.60813993E+03</rscale>
<asrwt>0</asrwt>
<pdfrwt beam="1">  1        2 0.25826038E-01 0.60813993E+03</pdfrwt>
<pdfrwt beam="2">  1       -2 0.84734943E-01 0.60813993E+03</pdfrwt>
<totfact> 0.25906186E+02</totfact>
</mgrwt>
</event>
<event>
 4    1  0.1806019E-005  0.1205913E+04  0.7818608E-02  0.9107697E-01
          2   -1    0    0  501    0  0.00000000000E+00  0.00000000000E+00  0.12159469278E+04  0.12159469278E+04  0.25500000000E-02 0. -1.
         -2   -1    0    0    0  501 -0.00000000000E+00 -0.00000000000E+00 -0.29899046972E+03  0.29899046973E+03  0.25500000000E-02 0.  1.
   -5000001    1    1    2    0    0  0.43360102161E+03 -0.89638225600E+02  0.86557487408E+03  0.10038748528E+04  0.25000000000E+03 0.  0.
    5000001    1    1    2    0    0 -0.43360102161E+03  0.89638225600E+02  0.51381583970E+02  0.51106254470E+03  0.25000000000E+03 0.  0.
<mgrwt>
<rscale>  0 0.12059130E+04</rscale>
<asrwt>0</asrwt>
<pdfrwt beam="1">  1        2 0.18706876E+00 0.12059130E+04</pdfrwt>
<pdfrwt beam="2">  1       -2 0.45998533E-01 0.12059130E+04</pdfrwt>
<totfact> 0.81872699E+01</totfact>
</mgrwt>
</event>
<event>
 4    1  0.1806019E-005  0.1074620E+04  0.7818608E-02  0.9230289E-01
          2   -1    0    0  501    0  0.00000000000E+00  0.00000000000E+00  0.84358764065E+03  0.84358764066E+03  0.25500000000E-02 0.  1.
         -2   -1    0    0    0  501 -0.00000000000E+00 -0.00000000000E+00 -0.34223093649E+03  0.34223093650E+03  0.25500000000E-02 0. -1.
   -5000001    1    1    2    0    0  0.30481685790E+03  0.34293153360E+03  0.38888395178E+03  0.65134175481E+03  0.25000000000E+03 0.  0.
    5000001    1    1    2    0    0 -0.30481685790E+03 -0.34293153360E+03  0.11247275238E+03  0.53447682235E+03  0.25000000000E+03 0.  0.
<mgrwt>
<rscale>  0 0.10746195E+04</rscale>
<asrwt>0</asrwt>
<pdfrwt beam="1">  1        2 0.12978271E+00 0.10746195E+04</pdfrwt>
<pdfrwt beam="2">  1       -2 0.52650914E-01 0.10746195E+04</pdfrwt>
<totfact> 0.10852959E+02</totfact>
</mgrwt>
</event>
<event>
 4    1  0.1806019E-005  0.8278068E+03  0.7818608E-02  0.9520618E-01
          2   -1    0    0  501    0  0.00000000000E+00  0.00000000000E+00  0.75398646616E+03  0.75398646616E+03  0.25500000000E-02 0.  1.
         -2   -1    0    0    0  501 -0.00000000000E+00 -0.00000000000E+00 -0.22721364505E+03  0.22721364506E+03  0.25500000000E-02 0. -1.
   -5000001    1    1    2    0    0 -0.12262043770E+03  0.26180310349E+03  0.45169404384E+03  0.59169599118E+03  0.25000000000E+03 0.  0.
    5000001    1    1    2    0    0  0.12262043770E+03 -0.26180310349E+03  0.75078777266E+02  0.38950412005E+03  0.25000000000E+03 0.  0.
<mgrwt>
<rscale>  0 0.82780677E+03</rscale>
<asrwt>0</asrwt>
<pdfrwt beam="1">  1        2 0.11599792E+00 0.82780677E+03</pdfrwt>
<pdfrwt beam="2">  1       -2 0.34955945E-01 0.82780677E+03</pdfrwt>
<totfact> 0.28721883E+02</totfact>
</mgrwt>
</event>
<event>
 4    1  0.1806019E-005  0.9234934E+03  0.7818608E-02  0.9396681E-01
          2   -1    0    0  501    0  0.00000000000E+00  0.00000000000E+00  0.23740932289E+04  0.23740932289E+04  0.25500000000E-02 0.  1.
         -2   -1    0    0    0  501 -0.00000000000E+00 -0.00000000000E+00 -0.89806928598E+02  0.89806928634E+02  0.25500000000E-02 0. -1.
   -5000001    1    1    2    0    0  0.22178224845E+03  0.29084917266E+03  0.79499866681E+03  0.91011179929E+03  0.25000000000E+03 0.  0.
    5000001    1    1    2    0    0 -0.22178224845E+03 -0.29084917266E+03  0.14892876335E+04  0.15537883582E+04  0.25000000000E+03 0.  0.
<mgrwt>
<rscale>  0 0.92349341E+03</rscale>
<asrwt>0</asrwt>
<pdfrwt beam="1">  1        2 0.36524504E+00 0.92349341E+03</pdfrwt>
<pdfrwt beam="2">  1       -2 0.13816453E-01 0.92349341E+03</pdfrwt>
<totfact> 0.16846544E+02</totfact>
</mgrwt>
</event>
<event>
 4    1  0.1806019E-005  0.7436416E+03  0.7818608E-02  0.9645379E-01
         -2   -1    0    0    0  501 -0.00000000000E+00  0.00000000000E+00  0.11196142330E+03  0.11196142333E+03  0.25500000000E-02 0. -1.
          2   -1    0    0  501    0  0.00000000000E+00 -0.00000000000E+00 -0.12348067247E+04  0.12348067247E+04  0.25500000000E-02 0.  1.
   -5000001    1    1    2    0    0  0.95399183425E+02 -0.25816155254E+03 -0.55865998939E+03  0.67108075159E+03  0.25000000000E+03 0.  0.
    5000001    1    1    2    0    0 -0.95399183425E+02  0.25816155254E+03 -0.56418531197E+03  0.67568739640E+03  0.25000000000E+03 0.  0.
<mgrwt>
<rscale>  0 0.74364163E+03</rscale>
<asrwt>0</asrwt>
<pdfrwt beam="1">  1        2 0.18997026E+00 0.74364163E+03</pdfrwt>
<pdfrwt beam="2">  1       -2 0.17224835E-01 0.74364163E+03</pdfrwt>
<totfact> 0.50384207E+02</totfact>
</mgrwt>
</event>
<event>
 4    1  0.1806019E-005  0.7147081E+03  0.7818608E-02  0.9692405E-01
          2   -1    0    0  501    0  0.00000000000E+00  0.00000000000E+00  0.20181071068E+04  0.20181071068E+04  0.25500000000E-02 0.  1.
         -2   -1    0    0    0  501 -0.00000000000E+00 -0.00000000000E+00 -0.63278059839E+02  0.63278059890E+02  0.25500000000E-02 0. -1.
   -5000001    1    1    2    0    0 -0.10786389913E+03  0.21298873568E+03  0.12411765380E+04  0.12884168661E+04  0.25000000000E+03 0.  0.
    5000001    1    1    2    0    0  0.10786389913E+03 -0.21298873568E+03  0.71365250892E+03  0.79296830059E+03  0.25000000000E+03 0.  0.
<mgrwt>
<rscale>  0 0.71470806E+03</rscale>
<asrwt>0</asrwt>
<pdfrwt beam="1">  1        2 0.31047798E+00 0.71470806E+03</pdfrwt>
<pdfrwt beam="2">  1       -2 0.97350874E-02 0.71470806E+03</pdfrwt>
<totfact> 0.48053523E+02</totfact>
</mgrwt>
</event>
<event>
 4    1  0.1806019E-005  0.6969746E+03  0.7818608E-02  0.9722420E-01
         -2   -1    0    0    0  501 -0.00000000000E+00  0.00000000000E+00  0.25211725849E+03  0.25211725851E+03  0.25500000000E-02 0. -1.
          2   -1    0    0  501    0  0.00000000000E+00 -0.00000000000E+00 -0.48169405585E+03  0.48169405586E+03  0.25500000000E-02 0.  1.
   -5000001    1    1    2    0    0 -0.23121769188E+03  0.66419627895E+02 -0.80345531356E+02  0.35613002179E+03  0.25000000000E+03 0.  0.
    5000001    1    1    2    0    0  0.23121769188E+03 -0.66419627895E+02 -0.14923126600E+03  0.37768129258E+03  0.25000000000E+03 0.  0.
<mgrwt>
<rscale>  0 0.69697456E+03</rscale>
<asrwt>0</asrwt>
<pdfrwt beam="1">  1        2 0.74106778E-01 0.69697456E+03</pdfrwt>
<pdfrwt beam="2">  1       -2 0.38787271E-01 0.69697456E+03</pdfrwt>
<totfact> 0.40706303E+02</totfact>
</mgrwt>
</event>
<event>
 4    1  0.1806019E-005  0.8690800E+03  0.7818608E-02  0.9465080E-01
          2   -1    0    0  501    0  0.00000000000E+00  0.00000000000E+00  0.82996820481E+03  0.82996820481E+03  0.25500000000E-02 0.  1.
         -2   -1    0    0    0  501 -0.00000000000E+00 -0.00000000000E+00 -0.22750875104E+03  0.22750875105E+03  0.25500000000E-02 0. -1.
   -5000001    1    1    2    0    0  0.35321686516E+03  0.29602809640E+02  0.26934761602E+03  0.51057479220E+03  0.25000000000E+03 0.  0.
    5000001    1    1    2    0    0 -0.35321686516E+03 -0.29602809640E+02  0.33311183775E+03  0.54690216367E+03  0.25000000000E+03 0.  0.
<mgrwt>
<rscale>  0 0.86908004E+03</rscale>
<asrwt>0</asrwt>
<pdfrwt beam="1">  1        2 0.12768742E+00 0.86908004E+03</pdfrwt>
<pdfrwt beam="2">  1       -2 0.35001346E-01 0.86908004E+03</pdfrwt>
<totfact> 0.25186215E+02</totfact>
</mgrwt>
</event>
<event>
 4    1  0.1806019E-005  0.9592629E+03  0.7818608E-02  0.9354389E-01
         -2   -1    0    0    0  501 -0.00000000000E+00  0.00000000000E+00  0.56451500029E+03  0.56451500029E+03  0.25500000000E-02 0. -1.
          2   -1    0    0  501    0  0.00000000000E+00 -0.00000000000E+00 -0.40751143519E+03  0.40751143520E+03  0.25500000000E-02 0.  1.
   -5000001    1    1    2    0    0  0.33776900860E+03  0.53505996216E+02  0.30642915439E+03  0.52282848187E+03  0.25000000000E+03 0.  0.
    5000001    1    1    2    0    0 -0.33776900860E+03 -0.53505996216E+02 -0.14942558930E+03  0.44919795362E+03  0.25000000000E+03 0.  0.
<mgrwt>
<rscale>  0 0.95926288E+03</rscale>
<asrwt>0</asrwt>
<pdfrwt beam="1">  1        2 0.62694068E-01 0.95926288E+03</pdfrwt>
<pdfrwt beam="2">  1       -2 0.86848461E-01 0.95926288E+03</pdfrwt>
<totfact> 0.89412244E+01</totfact>
</mgrwt>
</event>
<event>
 4    1  0.1806019E-005  0.6133173E+03  0.7818608E-02  0.9878156E-01
          2   -1    0    0  501    0  0.00000000000E+00  0.00000000000E+00  0.12537168434E+03  0.12537168436E+03  0.25500000000E-02 0.  1.
         -2   -1    0    0    0  501 -0.00000000000E+00 -0.00000000000E+00 -0.75008583828E+03  0.75008583828E+03  0.25500000000E-02 0. -1.
   -5000001    1    1    2    0    0  0.15320027470E+03 -0.85345852533E+02 -0.35235743375E+03  0.46627245236E+03  0.25000000000E+03 0.  0.
    5000001    1    1    2    0    0 -0.15320027470E+03  0.85345852533E+02 -0.27235672019E+03  0.40918507029E+03  0.25000000000E+03 0.  0.
<mgrwt>
<rscale>  0 0.61331729E+03</rscale>
<asrwt>0</asrwt>
<pdfrwt beam="1">  1        2 0.19287952E-01 0.61331729E+03</pdfrwt>
<pdfrwt beam="2">  1       -2 0.11539782E+00 0.61331729E+03</pdfrwt>
<totfact> 0.17564938E+02</totfact>
</mgrwt>
</event>
<event>
 4    1  0.1806019E-005  0.5703399E+03  0.7818608E-02  0.9968927E-01
          2   -1    0    0  501    0  0.00000000000E+00  0.00000000000E+00  0.18234099420E+04  0.18234099420E+04  0.25500000000E-02 0.  1.
         -2   -1    0    0    0  501 -0.00000000000E+00 -0.00000000000E+00 -0.44598807633E+02  0.44598807706E+02  0.25500000000E-02 0. -1.
   -5000001    1    1    2    0    0  0.98892988608E+02 -0.72833607916E+02  0.10896346278E+04  0.11246724766E+04  0.25000000000E+03 0.  0.
    5000001    1    1    2    0    0 -0.98892988608E+02  0.72833607916E+02  0.68917650658E+03  0.74333627306E+03  0.25000000000E+03 0.  0.
<mgrwt>
<rscale>  0 0.57033993E+03</rscale>
<asrwt>0</asrwt>
<pdfrwt beam="1">  1        2 0.28052466E+00 0.57033993E+03</pdfrwt>
<pdfrwt beam="2">  1       -2 0.68613538E-02 0.57033993E+03</pdfrwt>
<totfact> 0.10824987E+03</totfact>
</mgrwt>
</event>
<event>
 4    1  0.1806019E-005  0.8684194E+03  0.7818608E-02  0.9465943E-01
         -2   -1    0    0    0  501 -0.00000000000E+00  0.00000000000E+00  0.13457843420E+03  0.13457843422E+03  0.25500000000E-02 0. -1.
          2   -1    0    0  501    0  0.00000000000E+00 -0.00000000000E+00 -0.14009528599E+04  0.14009528599E+04  0.25500000000E-02 0.  1.
   -5000001    1    1    2    0    0  0.35475327700E+03  0.39328072565E+01 -0.60995128772E+03  0.74860265021E+03  0.25000000000E+03 0.  0.
    5000001    1    1    2    0    0 -0.35475327700E+03 -0.39328072565E+01 -0.65642313796E+03  0.78692864388E+03  0.25000000000E+03 0.  0.
<mgrwt>
<rscale>  0 0.86841935E+03</rscale>
<asrwt>0</asrwt>
<pdfrwt beam="1">  1        2 0.21553120E+00 0.86841935E+03</pdfrwt>
<pdfrwt beam="2">  1       -2 0.20704375E-01 0.86841935E+03</pdfrwt>
<totfact> 0.29158329E+02</totfact>
</mgrwt>
</event>
<event>
 4    1  0.1806019E-005  0.1274562E+04  0.7818608E-02  0.9049985E-01
          2   -1    0    0  501    0  0.00000000000E+00  0.00000000000E+00  0.14721000704E+03  0.14721000706E+03  0.25500000000E-02 0. -1.
         -2   -1    0    0    0  501 -0.00000000000E+00 -0.00000000000E+00 -0.27588264008E+04  0.27588264008E+04  0.25500000000E-02 0.  1.
   -5000001    1    1    2    0    0  0.58586195602E+03 -0.19127575529E+02 -0.13176024119E+04  0.14636175086E+04  0.25000000000E+03 0.  0.
    5000001    1    1    2    0    0 -0.58586195602E+03  0.19127575529E+02 -0.12940139818E+04  0.14424188992E+04  0.25000000000E+03 0.  0.
<mgrwt>
<rscale>  0 0.12745617E+04</rscale>
<asrwt>0</asrwt>
<pdfrwt beam="1">  1        2 0.22647695E-01 0.12745617E+04</pdfrwt>
<pdfrwt beam="2">  1       -2 0.42443479E+00 0.12745617E+04</pdfrwt>
<totfact> 0.12588335E+00</totfact>
</mgrwt>
</event>
<event>
 4    1  0.1806019E-005  0.6034655E+03  0.7818608E-02  0.9898242E-01
          2   -1    0    0  501    0  0.00000000000E+00  0.00000000000E+00  0.14787602005E+04  0.14787602005E+04  0.25500000000E-02 0.  1.
         -2   -1    0    0    0  501 -0.00000000000E+00 -0.00000000000E+00 -0.61566881002E+02  0.61566881054E+02  0.25500000000E-02 0. -1.
   -5000001    1    1    2    0    0 -0.26373585350E+02 -0.16650207029E+03  0.73703670113E+03  0.79633008497E+03  0.25000000000E+03 0.  0.
    5000001    1    1    2    0    0  0.26373585350E+02  0.16650207029E+03  0.68015661834E+03  0.74399699656E+03  0.25000000000E+03 0.  0.
<mgrwt>
<rscale>  0 0.60346550E+03</rscale>
<asrwt>0</asrwt>
<pdfrwt beam="1">  1        2 0.22750157E+00 0.60346550E+03</pdfrwt>
<pdfrwt beam="2">  1       -2 0.94718278E-02 0.60346550E+03</pdfrwt>
<totfact> 0.99598660E+02</totfact>
</mgrwt>
</event>
<event>
 4    1  0.1806019E-005  0.6126508E+03  0.7818608E-02  0.9879502E-01
         -2   -1    0    0    0  501 -0.00000000000E+00  0.00000000000E+00  0.27948010979E+02  0.27948011096E+02  0.25500000000E-02 0. -1.
          2   -1    0    0  501    0  0.00000000000E+00 -0.00000000000E+00 -0.33574933210E+04  0.33574933210E+04  0.25500000000E-02 0.  1.
   -5000001    1    1    2    0    0  0.12804463641E+03 -0.12036574865E+03 -0.15473012668E+04  0.15771888133E+04  0.25000000000E+03 0.  0.
    5000001    1    1    2    0    0 -0.12804463641E+03  0.12036574865E+03 -0.17822440431E+04  0.18082525188E+04  0.25000000000E+03 0.  0.
<mgrwt>
<rscale>  0 0.61265083E+03</rscale>
<asrwt>0</asrwt>
<pdfrwt beam="1">  1        2 0.51653712E+00 0.61265083E+03</pdfrwt>
<pdfrwt beam="2">  1       -2 0.42996967E-02 0.61265083E+03</pdfrwt>
<totfact> 0.28940338E+02</totfact>
</mgrwt>
</event>
<event>
 4    1  0.1806019E-005  0.7104387E+03  0.7818608E-02  0.9699545E-01
         -2   -1    0    0    0  501 -0.00000000000E+00  0.00000000000E+00  0.30030163698E+02  0.30030163807E+02  0.25500000000E-02 0. -1.
          2   -1    0    0  501    0  0.00000000000E+00 -0.00000000000E+00 -0.42018011018E+04  0.42018011018E+04  0.25500000000E-02 0.  1.
   -5000001    1    1    2    0    0 -0.17973924622E+01  0.21336062128E+03 -0.12832887790E+04  0.13247098081E+04  0.25000000000E+03 0.  0.
    5000001    1    1    2    0    0  0.17973924622E+01 -0.21336062128E+03 -0.28884821591E+04  0.29071214575E+04  0.25000000000E+03 0.  0.
<mgrwt>
<rscale>  0 0.71043867E+03</rscale>
<asrwt>0</asrwt>
<pdfrwt beam="1">  1        2 0.64643047E+00 0.71043867E+03</pdfrwt>
<pdfrwt beam="2">  1       -2 0.46200285E-02 0.71043867E+03</pdfrwt>
<totfact> 0.60627912E+01</totfact>
</mgrwt>
</event>
<event>
 4    1  0.1806019E-005  0.1132945E+04  0.7818608E-02  0.9173663E-01
          2   -1    0    0  501    0  0.00000000000E+00  0.00000000000E+00  0.15302561900E+04  0.15302561900E+04  0.25500000000E-02 0.  1.
         -2   -1    0    0    0  501 -0.00000000000E+00 -0.00000000000E+00 -0.20969755292E+03  0.20969755293E+03  0.25500000000E-02 0. -1.
   -5000001    1    1    2    0    0 -0.98812331684E+02  0.45467493522E+03  0.97463736968E+03  0.11085626622E+04  0.25000000000E+03 0.  0.
    5000001    1    1    2    0    0  0.98812331684E+02 -0.45467493522E+03  0.34592126740E+03  0.63139108075E+03  0.25000000000E+03 0.  0.
<mgrwt>
<rscale>  0 0.11329448E+04</rscale>
<asrwt>0</asrwt>
<pdfrwt beam="1">  1        2 0.23542404E+00 0.11329448E+04</pdfrwt>
<pdfrwt beam="2">  1       -2 0.32261161E-01 0.11329448E+04</pdfrwt>
<totfact> 0.10811421E+02</totfact>
</mgrwt>
</event>
<event>
 4    1  0.1806019E-005  0.6276181E+03  0.7818608E-02  0.9849708E-01
          2   -1    0    0  501    0  0.00000000000E+00  0.00000000000E+00  0.11263118470E+04  0.11263118470E+04  0.25500000000E-02 0.  1.
         -2   -1    0    0    0  501 -0.00000000000E+00 -0.00000000000E+00 -0.87432362427E+02  0.87432362464E+02  0.25500000000E-02 0. -1.
   -5000001    1    1    2    0    0  0.35077218913E+02  0.16796255079E+03  0.67576547617E+03  0.74067591329E+03  0.25000000000E+03 0.  0.
    5000001    1    1    2    0    0 -0.35077218913E+02 -0.16796255079E+03  0.36311400845E+03  0.47306829622E+03  0.25000000000E+03 0.  0.
<mgrwt>
<rscale>  0 0.62761805E+03</rscale>
<asrwt>0</asrwt>
<pdfrwt beam="1">  1        2 0.17327875E+00 0.62761805E+03</pdfrwt>
<pdfrwt beam="2">  1       -2 0.13451133E-01 0.62761805E+03</pdfrwt>
<totfact> 0.89222874E+02</totfact>
</mgrwt>
</event>
<event>
 4    1  0.1806019E-005  0.5485812E+03  0.7818608E-02  0.1001823E+00
          2   -1    0    0  501    0  0.00000000000E+00  0.00000000000E+00  0.20513997474E+04  0.20513997474E+04  0.25500000000E-02 0.  1.
         -2   -1    0    0    0  501 -0.00000000000E+00 -0.00000000000E+00 -0.36675118094E+02  0.36675118182E+02  0.25500000000E-02 0. -1.
   -5000001    1    1    2    0    0 -0.51462576217E+02  0.64659593704E+01  0.13888519855E+04  0.14121260720E+04  0.25000000000E+03 0.  0.
    5000001    1    1    2    0    0  0.51462576217E+02 -0.64659593704E+01  0.62587264376E+03  0.67594879362E+03  0.25000000000E+03 0.  0.
<mgrwt>
<rscale>  0 0.54858118E+03</rscale>
<asrwt>0</asrwt>
<pdfrwt beam="1">  1        2 0.31559997E+00 0.54858118E+03</pdfrwt>
<pdfrwt beam="2">  1       -2 0.56423257E-02 0.54858118E+03</pdfrwt>
<totfact> 0.11092904E+03</totfact>
</mgrwt>
</event>
<event>
 4    1  0.1806019E-005  0.7376965E+03  0.7818608E-02  0.9654853E-01
         -2   -1    0    0    0  501 -0.00000000000E+00  0.00000000000E+00  0.18256040382E+03  0.18256040384E+03  0.25500000000E-02 0. -1.
          2   -1    0    0  501    0  0.00000000000E+00 -0.00000000000E+00 -0.74522749931E+03  0.74522749932E+03  0.25500000000E-02 0.  1.
   -5000001    1    1    2    0    0 -0.39068262069E+02  0.70877943850E+02  0.44207089364E+02  0.26646628075E+03  0.25000000000E+03 0.  0.
    5000001    1    1    2    0    0  0.39068262069E+02 -0.70877943850E+02 -0.60687418486E+03  0.66132162241E+03  0.25000000000E+03 0.  0.
<mgrwt>
<rscale>  0 0.73769650E+03</rscale>
<asrwt>0</asrwt>
<pdfrwt beam="1">  1        2 0.11465038E+00 0.73769650E+03</pdfrwt>
<pdfrwt beam="2">  1       -2 0.28086216E-01 0.73769650E+03</pdfrwt>
<totfact> 0.44056208E+02</totfact>
</mgrwt>
</event>
<event>
 4    1  0.1806019E-005  0.6058547E+03  0.7818608E-02  0.9893333E-01
         -2   -1    0    0    0  501 -0.00000000000E+00  0.00000000000E+00  0.27143719750E+02  0.27143719869E+02  0.25500000000E-02 0.  1.
          2   -1    0    0  501    0  0.00000000000E+00 -0.00000000000E+00 -0.33807072305E+04  0.33807072305E+04  0.25500000000E-02 0. -1.
   -5000001    1    1    2    0    0  0.15496283239E+03  0.61951980122E+02 -0.14653105623E+04  0.14958230414E+04  0.25000000000E+03 0.  0.
    5000001    1    1    2    0    0 -0.15496283239E+03 -0.61951980122E+02 -0.18882529485E+04  0.19120279090E+04  0.25000000000E+03 0.  0.
<mgrwt>
<rscale>  0 0.60585467E+03</rscale>
<asrwt>0</asrwt>
<pdfrwt beam="1">  1        2 0.52010847E+00 0.60585467E+03</pdfrwt>
<pdfrwt beam="2">  1       -2 0.41759596E-02 0.60585467E+03</pdfrwt>
<totfact> 0.29252709E+02</totfact>
</mgrwt>
</event>
<event>
 4    1  0.1806019E-005  0.7751978E+03  0.7818608E-02  0.9596628E-01
         -2   -1    0    0    0  501 -0.00000000000E+00  0.00000000000E+00  0.92905965895E+02  0.92905965930E+02  0.25500000000E-02 0. -1.
          2   -1    0    0  501    0  0.00000000000E+00 -0.00000000000E+00 -0.16170425494E+04  0.16170425494E+04  0.25500000000E-02 0.  1.
   -5000001    1    1    2    0    0 -0.22078836162E+03  0.18076769341E+03 -0.58686933546E+03  0.69881333452E+03  0.25000000000E+03 0.  0.
    5000001    1    1    2    0    0  0.22078836162E+03 -0.18076769341E+03 -0.93726724803E+03  0.10111351808E+04  0.25000000000E+03 0.  0.
<mgrwt>
<rscale>  0 0.77519778E+03</rscale>
<asrwt>0</asrwt>
<pdfrwt beam="1">  1        2 0.24877576E+00 0.77519778E+03</pdfrwt>
<pdfrwt beam="2">  1       -2 0.14293227E-01 0.77519778E+03</pdfrwt>
<totfact> 0.42016907E+02</totfact>
</mgrwt>
</event>
<event>
 4    1  0.1806019E-005  0.7589617E+03  0.7818608E-02  0.9621395E-01
         -2   -1    0    0    0  501 -0.00000000000E+00  0.00000000000E+00  0.86951658600E+03  0.86951658600E+03  0.25500000000E-02 0. -1.
          2   -1    0    0  501    0  0.00000000000E+00 -0.00000000000E+00 -0.16561584877E+03  0.16561584879E+03  0.25500000000E-02 0.  1.
   -5000001    1    1    2    0    0  0.96373411756E+01  0.15591406439E+03  0.26032638696E+02  0.29593879789E+03  0.25000000000E+03 0.  0.
    5000001    1    1    2    0    0 -0.96373411756E+01 -0.15591406439E+03  0.67786809854E+03  0.73919363690E+03  0.25000000000E+03 0.  0.
<mgrwt>
<rscale>  0 0.75896173E+03</rscale>
<asrwt>0</asrwt>
<pdfrwt beam="1">  1        2 0.25479361E-01 0.75896173E+03</pdfrwt>
<pdfrwt beam="2">  1       -2 0.13377178E+00 0.75896173E+03</pdfrwt>
<totfact> 0.87404237E+01</totfact>
</mgrwt>
</event>
<event>
 4    1  0.1806019E-005  0.5824684E+03  0.7818608E-02  0.9942461E-01
          2   -1    0    0  501    0  0.00000000000E+00  0.00000000000E+00  0.12440149498E+03  0.12440149500E+03  0.25500000000E-02 0.  1.
         -2   -1    0    0    0  501 -0.00000000000E+00 -0.00000000000E+00 -0.68180343214E+03  0.68180343215E+03  0.25500000000E-02 0. -1.
   -5000001    1    1    2    0    0  0.75090887166E+02  0.97095276686E+02 -0.39656436888E+03  0.48459202712E+03  0.25000000000E+03 0.  0.
    5000001    1    1    2    0    0 -0.75090887166E+02 -0.97095276686E+02 -0.16083756829E+03  0.32161290002E+03  0.25000000000E+03 0.  0.
<mgrwt>
<rscale>  0 0.58246842E+03</rscale>
<asrwt>0</asrwt>
<pdfrwt beam="1">  1        2 0.19138692E-01 0.58246842E+03</pdfrwt>
<pdfrwt beam="2">  1       -2 0.10489283E+00 0.58246842E+03</pdfrwt>
<totfact> 0.22333765E+02</totfact>
</mgrwt>
</event>
<event>
 4    1  0.1806019E-005  0.6077548E+03  0.7818608E-02  0.9889447E-01
          2   -1    0    0  501    0  0.00000000000E+00  0.00000000000E+00  0.63668473851E+03  0.63668473851E+03  0.25500000000E-02 0.  1.
         -2   -1    0    0    0  501 -0.00000000000E+00 -0.00000000000E+00 -0.14503485806E+03  0.14503485808E+03  0.25500000000E-02 0. -1.
   -5000001    1    1    2    0    0  0.16745733858E+03  0.20437059213E+01  0.19132495444E+03  0.35658291486E+03  0.25000000000E+03 0.  0.
    5000001    1    1    2    0    0 -0.16745733858E+03 -0.20437059213E+01  0.30032492600E+03  0.42513668173E+03  0.25000000000E+03 0.  0.
<mgrwt>
<rscale>  0 0.60775482E+03</rscale>
<asrwt>0</asrwt>
<pdfrwt beam="1">  1        2 0.97951498E-01 0.60775482E+03</pdfrwt>
<pdfrwt beam="2">  1       -2 0.22313055E-01 0.60775482E+03</pdfrwt>
<totfact> 0.81502648E+02</totfact>
</mgrwt>
</event>
<event>
 4    1  0.1806019E-005  0.1038093E+04  0.7818608E-02  0.9267725E-01
         -2   -1    0    0    0  501 -0.00000000000E+00  0.00000000000E+00  0.16751698334E+03  0.16751698336E+03  0.25500000000E-02 0. -1.
          2   -1    0    0  501    0  0.00000000000E+00 -0.00000000000E+00 -0.16082493722E+04  0.16082493722E+04  0.25500000000E-02 0.  1.
   -5000001    1    1    2    0    0 -0.30535418885E+03  0.33227906804E+03 -0.81801347355E+03  0.96710733769E+03  0.25000000000E+03 0.  0.
    5000001    1    1    2    0    0  0.30535418885E+03 -0.33227906804E+03 -0.62271891531E+03  0.80865901787E+03  0.25000000000E+03 0.  0.
<mgrwt>
<rscale>  0 0.10380926E+04</rscale>
<asrwt>0</asrwt>
<pdfrwt beam="1">  1        2 0.24742297E+00 0.10380926E+04</pdfrwt>
<pdfrwt beam="2">  1       -2 0.25771845E-01 0.10380926E+04</pdfrwt>
<totfact> 0.14917267E+02</totfact>
</mgrwt>
</event>
<event>
 4    1  0.1806019E-005  0.6583897E+03  0.7818608E-02  0.9791163E-01
          2   -1    0    0  501    0  0.00000000000E+00  0.00000000000E+00  0.89341456017E+02  0.89341456053E+02  0.25500000000E-02 0.  1.
         -2   -1    0    0    0  501 -0.00000000000E+00 -0.00000000000E+00 -0.12129783302E+04  0.12129783302E+04  0.25500000000E-02 0. -1.
   -5000001    1    1    2    0    0 -0.10565867389E+03  0.11053754201E+03 -0.85843804285E+03  0.90708223275E+03  0.25000000000E+03 0.  0.
    5000001    1    1    2    0    0  0.10565867389E+03 -0.11053754201E+03 -0.26519883135E+03  0.39523755352E+03  0.25000000000E+03 0.  0.
<mgrwt>
<rscale>  0 0.65838970E+03</rscale>
<asrwt>0</asrwt>
<pdfrwt beam="1">  1        2 0.13744840E-01 0.65838970E+03</pdfrwt>
<pdfrwt beam="2">  1       -2 0.18661204E+00 0.65838970E+03</pdfrwt>
<totfact> 0.74378446E+01</totfact>
</mgrwt>
</event>
<event>
 4    1  0.1806019E-005  0.8113837E+03  0.7818608E-02  0.9543684E-01
          2   -1    0    0  501    0  0.00000000000E+00  0.00000000000E+00  0.99312077139E+03  0.99312077139E+03  0.25500000000E-02 0. -1.
         -2   -1    0    0    0  501 -0.00000000000E+00 -0.00000000000E+00 -0.16572594040E+03  0.16572594042E+03  0.25500000000E-02 0.  1.
   -5000001    1    1    2    0    0 -0.44924700111E+02 -0.22349997728E+03  0.73342885407E+03  0.80770561005E+03  0.25000000000E+03 0.  0.
    5000001    1    1    2    0    0  0.44924700111E+02  0.22349997728E+03  0.93965976920E+02  0.35114110176E+03  0.25000000000E+03 0.  0.
<mgrwt>
<rscale>  0 0.81138369E+03</rscale>
<asrwt>0</asrwt>
<pdfrwt beam="1">  1        2 0.15278781E+00 0.81138369E+03</pdfrwt>
<pdfrwt beam="2">  1       -2 0.25496298E-01 0.81138369E+03</pdfrwt>
<totfact> 0.35349423E+02</totfact>
</mgrwt>
</event>
<event>
 4    1  0.1806019E-005  0.9869408E+03  0.7818608E-02  0.9322985E-01
         -2   -1    0    0    0  501 -0.00000000000E+00  0.00000000000E+00  0.28669672519E+03  0.28669672520E+03  0.25500000000E-02 0. -1.
          2   -1    0    0  501    0  0.00000000000E+00 -0.00000000000E+00 -0.84937509525E+03  0.84937509526E+03  0.25500000000E-02 0.  1.
   -5000001    1    1    2    0    0  0.31963596755E+03 -0.27341510042E+03 -0.35495668483E+03  0.60449749131E+03  0.25000000000E+03 0.  0.
    5000001    1    1    2    0    0 -0.31963596755E+03  0.27341510042E+03 -0.20772168523E+03  0.53157432915E+03  0.25000000000E+03 0.  0.
<mgrwt>
<rscale>  0 0.98694085E+03</rscale>
<asrwt>0</asrwt>
<pdfrwt beam="1">  1        2 0.13067309E+00 0.98694085E+03</pdfrwt>
<pdfrwt beam="2">  1       -2 0.44107189E-01 0.98694085E+03</pdfrwt>
<totfact> 0.15465241E+02</totfact>
</mgrwt>
</event>
<event>
 4    1  0.1806019E-005  0.6132275E+03  0.7818608E-02  0.9878337E-01
         -2   -1    0    0    0  501 -0.00000000000E+00  0.00000000000E+00  0.67077709435E+02  0.67077709483E+02  0.25500000000E-02 0. -1.
          2   -1    0    0  501    0  0.00000000000E+00 -0.00000000000E+00 -0.14015385024E+04  0.14015385024E+04  0.25500000000E-02 0.  1.
   -5000001    1    1    2    0    0 -0.11540330434E+03 -0.10300418502E+03 -0.87579557540E+03  0.92382123524E+03  0.25000000000E+03 0.  0.
    5000001    1    1    2    0    0  0.11540330434E+03  0.10300418502E+03 -0.45866521760E+03  0.54479497668E+03  0.25000000000E+03 0.  0.
<mgrwt>
<rscale>  0 0.61322750E+03</rscale>
<asrwt>0</asrwt>
<pdfrwt beam="1">  1        2 0.21562129E+00 0.61322750E+03</pdfrwt>
<pdfrwt beam="2">  1       -2 0.10319649E-01 0.61322750E+03</pdfrwt>
<totfact> 0.95671284E+02</totfact>
</mgrwt>
</event>
<event>
 4    1  0.1806019E-005  0.8678043E+03  0.7818608E-02  0.9466747E-01
         -2   -1    0    0    0  501 -0.00000000000E+00  0.00000000000E+00  0.49812180935E+03  0.49812180935E+03  0.25500000000E-02 0. -1.
          2   -1    0    0  501    0  0.00000000000E+00 -0.00000000000E+00 -0.37796190357E+03  0.37796190358E+03  0.25500000000E-02 0.  1.
   -5000001    1    1    2    0    0 -0.25479375896E+03  0.14385222075E+03 -0.14222591712E+03  0.41029444613E+03  0.25000000000E+03 0.  0.
    5000001    1    1    2    0    0  0.25479375896E+03 -0.14385222075E+03  0.26238582289E+03  0.46578926681E+03  0.25000000000E+03 0.  0.
<mgrwt>
<rscale>  0 0.86780428E+03</rscale>
<asrwt>0</asrwt>
<pdfrwt beam="1">  1        2 0.58147985E-01 0.86780428E+03</pdfrwt>
<pdfrwt beam="2">  1       -2 0.76634124E-01 0.86780428E+03</pdfrwt>
<totfact> 0.12970510E+02</totfact>
</mgrwt>
</event>
<event>
 4    1  0.1806019E-005  0.6180908E+03  0.7818608E-02  0.9868568E-01
         -2   -1    0    0    0  501 -0.00000000000E+00  0.00000000000E+00  0.16720232661E+03  0.16720232662E+03  0.25500000000E-02 0. -1.
          2   -1    0    0  501    0  0.00000000000E+00 -0.00000000000E+00 -0.57121848307E+03  0.57121848308E+03  0.25500000000E-02 0.  1.
   -5000001    1    1    2    0    0  0.12587613751E+03  0.96809451136E+02 -0.30746651910E+03  0.42691044985E+03  0.25000000000E+03 0.  0.
    5000001    1    1    2    0    0 -0.12587613751E+03 -0.96809451136E+02 -0.96549637374E+02  0.31151035986E+03  0.25000000000E+03 0.  0.
<mgrwt>
<rscale>  0 0.61809080E+03</rscale>
<asrwt>0</asrwt>
<pdfrwt beam="1">  1        2 0.87879766E-01 0.61809080E+03</pdfrwt>
<pdfrwt beam="2">  1       -2 0.25723435E-01 0.61809080E+03</pdfrwt>
<totfact> 0.71998790E+02</totfact>
</mgrwt>
</event>
<event>
 4    1  0.1806019E-005  0.8494167E+03  0.7818608E-02  0.9491120E-01
          2   -1    0    0  501    0  0.00000000000E+00  0.00000000000E+00  0.17113734399E+04  0.17113734399E+04  0.25500000000E-02 0.  1.
         -2   -1    0    0    0  501 -0.00000000000E+00 -0.00000000000E+00 -0.10539906641E+03  0.10539906644E+03  0.25500000000E-02 0. -1.
   -5000001    1    1    2    0    0 -0.29052972292E+03 -0.12328997705E+03  0.10920816900E+04  0.11639374364E+04  0.25000000000E+03 0.  0.
    5000001    1    1    2    0    0  0.29052972292E+03  0.12328997705E+03  0.51389268349E+03  0.65283506990E+03  0.25000000000E+03 0.  0.
<mgrwt>
<rscale>  0 0.84941665E+03</rscale>
<asrwt>0</asrwt>
<pdfrwt beam="1">  1        2 0.26328820E+00 0.84941665E+03</pdfrwt>
<pdfrwt beam="2">  1       -2 0.16215242E-01 0.84941665E+03</pdfrwt>
<totfact> 0.29961798E+02</totfact>
</mgrwt>
</event>
<event>
 4    1  0.1806019E-005  0.8145599E+03  0.7818608E-02  0.9539178E-01
          2   -1    0    0  501    0  0.00000000000E+00  0.00000000000E+00  0.18072824912E+04  0.18072824912E+04  0.25500000000E-02 0.  1.
         -2   -1    0    0    0  501 -0.00000000000E+00 -0.00000000000E+00 -0.91782534566E+02  0.91782534601E+02  0.25500000000E-02 0. -1.
   -5000001    1    1    2    0    0  0.26594750175E+03 -0.18056997563E+03  0.84239492230E+03  0.93566168828E+03  0.25000000000E+03 0.  0.
    5000001    1    1    2    0    0 -0.26594750175E+03  0.18056997563E+03  0.87310503436E+03  0.96340333756E+03  0.25000000000E+03 0.  0.
<mgrwt>
<rscale>  0 0.81455992E+03</rscale>
<asrwt>0</asrwt>
<pdfrwt beam="1">  1        2 0.27804344E+00 0.81455992E+03</pdfrwt>
<pdfrwt beam="2">  1       -2 0.14120391E-01 0.81455992E+03</pdfrwt>
<totfact> 0.33645191E+02</totfact>
</mgrwt>
</event>
<event>
 4    1  0.1806019E-005  0.1229524E+04  0.7818608E-02  0.9087400E-01
         -2   -1    0    0    0  501 -0.00000000000E+00  0.00000000000E+00  0.21296577189E+03  0.21296577191E+03  0.25500000000E-02 0. -1.
          2   -1    0    0  501    0  0.00000000000E+00 -0.00000000000E+00 -0.17746156664E+04  0.17746156664E+04  0.25500000000E-02 0.  1.
   -5000001    1    1    2    0    0 -0.72879041511E+02  0.53075565201E+03 -0.10533434085E+04  0.12079094556E+04  0.25000000000E+03 0.  0.
    5000001    1    1    2    0    0  0.72879041511E+02 -0.53075565201E+03 -0.50830648606E+03  0.77967198270E+03  0.25000000000E+03 0.  0.
<mgrwt>
<rscale>  0 0.12295241E+04</rscale>
<asrwt>0</asrwt>
<pdfrwt beam="1">  1        2 0.27301778E+00 0.12295241E+04</pdfrwt>
<pdfrwt beam="2">  1       -2 0.32763966E-01 0.12295241E+04</pdfrwt>
<totfact> 0.76268782E+01</totfact>
</mgrwt>
</event>
<event>
 4    1  0.1806019E-005  0.8236823E+03  0.7818608E-02  0.9526357E-01
         -2   -1    0    0    0  501 -0.00000000000E+00  0.00000000000E+00  0.24990491569E+03  0.24990491570E+03  0.25500000000E-02 0.  1.
          2   -1    0    0  501    0  0.00000000000E+00 -0.00000000000E+00 -0.67871070234E+03  0.67871070234E+03  0.25500000000E-02 0. -1.
   -5000001    1    1    2    0    0  0.23939398734E+03  0.13314719222E+03 -0.41631523005E+03  0.55754464104E+03  0.25000000000E+03 0.  0.
    5000001    1    1    2    0    0 -0.23939398734E+03 -0.13314719222E+03 -0.12490556597E+02  0.37107097701E+03  0.25000000000E+03 0.  0.
<mgrwt>
<rscale>  0 0.82368232E+03</rscale>
<asrwt>0</asrwt>
<pdfrwt beam="1">  1        2 0.10441703E+00 0.82368232E+03</pdfrwt>
<pdfrwt beam="2">  1       -2 0.38446911E-01 0.82368232E+03</pdfrwt>
<totfact> 0.27357528E+02</totfact>
</mgrwt>
</event>
<event>
 4    1  0.1806019E-005  0.7866408E+03  0.7818608E-02  0.9579558E-01
         -2   -1    0    0    0  501 -0.00000000000E+00  0.00000000000E+00  0.50029980628E+03  0.50029980628E+03  0.25500000000E-02 0. -1.
          2   -1    0    0  501    0  0.00000000000E+00 -0.00000000000E+00 -0.30921648230E+03  0.30921648231E+03  0.25500000000E-02 0.  1.
   -5000001    1    1    2    0    0 -0.25296426754E+03 -0.15911015950E+03  0.15090178877E+03  0.41782569734E+03  0.25000000000E+03 0.  0.
    5000001    1    1    2    0    0  0.25296426754E+03  0.15911015950E+03  0.40181535201E+02  0.39169059126E+03  0.25000000000E+03 0.  0.
<mgrwt>
<rscale>  0 0.78664082E+03</rscale>
<asrwt>0</asrwt>
<pdfrwt beam="1">  1        2 0.47571767E-01 0.78664082E+03</pdfrwt>
<pdfrwt beam="2">  1       -2 0.76969200E-01 0.78664082E+03</pdfrwt>
<totfact> 0.16127780E+02</totfact>
</mgrwt>
</event>
<event>
 4    1  0.1806019E-005  0.7789100E+03  0.7818608E-02  0.9591056E-01
          2   -1    0    0  501    0  0.00000000000E+00  0.00000000000E+00  0.89449773704E+03  0.89449773704E+03  0.25500000000E-02 0.  1.
         -2   -1    0    0    0  501 -0.00000000000E+00 -0.00000000000E+00 -0.16956467315E+03  0.16956467317E+03  0.25500000000E-02 0. -1.
   -5000001    1    1    2    0    0  0.47604508614E+02 -0.29178744012E+03  0.41992553270E+03  0.57117733889E+03  0.25000000000E+03 0.  0.
    5000001    1    1    2    0    0 -0.47604508614E+02  0.29178744012E+03  0.30500753118E+03  0.49288507132E+03  0.25000000000E+03 0.  0.
<mgrwt>
<rscale>  0 0.77891005E+03</rscale>
<asrwt>0</asrwt>
<pdfrwt beam="1">  1        2 0.13761504E+00 0.77891005E+03</pdfrwt>
<pdfrwt beam="2">  1       -2 0.26086873E-01 0.77891005E+03</pdfrwt>
<totfact> 0.39430373E+02</totfact>
</mgrwt>
</event>
<event>
 4    1  0.1806019E-005  0.6758068E+03  0.7818608E-02  0.9759524E-01
          2   -1    0    0  501    0  0.00000000000E+00  0.00000000000E+00  0.31077601913E+04  0.31077601913E+04  0.25500000000E-02 0.  1.
         -2   -1    0    0    0  501 -0.00000000000E+00 -0.00000000000E+00 -0.36739868070E+02  0.36739868158E+02  0.25500000000E-02 0. -1.
   -5000001    1    1    2    0    0  0.16736179446E+03  0.13059286633E+03  0.19139255567E+04  0.19418227271E+04  0.25000000000E+03 0.  0.
    5000001    1    1    2    0    0 -0.16736179446E+03 -0.13059286633E+03  0.11570947665E+04  0.12026773323E+04  0.25000000000E+03 0.  0.
<mgrwt>
<rscale>  0 0.67580678E+03</rscale>
<asrwt>0</asrwt>
<pdfrwt beam="1">  1        2 0.47811705E+00 0.67580678E+03</pdfrwt>
<pdfrwt beam="2">  1       -2 0.56522862E-02 0.67580678E+03</pdfrwt>
<totfact> 0.27108928E+02</totfact>
</mgrwt>
</event>
<event>
 4    1  0.1806019E-005  0.5825822E+03  0.7818608E-02  0.9942216E-01
          2   -1    0    0  501    0  0.00000000000E+00  0.00000000000E+00  0.12727223062E+04  0.12727223062E+04  0.25500000000E-02 0.  1.
         -2   -1    0    0    0  501 -0.00000000000E+00 -0.00000000000E+00 -0.66668523416E+02  0.66668523464E+02  0.25500000000E-02 0. -1.
   -5000001    1    1    2    0    0  0.13773062948E+03  0.31467981469E+01  0.73650875413E+03  0.78988908939E+03  0.25000000000E+03 0.  0.
    5000001    1    1    2    0    0 -0.13773062948E+03 -0.31467981469E+01  0.46954502869E+03  0.54950174031E+03  0.25000000000E+03 0.  0.
<mgrwt>
<rscale>  0 0.58258224E+03</rscale>
<asrwt>0</asrwt>
<pdfrwt beam="1">  1        2 0.19580343E+00 0.58258224E+03</pdfrwt>
<pdfrwt beam="2">  1       -2 0.10256696E-01 0.58258224E+03</pdfrwt>
<totfact> 0.11448595E+03</totfact>
</mgrwt>
</event>
<event>
 4    1  0.1806019E-005  0.7955876E+03  0.7818608E-02  0.9566426E-01
         -2   -1    0    0    0  501 -0.00000000000E+00  0.00000000000E+00  0.18743855705E+03  0.18743855706E+03  0.25500000000E-02 0. -1.
          2   -1    0    0  501    0  0.00000000000E+00 -0.00000000000E+00 -0.84422283807E+03  0.84422283807E+03  0.25500000000E-02 0.  1.
   -5000001    1    1    2    0    0 -0.26817140782E+02  0.27583888460E+03 -0.14996271737E+03  0.40223757395E+03  0.25000000000E+03 0.  0.
    5000001    1    1    2    0    0  0.26817140782E+02 -0.27583888460E+03 -0.50682156365E+03  0.62942382119E+03  0.25000000000E+03 0.  0.
<mgrwt>
<rscale>  0 0.79558761E+03</rscale>
<asrwt>0</asrwt>
<pdfrwt beam="1">  1        2 0.12988043E+00 0.79558761E+03</pdfrwt>
<pdfrwt beam="2">  1       -2 0.28836702E-01 0.79558761E+03</pdfrwt>
<totfact> 0.35511469E+02</totfact>
</mgrwt>
</event>
<event>
 4    1  0.1806019E-005  0.5875110E+03  0.7818608E-02  0.9931661E-01
         -2   -1    0    0    0  501 -0.00000000000E+00  0.00000000000E+00  0.28209373635E+02  0.28209373750E+02  0.25500000000E-02 0. -1.
          2   -1    0    0  501    0  0.00000000000E+00 -0.00000000000E+00 -0.30589933511E+04  0.30589933511E+04  0.25500000000E-02 0.  1.
   -5000001    1    1    2    0    0  0.82247648443E+02 -0.93896314745E+02 -0.10392355631E+04  0.10761467136E+04  0.25000000000E+03 0.  0.
    5000001    1    1    2    0    0 -0.82247648443E+02  0.93896314745E+02 -0.19915484143E+04  0.20110560112E+04  0.25000000000E+03 0.  0.
<mgrwt>
<rscale>  0 0.58751098E+03</rscale>
<asrwt>0</asrwt>
<pdfrwt beam="1">  1        2 0.47061410E+00 0.58751098E+03</pdfrwt>
<pdfrwt beam="2">  1       -2 0.43399061E-02 0.58751098E+03</pdfrwt>
<totfact> 0.44249889E+02</totfact>
</mgrwt>
</event>
<event>
 4    1  0.1806019E-005  0.8817549E+03  0.7818608E-02  0.9448681E-01
          2   -1    0    0  501    0  0.00000000000E+00  0.00000000000E+00  0.28702689233E+03  0.28702689235E+03  0.25500000000E-02 0.  1.
         -2   -1    0    0    0  501 -0.00000000000E+00 -0.00000000000E+00 -0.67719411555E+03  0.67719411556E+03  0.25500000000E-02 0. -1.
   -5000001    1    1    2    0    0 -0.17796126736E+03 -0.30231691481E+03 -0.29770726331E+03  0.52363665293E+03  0.25000000000E+03 0.  0.
    5000001    1    1    2    0    0  0.17796126736E+03  0.30231691481E+03 -0.92459959909E+02  0.44058435498E+03  0.25000000000E+03 0.  0.
<mgrwt>
<rscale>  0 0.88175489E+03</rscale>
<asrwt>0</asrwt>
<pdfrwt beam="1">  1        2 0.44157984E-01 0.88175489E+03</pdfrwt>
<pdfrwt beam="2">  1       -2 0.10418371E+00 0.88175489E+03</pdfrwt>
<totfact> 0.86738298E+01</totfact>
</mgrwt>
</event>
<event>
 4    1  0.1806019E-005  0.6640759E+03  0.7818608E-02  0.9780719E-01
         -2   -1    0    0    0  501 -0.00000000000E+00  0.00000000000E+00  0.12151105059E+03  0.12151105062E+03  0.25500000000E-02 0. -1.
          2   -1    0    0  501    0  0.00000000000E+00 -0.00000000000E+00 -0.90731834834E+03  0.90731834834E+03  0.25500000000E-02 0.  1.
   -5000001    1    1    2    0    0  0.49461287970E+02 -0.20885286227E+03 -0.45646635135E+03  0.56296311336E+03  0.25000000000E+03 0.  0.
    5000001    1    1    2    0    0 -0.49461287970E+02  0.20885286227E+03 -0.32934094639E+03  0.46586628560E+03  0.25000000000E+03 0.  0.
<mgrwt>
<rscale>  0 0.66407592E+03</rscale>
<asrwt>0</asrwt>
<pdfrwt beam="1">  1        2 0.13958743E+00 0.66407592E+03</pdfrwt>
<pdfrwt beam="2">  1       -2 0.18694008E-01 0.66407592E+03</pdfrwt>
<totfact> 0.70073501E+02</totfact>
</mgrwt>
</event>
<event>
 4    1  0.1806019E-005  0.1032565E+04  0.7818608E-02  0.9273532E-01
         -2   -1    0    0    0  501 -0.00000000000E+00  0.00000000000E+00  0.15489739158E+03  0.15489739160E+03  0.25500000000E-02 0. -1.
          2   -1    0    0  501    0  0.00000000000E+00 -0.00000000000E+00 -0.17208007248E+04  0.17208007248E+04  0.25500000000E-02 0.  1.
   -5000001    1    1    2    0    0  0.33267379946E+03  0.29442391960E+03 -0.93153378043E+03  0.10618909950E+04  0.25000000000E+03 0.  0.
    5000001    1    1    2    0    0 -0.33267379946E+03 -0.29442391960E+03 -0.63436955284E+03  0.81380712140E+03  0.25000000000E+03 0.  0.
<mgrwt>
<rscale>  0 0.10325649E+04</rscale>
<asrwt>0</asrwt>
<pdfrwt beam="1">  1        2 0.26473856E+00 0.10325649E+04</pdfrwt>
<pdfrwt beam="2">  1       -2 0.23830369E-01 0.10325649E+04</pdfrwt>
<totfact> 0.14895418E+02</totfact>
</mgrwt>
</event>
<event>
 4    1  0.1806019E-005  0.6196575E+03  0.7818608E-02  0.9865442E-01
          2   -1    0    0  501    0  0.00000000000E+00  0.00000000000E+00  0.18322176299E+04  0.18322176299E+04  0.25500000000E-02 0.  1.
         -2   -1    0    0    0  501 -0.00000000000E+00 -0.00000000000E+00 -0.52392164758E+02  0.52392164820E+02  0.25500000000E-02 0. -1.
   -5000001    1    1    2    0    0 -0.21846480305E+02  0.17832387376E+03  0.78380517425E+03  0.84209692069E+03  0.25000000000E+03 0.  0.
    5000001    1    1    2    0    0  0.21846480305E+02 -0.17832387376E+03  0.99602029088E+03  0.10425128740E+04  0.25000000000E+03 0.  0.
<mgrwt>
<rscale>  0 0.61965748E+03</rscale>
<asrwt>0</asrwt>
<pdfrwt beam="1">  1        2 0.28187965E+00 0.61965748E+03</pdfrwt>
<pdfrwt beam="2">  1       -2 0.80603326E-02 0.61965748E+03</pdfrwt>
<totfact> 0.82685253E+02</totfact>
</mgrwt>
</event>
<event>
 4    1  0.1806019E-005  0.1090745E+04  0.7818608E-02  0.9214260E-01
          2   -1    0    0  501    0  0.00000000000E+00  0.00000000000E+00  0.18526937068E+04  0.18526937068E+04  0.25500000000E-02 0.  1.
         -2   -1    0    0    0  501 -0.00000000000E+00 -0.00000000000E+00 -0.16053982767E+03  0.16053982769E+03  0.25500000000E-02 0. -1.
   -5000001    1    1    2    0    0  0.26701637819E+03  0.37864548526E+03  0.58335208466E+03  0.78579246904E+03  0.25000000000E+03 0.  0.
    5000001    1    1    2    0    0 -0.26701637819E+03 -0.37864548526E+03  0.11088017945E+04  0.12274410655E+04  0.25000000000E+03 0.  0.
<mgrwt>
<rscale>  0 0.10907449E+04</rscale>
<asrwt>0</asrwt>
<pdfrwt beam="1">  1        2 0.28502981E+00 0.10907449E+04</pdfrwt>
<pdfrwt beam="2">  1       -2 0.24698434E-01 0.10907449E+04</pdfrwt>
<totfact> 0.11763884E+02</totfact>
</mgrwt>
</event>
<event>
 4    1  0.1806019E-005  0.1026032E+04  0.7818608E-02  0.9280445E-01
          2   -1    0    0  501    0  0.00000000000E+00  0.00000000000E+00  0.52942886044E+03  0.52942886045E+03  0.25500000000E-02 0.  1.
         -2   -1    0    0    0  501 -0.00000000000E+00 -0.00000000000E+00 -0.49711199518E+03  0.49711199518E+03  0.25500000000E-02 0. -1.
   -5000001    1    1    2    0    0 -0.12246464237E+03 -0.37053240303E+03 -0.20393608342E+03  0.50634156105E+03  0.25000000000E+03 0.  0.
    5000001    1    1    2    0    0  0.12246464237E+03  0.37053240303E+03  0.23625294868E+03  0.52019929458E+03  0.25000000000E+03 0.  0.
<mgrwt>
<rscale>  0 0.10260320E+04</rscale>
<asrwt>0</asrwt>
<pdfrwt beam="1">  1        2 0.81450594E-01 0.10260320E+04</pdfrwt>
<pdfrwt beam="2">  1       -2 0.76478769E-01 0.10260320E+04</pdfrwt>
<totfact> 0.87854526E+01</totfact>
</mgrwt>
</event>
<event>
 4    1  0.1806019E-005  0.1094389E+04  0.7818608E-02  0.9210678E-01
         -2   -1    0    0    0  501 -0.00000000000E+00  0.00000000000E+00  0.25057734933E+03  0.25057734935E+03  0.25500000000E-02 0. -1.
          2   -1    0    0  501    0  0.00000000000E+00 -0.00000000000E+00 -0.11949284167E+04  0.11949284168E+04  0.25500000000E-02 0.  1.
   -5000001    1    1    2    0    0 -0.86987769674E+02  0.44177179576E+03 -0.71641471714E+03  0.88231470493E+03  0.25000000000E+03 0.  0.
    5000001    1    1    2    0    0  0.86987769674E+02 -0.44177179576E+03 -0.22793635027E+03  0.56319106117E+03  0.25000000000E+03 0.  0.
<mgrwt>
<rscale>  0 0.10943893E+04</rscale>
<asrwt>0</asrwt>
<pdfrwt beam="1">  1        2 0.18383514E+00 0.10943893E+04</pdfrwt>
<pdfrwt beam="2">  1       -2 0.38550362E-01 0.10943893E+04</pdfrwt>
<totfact> 0.12031445E+02</totfact>
</mgrwt>
</event>
<event>
 4    1  0.1806019E-005  0.1337232E+04  0.7818608E-02  0.9000550E-01
         -2   -1    0    0    0  501 -0.00000000000E+00  0.00000000000E+00  0.35770226685E+03  0.35770226686E+03  0.25500000000E-02 0. -1.
          2   -1    0    0  501    0  0.00000000000E+00 -0.00000000000E+00 -0.12497755690E+04  0.12497755690E+04  0.25500000000E-02 0.  1.
   -5000001    1    1    2    0    0 -0.17594019661E+02 -0.48526975278E+03 -0.90966339491E+03  0.10610295823E+04  0.25000000000E+03 0.  0.
    5000001    1    1    2    0    0  0.17594019661E+02  0.48526975278E+03  0.17590092725E+02  0.54644825359E+03  0.25000000000E+03 0.  0.
<mgrwt>
<rscale>  0 0.13372323E+04</rscale>
<asrwt>0</asrwt>
<pdfrwt beam="1">  1        2 0.19227316E+00 0.13372323E+04</pdfrwt>
<pdfrwt beam="2">  1       -2 0.55031119E-01 0.13372323E+04</pdfrwt>
<totfact> 0.53707817E+01</totfact>
</mgrwt>
</event>
<event>
 4    1  0.1806019E-005  0.5933855E+03  0.7818608E-02  0.9919225E-01
         -2   -1    0    0    0  501 -0.00000000000E+00  0.00000000000E+00  0.11666670609E+03  0.11666670612E+03  0.25500000000E-02 0. -1.
          2   -1    0    0  501    0  0.00000000000E+00 -0.00000000000E+00 -0.75451345992E+03  0.75451345992E+03  0.25500000000E-02 0.  1.
   -5000001    1    1    2    0    0 -0.11691313283E+03 -0.12437800604E+02 -0.47775015090E+03  0.55187732894E+03  0.25000000000E+03 0.  0.
    5000001    1    1    2    0    0  0.11691313283E+03  0.12437800604E+02 -0.16009660293E+03  0.31930283710E+03  0.25000000000E+03 0.  0.
<mgrwt>
<rscale>  0 0.59338554E+03</rscale>
<asrwt>0</asrwt>
<pdfrwt beam="1">  1        2 0.11607899E+00 0.59338554E+03</pdfrwt>
<pdfrwt beam="2">  1       -2 0.17948725E-01 0.59338554E+03</pdfrwt>
<totfact> 0.96359319E+02</totfact>
</mgrwt>
</event>
<event>
 4    1  0.1806019E-005  0.8439199E+03  0.7818608E-02  0.9498534E-01
          2   -1    0    0  501    0  0.00000000000E+00  0.00000000000E+00  0.58104629463E+03  0.58104629464E+03  0.25500000000E-02 0.  1.
         -2   -1    0    0    0  501 -0.00000000000E+00 -0.00000000000E+00 -0.30643029741E+03  0.30643029742E+03  0.25500000000E-02 0. -1.
   -5000001    1    1    2    0    0 -0.51952719214E+02  0.12787519436E+03  0.46398396541E+03  0.54482315527E+03  0.25000000000E+03 0.  0.
    5000001    1    1    2    0    0  0.51952719214E+02 -0.12787519436E+03 -0.18936796819E+03  0.34265343679E+03  0.25000000000E+03 0.  0.
<mgrwt>
<rscale>  0 0.84391988E+03</rscale>
<asrwt>0</asrwt>
<pdfrwt beam="1">  1        2 0.89391737E-01 0.84391988E+03</pdfrwt>
<pdfrwt beam="2">  1       -2 0.47143123E-01 0.84391988E+03</pdfrwt>
<totfact> 0.22104812E+02</totfact>
</mgrwt>
</event>
<event>
 4    1  0.1806019E-005  0.9209761E+03  0.7818608E-02  0.9399734E-01
         -2   -1    0    0    0  501 -0.00000000000E+00  0.00000000000E+00  0.17523596051E+03  0.17523596053E+03  0.25500000000E-02 0. -1.
          2   -1    0    0  501    0  0.00000000000E+00 -0.00000000000E+00 -0.12100783453E+04  0.12100783453E+04  0.25500000000E-02 0.  1.
   -5000001    1    1    2    0    0  0.56151882425E+02  0.33297062943E+03 -0.80093734526E+03  0.90444629747E+03  0.25000000000E+03 0.  0.
    5000001    1    1    2    0    0 -0.56151882425E+02 -0.33297062943E+03 -0.23390503954E+03  0.48086800838E+03  0.25000000000E+03 0.  0.
<mgrwt>
<rscale>  0 0.92097609E+03</rscale>
<asrwt>0</asrwt>
<pdfrwt beam="1">  1        2 0.18616589E+00 0.92097609E+03</pdfrwt>
<pdfrwt beam="2">  1       -2 0.26959379E-01 0.92097609E+03</pdfrwt>
<totfact> 0.23356162E+02</totfact>
</mgrwt>
</event>
<event>
 4    1  0.1806019E-005  0.5940710E+03  0.7818608E-02  0.9917784E-01
         -2   -1    0    0    0  501 -0.00000000000E+00  0.00000000000E+00  0.20494445619E+03  0.20494445620E+03  0.25500000000E-02 0. -1.
          2   -1    0    0  501    0  0.00000000000E+00 -0.00000000000E+00 -0.43050730077E+03  0.43050730078E+03  0.25500000000E-02 0.  1.
   -5000001    1    1    2    0    0 -0.13021069965E+03 -0.79337299024E+02 -0.59503827474E+02  0.29881422122E+03  0.25000000000E+03 0.  0.
    5000001    1    1    2    0    0  0.13021069965E+03  0.79337299024E+02 -0.16605901711E+03  0.33663753576E+03  0.25000000000E+03 0.  0.
<mgrwt>
<rscale>  0 0.59407099E+03</rscale>
<asrwt>0</asrwt>
<pdfrwt beam="1">  1        2 0.66231892E-01 0.59407099E+03</pdfrwt>
<pdfrwt beam="2">  1       -2 0.31529916E-01 0.59407099E+03</pdfrwt>
<totfact> 0.68717997E+02</totfact>
</mgrwt>
</event>
<event>
 4    1  0.1806019E-005  0.1078712E+04  0.7818608E-02  0.9226192E-01
         -2   -1    0    0    0  501 -0.00000000000E+00  0.00000000000E+00  0.28974007989E+03  0.28974007990E+03  0.25500000000E-02 0. -1.
          2   -1    0    0  501    0  0.00000000000E+00 -0.00000000000E+00 -0.10040207773E+04  0.10040207773E+04  0.25500000000E-02 0.  1.
   -5000001    1    1    2    0    0 -0.26742768222E+03  0.21413448484E+03  0.42506327279E+02  0.42623694194E+03  0.25000000000E+03 0.  0.
    5000001    1    1    2    0    0  0.26742768222E+03 -0.21413448484E+03 -0.75678702472E+03  0.86752391529E+03  0.25000000000E+03 0.  0.
<mgrwt>
<rscale>  0 0.10787123E+04</rscale>
<asrwt>0</asrwt>
<pdfrwt beam="1">  1        2 0.15446473E+00 0.10787123E+04</pdfrwt>
<pdfrwt beam="2">  1       -2 0.44575398E-01 0.10787123E+04</pdfrwt>
<totfact> 0.11874308E+02</totfact>
</mgrwt>
</event>
<event>
 4    1  0.1806019E-005  0.8263568E+03  0.7818608E-02  0.9522631E-01
         -2   -1    0    0    0  501 -0.00000000000E+00  0.00000000000E+00  0.11724479025E+03  0.11724479028E+03  0.25500000000E-02 0. -1.
          2   -1    0    0  501    0  0.00000000000E+00 -0.00000000000E+00 -0.14560678560E+04  0.14560678560E+04  0.25500000000E-02 0.  1.
   -5000001    1    1    2    0    0  0.29936493914E+03 -0.47953678982E+02 -0.91246804378E+03  0.99348721835E+03  0.25000000000E+03 0.  0.
    5000001    1    1    2    0    0 -0.29936493914E+03  0.47953678982E+02 -0.42635502195E+03  0.57982542791E+03  0.25000000000E+03 0.  0.
<mgrwt>
<rscale>  0 0.82635675E+03</rscale>
<asrwt>0</asrwt>
<pdfrwt beam="1">  1        2 0.22401043E+00 0.82635675E+03</pdfrwt>
<pdfrwt beam="2">  1       -2 0.18037661E-01 0.82635675E+03</pdfrwt>
<totfact> 0.34610601E+02</totfact>
</mgrwt>
</event>
<event>
 4    1  0.1806019E-005  0.9804948E+03  0.7818608E-02  0.9330200E-01
          2   -1    0    0  501    0  0.00000000000E+00  0.00000000000E+00  0.43123823517E+03  0.43123823518E+03  0.25500000000E-02 0.  1.
         -2   -1    0    0    0  501 -0.00000000000E+00 -0.00000000000E+00 -0.55733120482E+03  0.55733120483E+03  0.25500000000E-02 0. -1.
   -5000001    1    1    2    0    0 -0.24346405231E+02  0.41216909558E+03 -0.14958111623E+03  0.50532229431E+03  0.25000000000E+03 0.  0.
    5000001    1    1    2    0    0  0.24346405231E+02 -0.41216909558E+03  0.23488146576E+02  0.48324714570E+03  0.25000000000E+03 0.  0.
<mgrwt>
<rscale>  0 0.98049482E+03</rscale>
<asrwt>0</asrwt>
<pdfrwt beam="1">  1        2 0.66344344E-01 0.98049482E+03</pdfrwt>
<pdfrwt beam="2">  1       -2 0.85743262E-01 0.98049482E+03</pdfrwt>
<totfact> 0.86249889E+01</totfact>
</mgrwt>
</event>
<event>
 4    1  0.1806019E-005  0.6301491E+03  0.7818608E-02  0.9844758E-01
          2   -1    0    0  501    0  0.00000000000E+00  0.00000000000E+00  0.11240315666E+03  0.11240315669E+03  0.25500000000E-02 0.  1.
         -2   -1    0    0    0  501 -0.00000000000E+00 -0.00000000000E+00 -0.88317786614E+03  0.88317786614E+03  0.25500000000E-02 0. -1.
   -5000001    1    1    2    0    0  0.10205175020E+01  0.18211082272E+03 -0.48026883897E+03  0.57124736402E+03  0.25000000000E+03 0.  0.
    5000001    1    1    2    0    0 -0.10205175020E+01 -0.18211082272E+03 -0.29050587050E+03  0.42433365882E+03  0.25000000000E+03 0.  0.
<mgrwt>
<rscale>  0 0.63014913E+03</rscale>
<asrwt>0</asrwt>
<pdfrwt beam="1">  1        2 0.17292794E-01 0.63014913E+03</pdfrwt>
<pdfrwt beam="2">  1       -2 0.13587351E+00 0.63014913E+03</pdfrwt>
<totfact> 0.13292086E+02</totfact>
</mgrwt>
</event>
<event>
 4    1  0.1806019E-005  0.5692273E+03  0.7818608E-02  0.9971390E-01
          2   -1    0    0  501    0  0.00000000000E+00  0.00000000000E+00  0.17684534235E+04  0.17684534235E+04  0.25500000000E-02 0.  1.
         -2   -1    0    0    0  501 -0.00000000000E+00 -0.00000000000E+00 -0.45805521881E+02  0.45805521952E+02  0.25500000000E-02 0. -1.
   -5000001    1    1    2    0    0  0.95251039266E+02  0.87387956663E+02  0.99637820177E+03  0.10353641564E+04  0.25000000000E+03 0.  0.
    5000001    1    1    2    0    0 -0.95251039266E+02 -0.87387956663E+02  0.72626969981E+03  0.77889478899E+03  0.25000000000E+03 0.  0.
<mgrwt>
<rscale>  0 0.56922731E+03</rscale>
<asrwt>0</asrwt>
<pdfrwt beam="1">  1        2 0.27206981E+00 0.56922731E+03</pdfrwt>
<pdfrwt beam="2">  1       -2 0.70470021E-02 0.56922731E+03</pdfrwt>
<totfact> 0.11113389E+03</totfact>
</mgrwt>
</event>
<event>
 4    1  0.1806019E-005  0.6579573E+03  0.7818608E-02  0.9791961E-01
         -2   -1    0    0    0  501 -0.00000000000E+00  0.00000000000E+00  0.12575901783E+03  0.12575901785E+03  0.25500000000E-02 0. -1.
          2   -1    0    0  501    0  0.00000000000E+00 -0.00000000000E+00 -0.86058991202E+03  0.86058991203E+03  0.25500000000E-02 0.  1.
   -5000001    1    1    2    0    0 -0.11680316144E+03 -0.14968757640E+03 -0.21994107151E+03  0.38330591437E+03  0.25000000000E+03 0.  0.
    5000001    1    1    2    0    0  0.11680316144E+03  0.14968757640E+03 -0.51488982268E+03  0.60304301551E+03  0.25000000000E+03 0.  0.
<mgrwt>
<rscale>  0 0.65795727E+03</rscale>
<asrwt>0</asrwt>
<pdfrwt beam="1">  1        2 0.13239844E+00 0.65795727E+03</pdfrwt>
<pdfrwt beam="2">  1       -2 0.19347542E-01 0.65795727E+03</pdfrwt>
<totfact> 0.71016015E+02</totfact>
</mgrwt>
</event>
<event>
 4    1  0.1806019E-005  0.5453005E+03  0.7818608E-02  0.1002588E+00
          2   -1    0    0  501    0  0.00000000000E+00  0.00000000000E+00  0.92333725526E+03  0.92333725527E+03  0.25500000000E-02 0.  1.
         -2   -1    0    0    0  501 -0.00000000000E+00 -0.00000000000E+00 -0.80510301052E+02  0.80510301092E+02  0.25500000000E-02 0. -1.
   -5000001    1    1    2    0    0 -0.83963714816E+02  0.19395042528E+02  0.29913390345E+03  0.39925826889E+03  0.25000000000E+03 0.  0.
    5000001    1    1    2    0    0  0.83963714816E+02 -0.19395042528E+02  0.54369305076E+03  0.60458928747E+03  0.25000000000E+03 0.  0.
<mgrwt>
<rscale>  0 0.54530051E+03</rscale>
<asrwt>0</asrwt>
<pdfrwt beam="1">  1        2 0.14205189E+00 0.54530051E+03</pdfrwt>
<pdfrwt beam="2">  1       -2 0.12386200E-01 0.54530051E+03</pdfrwt>
<totfact> 0.13740580E+03</totfact>
</mgrwt>
</event>
<event>
 4    1  0.1806019E-005  0.8549171E+03  0.7818608E-02  0.9483761E-01
         -2   -1    0    0    0  501 -0.00000000000E+00  0.00000000000E+00  0.53107298220E+02  0.53107298281E+02  0.25500000000E-02 0. -1.
          2   -1    0    0  501    0  0.00000000000E+00 -0.00000000000E+00 -0.34405972029E+04  0.34405972029E+04  0.25500000000E-02 0.  1.
   -5000001    1    1    2    0    0  0.23325392693E+03  0.52886344320E+02 -0.27196074696E+04  0.27415267915E+04  0.25000000000E+03 0.  0.
    5000001    1    1    2    0    0 -0.23325392693E+03 -0.52886344320E+02 -0.66788243509E+03  0.75217770968E+03  0.25000000000E+03 0.  0.
<mgrwt>
<rscale>  0 0.85491712E+03</rscale>
<asrwt>0</asrwt>
<pdfrwt beam="1">  1        2 0.52932247E+00 0.85491712E+03</pdfrwt>
<pdfrwt beam="2">  1       -2 0.81703562E-02 0.85491712E+03</pdfrwt>
<totfact> 0.90049680E+01</totfact>
</mgrwt>
</event>
<event>
 4    1  0.1806019E-005  0.6479206E+03  0.7818608E-02  0.9810689E-01
          2   -1    0    0  501    0  0.00000000000E+00  0.00000000000E+00  0.30540339308E+03  0.30540339309E+03  0.25500000000E-02 0.  1.
         -2   -1    0    0    0  501 -0.00000000000E+00 -0.00000000000E+00 -0.34364474156E+03  0.34364474157E+03  0.25500000000E-02 0. -1.
   -5000001    1    1    2    0    0  0.19109270960E+03 -0.24348711199E+02  0.54088562350E+02  0.32021064313E+03  0.25000000000E+03 0.  0.
    5000001    1    1    2    0    0 -0.19109270960E+03  0.24348711199E+02 -0.92329910829E+02  0.32883749152E+03  0.25000000000E+03 0.  0.
<mgrwt>
<rscale>  0 0.64792058E+03</rscale>
<asrwt>0</asrwt>
<pdfrwt beam="1">  1        2 0.46985137E-01 0.64792058E+03</pdfrwt>
<pdfrwt beam="2">  1       -2 0.52868422E-01 0.64792058E+03</pdfrwt>
<totfact> 0.36665924E+02</totfact>
</mgrwt>
</event>
<event>
 4    1  0.1806019E-005  0.7029187E+03  0.7818608E-02  0.9712254E-01
          2   -1    0    0  501    0  0.00000000000E+00  0.00000000000E+00  0.15331655958E+04  0.15331655958E+04  0.25500000000E-02 0.  1.
         -2   -1    0    0    0  501 -0.00000000000E+00 -0.00000000000E+00 -0.80567725909E+02  0.80567725950E+02  0.25500000000E-02 0. -1.
   -5000001    1    1    2    0    0 -0.16996151407E+03 -0.53964706923E+02  0.11187637014E+04  0.11601428039E+04  0.25000000000E+03 0.  0.
    5000001    1    1    2    0    0  0.16996151407E+03  0.53964706923E+02  0.33383416858E+03  0.45359051794E+03  0.25000000000E+03 0.  0.
<mgrwt>
<rscale>  0 0.70291867E+03</rscale>
<asrwt>0</asrwt>
<pdfrwt beam="1">  1        2 0.23587160E+00 0.70291867E+03</pdfrwt>
<pdfrwt beam="2">  1       -2 0.12395036E-01 0.70291867E+03</pdfrwt>
<totfact> 0.59554006E+02</totfact>
</mgrwt>
</event>
<event>
 4    1  0.1806019E-005  0.6070880E+03  0.7818608E-02  0.9890809E-01
          2   -1    0    0  501    0  0.00000000000E+00  0.00000000000E+00  0.24982143601E+04  0.24982143601E+04  0.25500000000E-02 0.  1.
         -2   -1    0    0    0  501 -0.00000000000E+00 -0.00000000000E+00 -0.36881932465E+02  0.36881932553E+02  0.25500000000E-02 0. -1.
   -5000001    1    1    2    0    0  0.95002453184E+02 -0.14247600880E+03  0.13046732069E+04  0.13394017531E+04  0.25000000000E+03 0.  0.
    5000001    1    1    2    0    0 -0.95002453184E+02  0.14247600880E+03  0.11566592207E+04  0.11956945396E+04  0.25000000000E+03 0.  0.
<mgrwt>
<rscale>  0 0.60708804E+03</rscale>
<asrwt>0</asrwt>
<pdfrwt beam="1">  1        2 0.38434071E+00 0.60708804E+03</pdfrwt>
<pdfrwt beam="2">  1       -2 0.56741429E-02 0.60708804E+03</pdfrwt>
<totfact> 0.62124523E+02</totfact>
</mgrwt>
</event>
<event>
 4    1  0.1806019E-005  0.7329208E+03  0.7818608E-02  0.9662533E-01
          2   -1    0    0  501    0  0.00000000000E+00  0.00000000000E+00  0.60367223063E+03  0.60367223064E+03  0.25500000000E-02 0.  1.
         -2   -1    0    0    0  501 -0.00000000000E+00 -0.00000000000E+00 -0.22246048354E+03  0.22246048356E+03  0.25500000000E-02 0. -1.
   -5000001    1    1    2    0    0  0.20601057360E+03  0.93560247998E+02  0.28827882260E+02  0.33841531176E+03  0.25000000000E+03 0.  0.
    5000001    1    1    2    0    0 -0.20601057360E+03 -0.93560247998E+02  0.35238386483E+03  0.48771740243E+03  0.25000000000E+03 0.  0.
<mgrwt>
<rscale>  0 0.73292078E+03</rscale>
<asrwt>0</asrwt>
<pdfrwt beam="1">  1        2 0.92872650E-01 0.73292078E+03</pdfrwt>
<pdfrwt beam="2">  1       -2 0.34224690E-01 0.73292078E+03</pdfrwt>
<totfact> 0.39620683E+02</totfact>
</mgrwt>
</event>
<event>
 4    1  0.1806019E-005  0.6588731E+03  0.7818608E-02  0.9790270E-01
          2   -1    0    0  501    0  0.00000000000E+00  0.00000000000E+00  0.92108053617E+03  0.92108053617E+03  0.25500000000E-02 0.  1.
         -2   -1    0    0    0  501 -0.00000000000E+00 -0.00000000000E+00 -0.11782730645E+03  0.11782730648E+03  0.25500000000E-02 0. -1.
   -5000001    1    1    2    0    0 -0.17351151393E+03 -0.12387960041E+03  0.36378229310E+03  0.49019379600E+03  0.25000000000E+03 0.  0.
    5000001    1    1    2    0    0  0.17351151393E+03  0.12387960041E+03  0.43947093662E+03  0.54871404666E+03  0.25000000000E+03 0.  0.
<mgrwt>
<rscale>  0 0.65887309E+03</rscale>
<asrwt>0</asrwt>
<pdfrwt beam="1">  1        2 0.14170470E+00 0.65887309E+03</pdfrwt>
<pdfrwt beam="2">  1       -2 0.18127278E-01 0.65887309E+03</pdfrwt>
<totfact> 0.72372889E+02</totfact>
</mgrwt>
</event>
<event>
 4    1  0.1806019E-005  0.7199776E+03  0.7818608E-02  0.9683665E-01
          2   -1    0    0  501    0  0.00000000000E+00  0.00000000000E+00  0.11621023258E+04  0.11621023258E+04  0.25500000000E-02 0.  1.
         -2   -1    0    0    0  501 -0.00000000000E+00 -0.00000000000E+00 -0.11151509060E+03  0.11151509063E+03  0.25500000000E-02 0. -1.
   -5000001    1    1    2    0    0 -0.22548953799E+03 -0.11287736763E+03  0.42056362319E+03  0.55041856166E+03  0.25000000000E+03 0.  0.
    5000001    1    1    2    0    0  0.22548953799E+03  0.11287736763E+03  0.63002361205E+03  0.72319885481E+03  0.25000000000E+03 0.  0.
<mgrwt>
<rscale>  0 0.71997763E+03</rscale>
<asrwt>0</asrwt>
<pdfrwt beam="1">  1        2 0.17878499E+00 0.71997763E+03</pdfrwt>
<pdfrwt beam="2">  1       -2 0.17156167E-01 0.71997763E+03</pdfrwt>
<totfact> 0.56073823E+02</totfact>
</mgrwt>
</event>
<event>
 4    1  0.1806019E-005  0.7594931E+03  0.7818608E-02  0.9620574E-01
         -2   -1    0    0    0  501 -0.00000000000E+00  0.00000000000E+00  0.19690631472E+03  0.19690631474E+03  0.25500000000E-02 0. -1.
          2   -1    0    0  501    0  0.00000000000E+00 -0.00000000000E+00 -0.73236566764E+03  0.73236566765E+03  0.25500000000E-02 0.  1.
   -5000001    1    1    2    0    0 -0.14321643933E+03 -0.21082157019E+03 -0.10937311677E+03  0.37338875401E+03  0.25000000000E+03 0.  0.
    5000001    1    1    2    0    0  0.14321643933E+03  0.21082157019E+03 -0.42608623615E+03  0.55588322837E+03  0.25000000000E+03 0.  0.
<mgrwt>
<rscale>  0 0.75949305E+03</rscale>
<asrwt>0</asrwt>
<pdfrwt beam="1">  1        2 0.11267164E+00 0.75949305E+03</pdfrwt>
<pdfrwt beam="2">  1       -2 0.30293280E-01 0.75949305E+03</pdfrwt>
<totfact> 0.39146449E+02</totfact>
</mgrwt>
</event>
<event>
 4    1  0.1806019E-005  0.1445438E+04  0.7818608E-02  0.8921570E-01
         -2   -1    0    0    0  501 -0.00000000000E+00  0.00000000000E+00  0.82847832137E+03  0.82847832137E+03  0.25500000000E-02 0. -1.
          2   -1    0    0  501    0  0.00000000000E+00 -0.00000000000E+00 -0.63045996309E+03  0.63045996309E+03  0.25500000000E-02 0.  1.
   -5000001    1    1    2    0    0 -0.70930294775E+02 -0.43289320661E+03 -0.42292297714E+03  0.65862848378E+03  0.25000000000E+03 0.  0.
    5000001    1    1    2    0    0  0.70930294775E+02  0.43289320661E+03  0.62094133542E+03  0.80030980069E+03  0.25000000000E+03 0.  0.
<mgrwt>
<rscale>  0 0.14454375E+04</rscale>
<asrwt>0</asrwt>
<pdfrwt beam="1">  1        2 0.96993841E-01 0.14454375E+04</pdfrwt>
<pdfrwt beam="2">  1       -2 0.12745820E+00 0.14454375E+04</pdfrwt>
<totfact> 0.20670956E+01</totfact>
</mgrwt>
</event>
<event>
 4    1  0.1806019E-005  0.1125427E+04  0.7818608E-02  0.9180758E-01
          2   -1    0    0  501    0  0.00000000000E+00  0.00000000000E+00  0.19245253176E+04  0.19245253176E+04  0.25500000000E-02 0.  1.
         -2   -1    0    0    0  501 -0.00000000000E+00 -0.00000000000E+00 -0.16453217189E+03  0.16453217191E+03  0.25500000000E-02 0. -1.
   -5000001    1    1    2    0    0 -0.37613158659E+03  0.33544458161E+03  0.90260097131E+03  0.10635725416E+04  0.25000000000E+03 0.  0.
    5000001    1    1    2    0    0  0.37613158659E+03 -0.33544458161E+03  0.85739217439E+03  0.10254849479E+04  0.25000000000E+03 0.  0.
<mgrwt>
<rscale>  0 0.11254267E+04</rscale>
<asrwt>0</asrwt>
<pdfrwt beam="1">  1        2 0.29608082E+00 0.11254267E+04</pdfrwt>
<pdfrwt beam="2">  1       -2 0.25312642E-01 0.11254267E+04</pdfrwt>
<totfact> 0.10245684E+02</totfact>
</mgrwt>
</event>
<event>
 4    1  0.1806019E-005  0.5841819E+03  0.7818608E-02  0.9938778E-01
          2   -1    0    0  501    0  0.00000000000E+00  0.00000000000E+00  0.11864617670E+04  0.11864617670E+04  0.25500000000E-02 0.  1.
         -2   -1    0    0    0  501 -0.00000000000E+00 -0.00000000000E+00 -0.71908866423E+02  0.71908866469E+02  0.25500000000E-02 0. -1.
   -5000001    1    1    2    0    0  0.14632117112E+03  0.25047369309E+02  0.61743123516E+03  0.68246508041E+03  0.25000000000E+03 0.  0.
    5000001    1    1    2    0    0 -0.14632117112E+03 -0.25047369309E+02  0.49712166546E+03  0.57590555310E+03  0.25000000000E+03 0.  0.
<mgrwt>
<rscale>  0 0.58418189E+03</rscale>
<asrwt>0</asrwt>
<pdfrwt beam="1">  1        2 0.18253259E+00 0.58418189E+03</pdfrwt>
<pdfrwt beam="2">  1       -2 0.11062902E-01 0.58418189E+03</pdfrwt>
<totfact> 0.11360067E+03</totfact>
</mgrwt>
</event>
<event>
 4    1  0.1806019E-005  0.6245124E+03  0.7818608E-02  0.9855816E-01
          2   -1    0    0  501    0  0.00000000000E+00  0.00000000000E+00  0.27922403764E+04  0.27922403764E+04  0.25500000000E-02 0.  1.
         -2   -1    0    0    0  501 -0.00000000000E+00 -0.00000000000E+00 -0.34919604459E+02  0.34919604552E+02  0.25500000000E-02 0. -1.
   -5000001    1    1    2    0    0 -0.18473810265E+03 -0.29168977170E+02  0.14012653513E+04  0.14356265463E+04  0.25000000000E+03 0.  0.
    5000001    1    1    2    0    0  0.18473810265E+03  0.29168977170E+02  0.13560554207E+04  0.13915334347E+04  0.25000000000E+03 0.  0.
<mgrwt>
<rscale>  0 0.62451238E+03</rscale>
<asrwt>0</asrwt>
<pdfrwt beam="1">  1        2 0.42957554E+00 0.62451238E+03</pdfrwt>
<pdfrwt beam="2">  1       -2 0.53722456E-02 0.62451238E+03</pdfrwt>
<totfact> 0.45778401E+02</totfact>
</mgrwt>
</event>
<event>
 4    1  0.1806019E-005  0.6950268E+03  0.7818608E-02  0.9725775E-01
          2   -1    0    0  501    0  0.00000000000E+00  0.00000000000E+00  0.37057804952E+03  0.37057804953E+03  0.25500000000E-02 0.  1.
         -2   -1    0    0    0  501 -0.00000000000E+00 -0.00000000000E+00 -0.32588433071E+03  0.32588433072E+03  0.25500000000E-02 0. -1.
   -5000001    1    1    2    0    0 -0.19058088475E+03  0.89797943016E+02 -0.95713441265E+02  0.34065496773E+03  0.25000000000E+03 0.  0.
    5000001    1    1    2    0    0  0.19058088475E+03 -0.89797943016E+02  0.14040716008E+03  0.35580741252E+03  0.25000000000E+03 0.  0.
<mgrwt>
<rscale>  0 0.69502685E+03</rscale>
<asrwt>0</asrwt>
<pdfrwt beam="1">  1        2 0.57012007E-01 0.69502685E+03</pdfrwt>
<pdfrwt beam="2">  1       -2 0.50136051E-01 0.69502685E+03</pdfrwt>
<totfact> 0.32916945E+02</totfact>
</mgrwt>
</event>
<event>
 4    1  0.1806019E-005  0.1108028E+04  0.7818608E-02  0.9197402E-01
          2   -1    0    0  501    0  0.00000000000E+00  0.00000000000E+00  0.33719968120E+04  0.33719968120E+04  0.25500000000E-02 0.  1.
         -2   -1    0    0    0  501 -0.00000000000E+00 -0.00000000000E+00 -0.91023669865E+02  0.91023669900E+02  0.25500000000E-02 0. -1.
   -5000001    1    1    2    0    0 -0.22346933928E+03 -0.40873398942E+03  0.21581092558E+04  0.22219220463E+04  0.25000000000E+03 0.  0.
    5000001    1    1    2    0    0  0.22346933928E+03  0.40873398942E+03  0.11228638864E+04  0.12410984357E+04  0.25000000000E+03 0.  0.
<mgrwt>
<rscale>  0 0.11080280E+04</rscale>
<asrwt>0</asrwt>
<pdfrwt beam="1">  1        2 0.51876877E+00 0.11080280E+04</pdfrwt>
<pdfrwt beam="2">  1       -2 0.14003641E-01 0.11080280E+04</pdfrwt>
<totfact> 0.40081864E+01</totfact>
</mgrwt>
</event>
<event>
 4    1  0.1806019E-005  0.6194051E+03  0.7818608E-02  0.9865945E-01
          2   -1    0    0  501    0  0.00000000000E+00  0.00000000000E+00  0.78373143563E+03  0.78373143563E+03  0.25500000000E-02 0.  1.
         -2   -1    0    0    0  501 -0.00000000000E+00 -0.00000000000E+00 -0.12238333516E+03  0.12238333519E+03  0.25500000000E-02 0. -1.
   -5000001    1    1    2    0    0  0.13509464048E+03 -0.13788371477E+02  0.15165813227E+03  0.32239861997E+03  0.25000000000E+03 0.  0.
    5000001    1    1    2    0    0 -0.13509464048E+03  0.13788371477E+02  0.50968996820E+03  0.58371615084E+03  0.25000000000E+03 0.  0.
<mgrwt>
<rscale>  0 0.61940509E+03</rscale>
<asrwt>0</asrwt>
<pdfrwt beam="1">  1        2 0.12057407E+00 0.61940509E+03</pdfrwt>
<pdfrwt beam="2">  1       -2 0.18828204E-01 0.61940509E+03</pdfrwt>
<totfact> 0.84419883E+02</totfact>
</mgrwt>
</event>
<event>
 4    1  0.1806019E-005  0.7767534E+03  0.7818608E-02  0.9594289E-01
          2   -1    0    0  501    0  0.00000000000E+00  0.00000000000E+00  0.18992151284E+04  0.18992151284E+04  0.25500000000E-02 0.  1.
         -2   -1    0    0    0  501 -0.00000000000E+00 -0.00000000000E+00 -0.79420424849E+02  0.79420424890E+02  0.25500000000E-02 0. -1.
   -5000001    1    1    2    0    0  0.26411850272E+03  0.87210536982E+02  0.64307039185E+03  0.74391114396E+03  0.25000000000E+03 0.  0.
    5000001    1    1    2    0    0 -0.26411850272E+03 -0.87210536982E+02  0.11767243117E+04  0.12347244093E+04  0.25000000000E+03 0.  0.
<mgrwt>
<rscale>  0 0.77675343E+03</rscale>
<asrwt>0</asrwt>
<pdfrwt beam="1">  1        2 0.29218692E+00 0.77675343E+03</pdfrwt>
<pdfrwt beam="2">  1       -2 0.12218528E-01 0.77675343E+03</pdfrwt>
<totfact> 0.38264289E+02</totfact>
</mgrwt>
</event>
<event>
 4    1  0.1806019E-005  0.7023698E+03  0.7818608E-02  0.9713188E-01
         -2   -1    0    0    0  501 -0.00000000000E+00  0.00000000000E+00  0.18693328860E+03  0.18693328861E+03  0.25500000000E-02 0. -1.
          2   -1    0    0  501    0  0.00000000000E+00 -0.00000000000E+00 -0.65975852079E+03  0.65975852079E+03  0.25500000000E-02 0.  1.
   -5000001    1    1    2    0    0  0.23300703357E+03 -0.25562919288E+02 -0.14393511844E+03  0.37170291747E+03  0.25000000000E+03 0.  0.
    5000001    1    1    2    0    0 -0.23300703357E+03  0.25562919288E+02 -0.32889011375E+03  0.47498889193E+03  0.25000000000E+03 0.  0.
<mgrwt>
<rscale>  0 0.70236979E+03</rscale>
<asrwt>0</asrwt>
<pdfrwt beam="1">  1        2 0.10150131E+00 0.70236979E+03</pdfrwt>
<pdfrwt beam="2">  1       -2 0.28758968E-01 0.70236979E+03</pdfrwt>
<totfact> 0.49244523E+02</totfact>
</mgrwt>
</event>
<event>
 4    1  0.1806019E-005  0.8472723E+03  0.7818608E-02  0.9494005E-01
          2   -1    0    0  501    0  0.00000000000E+00  0.00000000000E+00  0.17824871712E+03  0.17824871714E+03  0.25500000000E-02 0.  1.
         -2   -1    0    0    0  501 -0.00000000000E+00 -0.00000000000E+00 -0.10068381035E+04  0.10068381035E+04  0.25500000000E-02 0. -1.
   -5000001    1    1    2    0    0 -0.22436068335E+03  0.23513495116E+03 -0.56325179774E+03  0.69669128684E+03  0.25000000000E+03 0.  0.
    5000001    1    1    2    0    0  0.22436068335E+03 -0.23513495116E+03 -0.26533758862E+03  0.48839553379E+03  0.25000000000E+03 0.  0.
<mgrwt>
<rscale>  0 0.84727233E+03</rscale>
<asrwt>0</asrwt>
<pdfrwt beam="1">  1        2 0.27422880E-01 0.84727233E+03</pdfrwt>
<pdfrwt beam="2">  1       -2 0.15489817E+00 0.84727233E+03</pdfrwt>
<totfact> 0.54542483E+01</totfact>
</mgrwt>
</event>
<event>
 4    1  0.1806019E-005  0.5695326E+03  0.7818608E-02  0.9970713E-01
          2   -1    0    0  501    0  0.00000000000E+00  0.00000000000E+00  0.59277456530E+03  0.59277456530E+03  0.25500000000E-02 0.  1.
         -2   -1    0    0    0  501 -0.00000000000E+00 -0.00000000000E+00 -0.13680048843E+03  0.13680048846E+03  0.25500000000E-02 0. -1.
   -5000001    1    1    2    0    0  0.61399943443E+02  0.47267769437E+02  0.37170921686E+03  0.45461185311E+03  0.25000000000E+03 0.  0.
    5000001    1    1    2    0    0 -0.61399943443E+02 -0.47267769437E+02  0.84264860002E+02  0.27496320065E+03  0.25000000000E+03 0.  0.
<mgrwt>
<rscale>  0 0.56953262E+03</rscale>
<asrwt>0</asrwt>
<pdfrwt beam="1">  1        2 0.91196086E-01 0.56953262E+03</pdfrwt>
<pdfrwt beam="2">  1       -2 0.21046229E-01 0.56953262E+03</pdfrwt>
<totfact> 0.98521205E+02</totfact>
</mgrwt>
</event>
<event>
 4    1  0.1806019E-005  0.5657371E+03  0.7818608E-02  0.9979156E-01
         -2   -1    0    0    0  501 -0.00000000000E+00  0.00000000000E+00  0.47427554688E+03  0.47427554689E+03  0.25500000000E-02 0. -1.
          2   -1    0    0  501    0  0.00000000000E+00 -0.00000000000E+00 -0.16870915850E+03  0.16870915852E+03  0.25500000000E-02 0.  1.
   -5000001    1    1    2    0    0  0.10213099815E+03  0.63617865220E+02  0.90153013115E+02  0.29172853705E+03  0.25000000000E+03 0.  0.
    5000001    1    1    2    0    0 -0.10213099815E+03 -0.63617865220E+02  0.21541337527E+03  0.35125616835E+03  0.25000000000E+03 0.  0.
<mgrwt>
<rscale>  0 0.56573714E+03</rscale>
<asrwt>0</asrwt>
<pdfrwt beam="1">  1        2 0.25955255E-01 0.56573714E+03</pdfrwt>
<pdfrwt beam="2">  1       -2 0.72965468E-01 0.56573714E+03</pdfrwt>
<totfact> 0.35989373E+02</totfact>
</mgrwt>
</event>
<event>
 4    1  0.1806019E-005  0.5919708E+03  0.7818608E-02  0.9922206E-01
          2   -1    0    0  501    0  0.00000000000E+00  0.00000000000E+00  0.20461433804E+04  0.20461433804E+04  0.25500000000E-02 0.  1.
         -2   -1    0    0    0  501 -0.00000000000E+00 -0.00000000000E+00 -0.42815844487E+02  0.42815844563E+02  0.25500000000E-02 0. -1.
   -5000001    1    1    2    0    0  0.15072158671E+03  0.45916553702E+02  0.94240160135E+03  0.98764675104E+03  0.25000000000E+03 0.  0.
    5000001    1    1    2    0    0 -0.15072158671E+03 -0.45916553702E+02  0.10609259346E+04  0.11013124740E+04  0.25000000000E+03 0.  0.
<mgrwt>
<rscale>  0 0.59197080E+03</rscale>
<asrwt>0</asrwt>
<pdfrwt beam="1">  1        2 0.31479123E+00 0.59197080E+03</pdfrwt>
<pdfrwt beam="2">  1       -2 0.65870543E-02 0.59197080E+03</pdfrwt>
<totfact> 0.87362303E+02</totfact>
</mgrwt>
</event>
<event>
 4    1  0.1806019E-005  0.5791753E+03  0.7818608E-02  0.9949578E-01
          2   -1    0    0  501    0  0.00000000000E+00  0.00000000000E+00  0.10330973253E+04  0.10330973253E+04  0.25500000000E-02 0.  1.
         -2   -1    0    0    0  501 -0.00000000000E+00 -0.00000000000E+00 -0.81174347235E+02  0.81174347275E+02  0.25500000000E-02 0. -1.
   -5000001    1    1    2    0    0  0.14225666687E+03 -0.17948453520E+02  0.53044182372E+03  0.60367841986E+03  0.25000000000E+03 0.  0.
    5000001    1    1    2    0    0 -0.14225666687E+03  0.17948453520E+02  0.42148115433E+03  0.51059325271E+03  0.25000000000E+03 0.  0.
<mgrwt>
<rscale>  0 0.57917528E+03</rscale>
<asrwt>0</asrwt>
<pdfrwt beam="1">  1        2 0.15893805E+00 0.57917528E+03</pdfrwt>
<pdfrwt beam="2">  1       -2 0.12488361E-01 0.57917528E+03</pdfrwt>
<totfact> 0.11526680E+03</totfact>
</mgrwt>
</event>
<event>
 4    1  0.1806019E-005  0.7350295E+03  0.7818608E-02  0.9659134E-01
         -2   -1    0    0    0  501 -0.00000000000E+00  0.00000000000E+00  0.88943791386E+02  0.88943791423E+02  0.25500000000E-02 0. -1.
          2   -1    0    0  501    0  0.00000000000E+00 -0.00000000000E+00 -0.15185668175E+04  0.15185668175E+04  0.25500000000E-02 0.  1.
   -5000001    1    1    2    0    0  0.26783442236E+03  0.26179554933E+02 -0.74127724493E+03  0.82729233089E+03  0.25000000000E+03 0.  0.
    5000001    1    1    2    0    0 -0.26783442236E+03 -0.26179554933E+02 -0.68834578116E+03  0.78021827801E+03  0.25000000000E+03 0.  0.
<mgrwt>
<rscale>  0 0.73502950E+03</rscale>
<asrwt>0</asrwt>
<pdfrwt beam="1">  1        2 0.23362565E+00 0.73502950E+03</pdfrwt>
<pdfrwt beam="2">  1       -2 0.13683661E-01 0.73502950E+03</pdfrwt>
<totfact> 0.51365673E+02</totfact>
</mgrwt>
</event>
<event>
 4    1  0.1806019E-005  0.6642986E+03  0.7818608E-02  0.9780313E-01
          2   -1    0    0  501    0  0.00000000000E+00  0.00000000000E+00  0.13504148667E+04  0.13504148667E+04  0.25500000000E-02 0.  1.
         -2   -1    0    0    0  501 -0.00000000000E+00 -0.00000000000E+00 -0.81695744612E+02  0.81695744652E+02  0.25500000000E-02 0. -1.
   -5000001    1    1    2    0    0  0.21036143076E+01 -0.21135652842E+03  0.51341918057E+03  0.60891318123E+03  0.25000000000E+03 0.  0.
    5000001    1    1    2    0    0 -0.21036143076E+01  0.21135652842E+03  0.75529994150E+03  0.82319743010E+03  0.25000000000E+03 0.  0.
<mgrwt>
<rscale>  0 0.66429857E+03</rscale>
<asrwt>0</asrwt>
<pdfrwt beam="1">  1        2 0.20775613E+00 0.66429857E+03</pdfrwt>
<pdfrwt beam="2">  1       -2 0.12568576E-01 0.66429857E+03</pdfrwt>
<totfact> 0.73806564E+02</totfact>
</mgrwt>
</event>
<event>
 4    1  0.1806019E-005  0.6317070E+03  0.7818608E-02  0.9841723E-01
         -2   -1    0    0    0  501 -0.00000000000E+00  0.00000000000E+00  0.42827937071E+02  0.42827937147E+02  0.25500000000E-02 0.  1.
          2   -1    0    0  501    0  0.00000000000E+00 -0.00000000000E+00 -0.23294012148E+04  0.23294012148E+04  0.25500000000E-02 0. -1.
   -5000001    1    1    2    0    0 -0.17703181967E+03 -0.55291377012E+02 -0.94224658870E+03  0.99233363113E+03  0.25000000000E+03 0.  0.
    5000001    1    1    2    0    0  0.17703181967E+03  0.55291377012E+02 -0.13443266890E+04  0.13798955208E+04  0.25000000000E+03 0.  0.
<mgrwt>
<rscale>  0 0.63170705E+03</rscale>
<asrwt>0</asrwt>
<pdfrwt beam="1">  1        2 0.35836932E+00 0.63170705E+03</pdfrwt>
<pdfrwt beam="2">  1       -2 0.65889152E-02 0.63170705E+03</pdfrwt>
<totfact> 0.60918826E+02</totfact>
</mgrwt>
</event>
<event>
 4    1  0.1806019E-005  0.5711191E+03  0.7818608E-02  0.9967205E-01
          2   -1    0    0  501    0  0.00000000000E+00  0.00000000000E+00  0.38987304801E+03  0.38987304802E+03  0.25500000000E-02 0.  1.
         -2   -1    0    0    0  501 -0.00000000000E+00 -0.00000000000E+00 -0.20915593296E+03  0.20915593298E+03  0.25500000000E-02 0. -1.
   -5000001    1    1    2    0    0  0.12681547909E+03 -0.19715673952E+02  0.37150949374E+02  0.28346263700E+03  0.25000000000E+03 0.  0.
    5000001    1    1    2    0    0 -0.12681547909E+03  0.19715673952E+02  0.14356616567E+03  0.31556634400E+03  0.25000000000E+03 0.  0.
<mgrwt>
<rscale>  0 0.57111912E+03</rscale>
<asrwt>0</asrwt>
<pdfrwt beam="1">  1        2 0.59980469E-01 0.57111912E+03</pdfrwt>
<pdfrwt beam="2">  1       -2 0.32177836E-01 0.57111912E+03</pdfrwt>
<totfact> 0.73955378E+02</totfact>
</mgrwt>
</event>
<event>
 4    1  0.1806019E-005  0.1010570E+04  0.7818608E-02  0.9297028E-01
          2   -1    0    0  501    0  0.00000000000E+00  0.00000000000E+00  0.21363199392E+04  0.21363199392E+04  0.25500000000E-02 0.  1.
         -2   -1    0    0    0  501 -0.00000000000E+00 -0.00000000000E+00 -0.11951054182E+03  0.11951054184E+03  0.25500000000E-02 0. -1.
   -5000001    1    1    2    0    0 -0.16340887387E+03 -0.34642726226E+03  0.14876781251E+04  0.15564062811E+04  0.25000000000E+03 0.  0.
    5000001    1    1    2    0    0  0.16340887387E+03  0.34642726226E+03  0.52913127231E+03  0.69942419992E+03  0.25000000000E+03 0.  0.
<mgrwt>
<rscale>  0 0.10105696E+04</rscale>
<asrwt>0</asrwt>
<pdfrwt beam="1">  1        2 0.32866458E+00 0.10105696E+04</pdfrwt>
<pdfrwt beam="2">  1       -2 0.18386239E-01 0.10105696E+04</pdfrwt>
<totfact> 0.13929922E+02</totfact>
</mgrwt>
</event>
<event>
 4    1  0.1806019E-005  0.9626591E+03  0.7818608E-02  0.9350475E-01
         -2   -1    0    0    0  501 -0.00000000000E+00  0.00000000000E+00  0.14243691627E+03  0.14243691629E+03  0.25500000000E-02 0. -1.
          2   -1    0    0  501    0  0.00000000000E+00 -0.00000000000E+00 -0.16265314701E+04  0.16265314701E+04  0.25500000000E-02 0.  1.
   -5000001    1    1    2    0    0 -0.25799797106E+03  0.32032410185E+03 -0.74712764129E+03  0.88874641810E+03  0.25000000000E+03 0.  0.
    5000001    1    1    2    0    0  0.25799797106E+03 -0.32032410185E+03 -0.73696691257E+03  0.88022196832E+03  0.25000000000E+03 0.  0.
<mgrwt>
<rscale>  0 0.96265908E+03</rscale>
<asrwt>0</asrwt>
<pdfrwt beam="1">  1        2 0.25023560E+00 0.96265908E+03</pdfrwt>
<pdfrwt beam="2">  1       -2 0.21913373E-01 0.96265908E+03</pdfrwt>
<totfact> 0.19603534E+02</totfact>
</mgrwt>
</event>
<event>
 4    1  0.1806019E-005  0.9874388E+03  0.7818608E-02  0.9322430E-01
         -2   -1    0    0    0  501 -0.00000000000E+00  0.00000000000E+00  0.19442470494E+03  0.19442470495E+03  0.25500000000E-02 0. -1.
          2   -1    0    0  501    0  0.00000000000E+00 -0.00000000000E+00 -0.12537440802E+04  0.12537440802E+04  0.25500000000E-02 0.  1.
   -5000001    1    1    2    0    0  0.28753332192E+03  0.27784438327E+03 -0.31518655986E+03  0.56719968269E+03  0.25000000000E+03 0.  0.
    5000001    1    1    2    0    0 -0.28753332192E+03 -0.27784438327E+03 -0.74413281541E+03  0.88096910246E+03  0.25000000000E+03 0.  0.
<mgrwt>
<rscale>  0 0.98743875E+03</rscale>
<asrwt>0</asrwt>
<pdfrwt beam="1">  1        2 0.19288370E+00 0.98743875E+03</pdfrwt>
<pdfrwt beam="2">  1       -2 0.29911494E-01 0.98743875E+03</pdfrwt>
<totfact> 0.18100934E+02</totfact>
</mgrwt>
</event>
<event>
 4    1  0.1806019E-005  0.8185849E+03  0.7818608E-02  0.9533499E-01
         -2   -1    0    0    0  501 -0.00000000000E+00  0.00000000000E+00  0.35993906399E+03  0.35993906400E+03  0.25500000000E-02 0. -1.
          2   -1    0    0  501    0  0.00000000000E+00 -0.00000000000E+00 -0.46541291816E+03  0.46541291816E+03  0.25500000000E-02 0.  1.
   -5000001    1    1    2    0    0 -0.26534509536E+03 -0.99362007418E+02  0.10585118171E+03  0.39240960847E+03  0.25000000000E+03 0.  0.
    5000001    1    1    2    0    0  0.26534509536E+03  0.99362007418E+02 -0.21132503588E+03  0.43294237369E+03  0.25000000000E+03 0.  0.
<mgrwt>
<rscale>  0 0.81858485E+03</rscale>
<asrwt>0</asrwt>
<pdfrwt beam="1">  1        2 0.71601988E-01 0.81858485E+03</pdfrwt>
<pdfrwt beam="2">  1       -2 0.55375240E-01 0.81858485E+03</pdfrwt>
<totfact> 0.20649985E+02</totfact>
</mgrwt>
</event>
<event>
 4    1  0.1806019E-005  0.7717528E+03  0.7818608E-02  0.9601828E-01
         -2   -1    0    0    0  501 -0.00000000000E+00  0.00000000000E+00  0.48054520137E+02  0.48054520205E+02  0.25500000000E-02 0. -1.
          2   -1    0    0  501    0  0.00000000000E+00 -0.00000000000E+00 -0.30985766032E+04  0.30985766032E+04  0.25500000000E-02 0.  1.
   -5000001    1    1    2    0    0  0.15566804304E+01 -0.29239131514E+03 -0.16479522978E+04  0.16922594009E+04  0.25000000000E+03 0.  0.
    5000001    1    1    2    0    0 -0.15566804304E+01  0.29239131514E+03 -0.14025697853E+04  0.14543717224E+04  0.25000000000E+03 0.  0.
<mgrwt>
<rscale>  0 0.77175284E+03</rscale>
<asrwt>0</asrwt>
<pdfrwt beam="1">  1        2 0.47670394E+00 0.77175284E+03</pdfrwt>
<pdfrwt beam="2">  1       -2 0.73930055E-02 0.77175284E+03</pdfrwt>
<totfact> 0.17780369E+02</totfact>
</mgrwt>
</event>
<event>
 4    1  0.1806019E-005  0.6768338E+03  0.7818608E-02  0.9757691E-01
          2   -1    0    0  501    0  0.00000000000E+00  0.00000000000E+00  0.96351448304E+03  0.96351448305E+03  0.25500000000E-02 0.  1.
         -2   -1    0    0    0  501 -0.00000000000E+00 -0.00000000000E+00 -0.11886276332E+03  0.11886276335E+03  0.25500000000E-02 0. -1.
   -5000001    1    1    2    0    0  0.16771046877E+03 -0.30319889486E+02  0.66474709619E+03  0.73036620878E+03  0.25000000000E+03 0.  0.
    5000001    1    1    2    0    0 -0.16771046877E+03  0.30319889486E+02  0.17990462354E+03  0.35201103762E+03  0.25000000000E+03 0.  0.
<mgrwt>
<rscale>  0 0.67683379E+03</rscale>
<asrwt>0</asrwt>
<pdfrwt beam="1">  1        2 0.14823300E+00 0.67683379E+03</pdfrwt>
<pdfrwt beam="2">  1       -2 0.18286579E-01 0.67683379E+03</pdfrwt>
<totfact> 0.66833552E+02</totfact>
</mgrwt>
</event>
<event>
 4    1  0.1806019E-005  0.1220308E+04  0.7818608E-02  0.9095264E-01
         -2   -1    0    0    0  501 -0.00000000000E+00  0.00000000000E+00  0.21754334968E+03  0.21754334970E+03  0.25500000000E-02 0. -1.
          2   -1    0    0  501    0  0.00000000000E+00 -0.00000000000E+00 -0.17113281844E+04  0.17113281844E+04  0.25500000000E-02 0.  1.
   -5000001    1    1    2    0    0  0.32166334561E+03 -0.45384961500E+03 -0.71769179078E+03  0.94182179179E+03  0.25000000000E+03 0.  0.
    5000001    1    1    2    0    0 -0.32166334561E+03  0.45384961500E+03 -0.77609304391E+03  0.98704974229E+03  0.25000000000E+03 0.  0.
<mgrwt>
<rscale>  0 0.12203083E+04</rscale>
<asrwt>0</asrwt>
<pdfrwt beam="1">  1        2 0.26328125E+00 0.12203083E+04</pdfrwt>
<pdfrwt beam="2">  1       -2 0.33468209E-01 0.12203083E+04</pdfrwt>
<totfact> 0.79464032E+01</totfact>
</mgrwt>
</event>
<event>
 4    1  0.1806019E-005  0.5422401E+03  0.7818608E-02  0.1003306E+00
          2   -1    0    0  501    0  0.00000000000E+00  0.00000000000E+00  0.13515781602E+03  0.13515781605E+03  0.25500000000E-02 0.  1.
         -2   -1    0    0    0  501 -0.00000000000E+00 -0.00000000000E+00 -0.54385366459E+03  0.54385366460E+03  0.25500000000E-02 0. -1.
   -5000001    1    1    2    0    0  0.24699459888E+02  0.88561143627E+02 -0.14107683534E+03  0.30142298013E+03  0.25000000000E+03 0.  0.
    5000001    1    1    2    0    0 -0.24699459888E+02 -0.88561143627E+02 -0.26761901323E+03  0.37758850052E+03  0.25000000000E+03 0.  0.
<mgrwt>
<rscale>  0 0.54224007E+03</rscale>
<asrwt>0</asrwt>
<pdfrwt beam="1">  1        2 0.20793510E-01 0.54224007E+03</pdfrwt>
<pdfrwt beam="2">  1       -2 0.83669793E-01 0.54224007E+03</pdfrwt>
<totfact> 0.34270623E+02</totfact>
</mgrwt>
</event>
<event>
 4    1  0.1806019E-005  0.6895114E+03  0.7818608E-02  0.9735339E-01
         -2   -1    0    0    0  501 -0.00000000000E+00  0.00000000000E+00  0.17852135822E+04  0.17852135822E+04  0.25500000000E-02 0. -1.
          2   -1    0    0  501    0  0.00000000000E+00 -0.00000000000E+00 -0.66578296187E+02  0.66578296235E+02  0.25500000000E-02 0.  1.
   -5000001    1    1    2    0    0  0.19655549484E+03 -0.12808784018E+03  0.76189369783E+03  0.83547744682E+03  0.25000000000E+03 0.  0.
    5000001    1    1    2    0    0 -0.19655549484E+03  0.12808784018E+03  0.95674158818E+03  0.10163144316E+04  0.25000000000E+03 0.  0.
<mgrwt>
<rscale>  0 0.68951136E+03</rscale>
<asrwt>0</asrwt>
<pdfrwt beam="1">  1        2 0.10242815E-01 0.68951136E+03</pdfrwt>
<pdfrwt beam="2">  1       -2 0.27464823E+00 0.68951136E+03</pdfrwt>
<totfact> 0.30425667E+01</totfact>
</mgrwt>
</event>
<event>
 4    1  0.1806019E-005  0.9093507E+03  0.7818608E-02  0.9413967E-01
         -2   -1    0    0    0  501 -0.00000000000E+00  0.00000000000E+00  0.80076501103E+02  0.80076501144E+02  0.25500000000E-02 0. -1.
          2   -1    0    0  501    0  0.00000000000E+00 -0.00000000000E+00 -0.25816522737E+04  0.25816522737E+04  0.25500000000E-02 0.  1.
   -5000001    1    1    2    0    0 -0.29990447105E+03 -0.19461298406E+03 -0.16257810981E+04  0.16832947110E+04  0.25000000000E+03 0.  0.
    5000001    1    1    2    0    0  0.29990447105E+03  0.19461298406E+03 -0.87579467455E+03  0.97843406385E+03  0.25000000000E+03 0.  0.
<mgrwt>
<rscale>  0 0.90935072E+03</rscale>
<asrwt>0</asrwt>
<pdfrwt beam="1">  1        2 0.39717721E+00 0.90935072E+03</pdfrwt>
<pdfrwt beam="2">  1       -2 0.12319464E-01 0.90935072E+03</pdfrwt>
<totfact> 0.15568823E+02</totfact>
</mgrwt>
</event>
<event>
 4    1  0.1806019E-005  0.6854435E+03  0.7818608E-02  0.9742455E-01
          2   -1    0    0  501    0  0.00000000000E+00  0.00000000000E+00  0.39785202676E+03  0.39785202677E+03  0.25500000000E-02 0.  1.
         -2   -1    0    0    0  501 -0.00000000000E+00 -0.00000000000E+00 -0.29523089763E+03  0.29523089764E+03  0.25500000000E-02 0. -1.
   -5000001    1    1    2    0    0  0.40654939640E+02 -0.18293232706E+03  0.19373907730E+03  0.36763010006E+03  0.25000000000E+03 0.  0.
    5000001    1    1    2    0    0 -0.40654939640E+02  0.18293232706E+03 -0.91117948159E+02  0.32545282435E+03  0.25000000000E+03 0.  0.
<mgrwt>
<rscale>  0 0.68544354E+03</rscale>
<asrwt>0</asrwt>
<pdfrwt beam="1">  1        2 0.61208004E-01 0.68544354E+03</pdfrwt>
<pdfrwt beam="2">  1       -2 0.45420138E-01 0.68544354E+03</pdfrwt>
<totfact> 0.37101302E+02</totfact>
</mgrwt>
</event>
<event>
 4    1  0.1806019E-005  0.5660409E+03  0.7818608E-02  0.9978478E-01
          2   -1    0    0  501    0  0.00000000000E+00  0.00000000000E+00  0.32881060410E+03  0.32881060411E+03  0.25500000000E-02 0.  1.
         -2   -1    0    0    0  501 -0.00000000000E+00 -0.00000000000E+00 -0.24360705427E+03  0.24360705428E+03  0.25500000000E-02 0. -1.
   -5000001    1    1    2    0    0  0.75382176492E+02  0.10304487893E+03  0.79061550675E+02  0.29163581468E+03  0.25000000000E+03 0.  0.
    5000001    1    1    2    0    0 -0.75382176492E+02 -0.10304487893E+03  0.61419991569E+01  0.28078184372E+03  0.25000000000E+03 0.  0.
<mgrwt>
<rscale>  0 0.56604093E+03</rscale>
<asrwt>0</asrwt>
<pdfrwt beam="1">  1        2 0.50586247E-01 0.56604093E+03</pdfrwt>
<pdfrwt beam="2">  1       -2 0.37478008E-01 0.56604093E+03</pdfrwt>
<totfact> 0.66951701E+02</totfact>
</mgrwt>
</event>
<event>
 4    1  0.1806019E-005  0.5995782E+03  0.7818608E-02  0.9906282E-01
         -2   -1    0    0    0  501 -0.00000000000E+00  0.00000000000E+00  0.65638263369E+02  0.65638263418E+02  0.25500000000E-02 0. -1.
          2   -1    0    0  501    0  0.00000000000E+00 -0.00000000000E+00 -0.13692242395E+04  0.13692242395E+04  0.25500000000E-02 0.  1.
   -5000001    1    1    2    0    0  0.11089486892E+03  0.10673667074E+03 -0.79702820884E+03  0.84937880508E+03  0.25000000000E+03 0.  0.
    5000001    1    1    2    0    0 -0.11089486892E+03 -0.10673667074E+03 -0.50655776728E+03  0.58548369783E+03  0.25000000000E+03 0.  0.
<mgrwt>
<rscale>  0 0.59957819E+03</rscale>
<asrwt>0</asrwt>
<pdfrwt beam="1">  1        2 0.21064986E+00 0.59957819E+03</pdfrwt>
<pdfrwt beam="2">  1       -2 0.10098195E-01 0.59957819E+03</pdfrwt>
<totfact> 0.10339856E+03</totfact>
</mgrwt>
</event>
<event>
 4    1  0.1806019E-005  0.1734523E+04  0.7818608E-02  0.8741916E-01
         -2   -1    0    0    0  501 -0.00000000000E+00  0.00000000000E+00  0.85609438774E+03  0.85609438774E+03  0.25500000000E-02 0. -1.
          2   -1    0    0  501    0  0.00000000000E+00 -0.00000000000E+00 -0.87857458847E+03  0.87857458848E+03  0.25500000000E-02 0.  1.
   -5000001    1    1    2    0    0 -0.81221442416E+03 -0.13649735282E+03 -0.11763971290E+03  0.86871335905E+03  0.25000000000E+03 0.  0.
    5000001    1    1    2    0    0  0.81221442416E+03  0.13649735282E+03  0.95159512167E+02  0.86595561716E+03  0.25000000000E+03 0.  0.
<mgrwt>
<rscale>  0 0.17345233E+04</rscale>
<asrwt>0</asrwt>
<pdfrwt beam="1">  1        2 0.13516532E+00 0.17345233E+04</pdfrwt>
<pdfrwt beam="2">  1       -2 0.13170683E+00 0.17345233E+04</pdfrwt>
<totfact> 0.12089619E+01</totfact>
</mgrwt>
</event>
<event>
 4    1  0.1806019E-005  0.9576021E+03  0.7818608E-02  0.9356309E-01
         -2   -1    0    0    0  501 -0.00000000000E+00  0.00000000000E+00  0.14890561927E+03  0.14890561929E+03  0.25500000000E-02 0. -1.
          2   -1    0    0  501    0  0.00000000000E+00 -0.00000000000E+00 -0.15395689489E+04  0.15395689489E+04  0.25500000000E-02 0.  1.
   -5000001    1    1    2    0    0  0.27390622438E+03 -0.30153900050E+03 -0.64545746956E+03  0.80315984311E+03  0.25000000000E+03 0.  0.
    5000001    1    1    2    0    0 -0.27390622438E+03  0.30153900050E+03 -0.74520586011E+03  0.88531472512E+03  0.25000000000E+03 0.  0.
<mgrwt>
<rscale>  0 0.95760215E+03</rscale>
<asrwt>0</asrwt>
<pdfrwt beam="1">  1        2 0.23685675E+00 0.95760215E+03</pdfrwt>
<pdfrwt beam="2">  1       -2 0.22908558E-01 0.95760215E+03</pdfrwt>
<totfact> 0.20251636E+02</totfact>
</mgrwt>
</event>
<event>
 4    1  0.1806019E-005  0.6856635E+03  0.7818608E-02  0.9742069E-01
         -2   -1    0    0    0  501 -0.00000000000E+00  0.00000000000E+00  0.10851599864E+03  0.10851599867E+03  0.25500000000E-02 0. -1.
          2   -1    0    0  501    0  0.00000000000E+00 -0.00000000000E+00 -0.10830992351E+04  0.10830992351E+04  0.25500000000E-02 0.  1.
   -5000001    1    1    2    0    0 -0.14210098694E+03  0.16489102702E+03 -0.63931429458E+03  0.72014200581E+03  0.25000000000E+03 0.  0.
    5000001    1    1    2    0    0  0.14210098694E+03 -0.16489102702E+03 -0.33526894186E+03  0.47147322793E+03  0.25000000000E+03 0.  0.
<mgrwt>
<rscale>  0 0.68566346E+03</rscale>
<asrwt>0</asrwt>
<pdfrwt beam="1">  1        2 0.16663064E+00 0.68566346E+03</pdfrwt>
<pdfrwt beam="2">  1       -2 0.16694770E-01 0.68566346E+03</pdfrwt>
<totfact> 0.65688570E+02</totfact>
</mgrwt>
</event>
<event>
 4    1  0.1806019E-005  0.7123420E+03  0.7818608E-02  0.9696355E-01
          2   -1    0    0  501    0  0.00000000000E+00  0.00000000000E+00  0.86862077788E+03  0.86862077789E+03  0.25500000000E-02 0.  1.
         -2   -1    0    0    0  501 -0.00000000000E+00 -0.00000000000E+00 -0.14604508539E+03  0.14604508542E+03  0.25500000000E-02 0. -1.
   -5000001    1    1    2    0    0 -0.14996924656E+02  0.25193233883E+03  0.32461148910E+03  0.48121453630E+03  0.25000000000E+03 0.  0.
    5000001    1    1    2    0    0  0.14996924656E+02 -0.25193233883E+03  0.39796420339E+03  0.53345132700E+03  0.25000000000E+03 0.  0.
<mgrwt>
<rscale>  0 0.71234204E+03</rscale>
<asrwt>0</asrwt>
<pdfrwt beam="1">  1        2 0.13363397E+00 0.71234204E+03</pdfrwt>
<pdfrwt beam="2">  1       -2 0.22468474E-01 0.71234204E+03</pdfrwt>
<totfact> 0.53824166E+02</totfact>
</mgrwt>
</event>
<event>
 4    1  0.1806019E-005  0.7577853E+03  0.7818608E-02  0.9623215E-01
          2   -1    0    0  501    0  0.00000000000E+00  0.00000000000E+00  0.14071680371E+04  0.14071680372E+04  0.25500000000E-02 0.  1.
         -2   -1    0    0    0  501 -0.00000000000E+00 -0.00000000000E+00 -0.10202024657E+03  0.10202024660E+03  0.25500000000E-02 0. -1.
   -5000001    1    1    2    0    0 -0.17758351590E+03  0.13770747779E+03  0.10007320787E+04  0.10556817455E+04  0.25000000000E+03 0.  0.
    5000001    1    1    2    0    0  0.17758351590E+03 -0.13770747779E+03  0.30441571191E+03  0.45350653823E+03  0.25000000000E+03 0.  0.
<mgrwt>
<rscale>  0 0.75778527E+03</rscale>
<asrwt>0</asrwt>
<pdfrwt beam="1">  1        2 0.21648739E+00 0.75778527E+03</pdfrwt>
<pdfrwt beam="2">  1       -2 0.15695423E-01 0.75778527E+03</pdfrwt>
<totfact> 0.46986609E+02</totfact>
</mgrwt>
</event>
<event>
 4    1  0.1806019E-005  0.5764244E+03  0.7818608E-02  0.9955562E-01
         -2   -1    0    0    0  501 -0.00000000000E+00  0.00000000000E+00  0.14407428305E+03  0.14407428307E+03  0.25500000000E-02 0. -1.
          2   -1    0    0  501    0  0.00000000000E+00 -0.00000000000E+00 -0.57655177848E+03  0.57655177849E+03  0.25500000000E-02 0.  1.
   -5000001    1    1    2    0    0  0.94596856534E+02  0.80539252889E+02 -0.30579065327E+03  0.41405683203E+03  0.25000000000E+03 0.  0.
    5000001    1    1    2    0    0 -0.94596856534E+02 -0.80539252889E+02 -0.12668684217E+03  0.30656922954E+03  0.25000000000E+03 0.  0.
<mgrwt>
<rscale>  0 0.57642444E+03</rscale>
<asrwt>0</asrwt>
<pdfrwt beam="1">  1        2 0.88700272E-01 0.57642444E+03</pdfrwt>
<pdfrwt beam="2">  1       -2 0.22165275E-01 0.57642444E+03</pdfrwt>
<totfact> 0.92949800E+02</totfact>
</mgrwt>
</event>
<event>
 4    1  0.1806019E-005  0.5880916E+03  0.7818608E-02  0.9930425E-01
         -2   -1    0    0    0  501 -0.00000000000E+00  0.00000000000E+00  0.10390934994E+03  0.10390934997E+03  0.25500000000E-02 0.  1.
          2   -1    0    0  501    0  0.00000000000E+00 -0.00000000000E+00 -0.83209961288E+03  0.83209961289E+03  0.25500000000E-02 0. -1.
   -5000001    1    1    2    0    0  0.60320327371E+01  0.15161935830E+03 -0.41284382664E+03  0.50592967933E+03  0.25000000000E+03 0.  0.
    5000001    1    1    2    0    0 -0.60320327371E+01 -0.15161935830E+03 -0.31534643631E+03  0.43007928353E+03  0.25000000000E+03 0.  0.
<mgrwt>
<rscale>  0 0.58809159E+03</rscale>
<asrwt>0</asrwt>
<pdfrwt beam="1">  1        2 0.12801532E+00 0.58809159E+03</pdfrwt>
<pdfrwt beam="2">  1       -2 0.15986054E-01 0.58809159E+03</pdfrwt>
<totfact> 0.10330010E+03</totfact>
</mgrwt>
</event>
<event>
 4    1  0.1806019E-005  0.8558423E+03  0.7818608E-02  0.9482529E-01
         -2   -1    0    0    0  501 -0.00000000000E+00  0.00000000000E+00  0.30743059082E+03  0.30743059083E+03  0.25500000000E-02 0. -1.
          2   -1    0    0  501    0  0.00000000000E+00 -0.00000000000E+00 -0.59563531283E+03  0.59563531283E+03  0.25500000000E-02 0.  1.
   -5000001    1    1    2    0    0 -0.26895620527E+03 -0.13138681118E+03 -0.32993528361E+03  0.51083972621E+03  0.25000000000E+03 0.  0.
    5000001    1    1    2    0    0  0.26895620527E+03  0.13138681118E+03  0.41730561607E+02  0.39222617745E+03  0.25000000000E+03 0.  0.
<mgrwt>
<rscale>  0 0.85584231E+03</rscale>
<asrwt>0</asrwt>
<pdfrwt beam="1">  1        2 0.91636202E-01 0.85584231E+03</pdfrwt>
<pdfrwt beam="2">  1       -2 0.47297014E-01 0.85584231E+03</pdfrwt>
<totfact> 0.21303469E+02</totfact>
</mgrwt>
</event>
<event>
 4    1  0.1806019E-005  0.8896912E+03  0.7818608E-02  0.9438560E-01
          2   -1    0    0  501    0  0.00000000000E+00  0.00000000000E+00  0.73013960110E+03  0.73013960110E+03  0.25500000000E-02 0.  1.
         -2   -1    0    0    0  501 -0.00000000000E+00 -0.00000000000E+00 -0.27102707046E+03  0.27102707047E+03  0.25500000000E-02 0. -1.
   -5000001    1    1    2    0    0  0.36537305780E+03  0.36249787404E+02  0.25656523370E+03  0.51296904156E+03  0.25000000000E+03 0.  0.
    5000001    1    1    2    0    0 -0.36537305780E+03 -0.36249787404E+02  0.20254729694E+03  0.48819763001E+03  0.25000000000E+03 0.  0.
<mgrwt>
<rscale>  0 0.88969118E+03</rscale>
<asrwt>0</asrwt>
<pdfrwt beam="1">  1        2 0.11232917E+00 0.88969118E+03</pdfrwt>
<pdfrwt beam="2">  1       -2 0.41696473E-01 0.88969118E+03</pdfrwt>
<totfact> 0.21221365E+02</totfact>
</mgrwt>
</event>
<event>
 4    1  0.1806019E-005  0.8541747E+03  0.7818608E-02  0.9484751E-01
          2   -1    0    0  501    0  0.00000000000E+00  0.00000000000E+00  0.10469526894E+04  0.10469526894E+04  0.25500000000E-02 0.  1.
         -2   -1    0    0    0  501 -0.00000000000E+00 -0.00000000000E+00 -0.17422333479E+03  0.17422333481E+03  0.25500000000E-02 0. -1.
   -5000001    1    1    2    0    0  0.16595692026E+03  0.29614082847E+03  0.53398516461E+03  0.68035376511E+03  0.25000000000E+03 0.  0.
    5000001    1    1    2    0    0 -0.16595692026E+03 -0.29614082847E+03  0.33874418995E+03  0.54082225906E+03  0.25000000000E+03 0.  0.
<mgrwt>
<rscale>  0 0.85417466E+03</rscale>
<asrwt>0</asrwt>
<pdfrwt beam="1">  1        2 0.16106964E+00 0.85417466E+03</pdfrwt>
<pdfrwt beam="2">  1       -2 0.26803590E-01 0.85417466E+03</pdfrwt>
<totfact> 0.29777061E+02</totfact>
</mgrwt>
</event>
<event>
 4    1  0.1806019E-005  0.9021268E+03  0.7818608E-02  0.9422927E-01
         -2   -1    0    0    0  501 -0.00000000000E+00  0.00000000000E+00  0.58996009797E+02  0.58996009852E+02  0.25500000000E-02 0. -1.
          2   -1    0    0  501    0  0.00000000000E+00 -0.00000000000E+00 -0.34486769530E+04  0.34486769530E+04  0.25500000000E-02 0.  1.
   -5000001    1    1    2    0    0 -0.25737469337E+03 -0.65742382615E+02 -0.27264623272E+04  0.27507563715E+04  0.25000000000E+03 0.  0.
    5000001    1    1    2    0    0  0.25737469337E+03  0.65742382615E+02 -0.66321861596E+03  0.75691659132E+03  0.25000000000E+03 0.  0.
<mgrwt>
<rscale>  0 0.90212677E+03</rscale>
<asrwt>0</asrwt>
<pdfrwt beam="1">  1        2 0.53056553E+00 0.90212677E+03</pdfrwt>
<pdfrwt beam="2">  1       -2 0.90763119E-02 0.90212677E+03</pdfrwt>
<totfact> 0.74619985E+01</totfact>
</mgrwt>
</event>
<event>
 4    1  0.1806019E-005  0.8882947E+03  0.7818608E-02  0.9440333E-01
         -2   -1    0    0    0  501 -0.00000000000E+00  0.00000000000E+00  0.35560466891E+03  0.35560466892E+03  0.25500000000E-02 0. -1.
          2   -1    0    0  501    0  0.00000000000E+00 -0.00000000000E+00 -0.55473638300E+03  0.55473638300E+03  0.25500000000E-02 0.  1.
   -5000001    1    1    2    0    0  0.28726734108E+02  0.34146254302E+03  0.35403027700E+02  0.42564688171E+03  0.25000000000E+03 0.  0.
    5000001    1    1    2    0    0 -0.28726734108E+02 -0.34146254302E+03 -0.23453474178E+03  0.48469417022E+03  0.25000000000E+03 0.  0.
<mgrwt>
<rscale>  0 0.88829465E+03</rscale>
<asrwt>0</asrwt>
<pdfrwt beam="1">  1        2 0.85344059E-01 0.88829465E+03</pdfrwt>
<pdfrwt beam="2">  1       -2 0.54708411E-01 0.88829465E+03</pdfrwt>
<totfact> 0.17201387E+02</totfact>
</mgrwt>
</event>
<event>
 4    1  0.1806019E-005  0.7409849E+03  0.7818608E-02  0.9649601E-01
         -2   -1    0    0    0  501 -0.00000000000E+00  0.00000000000E+00  0.59881333489E+02  0.59881333544E+02  0.25500000000E-02 0. -1.
          2   -1    0    0  501    0  0.00000000000E+00 -0.00000000000E+00 -0.22922779923E+04  0.22922779923E+04  0.25500000000E-02 0.  1.
   -5000001    1    1    2    0    0  0.15516016372E+03  0.14601543668E+03 -0.16602065794E+04  0.16923891605E+04  0.25000000000E+03 0.  0.
    5000001    1    1    2    0    0 -0.15516016372E+03 -0.14601543668E+03 -0.57219007938E+03  0.65977016535E+03  0.25000000000E+03 0.  0.
<mgrwt>
<rscale>  0 0.74098492E+03</rscale>
<asrwt>0</asrwt>
<pdfrwt beam="1">  1        2 0.35265809E+00 0.74098492E+03</pdfrwt>
<pdfrwt beam="2">  1       -2 0.92125146E-02 0.74098492E+03</pdfrwt>
<totfact> 0.37071655E+02</totfact>
</mgrwt>
</event>
<event>
 4    1  0.1806019E-005  0.7932703E+03  0.7818608E-02  0.9569809E-01
         -2   -1    0    0    0  501 -0.00000000000E+00  0.00000000000E+00  0.28998655679E+03  0.28998655680E+03  0.25500000000E-02 0. -1.
          2   -1    0    0  501    0  0.00000000000E+00 -0.00000000000E+00 -0.54250595576E+03  0.54250595577E+03  0.25500000000E-02 0.  1.
   -5000001    1    1    2    0    0  0.66948998268E+02 -0.15484595880E+03  0.14408155478E+03  0.33424382381E+03  0.25000000000E+03 0.  0.
    5000001    1    1    2    0    0 -0.66948998268E+02  0.15484595880E+03 -0.39660095375E+03  0.49824868875E+03  0.25000000000E+03 0.  0.
<mgrwt>
<rscale>  0 0.79327028E+03</rscale>
<asrwt>0</asrwt>
<pdfrwt beam="1">  1        2 0.83462455E-01 0.79327028E+03</pdfrwt>
<pdfrwt beam="2">  1       -2 0.44613316E-01 0.79327028E+03</pdfrwt>
<totfact> 0.26840350E+02</totfact>
</mgrwt>
</event>
<event>
 4    1  0.1806019E-005  0.6410572E+03  0.7818608E-02  0.9823706E-01
          2   -1    0    0  501    0  0.00000000000E+00  0.00000000000E+00  0.61693856190E+03  0.61693856191E+03  0.25500000000E-02 0.  1.
         -2   -1    0    0    0  501 -0.00000000000E+00 -0.00000000000E+00 -0.16652970584E+03  0.16652970586E+03  0.25500000000E-02 0. -1.
   -5000001    1    1    2    0    0 -0.42815909871E+02  0.16756980660E+03  0.34939410813E+03  0.46312966329E+03  0.25000000000E+03 0.  0.
    5000001    1    1    2    0    0  0.42815909871E+02 -0.16756980660E+03  0.10101474793E+03  0.32033860448E+03  0.25000000000E+03 0.  0.
<mgrwt>
<rscale>  0 0.64105724E+03</rscale>
<asrwt>0</asrwt>
<pdfrwt beam="1">  1        2 0.94913627E-01 0.64105724E+03</pdfrwt>
<pdfrwt beam="2">  1       -2 0.25619954E-01 0.64105724E+03</pdfrwt>
<totfact> 0.66103917E+02</totfact>
</mgrwt>
</event>
<event>
 4    1  0.1806019E-005  0.6684538E+03  0.7818608E-02  0.9772755E-01
         -2   -1    0    0    0  501 -0.00000000000E+00  0.00000000000E+00  0.86303361188E+03  0.86303361189E+03  0.25500000000E-02 0. -1.
          2   -1    0    0  501    0  0.00000000000E+00 -0.00000000000E+00 -0.12943600461E+03  0.12943600464E+03  0.25500000000E-02 0.  1.
   -5000001    1    1    2    0    0  0.20734519428E+03  0.72632432615E+02  0.32127504677E+03  0.46258529542E+03  0.25000000000E+03 0.  0.
    5000001    1    1    2    0    0 -0.20734519428E+03 -0.72632432615E+02  0.41232256049E+03  0.52988432110E+03  0.25000000000E+03 0.  0.
<mgrwt>
<rscale>  0 0.66845381E+03</rscale>
<asrwt>0</asrwt>
<pdfrwt beam="1">  1        2 0.19913232E-01 0.66845381E+03</pdfrwt>
<pdfrwt beam="2">  1       -2 0.13277440E+00 0.66845381E+03</pdfrwt>
<totfact> 0.11906851E+02</totfact>
</mgrwt>
</event>
<event>
 4    1  0.1806019E-005  0.6766600E+03  0.7818608E-02  0.9758001E-01
         -2   -1    0    0    0  501 -0.00000000000E+00  0.00000000000E+00  0.99693140535E+02  0.99693140568E+02  0.25500000000E-02 0.  1.
          2   -1    0    0  501    0  0.00000000000E+00 -0.00000000000E+00 -0.11481952245E+04  0.11481952245E+04  0.25500000000E-02 0. -1.
   -5000001    1    1    2    0    0 -0.47104998760E+02  0.21286799007E+03 -0.40142858311E+03  0.52074616604E+03  0.25000000000E+03 0.  0.
    5000001    1    1    2    0    0  0.47104998760E+02 -0.21286799007E+03 -0.64707350083E+03  0.72714219901E+03  0.25000000000E+03 0.  0.
<mgrwt>
<rscale>  0 0.67666000E+03</rscale>
<asrwt>0</asrwt>
<pdfrwt beam="1">  1        2 0.17664541E+00 0.67666000E+03</pdfrwt>
<pdfrwt beam="2">  1       -2 0.15337407E-01 0.67666000E+03</pdfrwt>
<totfact> 0.69310106E+02</totfact>
</mgrwt>
</event>
<event>
 4    1  0.1806019E-005  0.5978888E+03  0.7818608E-02  0.9909796E-01
         -2   -1    0    0    0  501 -0.00000000000E+00  0.00000000000E+00  0.17376230207E+03  0.17376230209E+03  0.25500000000E-02 0. -1.
          2   -1    0    0  501    0  0.00000000000E+00 -0.00000000000E+00 -0.51431037694E+03  0.51431037695E+03  0.25500000000E-02 0.  1.
   -5000001    1    1    2    0    0  0.11313817644E+03  0.21138009958E+02 -0.35962447388E+02  0.27756145275E+03  0.25000000000E+03 0.  0.
    5000001    1    1    2    0    0 -0.11313817644E+03 -0.21138009958E+02 -0.30458562749E+03  0.41051122628E+03  0.25000000000E+03 0.  0.
<mgrwt>
<rscale>  0 0.59788880E+03</rscale>
<asrwt>0</asrwt>
<pdfrwt beam="1">  1        2 0.79124673E-01 0.59788880E+03</pdfrwt>
<pdfrwt beam="2">  1       -2 0.26732662E-01 0.59788880E+03</pdfrwt>
<totfact> 0.75969820E+02</totfact>
</mgrwt>
</event>
<event>
 4    1  0.1806019E-005  0.6735046E+03  0.7818608E-02  0.9763647E-01
          2   -1    0    0  501    0  0.00000000000E+00  0.00000000000E+00  0.10959169905E+03  0.10959169908E+03  0.25500000000E-02 0.  1.
         -2   -1    0    0    0  501 -0.00000000000E+00 -0.00000000000E+00 -0.10347691502E+04  0.10347691502E+04  0.25500000000E-02 0. -1.
   -5000001    1    1    2    0    0  0.19892824697E+03  0.18341861664E+01 -0.28176041935E+03  0.42598679040E+03  0.25000000000E+03 0.  0.
    5000001    1    1    2    0    0 -0.19892824697E+03 -0.18341861664E+01 -0.64341703183E+03  0.71837405892E+03  0.25000000000E+03 0.  0.
<mgrwt>
<rscale>  0 0.67350459E+03</rscale>
<asrwt>0</asrwt>
<pdfrwt beam="1">  1        2 0.16860262E-01 0.67350459E+03</pdfrwt>
<pdfrwt beam="2">  1       -2 0.15919525E+00 0.67350459E+03</pdfrwt>
<totfact> 0.90264727E+01</totfact>
</mgrwt>
</event>
<event>
 4    1  0.1806019E-005  0.7565033E+03  0.7818608E-02  0.9625203E-01
         -2   -1    0    0    0  501 -0.00000000000E+00  0.00000000000E+00  0.62070444457E+02  0.62070444509E+02  0.25500000000E-02 0. -1.
          2   -1    0    0  501    0  0.00000000000E+00 -0.00000000000E+00 -0.23050314220E+04  0.23050314220E+04  0.25500000000E-02 0.  1.
   -5000001    1    1    2    0    0 -0.58165904020E+01 -0.27785776228E+03 -0.13021938343E+04  0.13547869023E+04  0.25000000000E+03 0.  0.
    5000001    1    1    2    0    0  0.58165904020E+01  0.27785776228E+03 -0.94076714326E+03  0.10123149641E+04  0.25000000000E+03 0.  0.
<mgrwt>
<rscale>  0 0.75650334E+03</rscale>
<asrwt>0</asrwt>
<pdfrwt beam="1">  1        2 0.35462015E+00 0.75650334E+03</pdfrwt>
<pdfrwt beam="2">  1       -2 0.95493009E-02 0.75650334E+03</pdfrwt>
<totfact> 0.34366676E+02</totfact>
</mgrwt>
</event>
<event>
 4    1  0.1806019E-005  0.1124567E+04  0.7818608E-02  0.9181573E-01
         -2   -1    0    0    0  501 -0.00000000000E+00  0.00000000000E+00  0.21735204563E+03  0.21735204564E+03  0.25500000000E-02 0. -1.
          2   -1    0    0  501    0  0.00000000000E+00 -0.00000000000E+00 -0.14546114652E+04  0.14546114652E+04  0.25500000000E-02 0.  1.
   -5000001    1    1    2    0    0  0.29394209908E+03  0.23668727506E+03 -0.12275514746E+03  0.46903267478E+03  0.25000000000E+03 0.  0.
    5000001    1    1    2    0    0 -0.29394209908E+03 -0.23668727506E+03 -0.11145042721E+04  0.12029308360E+04  0.25000000000E+03 0.  0.
<mgrwt>
<rscale>  0 0.11245671E+04</rscale>
<asrwt>0</asrwt>
<pdfrwt beam="1">  1        2 0.22378637E+00 0.11245671E+04</pdfrwt>
<pdfrwt beam="2">  1       -2 0.33438777E-01 0.11245671E+04</pdfrwt>
<totfact> 0.11151308E+02</totfact>
</mgrwt>
</event>
<event>
 4    1  0.1806019E-005  0.1203156E+04  0.7818608E-02  0.9110099E-01
          2   -1    0    0  501    0  0.00000000000E+00  0.00000000000E+00  0.92760673119E+03  0.92760673120E+03  0.25500000000E-02 0.  1.
         -2   -1    0    0    0  501 -0.00000000000E+00 -0.00000000000E+00 -0.39013929794E+03  0.39013929795E+03  0.25500000000E-02 0. -1.
   -5000001    1    1    2    0    0 -0.38418044956E+03 -0.21882025508E+03  0.62180080152E+03  0.80287804717E+03  0.25000000000E+03 0.  0.
    5000001    1    1    2    0    0  0.38418044956E+03  0.21882025508E+03 -0.84333368263E+02  0.51486798197E+03  0.25000000000E+03 0.  0.
<mgrwt>
<rscale>  0 0.12031556E+04</rscale>
<asrwt>0</asrwt>
<pdfrwt beam="1">  1        2 0.14270873E+00 0.12031556E+04</pdfrwt>
<pdfrwt beam="2">  1       -2 0.60021430E-01 0.12031556E+04</pdfrwt>
<totfact> 0.71743272E+01</totfact>
</mgrwt>
</event>
<event>
 4    1  0.1806019E-005  0.5826608E+03  0.7818608E-02  0.9942047E-01
         -2   -1    0    0    0  501 -0.00000000000E+00  0.00000000000E+00  0.10979094148E+03  0.10979094151E+03  0.25500000000E-02 0. -1.
          2   -1    0    0  501    0  0.00000000000E+00 -0.00000000000E+00 -0.77304566376E+03  0.77304566376E+03  0.25500000000E-02 0.  1.
   -5000001    1    1    2    0    0 -0.79966749150E+02  0.88093270952E+02 -0.19426882354E+03  0.33822401032E+03  0.25000000000E+03 0.  0.
    5000001    1    1    2    0    0  0.79966749150E+02 -0.88093270952E+02 -0.46898589875E+03  0.54461259495E+03  0.25000000000E+03 0.  0.
<mgrwt>
<rscale>  0 0.58266083E+03</rscale>
<asrwt>0</asrwt>
<pdfrwt beam="1">  1        2 0.11893010E+00 0.58266083E+03</pdfrwt>
<pdfrwt beam="2">  1       -2 0.16890915E-01 0.58266083E+03</pdfrwt>
<totfact> 0.10364294E+03</totfact>
</mgrwt>
</event>
<event>
 4    1  0.1806019E-005  0.7885583E+03  0.7818608E-02  0.9576728E-01
         -2   -1    0    0    0  501 -0.00000000000E+00  0.00000000000E+00  0.44781597430E+03  0.44781597431E+03  0.25500000000E-02 0. -1.
          2   -1    0    0  501    0  0.00000000000E+00 -0.00000000000E+00 -0.34714270578E+03  0.34714270579E+03  0.25500000000E-02 0.  1.
   -5000001    1    1    2    0    0 -0.19021839931E+03 -0.19925607558E+03  0.18204939039E+03  0.41415939399E+03  0.25000000000E+03 0.  0.
    5000001    1    1    2    0    0  0.19021839931E+03  0.19925607558E+03 -0.81376121868E+02  0.38079928611E+03  0.25000000000E+03 0.  0.
<mgrwt>
<rscale>  0 0.78855830E+03</rscale>
<asrwt>0</asrwt>
<pdfrwt beam="1">  1        2 0.53406570E-01 0.78855830E+03</pdfrwt>
<pdfrwt beam="2">  1       -2 0.68894765E-01 0.78855830E+03</pdfrwt>
<totfact> 0.18094589E+02</totfact>
</mgrwt>
</event>
<event>
 4    1  0.1806019E-005  0.5349084E+03  0.7818608E-02  0.1005049E+00
          2   -1    0    0  501    0  0.00000000000E+00  0.00000000000E+00  0.43068973900E+03  0.43068973901E+03  0.25500000000E-02 0.  1.
         -2   -1    0    0    0  501 -0.00000000000E+00 -0.00000000000E+00 -0.16608648459E+03  0.16608648461E+03  0.25500000000E-02 0. -1.
   -5000001    1    1    2    0    0  0.42456078191E+02  0.84729675586E+02  0.12440418357E+03  0.29488648221E+03  0.25000000000E+03 0.  0.
    5000001    1    1    2    0    0 -0.42456078191E+02 -0.84729675586E+02  0.14019907085E+03  0.30188974141E+03  0.25000000000E+03 0.  0.
<mgrwt>
<rscale>  0 0.53490838E+03</rscale>
<asrwt>0</asrwt>
<pdfrwt beam="1">  1        2 0.66259959E-01 0.53490838E+03</pdfrwt>
<pdfrwt beam="2">  1       -2 0.25551767E-01 0.53490838E+03</pdfrwt>
<totfact> 0.10097607E+03</totfact>
</mgrwt>
</event>
<event>
 4    1  0.1806019E-005  0.5697847E+03  0.7818608E-02  0.9970155E-01
         -2   -1    0    0    0  501 -0.00000000000E+00  0.00000000000E+00  0.29772143738E+03  0.29772143739E+03  0.25500000000E-02 0.  1.
          2   -1    0    0  501    0  0.00000000000E+00 -0.00000000000E+00 -0.27261603387E+03  0.27261603389E+03  0.25500000000E-02 0. -1.
   -5000001    1    1    2    0    0 -0.17871906409E+01  0.11829700440E+03  0.80929022220E+02  0.28817855912E+03  0.25000000000E+03 0.  0.
    5000001    1    1    2    0    0  0.17871906409E+01 -0.11829700440E+03 -0.55823618713E+02  0.28215891215E+03  0.25000000000E+03 0.  0.
<mgrwt>
<rscale>  0 0.56978465E+03</rscale>
<asrwt>0</asrwt>
<pdfrwt beam="1">  1        2 0.41940928E-01 0.56978465E+03</pdfrwt>
<pdfrwt beam="2">  1       -2 0.45803298E-01 0.56978465E+03</pdfrwt>
<totfact> 0.55638445E+02</totfact>
</mgrwt>
</event>
<event>
 4    1  0.1806019E-005  0.1076974E+04  0.7818608E-02  0.9227930E-01
          2   -1    0    0  501    0  0.00000000000E+00  0.00000000000E+00  0.18901013293E+03  0.18901013294E+03  0.25500000000E-02 0.  1.
         -2   -1    0    0    0  501 -0.00000000000E+00 -0.00000000000E+00 -0.15341399630E+04  0.15341399630E+04  0.25500000000E-02 0. -1.
   -5000001    1    1    2    0    0  0.37159322048E+03 -0.25909118731E+03 -0.43385886592E+03  0.67523572209E+03  0.25000000000E+03 0.  0.
    5000001    1    1    2    0    0 -0.37159322048E+03  0.25909118731E+03 -0.91127096419E+03  0.10479143739E+04  0.25000000000E+03 0.  0.
<mgrwt>
<rscale>  0 0.10769735E+04</rscale>
<asrwt>0</asrwt>
<pdfrwt beam="1">  1        2 0.29078483E-01 0.10769735E+04</pdfrwt>
<pdfrwt beam="2">  1       -2 0.23602152E+00 0.10769735E+04</pdfrwt>
<totfact> 0.14430432E+01</totfact>
</mgrwt>
</event>
<event>
 4    1  0.1806019E-005  0.6781263E+03  0.7818608E-02  0.9755388E-01
          2   -1    0    0  501    0  0.00000000000E+00  0.00000000000E+00  0.61105486295E+02  0.61105486349E+02  0.25500000000E-02 0. -1.
         -2   -1    0    0    0  501 -0.00000000000E+00 -0.00000000000E+00 -0.18813991756E+04  0.18813991756E+04  0.25500000000E-02 0.  1.
   -5000001    1    1    2    0    0  0.18581973214E+03 -0.32919855809E+02 -0.53829845398E+03  0.62279845481E+03  0.25000000000E+03 0.  0.
    5000001    1    1    2    0    0 -0.18581973214E+03  0.32919855809E+02 -0.12819952353E+04  0.13197062071E+04  0.25000000000E+03 0.  0.
<mgrwt>
<rscale>  0 0.67812628E+03</rscale>
<asrwt>0</asrwt>
<pdfrwt beam="1">  1        2 0.94008455E-02 0.67812628E+03</pdfrwt>
<pdfrwt beam="2">  1       -2 0.28944598E+00 0.67812628E+03</pdfrwt>
<totfact> 0.27717399E+01</totfact>
</mgrwt>
</event>
<event>
 4    1  0.1806019E-005  0.9574962E+03  0.7818608E-02  0.9356431E-01
          2   -1    0    0  501    0  0.00000000000E+00  0.00000000000E+00  0.59070897769E+03  0.59070897769E+03  0.25500000000E-02 0.  1.
         -2   -1    0    0    0  501 -0.00000000000E+00 -0.00000000000E+00 -0.38800791274E+03  0.38800791274E+03  0.25500000000E-02 0. -1.
   -5000001    1    1    2    0    0  0.19968424059E+03 -0.31416424464E+03  0.27277787307E+03  0.52486258829E+03  0.25000000000E+03 0.  0.
    5000001    1    1    2    0    0 -0.19968424059E+03  0.31416424464E+03 -0.70076808115E+02  0.45385430215E+03  0.25000000000E+03 0.  0.
<mgrwt>
<rscale>  0 0.95749623E+03</rscale>
<asrwt>0</asrwt>
<pdfrwt beam="1">  1        2 0.90878304E-01 0.95749623E+03</pdfrwt>
<pdfrwt beam="2">  1       -2 0.59693525E-01 0.95749623E+03</pdfrwt>
<totfact> 0.13247895E+02</totfact>
</mgrwt>
</event>
<event>
 4    1  0.1806019E-005  0.5693798E+03  0.7818608E-02  0.9971052E-01
          2   -1    0    0  501    0  0.00000000000E+00  0.00000000000E+00  0.81334505246E+03  0.81334505247E+03  0.25500000000E-02 0.  1.
         -2   -1    0    0    0  501 -0.00000000000E+00 -0.00000000000E+00 -0.99648178227E+02  0.99648178260E+02  0.25500000000E-02 0. -1.
   -5000001    1    1    2    0    0  0.84509393227E+02 -0.74774356320E+02  0.47912745250E+03  0.55208346982E+03  0.25000000000E+03 0.  0.
    5000001    1    1    2    0    0 -0.84509393227E+02  0.74774356320E+02  0.23456942174E+03  0.36090976091E+03  0.25000000000E+03 0.  0.
<mgrwt>
<rscale>  0 0.56937985E+03</rscale>
<asrwt>0</asrwt>
<pdfrwt beam="1">  1        2 0.12513001E+00 0.56937985E+03</pdfrwt>
<pdfrwt beam="2">  1       -2 0.15330489E-01 0.56937985E+03</pdfrwt>
<totfact> 0.11432833E+03</totfact>
</mgrwt>
</event>
<event>
 4    1  0.1806019E-005  0.6450888E+03  0.7818608E-02  0.9816039E-01
         -2   -1    0    0    0  501 -0.00000000000E+00  0.00000000000E+00  0.83118605621E+02  0.83118605660E+02  0.25500000000E-02 0. -1.
          2   -1    0    0  501    0  0.00000000000E+00 -0.00000000000E+00 -0.12516439196E+04  0.12516439196E+04  0.25500000000E-02 0.  1.
   -5000001    1    1    2    0    0  0.16473987137E+03 -0.11838392584E+03 -0.54387948995E+03  0.63202759331E+03  0.25000000000E+03 0.  0.
    5000001    1    1    2    0    0 -0.16473987137E+03  0.11838392584E+03 -0.62464582406E+03  0.70273493199E+03  0.25000000000E+03 0.  0.
<mgrwt>
<rscale>  0 0.64508882E+03</rscale>
<asrwt>0</asrwt>
<pdfrwt beam="1">  1        2 0.19256059E+00 0.64508882E+03</pdfrwt>
<pdfrwt beam="2">  1       -2 0.12787479E-01 0.64508882E+03</pdfrwt>
<totfact> 0.81791735E+02</totfact>
</mgrwt>
</event>
<event>
 4    1  0.1806019E-005  0.1631062E+04  0.7818608E-02  0.8801689E-01
         -2   -1    0    0    0  501 -0.00000000000E+00  0.00000000000E+00  0.49705229130E+03  0.49705229131E+03  0.25500000000E-02 0. -1.
          2   -1    0    0  501    0  0.00000000000E+00 -0.00000000000E+00 -0.13380708045E+04  0.13380708045E+04  0.25500000000E-02 0.  1.
   -5000001    1    1    2    0    0 -0.17555079421E+03 -0.66547097430E+03 -0.16531711280E+02  0.73242268975E+03  0.25000000000E+03 0.  0.
    5000001    1    1    2    0    0  0.17555079421E+03  0.66547097430E+03 -0.82448680193E+03  0.11027004061E+04  0.25000000000E+03 0.  0.
<mgrwt>
<rscale>  0 0.16310624E+04</rscale>
<asrwt>0</asrwt>
<pdfrwt beam="1">  1        2 0.20585705E+00 0.16310624E+04</pdfrwt>
<pdfrwt beam="2">  1       -2 0.76469584E-01 0.16310624E+04</pdfrwt>
<totfact> 0.22985139E+01</totfact>
</mgrwt>
</event>
<event>
 4    1  0.1806019E-005  0.9823606E+03  0.7818608E-02  0.9328106E-01
         -2   -1    0    0    0  501 -0.00000000000E+00  0.00000000000E+00  0.14946039125E+03  0.14946039127E+03  0.25500000000E-02 0. -1.
          2   -1    0    0  501    0  0.00000000000E+00 -0.00000000000E+00 -0.16141940426E+04  0.16141940426E+04  0.25500000000E-02 0.  1.
   -5000001    1    1    2    0    0  0.35447263180E+03 -0.66654826787E+02 -0.11284150605E+04  0.12107494626E+04  0.25000000000E+03 0.  0.
    5000001    1    1    2    0    0 -0.35447263180E+03  0.66654826787E+02 -0.33631859091E+03  0.55290497124E+03  0.25000000000E+03 0.  0.
<mgrwt>
<rscale>  0 0.98236057E+03</rscale>
<asrwt>0</asrwt>
<pdfrwt beam="1">  1        2 0.24833753E+00 0.98236057E+03</pdfrwt>
<pdfrwt beam="2">  1       -2 0.22993908E-01 0.98236057E+03</pdfrwt>
<totfact> 0.18253364E+02</totfact>
</mgrwt>
</event>
<event>
 4    1  0.1806019E-005  0.5803108E+03  0.7818608E-02  0.9947118E-01
          2   -1    0    0  501    0  0.00000000000E+00  0.00000000000E+00  0.93653511243E+03  0.93653511243E+03  0.25500000000E-02 0. -1.
         -2   -1    0    0    0  501 -0.00000000000E+00 -0.00000000000E+00 -0.89895356518E+02  0.89895356554E+02  0.25500000000E-02 0.  1.
   -5000001    1    1    2    0    0  0.39231490609E+02 -0.11505234872E+03  0.57039313957E+03  0.63452697852E+03  0.25000000000E+03 0.  0.
    5000001    1    1    2    0    0 -0.39231490609E+02  0.11505234872E+03  0.27624661634E+03  0.39190349047E+03  0.25000000000E+03 0.  0.
<mgrwt>
<rscale>  0 0.58031081E+03</rscale>
<asrwt>0</asrwt>
<pdfrwt beam="1">  1        2 0.14408234E+00 0.58031081E+03</pdfrwt>
<pdfrwt beam="2">  1       -2 0.13830054E-01 0.58031081E+03</pdfrwt>
<totfact> 0.11210659E+03</totfact>
</mgrwt>
</event>
<event>
 4    1  0.1806019E-005  0.1116670E+04  0.7818608E-02  0.9189095E-01
         -2   -1    0    0    0  501 -0.00000000000E+00  0.00000000000E+00  0.10507406792E+03  0.10507406795E+03  0.25500000000E-02 0. -1.
          2   -1    0    0  501    0  0.00000000000E+00 -0.00000000000E+00 -0.29668382288E+04  0.29668382288E+04  0.25500000000E-02 0.  1.
   -5000001    1    1    2    0    0 -0.19691363293E+03  0.45848366991E+03 -0.13869091230E+04  0.14949913611E+04  0.25000000000E+03 0.  0.
    5000001    1    1    2    0    0  0.19691363293E+03 -0.45848366991E+03 -0.14748550378E+04  0.15769209356E+04  0.25000000000E+03 0.  0.
<mgrwt>
<rscale>  0 0.11166696E+04</rscale>
<asrwt>0</asrwt>
<pdfrwt beam="1">  1        2 0.45643659E+00 0.11166696E+04</pdfrwt>
<pdfrwt beam="2">  1       -2 0.16165243E-01 0.11166696E+04</pdfrwt>
<totfact> 0.56978834E+01</totfact>
</mgrwt>
</event>
<event>
 4    1  0.1806019E-005  0.6518825E+03  0.7818608E-02  0.9803253E-01
          2   -1    0    0  501    0  0.00000000000E+00  0.00000000000E+00  0.21121931624E+03  0.21121931626E+03  0.25500000000E-02 0.  1.
         -2   -1    0    0    0  501 -0.00000000000E+00 -0.00000000000E+00 -0.50297343462E+03  0.50297343462E+03  0.25500000000E-02 0. -1.
   -5000001    1    1    2    0    0 -0.15138171972E+02 -0.16198593990E+03 -0.19041091036E+01  0.29828213927E+03  0.25000000000E+03 0.  0.
    5000001    1    1    2    0    0  0.15138171972E+02  0.16198593990E+03 -0.28985000927E+03  0.41591061161E+03  0.25000000000E+03 0.  0.
<mgrwt>
<rscale>  0 0.65188252E+03</rscale>
<asrwt>0</asrwt>
<pdfrwt beam="1">  1        2 0.32495280E-01 0.65188252E+03</pdfrwt>
<pdfrwt beam="2">  1       -2 0.77380528E-01 0.65188252E+03</pdfrwt>
<totfact> 0.24475994E+02</totfact>
</mgrwt>
</event>
<event>
 4    1  0.1806019E-005  0.1097851E+04  0.7818608E-02  0.9207289E-01
         -2   -1    0    0    0  501 -0.00000000000E+00  0.00000000000E+00  0.17571854591E+03  0.17571854593E+03  0.25500000000E-02 0. -1.
          2   -1    0    0  501    0  0.00000000000E+00 -0.00000000000E+00 -0.17147843934E+04  0.17147843934E+04  0.25500000000E-02 0.  1.
   -5000001    1    1    2    0    0 -0.16513243196E+03  0.28486447160E+03 -0.13913712409E+04  0.14514924792E+04  0.25000000000E+03 0.  0.
    5000001    1    1    2    0    0  0.16513243196E+03 -0.28486447160E+03 -0.14769460660E+03  0.43901046010E+03  0.25000000000E+03 0.  0.
<mgrwt>
<rscale>  0 0.10978514E+04</rscale>
<asrwt>0</asrwt>
<pdfrwt beam="1">  1        2 0.26381297E+00 0.10978514E+04</pdfrwt>
<pdfrwt beam="2">  1       -2 0.27033624E-01 0.10978514E+04</pdfrwt>
<totfact> 0.11884297E+02</totfact>
</mgrwt>
</event>
<event>
 4    1  0.1806019E-005  0.9502404E+03  0.7818608E-02  0.9364870E-01
          2   -1    0    0  501    0  0.00000000000E+00  0.00000000000E+00  0.62953183415E+03  0.62953183415E+03  0.25500000000E-02 0.  1.
         -2   -1    0    0    0  501 -0.00000000000E+00 -0.00000000000E+00 -0.35858263514E+03  0.35858263514E+03  0.25500000000E-02 0. -1.
   -5000001    1    1    2    0    0  0.25913664277E+03  0.24888091462E+03 -0.56675952816E+02  0.44136795637E+03  0.25000000000E+03 0.  0.
    5000001    1    1    2    0    0 -0.25913664277E+03 -0.24888091462E+03  0.32762515183E+03  0.54674651293E+03  0.25000000000E+03 0.  0.
<mgrwt>
<rscale>  0 0.95024036E+03</rscale>
<asrwt>0</asrwt>
<pdfrwt beam="1">  1        2 0.96851050E-01 0.95024036E+03</pdfrwt>
<pdfrwt beam="2">  1       -2 0.55166560E-01 0.95024036E+03</pdfrwt>
<totfact> 0.14469215E+02</totfact>
</mgrwt>
</event>
<event>
 4    1  0.1806019E-005  0.5347476E+03  0.7818608E-02  0.1005087E+00
         -2   -1    0    0    0  501 -0.00000000000E+00  0.00000000000E+00  0.11274230223E+04  0.11274230223E+04  0.25500000000E-02 0. -1.
          2   -1    0    0  501    0  0.00000000000E+00 -0.00000000000E+00 -0.63408974305E+02  0.63408974356E+02  0.25500000000E-02 0.  1.
   -5000001    1    1    2    0    0  0.40828499354E+02 -0.64357724466E+02  0.40643141150E+03  0.48321359181E+03  0.25000000000E+03 0.  0.
    5000001    1    1    2    0    0 -0.40828499354E+02  0.64357724466E+02  0.65758263651E+03  0.70761840486E+03  0.25000000000E+03 0.  0.
<mgrwt>
<rscale>  0 0.53474756E+03</rscale>
<asrwt>0</asrwt>
<pdfrwt beam="1">  1        2 0.97552266E-02 0.53474756E+03</pdfrwt>
<pdfrwt beam="2">  1       -2 0.17344970E+00 0.53474756E+03</pdfrwt>
<totfact> 0.14124435E+02</totfact>
</mgrwt>
</event>
<event>
 4    1  0.1806019E-005  0.6209482E+03  0.7818608E-02  0.9862874E-01
         -2   -1    0    0    0  501 -0.00000000000E+00  0.00000000000E+00  0.68647683780E+03  0.68647683780E+03  0.25500000000E-02 0. -1.
          2   -1    0    0  501    0  0.00000000000E+00 -0.00000000000E+00 -0.14041866525E+03  0.14041866527E+03  0.25500000000E-02 0.  1.
   -5000001    1    1    2    0    0 -0.65007683077E+02 -0.16269871782E+03  0.19773059726E+03  0.36372278006E+03  0.25000000000E+03 0.  0.
    5000001    1    1    2    0    0  0.65007683077E+02  0.16269871782E+03  0.34832757529E+03  0.46317272302E+03  0.25000000000E+03 0.  0.
<mgrwt>
<rscale>  0 0.62094818E+03</rscale>
<asrwt>0</asrwt>
<pdfrwt beam="1">  1        2 0.21602872E-01 0.62094818E+03</pdfrwt>
<pdfrwt beam="2">  1       -2 0.10561182E+00 0.62094818E+03</pdfrwt>
<totfact> 0.19047442E+02</totfact>
</mgrwt>
</event>
<event>
 4    1  0.1806019E-005  0.7936375E+03  0.7818608E-02  0.9569272E-01
         -2   -1    0    0    0  501 -0.00000000000E+00  0.00000000000E+00  0.13884544365E+03  0.13884544367E+03  0.25500000000E-02 0. -1.
          2   -1    0    0  501    0  0.00000000000E+00 -0.00000000000E+00 -0.11341036615E+04  0.11341036615E+04  0.25500000000E-02 0.  1.
   -5000001    1    1    2    0    0  0.26003011475E+03  0.10544721112E+03 -0.29328938157E+03  0.47671106160E+03  0.25000000000E+03 0.  0.
    5000001    1    1    2    0    0 -0.26003011475E+03 -0.10544721112E+03 -0.70196883624E+03  0.79623804353E+03  0.25000000000E+03 0.  0.
<mgrwt>
<rscale>  0 0.79363751E+03</rscale>
<asrwt>0</asrwt>
<pdfrwt beam="1">  1        2 0.17447748E+00 0.79363751E+03</pdfrwt>
<pdfrwt beam="2">  1       -2 0.21360838E-01 0.79363751E+03</pdfrwt>
<totfact> 0.39668687E+02</totfact>
</mgrwt>
</event>
<event>
 4    1  0.1806019E-005  0.1501747E+04  0.7818608E-02  0.8883292E-01
         -2   -1    0    0    0  501 -0.00000000000E+00  0.00000000000E+00  0.17798800510E+04  0.17798800510E+04  0.25500000000E-02 0. -1.
          2   -1    0    0  501    0  0.00000000000E+00 -0.00000000000E+00 -0.31676902826E+03  0.31676902827E+03  0.25500000000E-02 0.  1.
   -5000001    1    1    2    0    0 -0.55728628369E+03 -0.29729194569E+03  0.11782339139E+04  0.13600314919E+04  0.25000000000E+03 0.  0.
    5000001    1    1    2    0    0  0.55728628369E+03  0.29729194569E+03  0.28487710887E+03  0.73661758744E+03  0.25000000000E+03 0.  0.
<mgrwt>
<rscale>  0 0.15017468E+04</rscale>
<asrwt>0</asrwt>
<pdfrwt beam="1">  1        2 0.48733696E-01 0.15017468E+04</pdfrwt>
<pdfrwt beam="2">  1       -2 0.27382770E+00 0.15017468E+04</pdfrwt>
<totfact> 0.45932853E+00</totfact>
</mgrwt>
</event>
<event>
 4    1  0.1806019E-005  0.8767091E+03  0.7818608E-02  0.9455174E-01
          2   -1    0    0  501    0  0.00000000000E+00  0.00000000000E+00  0.23418525162E+04  0.23418525162E+04  0.25500000000E-02 0.  1.
         -2   -1    0    0    0  501 -0.00000000000E+00 -0.00000000000E+00 -0.82052448187E+02  0.82052448227E+02  0.25500000000E-02 0. -1.
   -5000001    1    1    2    0    0  0.88130427051E+02 -0.33902583401E+03  0.89942237689E+03  0.99707878342E+03  0.25000000000E+03 0.  0.
    5000001    1    1    2    0    0 -0.88130427051E+02  0.33902583401E+03  0.13603776911E+04  0.14268261810E+04  0.25000000000E+03 0.  0.
<mgrwt>
<rscale>  0 0.87670915E+03</rscale>
<asrwt>0</asrwt>
<pdfrwt beam="1">  1        2 0.36028500E+00 0.87670915E+03</pdfrwt>
<pdfrwt beam="2">  1       -2 0.12623454E-01 0.87670915E+03</pdfrwt>
<totfact> 0.20510486E+02</totfact>
</mgrwt>
</event>
<event>
 4    1  0.1806019E-005  0.1107651E+04  0.7818608E-02  0.9197767E-01
         -2   -1    0    0    0  501 -0.00000000000E+00  0.00000000000E+00  0.74095595268E+02  0.74095595312E+02  0.25500000000E-02 0. -1.
          2   -1    0    0  501    0  0.00000000000E+00 -0.00000000000E+00 -0.41395510633E+04  0.41395510633E+04  0.25500000000E-02 0.  1.
   -5000001    1    1    2    0    0  0.40613663432E+03  0.10364847325E+02 -0.31030890979E+04  0.31395407857E+04  0.25000000000E+03 0.  0.
    5000001    1    1    2    0    0 -0.40613663432E+03 -0.10364847325E+02 -0.96236637017E+03  0.10741058729E+04  0.25000000000E+03 0.  0.
<mgrwt>
<rscale>  0 0.11076507E+04</rscale>
<asrwt>0</asrwt>
<pdfrwt beam="1">  1        2 0.63685383E+00 0.11076507E+04</pdfrwt>
<pdfrwt beam="2">  1       -2 0.11399326E-01 0.11076507E+04</pdfrwt>
<totfact> 0.15219616E+01</totfact>
</mgrwt>
</event>
<event>
 4    1  0.1806019E-005  0.1004981E+04  0.7818608E-02  0.9303099E-01
          2   -1    0    0  501    0  0.00000000000E+00  0.00000000000E+00  0.22276280733E+04  0.22276280733E+04  0.25500000000E-02 0.  1.
         -2   -1    0    0    0  501 -0.00000000000E+00 -0.00000000000E+00 -0.11334767640E+03  0.11334767643E+03  0.25500000000E-02 0. -1.
   -5000001    1    1    2    0    0  0.13985425150E+03 -0.22214429083E+03  0.24656760515E+03  0.43840949068E+03  0.25000000000E+03 0.  0.
    5000001    1    1    2    0    0 -0.13985425150E+03  0.22214429083E+03  0.18677127917E+04  0.19025662590E+04  0.25000000000E+03 0.  0.
<mgrwt>
<rscale>  0 0.10049805E+04</rscale>
<asrwt>0</asrwt>
<pdfrwt beam="1">  1        2 0.34271199E+00 0.10049805E+04</pdfrwt>
<pdfrwt beam="2">  1       -2 0.17438105E-01 0.10049805E+04</pdfrwt>
<totfact> 0.13591538E+02</totfact>
</mgrwt>
</event>
<event>
 4    1  0.1806019E-005  0.1632502E+04  0.7818608E-02  0.8800826E-01
          2   -1    0    0  501    0  0.00000000000E+00  0.00000000000E+00  0.19096554704E+04  0.19096554704E+04  0.25500000000E-02 0.  1.
         -2   -1    0    0    0  501 -0.00000000000E+00 -0.00000000000E+00 -0.34889307022E+03  0.34889307023E+03  0.25500000000E-02 0. -1.
   -5000001    1    1    2    0    0  0.38715952422E+03 -0.56015232123E+03  0.26253761559E+03  0.77142019663E+03  0.25000000000E+03 0.  0.
    5000001    1    1    2    0    0 -0.38715952422E+03  0.56015232123E+03  0.12982247846E+04  0.14871283440E+04  0.25000000000E+03 0.  0.
<mgrwt>
<rscale>  0 0.16325018E+04</rscale>
<asrwt>0</asrwt>
<pdfrwt beam="1">  1        2 0.29379315E+00 0.16325018E+04</pdfrwt>
<pdfrwt beam="2">  1       -2 0.53675857E-01 0.16325018E+04</pdfrwt>
<totfact> 0.23463765E+01</totfact>
</mgrwt>
</event>
<event>
 4    1  0.1806019E-005  0.9353287E+03  0.7818608E-02  0.9382465E-01
          2   -1    0    0  501    0  0.00000000000E+00  0.00000000000E+00  0.97015894383E+03  0.97015894384E+03  0.25500000000E-02 0.  1.
         -2   -1    0    0    0  501 -0.00000000000E+00 -0.00000000000E+00 -0.22543723687E+03  0.22543723688E+03  0.25500000000E-02 0. -1.
   -5000001    1    1    2    0    0  0.21474154796E+03  0.56763387324E+02  0.79024525008E+03  0.85809298438E+03  0.25000000000E+03 0.  0.
    5000001    1    1    2    0    0 -0.21474154796E+03 -0.56763387324E+02 -0.45523543111E+02  0.33750319634E+03  0.25000000000E+03 0.  0.
<mgrwt>
<rscale>  0 0.93532872E+03</rscale>
<asrwt>0</asrwt>
<pdfrwt beam="1">  1        2 0.14925522E+00 0.93532872E+03</pdfrwt>
<pdfrwt beam="2">  1       -2 0.34682652E-01 0.93532872E+03</pdfrwt>
<totfact> 0.20531966E+02</totfact>
</mgrwt>
</event>
<event>
 4    1  0.1806019E-005  0.8896260E+03  0.7818608E-02  0.9438643E-01
         -2   -1    0    0    0  501 -0.00000000000E+00  0.00000000000E+00  0.95005486824E+02  0.95005486858E+02  0.25500000000E-02 0. -1.
          2   -1    0    0  501    0  0.00000000000E+00 -0.00000000000E+00 -0.20826018415E+04  0.20826018415E+04  0.25500000000E-02 0.  1.
   -5000001    1    1    2    0    0  0.29993541933E+02 -0.27457235982E+03 -0.15887091050E+04  0.16318045881E+04  0.25000000000E+03 0.  0.
    5000001    1    1    2    0    0 -0.29993541933E+02  0.27457235982E+03 -0.39888724961E+03  0.54580274023E+03  0.25000000000E+03 0.  0.
<mgrwt>
<rscale>  0 0.88962599E+03</rscale>
<asrwt>0</asrwt>
<pdfrwt beam="1">  1        2 0.32040025E+00 0.88962599E+03</pdfrwt>
<pdfrwt beam="2">  1       -2 0.14616230E-01 0.88962599E+03</pdfrwt>
<totfact> 0.22308916E+02</totfact>
</mgrwt>
</event>
<event>
 4    1  0.1806019E-005  0.8784973E+03  0.7818608E-02  0.9452867E-01
          2   -1    0    0  501    0  0.00000000000E+00  0.00000000000E+00  0.47774524899E+04  0.47774524899E+04  0.25500000000E-02 0.  1.
         -2   -1    0    0    0  501 -0.00000000000E+00 -0.00000000000E+00 -0.40385413515E+02  0.40385413595E+02  0.25500000000E-02 0. -1.
   -5000001    1    1    2    0    0  0.28831492477E+03 -0.15922100873E+03  0.31812766603E+04  0.32080364734E+04  0.25000000000E+03 0.  0.
    5000001    1    1    2    0    0 -0.28831492477E+03  0.15922100873E+03  0.15557904161E+04  0.16098014300E+04  0.25000000000E+03 0.  0.
<mgrwt>
<rscale>  0 0.87849734E+03</rscale>
<asrwt>0</asrwt>
<pdfrwt beam="1">  1        2 0.73499221E+00 0.87849734E+03</pdfrwt>
<pdfrwt beam="2">  1       -2 0.62131446E-02 0.87849734E+03</pdfrwt>
<totfact> 0.10421115E+01</totfact>
</mgrwt>
</event>
<event>
 4    1  0.1806019E-005  0.5396570E+03  0.7818608E-02  0.1003917E+00
          2   -1    0    0  501    0  0.00000000000E+00  0.00000000000E+00  0.10175760499E+04  0.10175760499E+04  0.25500000000E-02 0.  1.
         -2   -1    0    0    0  501 -0.00000000000E+00 -0.00000000000E+00 -0.71549861813E+02  0.71549861858E+02  0.25500000000E-02 0. -1.
   -5000001    1    1    2    0    0  0.56164641806E+02  0.63694904691E+02  0.58530668635E+03  0.64210234773E+03  0.25000000000E+03 0.  0.
    5000001    1    1    2    0    0 -0.56164641806E+02 -0.63694904691E+02  0.36071950177E+03  0.44702356407E+03  0.25000000000E+03 0.  0.
<mgrwt>
<rscale>  0 0.53965702E+03</rscale>
<asrwt>0</asrwt>
<pdfrwt beam="1">  1        2 0.15655015E+00 0.53965702E+03</pdfrwt>
<pdfrwt beam="2">  1       -2 0.11007672E-01 0.53965702E+03</pdfrwt>
<totfact> 0.14512179E+03</totfact>
</mgrwt>
</event>
<event>
 4    1  0.1806019E-005  0.7378368E+03  0.7818608E-02  0.9654628E-01
          2   -1    0    0  501    0  0.00000000000E+00  0.00000000000E+00  0.15706895148E+04  0.15706895148E+04  0.25500000000E-02 0.  1.
         -2   -1    0    0    0  501 -0.00000000000E+00 -0.00000000000E+00 -0.86650335310E+02  0.86650335348E+02  0.25500000000E-02 0. -1.
   -5000001    1    1    2    0    0  0.15097442966E+03 -0.12273010203E+03  0.31734349119E+03  0.44840032087E+03  0.25000000000E+03 0.  0.
    5000001    1    1    2    0    0 -0.15097442966E+03  0.12273010203E+03  0.11666956883E+04  0.12089395293E+04  0.25000000000E+03 0.  0.
<mgrwt>
<rscale>  0 0.73783677E+03</rscale>
<asrwt>0</asrwt>
<pdfrwt beam="1">  1        2 0.24164452E+00 0.73783677E+03</pdfrwt>
<pdfrwt beam="2">  1       -2 0.13330822E-01 0.73783677E+03</pdfrwt>
<totfact> 0.50202238E+02</totfact>
</mgrwt>
</event>
<event>
 4    1  0.1806019E-005  0.8094670E+03  0.7818608E-02  0.9546414E-01
         -2   -1    0    0    0  501 -0.00000000000E+00  0.00000000000E+00  0.10131994132E+03  0.10131994135E+03  0.25500000000E-02 0. -1.
          2   -1    0    0  501    0  0.00000000000E+00 -0.00000000000E+00 -0.16167517993E+04  0.16167517993E+04  0.25500000000E-02 0.  1.
   -5000001    1    1    2    0    0  0.20015863867E+03 -0.24382487815E+03 -0.66778853684E+03  0.77971506448E+03  0.25000000000E+03 0.  0.
    5000001    1    1    2    0    0 -0.20015863867E+03  0.24382487815E+03 -0.84764332117E+03  0.93835667620E+03  0.25000000000E+03 0.  0.
<mgrwt>
<rscale>  0 0.80946698E+03</rscale>
<asrwt>0</asrwt>
<pdfrwt beam="1">  1        2 0.24873103E+00 0.80946698E+03</pdfrwt>
<pdfrwt beam="2">  1       -2 0.15587684E-01 0.80946698E+03</pdfrwt>
<totfact> 0.36221373E+02</totfact>
</mgrwt>
</event>
<event>
 4    1  0.1806019E-005  0.1298940E+04  0.7818608E-02  0.9030406E-01
          2   -1    0    0  501    0  0.00000000000E+00  0.00000000000E+00  0.56863125608E+03  0.56863125608E+03  0.25500000000E-02 0.  1.
         -2   -1    0    0    0  501 -0.00000000000E+00 -0.00000000000E+00 -0.74180150867E+03  0.74180150867E+03  0.25500000000E-02 0. -1.
   -5000001    1    1    2    0    0 -0.34394034399E+03 -0.44832785215E+03 -0.28840178788E+03  0.68188592484E+03  0.25000000000E+03 0.  0.
    5000001    1    1    2    0    0  0.34394034399E+03  0.44832785215E+03  0.11523153529E+03  0.62854683992E+03  0.25000000000E+03 0.  0.
<mgrwt>
<rscale>  0 0.12989404E+04</rscale>
<asrwt>0</asrwt>
<pdfrwt beam="1">  1        2 0.87481731E-01 0.12989404E+04</pdfrwt>
<pdfrwt beam="2">  1       -2 0.11412331E+00 0.12989404E+04</pdfrwt>
<totfact> 0.31155556E+01</totfact>
</mgrwt>
</event>
<event>
 4    1  0.1806019E-005  0.1005109E+04  0.7818608E-02  0.9302959E-01
         -2   -1    0    0    0  501 -0.00000000000E+00  0.00000000000E+00  0.25839516752E+03  0.25839516754E+03  0.25500000000E-02 0. -1.
          2   -1    0    0  501    0  0.00000000000E+00 -0.00000000000E+00 -0.97742241455E+03  0.97742241455E+03  0.25500000000E-02 0.  1.
   -5000001    1    1    2    0    0  0.34576108009E+03 -0.45842746103E+02 -0.68109988357E+03  0.80501511369E+03  0.25000000000E+03 0.  0.
    5000001    1    1    2    0    0 -0.34576108009E+03  0.45842746103E+02 -0.37927363455E+02  0.43080246839E+03  0.25000000000E+03 0.  0.
<mgrwt>
<rscale>  0 0.10051094E+04</rscale>
<asrwt>0</asrwt>
<pdfrwt beam="1">  1        2 0.15037268E+00 0.10051094E+04</pdfrwt>
<pdfrwt beam="2">  1       -2 0.39753103E-01 0.10051094E+04</pdfrwt>
<totfact> 0.15551771E+02</totfact>
</mgrwt>
</event>
<event>
 4    1  0.1806019E-005  0.7583184E+03  0.7818608E-02  0.9622390E-01
          2   -1    0    0  501    0  0.00000000000E+00  0.00000000000E+00  0.53039430555E+03  0.53039430556E+03  0.25500000000E-02 0.  1.
         -2   -1    0    0    0  501 -0.00000000000E+00 -0.00000000000E+00 -0.27104680534E+03  0.27104680535E+03  0.25500000000E-02 0. -1.
   -5000001    1    1    2    0    0 -0.21428379106E+03  0.15851523733E+03  0.23650123124E+03  0.43529008253E+03  0.25000000000E+03 0.  0.
    5000001    1    1    2    0    0  0.21428379106E+03 -0.15851523733E+03  0.22846268971E+02  0.36615102838E+03  0.25000000000E+03 0.  0.
<mgrwt>
<rscale>  0 0.75831836E+03</rscale>
<asrwt>0</asrwt>
<pdfrwt beam="1">  1        2 0.81599123E-01 0.75831836E+03</pdfrwt>
<pdfrwt beam="2">  1       -2 0.41699509E-01 0.75831836E+03</pdfrwt>
<totfact> 0.31542313E+02</totfact>
</mgrwt>
</event>
<event>
 4    1  0.1806019E-005  0.9262588E+03  0.7818608E-02  0.9393339E-01
          2   -1    0    0  501    0  0.00000000000E+00  0.00000000000E+00  0.27213761683E+04  0.27213761683E+04  0.25500000000E-02 0. -1.
         -2   -1    0    0    0  501 -0.00000000000E+00 -0.00000000000E+00 -0.78816311873E+02  0.78816311914E+02  0.25500000000E-02 0.  1.
   -5000001    1    1    2    0    0  0.17307768166E+03 -0.28043268781E+03  0.19510074241E+04  0.19943741738E+04  0.25000000000E+03 0.  0.
    5000001    1    1    2    0    0 -0.17307768166E+03  0.28043268781E+03  0.69155243237E+03  0.80581830645E+03  0.25000000000E+03 0.  0.
<mgrwt>
<rscale>  0 0.92625878E+03</rscale>
<asrwt>0</asrwt>
<pdfrwt beam="1">  1        2 0.41867326E+00 0.92625878E+03</pdfrwt>
<pdfrwt beam="2">  1       -2 0.12125586E-01 0.92625878E+03</pdfrwt>
<totfact> 0.13236519E+02</totfact>
</mgrwt>
</event>
<event>
 4    1  0.1806019E-005  0.1131331E+04  0.7818608E-02  0.9175182E-01
         -2   -1    0    0    0  501 -0.00000000000E+00  0.00000000000E+00  0.18685582734E+03  0.18685582736E+03  0.25500000000E-02 0. -1.
          2   -1    0    0  501    0  0.00000000000E+00 -0.00000000000E+00 -0.17124285465E+04  0.17124285465E+04  0.25500000000E-02 0.  1.
   -5000001    1    1    2    0    0 -0.15683803688E+02 -0.46810453247E+03 -0.10905166658E+04  0.12128868181E+04  0.25000000000E+03 0.  0.
    5000001    1    1    2    0    0  0.15683803688E+02  0.46810453247E+03 -0.43505605328E+03  0.68639755573E+03  0.25000000000E+03 0.  0.
<mgrwt>
<rscale>  0 0.11313306E+04</rscale>
<asrwt>0</asrwt>
<pdfrwt beam="1">  1        2 0.26345054E+00 0.11313306E+04</pdfrwt>
<pdfrwt beam="2">  1       -2 0.28747051E-01 0.11313306E+04</pdfrwt>
<totfact> 0.10619120E+02</totfact>
</mgrwt>
</event>
<event>
 4    1  0.1806019E-005  0.1160491E+04  0.7818608E-02  0.9148159E-01
          2   -1    0    0  501    0  0.00000000000E+00  0.00000000000E+00  0.85610031623E+03  0.85610031623E+03  0.25500000000E-02 0.  1.
         -2   -1    0    0    0  501 -0.00000000000E+00 -0.00000000000E+00 -0.39327734365E+03  0.39327734366E+03  0.25500000000E-02 0. -1.
   -5000001    1    1    2    0    0  0.27833102078E+03 -0.23484918357E+02  0.70824073359E+03  0.80132679678E+03  0.25000000000E+03 0.  0.
    5000001    1    1    2    0    0 -0.27833102078E+03  0.23484918357E+02 -0.24541776101E+03  0.44805086312E+03  0.25000000000E+03 0.  0.
<mgrwt>
<rscale>  0 0.11604910E+04</rscale>
<asrwt>0</asrwt>
<pdfrwt beam="1">  1        2 0.13170774E+00 0.11604910E+04</pdfrwt>
<pdfrwt beam="2">  1       -2 0.60504207E-01 0.11604910E+04</pdfrwt>
<totfact> 0.79129416E+01</totfact>
</mgrwt>
</event>
<event>
 4    1  0.1806019E-005  0.7412841E+03  0.7818608E-02  0.9649124E-01
         -2   -1    0    0    0  501 -0.00000000000E+00  0.00000000000E+00  0.25182672135E+03  0.25182672137E+03  0.25500000000E-02 0. -1.
          2   -1    0    0  501    0  0.00000000000E+00 -0.00000000000E+00 -0.54551605841E+03  0.54551605841E+03  0.25500000000E-02 0.  1.
   -5000001    1    1    2    0    0 -0.21732276114E+03  0.16038683390E+03 -0.99683730256E+02  0.38130036071E+03  0.25000000000E+03 0.  0.
    5000001    1    1    2    0    0  0.21732276114E+03 -0.16038683390E+03 -0.19400560679E+03  0.41604241907E+03  0.25000000000E+03 0.  0.
<mgrwt>
<rscale>  0 0.74128408E+03</rscale>
<asrwt>0</asrwt>
<pdfrwt beam="1">  1        2 0.83925547E-01 0.74128408E+03</pdfrwt>
<pdfrwt beam="2">  1       -2 0.38742573E-01 0.74128408E+03</pdfrwt>
<totfact> 0.35245452E+02</totfact>
</mgrwt>
</event>
<event>
 4    1  0.1806019E-005  0.9940972E+03  0.7818608E-02  0.9315043E-01
         -2   -1    0    0    0  501 -0.00000000000E+00  0.00000000000E+00  0.19305099164E+03  0.19305099165E+03  0.25500000000E-02 0. -1.
          2   -1    0    0  501    0  0.00000000000E+00 -0.00000000000E+00 -0.12797515622E+04  0.12797515622E+04  0.25500000000E-02 0.  1.
   -5000001    1    1    2    0    0 -0.38232809157E+03 -0.62773456824E+02 -0.81830429734E+03  0.93927482641E+03  0.25000000000E+03 0.  0.
    5000001    1    1    2    0    0  0.38232809157E+03  0.62773456824E+02 -0.26839627324E+03  0.53352772746E+03  0.25000000000E+03 0.  0.
<mgrwt>
<rscale>  0 0.99409719E+03</rscale>
<asrwt>0</asrwt>
<pdfrwt beam="1">  1        2 0.19688485E+00 0.99409719E+03</pdfrwt>
<pdfrwt beam="2">  1       -2 0.29700153E-01 0.99409719E+03</pdfrwt>
<totfact> 0.17701970E+02</totfact>
</mgrwt>
</event>
<event>
 4    1  0.1806019E-005  0.7784159E+03  0.7818608E-02  0.9591796E-01
          2   -1    0    0  501    0  0.00000000000E+00  0.00000000000E+00  0.17227192900E+04  0.17227192900E+04  0.25500000000E-02 0. -1.
         -2   -1    0    0    0  501 -0.00000000000E+00 -0.00000000000E+00 -0.87932388650E+02  0.87932388687E+02  0.25500000000E-02 0.  1.
   -5000001    1    1    2    0    0 -0.25968484965E+03  0.28575115735E+02  0.48248697770E+03  0.60294812548E+03  0.25000000000E+03 0.  0.
    5000001    1    1    2    0    0  0.25968484965E+03 -0.28575115735E+02  0.11522999236E+04  0.12077035532E+04  0.25000000000E+03 0.  0.
<mgrwt>
<rscale>  0 0.77841588E+03</rscale>
<asrwt>0</asrwt>
<pdfrwt beam="1">  1        2 0.26503371E+00 0.77841588E+03</pdfrwt>
<pdfrwt beam="2">  1       -2 0.13528061E-01 0.77841588E+03</pdfrwt>
<totfact> 0.40313603E+02</totfact>
</mgrwt>
</event>
<event>
 4    1  0.1806019E-005  0.9759526E+03  0.7818608E-02  0.9335320E-01
          2   -1    0    0  501    0  0.00000000000E+00  0.00000000000E+00  0.32870045290E+03  0.32870045291E+03  0.25500000000E-02 0.  1.
         -2   -1    0    0    0  501 -0.00000000000E+00 -0.00000000000E+00 -0.72443125571E+03  0.72443125571E+03  0.25500000000E-02 0. -1.
   -5000001    1    1    2    0    0 -0.34427844585E+03  0.22994814158E+03 -0.12779087538E+03  0.50023424905E+03  0.25000000000E+03 0.  0.
    5000001    1    1    2    0    0  0.34427844585E+03 -0.22994814158E+03 -0.26793992743E+03  0.55289745957E+03  0.25000000000E+03 0.  0.
<mgrwt>
<rscale>  0 0.97595263E+03</rscale>
<asrwt>0</asrwt>
<pdfrwt beam="1">  1        2 0.50569301E-01 0.97595263E+03</pdfrwt>
<pdfrwt beam="2">  1       -2 0.11145096E+00 0.97595263E+03</pdfrwt>
<totfact> 0.63065399E+01</totfact>
</mgrwt>
</event>
<event>
 4    1  0.1806019E-005  0.8137333E+03  0.7818608E-02  0.9540349E-01
          2   -1    0    0  501    0  0.00000000000E+00  0.00000000000E+00  0.86147213797E+03  0.86147213797E+03  0.25500000000E-02 0.  1.
         -2   -1    0    0    0  501 -0.00000000000E+00 -0.00000000000E+00 -0.19215998166E+03  0.19215998167E+03  0.25500000000E-02 0. -1.
   -5000001    1    1    2    0    0  0.30606380180E+03  0.96701660791E+02  0.32977543002E+03  0.52371566352E+03  0.25000000000E+03 0.  0.
    5000001    1    1    2    0    0 -0.30606380180E+03 -0.96701660791E+02  0.33953672629E+03  0.52991645613E+03  0.25000000000E+03 0.  0.
<mgrwt>
<rscale>  0 0.81373330E+03</rscale>
<asrwt>0</asrwt>
<pdfrwt beam="1">  1        2 0.13253417E+00 0.81373330E+03</pdfrwt>
<pdfrwt beam="2">  1       -2 0.29563074E-01 0.81373330E+03</pdfrwt>
<totfact> 0.32967092E+02</totfact>
</mgrwt>
</event>
<event>
 4    1  0.1806019E-005  0.7997815E+03  0.7818608E-02  0.9560333E-01
          2   -1    0    0  501    0  0.00000000000E+00  0.00000000000E+00  0.84342632026E+03  0.84342632026E+03  0.25500000000E-02 0. -1.
         -2   -1    0    0    0  501 -0.00000000000E+00 -0.00000000000E+00 -0.18959880271E+03  0.18959880272E+03  0.25500000000E-02 0.  1.
   -5000001    1    1    2    0    0  0.24232315332E+03 -0.15751080726E+03  0.47909904389E+03  0.61283444656E+03  0.25000000000E+03 0.  0.
    5000001    1    1    2    0    0 -0.24232315332E+03  0.15751080726E+03  0.17472847366E+03  0.42019067642E+03  0.25000000000E+03 0.  0.
<mgrwt>
<rscale>  0 0.79978152E+03</rscale>
<asrwt>0</asrwt>
<pdfrwt beam="1">  1        2 0.12975789E+00 0.79978152E+03</pdfrwt>
<pdfrwt beam="2">  1       -2 0.29169047E-01 0.79978152E+03</pdfrwt>
<totfact> 0.34806158E+02</totfact>
</mgrwt>
</event>
<event>
 4    1  0.1806019E-005  0.6810637E+03  0.7818608E-02  0.9750175E-01
         -2   -1    0    0    0  501 -0.00000000000E+00  0.00000000000E+00  0.15646021287E+03  0.15646021289E+03  0.25500000000E-02 0. -1.
          2   -1    0    0  501    0  0.00000000000E+00 -0.00000000000E+00 -0.74115931480E+03  0.74115931481E+03  0.25500000000E-02 0.  1.
   -5000001    1    1    2    0    0 -0.16123133885E+03  0.26778698672E+02 -0.76793226322E+02  0.30839883745E+03  0.25000000000E+03 0.  0.
    5000001    1    1    2    0    0  0.16123133885E+03 -0.26778698672E+02 -0.50790587561E+03  0.58922069024E+03  0.25000000000E+03 0.  0.
<mgrwt>
<rscale>  0 0.68106371E+03</rscale>
<asrwt>0</asrwt>
<pdfrwt beam="1">  1        2 0.11402451E+00 0.68106371E+03</pdfrwt>
<pdfrwt beam="2">  1       -2 0.24070802E-01 0.68106371E+03</pdfrwt>
<totfact> 0.58793879E+02</totfact>
</mgrwt>
</event>
<event>
 4    1  0.1806019E-005  0.7515645E+03  0.7818608E-02  0.9632899E-01
         -2   -1    0    0    0  501 -0.00000000000E+00  0.00000000000E+00  0.16030034098E+03  0.16030034100E+03  0.25500000000E-02 0. -1.
          2   -1    0    0  501    0  0.00000000000E+00 -0.00000000000E+00 -0.88092327280E+03  0.88092327281E+03  0.25500000000E-02 0.  1.
   -5000001    1    1    2    0    0  0.22945955635E+03  0.23545645070E+02 -0.58157037240E+03  0.67374341069E+03  0.25000000000E+03 0.  0.
    5000001    1    1    2    0    0 -0.22945955635E+03 -0.23545645070E+02 -0.13905255942E+03  0.36748020312E+03  0.25000000000E+03 0.  0.
<mgrwt>
<rscale>  0 0.75156450E+03</rscale>
<asrwt>0</asrwt>
<pdfrwt beam="1">  1        2 0.13552665E+00 0.75156450E+03</pdfrwt>
<pdfrwt beam="2">  1       -2 0.24661592E-01 0.75156450E+03</pdfrwt>
<totfact> 0.44630511E+02</totfact>
</mgrwt>
</event>
<event>
 4    1  0.1806019E-005  0.6862725E+03  0.7818608E-02  0.9741000E-01
         -2   -1    0    0    0  501 -0.00000000000E+00  0.00000000000E+00  0.14938599716E+03  0.14938599718E+03  0.25500000000E-02 0. -1.
          2   -1    0    0  501    0  0.00000000000E+00 -0.00000000000E+00 -0.78817628588E+03  0.78817628588E+03  0.25500000000E-02 0.  1.
   -5000001    1    1    2    0    0 -0.77634235657E+02 -0.18441905641E+03 -0.15093496728E+03  0.35400399329E+03  0.25000000000E+03 0.  0.
    5000001    1    1    2    0    0  0.77634235657E+02  0.18441905641E+03 -0.48785532144E+03  0.58355828978E+03  0.25000000000E+03 0.  0.
<mgrwt>
<rscale>  0 0.68627254E+03</rscale>
<asrwt>0</asrwt>
<pdfrwt beam="1">  1        2 0.12125789E+00 0.68627254E+03</pdfrwt>
<pdfrwt beam="2">  1       -2 0.22982462E-01 0.68627254E+03</pdfrwt>
<totfact> 0.58948454E+02</totfact>
</mgrwt>
</event>
<event>
 4    1  0.1806019E-005  0.6910493E+03  0.7818608E-02  0.9732663E-01
          2   -1    0    0  501    0  0.00000000000E+00  0.00000000000E+00  0.11278765860E+04  0.11278765860E+04  0.25500000000E-02 0.  1.
         -2   -1    0    0    0  501 -0.00000000000E+00 -0.00000000000E+00 -0.10585135936E+03  0.10585135939E+03  0.25500000000E-02 0. -1.
   -5000001    1    1    2    0    0  0.14119451930E+02 -0.23720475734E+03  0.47434599153E+03  0.58648919471E+03  0.25000000000E+03 0.  0.
    5000001    1    1    2    0    0 -0.14119451930E+02  0.23720475734E+03  0.54767923513E+03  0.64723875071E+03  0.25000000000E+03 0.  0.
<mgrwt>
<rscale>  0 0.69104926E+03</rscale>
<asrwt>0</asrwt>
<pdfrwt beam="1">  1        2 0.17351947E+00 0.69104926E+03</pdfrwt>
<pdfrwt beam="2">  1       -2 0.16284825E-01 0.69104926E+03</pdfrwt>
<totfact> 0.64351813E+02</totfact>
</mgrwt>
</event>
<event>
 4    1  0.1806019E-005  0.7798646E+03  0.7818608E-02  0.9589628E-01
          2   -1    0    0  501    0  0.00000000000E+00  0.00000000000E+00  0.11772971105E+04  0.11772971105E+04  0.25500000000E-02 0.  1.
         -2   -1    0    0    0  501 -0.00000000000E+00 -0.00000000000E+00 -0.12914937034E+03  0.12914937037E+03  0.25500000000E-02 0. -1.
   -5000001    1    1    2    0    0  0.28909059481E+03 -0.15380701214E+02  0.39718484866E+03  0.55142156467E+03  0.25000000000E+03 0.  0.
    5000001    1    1    2    0    0 -0.28909059481E+03  0.15380701214E+02  0.65096289148E+03  0.75502491619E+03  0.25000000000E+03 0.  0.
<mgrwt>
<rscale>  0 0.77986455E+03</rscale>
<asrwt>0</asrwt>
<pdfrwt beam="1">  1        2 0.18112263E+00 0.77986455E+03</pdfrwt>
<pdfrwt beam="2">  1       -2 0.19869134E-01 0.77986455E+03</pdfrwt>
<totfact> 0.42466683E+02</totfact>
</mgrwt>
</event>
<event>
 4    1  0.1806019E-005  0.1282715E+04  0.7818608E-02  0.9043386E-01
         -2   -1    0    0    0  501 -0.00000000000E+00  0.00000000000E+00  0.23200807884E+03  0.23200807885E+03  0.25500000000E-02 0. -1.
          2   -1    0    0  501    0  0.00000000000E+00 -0.00000000000E+00 -0.17729531308E+04  0.17729531309E+04  0.25500000000E-02 0.  1.
   -5000001    1    1    2    0    0 -0.56819420610E+03  0.14344402284E+03 -0.65541379125E+03  0.91405037131E+03  0.25000000000E+03 0.  0.
    5000001    1    1    2    0    0  0.56819420610E+03 -0.14344402284E+03 -0.88553126076E+03  0.10909108384E+04  0.25000000000E+03 0.  0.
<mgrwt>
<rscale>  0 0.12827150E+04</rscale>
<asrwt>0</asrwt>
<pdfrwt beam="1">  1        2 0.27276201E+00 0.12827150E+04</pdfrwt>
<pdfrwt beam="2">  1       -2 0.35693552E-01 0.12827150E+04</pdfrwt>
<totfact> 0.64672166E+01</totfact>
</mgrwt>
</event>
<event>
 4    1  0.1806019E-005  0.1764609E+04  0.7818608E-02  0.8725350E-01
         -2   -1    0    0    0  501 -0.00000000000E+00  0.00000000000E+00  0.43698878849E+03  0.43698878850E+03  0.25500000000E-02 0. -1.
          2   -1    0    0  501    0  0.00000000000E+00 -0.00000000000E+00 -0.17814214272E+04  0.17814214272E+04  0.25500000000E-02 0.  1.
   -5000001    1    1    2    0    0  0.79273290245E+03  0.95365175217E+02 -0.32011670665E+03  0.89582067243E+03  0.25000000000E+03 0.  0.
    5000001    1    1    2    0    0 -0.79273290245E+03 -0.95365175217E+02 -0.10243159320E+04  0.13225895432E+04  0.25000000000E+03 0.  0.
<mgrwt>
<rscale>  0 0.17646090E+04</rscale>
<asrwt>0</asrwt>
<pdfrwt beam="1">  1        2 0.27406483E+00 0.17646090E+04</pdfrwt>
<pdfrwt beam="2">  1       -2 0.67229045E-01 0.17646090E+04</pdfrwt>
<totfact> 0.16978398E+01</totfact>
</mgrwt>
</event>
<event>
 4    1  0.1806019E-005  0.7886296E+03  0.7818608E-02  0.9576623E-01
         -2   -1    0    0    0  501 -0.00000000000E+00  0.00000000000E+00  0.17027231394E+03  0.17027231396E+03  0.25500000000E-02 0. -1.
          2   -1    0    0  501    0  0.00000000000E+00 -0.00000000000E+00 -0.91314995685E+03  0.91314995685E+03  0.25500000000E-02 0.  1.
   -5000001    1    1    2    0    0  0.10298424566E+03  0.28429101936E+03 -0.31722981436E+03  0.50454127052E+03  0.25000000000E+03 0.  0.
    5000001    1    1    2    0    0 -0.10298424566E+03 -0.28429101936E+03 -0.42564782855E+03  0.57888100029E+03  0.25000000000E+03 0.  0.
<mgrwt>
<rscale>  0 0.78862959E+03</rscale>
<asrwt>0</asrwt>
<pdfrwt beam="1">  1        2 0.14048461E+00 0.78862959E+03</pdfrwt>
<pdfrwt beam="2">  1       -2 0.26195741E-01 0.78862959E+03</pdfrwt>
<totfact> 0.38004397E+02</totfact>
</mgrwt>
</event>
<event>
 4    1  0.1806019E-005  0.9101035E+03  0.7818608E-02  0.9413039E-01
         -2   -1    0    0    0  501 -0.00000000000E+00  0.00000000000E+00  0.65825682476E+03  0.65825682477E+03  0.25500000000E-02 0. -1.
          2   -1    0    0  501    0  0.00000000000E+00 -0.00000000000E+00 -0.31457646748E+03  0.31457646749E+03  0.25500000000E-02 0.  1.
   -5000001    1    1    2    0    0  0.35607865894E+03  0.39194139084E+02  0.30807652208E+03  0.53454591510E+03  0.25000000000E+03 0.  0.
    5000001    1    1    2    0    0 -0.35607865894E+03 -0.39194139084E+02  0.35603835202E+02  0.43828737716E+03  0.25000000000E+03 0.  0.
<mgrwt>
<rscale>  0 0.91010353E+03</rscale>
<asrwt>0</asrwt>
<pdfrwt beam="1">  1        2 0.48396379E-01 0.91010353E+03</pdfrwt>
<pdfrwt beam="2">  1       -2 0.10127028E+00 0.91010353E+03</pdfrwt>
<totfact> 0.83706278E+01</totfact>
</mgrwt>
</event>
<event>
 4    1  0.1806019E-005  0.7907993E+03  0.7818608E-02  0.9573431E-01
          2   -1    0    0  501    0  0.00000000000E+00  0.00000000000E+00  0.15036172699E+04  0.15036172699E+04  0.25500000000E-02 0. -1.
         -2   -1    0    0    0  501 -0.00000000000E+00 -0.00000000000E+00 -0.10397651015E+03  0.10397651018E+03  0.25500000000E-02 0.  1.
   -5000001    1    1    2    0    0 -0.23156450802E+03 -0.15133040440E+03  0.43229979272E+03  0.57088188223E+03  0.25000000000E+03 0.  0.
    5000001    1    1    2    0    0  0.23156450802E+03  0.15133040440E+03  0.96734096705E+03  0.10367118979E+04  0.25000000000E+03 0.  0.
<mgrwt>
<rscale>  0 0.79079928E+03</rscale>
<asrwt>0</asrwt>
<pdfrwt beam="1">  1        2 0.23132573E+00 0.79079928E+03</pdfrwt>
<pdfrwt beam="2">  1       -2 0.15996386E-01 0.79079928E+03</pdfrwt>
<totfact> 0.40089632E+02</totfact>
</mgrwt>
</event>
<event>
 4    1  0.1806019E-005  0.6542248E+03  0.7818608E-02  0.9798884E-01
         -2   -1    0    0    0  501 -0.00000000000E+00  0.00000000000E+00  0.18225333330E+03  0.18225333332E+03  0.25500000000E-02 0. -1.
          2   -1    0    0  501    0  0.00000000000E+00 -0.00000000000E+00 -0.58710866617E+03  0.58710866617E+03  0.25500000000E-02 0.  1.
   -5000001    1    1    2    0    0 -0.20509429543E+03 -0.35042649940E+02 -0.24334898867E+03  0.40621470631E+03  0.25000000000E+03 0.  0.
    5000001    1    1    2    0    0  0.20509429543E+03  0.35042649940E+02 -0.16150634419E+03  0.36314729319E+03  0.25000000000E+03 0.  0.
<mgrwt>
<rscale>  0 0.65422477E+03</rscale>
<asrwt>0</asrwt>
<pdfrwt beam="1">  1        2 0.90324410E-01 0.65422477E+03</pdfrwt>
<pdfrwt beam="2">  1       -2 0.28038975E-01 0.65422477E+03</pdfrwt>
<totfact> 0.59528475E+02</totfact>
</mgrwt>
</event>
<event>
 4    1  0.1806019E-005  0.6050065E+03  0.7818608E-02  0.9895073E-01
          2   -1    0    0  501    0  0.00000000000E+00  0.00000000000E+00  0.64497615378E+03  0.64497615378E+03  0.25500000000E-02 0.  1.
         -2   -1    0    0    0  501 -0.00000000000E+00 -0.00000000000E+00 -0.14187842565E+03  0.14187842568E+03  0.25500000000E-02 0. -1.
   -5000001    1    1    2    0    0  0.16161442556E+03 -0.27227118686E+02  0.31182112934E+03  0.43196406707E+03  0.25000000000E+03 0.  0.
    5000001    1    1    2    0    0 -0.16161442556E+03  0.27227118686E+02  0.19127659878E+03  0.35489051239E+03  0.25000000000E+03 0.  0.
<mgrwt>
<rscale>  0 0.60500645E+03</rscale>
<asrwt>0</asrwt>
<pdfrwt beam="1">  1        2 0.99227101E-01 0.60500645E+03</pdfrwt>
<pdfrwt beam="2">  1       -2 0.21827450E-01 0.60500645E+03</pdfrwt>
<totfact> 0.83409189E+02</totfact>
</mgrwt>
</event>
<event>
 4    1  0.1806019E-005  0.5716547E+03  0.7818608E-02  0.9966024E-01
         -2   -1    0    0    0  501 -0.00000000000E+00  0.00000000000E+00  0.42161911473E+02  0.42161911550E+02  0.25500000000E-02 0. -1.
          2   -1    0    0  501    0  0.00000000000E+00 -0.00000000000E+00 -0.19377036081E+04  0.19377036081E+04  0.25500000000E-02 0.  1.
   -5000001    1    1    2    0    0 -0.58954100242E+02  0.95607469903E+02 -0.12287311616E+04  0.12589267817E+04  0.25000000000E+03 0.  0.
    5000001    1    1    2    0    0  0.58954100242E+02 -0.95607469903E+02 -0.66681053506E+03  0.72093873797E+03  0.25000000000E+03 0.  0.
<mgrwt>
<rscale>  0 0.57165475E+03</rscale>
<asrwt>0</asrwt>
<pdfrwt beam="1">  1        2 0.29810818E+00 0.57165475E+03</pdfrwt>
<pdfrwt beam="2">  1       -2 0.64864494E-02 0.57165475E+03</pdfrwt>
<totfact> 0.10259022E+03</totfact>
</mgrwt>
</event>
<event>
 4    1  0.1806019E-005  0.7999618E+03  0.7818608E-02  0.9560072E-01
          2   -1    0    0  501    0  0.00000000000E+00  0.00000000000E+00  0.10708286440E+04  0.10708286440E+04  0.25500000000E-02 0.  1.
         -2   -1    0    0    0  501 -0.00000000000E+00 -0.00000000000E+00 -0.14940272695E+03  0.14940272697E+03  0.25500000000E-02 0. -1.
   -5000001    1    1    2    0    0  0.15405833597E+03  0.19791803523E+03  0.74436140468E+03  0.82430541690E+03  0.25000000000E+03 0.  0.
    5000001    1    1    2    0    0 -0.15405833597E+03 -0.19791803523E+03  0.17706451235E+03  0.39592595405E+03  0.25000000000E+03 0.  0.
<mgrwt>
<rscale>  0 0.79996180E+03</rscale>
<asrwt>0</asrwt>
<pdfrwt beam="1">  1        2 0.16474287E+00 0.79996180E+03</pdfrwt>
<pdfrwt beam="2">  1       -2 0.22985035E-01 0.79996180E+03</pdfrwt>
<totfact> 0.38068811E+02</totfact>
</mgrwt>
</event>
<event>
 4    1  0.1806019E-005  0.2225728E+04  0.7818608E-02  0.8507795E-01
          2   -1    0    0  501    0  0.00000000000E+00  0.00000000000E+00  0.19534194185E+04  0.19534194185E+04  0.25500000000E-02 0. -1.
         -2   -1    0    0    0  501 -0.00000000000E+00 -0.00000000000E+00 -0.63399943742E+03  0.63399943742E+03  0.25500000000E-02 0.  1.
   -5000001    1    1    2    0    0 -0.69695397264E+03  0.22284970729E+03  0.15901201793E+04  0.17681597825E+04  0.25000000000E+03 0.  0.
    5000001    1    1    2    0    0  0.69695397264E+03 -0.22284970729E+03 -0.27070019820E+03  0.81925907338E+03  0.25000000000E+03 0.  0.
<mgrwt>
<rscale>  0 0.22257285E+04</rscale>
<asrwt>0</asrwt>
<pdfrwt beam="1">  1        2 0.30052607E+00 0.22257285E+04</pdfrwt>
<pdfrwt beam="2">  1       -2 0.97538374E-01 0.22257285E+04</pdfrwt>
<totfact> 0.56667422E+00</totfact>
</mgrwt>
</event>
<event>
 4    1  0.1806019E-005  0.6627639E+03  0.7818608E-02  0.9783119E-01
          2   -1    0    0  501    0  0.00000000000E+00  0.00000000000E+00  0.26481162626E+04  0.26481162626E+04  0.25500000000E-02 0.  1.
         -2   -1    0    0    0  501 -0.00000000000E+00 -0.00000000000E+00 -0.41468718513E+02  0.41468718591E+02  0.25500000000E-02 0. -1.
   -5000001    1    1    2    0    0  0.12050046535E+03 -0.15465586296E+03  0.92101411310E+03  0.97427193053E+03  0.25000000000E+03 0.  0.
    5000001    1    1    2    0    0 -0.12050046535E+03  0.15465586296E+03  0.16856334310E+04  0.17153130506E+04  0.25000000000E+03 0.  0.
<mgrwt>
<rscale>  0 0.66276387E+03</rscale>
<asrwt>0</asrwt>
<pdfrwt beam="1">  1        2 0.40740236E+00 0.66276387E+03</pdfrwt>
<pdfrwt beam="2">  1       -2 0.63798050E-02 0.66276387E+03</pdfrwt>
<totfact> 0.42251636E+02</totfact>
</mgrwt>
</event>
<event>
 4    1  0.1806019E-005  0.1090925E+04  0.7818608E-02  0.9214082E-01
          2   -1    0    0  501    0  0.00000000000E+00  0.00000000000E+00  0.50633374909E+03  0.50633374910E+03  0.25500000000E-02 0. -1.
         -2   -1    0    0    0  501 -0.00000000000E+00 -0.00000000000E+00 -0.58761550345E+03  0.58761550346E+03  0.25500000000E-02 0.  1.
   -5000001    1    1    2    0    0  0.16075790499E+03 -0.37995671083E+03 -0.29594302671E+03  0.56594388519E+03  0.25000000000E+03 0.  0.
    5000001    1    1    2    0    0 -0.16075790499E+03  0.37995671083E+03  0.21466127235E+03  0.52800536737E+03  0.25000000000E+03 0.  0.
<mgrwt>
<rscale>  0 0.10909254E+04</rscale>
<asrwt>0</asrwt>
<pdfrwt beam="1">  1        2 0.77897501E-01 0.10909254E+04</pdfrwt>
<pdfrwt beam="2">  1       -2 0.90402384E-01 0.10909254E+04</pdfrwt>
<totfact> 0.63083261E+01</totfact>
</mgrwt>
</event>
<event>
 4    1  0.1806019E-005  0.6624260E+03  0.7818608E-02  0.9783738E-01
         -2   -1    0    0    0  501 -0.00000000000E+00  0.00000000000E+00  0.37358025040E+02  0.37358025127E+02  0.25500000000E-02 0. -1.
          2   -1    0    0  501    0  0.00000000000E+00 -0.00000000000E+00 -0.29365057323E+04  0.29365057323E+04  0.25500000000E-02 0.  1.
   -5000001    1    1    2    0    0  0.20916466253E+03 -0.27336411892E+02 -0.12160878505E+04  0.12593120326E+04  0.25000000000E+03 0.  0.
    5000001    1    1    2    0    0 -0.20916466253E+03  0.27336411892E+02 -0.16830598568E+04  0.17145517248E+04  0.25000000000E+03 0.  0.
<mgrwt>
<rscale>  0 0.66242601E+03</rscale>
<asrwt>0</asrwt>
<pdfrwt beam="1">  1        2 0.45176993E+00 0.66242601E+03</pdfrwt>
<pdfrwt beam="2">  1       -2 0.57473908E-02 0.66242601E+03</pdfrwt>
<totfact> 0.33676164E+02</totfact>
</mgrwt>
</event>
<event>
 4    1  0.1806019E-005  0.6884664E+03  0.7818608E-02  0.9737162E-01
         -2   -1    0    0    0  501 -0.00000000000E+00  0.00000000000E+00  0.10301018938E+03  0.10301018941E+03  0.25500000000E-02 0. -1.
          2   -1    0    0  501    0  0.00000000000E+00 -0.00000000000E+00 -0.11503377856E+04  0.11503377856E+04  0.25500000000E-02 0.  1.
   -5000001    1    1    2    0    0 -0.17032808274E+03 -0.16423343973E+03 -0.51729606176E+03  0.62135295445E+03  0.25000000000E+03 0.  0.
    5000001    1    1    2    0    0  0.17032808274E+03  0.16423343973E+03 -0.53003153449E+03  0.63199502059E+03  0.25000000000E+03 0.  0.
<mgrwt>
<rscale>  0 0.68846645E+03</rscale>
<asrwt>0</asrwt>
<pdfrwt beam="1">  1        2 0.17697504E+00 0.68846645E+03</pdfrwt>
<pdfrwt beam="2">  1       -2 0.15847722E-01 0.68846645E+03</pdfrwt>
<totfact> 0.65343215E+02</totfact>
</mgrwt>
</event>
<event>
 4    1  0.1806019E-005  0.5511041E+03  0.7818608E-02  0.1001239E+00
         -2   -1    0    0    0  501 -0.00000000000E+00  0.00000000000E+00  0.31789873325E+02  0.31789873427E+02  0.25500000000E-02 0. -1.
          2   -1    0    0  501    0  0.00000000000E+00 -0.00000000000E+00 -0.23884631977E+04  0.23884631977E+04  0.25500000000E-02 0.  1.
   -5000001    1    1    2    0    0  0.74816522176E+01 -0.10700212343E+03 -0.98572850302E+03  0.10225781687E+04  0.25000000000E+03 0.  0.
    5000001    1    1    2    0    0 -0.74816522176E+01  0.10700212343E+03 -0.13709448214E+04  0.13976749024E+04  0.25000000000E+03 0.  0.
<mgrwt>
<rscale>  0 0.55110414E+03</rscale>
<asrwt>0</asrwt>
<pdfrwt beam="1">  1        2 0.36745574E+00 0.55110414E+03</pdfrwt>
<pdfrwt beam="2">  1       -2 0.48907516E-02 0.55110414E+03</pdfrwt>
<totfact> 0.90574175E+02</totfact>
</mgrwt>
</event>
<event>
 4    1  0.1806019E-005  0.6612793E+03  0.7818608E-02  0.9785842E-01
          2   -1    0    0  501    0  0.00000000000E+00  0.00000000000E+00  0.90579134690E+03  0.90579134691E+03  0.25500000000E-02 0.  1.
         -2   -1    0    0    0  501 -0.00000000000E+00 -0.00000000000E+00 -0.12069290564E+03  0.12069290567E+03  0.25500000000E-02 0. -1.
   -5000001    1    1    2    0    0 -0.12635089636E+03 -0.10900434246E+03  0.60638026179E+03  0.67678912342E+03  0.25000000000E+03 0.  0.
    5000001    1    1    2    0    0  0.12635089636E+03  0.10900434246E+03  0.17871817947E+03  0.34969512916E+03  0.25000000000E+03 0.  0.
<mgrwt>
<rscale>  0 0.66127933E+03</rscale>
<asrwt>0</asrwt>
<pdfrwt beam="1">  1        2 0.13935252E+00 0.66127933E+03</pdfrwt>
<pdfrwt beam="2">  1       -2 0.18568139E-01 0.66127933E+03</pdfrwt>
<totfact> 0.71070100E+02</totfact>
</mgrwt>
</event>
<event>
 4    1  0.1806019E-005  0.8771077E+03  0.7818608E-02  0.9454659E-01
         -2   -1    0    0    0  501 -0.00000000000E+00  0.00000000000E+00  0.29451130143E+03  0.29451130145E+03  0.25500000000E-02 0. -1.
          2   -1    0    0  501    0  0.00000000000E+00 -0.00000000000E+00 -0.65304615024E+03  0.65304615024E+03  0.25500000000E-02 0.  1.
   -5000001    1    1    2    0    0 -0.35114438418E+03 -0.50523138923E+02 -0.24737480657E+03  0.49954905768E+03  0.25000000000E+03 0.  0.
    5000001    1    1    2    0    0  0.35114438418E+03  0.50523138923E+02 -0.11116004224E+03  0.44800839400E+03  0.25000000000E+03 0.  0.
<mgrwt>
<rscale>  0 0.87710768E+03</rscale>
<asrwt>0</asrwt>
<pdfrwt beam="1">  1        2 0.10046864E+00 0.87710768E+03</pdfrwt>
<pdfrwt beam="2">  1       -2 0.45309431E-01 0.87710768E+03</pdfrwt>
<totfact> 0.20729171E+02</totfact>
</mgrwt>
</event>
<event>
 4    1  0.1806019E-005  0.6649762E+03  0.7818608E-02  0.9779076E-01
         -2   -1    0    0    0  501 -0.00000000000E+00  0.00000000000E+00  0.15568542045E+03  0.15568542047E+03  0.25500000000E-02 0. -1.
          2   -1    0    0  501    0  0.00000000000E+00 -0.00000000000E+00 -0.71007505715E+03  0.71007505715E+03  0.25500000000E-02 0.  1.
   -5000001    1    1    2    0    0  0.80741706155E+01  0.20292153096E+03 -0.16978661878E+03  0.36410140878E+03  0.25000000000E+03 0.  0.
    5000001    1    1    2    0    0 -0.80741706155E+01 -0.20292153096E+03 -0.38460301792E+03  0.50165906884E+03  0.25000000000E+03 0.  0.
<mgrwt>
<rscale>  0 0.66497619E+03</rscale>
<asrwt>0</asrwt>
<pdfrwt beam="1">  1        2 0.10924231E+00 0.66497619E+03</pdfrwt>
<pdfrwt beam="2">  1       -2 0.23951603E-01 0.66497619E+03</pdfrwt>
<totfact> 0.62672722E+02</totfact>
</mgrwt>
</event>
<event>
 4    1  0.1806019E-005  0.1241747E+04  0.7818608E-02  0.9077080E-01
         -2   -1    0    0    0  501 -0.00000000000E+00  0.00000000000E+00  0.22556493809E+03  0.22556493811E+03  0.25500000000E-02 0. -1.
          2   -1    0    0  501    0  0.00000000000E+00 -0.00000000000E+00 -0.17089710819E+04  0.17089710819E+04  0.25500000000E-02 0.  1.
   -5000001    1    1    2    0    0  0.24612582631E+03 -0.49239701093E+03 -0.52164952489E+03  0.79853050384E+03  0.25000000000E+03 0.  0.
    5000001    1    1    2    0    0 -0.24612582631E+03  0.49239701093E+03 -0.96175661895E+03  0.11360055162E+04  0.25000000000E+03 0.  0.
<mgrwt>
<rscale>  0 0.12417471E+04</rscale>
<asrwt>0</asrwt>
<pdfrwt beam="1">  1        2 0.26291862E+00 0.12417471E+04</pdfrwt>
<pdfrwt beam="2">  1       -2 0.34702299E-01 0.12417471E+04</pdfrwt>
<totfact> 0.74279140E+01</totfact>
</mgrwt>
</event>
<event>
 4    1  0.1806019E-005  0.1398396E+04  0.7818608E-02  0.8954981E-01
          2   -1    0    0  501    0  0.00000000000E+00  0.00000000000E+00  0.21872898791E+04  0.21872898791E+04  0.25500000000E-02 0.  1.
         -2   -1    0    0    0  501 -0.00000000000E+00 -0.00000000000E+00 -0.22350837183E+03  0.22350837184E+03  0.25500000000E-02 0. -1.
   -5000001    1    1    2    0    0 -0.36895944819E+03  0.53755858314E+03  0.92027718115E+03  0.11552101085E+04  0.25000000000E+03 0.  0.
    5000001    1    1    2    0    0  0.36895944819E+03 -0.53755858314E+03  0.10435043261E+04  0.12555881424E+04  0.25000000000E+03 0.  0.
<mgrwt>
<rscale>  0 0.13983957E+04</rscale>
<asrwt>0</asrwt>
<pdfrwt beam="1">  1        2 0.33650612E+00 0.13983957E+04</pdfrwt>
<pdfrwt beam="2">  1       -2 0.34385905E-01 0.13983957E+04</pdfrwt>
<totfact> 0.40555146E+01</totfact>
</mgrwt>
</event>
<event>
 4    1  0.1806019E-005  0.2071437E+04  0.7818608E-02  0.8573931E-01
          2   -1    0    0  501    0  0.00000000000E+00  0.00000000000E+00  0.21506198512E+04  0.21506198512E+04  0.25500000000E-02 0. -1.
         -2   -1    0    0    0  501 -0.00000000000E+00 -0.00000000000E+00 -0.49879260082E+03  0.49879260083E+03  0.25500000000E-02 0.  1.
   -5000001    1    1    2    0    0  0.89004057875E+03  0.32547071101E+03  0.12541658654E+04  0.15917083381E+04  0.25000000000E+03 0.  0.
    5000001    1    1    2    0    0 -0.89004057875E+03 -0.32547071101E+03  0.39766138496E+03  0.10577041139E+04  0.25000000000E+03 0.  0.
<mgrwt>
<rscale>  0 0.20714374E+04</rscale>
<asrwt>0</asrwt>
<pdfrwt beam="1">  1        2 0.33086459E+00 0.20714374E+04</pdfrwt>
<pdfrwt beam="2">  1       -2 0.76737324E-01 0.20714374E+04</pdfrwt>
<totfact> 0.77151724E+00</totfact>
</mgrwt>
</event>
<event>
 4    1  0.1806019E-005  0.1154239E+04  0.7818608E-02  0.9153882E-01
          2   -1    0    0  501    0  0.00000000000E+00  0.00000000000E+00  0.26567800585E+04  0.26567800585E+04  0.25500000000E-02 0.  1.
         -2   -1    0    0    0  501 -0.00000000000E+00 -0.00000000000E+00 -0.12536486104E+03  0.12536486106E+03  0.25500000000E-02 0. -1.
   -5000001    1    1    2    0    0 -0.22089689998E+03  0.44056267978E+03  0.86471598541E+03  0.10262186174E+04  0.25000000000E+03 0.  0.
    5000001    1    1    2    0    0  0.22089689998E+03 -0.44056267978E+03  0.16666992121E+04  0.17559263022E+04  0.25000000000E+03 0.  0.
<mgrwt>
<rscale>  0 0.11542389E+04</rscale>
<asrwt>0</asrwt>
<pdfrwt beam="1">  1        2 0.40873535E+00 0.11542389E+04</pdfrwt>
<pdfrwt beam="2">  1       -2 0.19286904E-01 0.11542389E+04</pdfrwt>
<totfact> 0.64143788E+01</totfact>
</mgrwt>
</event>
<event>
 4    1  0.1806019E-005  0.7857997E+03  0.7818608E-02  0.9580802E-01
          2   -1    0    0  501    0  0.00000000000E+00  0.00000000000E+00  0.95157282556E+03  0.95157282556E+03  0.25500000000E-02 0.  1.
         -2   -1    0    0    0  501 -0.00000000000E+00 -0.00000000000E+00 -0.16222646766E+03  0.16222646768E+03  0.25500000000E-02 0. -1.
   -5000001    1    1    2    0    0  0.10530911145E+03  0.95525997259E+02  0.77409171365E+03  0.82579247166E+03  0.25000000000E+03 0.  0.
    5000001    1    1    2    0    0 -0.10530911145E+03 -0.95525997259E+02  0.15254644255E+02  0.28800682158E+03  0.25000000000E+03 0.  0.
<mgrwt>
<rscale>  0 0.78579972E+03</rscale>
<asrwt>0</asrwt>
<pdfrwt beam="1">  1        2 0.14639582E+00 0.78579972E+03</pdfrwt>
<pdfrwt beam="2">  1       -2 0.24957919E-01 0.78579972E+03</pdfrwt>
<totfact> 0.39133295E+02</totfact>
</mgrwt>
</event>
<event>
 4    1  0.1806019E-005  0.7337589E+03  0.7818608E-02  0.9661180E-01
         -2   -1    0    0    0  501 -0.00000000000E+00  0.00000000000E+00  0.48885418219E+02  0.48885418286E+02  0.25500000000E-02 0.  1.
          2   -1    0    0  501    0  0.00000000000E+00 -0.00000000000E+00 -0.27533879137E+04  0.27533879137E+04  0.25500000000E-02 0. -1.
   -5000001    1    1    2    0    0  0.88306913569E+02  0.24014229869E+03 -0.16633137427E+04  0.17013462438E+04  0.25000000000E+03 0.  0.
    5000001    1    1    2    0    0 -0.88306913569E+02 -0.24014229869E+03 -0.10411887528E+04  0.11009270882E+04  0.25000000000E+03 0.  0.
<mgrwt>
<rscale>  0 0.73375887E+03</rscale>
<asrwt>0</asrwt>
<pdfrwt beam="1">  1        2 0.42359802E+00 0.73375887E+03</pdfrwt>
<pdfrwt beam="2">  1       -2 0.75208358E-02 0.73375887E+03</pdfrwt>
<totfact> 0.28079579E+02</totfact>
</mgrwt>
</event>
<event>
 4    1  0.1806019E-005  0.9929998E+03  0.7818608E-02  0.9316256E-01
         -2   -1    0    0    0  501 -0.00000000000E+00  0.00000000000E+00  0.32295129104E+03  0.32295129105E+03  0.25500000000E-02 0. -1.
          2   -1    0    0  501    0  0.00000000000E+00 -0.00000000000E+00 -0.76331059254E+03  0.76331059254E+03  0.25500000000E-02 0.  1.
   -5000001    1    1    2    0    0  0.16906914476E+03 -0.27743474064E+01  0.21108010842E+03  0.36830270822E+03  0.25000000000E+03 0.  0.
    5000001    1    1    2    0    0 -0.16906914476E+03  0.27743474064E+01 -0.65143940991E+03  0.71795917537E+03  0.25000000000E+03 0.  0.
<mgrwt>
<rscale>  0 0.99299978E+03</rscale>
<asrwt>0</asrwt>
<pdfrwt beam="1">  1        2 0.11743240E+00 0.99299978E+03</pdfrwt>
<pdfrwt beam="2">  1       -2 0.49684814E-01 0.99299978E+03</pdfrwt>
<totfact> 0.14031939E+02</totfact>
</mgrwt>
</event>
<event>
 4    1  0.1806019E-005  0.5808889E+03  0.7818608E-02  0.9945868E-01
          2   -1    0    0  501    0  0.00000000000E+00  0.00000000000E+00  0.15767983707E+04  0.15767983707E+04  0.25500000000E-02 0.  1.
         -2   -1    0    0    0  501 -0.00000000000E+00 -0.00000000000E+00 -0.53499530225E+02  0.53499530286E+02  0.25500000000E-02 0. -1.
   -5000001    1    1    2    0    0  0.23297148691E+02  0.13495413243E+03  0.91797735937E+03  0.96121683678E+03  0.25000000000E+03 0.  0.
    5000001    1    1    2    0    0 -0.23297148691E+02 -0.13495413243E+03  0.60532148113E+03  0.66908106424E+03  0.25000000000E+03 0.  0.
<mgrwt>
<rscale>  0 0.58088888E+03</rscale>
<asrwt>0</asrwt>
<pdfrwt beam="1">  1        2 0.24258437E+00 0.58088888E+03</pdfrwt>
<pdfrwt beam="2">  1       -2 0.82306970E-02 0.58088888E+03</pdfrwt>
<totfact> 0.11032168E+03</totfact>
</mgrwt>
</event>
<event>
 4    1  0.1806019E-005  0.8643631E+03  0.7818608E-02  0.9471260E-01
          2   -1    0    0  501    0  0.00000000000E+00  0.00000000000E+00  0.70677113896E+03  0.70677113897E+03  0.25500000000E-02 0.  1.
         -2   -1    0    0    0  501 -0.00000000000E+00 -0.00000000000E+00 -0.26427349657E+03  0.26427349658E+03  0.25500000000E-02 0. -1.
   -5000001    1    1    2    0    0 -0.19442369225E+03  0.15327639445E+03  0.50319568060E+03  0.61400335356E+03  0.25000000000E+03 0.  0.
    5000001    1    1    2    0    0  0.19442369225E+03 -0.15327639445E+03 -0.60698038209E+02  0.35704128199E+03  0.25000000000E+03 0.  0.
<mgrwt>
<rscale>  0 0.86436307E+03</rscale>
<asrwt>0</asrwt>
<pdfrwt beam="1">  1        2 0.10873402E+00 0.86436307E+03</pdfrwt>
<pdfrwt beam="2">  1       -2 0.40657460E-01 0.86436307E+03</pdfrwt>
<totfact> 0.23272298E+02</totfact>
</mgrwt>
</event>
<event>
 4    1  0.1806019E-005  0.8575060E+03  0.7818608E-02  0.9480318E-01
          2   -1    0    0  501    0  0.00000000000E+00  0.00000000000E+00  0.64150596342E+03  0.64150596343E+03  0.25500000000E-02 0.  1.
         -2   -1    0    0    0  501 -0.00000000000E+00 -0.00000000000E+00 -0.28655871766E+03  0.28655871768E+03  0.25500000000E-02 0. -1.
   -5000001    1    1    2    0    0 -0.23274757349E+03 -0.13546935741E+03 -0.61624721014E+02  0.37258688383E+03  0.25000000000E+03 0.  0.
    5000001    1    1    2    0    0  0.23274757349E+03  0.13546935741E+03  0.41657196677E+03  0.55547779727E+03  0.25000000000E+03 0.  0.
<mgrwt>
<rscale>  0 0.85750598E+03</rscale>
<asrwt>0</asrwt>
<pdfrwt beam="1">  1        2 0.98693225E-01 0.85750598E+03</pdfrwt>
<pdfrwt beam="2">  1       -2 0.44085957E-01 0.85750598E+03</pdfrwt>
<totfact> 0.22398906E+02</totfact>
</mgrwt>
</event>
<event>
 4    1  0.1806019E-005  0.6616572E+03  0.7818608E-02  0.9785148E-01
         -2   -1    0    0    0  501 -0.00000000000E+00  0.00000000000E+00  0.80317653452E+02  0.80317653493E+02  0.25500000000E-02 0. -1.
          2   -1    0    0  501    0  0.00000000000E+00 -0.00000000000E+00 -0.13626837565E+04  0.13626837565E+04  0.25500000000E-02 0.  1.
   -5000001    1    1    2    0    0 -0.84399553765E+02  0.17582473207E+03 -0.84704264946E+03  0.90444395685E+03  0.25000000000E+03 0.  0.
    5000001    1    1    2    0    0  0.84399553765E+02 -0.17582473207E+03 -0.43532345356E+03  0.53855745311E+03  0.25000000000E+03 0.  0.
<mgrwt>
<rscale>  0 0.66165720E+03</rscale>
<asrwt>0</asrwt>
<pdfrwt beam="1">  1        2 0.20964364E+00 0.66165720E+03</pdfrwt>
<pdfrwt beam="2">  1       -2 0.12356563E-01 0.66165720E+03</pdfrwt>
<totfact> 0.74717487E+02</totfact>
</mgrwt>
</event>
<event>
 4    1  0.1806019E-005  0.8598111E+03  0.7818608E-02  0.9477263E-01
         -2   -1    0    0    0  501 -0.00000000000E+00  0.00000000000E+00  0.10492290813E+03  0.10492290816E+03  0.25500000000E-02 0. -1.
          2   -1    0    0  501    0  0.00000000000E+00 -0.00000000000E+00 -0.17614719807E+04  0.17614719807E+04  0.25500000000E-02 0.  1.
   -5000001    1    1    2    0    0  0.17578435859E+03  0.25902911912E+03 -0.48973846275E+03  0.63272425840E+03  0.25000000000E+03 0.  0.
    5000001    1    1    2    0    0 -0.17578435859E+03 -0.25902911912E+03 -0.11668106098E+04  0.12336706305E+04  0.25000000000E+03 0.  0.
<mgrwt>
<rscale>  0 0.85981106E+03</rscale>
<asrwt>0</asrwt>
<pdfrwt beam="1">  1        2 0.27099567E+00 0.85981106E+03</pdfrwt>
<pdfrwt beam="2">  1       -2 0.16141987E-01 0.85981106E+03</pdfrwt>
<totfact> 0.28323019E+02</totfact>
</mgrwt>
</event>
<event>
 4    1  0.1806019E-005  0.5338124E+03  0.7818608E-02  0.1005312E+00
         -2   -1    0    0    0  501 -0.00000000000E+00  0.00000000000E+00  0.34901307347E+02  0.34901307440E+02  0.25500000000E-02 0. -1.
          2   -1    0    0  501    0  0.00000000000E+00 -0.00000000000E+00 -0.20411535139E+04  0.20411535139E+04  0.25500000000E-02 0.  1.
   -5000001    1    1    2    0    0 -0.92998832991E+02  0.94035202796E+01 -0.10082223195E+04  0.10429522782E+04  0.25000000000E+03 0.  0.
    5000001    1    1    2    0    0  0.92998832991E+02 -0.94035202796E+01 -0.99802988711E+03  0.10331025432E+04  0.25000000000E+03 0.  0.
<mgrwt>
<rscale>  0 0.53381242E+03</rscale>
<asrwt>0</asrwt>
<pdfrwt beam="1">  1        2 0.31402352E+00 0.53381242E+03</pdfrwt>
<pdfrwt beam="2">  1       -2 0.53694335E-02 0.53381242E+03</pdfrwt>
<totfact> 0.12147587E+03</totfact>
</mgrwt>
</event>
<event>
 4    1  0.1806019E-005  0.1020213E+04  0.7818608E-02  0.9286649E-01
          2   -1    0    0  501    0  0.00000000000E+00  0.00000000000E+00  0.95518634325E+03  0.95518634325E+03  0.25500000000E-02 0.  1.
         -2   -1    0    0    0  501 -0.00000000000E+00 -0.00000000000E+00 -0.27241670697E+03  0.27241670698E+03  0.25500000000E-02 0. -1.
   -5000001    1    1    2    0    0 -0.32981809920E+03  0.34029825732E+02 -0.15100664650E+02  0.41553103094E+03  0.25000000000E+03 0.  0.
    5000001    1    1    2    0    0  0.32981809920E+03 -0.34029825732E+02  0.69787030093E+03  0.81207201929E+03  0.25000000000E+03 0.  0.
<mgrwt>
<rscale>  0 0.10202132E+04</rscale>
<asrwt>0</asrwt>
<pdfrwt beam="1">  1        2 0.14695175E+00 0.10202132E+04</pdfrwt>
<pdfrwt beam="2">  1       -2 0.41910262E-01 0.10202132E+04</pdfrwt>
<totfact> 0.14484547E+02</totfact>
</mgrwt>
</event>
<event>
 4    1  0.1806019E-005  0.7645998E+03  0.7818608E-02  0.9612720E-01
         -2   -1    0    0    0  501 -0.00000000000E+00  0.00000000000E+00  0.45587107150E+02  0.45587107222E+02  0.25500000000E-02 0. -1.
          2   -1    0    0  501    0  0.00000000000E+00 -0.00000000000E+00 -0.32060211014E+04  0.32060211014E+04  0.25500000000E-02 0.  1.
   -5000001    1    1    2    0    0 -0.57598642132E+02  0.27675909963E+03 -0.13201404140E+04  0.13730199982E+04  0.25000000000E+03 0.  0.
    5000001    1    1    2    0    0  0.57598642132E+02 -0.27675909963E+03 -0.18402935803E+04  0.18785882104E+04  0.25000000000E+03 0.  0.
<mgrwt>
<rscale>  0 0.76459984E+03</rscale>
<asrwt>0</asrwt>
<pdfrwt beam="1">  1        2 0.49323384E+00 0.76459984E+03</pdfrwt>
<pdfrwt beam="2">  1       -2 0.70134036E-02 0.76459984E+03</pdfrwt>
<totfact> 0.16555744E+02</totfact>
</mgrwt>
</event>
<event>
 4    1  0.1806019E-005  0.1009205E+04  0.7818608E-02  0.9298506E-01
          2   -1    0    0  501    0  0.00000000000E+00  0.00000000000E+00  0.25939687628E+04  0.25939687628E+04  0.25500000000E-02 0.  1.
         -2   -1    0    0    0  501 -0.00000000000E+00 -0.00000000000E+00 -0.98159863433E+02  0.98159863466E+02  0.25500000000E-02 0. -1.
   -5000001    1    1    2    0    0 -0.35121745639E+03  0.25476496334E+03  0.10820694781E+04  0.11923226257E+04  0.25000000000E+03 0.  0.
    5000001    1    1    2    0    0  0.35121745639E+03 -0.25476496334E+03  0.14137394212E+04  0.14998060005E+04  0.25000000000E+03 0.  0.
<mgrwt>
<rscale>  0 0.10092049E+04</rscale>
<asrwt>0</asrwt>
<pdfrwt beam="1">  1        2 0.39907212E+00 0.10092049E+04</pdfrwt>
<pdfrwt beam="2">  1       -2 0.15101517E-01 0.10092049E+04</pdfrwt>
<totfact> 0.10778401E+02</totfact>
</mgrwt>
</event>
<event>
 4    1  0.1806019E-005  0.6086065E+03  0.7818608E-02  0.9887709E-01
          2   -1    0    0  501    0  0.00000000000E+00  0.00000000000E+00  0.14380679147E+04  0.14380679147E+04  0.25500000000E-02 0. -1.
         -2   -1    0    0    0  501 -0.00000000000E+00 -0.00000000000E+00 -0.64392278145E+02  0.64392278195E+02  0.25500000000E-02 0.  1.
   -5000001    1    1    2    0    0  0.95831188983E+02  0.12735985666E+03  0.85601632791E+03  0.90590733716E+03  0.25000000000E+03 0.  0.
    5000001    1    1    2    0    0 -0.95831188983E+02 -0.12735985666E+03  0.51765930868E+03  0.59655285578E+03  0.25000000000E+03 0.  0.
<mgrwt>
<rscale>  0 0.60860650E+03</rscale>
<asrwt>0</asrwt>
<pdfrwt beam="1">  1        2 0.22124122E+00 0.60860650E+03</pdfrwt>
<pdfrwt beam="2">  1       -2 0.99065043E-02 0.60860650E+03</pdfrwt>
<totfact> 0.97554633E+02</totfact>
</mgrwt>
</event>
<event>
 4    1  0.1806019E-005  0.6312980E+03  0.7818608E-02  0.9842519E-01
          2   -1    0    0  501    0  0.00000000000E+00  0.00000000000E+00  0.11957177054E+04  0.11957177054E+04  0.25500000000E-02 0.  1.
         -2   -1    0    0    0  501 -0.00000000000E+00 -0.00000000000E+00 -0.83325926289E+02  0.83325926328E+02  0.25500000000E-02 0. -1.
   -5000001    1    1    2    0    0  0.36859376938E+02  0.18237679475E+03  0.65778943381E+03  0.72787831961E+03  0.25000000000E+03 0.  0.
    5000001    1    1    2    0    0 -0.36859376938E+02 -0.18237679475E+03  0.45460234532E+03  0.55116531214E+03  0.25000000000E+03 0.  0.
<mgrwt>
<rscale>  0 0.63129798E+03</rscale>
<asrwt>0</asrwt>
<pdfrwt beam="1">  1        2 0.18395657E+00 0.63129798E+03</pdfrwt>
<pdfrwt beam="2">  1       -2 0.12819374E-01 0.63129798E+03</pdfrwt>
<totfact> 0.87870752E+02</totfact>
</mgrwt>
</event>
<event>
 4    1  0.1806019E-005  0.1311704E+04  0.7818608E-02  0.9020335E-01
         -2   -1    0    0    0  501 -0.00000000000E+00  0.00000000000E+00  0.13410390392E+04  0.13410390392E+04  0.25500000000E-02 0. -1.
          2   -1    0    0  501    0  0.00000000000E+00 -0.00000000000E+00 -0.32075277751E+03  0.32075277752E+03  0.25500000000E-02 0.  1.
   -5000001    1    1    2    0    0 -0.20655732342E+02 -0.60202288528E+03  0.42251845422E+03  0.77709719973E+03  0.25000000000E+03 0.  0.
    5000001    1    1    2    0    0  0.20655732342E+02  0.60202288528E+03  0.59776780747E+03  0.88469461698E+03  0.25000000000E+03 0.  0.
<mgrwt>
<rscale>  0 0.13117042E+04</rscale>
<asrwt>0</asrwt>
<pdfrwt beam="1">  1        2 0.49346581E-01 0.13117042E+04</pdfrwt>
<pdfrwt beam="2">  1       -2 0.20631370E+00 0.13117042E+04</pdfrwt>
<totfact> 0.12062537E+01</totfact>
</mgrwt>
</event>
<event>
 4    1  0.1806019E-005  0.6284594E+03  0.7818608E-02  0.9848060E-01
         -2   -1    0    0    0  501 -0.00000000000E+00  0.00000000000E+00  0.76739020692E+02  0.76739020734E+02  0.25500000000E-02 0. -1.
          2   -1    0    0  501    0  0.00000000000E+00 -0.00000000000E+00 -0.12867028510E+04  0.12867028510E+04  0.25500000000E-02 0.  1.
   -5000001    1    1    2    0    0  0.78048792927E+02  0.15101938515E+03 -0.41908933000E+03  0.51675365049E+03  0.25000000000E+03 0.  0.
    5000001    1    1    2    0    0 -0.78048792927E+02 -0.15101938515E+03 -0.79087450028E+03  0.84668822122E+03  0.25000000000E+03 0.  0.
<mgrwt>
<rscale>  0 0.62845944E+03</rscale>
<asrwt>0</asrwt>
<pdfrwt beam="1">  1        2 0.19795427E+00 0.62845944E+03</pdfrwt>
<pdfrwt beam="2">  1       -2 0.11806004E-01 0.62845944E+03</pdfrwt>
<totfact> 0.89139810E+02</totfact>
</mgrwt>
</event>
<event>
 4    1  0.1806019E-005  0.9600759E+03  0.7818608E-02  0.9353450E-01
          2   -1    0    0  501    0  0.00000000000E+00  0.00000000000E+00  0.18027830489E+04  0.18027830489E+04  0.25500000000E-02 0.  1.
         -2   -1    0    0    0  501 -0.00000000000E+00 -0.00000000000E+00 -0.12782261388E+03  0.12782261390E+03  0.25500000000E-02 0. -1.
   -5000001    1    1    2    0    0 -0.25224455657E+03 -0.27661494406E+03  0.11727219234E+04  0.12561527985E+04  0.25000000000E+03 0.  0.
    5000001    1    1    2    0    0  0.25224455657E+03  0.27661494406E+03  0.50223851163E+03  0.67445286429E+03  0.25000000000E+03 0.  0.
<mgrwt>
<rscale>  0 0.96007592E+03</rscale>
<asrwt>0</asrwt>
<pdfrwt beam="1">  1        2 0.27735120E+00 0.96007592E+03</pdfrwt>
<pdfrwt beam="2">  1       -2 0.19665020E-01 0.96007592E+03</pdfrwt>
<totfact> 0.18975962E+02</totfact>
</mgrwt>
</event>
<event>
 4    1  0.1806019E-005  0.8062047E+03  0.7818608E-02  0.9551079E-01
          2   -1    0    0  501    0  0.00000000000E+00  0.00000000000E+00  0.40897365000E+03  0.40897365001E+03  0.25500000000E-02 0.  1.
         -2   -1    0    0    0  501 -0.00000000000E+00 -0.00000000000E+00 -0.39731530908E+03  0.39731530909E+03  0.25500000000E-02 0. -1.
   -5000001    1    1    2    0    0  0.17187035738E+03 -0.21947608055E+03 -0.14345908100E+03  0.40098588205E+03  0.25000000000E+03 0.  0.
    5000001    1    1    2    0    0 -0.17187035738E+03  0.21947608055E+03  0.15511742192E+03  0.40530307705E+03  0.25000000000E+03 0.  0.
<mgrwt>
<rscale>  0 0.80620467E+03</rscale>
<asrwt>0</asrwt>
<pdfrwt beam="1">  1        2 0.62919023E-01 0.80620467E+03</pdfrwt>
<pdfrwt beam="2">  1       -2 0.61125432E-01 0.80620467E+03</pdfrwt>
<totfact> 0.19452385E+02</totfact>
</mgrwt>
</event>
<event>
 4    1  0.1806019E-005  0.5763913E+03  0.7818608E-02  0.9955634E-01
         -2   -1    0    0    0  501 -0.00000000000E+00  0.00000000000E+00  0.24399982345E+02  0.24399982479E+02  0.25500000000E-02 0. -1.
          2   -1    0    0  501    0  0.00000000000E+00 -0.00000000000E+00 -0.34039674666E+04  0.34039674666E+04  0.25500000000E-02 0.  1.
   -5000001    1    1    2    0    0  0.13374625825E+03  0.42474741332E+02 -0.15148906032E+04  0.15417800442E+04  0.25000000000E+03 0.  0.
    5000001    1    1    2    0    0 -0.13374625825E+03 -0.42474741332E+02 -0.18646768811E+04  0.18865874049E+04  0.25000000000E+03 0.  0.
<mgrwt>
<rscale>  0 0.57639135E+03</rscale>
<asrwt>0</asrwt>
<pdfrwt beam="1">  1        2 0.52368693E+00 0.57639135E+03</pdfrwt>
<pdfrwt beam="2">  1       -2 0.37538461E-02 0.57639135E+03</pdfrwt>
<totfact> 0.33388313E+02</totfact>
</mgrwt>
</event>
<event>
 4    1  0.1806019E-005  0.1295543E+04  0.7818608E-02  0.9033107E-01
          2   -1    0    0  501    0  0.00000000000E+00  0.00000000000E+00  0.17220709190E+04  0.17220709190E+04  0.25500000000E-02 0.  1.
         -2   -1    0    0    0  501 -0.00000000000E+00 -0.00000000000E+00 -0.24366474180E+03  0.24366474182E+03  0.25500000000E-02 0. -1.
   -5000001    1    1    2    0    0 -0.55483280105E+03  0.10085494620E+03  0.43918743675E+03  0.75722966258E+03  0.25000000000E+03 0.  0.
    5000001    1    1    2    0    0  0.55483280105E+03 -0.10085494620E+03  0.10392187405E+04  0.12085059983E+04  0.25000000000E+03 0.  0.
<mgrwt>
<rscale>  0 0.12955431E+04</rscale>
<asrwt>0</asrwt>
<pdfrwt beam="1">  1        2 0.26493399E+00 0.12955431E+04</pdfrwt>
<pdfrwt beam="2">  1       -2 0.37486883E-01 0.12955431E+04</pdfrwt>
<totfact> 0.62729154E+01</totfact>
</mgrwt>
</event>
<event>
 4    1  0.1806019E-005  0.1019263E+04  0.7818608E-02  0.9287667E-01
         -2   -1    0    0    0  501 -0.00000000000E+00  0.00000000000E+00  0.38139055422E+03  0.38139055422E+03  0.25500000000E-02 0. -1.
          2   -1    0    0  501    0  0.00000000000E+00 -0.00000000000E+00 -0.68099229403E+03  0.68099229403E+03  0.25500000000E-02 0.  1.
   -5000001    1    1    2    0    0  0.34257042341E+03  0.27366184499E+03 -0.22334604596E+03  0.55193184058E+03  0.25000000000E+03 0.  0.
    5000001    1    1    2    0    0 -0.34257042341E+03 -0.27366184499E+03 -0.76255693849E+02  0.51045100768E+03  0.25000000000E+03 0.  0.
<mgrwt>
<rscale>  0 0.10192625E+04</rscale>
<asrwt>0</asrwt>
<pdfrwt beam="1">  1        2 0.10476804E+00 0.10192625E+04</pdfrwt>
<pdfrwt beam="2">  1       -2 0.58675470E-01 0.10192625E+04</pdfrwt>
<totfact> 0.11493146E+02</totfact>
</mgrwt>
</event>
<event>
 4    1  0.1806019E-005  0.9349561E+03  0.7818608E-02  0.9382909E-01
          2   -1    0    0  501    0  0.00000000000E+00  0.00000000000E+00  0.72559996484E+03  0.72559996484E+03  0.25500000000E-02 0.  1.
         -2   -1    0    0    0  501 -0.00000000000E+00 -0.00000000000E+00 -0.30117938093E+03  0.30117938094E+03  0.25500000000E-02 0. -1.
   -5000001    1    1    2    0    0  0.15374464137E+02 -0.37256255965E+03  0.69035750157E+02  0.45420828900E+03  0.25000000000E+03 0.  0.
    5000001    1    1    2    0    0 -0.15374464137E+02  0.37256255965E+03  0.35538483375E+03  0.57257105678E+03  0.25000000000E+03 0.  0.
<mgrwt>
<rscale>  0 0.93495614E+03</rscale>
<asrwt>0</asrwt>
<pdfrwt beam="1">  1        2 0.11163076E+00 0.93495614E+03</pdfrwt>
<pdfrwt beam="2">  1       -2 0.46335290E-01 0.93495614E+03</pdfrwt>
<totfact> 0.17307227E+02</totfact>
</mgrwt>
</event>
<event>
 4    1  0.1806019E-005  0.5939034E+03  0.7818608E-02  0.9918136E-01
          2   -1    0    0  501    0  0.00000000000E+00  0.00000000000E+00  0.27050176417E+03  0.27050176418E+03  0.25500000000E-02 0.  1.
         -2   -1    0    0    0  501 -0.00000000000E+00 -0.00000000000E+00 -0.32598797073E+03  0.32598797074E+03  0.25500000000E-02 0. -1.
   -5000001    1    1    2    0    0  0.58049151945E+02  0.14153641399E+03  0.20193778704E+02  0.29378571991E+03  0.25000000000E+03 0.  0.
    5000001    1    1    2    0    0 -0.58049151945E+02 -0.14153641399E+03 -0.75679985268E+02  0.30270401500E+03  0.25000000000E+03 0.  0.
<mgrwt>
<rscale>  0 0.59390343E+03</rscale>
<asrwt>0</asrwt>
<pdfrwt beam="1">  1        2 0.41615656E-01 0.59390343E+03</pdfrwt>
<pdfrwt beam="2">  1       -2 0.50151996E-01 0.59390343E+03</pdfrwt>
<totfact> 0.46751684E+02</totfact>
</mgrwt>
</event>
<event>
 4    1  0.1806019E-005  0.8906384E+03  0.7818608E-02  0.9437360E-01
         -2   -1    0    0    0  501 -0.00000000000E+00  0.00000000000E+00  0.13027379726E+03  0.13027379728E+03  0.25500000000E-02 0. -1.
          2   -1    0    0  501    0  0.00000000000E+00 -0.00000000000E+00 -0.15222492217E+04  0.15222492217E+04  0.25500000000E-02 0.  1.
   -5000001    1    1    2    0    0  0.10423975356E+02 -0.18764372769E+03 -0.10781035211E+03  0.33082004145E+03  0.25000000000E+03 0.  0.
    5000001    1    1    2    0    0 -0.10423975356E+02  0.18764372769E+03 -0.12841650723E+04  0.13217029775E+04  0.25000000000E+03 0.  0.
<mgrwt>
<rscale>  0 0.89063839E+03</rscale>
<asrwt>0</asrwt>
<pdfrwt beam="1">  1        2 0.23419218E+00 0.89063839E+03</pdfrwt>
<pdfrwt beam="2">  1       -2 0.20042124E-01 0.89063839E+03</pdfrwt>
<totfact> 0.26348404E+02</totfact>
</mgrwt>
</event>
<event>
 4    1  0.1806019E-005  0.7546570E+03  0.7818608E-02  0.9628072E-01
          2   -1    0    0  501    0  0.00000000000E+00  0.00000000000E+00  0.16993400920E+04  0.16993400920E+04  0.25500000000E-02 0.  1.
         -2   -1    0    0    0  501 -0.00000000000E+00 -0.00000000000E+00 -0.83783587693E+02  0.83783587732E+02  0.25500000000E-02 0. -1.
   -5000001    1    1    2    0    0 -0.24274132053E+02 -0.17534409115E+03  0.28719428115E+03  0.41989920090E+03  0.25000000000E+03 0.  0.
    5000001    1    1    2    0    0  0.24274132053E+02  0.17534409115E+03  0.13283622232E+04  0.13632244788E+04  0.25000000000E+03 0.  0.
<mgrwt>
<rscale>  0 0.75465703E+03</rscale>
<asrwt>0</asrwt>
<pdfrwt beam="1">  1        2 0.26143693E+00 0.75465703E+03</pdfrwt>
<pdfrwt beam="2">  1       -2 0.12889783E-01 0.75465703E+03</pdfrwt>
<totfact> 0.45077453E+02</totfact>
</mgrwt>
</event>
<event>
 4    1  0.1806019E-005  0.7064473E+03  0.7818608E-02  0.9706270E-01
          2   -1    0    0  501    0  0.00000000000E+00  0.00000000000E+00  0.71337603096E+02  0.71337603141E+02  0.25500000000E-02 0.  1.
         -2   -1    0    0    0  501 -0.00000000000E+00 -0.00000000000E+00 -0.17489644800E+04  0.17489644800E+04  0.25500000000E-02 0. -1.
   -5000001    1    1    2    0    0 -0.15017374530E+03  0.43063360766E+02 -0.13401806172E+04  0.13722210804E+04  0.25000000000E+03 0.  0.
    5000001    1    1    2    0    0  0.15017374530E+03 -0.43063360766E+02 -0.33744625971E+03  0.44808100274E+03  0.25000000000E+03 0.  0.
<mgrwt>
<rscale>  0 0.70644726E+03</rscale>
<asrwt>0</asrwt>
<pdfrwt beam="1">  1        2 0.10975017E-01 0.70644726E+03</pdfrwt>
<pdfrwt beam="2">  1       -2 0.26907143E+00 0.70644726E+03</pdfrwt>
<totfact> 0.30062000E+01</totfact>
</mgrwt>
</event>
<event>
 4    1  0.1806019E-005  0.7818587E+03  0.7818608E-02  0.9586654E-01
         -2   -1    0    0    0  501 -0.00000000000E+00  0.00000000000E+00  0.64187611696E+02  0.64187611747E+02  0.25500000000E-02 0. -1.
          2   -1    0    0  501    0  0.00000000000E+00 -0.00000000000E+00 -0.23809229682E+04  0.23809229682E+04  0.25500000000E-02 0.  1.
   -5000001    1    1    2    0    0 -0.23990106688E+03  0.15354206963E+03 -0.14582967637E+04  0.15067372499E+04  0.25000000000E+03 0.  0.
    5000001    1    1    2    0    0  0.23990106688E+03 -0.15354206963E+03 -0.85843859275E+03  0.93837333005E+03  0.25000000000E+03 0.  0.
<mgrwt>
<rscale>  0 0.78185871E+03</rscale>
<asrwt>0</asrwt>
<pdfrwt beam="1">  1        2 0.36629577E+00 0.78185871E+03</pdfrwt>
<pdfrwt beam="2">  1       -2 0.98750190E-02 0.78185871E+03</pdfrwt>
<totfact> 0.29456381E+02</totfact>
</mgrwt>
</event>
<event>
 4    1  0.1806019E-005  0.6404512E+03  0.7818608E-02  0.9824864E-01
          2   -1    0    0  501    0  0.00000000000E+00  0.00000000000E+00  0.63214341550E+03  0.63214341551E+03  0.25500000000E-02 0.  1.
         -2   -1    0    0    0  501 -0.00000000000E+00 -0.00000000000E+00 -0.16221703448E+03  0.16221703450E+03  0.25500000000E-02 0. -1.
   -5000001    1    1    2    0    0 -0.10562092873E+03 -0.11266383626E+03  0.39280748522E+03  0.49055747984E+03  0.25000000000E+03 0.  0.
    5000001    1    1    2    0    0  0.10562092873E+03  0.11266383626E+03  0.77118895805E+02  0.30380297016E+03  0.25000000000E+03 0.  0.
<mgrwt>
<rscale>  0 0.64045119E+03</rscale>
<asrwt>0</asrwt>
<pdfrwt beam="1">  1        2 0.97252834E-01 0.64045119E+03</pdfrwt>
<pdfrwt beam="2">  1       -2 0.24956467E-01 0.64045119E+03</pdfrwt>
<totfact> 0.67287108E+02</totfact>
</mgrwt>
</event>
<event>
 4    1  0.1806019E-005  0.6261447E+03  0.7818608E-02  0.9852601E-01
         -2   -1    0    0    0  501 -0.00000000000E+00  0.00000000000E+00  0.33970196859E+03  0.33970196860E+03  0.25500000000E-02 0. -1.
          2   -1    0    0  501    0  0.00000000000E+00 -0.00000000000E+00 -0.28853022393E+03  0.28853022394E+03  0.25500000000E-02 0.  1.
   -5000001    1    1    2    0    0 -0.14022391394E+03 -0.11421014925E+03  0.78749136498E+02  0.31844643306E+03  0.25000000000E+03 0.  0.
    5000001    1    1    2    0    0  0.14022391394E+03  0.11421014925E+03 -0.27577391837E+02  0.30978575947E+03  0.25000000000E+03 0.  0.
<mgrwt>
<rscale>  0 0.62614466E+03</rscale>
<asrwt>0</asrwt>
<pdfrwt beam="1">  1        2 0.44389265E-01 0.62614466E+03</pdfrwt>
<pdfrwt beam="2">  1       -2 0.52261841E-01 0.62614466E+03</pdfrwt>
<totfact> 0.40000873E+02</totfact>
</mgrwt>
</event>
<event>
 4    1  0.1806019E-005  0.9266997E+03  0.7818608E-02  0.9392807E-01
         -2   -1    0    0    0  501 -0.00000000000E+00  0.00000000000E+00  0.10956333632E+03  0.10956333635E+03  0.25500000000E-02 0. -1.
          2   -1    0    0  501    0  0.00000000000E+00 -0.00000000000E+00 -0.19595340611E+04  0.19595340611E+04  0.25500000000E-02 0.  1.
   -5000001    1    1    2    0    0 -0.10605010383E+03  0.32151198483E+03 -0.13577981843E+04  0.14215247062E+04  0.25000000000E+03 0.  0.
    5000001    1    1    2    0    0  0.10605010383E+03 -0.32151198483E+03 -0.49217254043E+03  0.64757269126E+03  0.25000000000E+03 0.  0.
<mgrwt>
<rscale>  0 0.92669971E+03</rscale>
<asrwt>0</asrwt>
<pdfrwt beam="1">  1        2 0.30146675E+00 0.92669971E+03</pdfrwt>
<pdfrwt beam="2">  1       -2 0.16855899E-01 0.92669971E+03</pdfrwt>
<totfact> 0.20386728E+02</totfact>
</mgrwt>
</event>
<event>
 4    1  0.1806019E-005  0.7741201E+03  0.7818608E-02  0.9598252E-01
          2   -1    0    0  501    0  0.00000000000E+00  0.00000000000E+00  0.75067202279E+03  0.75067202279E+03  0.25500000000E-02 0.  1.
         -2   -1    0    0    0  501 -0.00000000000E+00 -0.00000000000E+00 -0.19957514013E+03  0.19957514015E+03  0.25500000000E-02 0. -1.
   -5000001    1    1    2    0    0  0.41819723003E+02  0.28512397612E+03  0.19532743391E+03  0.42859932038E+03  0.25000000000E+03 0.  0.
    5000001    1    1    2    0    0 -0.41819723003E+02 -0.28512397612E+03  0.35576944874E+03  0.52164784256E+03  0.25000000000E+03 0.  0.
<mgrwt>
<rscale>  0 0.77412008E+03</rscale>
<asrwt>0</asrwt>
<pdfrwt beam="1">  1        2 0.11548800E+00 0.77412008E+03</pdfrwt>
<pdfrwt beam="2">  1       -2 0.30703868E-01 0.77412008E+03</pdfrwt>
<totfact> 0.36962764E+02</totfact>
</mgrwt>
</event>
<event>
 4    1  0.1806019E-005  0.7244712E+03  0.7818608E-02  0.9676275E-01
         -2   -1    0    0    0  501 -0.00000000000E+00  0.00000000000E+00  0.24465629617E+03  0.24465629618E+03  0.25500000000E-02 0. -1.
          2   -1    0    0  501    0  0.00000000000E+00 -0.00000000000E+00 -0.53632227941E+03  0.53632227941E+03  0.25500000000E-02 0.  1.
   -5000001    1    1    2    0    0 -0.13602707868E+03  0.21268139542E+03 -0.69775809052E+02  0.36208480446E+03  0.25000000000E+03 0.  0.
    5000001    1    1    2    0    0  0.13602707868E+03 -0.21268139542E+03 -0.22189017419E+03  0.41889377113E+03  0.25000000000E+03 0.  0.
<mgrwt>
<rscale>  0 0.72447118E+03</rscale>
<asrwt>0</asrwt>
<pdfrwt beam="1">  1        2 0.82511120E-01 0.72447118E+03</pdfrwt>
<pdfrwt beam="2">  1       -2 0.37639430E-01 0.72447118E+03</pdfrwt>
<totfact> 0.38042881E+02</totfact>
</mgrwt>
</event>
<event>
 4    1  0.1806019E-005  0.6111938E+03  0.7818608E-02  0.9882451E-01
          2   -1    0    0  501    0  0.00000000000E+00  0.00000000000E+00  0.91662733448E+03  0.91662733449E+03  0.25500000000E-02 0.  1.
         -2   -1    0    0    0  501 -0.00000000000E+00 -0.00000000000E+00 -0.10188378002E+03  0.10188378006E+03  0.25500000000E-02 0. -1.
   -5000001    1    1    2    0    0 -0.13467602159E+03  0.77978724959E+02  0.27126271149E+03  0.40037703603E+03  0.25000000000E+03 0.  0.
    5000001    1    1    2    0    0  0.13467602159E+03 -0.77978724959E+02  0.54348084297E+03  0.61813407851E+03  0.25000000000E+03 0.  0.
<mgrwt>
<rscale>  0 0.61119378E+03</rscale>
<asrwt>0</asrwt>
<pdfrwt beam="1">  1        2 0.14101959E+00 0.61119378E+03</pdfrwt>
<pdfrwt beam="2">  1       -2 0.15674428E-01 0.61119378E+03</pdfrwt>
<totfact> 0.93538968E+02</totfact>
</mgrwt>
</event>
<event>
 4    1  0.1806019E-005  0.8872269E+03  0.7818608E-02  0.9441691E-01
          2   -1    0    0  501    0  0.00000000000E+00  0.00000000000E+00  0.19098865471E+04  0.19098865471E+04  0.25500000000E-02 0.  1.
         -2   -1    0    0    0  501 -0.00000000000E+00 -0.00000000000E+00 -0.10303905517E+03  0.10303905520E+03  0.25500000000E-02 0. -1.
   -5000001    1    1    2    0    0  0.18929341920E+03  0.30351784487E+03  0.10840426146E+04  0.11685903778E+04  0.25000000000E+03 0.  0.
    5000001    1    1    2    0    0 -0.18929341920E+03 -0.30351784487E+03  0.72280487728E+03  0.84433522450E+03  0.25000000000E+03 0.  0.
<mgrwt>
<rscale>  0 0.88722693E+03</rscale>
<asrwt>0</asrwt>
<pdfrwt beam="1">  1        2 0.29382869E+00 0.88722693E+03</pdfrwt>
<pdfrwt beam="2">  1       -2 0.15852163E-01 0.88722693E+03</pdfrwt>
<totfact> 0.24179966E+02</totfact>
</mgrwt>
</event>
<event>
 4    1  0.1806019E-005  0.9726496E+03  0.7818608E-02  0.9339062E-01
          2   -1    0    0  501    0  0.00000000000E+00  0.00000000000E+00  0.16144090783E+04  0.16144090783E+04  0.25500000000E-02 0.  1.
         -2   -1    0    0    0  501 -0.00000000000E+00 -0.00000000000E+00 -0.14650054736E+03  0.14650054738E+03  0.25500000000E-02 0. -1.
   -5000001    1    1    2    0    0 -0.29280508358E+03  0.10490070046E+03  0.12372162072E+04  0.12999780449E+04  0.25000000000E+03 0.  0.
    5000001    1    1    2    0    0  0.29280508358E+03 -0.10490070046E+03  0.23069232379E+03  0.46093158081E+03  0.25000000000E+03 0.  0.
<mgrwt>
<rscale>  0 0.97264961E+03</rscale>
<asrwt>0</asrwt>
<pdfrwt beam="1">  1        2 0.24837063E+00 0.97264961E+03</pdfrwt>
<pdfrwt beam="2">  1       -2 0.22538545E-01 0.97264961E+03</pdfrwt>
<totfact> 0.18924269E+02</totfact>
</mgrwt>
</event>
<event>
 4    1  0.1806019E-005  0.6089677E+03  0.7818608E-02  0.9886974E-01
          2   -1    0    0  501    0  0.00000000000E+00  0.00000000000E+00  0.62636901092E+03  0.62636901093E+03  0.25500000000E-02 0.  1.
         -2   -1    0    0    0  501 -0.00000000000E+00 -0.00000000000E+00 -0.14801246835E+03  0.14801246837E+03  0.25500000000E-02 0. -1.
   -5000001    1    1    2    0    0 -0.81434695560E+02 -0.15094348637E+03  0.27503006054E+03  0.40933736688E+03  0.25000000000E+03 0.  0.
    5000001    1    1    2    0    0  0.81434695560E+02  0.15094348637E+03  0.20332648203E+03  0.36504411242E+03  0.25000000000E+03 0.  0.
<mgrwt>
<rscale>  0 0.60896773E+03</rscale>
<asrwt>0</asrwt>
<pdfrwt beam="1">  1        2 0.96364464E-01 0.60896773E+03</pdfrwt>
<pdfrwt beam="2">  1       -2 0.22771149E-01 0.60896773E+03</pdfrwt>
<totfact> 0.80195838E+02</totfact>
</mgrwt>
</event>
<event>
 4    1  0.1806019E-005  0.8041571E+03  0.7818608E-02  0.9554019E-01
          2   -1    0    0  501    0  0.00000000000E+00  0.00000000000E+00  0.43993932485E+03  0.43993932486E+03  0.25500000000E-02 0.  1.
         -2   -1    0    0    0  501 -0.00000000000E+00 -0.00000000000E+00 -0.36747600102E+03  0.36747600103E+03  0.25500000000E-02 0. -1.
   -5000001    1    1    2    0    0  0.31037827187E+03 -0.46332364189E+02  0.62525249101E+02  0.40606744070E+03  0.25000000000E+03 0.  0.
    5000001    1    1    2    0    0 -0.31037827187E+03  0.46332364189E+02  0.99380747329E+01  0.40134788519E+03  0.25000000000E+03 0.  0.
<mgrwt>
<rscale>  0 0.80415706E+03</rscale>
<asrwt>0</asrwt>
<pdfrwt beam="1">  1        2 0.67682973E-01 0.80415706E+03</pdfrwt>
<pdfrwt beam="2">  1       -2 0.56534769E-01 0.80415706E+03</pdfrwt>
<totfact> 0.21104593E+02</totfact>
</mgrwt>
</event>
<event>
 4    1  0.1806019E-005  0.8311179E+03  0.7818608E-02  0.9516036E-01
          2   -1    0    0  501    0  0.00000000000E+00  0.00000000000E+00  0.13355887092E+03  0.13355887095E+03  0.25500000000E-02 0.  1.
         -2   -1    0    0    0  501 -0.00000000000E+00 -0.00000000000E+00 -0.12929821482E+04  0.12929821482E+04  0.25500000000E-02 0. -1.
   -5000001    1    1    2    0    0  0.27118740209E+03 -0.10277374161E+02 -0.25160737448E+03  0.44660329417E+03  0.25000000000E+03 0.  0.
    5000001    1    1    2    0    0 -0.27118740209E+03  0.10277374161E+02 -0.90781590274E+03  0.97993772493E+03  0.25000000000E+03 0.  0.
<mgrwt>
<rscale>  0 0.83111789E+03</rscale>
<asrwt>0</asrwt>
<pdfrwt beam="1">  1        2 0.20547519E-01 0.83111789E+03</pdfrwt>
<pdfrwt beam="2">  1       -2 0.19892032E+00 0.83111789E+03</pdfrwt>
<totfact> 0.37647426E+01</totfact>
</mgrwt>
</event>
<event>
 4    1  0.1806019E-005  0.7895420E+03  0.7818608E-02  0.9575279E-01
         -2   -1    0    0    0  501 -0.00000000000E+00  0.00000000000E+00  0.11152816975E+03  0.11152816978E+03  0.25500000000E-02 0. -1.
          2   -1    0    0  501    0  0.00000000000E+00 -0.00000000000E+00 -0.13973522464E+04  0.13973522464E+04  0.25500000000E-02 0.  1.
   -5000001    1    1    2    0    0  0.27686753690E+03 -0.12324178335E+03 -0.71692719197E+03  0.81751377282E+03  0.25000000000E+03 0.  0.
    5000001    1    1    2    0    0 -0.27686753690E+03  0.12324178335E+03 -0.56889688466E+03  0.69136664334E+03  0.25000000000E+03 0.  0.
<mgrwt>
<rscale>  0 0.78954199E+03</rscale>
<asrwt>0</asrwt>
<pdfrwt beam="1">  1        2 0.21497726E+00 0.78954199E+03</pdfrwt>
<pdfrwt beam="2">  1       -2 0.17158181E-01 0.78954199E+03</pdfrwt>
<totfact> 0.40798948E+02</totfact>
</mgrwt>
</event>
<event>
 4    1  0.1806019E-005  0.7888518E+03  0.7818608E-02  0.9576295E-01
         -2   -1    0    0    0  501 -0.00000000000E+00  0.00000000000E+00  0.44189100546E+02  0.44189100619E+02  0.25500000000E-02 0. -1.
          2   -1    0    0  501    0  0.00000000000E+00 -0.00000000000E+00 -0.35205920727E+04  0.35205920727E+04  0.25500000000E-02 0.  1.
   -5000001    1    1    2    0    0  0.40382118346E+02 -0.25456396007E+03 -0.10006531803E+04  0.10631276088E+04  0.25000000000E+03 0.  0.
    5000001    1    1    2    0    0 -0.40382118346E+02  0.25456396007E+03 -0.24757497918E+04  0.25016535645E+04  0.25000000000E+03 0.  0.
<mgrwt>
<rscale>  0 0.78885182E+03</rscale>
<asrwt>0</asrwt>
<pdfrwt beam="1">  1        2 0.54162933E+00 0.78885182E+03</pdfrwt>
<pdfrwt beam="2">  1       -2 0.67983259E-02 0.78885182E+03</pdfrwt>
<totfact> 0.10743085E+02</totfact>
</mgrwt>
</event>
<event>
 4    1  0.1806019E-005  0.5849036E+03  0.7818608E-02  0.9937231E-01
          2   -1    0    0  501    0  0.00000000000E+00  0.00000000000E+00  0.59333806439E+02  0.59333806493E+02  0.25500000000E-02 0.  1.
         -2   -1    0    0    0  501 -0.00000000000E+00 -0.00000000000E+00 -0.14414724807E+04  0.14414724808E+04  0.25500000000E-02 0. -1.
   -5000001    1    1    2    0    0  0.65901949508E+02 -0.13215500971E+03 -0.60144486222E+03  0.66786520783E+03  0.25000000000E+03 0.  0.
    5000001    1    1    2    0    0 -0.65901949508E+02  0.13215500971E+03 -0.78069381209E+03  0.83294107941E+03  0.25000000000E+03 0.  0.
<mgrwt>
<rscale>  0 0.58490358E+03</rscale>
<asrwt>0</asrwt>
<pdfrwt beam="1">  1        2 0.91282790E-02 0.58490358E+03</pdfrwt>
<pdfrwt beam="2">  1       -2 0.22176497E+00 0.58490358E+03</pdfrwt>
<totfact> 0.74249783E+01</totfact>
</mgrwt>
</event>
<event>
 4    1  0.1806019E-005  0.6994934E+03  0.7818608E-02  0.9718099E-01
         -2   -1    0    0    0  501 -0.00000000000E+00  0.00000000000E+00  0.39819365352E+02  0.39819365434E+02  0.25500000000E-02 0. -1.
          2   -1    0    0  501    0  0.00000000000E+00 -0.00000000000E+00 -0.30719411986E+04  0.30719411986E+04  0.25500000000E-02 0.  1.
   -5000001    1    1    2    0    0  0.26161695207E+02  0.24301601913E+03 -0.15562288207E+04  0.15950201761E+04  0.25000000000E+03 0.  0.
    5000001    1    1    2    0    0 -0.26161695207E+02 -0.24301601913E+03 -0.14758930125E+04  0.15167403879E+04  0.25000000000E+03 0.  0.
<mgrwt>
<rscale>  0 0.69949339E+03</rscale>
<asrwt>0</asrwt>
<pdfrwt beam="1">  1        2 0.47260615E+00 0.69949339E+03</pdfrwt>
<pdfrwt beam="2">  1       -2 0.61260586E-02 0.69949339E+03</pdfrwt>
<totfact> 0.25078899E+02</totfact>
</mgrwt>
</event>
<event>
 4    1  0.1806019E-005  0.7793049E+03  0.7818608E-02  0.9590465E-01
          2   -1    0    0  501    0  0.00000000000E+00  0.00000000000E+00  0.59942799987E+03  0.59942799987E+03  0.25500000000E-02 0.  1.
         -2   -1    0    0    0  501 -0.00000000000E+00 -0.00000000000E+00 -0.25328985253E+03  0.25328985254E+03  0.25500000000E-02 0. -1.
   -5000001    1    1    2    0    0 -0.15618163909E+03 -0.13838794070E+03 -0.61062535532E+02  0.33131942256E+03  0.25000000000E+03 0.  0.
    5000001    1    1    2    0    0  0.15618163909E+03  0.13838794070E+03  0.40720068287E+03  0.52139842985E+03  0.25000000000E+03 0.  0.
<mgrwt>
<rscale>  0 0.77930489E+03</rscale>
<asrwt>0</asrwt>
<pdfrwt beam="1">  1        2 0.92219692E-01 0.77930489E+03</pdfrwt>
<pdfrwt beam="2">  1       -2 0.38967670E-01 0.77930489E+03</pdfrwt>
<totfact> 0.31103403E+02</totfact>
</mgrwt>
</event>
<event>
 4    1  0.1806019E-005  0.7251627E+03  0.7818608E-02  0.9675143E-01
         -2   -1    0    0    0  501 -0.00000000000E+00  0.00000000000E+00  0.38857806855E+03  0.38857806856E+03  0.25500000000E-02 0. -1.
          2   -1    0    0  501    0  0.00000000000E+00 -0.00000000000E+00 -0.33832387558E+03  0.33832387558E+03  0.25500000000E-02 0.  1.
   -5000001    1    1    2    0    0 -0.34227919543E+02  0.20284132133E+03  0.18876410361E+03  0.37476397763E+03  0.25000000000E+03 0.  0.
    5000001    1    1    2    0    0  0.34227919543E+02 -0.20284132133E+03 -0.13850991063E+03  0.35213796651E+03  0.25000000000E+03 0.  0.
<mgrwt>
<rscale>  0 0.72516271E+03</rscale>
<asrwt>0</asrwt>
<pdfrwt beam="1">  1        2 0.52049827E-01 0.72516271E+03</pdfrwt>
<pdfrwt beam="2">  1       -2 0.59781242E-01 0.72516271E+03</pdfrwt>
<totfact> 0.25289012E+02</totfact>
</mgrwt>
</event>
<event>
 4    1  0.1806019E-005  0.8187406E+03  0.7818608E-02  0.9533280E-01
          2   -1    0    0  501    0  0.00000000000E+00  0.00000000000E+00  0.21226554661E+03  0.21226554663E+03  0.25500000000E-02 0. -1.
         -2   -1    0    0    0  501 -0.00000000000E+00 -0.00000000000E+00 -0.78950182822E+03  0.78950182822E+03  0.25500000000E-02 0.  1.
   -5000001    1    1    2    0    0 -0.11754201029E+03 -0.15801939931E+03 -0.60366130786E+03  0.68241719596E+03  0.25000000000E+03 0.  0.
    5000001    1    1    2    0    0  0.11754201029E+03  0.15801939931E+03  0.26425026247E+02  0.31935017889E+03  0.25000000000E+03 0.  0.
<mgrwt>
<rscale>  0 0.81874059E+03</rscale>
<asrwt>0</asrwt>
<pdfrwt beam="1">  1        2 0.32656238E-01 0.81874059E+03</pdfrwt>
<pdfrwt beam="2">  1       -2 0.12146182E+00 0.81874059E+03</pdfrwt>
<totfact> 0.83854183E+01</totfact>
</mgrwt>
</event>
<event>
 4    1  0.1806019E-005  0.1034559E+04  0.7818608E-02  0.9271433E-01
          2   -1    0    0  501    0  0.00000000000E+00  0.00000000000E+00  0.18029335170E+04  0.18029335170E+04  0.25500000000E-02 0.  1.
         -2   -1    0    0    0  501 -0.00000000000E+00 -0.00000000000E+00 -0.14841262572E+03  0.14841262574E+03  0.25500000000E-02 0. -1.
   -5000001    1    1    2    0    0  0.21038022786E+03 -0.23328701724E+03  0.14424947090E+04  0.14973221625E+04  0.25000000000E+03 0.  0.
    5000001    1    1    2    0    0 -0.21038022786E+03  0.23328701724E+03  0.21202618224E+03  0.45402398025E+03  0.25000000000E+03 0.  0.
<mgrwt>
<rscale>  0 0.10345590E+04</rscale>
<asrwt>0</asrwt>
<pdfrwt beam="1">  1        2 0.27737439E+00 0.10345590E+04</pdfrwt>
<pdfrwt beam="2">  1       -2 0.22832711E-01 0.10345590E+04</pdfrwt>
<totfact> 0.14488958E+02</totfact>
</mgrwt>
</event>
<event>
 4    1  0.1806019E-005  0.7318433E+03  0.7818608E-02  0.9664274E-01
         -2   -1    0    0    0  501 -0.00000000000E+00  0.00000000000E+00  0.58709149485E+03  0.58709149486E+03  0.25500000000E-02 0. -1.
          2   -1    0    0  501    0  0.00000000000E+00 -0.00000000000E+00 -0.22807116655E+03  0.22807116656E+03  0.25500000000E-02 0.  1.
   -5000001    1    1    2    0    0  0.18764731385E+03  0.15129774656E+03  0.30794672058E+03  0.46414836553E+03  0.25000000000E+03 0.  0.
    5000001    1    1    2    0    0 -0.18764731385E+03 -0.15129774656E+03  0.51073607718E+02  0.35101429588E+03  0.25000000000E+03 0.  0.
<mgrwt>
<rscale>  0 0.73184327E+03</rscale>
<asrwt>0</asrwt>
<pdfrwt beam="1">  1        2 0.35087872E-01 0.73184327E+03</pdfrwt>
<pdfrwt beam="2">  1       -2 0.90321767E-01 0.73184327E+03</pdfrwt>
<totfact> 0.15780023E+02</totfact>
</mgrwt>
</event>
<event>
 4    1  0.1806019E-005  0.1326268E+04  0.7818608E-02  0.9008990E-01
          2   -1    0    0  501    0  0.00000000000E+00  0.00000000000E+00  0.13935899000E+04  0.13935899000E+04  0.25500000000E-02 0.  1.
         -2   -1    0    0    0  501 -0.00000000000E+00 -0.00000000000E+00 -0.31554976321E+03  0.31554976322E+03  0.25500000000E-02 0. -1.
   -5000001    1    1    2    0    0  0.40357341971E+03  0.45021215268E+03  0.67831994866E+03  0.94243325507E+03  0.25000000000E+03 0.  0.
    5000001    1    1    2    0    0 -0.40357341971E+03 -0.45021215268E+03  0.39972018814E+03  0.76670640816E+03  0.25000000000E+03 0.  0.
<mgrwt>
<rscale>  0 0.13262684E+04</rscale>
<asrwt>0</asrwt>
<pdfrwt beam="1">  1        2 0.21439845E+00 0.13262684E+04</pdfrwt>
<pdfrwt beam="2">  1       -2 0.48546117E-01 0.13262684E+04</pdfrwt>
<totfact> 0.57364137E+01</totfact>
</mgrwt>
</event>
<event>
 4    1  0.1806019E-005  0.8916337E+03  0.7818608E-02  0.9436101E-01
          2   -1    0    0  501    0  0.00000000000E+00  0.00000000000E+00  0.18267144976E+04  0.18267144976E+04  0.25500000000E-02 0.  1.
         -2   -1    0    0    0  501 -0.00000000000E+00 -0.00000000000E+00 -0.10880334655E+03  0.10880334658E+03  0.25500000000E-02 0. -1.
   -5000001    1    1    2    0    0 -0.25538224822E+03 -0.23497548606E+03  0.58593126801E+03  0.72543023275E+03  0.25000000000E+03 0.  0.
    5000001    1    1    2    0    0  0.25538224822E+03  0.23497548606E+03  0.11319798830E+04  0.12100876114E+04  0.25000000000E+03 0.  0.
<mgrwt>
<rscale>  0 0.89163367E+03</rscale>
<asrwt>0</asrwt>
<pdfrwt beam="1">  1        2 0.28103299E+00 0.89163367E+03</pdfrwt>
<pdfrwt beam="2">  1       -2 0.16738977E-01 0.89163367E+03</pdfrwt>
<totfact> 0.24458698E+02</totfact>
</mgrwt>
</event>
<event>
 4    1  0.1806019E-005  0.7004803E+03  0.7818608E-02  0.9716411E-01
         -2   -1    0    0    0  501 -0.00000000000E+00  0.00000000000E+00  0.46785798920E+02  0.46785798990E+02  0.25500000000E-02 0. -1.
          2   -1    0    0  501    0  0.00000000000E+00 -0.00000000000E+00 -0.26219105438E+04  0.26219105438E+04  0.25500000000E-02 0.  1.
   -5000001    1    1    2    0    0 -0.56595468219E+02 -0.61577757466E+02 -0.21660791544E+04  0.21820618164E+04  0.25000000000E+03 0.  0.
    5000001    1    1    2    0    0  0.56595468219E+02  0.61577757466E+02 -0.40904559049E+03  0.48663452646E+03  0.25000000000E+03 0.  0.
<mgrwt>
<rscale>  0 0.70048035E+03</rscale>
<asrwt>0</asrwt>
<pdfrwt beam="1">  1        2 0.40337074E+00 0.70048035E+03</pdfrwt>
<pdfrwt beam="2">  1       -2 0.71978173E-02 0.70048035E+03</pdfrwt>
<totfact> 0.36012776E+02</totfact>
</mgrwt>
</event>
<event>
 4    1  0.1806019E-005  0.6451090E+03  0.7818608E-02  0.9816000E-01
         -2   -1    0    0    0  501 -0.00000000000E+00  0.00000000000E+00  0.97479729372E+02  0.97479729406E+02  0.25500000000E-02 0. -1.
          2   -1    0    0  501    0  0.00000000000E+00 -0.00000000000E+00 -0.10673133812E+04  0.10673133812E+04  0.25500000000E-02 0.  1.
   -5000001    1    1    2    0    0  0.17099364584E+02 -0.20296202979E+03 -0.47147216477E+03  0.57120221985E+03  0.25000000000E+03 0.  0.
    5000001    1    1    2    0    0 -0.17099364584E+02  0.20296202979E+03 -0.49836148703E+03  0.59359089073E+03  0.25000000000E+03 0.  0.
<mgrwt>
<rscale>  0 0.64510904E+03</rscale>
<asrwt>0</asrwt>
<pdfrwt beam="1">  1        2 0.16420205E+00 0.64510904E+03</pdfrwt>
<pdfrwt beam="2">  1       -2 0.14996882E-01 0.64510904E+03</pdfrwt>
<totfact> 0.80709648E+02</totfact>
</mgrwt>
</event>
<event>
 4    1  0.1806019E-005  0.6069011E+03  0.7818608E-02  0.9891191E-01
         -2   -1    0    0    0  501 -0.00000000000E+00  0.00000000000E+00  0.22556132932E+03  0.22556132934E+03  0.25500000000E-02 0. -1.
          2   -1    0    0  501    0  0.00000000000E+00 -0.00000000000E+00 -0.40823592864E+03  0.40823592865E+03  0.25500000000E-02 0.  1.
   -5000001    1    1    2    0    0 -0.15274553605E+03 -0.60944596200E+02 -0.38738575348E+02  0.30173849574E+03  0.25000000000E+03 0.  0.
    5000001    1    1    2    0    0  0.15274553605E+03  0.60944596200E+02 -0.14393602397E+03  0.33205876225E+03  0.25000000000E+03 0.  0.
<mgrwt>
<rscale>  0 0.60690111E+03</rscale>
<asrwt>0</asrwt>
<pdfrwt beam="1">  1        2 0.62805528E-01 0.60690111E+03</pdfrwt>
<pdfrwt beam="2">  1       -2 0.34701743E-01 0.60690111E+03</pdfrwt>
<totfact> 0.60913463E+02</totfact>
</mgrwt>
</event>
<event>
 4    1  0.1806019E-005  0.7330326E+03  0.7818608E-02  0.9662352E-01
          2   -1    0    0  501    0  0.00000000000E+00  0.00000000000E+00  0.11469115254E+04  0.11469115254E+04  0.25500000000E-02 0.  1.
         -2   -1    0    0    0  501 -0.00000000000E+00 -0.00000000000E+00 -0.11712690650E+03  0.11712690653E+03  0.25500000000E-02 0. -1.
   -5000001    1    1    2    0    0 -0.13287094980E+03  0.23267624998E+03  0.50381416751E+03  0.62299409467E+03  0.25000000000E+03 0.  0.
    5000001    1    1    2    0    0  0.13287094980E+03 -0.23267624998E+03  0.52597045135E+03  0.64104433723E+03  0.25000000000E+03 0.  0.
<mgrwt>
<rscale>  0 0.73303260E+03</rscale>
<asrwt>0</asrwt>
<pdfrwt beam="1">  1        2 0.17644792E+00 0.73303260E+03</pdfrwt>
<pdfrwt beam="2">  1       -2 0.18019525E-01 0.73303260E+03</pdfrwt>
<totfact> 0.52592841E+02</totfact>
</mgrwt>
</event>
<event>
 4    1  0.1806019E-005  0.8791540E+03  0.7818608E-02  0.9452022E-01
          2   -1    0    0  501    0  0.00000000000E+00  0.00000000000E+00  0.24349405984E+04  0.24349405984E+04  0.25500000000E-02 0.  1.
         -2   -1    0    0    0  501 -0.00000000000E+00 -0.00000000000E+00 -0.79356332667E+02  0.79356332708E+02  0.25500000000E-02 0. -1.
   -5000001    1    1    2    0    0 -0.33469528547E+03 -0.10988749060E+03  0.14106902829E+04  0.14753451355E+04  0.25000000000E+03 0.  0.
    5000001    1    1    2    0    0  0.33469528547E+03  0.10988749060E+03  0.94489398284E+03  0.10389517956E+04  0.25000000000E+03 0.  0.
<mgrwt>
<rscale>  0 0.87915404E+03</rscale>
<asrwt>0</asrwt>
<pdfrwt beam="1">  1        2 0.37460618E+00 0.87915404E+03</pdfrwt>
<pdfrwt beam="2">  1       -2 0.12208669E-01 0.87915404E+03</pdfrwt>
<totfact> 0.19214689E+02</totfact>
</mgrwt>
</event>
<event>
 4    1  0.1806019E-005  0.7355142E+03  0.7818608E-02  0.9658354E-01
         -2   -1    0    0    0  501 -0.00000000000E+00  0.00000000000E+00  0.79210614830E+02  0.79210614871E+02  0.25500000000E-02 0. -1.
          2   -1    0    0  501    0  0.00000000000E+00 -0.00000000000E+00 -0.17074136073E+04  0.17074136073E+04  0.25500000000E-02 0.  1.
   -5000001    1    1    2    0    0 -0.26825465792E+03  0.18139814777E+02 -0.76224942905E+03  0.84605780326E+03  0.25000000000E+03 0.  0.
    5000001    1    1    2    0    0  0.26825465792E+03 -0.18139814777E+02 -0.86595356344E+03  0.94056641893E+03  0.25000000000E+03 0.  0.
<mgrwt>
<rscale>  0 0.73551419E+03</rscale>
<asrwt>0</asrwt>
<pdfrwt beam="1">  1        2 0.26267899E+00 0.73551419E+03</pdfrwt>
<pdfrwt beam="2">  1       -2 0.12186250E-01 0.73551419E+03</pdfrwt>
<totfact> 0.49037811E+02</totfact>
</mgrwt>
</event>
<event>
 4    1  0.1806019E-005  0.1046631E+04  0.7818608E-02  0.9258829E-01
          2   -1    0    0  501    0  0.00000000000E+00  0.00000000000E+00  0.13807276611E+04  0.13807276611E+04  0.25500000000E-02 0.  1.
         -2   -1    0    0    0  501 -0.00000000000E+00 -0.00000000000E+00 -0.19834410213E+03  0.19834410215E+03  0.25500000000E-02 0. -1.
   -5000001    1    1    2    0    0 -0.45135175806E+03  0.86701009777E+02  0.57441081184E+03  0.77697056274E+03  0.25000000000E+03 0.  0.
    5000001    1    1    2    0    0  0.45135175806E+03 -0.86701009777E+02  0.60797274713E+03  0.80210120050E+03  0.25000000000E+03 0.  0.
<mgrwt>
<rscale>  0 0.10466311E+04</rscale>
<asrwt>0</asrwt>
<pdfrwt beam="1">  1        2 0.21241965E+00 0.10466311E+04</pdfrwt>
<pdfrwt beam="2">  1       -2 0.30514476E-01 0.10466311E+04</pdfrwt>
<totfact> 0.14668053E+02</totfact>
</mgrwt>
</event>
<event>
 4    1  0.1806019E-005  0.8704664E+03  0.7818608E-02  0.9463272E-01
          2   -1    0    0  501    0  0.00000000000E+00  0.00000000000E+00  0.72458788527E+03  0.72458788527E+03  0.25500000000E-02 0.  1.
         -2   -1    0    0    0  501 -0.00000000000E+00 -0.00000000000E+00 -0.26142850648E+03  0.26142850649E+03  0.25500000000E-02 0. -1.
   -5000001    1    1    2    0    0  0.29685310566E+03 -0.95851060375E+02  0.42652616962E+03  0.58457999066E+03  0.25000000000E+03 0.  0.
    5000001    1    1    2    0    0 -0.29685310566E+03  0.95851060375E+02  0.36633209170E+02  0.40143640110E+03  0.25000000000E+03 0.  0.
<mgrwt>
<rscale>  0 0.87046638E+03</rscale>
<asrwt>0</asrwt>
<pdfrwt beam="1">  1        2 0.11147506E+00 0.87046638E+03</pdfrwt>
<pdfrwt beam="2">  1       -2 0.40219771E-01 0.87046638E+03</pdfrwt>
<totfact> 0.23021051E+02</totfact>
</mgrwt>
</event>
<event>
 4    1  0.1806019E-005  0.6802395E+03  0.7818608E-02  0.9751635E-01
          2   -1    0    0  501    0  0.00000000000E+00  0.00000000000E+00  0.18807795324E+03  0.18807795326E+03  0.25500000000E-02 0.  1.
         -2   -1    0    0    0  501 -0.00000000000E+00 -0.00000000000E+00 -0.61507183591E+03  0.61507183591E+03  0.25500000000E-02 0. -1.
   -5000001    1    1    2    0    0 -0.54224807370E+01 -0.22056828775E+03 -0.29271459177E+03  0.44369088912E+03  0.25000000000E+03 0.  0.
    5000001    1    1    2    0    0  0.54224807370E+01  0.22056828775E+03 -0.13427929090E+03  0.35945890005E+03  0.25000000000E+03 0.  0.
<mgrwt>
<rscale>  0 0.68023952E+03</rscale>
<asrwt>0</asrwt>
<pdfrwt beam="1">  1        2 0.28935070E-01 0.68023952E+03</pdfrwt>
<pdfrwt beam="2">  1       -2 0.94626435E-01 0.68023952E+03</pdfrwt>
<totfact> 0.17626750E+02</totfact>
</mgrwt>
</event>
<event>
 4    1  0.1806019E-005  0.6795800E+03  0.7818608E-02  0.9752805E-01
          2   -1    0    0  501    0  0.00000000000E+00  0.00000000000E+00  0.68768198504E+02  0.68768198551E+02  0.25500000000E-02 0.  1.
         -2   -1    0    0    0  501 -0.00000000000E+00 -0.00000000000E+00 -0.16789335499E+04  0.16789335499E+04  0.25500000000E-02 0. -1.
   -5000001    1    1    2    0    0  0.22177044547E+03 -0.55714709393E+02 -0.73846639922E+03  0.81247700404E+03  0.25000000000E+03 0.  0.
    5000001    1    1    2    0    0 -0.22177044547E+03  0.55714709393E+02 -0.87169895217E+03  0.93522474440E+03  0.25000000000E+03 0.  0.
<mgrwt>
<rscale>  0 0.67957998E+03</rscale>
<asrwt>0</asrwt>
<pdfrwt beam="1">  1        2 0.10579724E-01 0.67957998E+03</pdfrwt>
<pdfrwt beam="2">  1       -2 0.25829744E+00 0.67957998E+03</pdfrwt>
<totfact> 0.36623115E+01</totfact>
</mgrwt>
</event>
<event>
 4    1  0.1806019E-005  0.7441162E+03  0.7818608E-02  0.9644627E-01
          2   -1    0    0  501    0  0.00000000000E+00  0.00000000000E+00  0.14535188610E+04  0.14535188610E+04  0.25500000000E-02 0.  1.
         -2   -1    0    0    0  501 -0.00000000000E+00 -0.00000000000E+00 -0.95235926861E+02  0.95235926895E+02  0.25500000000E-02 0. -1.
   -5000001    1    1    2    0    0  0.18646437483E+03 -0.20286817922E+03  0.67568698848E+03  0.77134776049E+03  0.25000000000E+03 0.  0.
    5000001    1    1    2    0    0 -0.18646437483E+03  0.20286817922E+03  0.68259594564E+03  0.77740702738E+03  0.25000000000E+03 0.  0.
<mgrwt>
<rscale>  0 0.74411616E+03</rscale>
<asrwt>0</asrwt>
<pdfrwt beam="1">  1        2 0.22361828E+00 0.74411616E+03</pdfrwt>
<pdfrwt beam="2">  1       -2 0.14651682E-01 0.74411616E+03</pdfrwt>
<totfact> 0.49754525E+02</totfact>
</mgrwt>
</event>
<event>
 4    1  0.1806019E-005  0.8021260E+03  0.7818608E-02  0.9556945E-01
         -2   -1    0    0    0  501 -0.00000000000E+00  0.00000000000E+00  0.10807077891E+03  0.10807077894E+03  0.25500000000E-02 0. -1.
          2   -1    0    0  501    0  0.00000000000E+00 -0.00000000000E+00 -0.14883904202E+04  0.14883904202E+04  0.25500000000E-02 0.  1.
   -5000001    1    1    2    0    0  0.76602247221E+02 -0.27432034169E+03 -0.95142594975E+03  0.10241244514E+04  0.25000000000E+03 0.  0.
    5000001    1    1    2    0    0 -0.76602247221E+02  0.27432034169E+03 -0.42889369154E+03  0.57233674772E+03  0.25000000000E+03 0.  0.
<mgrwt>
<rscale>  0 0.80212596E+03</rscale>
<asrwt>0</asrwt>
<pdfrwt beam="1">  1        2 0.22898313E+00 0.80212596E+03</pdfrwt>
<pdfrwt beam="2">  1       -2 0.16626275E-01 0.80212596E+03</pdfrwt>
<totfact> 0.38246520E+02</totfact>
</mgrwt>
</event>
<event>
 4    1  0.1806019E-005  0.9187615E+03  0.7818608E-02  0.9402428E-01
          2   -1    0    0  501    0  0.00000000000E+00  0.00000000000E+00  0.70219425499E+03  0.70219425500E+03  0.25500000000E-02 0.  1.
         -2   -1    0    0    0  501 -0.00000000000E+00 -0.00000000000E+00 -0.30053033288E+03  0.30053033289E+03  0.25500000000E-02 0. -1.
   -5000001    1    1    2    0    0  0.20418104713E+03 -0.32499558962E+03  0.16273269770E+03  0.48610077574E+03  0.25000000000E+03 0.  0.
    5000001    1    1    2    0    0 -0.20418104713E+03  0.32499558962E+03  0.23893122441E+03  0.51662381215E+03  0.25000000000E+03 0.  0.
<mgrwt>
<rscale>  0 0.91876150E+03</rscale>
<asrwt>0</asrwt>
<pdfrwt beam="1">  1        2 0.10802988E+00 0.91876150E+03</pdfrwt>
<pdfrwt beam="2">  1       -2 0.46235436E-01 0.91876150E+03</pdfrwt>
<totfact> 0.18139401E+02</totfact>
</mgrwt>
</event>
<event>
 4    1  0.1806019E-005  0.7980305E+03  0.7818608E-02  0.9562872E-01
          2   -1    0    0  501    0  0.00000000000E+00  0.00000000000E+00  0.27152022469E+03  0.27152022470E+03  0.25500000000E-02 0.  1.
         -2   -1    0    0    0  501 -0.00000000000E+00 -0.00000000000E+00 -0.58637686006E+03  0.58637686007E+03  0.25500000000E-02 0. -1.
   -5000001    1    1    2    0    0 -0.91079361400E+02 -0.27834176149E+03 -0.26988767832E+03  0.47022222956E+03  0.25000000000E+03 0.  0.
    5000001    1    1    2    0    0  0.91079361400E+02  0.27834176149E+03 -0.44968957057E+02  0.38767485521E+03  0.25000000000E+03 0.  0.
<mgrwt>
<rscale>  0 0.79803052E+03</rscale>
<asrwt>0</asrwt>
<pdfrwt beam="1">  1        2 0.41772342E-01 0.79803052E+03</pdfrwt>
<pdfrwt beam="2">  1       -2 0.90211824E-01 0.79803052E+03</pdfrwt>
<totfact> 0.12994486E+02</totfact>
</mgrwt>
</event>
<event>
 4    1  0.1806019E-005  0.6535669E+03  0.7818608E-02  0.9800109E-01
          2   -1    0    0  501    0  0.00000000000E+00  0.00000000000E+00  0.82211048133E+03  0.82211048134E+03  0.25500000000E-02 0.  1.
         -2   -1    0    0    0  501 -0.00000000000E+00 -0.00000000000E+00 -0.12989425871E+03  0.12989425874E+03  0.25500000000E-02 0. -1.
   -5000001    1    1    2    0    0 -0.37844269960E+02 -0.11519446423E+03  0.95561610727E+02  0.29382643653E+03  0.25000000000E+03 0.  0.
    5000001    1    1    2    0    0  0.37844269960E+02  0.11519446423E+03  0.59665461190E+03  0.65817830354E+03  0.25000000000E+03 0.  0.
<mgrwt>
<rscale>  0 0.65356693E+03</rscale>
<asrwt>0</asrwt>
<pdfrwt beam="1">  1        2 0.12647854E+00 0.65356693E+03</pdfrwt>
<pdfrwt beam="2">  1       -2 0.19983732E-01 0.65356693E+03</pdfrwt>
<totfact> 0.71398300E+02</totfact>
</mgrwt>
</event>
<event>
 4    1  0.1806019E-005  0.6993882E+03  0.7818608E-02  0.9718279E-01
         -2   -1    0    0    0  501 -0.00000000000E+00  0.00000000000E+00  0.29783723235E+02  0.29783723344E+02  0.25500000000E-02 0. -1.
          2   -1    0    0  501    0  0.00000000000E+00 -0.00000000000E+00 -0.41057978209E+04  0.41057978209E+04  0.25500000000E-02 0.  1.
   -5000001    1    1    2    0    0  0.18859147991E+03 -0.15549441177E+03 -0.20757252014E+04  0.21049656459E+04  0.25000000000E+03 0.  0.
    5000001    1    1    2    0    0 -0.18859147991E+03  0.15549441177E+03 -0.20002888963E+04  0.20306158984E+04  0.25000000000E+03 0.  0.
<mgrwt>
<rscale>  0 0.69938815E+03</rscale>
<asrwt>0</asrwt>
<pdfrwt beam="1">  1        2 0.63166075E+00 0.69938815E+03</pdfrwt>
<pdfrwt beam="2">  1       -2 0.45821145E-02 0.69938815E+03</pdfrwt>
<totfact> 0.73916351E+01</totfact>
</mgrwt>
</event>
<event>
 4    1  0.1806019E-005  0.7050110E+03  0.7818608E-02  0.9708701E-01
         -2   -1    0    0    0  501 -0.00000000000E+00  0.00000000000E+00  0.25922486796E+03  0.25922486797E+03  0.25500000000E-02 0. -1.
          2   -1    0    0  501    0  0.00000000000E+00 -0.00000000000E+00 -0.47935265932E+03  0.47935265932E+03  0.25500000000E-02 0.  1.
   -5000001    1    1    2    0    0 -0.44600018874E+02 -0.10028611653E+03 -0.34364519716E+03  0.43890601315E+03  0.25000000000E+03 0.  0.
    5000001    1    1    2    0    0  0.44600018874E+02  0.10028611653E+03  0.12351740580E+03  0.29967151414E+03  0.25000000000E+03 0.  0.
<mgrwt>
<rscale>  0 0.70501101E+03</rscale>
<asrwt>0</asrwt>
<pdfrwt beam="1">  1        2 0.73746563E-01 0.70501101E+03</pdfrwt>
<pdfrwt beam="2">  1       -2 0.39880749E-01 0.70501101E+03</pdfrwt>
<totfact> 0.38775487E+02</totfact>
</mgrwt>
</event>
<event>
 4    1  0.1806019E-005  0.5779186E+03  0.7818608E-02  0.9952307E-01
          2   -1    0    0  501    0  0.00000000000E+00  0.00000000000E+00  0.65767495523E+03  0.65767495523E+03  0.25500000000E-02 0.  1.
         -2   -1    0    0    0  501 -0.00000000000E+00 -0.00000000000E+00 -0.12695858832E+03  0.12695858835E+03  0.25500000000E-02 0. -1.
   -5000001    1    1    2    0    0 -0.31639782081E+02 -0.12437341922E+03  0.17400217491E+03  0.33052470421E+03  0.25000000000E+03 0.  0.
    5000001    1    1    2    0    0  0.31639782081E+02  0.12437341922E+03  0.35671419200E+03  0.45410883937E+03  0.25000000000E+03 0.  0.
<mgrwt>
<rscale>  0 0.57791862E+03</rscale>
<asrwt>0</asrwt>
<pdfrwt beam="1">  1        2 0.10118076E+00 0.57791862E+03</pdfrwt>
<pdfrwt beam="2">  1       -2 0.19532091E-01 0.57791862E+03</pdfrwt>
<totfact> 0.98961757E+02</totfact>
</mgrwt>
</event>
<event>
 4    1  0.1806019E-005  0.1334804E+04  0.7818608E-02  0.9002412E-01
         -2   -1    0    0    0  501 -0.00000000000E+00  0.00000000000E+00  0.14788826437E+03  0.14788826439E+03  0.25500000000E-02 0. -1.
          2   -1    0    0  501    0  0.00000000000E+00 -0.00000000000E+00 -0.30119048326E+04  0.30119048326E+04  0.25500000000E-02 0.  1.
   -5000001    1    1    2    0    0 -0.40473010474E+03 -0.46518036141E+03 -0.15556076358E+04  0.16919262227E+04  0.25000000000E+03 0.  0.
    5000001    1    1    2    0    0  0.40473010474E+03  0.46518036141E+03 -0.13084089324E+04  0.14678668743E+04  0.25000000000E+03 0.  0.
<mgrwt>
<rscale>  0 0.13348039E+04</rscale>
<asrwt>0</asrwt>
<pdfrwt beam="1">  1        2 0.46336993E+00 0.13348039E+04</pdfrwt>
<pdfrwt beam="2">  1       -2 0.22752043E-01 0.13348039E+04</pdfrwt>
<totfact> 0.28761587E+01</totfact>
</mgrwt>
</event>
<event>
 4    1  0.1806019E-005  0.8079086E+03  0.7818608E-02  0.9548640E-01
         -2   -1    0    0    0  501 -0.00000000000E+00  0.00000000000E+00  0.63260944339E+02  0.63260944391E+02  0.25500000000E-02 0. -1.
          2   -1    0    0  501    0  0.00000000000E+00 -0.00000000000E+00 -0.25794602020E+04  0.25794602020E+04  0.25500000000E-02 0.  1.
   -5000001    1    1    2    0    0 -0.27703481504E+03  0.96916205435E+02 -0.16525043935E+04  0.16968829689E+04  0.25000000000E+03 0.  0.
    5000001    1    1    2    0    0  0.27703481504E+03 -0.96916205435E+02 -0.86369486417E+03  0.94583817750E+03  0.25000000000E+03 0.  0.
<mgrwt>
<rscale>  0 0.80790863E+03</rscale>
<asrwt>0</asrwt>
<pdfrwt beam="1">  1        2 0.39683995E+00 0.80790863E+03</pdfrwt>
<pdfrwt beam="2">  1       -2 0.97324550E-02 0.80790863E+03</pdfrwt>
<totfact> 0.23222939E+02</totfact>
</mgrwt>
</event>
<event>
 4    1  0.1806019E-005  0.8761227E+03  0.7818608E-02  0.9455931E-01
          2   -1    0    0  501    0  0.00000000000E+00  0.00000000000E+00  0.93033629016E+03  0.93033629016E+03  0.25500000000E-02 0. -1.
         -2   -1    0    0    0  501 -0.00000000000E+00 -0.00000000000E+00 -0.20626707204E+03  0.20626707206E+03  0.25500000000E-02 0.  1.
   -5000001    1    1    2    0    0  0.89483169291E+02 -0.26045150820E+03  0.66225909882E+03  0.75955864795E+03  0.25000000000E+03 0.  0.
    5000001    1    1    2    0    0 -0.89483169291E+02  0.26045150820E+03  0.61810119299E+02  0.37704471427E+03  0.25000000000E+03 0.  0.
<mgrwt>
<rscale>  0 0.87612269E+03</rscale>
<asrwt>0</asrwt>
<pdfrwt beam="1">  1        2 0.14312866E+00 0.87612269E+03</pdfrwt>
<pdfrwt beam="2">  1       -2 0.31733396E-01 0.87612269E+03</pdfrwt>
<totfact> 0.25874500E+02</totfact>
</mgrwt>
</event>
<event>
 4    1  0.1806019E-005  0.6407625E+03  0.7818608E-02  0.9824269E-01
         -2   -1    0    0    0  501 -0.00000000000E+00  0.00000000000E+00  0.13276052618E+03  0.13276052621E+03  0.25500000000E-02 0.  1.
          2   -1    0    0  501    0  0.00000000000E+00 -0.00000000000E+00 -0.77315259318E+03  0.77315259319E+03  0.25500000000E-02 0. -1.
   -5000001    1    1    2    0    0 -0.19534637371E+03  0.28476498193E+02 -0.27177392104E+03  0.41872685706E+03  0.25000000000E+03 0.  0.
    5000001    1    1    2    0    0  0.19534637371E+03 -0.28476498193E+02 -0.36861814596E+03  0.48718626233E+03  0.25000000000E+03 0.  0.
<mgrwt>
<rscale>  0 0.64076250E+03</rscale>
<asrwt>0</asrwt>
<pdfrwt beam="1">  1        2 0.11894655E+00 0.64076250E+03</pdfrwt>
<pdfrwt beam="2">  1       -2 0.20424697E-01 0.64076250E+03</pdfrwt>
<totfact> 0.74540118E+02</totfact>
</mgrwt>
</event>
<event>
 4    1  0.1806019E-005  0.5462503E+03  0.7818608E-02  0.1002366E+00
         -2   -1    0    0    0  501 -0.00000000000E+00  0.00000000000E+00  0.50771635334E+02  0.50771635398E+02  0.25500000000E-02 0. -1.
          2   -1    0    0  501    0  0.00000000000E+00 -0.00000000000E+00 -0.14692721154E+04  0.14692721154E+04  0.25500000000E-02 0.  1.
   -5000001    1    1    2    0    0 -0.60887475680E+02  0.72520779923E+02 -0.86495147348E+03  0.90532182106E+03  0.25000000000E+03 0.  0.
    5000001    1    1    2    0    0  0.60887475680E+02 -0.72520779923E+02 -0.55354900663E+03  0.61472192978E+03  0.25000000000E+03 0.  0.
<mgrwt>
<rscale>  0 0.54625030E+03</rscale>
<asrwt>0</asrwt>
<pdfrwt beam="1">  1        2 0.22604183E+00 0.54625030E+03</pdfrwt>
<pdfrwt beam="2">  1       -2 0.78110219E-02 0.54625030E+03</pdfrwt>
<totfact> 0.13760467E+03</totfact>
</mgrwt>
</event>
<event>
 4    1  0.1806019E-005  0.8196985E+03  0.7818608E-02  0.9531934E-01
          2   -1    0    0  501    0  0.00000000000E+00  0.00000000000E+00  0.22049603213E+04  0.22049603213E+04  0.25500000000E-02 0.  1.
         -2   -1    0    0    0  501 -0.00000000000E+00 -0.00000000000E+00 -0.76181153992E+02  0.76181154035E+02  0.25500000000E-02 0. -1.
   -5000001    1    1    2    0    0 -0.25080320397E+03 -0.11349201099E+03  0.58484333330E+03  0.69305440493E+03  0.25000000000E+03 0.  0.
    5000001    1    1    2    0    0  0.25080320397E+03  0.11349201099E+03  0.15439358341E+04  0.15880870705E+04  0.25000000000E+03 0.  0.
<mgrwt>
<rscale>  0 0.81969853E+03</rscale>
<asrwt>0</asrwt>
<pdfrwt beam="1">  1        2 0.33922461E+00 0.81969853E+03</pdfrwt>
<pdfrwt beam="2">  1       -2 0.11720179E-01 0.81969853E+03</pdfrwt>
<totfact> 0.27777408E+02</totfact>
</mgrwt>
</event>
<event>
 4    1  0.1806019E-005  0.1638770E+04  0.7818608E-02  0.8797078E-01
          2   -1    0    0  501    0  0.00000000000E+00  0.00000000000E+00  0.21172596697E+04  0.21172596697E+04  0.25500000000E-02 0. -1.
         -2   -1    0    0    0  501 -0.00000000000E+00 -0.00000000000E+00 -0.31710401321E+03  0.31710401322E+03  0.25500000000E-02 0.  1.
   -5000001    1    1    2    0    0 -0.51216461001E+03 -0.32902706765E+03  0.17489434341E+03  0.68092542202E+03  0.25000000000E+03 0.  0.
    5000001    1    1    2    0    0  0.51216461001E+03  0.32902706765E+03  0.16252613131E+04  0.17534382609E+04  0.25000000000E+03 0.  0.
<mgrwt>
<rscale>  0 0.16387697E+04</rscale>
<asrwt>0</asrwt>
<pdfrwt beam="1">  1        2 0.32573226E+00 0.16387697E+04</pdfrwt>
<pdfrwt beam="2">  1       -2 0.48785233E-01 0.16387697E+04</pdfrwt>
<totfact> 0.21870171E+01</totfact>
</mgrwt>
</event>
<event>
 4    1  0.1806019E-005  0.7254192E+03  0.7818608E-02  0.9674723E-01
         -2   -1    0    0    0  501 -0.00000000000E+00  0.00000000000E+00  0.19895986528E+04  0.19895986528E+04  0.25500000000E-02 0. -1.
          2   -1    0    0  501    0  0.00000000000E+00 -0.00000000000E+00 -0.66123013243E+02  0.66123013292E+02  0.25500000000E-02 0.  1.
   -5000001    1    1    2    0    0 -0.24705415463E+03 -0.15362088501E+02  0.71167642101E+03  0.79388606065E+03  0.25000000000E+03 0.  0.
    5000001    1    1    2    0    0  0.24705415463E+03  0.15362088501E+02  0.12117992186E+04  0.12618356055E+04  0.25000000000E+03 0.  0.
<mgrwt>
<rscale>  0 0.72541921E+03</rscale>
<asrwt>0</asrwt>
<pdfrwt beam="1">  1        2 0.10172772E-01 0.72541921E+03</pdfrwt>
<pdfrwt beam="2">  1       -2 0.30609207E+00 0.72541921E+03</pdfrwt>
<totfact> 0.19819608E+01</totfact>
</mgrwt>
</event>
<event>
 4    1  0.1806019E-005  0.1183941E+04  0.7818608E-02  0.9127030E-01
         -2   -1    0    0    0  501 -0.00000000000E+00  0.00000000000E+00  0.12536373902E+03  0.12536373905E+03  0.25500000000E-02 0. -1.
          2   -1    0    0  501    0  0.00000000000E+00 -0.00000000000E+00 -0.27952977587E+04  0.27952977587E+04  0.25500000000E-02 0.  1.
   -5000001    1    1    2    0    0  0.50440337295E+03  0.21018034005E+01 -0.88343838827E+03  0.10475641107E+04  0.25000000000E+03 0.  0.
    5000001    1    1    2    0    0 -0.50440337295E+03 -0.21018034005E+01 -0.17864956314E+04  0.18730973870E+04  0.25000000000E+03 0.  0.
<mgrwt>
<rscale>  0 0.11839408E+04</rscale>
<asrwt>0</asrwt>
<pdfrwt beam="1">  1        2 0.43004576E+00 0.11839408E+04</pdfrwt>
<pdfrwt beam="2">  1       -2 0.19286731E-01 0.11839408E+04</pdfrwt>
<totfact> 0.52974594E+01</totfact>
</mgrwt>
</event>
<event>
 4    1  0.1806019E-005  0.6813320E+03  0.7818608E-02  0.9749701E-01
          2   -1    0    0  501    0  0.00000000000E+00  0.00000000000E+00  0.27563787399E+04  0.27563787399E+04  0.25500000000E-02 0.  1.
         -2   -1    0    0    0  501 -0.00000000000E+00 -0.00000000000E+00 -0.42103545339E+02  0.42103545416E+02  0.25500000000E-02 0. -1.
   -5000001    1    1    2    0    0 -0.14907299357E+03  0.17543436928E+03  0.12605190258E+04  0.13055298502E+04  0.25000000000E+03 0.  0.
    5000001    1    1    2    0    0  0.14907299357E+03 -0.17543436928E+03  0.14537561688E+04  0.14929524352E+04  0.25000000000E+03 0.  0.
<mgrwt>
<rscale>  0 0.68133198E+03</rscale>
<asrwt>0</asrwt>
<pdfrwt beam="1">  1        2 0.42405811E+00 0.68133198E+03</pdfrwt>
<pdfrwt beam="2">  1       -2 0.64774709E-02 0.68133198E+03</pdfrwt>
<totfact> 0.35628367E+02</totfact>
</mgrwt>
</event>
<event>
 4    1  0.1806019E-005  0.7163921E+03  0.7818608E-02  0.9689603E-01
         -2   -1    0    0    0  501 -0.00000000000E+00  0.00000000000E+00  0.55731243130E+03  0.55731243131E+03  0.25500000000E-02 0. -1.
          2   -1    0    0  501    0  0.00000000000E+00 -0.00000000000E+00 -0.23021991521E+03  0.23021991522E+03  0.25500000000E-02 0.  1.
   -5000001    1    1    2    0    0 -0.53818110333E+02  0.24922457039E+03  0.13254774834E+03  0.38089129824E+03  0.25000000000E+03 0.  0.
    5000001    1    1    2    0    0  0.53818110333E+02 -0.24922457039E+03  0.19454476776E+03  0.40664104829E+03  0.25000000000E+03 0.  0.
<mgrwt>
<rscale>  0 0.71639213E+03</rscale>
<asrwt>0</asrwt>
<pdfrwt beam="1">  1        2 0.35418449E-01 0.71639213E+03</pdfrwt>
<pdfrwt beam="2">  1       -2 0.85740374E-01 0.71639213E+03</pdfrwt>
<totfact> 0.17604665E+02</totfact>
</mgrwt>
</event>
<event>
 4    1  0.1806019E-005  0.7330266E+03  0.7818608E-02  0.9662362E-01
         -2   -1    0    0    0  501 -0.00000000000E+00  0.00000000000E+00  0.17423343659E+03  0.17423343661E+03  0.25500000000E-02 0. -1.
          2   -1    0    0  501    0  0.00000000000E+00 -0.00000000000E+00 -0.77098870590E+03  0.77098870590E+03  0.25500000000E-02 0.  1.
   -5000001    1    1    2    0    0  0.18004016641E+03 -0.18503039366E+03 -0.20555932469E+03  0.41401128495E+03  0.25000000000E+03 0.  0.
    5000001    1    1    2    0    0 -0.18004016641E+03  0.18503039366E+03 -0.39119594462E+03  0.53121085756E+03  0.25000000000E+03 0.  0.
<mgrwt>
<rscale>  0 0.73302663E+03</rscale>
<asrwt>0</asrwt>
<pdfrwt beam="1">  1        2 0.11861365E+00 0.73302663E+03</pdfrwt>
<pdfrwt beam="2">  1       -2 0.26805145E-01 0.73302663E+03</pdfrwt>
<totfact> 0.45922521E+02</totfact>
</mgrwt>
</event>
<event>
 4    1  0.1806019E-005  0.7151181E+03  0.7818608E-02  0.9691722E-01
          2   -1    0    0  501    0  0.00000000000E+00  0.00000000000E+00  0.10662367071E+04  0.10662367071E+04  0.25500000000E-02 0. -1.
         -2   -1    0    0    0  501 -0.00000000000E+00 -0.00000000000E+00 -0.11990627408E+03  0.11990627411E+03  0.25500000000E-02 0.  1.
   -5000001    1    1    2    0    0  0.10388581315E+03  0.17944571370E+03  0.22516564322E+03  0.39521208639E+03  0.25000000000E+03 0.  0.
    5000001    1    1    2    0    0 -0.10388581315E+03 -0.17944571370E+03  0.72116478980E+03  0.79093089482E+03  0.25000000000E+03 0.  0.
<mgrwt>
<rscale>  0 0.71511809E+03</rscale>
<asrwt>0</asrwt>
<pdfrwt beam="1">  1        2 0.16403642E+00 0.71511809E+03</pdfrwt>
<pdfrwt beam="2">  1       -2 0.18447119E-01 0.71511809E+03</pdfrwt>
<totfact> 0.56604090E+02</totfact>
</mgrwt>
</event>
<event>
 4    1  0.1806019E-005  0.1163566E+04  0.7818608E-02  0.9145359E-01
         -2   -1    0    0    0  501 -0.00000000000E+00  0.00000000000E+00  0.27868584427E+03  0.27868584428E+03  0.25500000000E-02 0. -1.
          2   -1    0    0  501    0  0.00000000000E+00 -0.00000000000E+00 -0.12145272998E+04  0.12145272998E+04  0.25500000000E-02 0.  1.
   -5000001    1    1    2    0    0  0.35389812924E+03 -0.37766949443E+03 -0.58337156907E+03  0.81896307640E+03  0.25000000000E+03 0.  0.
    5000001    1    1    2    0    0 -0.35389812924E+03  0.37766949443E+03 -0.35246988645E+03  0.67425006767E+03  0.25000000000E+03 0.  0.
<mgrwt>
<rscale>  0 0.11635662E+04</rscale>
<asrwt>0</asrwt>
<pdfrwt beam="1">  1        2 0.18685035E+00 0.11635662E+04</pdfrwt>
<pdfrwt beam="2">  1       -2 0.42874746E-01 0.11635662E+04</pdfrwt>
<totfact> 0.94648956E+01</totfact>
</mgrwt>
</event>
<event>
 4    1  0.1806019E-005  0.6373018E+03  0.7818608E-02  0.9830903E-01
          2   -1    0    0  501    0  0.00000000000E+00  0.00000000000E+00  0.78668833334E+03  0.78668833334E+03  0.25500000000E-02 0.  1.
         -2   -1    0    0    0  501 -0.00000000000E+00 -0.00000000000E+00 -0.12907066566E+03  0.12907066569E+03  0.25500000000E-02 0. -1.
   -5000001    1    1    2    0    0 -0.14864142395E+02 -0.19535494347E+03  0.36555300742E+03  0.48426593716E+03  0.25000000000E+03 0.  0.
    5000001    1    1    2    0    0  0.14864142395E+02  0.19535494347E+03  0.29206466026E+03  0.43149306186E+03  0.25000000000E+03 0.  0.
<mgrwt>
<rscale>  0 0.63730177E+03</rscale>
<asrwt>0</asrwt>
<pdfrwt beam="1">  1        2 0.12102897E+00 0.63730177E+03</pdfrwt>
<pdfrwt beam="2">  1       -2 0.19857026E-01 0.63730177E+03</pdfrwt>
<totfact> 0.76555120E+02</totfact>
</mgrwt>
</event>
<event>
 4    1  0.1806019E-005  0.6869327E+03  0.7818608E-02  0.9739844E-01
          2   -1    0    0  501    0  0.00000000000E+00  0.00000000000E+00  0.20689269164E+04  0.20689269164E+04  0.25500000000E-02 0.  1.
         -2   -1    0    0    0  501 -0.00000000000E+00 -0.00000000000E+00 -0.57019474852E+02  0.57019474909E+02  0.25500000000E-02 0. -1.
   -5000001    1    1    2    0    0  0.17650477761E+03  0.97695096805E+02  0.13820863342E+04  0.14189294922E+04  0.25000000000E+03 0.  0.
    5000001    1    1    2    0    0 -0.17650477761E+03 -0.97695096805E+02  0.62982110733E+03  0.70701689916E+03  0.25000000000E+03 0.  0.
<mgrwt>
<rscale>  0 0.68693268E+03</rscale>
<asrwt>0</asrwt>
<pdfrwt beam="1">  1        2 0.31829640E+00 0.68693268E+03</pdfrwt>
<pdfrwt beam="2">  1       -2 0.87722282E-02 0.68693268E+03</pdfrwt>
<totfact> 0.53457706E+02</totfact>
</mgrwt>
</event>
<event>
 4    1  0.1806019E-005  0.7246217E+03  0.7818608E-02  0.9676028E-01
         -2   -1    0    0    0  501 -0.00000000000E+00  0.00000000000E+00  0.59248210613E+02  0.59248210668E+02  0.25500000000E-02 0. -1.
          2   -1    0    0  501    0  0.00000000000E+00 -0.00000000000E+00 -0.22155798138E+04  0.22155798138E+04  0.25500000000E-02 0.  1.
   -5000001    1    1    2    0    0 -0.58427959802E+02  0.96733928958E+02 -0.18210531636E+04  0.18416041660E+04  0.25000000000E+03 0.  0.
    5000001    1    1    2    0    0  0.58427959802E+02 -0.96733928958E+02 -0.33527843952E+03  0.43322385842E+03  0.25000000000E+03 0.  0.
<mgrwt>
<rscale>  0 0.72462167E+03</rscale>
<asrwt>0</asrwt>
<pdfrwt beam="1">  1        2 0.34085837E+00 0.72462167E+03</pdfrwt>
<pdfrwt beam="2">  1       -2 0.91151110E-02 0.72462167E+03</pdfrwt>
<totfact> 0.41638219E+02</totfact>
</mgrwt>
</event>
<event>
 4    1  0.1806019E-005  0.5134679E+03  0.7818608E-02  0.1010322E+00
         -2   -1    0    0    0  501 -0.00000000000E+00  0.00000000000E+00  0.19532417978E+03  0.19532417980E+03  0.25500000000E-02 0. -1.
          2   -1    0    0  501    0  0.00000000000E+00 -0.00000000000E+00 -0.33745084703E+03  0.33745084704E+03  0.25500000000E-02 0.  1.
   -5000001    1    1    2    0    0  0.12224844539E+01 -0.57986175011E+02 -0.78283352422E+02  0.26831357444E+03  0.25000000000E+03 0.  0.
    5000001    1    1    2    0    0 -0.12224844539E+01  0.57986175011E+02 -0.63843314828E+02  0.26446145241E+03  0.25000000000E+03 0.  0.
<mgrwt>
<rscale>  0 0.51346786E+03</rscale>
<asrwt>0</asrwt>
<pdfrwt beam="1">  1        2 0.51915515E-01 0.51346786E+03</pdfrwt>
<pdfrwt beam="2">  1       -2 0.30049874E-01 0.51346786E+03</pdfrwt>
<totfact> 0.98580279E+02</totfact>
</mgrwt>
</event>
<event>
 4    1  0.1806019E-005  0.6142775E+03  0.7818608E-02  0.9876220E-01
          2   -1    0    0  501    0  0.00000000000E+00  0.00000000000E+00  0.80468330270E+03  0.80468330271E+03  0.25500000000E-02 0.  1.
         -2   -1    0    0    0  501 -0.00000000000E+00 -0.00000000000E+00 -0.11723148253E+03  0.11723148256E+03  0.25500000000E-02 0. -1.
   -5000001    1    1    2    0    0  0.75887693396E+02 -0.15545484911E+03  0.40930063159E+03  0.50985503738E+03  0.25000000000E+03 0.  0.
    5000001    1    1    2    0    0 -0.75887693396E+02  0.15545484911E+03  0.27815118858E+03  0.41205974789E+03  0.25000000000E+03 0.  0.
<mgrwt>
<rscale>  0 0.61427752E+03</rscale>
<asrwt>0</asrwt>
<pdfrwt beam="1">  1        2 0.12379743E+00 0.61427752E+03</pdfrwt>
<pdfrwt beam="2">  1       -2 0.18035613E-01 0.61427752E+03</pdfrwt>
<totfact> 0.87838428E+02</totfact>
</mgrwt>
</event>
<event>
 4    1  0.1806019E-005  0.1269934E+04  0.7818608E-02  0.9053753E-01
          2   -1    0    0  501    0  0.00000000000E+00  0.00000000000E+00  0.25869435958E+04  0.25869435958E+04  0.25500000000E-02 0.  1.
         -2   -1    0    0    0  501 -0.00000000000E+00 -0.00000000000E+00 -0.15585318090E+03  0.15585318092E+03  0.25500000000E-02 0. -1.
   -5000001    1    1    2    0    0 -0.26647690374E+03 -0.33011576342E+03  0.20813425446E+04  0.21388018014E+04  0.25000000000E+03 0.  0.
    5000001    1    1    2    0    0  0.26647690374E+03  0.33011576342E+03  0.34974787026E+03  0.60399497534E+03  0.25000000000E+03 0.  0.
<mgrwt>
<rscale>  0 0.12699345E+04</rscale>
<asrwt>0</asrwt>
<pdfrwt beam="1">  1        2 0.39799130E+00 0.12699345E+04</pdfrwt>
<pdfrwt beam="2">  1       -2 0.23977414E-01 0.12699345E+04</pdfrwt>
<totfact> 0.47364751E+01</totfact>
</mgrwt>
</event>
<event>
 4    1  0.1806019E-005  0.7898945E+03  0.7818608E-02  0.9574761E-01
          2   -1    0    0  501    0  0.00000000000E+00  0.00000000000E+00  0.61688792202E+03  0.61688792203E+03  0.25500000000E-02 0.  1.
         -2   -1    0    0    0  501 -0.00000000000E+00 -0.00000000000E+00 -0.25285519545E+03  0.25285519546E+03  0.25500000000E-02 0. -1.
   -5000001    1    1    2    0    0 -0.11876315257E+03 -0.24261466334E+03  0.33973254887E+03  0.50088398461E+03  0.25000000000E+03 0.  0.
    5000001    1    1    2    0    0  0.11876315257E+03  0.24261466334E+03  0.24300177697E+02  0.36885913288E+03  0.25000000000E+03 0.  0.
<mgrwt>
<rscale>  0 0.78989446E+03</rscale>
<asrwt>0</asrwt>
<pdfrwt beam="1">  1        2 0.94905833E-01 0.78989446E+03</pdfrwt>
<pdfrwt beam="2">  1       -2 0.38900800E-01 0.78989446E+03</pdfrwt>
<totfact> 0.30127836E+02</totfact>
</mgrwt>
</event>
<event>
 4    1  0.1806019E-005  0.7944099E+03  0.7818608E-02  0.9568144E-01
         -2   -1    0    0    0  501 -0.00000000000E+00  0.00000000000E+00  0.21496801315E+03  0.21496801317E+03  0.25500000000E-02 0. -1.
          2   -1    0    0  501    0  0.00000000000E+00 -0.00000000000E+00 -0.73393144367E+03  0.73393144368E+03  0.25500000000E-02 0.  1.
   -5000001    1    1    2    0    0 -0.22963731418E+02  0.29920422631E+03 -0.17317111860E+03  0.42724552463E+03  0.25000000000E+03 0.  0.
    5000001    1    1    2    0    0  0.22963731418E+02 -0.29920422631E+03 -0.34579231193E+03  0.52165393221E+03  0.25000000000E+03 0.  0.
<mgrwt>
<rscale>  0 0.79440993E+03</rscale>
<asrwt>0</asrwt>
<pdfrwt beam="1">  1        2 0.11291253E+00 0.79440993E+03</pdfrwt>
<pdfrwt beam="2">  1       -2 0.33072002E-01 0.79440993E+03</pdfrwt>
<totfact> 0.33078458E+02</totfact>
</mgrwt>
</event>
<event>
 4    1  0.1806019E-005  0.9609497E+03  0.7818608E-02  0.9352443E-01
          2   -1    0    0  501    0  0.00000000000E+00  0.00000000000E+00  0.39890529594E+03  0.39890529594E+03  0.25500000000E-02 0.  1.
         -2   -1    0    0    0  501 -0.00000000000E+00 -0.00000000000E+00 -0.57872400260E+03  0.57872400260E+03  0.25500000000E-02 0. -1.
   -5000001    1    1    2    0    0  0.14309871330E+03 -0.36901896154E+03 -0.19997141336E+03  0.50905874110E+03  0.25000000000E+03 0.  0.
    5000001    1    1    2    0    0 -0.14309871330E+03  0.36901896154E+03  0.20152706696E+02  0.46857055745E+03  0.25000000000E+03 0.  0.
<mgrwt>
<rscale>  0 0.96094968E+03</rscale>
<asrwt>0</asrwt>
<pdfrwt beam="1">  1        2 0.61370045E-01 0.96094968E+03</pdfrwt>
<pdfrwt beam="2">  1       -2 0.89034462E-01 0.96094968E+03</pdfrwt>
<totfact> 0.86501154E+01</totfact>
</mgrwt>
</event>
<event>
 4    1  0.1806019E-005  0.8545487E+03  0.7818608E-02  0.9484252E-01
         -2   -1    0    0    0  501 -0.00000000000E+00  0.00000000000E+00  0.26104562056E+03  0.26104562058E+03  0.25500000000E-02 0. -1.
          2   -1    0    0  501    0  0.00000000000E+00 -0.00000000000E+00 -0.69935428735E+03  0.69935428735E+03  0.25500000000E-02 0.  1.
   -5000001    1    1    2    0    0 -0.17037793400E+03  0.27307484370E+03 -0.36336399305E+03  0.54601456217E+03  0.25000000000E+03 0.  0.
    5000001    1    1    2    0    0  0.17037793400E+03 -0.27307484370E+03 -0.74944673734E+02  0.41438534576E+03  0.25000000000E+03 0.  0.
<mgrwt>
<rscale>  0 0.85454871E+03</rscale>
<asrwt>0</asrwt>
<pdfrwt beam="1">  1        2 0.10759297E+00 0.85454871E+03</pdfrwt>
<pdfrwt beam="2">  1       -2 0.40160865E-01 0.85454871E+03</pdfrwt>
<totfact> 0.24169923E+02</totfact>
</mgrwt>
</event>
<event>
 4    1  0.1806019E-005  0.8863382E+03  0.7818608E-02  0.9442822E-01
         -2   -1    0    0    0  501 -0.00000000000E+00  0.00000000000E+00  0.22275476147E+03  0.22275476148E+03  0.25500000000E-02 0.  1.
          2   -1    0    0  501    0  0.00000000000E+00 -0.00000000000E+00 -0.88168185345E+03  0.88168185345E+03  0.25500000000E-02 0. -1.
   -5000001    1    1    2    0    0 -0.95006338738E+02 -0.32896930626E+03 -0.49025843216E+03  0.64815147857E+03  0.25000000000E+03 0.  0.
    5000001    1    1    2    0    0  0.95006338738E+02  0.32896930626E+03 -0.16866865982E+03  0.45628513637E+03  0.25000000000E+03 0.  0.
<mgrwt>
<rscale>  0 0.88633815E+03</rscale>
<asrwt>0</asrwt>
<pdfrwt beam="1">  1        2 0.13564336E+00 0.88633815E+03</pdfrwt>
<pdfrwt beam="2">  1       -2 0.34269964E-01 0.88633815E+03</pdfrwt>
<totfact> 0.24118740E+02</totfact>
</mgrwt>
</event>
<event>
 4    1  0.1806019E-005  0.6441005E+03  0.7818608E-02  0.9817913E-01
          2   -1    0    0  501    0  0.00000000000E+00  0.00000000000E+00  0.32029264731E+03  0.32029264732E+03  0.25500000000E-02 0.  1.
         -2   -1    0    0    0  501 -0.00000000000E+00 -0.00000000000E+00 -0.32381752477E+03  0.32381752478E+03  0.25500000000E-02 0. -1.
   -5000001    1    1    2    0    0  0.12039465188E+03 -0.16310225216E+03  0.91535572065E+01  0.32199534852E+03  0.25000000000E+03 0.  0.
    5000001    1    1    2    0    0 -0.12039465188E+03  0.16310225216E+03 -0.12678434665E+02  0.32211482357E+03  0.25000000000E+03 0.  0.
<mgrwt>
<rscale>  0 0.64410053E+03</rscale>
<asrwt>0</asrwt>
<pdfrwt beam="1">  1        2 0.49275792E-01 0.64410053E+03</pdfrwt>
<pdfrwt beam="2">  1       -2 0.49818081E-01 0.64410053E+03</pdfrwt>
<totfact> 0.39270735E+02</totfact>
</mgrwt>
</event>
<event>
 4    1  0.1806019E-005  0.6334097E+03  0.7818608E-02  0.9838418E-01
          2   -1    0    0  501    0  0.00000000000E+00  0.00000000000E+00  0.14190704984E+03  0.14190704987E+03  0.25500000000E-02 0.  1.
         -2   -1    0    0    0  501 -0.00000000000E+00 -0.00000000000E+00 -0.70681440026E+03  0.70681440026E+03  0.25500000000E-02 0. -1.
   -5000001    1    1    2    0    0  0.94123538511E+02  0.16891257551E+03 -0.25528101057E+03  0.40627465220E+03  0.25000000000E+03 0.  0.
    5000001    1    1    2    0    0 -0.94123538511E+02 -0.16891257551E+03 -0.30962633985E+03  0.44244679792E+03  0.25000000000E+03 0.  0.
<mgrwt>
<rscale>  0 0.63340965E+03</rscale>
<asrwt>0</asrwt>
<pdfrwt beam="1">  1        2 0.21831854E-01 0.63340965E+03</pdfrwt>
<pdfrwt beam="2">  1       -2 0.10874067E+00 0.63340965E+03</pdfrwt>
<totfact> 0.17534422E+02</totfact>
</mgrwt>
</event>
<event>
 4    1  0.1806019E-005  0.7835297E+03  0.7818608E-02  0.9584168E-01
          2   -1    0    0  501    0  0.00000000000E+00  0.00000000000E+00  0.46795762158E+03  0.46795762159E+03  0.25500000000E-02 0. -1.
         -2   -1    0    0    0  501 -0.00000000000E+00 -0.00000000000E+00 -0.32797773307E+03  0.32797773308E+03  0.25500000000E-02 0.  1.
   -5000001    1    1    2    0    0  0.65238842779E+01  0.29820979693E+03  0.24469332569E+02  0.38996203955E+03  0.25000000000E+03 0.  0.
    5000001    1    1    2    0    0 -0.65238842779E+01 -0.29820979693E+03  0.11551055594E+03  0.40597331512E+03  0.25000000000E+03 0.  0.
<mgrwt>
<rscale>  0 0.78352965E+03</rscale>
<asrwt>0</asrwt>
<pdfrwt beam="1">  1        2 0.71993480E-01 0.78352965E+03</pdfrwt>
<pdfrwt beam="2">  1       -2 0.50458113E-01 0.78352965E+03</pdfrwt>
<totfact> 0.24884369E+02</totfact>
</mgrwt>
</event>
<event>
 4    1  0.1806019E-005  0.5536869E+03  0.7818608E-02  0.1000644E+00
          2   -1    0    0  501    0  0.00000000000E+00  0.00000000000E+00  0.16377248985E+04  0.16377248985E+04  0.25500000000E-02 0. -1.
         -2   -1    0    0    0  501 -0.00000000000E+00 -0.00000000000E+00 -0.46798027270E+02  0.46798027340E+02  0.25500000000E-02 0.  1.
   -5000001    1    1    2    0    0 -0.10952885399E+03  0.92107165610E+01  0.93357810541E+03  0.97270215691E+03  0.25000000000E+03 0.  0.
    5000001    1    1    2    0    0  0.10952885399E+03 -0.92107165610E+01  0.65734876582E+03  0.71182076893E+03  0.25000000000E+03 0.  0.
<mgrwt>
<rscale>  0 0.55368690E+03</rscale>
<asrwt>0</asrwt>
<pdfrwt beam="1">  1        2 0.25195771E+00 0.55368690E+03</pdfrwt>
<pdfrwt beam="2">  1       -2 0.71996955E-02 0.55368690E+03</pdfrwt>
<totfact> 0.12656597E+03</totfact>
</mgrwt>
</event>
<event>
 4    1  0.1806019E-005  0.1645274E+04  0.7818608E-02  0.8793207E-01
          2   -1    0    0  501    0  0.00000000000E+00  0.00000000000E+00  0.33977478510E+04  0.33977478510E+04  0.25500000000E-02 0.  1.
         -2   -1    0    0    0  501 -0.00000000000E+00 -0.00000000000E+00 -0.19917061744E+03  0.19917061746E+03  0.25500000000E-02 0. -1.
   -5000001    1    1    2    0    0 -0.54812950230E+03  0.48608358836E+03  0.22079371551E+04  0.23397029057E+04  0.25000000000E+03 0.  0.
    5000001    1    1    2    0    0  0.54812950230E+03 -0.48608358836E+03  0.99064007846E+03  0.12572155627E+04  0.25000000000E+03 0.  0.
<mgrwt>
<rscale>  0 0.16452739E+04</rscale>
<asrwt>0</asrwt>
<pdfrwt beam="1">  1        2 0.52273044E+00 0.16452739E+04</pdfrwt>
<pdfrwt beam="2">  1       -2 0.30641633E-01 0.16452739E+04</pdfrwt>
<totfact> 0.90992789E+00</totfact>
</mgrwt>
</event>
<event>
 4    1  0.1806019E-005  0.7383530E+03  0.7818608E-02  0.9653802E-01
         -2   -1    0    0    0  501 -0.00000000000E+00  0.00000000000E+00  0.59750430947E+03  0.59750430948E+03  0.25500000000E-02 0. -1.
          2   -1    0    0  501    0  0.00000000000E+00 -0.00000000000E+00 -0.22810093332E+03  0.22810093333E+03  0.25500000000E-02 0.  1.
   -5000001    1    1    2    0    0 -0.24541137520E+03 -0.10975419867E+03  0.22827543101E+03  0.43229897017E+03  0.25000000000E+03 0.  0.
    5000001    1    1    2    0    0  0.24541137520E+03  0.10975419867E+03  0.14112794514E+03  0.39330627264E+03  0.25000000000E+03 0.  0.
<mgrwt>
<rscale>  0 0.73835301E+03</rscale>
<asrwt>0</asrwt>
<pdfrwt beam="1">  1        2 0.35092452E-01 0.73835301E+03</pdfrwt>
<pdfrwt beam="2">  1       -2 0.91923738E-01 0.73835301E+03</pdfrwt>
<totfact> 0.15145613E+02</totfact>
</mgrwt>
</event>
<event>
 4    1  0.1806019E-005  0.9708048E+03  0.7818608E-02  0.9341158E-01
         -2   -1    0    0    0  501 -0.00000000000E+00  0.00000000000E+00  0.25167885141E+03  0.25167885143E+03  0.25500000000E-02 0. -1.
          2   -1    0    0  501    0  0.00000000000E+00 -0.00000000000E+00 -0.93617519527E+03  0.93617519527E+03  0.25500000000E-02 0.  1.
   -5000001    1    1    2    0    0 -0.23968595844E+03 -0.16429488696E+03 -0.70660563257E+03  0.80388661422E+03  0.25000000000E+03 0.  0.
    5000001    1    1    2    0    0  0.23968595844E+03  0.16429488696E+03  0.22109288710E+02  0.38396743248E+03  0.25000000000E+03 0.  0.
<mgrwt>
<rscale>  0 0.97080482E+03</rscale>
<asrwt>0</asrwt>
<pdfrwt beam="1">  1        2 0.14402695E+00 0.97080482E+03</pdfrwt>
<pdfrwt beam="2">  1       -2 0.38719824E-01 0.97080482E+03</pdfrwt>
<totfact> 0.17455863E+02</totfact>
</mgrwt>
</event>
<event>
 4    1  0.1806019E-005  0.5590075E+03  0.7818608E-02  0.9994303E-01
          2   -1    0    0  501    0  0.00000000000E+00  0.00000000000E+00  0.24249697013E+04  0.24249697013E+04  0.25500000000E-02 0.  1.
         -2   -1    0    0    0  501 -0.00000000000E+00 -0.00000000000E+00 -0.32215806847E+02  0.32215806948E+02  0.25500000000E-02 0. -1.
   -5000001    1    1    2    0    0  0.29241284912E+02  0.11445169012E+03  0.10168485781E+04  0.10537719264E+04  0.25000000000E+03 0.  0.
    5000001    1    1    2    0    0 -0.29241284912E+02 -0.11445169012E+03  0.13759053164E+04  0.14034135819E+04  0.25000000000E+03 0.  0.
<mgrwt>
<rscale>  0 0.55900753E+03</rscale>
<asrwt>0</asrwt>
<pdfrwt beam="1">  1        2 0.37307227E+00 0.55900753E+03</pdfrwt>
<pdfrwt beam="2">  1       -2 0.49562778E-02 0.55900753E+03</pdfrwt>
<totfact> 0.84620780E+02</totfact>
</mgrwt>
</event>
<event>
 4    1  0.1806019E-005  0.6951474E+03  0.7818608E-02  0.9725567E-01
         -2   -1    0    0    0  501 -0.00000000000E+00  0.00000000000E+00  0.75960879051E+02  0.75960879093E+02  0.25500000000E-02 0. -1.
          2   -1    0    0  501    0  0.00000000000E+00 -0.00000000000E+00 -0.15903907898E+04  0.15903907898E+04  0.25500000000E-02 0.  1.
   -5000001    1    1    2    0    0 -0.15320209661E+03  0.18662306156E+03 -0.75025382856E+03  0.82684935556E+03  0.25000000000E+03 0.  0.
    5000001    1    1    2    0    0  0.15320209661E+03 -0.18662306156E+03 -0.76417608217E+03  0.83950231333E+03  0.25000000000E+03 0.  0.
<mgrwt>
<rscale>  0 0.69514742E+03</rscale>
<asrwt>0</asrwt>
<pdfrwt beam="1">  1        2 0.24467548E+00 0.69514742E+03</pdfrwt>
<pdfrwt beam="2">  1       -2 0.11686290E-01 0.69514742E+03</pdfrwt>
<totfact> 0.61062877E+02</totfact>
</mgrwt>
</event>
<event>
 4    1  0.1806019E-005  0.5657885E+03  0.7818608E-02  0.9979042E-01
          2   -1    0    0  501    0  0.00000000000E+00  0.00000000000E+00  0.28325647144E+03  0.28325647145E+03  0.25500000000E-02 0.  1.
         -2   -1    0    0    0  501 -0.00000000000E+00 -0.00000000000E+00 -0.28253249715E+03  0.28253249717E+03  0.25500000000E-02 0. -1.
   -5000001    1    1    2    0    0  0.18822547252E+02 -0.11578884641E+03  0.61744551025E+02  0.28297302843E+03  0.25000000000E+03 0.  0.
    5000001    1    1    2    0    0 -0.18822547252E+02  0.11578884641E+03 -0.61020576739E+02  0.28281594019E+03  0.25000000000E+03 0.  0.
<mgrwt>
<rscale>  0 0.56578851E+03</rscale>
<asrwt>0</asrwt>
<pdfrwt beam="1">  1        2 0.43577919E-01 0.56578851E+03</pdfrwt>
<pdfrwt beam="2">  1       -2 0.43466538E-01 0.56578851E+03</pdfrwt>
<totfact> 0.59169524E+02</totfact>
</mgrwt>
</event>
<event>
 4    1  0.1806019E-005  0.1268017E+04  0.7818608E-02  0.9055319E-01
          2   -1    0    0  501    0  0.00000000000E+00  0.00000000000E+00  0.75445086960E+03  0.75445086961E+03  0.25500000000E-02 0.  1.
         -2   -1    0    0    0  501 -0.00000000000E+00 -0.00000000000E+00 -0.53279421567E+03  0.53279421567E+03  0.25500000000E-02 0. -1.
   -5000001    1    1    2    0    0  0.21576540066E+03 -0.43916481960E+03  0.43192603705E+03  0.69891383473E+03  0.25000000000E+03 0.  0.
    5000001    1    1    2    0    0 -0.21576540066E+03  0.43916481960E+03 -0.21026938312E+03  0.58833125055E+03  0.25000000000E+03 0.  0.
<mgrwt>
<rscale>  0 0.12680174E+04</rscale>
<asrwt>0</asrwt>
<pdfrwt beam="1">  1        2 0.11606936E+00 0.12680174E+04</pdfrwt>
<pdfrwt beam="2">  1       -2 0.81968341E-01 0.12680174E+04</pdfrwt>
<totfact> 0.47852442E+01</totfact>
</mgrwt>
</event>
<event>
 4    1  0.1806019E-005  0.8281065E+03  0.7818608E-02  0.9520202E-01
         -2   -1    0    0    0  501 -0.00000000000E+00  0.00000000000E+00  0.26117633498E+03  0.26117633500E+03  0.25500000000E-02 0. -1.
          2   -1    0    0  501    0  0.00000000000E+00 -0.00000000000E+00 -0.65641509599E+03  0.65641509599E+03  0.25500000000E-02 0.  1.
   -5000001    1    1    2    0    0 -0.18881193273E+03 -0.17803257107E+03  0.28366528197E+02  0.36145567118E+03  0.25000000000E+03 0.  0.
    5000001    1    1    2    0    0  0.18881193273E+03  0.17803257107E+03 -0.42360528920E+03  0.55613575981E+03  0.25000000000E+03 0.  0.
<mgrwt>
<rscale>  0 0.82810649E+03</rscale>
<asrwt>0</asrwt>
<pdfrwt beam="1">  1        2 0.10098694E+00 0.82810649E+03</pdfrwt>
<pdfrwt beam="2">  1       -2 0.40180975E-01 0.82810649E+03</pdfrwt>
<totfact> 0.26170038E+02</totfact>
</mgrwt>
</event>
<event>
 4    1  0.1806019E-005  0.7004392E+03  0.7818608E-02  0.9716481E-01
         -2   -1    0    0    0  501 -0.00000000000E+00  0.00000000000E+00  0.87486392742E+02  0.87486392779E+02  0.25500000000E-02 0. -1.
          2   -1    0    0  501    0  0.00000000000E+00 -0.00000000000E+00 -0.14019754001E+04  0.14019754002E+04  0.25500000000E-02 0.  1.
   -5000001    1    1    2    0    0 -0.10732556227E+03  0.21240976872E+03 -0.53113427564E+03  0.63343532024E+03  0.25000000000E+03 0.  0.
    5000001    1    1    2    0    0  0.10732556227E+03 -0.21240976872E+03 -0.78335473177E+03  0.85602647269E+03  0.25000000000E+03 0.  0.
<mgrwt>
<rscale>  0 0.70043921E+03</rscale>
<asrwt>0</asrwt>
<pdfrwt beam="1">  1        2 0.21568851E+00 0.70043921E+03</pdfrwt>
<pdfrwt beam="2">  1       -2 0.13459446E-01 0.70043921E+03</pdfrwt>
<totfact> 0.61471197E+02</totfact>
</mgrwt>
</event>
<event>
 4    1  0.1806019E-005  0.1775355E+04  0.7818608E-02  0.8719516E-01
          2   -1    0    0  501    0  0.00000000000E+00  0.00000000000E+00  0.16153499778E+04  0.16153499778E+04  0.25500000000E-02 0.  1.
         -2   -1    0    0    0  501 -0.00000000000E+00 -0.00000000000E+00 -0.48780208869E+03  0.48780208870E+03  0.25500000000E-02 0. -1.
   -5000001    1    1    2    0    0  0.61592024244E+03 -0.52669270311E+03  0.87429399431E+03  0.12180529287E+04  0.25000000000E+03 0.  0.
    5000001    1    1    2    0    0 -0.61592024244E+03  0.52669270311E+03  0.25325389481E+03  0.88509913784E+03  0.25000000000E+03 0.  0.
<mgrwt>
<rscale>  0 0.17753547E+04</rscale>
<asrwt>0</asrwt>
<pdfrwt beam="1">  1        2 0.24851538E+00 0.17753547E+04</pdfrwt>
<pdfrwt beam="2">  1       -2 0.75046476E-01 0.17753547E+04</pdfrwt>
<totfact> 0.16490618E+01</totfact>
</mgrwt>
</event>
<event>
 4    1  0.1806019E-005  0.7036062E+03  0.7818608E-02  0.9711085E-01
          2   -1    0    0  501    0  0.00000000000E+00  0.00000000000E+00  0.23806581238E+04  0.23806581238E+04  0.25500000000E-02 0.  1.
         -2   -1    0    0    0  501 -0.00000000000E+00 -0.00000000000E+00 -0.51987908205E+02  0.51987908268E+02  0.25500000000E-02 0. -1.
   -5000001    1    1    2    0    0 -0.70357217453E+02 -0.18716279482E+03  0.16687524442E+04  0.16991806172E+04  0.25000000000E+03 0.  0.
    5000001    1    1    2    0    0  0.70357217453E+02  0.18716279482E+03  0.65991777132E+03  0.73346541481E+03  0.25000000000E+03 0.  0.
<mgrwt>
<rscale>  0 0.70360624E+03</rscale>
<asrwt>0</asrwt>
<pdfrwt beam="1">  1        2 0.36625502E+00 0.70360624E+03</pdfrwt>
<pdfrwt beam="2">  1       -2 0.79981414E-02 0.70360624E+03</pdfrwt>
<totfact> 0.41681175E+02</totfact>
</mgrwt>
</event>
<event>
 4    1  0.1806019E-005  0.6083722E+03  0.7818608E-02  0.9888187E-01
          2   -1    0    0  501    0  0.00000000000E+00  0.00000000000E+00  0.53220125294E+03  0.53220125295E+03  0.25500000000E-02 0.  1.
         -2   -1    0    0    0  501 -0.00000000000E+00 -0.00000000000E+00 -0.17386124902E+03  0.17386124903E+03  0.25500000000E-02 0. -1.
   -5000001    1    1    2    0    0  0.37944499689E+02 -0.16869803447E+03  0.19242105675E+03  0.35975641061E+03  0.25000000000E+03 0.  0.
    5000001    1    1    2    0    0 -0.37944499689E+02  0.16869803447E+03  0.16591894717E+03  0.34630609137E+03  0.25000000000E+03 0.  0.
<mgrwt>
<rscale>  0 0.60837217E+03</rscale>
<asrwt>0</asrwt>
<pdfrwt beam="1">  1        2 0.81877114E-01 0.60837217E+03</pdfrwt>
<pdfrwt beam="2">  1       -2 0.26747885E-01 0.60837217E+03</pdfrwt>
<totfact> 0.72918755E+02</totfact>
</mgrwt>
</event>
<event>
 4    1  0.1806019E-005  0.1388226E+04  0.7818608E-02  0.8962386E-01
          2   -1    0    0  501    0  0.00000000000E+00  0.00000000000E+00  0.79844578788E+03  0.79844578789E+03  0.25500000000E-02 0.  1.
         -2   -1    0    0    0  501 -0.00000000000E+00 -0.00000000000E+00 -0.60341319447E+03  0.60341319447E+03  0.25500000000E-02 0. -1.
   -5000001    1    1    2    0    0  0.50869923950E+03  0.12600010127E+03 -0.28653664515E+03  0.64749840988E+03  0.25000000000E+03 0.  0.
    5000001    1    1    2    0    0 -0.50869923950E+03 -0.12600010127E+03  0.48156923856E+03  0.75436057248E+03  0.25000000000E+03 0.  0.
<mgrwt>
<rscale>  0 0.13882258E+04</rscale>
<asrwt>0</asrwt>
<pdfrwt beam="1">  1        2 0.12283781E+00 0.13882258E+04</pdfrwt>
<pdfrwt beam="2">  1       -2 0.92832799E-01 0.13882258E+04</pdfrwt>
<totfact> 0.33099105E+01</totfact>
</mgrwt>
</event>
<event>
 4    1  0.1806019E-005  0.7584103E+03  0.7818608E-02  0.9622247E-01
         -2   -1    0    0    0  501 -0.00000000000E+00  0.00000000000E+00  0.85108127210E+02  0.85108127248E+02  0.25500000000E-02 0. -1.
          2   -1    0    0  501    0  0.00000000000E+00 -0.00000000000E+00 -0.16895749384E+04  0.16895749384E+04  0.25500000000E-02 0.  1.
   -5000001    1    1    2    0    0 -0.24385103135E+03 -0.14178909106E+03 -0.70493068475E+03  0.79937146693E+03  0.25000000000E+03 0.  0.
    5000001    1    1    2    0    0  0.24385103135E+03  0.14178909106E+03 -0.89953612646E+03  0.97531159874E+03  0.25000000000E+03 0.  0.
<mgrwt>
<rscale>  0 0.75841033E+03</rscale>
<asrwt>0</asrwt>
<pdfrwt beam="1">  1        2 0.25993458E+00 0.75841033E+03</pdfrwt>
<pdfrwt beam="2">  1       -2 0.13093559E-01 0.75841033E+03</pdfrwt>
<totfact> 0.44447651E+02</totfact>
</mgrwt>
</event>
<event>
 4    1  0.1806019E-005  0.9837924E+03  0.7818608E-02  0.9326502E-01
          2   -1    0    0  501    0  0.00000000000E+00  0.00000000000E+00  0.19131955392E+04  0.19131955392E+04  0.25500000000E-02 0.  1.
         -2   -1    0    0    0  501 -0.00000000000E+00 -0.00000000000E+00 -0.12647000914E+03  0.12647000917E+03  0.25500000000E-02 0. -1.
   -5000001    1    1    2    0    0  0.38001613018E+03 -0.12561166197E+03  0.60554929719E+03  0.76771120882E+03  0.25000000000E+03 0.  0.
    5000001    1    1    2    0    0 -0.38001613018E+03  0.12561166197E+03  0.11811762328E+04  0.12719543395E+04  0.25000000000E+03 0.  0.
<mgrwt>
<rscale>  0 0.98379237E+03</rscale>
<asrwt>0</asrwt>
<pdfrwt beam="1">  1        2 0.29433776E+00 0.98379237E+03</pdfrwt>
<pdfrwt beam="2">  1       -2 0.19456926E-01 0.98379237E+03</pdfrwt>
<totfact> 0.16784877E+02</totfact>
</mgrwt>
</event>
<event>
 4    1  0.1806019E-005  0.5294482E+03  0.7818608E-02  0.1006366E+00
         -2   -1    0    0    0  501 -0.00000000000E+00  0.00000000000E+00  0.79366567010E+02  0.79366567051E+02  0.25500000000E-02 0. -1.
          2   -1    0    0  501    0  0.00000000000E+00 -0.00000000000E+00 -0.88297685038E+03  0.88297685038E+03  0.25500000000E-02 0.  1.
   -5000001    1    1    2    0    0  0.19766022444E+02  0.73876513110E+02 -0.32619488657E+03  0.41803293992E+03  0.25000000000E+03 0.  0.
    5000001    1    1    2    0    0 -0.19766022444E+02 -0.73876513110E+02 -0.47741539680E+03  0.54431047752E+03  0.25000000000E+03 0.  0.
<mgrwt>
<rscale>  0 0.52944817E+03</rscale>
<asrwt>0</asrwt>
<pdfrwt beam="1">  1        2 0.13584259E+00 0.52944817E+03</pdfrwt>
<pdfrwt beam="2">  1       -2 0.12210242E-01 0.52944817E+03</pdfrwt>
<totfact> 0.14966742E+03</totfact>
</mgrwt>
</event>
<event>
 4    1  0.1806019E-005  0.1542084E+04  0.7818608E-02  0.8856940E-01
         -2   -1    0    0    0  501 -0.00000000000E+00  0.00000000000E+00  0.58112647071E+03  0.58112647071E+03  0.25500000000E-02 0. -1.
          2   -1    0    0  501    0  0.00000000000E+00 -0.00000000000E+00 -0.10230230948E+04  0.10230230948E+04  0.25500000000E-02 0.  1.
   -5000001    1    1    2    0    0  0.30185938624E+03  0.46322969905E+03  0.27391339392E+03  0.66575475253E+03  0.25000000000E+03 0.  0.
    5000001    1    1    2    0    0 -0.30185938624E+03 -0.46322969905E+03 -0.71581001797E+03  0.93839481295E+03  0.25000000000E+03 0.  0.
<mgrwt>
<rscale>  0 0.15420840E+04</rscale>
<asrwt>0</asrwt>
<pdfrwt beam="1">  1        2 0.15738817E+00 0.15420840E+04</pdfrwt>
<pdfrwt beam="2">  1       -2 0.89404072E-01 0.15420840E+04</pdfrwt>
<totfact> 0.25171381E+01</totfact>
</mgrwt>
</event>
<event>
 4    1  0.1806019E-005  0.5724934E+03  0.7818608E-02  0.9964176E-01
         -2   -1    0    0    0  501 -0.00000000000E+00  0.00000000000E+00  0.61557573798E+03  0.61557573799E+03  0.25500000000E-02 0. -1.
          2   -1    0    0  501    0  0.00000000000E+00 -0.00000000000E+00 -0.13310654459E+03  0.13310654462E+03  0.25500000000E-02 0.  1.
   -5000001    1    1    2    0    0 -0.32629267700E+02  0.83917420675E+02  0.10203149835E+03  0.28463525653E+03  0.25000000000E+03 0.  0.
    5000001    1    1    2    0    0  0.32629267700E+02 -0.83917420675E+02  0.38043769504E+03  0.46404702607E+03  0.25000000000E+03 0.  0.
<mgrwt>
<rscale>  0 0.57249335E+03</rscale>
<asrwt>0</asrwt>
<pdfrwt beam="1">  1        2 0.20477930E-01 0.57249335E+03</pdfrwt>
<pdfrwt beam="2">  1       -2 0.94703960E-01 0.57249335E+03</pdfrwt>
<totfact> 0.26255145E+02</totfact>
</mgrwt>
</event>
<event>
 4    1  0.1806019E-005  0.6110807E+03  0.7818608E-02  0.9882680E-01
         -2   -1    0    0    0  501 -0.00000000000E+00  0.00000000000E+00  0.20569984298E+03  0.20569984299E+03  0.25500000000E-02 0. -1.
          2   -1    0    0  501    0  0.00000000000E+00 -0.00000000000E+00 -0.45384050513E+03  0.45384050514E+03  0.25500000000E-02 0.  1.
   -5000001    1    1    2    0    0  0.16013419950E+03  0.59948130928E+02 -0.80653688687E+02  0.31343541241E+03  0.25000000000E+03 0.  0.
    5000001    1    1    2    0    0 -0.16013419950E+03 -0.59948130928E+02 -0.16748697347E+03  0.34610493573E+03  0.25000000000E+03 0.  0.
<mgrwt>
<rscale>  0 0.61108075E+03</rscale>
<asrwt>0</asrwt>
<pdfrwt beam="1">  1        2 0.69821616E-01 0.61108075E+03</pdfrwt>
<pdfrwt beam="2">  1       -2 0.31646130E-01 0.61108075E+03</pdfrwt>
<totfact> 0.64272123E+02</totfact>
</mgrwt>
</event>
<event>
 4    1  0.1806019E-005  0.8736448E+03  0.7818608E-02  0.9459140E-01
          2   -1    0    0  501    0  0.00000000000E+00  0.00000000000E+00  0.17733032840E+04  0.17733032840E+04  0.25500000000E-02 0.  1.
         -2   -1    0    0    0  501 -0.00000000000E+00 -0.00000000000E+00 -0.10760360653E+03  0.10760360656E+03  0.25500000000E-02 0. -1.
   -5000001    1    1    2    0    0  0.70201628470E+02 -0.34281193947E+03  0.66796293198E+03  0.79443235897E+03  0.25000000000E+03 0.  0.
    5000001    1    1    2    0    0 -0.70201628470E+02  0.34281193947E+03  0.99773674551E+03  0.10864745316E+04  0.25000000000E+03 0.  0.
<mgrwt>
<rscale>  0 0.87364485E+03</rscale>
<asrwt>0</asrwt>
<pdfrwt beam="1">  1        2 0.27281588E+00 0.87364485E+03</pdfrwt>
<pdfrwt beam="2">  1       -2 0.16554402E-01 0.87364485E+03</pdfrwt>
<totfact> 0.26699289E+02</totfact>
</mgrwt>
</event>
<event>
 4    1  0.1806019E-005  0.5796445E+03  0.7818608E-02  0.9948561E-01
         -2   -1    0    0    0  501 -0.00000000000E+00  0.00000000000E+00  0.23799319767E+03  0.23799319768E+03  0.25500000000E-02 0. -1.
          2   -1    0    0  501    0  0.00000000000E+00 -0.00000000000E+00 -0.35293836378E+03  0.35293836379E+03  0.25500000000E-02 0.  1.
   -5000001    1    1    2    0    0  0.65802285766E+02  0.54678721767E+02 -0.17885928757E+03  0.31907733887E+03  0.25000000000E+03 0.  0.
    5000001    1    1    2    0    0 -0.65802285766E+02 -0.54678721767E+02  0.63914121460E+02  0.27185422260E+03  0.25000000000E+03 0.  0.
<mgrwt>
<rscale>  0 0.57964448E+03</rscale>
<asrwt>0</asrwt>
<pdfrwt beam="1">  1        2 0.54298210E-01 0.57964448E+03</pdfrwt>
<pdfrwt beam="2">  1       -2 0.36614338E-01 0.57964448E+03</pdfrwt>
<totfact> 0.64717674E+02</totfact>
</mgrwt>
</event>
<event>
 4    1  0.1806019E-005  0.6437667E+03  0.7818608E-02  0.9818546E-01
          2   -1    0    0  501    0  0.00000000000E+00  0.00000000000E+00  0.13607019662E+04  0.13607019662E+04  0.25500000000E-02 0.  1.
         -2   -1    0    0    0  501 -0.00000000000E+00 -0.00000000000E+00 -0.76143704827E+02  0.76143704870E+02  0.25500000000E-02 0. -1.
   -5000001    1    1    2    0    0 -0.15292332614E+03 -0.11972103652E+03  0.51232338853E+03  0.60224075311E+03  0.25000000000E+03 0.  0.
    5000001    1    1    2    0    0  0.15292332614E+03  0.11972103652E+03  0.77223487283E+03  0.83460491795E+03  0.25000000000E+03 0.  0.
<mgrwt>
<rscale>  0 0.64376669E+03</rscale>
<asrwt>0</asrwt>
<pdfrwt beam="1">  1        2 0.20933875E+00 0.64376669E+03</pdfrwt>
<pdfrwt beam="2">  1       -2 0.11714417E-01 0.64376669E+03</pdfrwt>
<totfact> 0.81873669E+02</totfact>
</mgrwt>
</event>
<event>
 4    1  0.1806019E-005  0.6589375E+03  0.7818608E-02  0.9790152E-01
         -2   -1    0    0    0  501 -0.00000000000E+00  0.00000000000E+00  0.10582277214E+03  0.10582277217E+03  0.25500000000E-02 0. -1.
          2   -1    0    0  501    0  0.00000000000E+00 -0.00000000000E+00 -0.10257683536E+04  0.10257683536E+04  0.25500000000E-02 0.  1.
   -5000001    1    1    2    0    0  0.15064000560E+03 -0.12935363271E+02 -0.72148676957E+03  0.77839764489E+03  0.25000000000E+03 0.  0.
    5000001    1    1    2    0    0 -0.15064000560E+03  0.12935363271E+02 -0.19845881186E+03  0.35319348085E+03  0.25000000000E+03 0.  0.
<mgrwt>
<rscale>  0 0.65893748E+03</rscale>
<asrwt>0</asrwt>
<pdfrwt beam="1">  1        2 0.15781051E+00 0.65893748E+03</pdfrwt>
<pdfrwt beam="2">  1       -2 0.16280427E-01 0.65893748E+03</pdfrwt>
<totfact> 0.74492925E+02</totfact>
</mgrwt>
</event>
<event>
 4    1  0.1806019E-005  0.7415190E+03  0.7818608E-02  0.9648750E-01
          2   -1    0    0  501    0  0.00000000000E+00  0.00000000000E+00  0.62110112844E+03  0.62110112845E+03  0.25500000000E-02 0.  1.
         -2   -1    0    0    0  501 -0.00000000000E+00 -0.00000000000E+00 -0.22132079755E+03  0.22132079756E+03  0.25500000000E-02 0. -1.
   -5000001    1    1    2    0    0 -0.21687163473E+03 -0.82131510081E+02  0.34538578964E+02  0.34274159995E+03  0.25000000000E+03 0.  0.
    5000001    1    1    2    0    0  0.21687163473E+03  0.82131510081E+02  0.36524175193E+03  0.49968032606E+03  0.25000000000E+03 0.  0.
<mgrwt>
<rscale>  0 0.74151897E+03</rscale>
<asrwt>0</asrwt>
<pdfrwt beam="1">  1        2 0.95554018E-01 0.74151897E+03</pdfrwt>
<pdfrwt beam="2">  1       -2 0.34049354E-01 0.74151897E+03</pdfrwt>
<totfact> 0.38639789E+02</totfact>
</mgrwt>
</event>
<event>
 4    1  0.1806019E-005  0.5531343E+03  0.7818608E-02  0.1000771E+00
          2   -1    0    0  501    0  0.00000000000E+00  0.00000000000E+00  0.10674517753E+04  0.10674517753E+04  0.25500000000E-02 0.  1.
         -2   -1    0    0    0  501 -0.00000000000E+00 -0.00000000000E+00 -0.71656072800E+02  0.71656072845E+02  0.25500000000E-02 0. -1.
   -5000001    1    1    2    0    0 -0.64742597842E+02 -0.17910075116E+02  0.29741820704E+03  0.39429679766E+03  0.25000000000E+03 0.  0.
    5000001    1    1    2    0    0  0.64742597842E+02  0.17910075116E+02  0.69837749548E+03  0.74481105051E+03  0.25000000000E+03 0.  0.
<mgrwt>
<rscale>  0 0.55313435E+03</rscale>
<asrwt>0</asrwt>
<pdfrwt beam="1">  1        2 0.16422333E+00 0.55313435E+03</pdfrwt>
<pdfrwt beam="2">  1       -2 0.11024012E-01 0.55313435E+03</pdfrwt>
<totfact> 0.13479835E+03</totfact>
</mgrwt>
</event>
<event>
 4    1  0.1806019E-005  0.7199061E+03  0.7818608E-02  0.9683783E-01
          2   -1    0    0  501    0  0.00000000000E+00  0.00000000000E+00  0.37514105789E+03  0.37514105790E+03  0.25500000000E-02 0.  1.
         -2   -1    0    0    0  501 -0.00000000000E+00 -0.00000000000E+00 -0.34537993316E+03  0.34537993317E+03  0.25500000000E-02 0. -1.
   -5000001    1    1    2    0    0 -0.10620982980E+03  0.23407054200E+03 -0.16716118100E+02  0.35895539442E+03  0.25000000000E+03 0.  0.
    5000001    1    1    2    0    0  0.10620982980E+03 -0.23407054200E+03  0.46477242839E+02  0.36156559665E+03  0.25000000000E+03 0.  0.
<mgrwt>
<rscale>  0 0.71990609E+03</rscale>
<asrwt>0</asrwt>
<pdfrwt beam="1">  1        2 0.57714009E-01 0.71990609E+03</pdfrwt>
<pdfrwt beam="2">  1       -2 0.53135374E-01 0.71990609E+03</pdfrwt>
<totfact> 0.28809727E+02</totfact>
</mgrwt>
</event>
<event>
 4    1  0.1806019E-005  0.8686274E+03  0.7818608E-02  0.9465671E-01
         -2   -1    0    0    0  501 -0.00000000000E+00  0.00000000000E+00  0.20742032312E+03  0.20742032314E+03  0.25500000000E-02 0. -1.
          2   -1    0    0  501    0  0.00000000000E+00 -0.00000000000E+00 -0.90940171169E+03  0.90940171169E+03  0.25500000000E-02 0.  1.
   -5000001    1    1    2    0    0 -0.29781194322E+03  0.18716498856E+03 -0.28792805877E+03  0.51877283419E+03  0.25000000000E+03 0.  0.
    5000001    1    1    2    0    0  0.29781194322E+03 -0.18716498856E+03 -0.41405332979E+03  0.59804920064E+03  0.25000000000E+03 0.  0.
<mgrwt>
<rscale>  0 0.86862742E+03</rscale>
<asrwt>0</asrwt>
<pdfrwt beam="1">  1        2 0.13990795E+00 0.86862742E+03</pdfrwt>
<pdfrwt beam="2">  1       -2 0.31910820E-01 0.86862742E+03</pdfrwt>
<totfact> 0.26452203E+02</totfact>
</mgrwt>
</event>
<event>
 4    1  0.1806019E-005  0.1340880E+04  0.7818608E-02  0.8997761E-01
          2   -1    0    0  501    0  0.00000000000E+00  0.00000000000E+00  0.37429467020E+03  0.37429467021E+03  0.25500000000E-02 0.  1.
         -2   -1    0    0    0  501 -0.00000000000E+00 -0.00000000000E+00 -0.12008980649E+04  0.12008980649E+04  0.25500000000E-02 0. -1.
   -5000001    1    1    2    0    0  0.19016468314E+03  0.49336707457E+03 -0.28286000103E+02  0.58555424580E+03  0.25000000000E+03 0.  0.
    5000001    1    1    2    0    0 -0.19016468314E+03 -0.49336707457E+03 -0.79831739455E+03  0.98963848926E+03  0.25000000000E+03 0.  0.
<mgrwt>
<rscale>  0 0.13408799E+04</rscale>
<asrwt>0</asrwt>
<pdfrwt beam="1">  1        2 0.57583796E-01 0.13408799E+04</pdfrwt>
<pdfrwt beam="2">  1       -2 0.18475355E+00 0.13408799E+04</pdfrwt>
<totfact> 0.14072965E+01</totfact>
</mgrwt>
</event>
<event>
 4    1  0.1806019E-005  0.7007242E+03  0.7818608E-02  0.9715994E-01
          2   -1    0    0  501    0  0.00000000000E+00  0.00000000000E+00  0.74306585380E+03  0.74306585381E+03  0.25500000000E-02 0.  1.
         -2   -1    0    0    0  501 -0.00000000000E+00 -0.00000000000E+00 -0.16519882903E+03  0.16519882905E+03  0.25500000000E-02 0. -1.
   -5000001    1    1    2    0    0 -0.23891777366E+03 -0.84683700456E+00  0.21594132521E+03  0.40769237869E+03  0.25000000000E+03 0.  0.
    5000001    1    1    2    0    0  0.23891777366E+03  0.84683700456E+00  0.36192569956E+03  0.50057230417E+03  0.25000000000E+03 0.  0.
<mgrwt>
<rscale>  0 0.70072422E+03</rscale>
<asrwt>0</asrwt>
<pdfrwt beam="1">  1        2 0.11431782E+00 0.70072422E+03</pdfrwt>
<pdfrwt beam="2">  1       -2 0.25415205E-01 0.70072422E+03</pdfrwt>
<totfact> 0.53111225E+02</totfact>
</mgrwt>
</event>
<event>
 4    1  0.1806019E-005  0.6390617E+03  0.7818608E-02  0.9827523E-01
          2   -1    0    0  501    0  0.00000000000E+00  0.00000000000E+00  0.13071055660E+04  0.13071055660E+04  0.25500000000E-02 0.  1.
         -2   -1    0    0    0  501 -0.00000000000E+00 -0.00000000000E+00 -0.78111488084E+02  0.78111488126E+02  0.25500000000E-02 0. -1.
   -5000001    1    1    2    0    0 -0.16050890972E+03  0.11453919758E+03  0.67256321398E+03  0.74412607445E+03  0.25000000000E+03 0.  0.
    5000001    1    1    2    0    0  0.16050890972E+03 -0.11453919758E+03  0.55643086392E+03  0.64109097966E+03  0.25000000000E+03 0.  0.
<mgrwt>
<rscale>  0 0.63906169E+03</rscale>
<asrwt>0</asrwt>
<pdfrwt beam="1">  1        2 0.20109315E+00 0.63906169E+03</pdfrwt>
<pdfrwt beam="2">  1       -2 0.12017153E-01 0.63906169E+03</pdfrwt>
<totfact> 0.84234686E+02</totfact>
</mgrwt>
</event>
<event>
 4    1  0.1806019E-005  0.8446602E+03  0.7818608E-02  0.9497532E-01
         -2   -1    0    0    0  501 -0.00000000000E+00  0.00000000000E+00  0.31411806380E+03  0.31411806381E+03  0.25500000000E-02 0. -1.
          2   -1    0    0  501    0  0.00000000000E+00 -0.00000000000E+00 -0.56782057606E+03  0.56782057607E+03  0.25500000000E-02 0.  1.
   -5000001    1    1    2    0    0 -0.11831260240E+03 -0.23710614404E+03  0.96226034826E+02  0.37679788376E+03  0.25000000000E+03 0.  0.
    5000001    1    1    2    0    0  0.11831260240E+03  0.23710614404E+03 -0.34992854708E+03  0.50514075612E+03  0.25000000000E+03 0.  0.
<mgrwt>
<rscale>  0 0.84466017E+03</rscale>
<asrwt>0</asrwt>
<pdfrwt beam="1">  1        2 0.87357012E-01 0.84466017E+03</pdfrwt>
<pdfrwt beam="2">  1       -2 0.48325856E-01 0.84466017E+03</pdfrwt>
<totfact> 0.21613295E+02</totfact>
</mgrwt>
</event>
<event>
 4    1  0.1806019E-005  0.1100713E+04  0.7818608E-02  0.9204498E-01
          2   -1    0    0  501    0  0.00000000000E+00  0.00000000000E+00  0.80779045502E+03  0.80779045502E+03  0.25500000000E-02 0.  1.
         -2   -1    0    0    0  501 -0.00000000000E+00 -0.00000000000E+00 -0.37496364524E+03  0.37496364525E+03  0.25500000000E-02 0. -1.
   -5000001    1    1    2    0    0  0.31282571572E+03  0.37748163226E+03  0.22318745109E+03  0.59385600059E+03  0.25000000000E+03 0.  0.
    5000001    1    1    2    0    0 -0.31282571572E+03 -0.37748163226E+03  0.20963935869E+03  0.58889809969E+03  0.25000000000E+03 0.  0.
<mgrwt>
<rscale>  0 0.11007126E+04</rscale>
<asrwt>0</asrwt>
<pdfrwt beam="1">  1        2 0.12427545E+00 0.11007126E+04</pdfrwt>
<pdfrwt beam="2">  1       -2 0.57686716E-01 0.11007126E+04</pdfrwt>
<totfact> 0.95018560E+01</totfact>
</mgrwt>
</event>
<event>
 4    1  0.1806019E-005  0.6653982E+03  0.7818608E-02  0.9778307E-01
         -2   -1    0    0    0  501 -0.00000000000E+00  0.00000000000E+00  0.41756065639E+02  0.41756065717E+02  0.25500000000E-02 0. -1.
          2   -1    0    0  501    0  0.00000000000E+00 -0.00000000000E+00 -0.26508412821E+04  0.26508412821E+04  0.25500000000E-02 0.  1.
   -5000001    1    1    2    0    0 -0.33936845694E+02  0.14437892132E+03 -0.19594377688E+04  0.19808819632E+04  0.25000000000E+03 0.  0.
    5000001    1    1    2    0    0  0.33936845694E+02 -0.14437892132E+03 -0.64964744763E+03  0.71171538457E+03  0.25000000000E+03 0.  0.
<mgrwt>
<rscale>  0 0.66539823E+03</rscale>
<asrwt>0</asrwt>
<pdfrwt beam="1">  1        2 0.40782160E+00 0.66539823E+03</pdfrwt>
<pdfrwt beam="2">  1       -2 0.64240122E-02 0.66539823E+03</pdfrwt>
<totfact> 0.41633026E+02</totfact>
</mgrwt>
</event>
<event>
 4    1  0.1806019E-005  0.5871004E+03  0.7818608E-02  0.9932536E-01
         -2   -1    0    0    0  501 -0.00000000000E+00  0.00000000000E+00  0.82041939230E+02  0.82041939269E+02  0.25500000000E-02 0. -1.
          2   -1    0    0  501    0  0.00000000000E+00 -0.00000000000E+00 -0.10503373227E+04  0.10503373227E+04  0.25500000000E-02 0.  1.
   -5000001    1    1    2    0    0 -0.56694910103E+02  0.94497846899E+02 -0.27706292461E+03  0.38911183495E+03  0.25000000000E+03 0.  0.
    5000001    1    1    2    0    0  0.56694910103E+02 -0.94497846899E+02 -0.69123245886E+03  0.74326742703E+03  0.25000000000E+03 0.  0.
<mgrwt>
<rscale>  0 0.58710037E+03</rscale>
<asrwt>0</asrwt>
<pdfrwt beam="1">  1        2 0.16159035E+00 0.58710037E+03</pdfrwt>
<pdfrwt beam="2">  1       -2 0.12621838E-01 0.58710037E+03</pdfrwt>
<totfact> 0.11047938E+03</totfact>
</mgrwt>
</event>
<event>
 4    1  0.1806019E-005  0.7751663E+03  0.7818608E-02  0.9596675E-01
         -2   -1    0    0    0  501 -0.00000000000E+00  0.00000000000E+00  0.17785087052E+03  0.17785087054E+03  0.25500000000E-02 0. -1.
          2   -1    0    0  501    0  0.00000000000E+00 -0.00000000000E+00 -0.84464406405E+03  0.84464406405E+03  0.25500000000E-02 0.  1.
   -5000001    1    1    2    0    0  0.15476981494E+03  0.23125882970E+03 -0.46717830762E+03  0.59848969335E+03  0.25000000000E+03 0.  0.
    5000001    1    1    2    0    0 -0.15476981494E+03 -0.23125882970E+03 -0.19961488590E+03  0.42400524125E+03  0.25000000000E+03 0.  0.
<mgrwt>
<rscale>  0 0.77516626E+03</rscale>
<asrwt>0</asrwt>
<pdfrwt beam="1">  1        2 0.12994524E+00 0.77516626E+03</pdfrwt>
<pdfrwt beam="2">  1       -2 0.27361673E-01 0.77516626E+03</pdfrwt>
<totfact> 0.39114713E+02</totfact>
</mgrwt>
</event>
<event>
 4    1  0.1806019E-005  0.1014687E+04  0.7818608E-02  0.9292582E-01
         -2   -1    0    0    0  501 -0.00000000000E+00  0.00000000000E+00  0.39186120326E+03  0.39186120327E+03  0.25500000000E-02 0. -1.
          2   -1    0    0  501    0  0.00000000000E+00 -0.00000000000E+00 -0.65685824978E+03  0.65685824978E+03  0.25500000000E-02 0.  1.
   -5000001    1    1    2    0    0 -0.28192370591E+03  0.32019413324E+03 -0.15147305310E+02  0.49470668054E+03  0.25000000000E+03 0.  0.
    5000001    1    1    2    0    0  0.28192370591E+03 -0.32019413324E+03 -0.24984974121E+03  0.55401277251E+03  0.25000000000E+03 0.  0.
<mgrwt>
<rscale>  0 0.10146867E+04</rscale>
<asrwt>0</asrwt>
<pdfrwt beam="1">  1        2 0.10105511E+00 0.10146867E+04</pdfrwt>
<pdfrwt beam="2">  1       -2 0.60286339E-01 0.10146867E+04</pdfrwt>
<totfact> 0.11358219E+02</totfact>
</mgrwt>
</event>
<event>
 4    1  0.1806019E-005  0.2118600E+04  0.7818608E-02  0.8553094E-01
          2   -1    0    0  501    0  0.00000000000E+00  0.00000000000E+00  0.67868937278E+03  0.67868937279E+03  0.25500000000E-02 0.  1.
         -2   -1    0    0    0  501 -0.00000000000E+00 -0.00000000000E+00 -0.16533586126E+04  0.16533586126E+04  0.25500000000E-02 0. -1.
   -5000001    1    1    2    0    0 -0.26520310893E+03 -0.99381411047E+03 -0.44306116514E+03  0.11475200962E+04  0.25000000000E+03 0.  0.
    5000001    1    1    2    0    0  0.26520310893E+03  0.99381411047E+03 -0.53160807465E+03  0.11845278892E+04  0.25000000000E+03 0.  0.
<mgrwt>
<rscale>  0 0.21186004E+04</rscale>
<asrwt>0</asrwt>
<pdfrwt beam="1">  1        2 0.10441375E+00 0.21186004E+04</pdfrwt>
<pdfrwt beam="2">  1       -2 0.25436286E+00 0.21186004E+04</pdfrwt>
<totfact> 0.23679684E+00</totfact>
</mgrwt>
</event>
<event>
 4    1  0.1806019E-005  0.1035019E+04  0.7818608E-02  0.9270949E-01
          2   -1    0    0  501    0  0.00000000000E+00  0.00000000000E+00  0.10776007462E+04  0.10776007462E+04  0.25500000000E-02 0.  1.
         -2   -1    0    0    0  501 -0.00000000000E+00 -0.00000000000E+00 -0.24853017467E+03  0.24853017468E+03  0.25500000000E-02 0. -1.
   -5000001    1    1    2    0    0  0.44586475997E+03 -0.37518375047E+02  0.50615481848E+03  0.72034416283E+03  0.25000000000E+03 0.  0.
    5000001    1    1    2    0    0 -0.44586475997E+03  0.37518375047E+02  0.32291575303E+03  0.60578675803E+03  0.25000000000E+03 0.  0.
<mgrwt>
<rscale>  0 0.10350194E+04</rscale>
<asrwt>0</asrwt>
<pdfrwt beam="1">  1        2 0.16578473E+00 0.10350194E+04</pdfrwt>
<pdfrwt beam="2">  1       -2 0.38235411E-01 0.10350194E+04</pdfrwt>
<totfact> 0.14464524E+02</totfact>
</mgrwt>
</event>
<event>
 4    1  0.1806019E-005  0.1070752E+04  0.7818608E-02  0.9234177E-01
          2   -1    0    0  501    0  0.00000000000E+00  0.00000000000E+00  0.68696508376E+03  0.68696508376E+03  0.25500000000E-02 0.  1.
         -2   -1    0    0    0  501 -0.00000000000E+00 -0.00000000000E+00 -0.41723757006E+03  0.41723757007E+03  0.25500000000E-02 0. -1.
   -5000001    1    1    2    0    0 -0.14761861522E+03 -0.42899483589E+03 -0.46391105948E+01  0.51802446479E+03  0.25000000000E+03 0.  0.
    5000001    1    1    2    0    0  0.14761861522E+03  0.42899483589E+03  0.27436662430E+03  0.58617818904E+03  0.25000000000E+03 0.  0.
<mgrwt>
<rscale>  0 0.10707523E+04</rscale>
<asrwt>0</asrwt>
<pdfrwt beam="1">  1        2 0.10568693E+00 0.10707523E+04</pdfrwt>
<pdfrwt beam="2">  1       -2 0.64190396E-01 0.10707523E+04</pdfrwt>
<totfact> 0.93643914E+01</totfact>
</mgrwt>
</event>
<event>
 4    1  0.1806019E-005  0.5969328E+03  0.7818608E-02  0.9911790E-01
          2   -1    0    0  501    0  0.00000000000E+00  0.00000000000E+00  0.99173556130E+03  0.99173556131E+03  0.25500000000E-02 0.  1.
         -2   -1    0    0    0  501 -0.00000000000E+00 -0.00000000000E+00 -0.89824526432E+02  0.89824526468E+02  0.25500000000E-02 0. -1.
   -5000001    1    1    2    0    0 -0.14210808956E+03  0.20452478741E+02  0.31097035467E+03  0.42404666546E+03  0.25000000000E+03 0.  0.
    5000001    1    1    2    0    0  0.14210808956E+03 -0.20452478741E+02  0.59094068021E+03  0.65751342232E+03  0.25000000000E+03 0.  0.
<mgrwt>
<rscale>  0 0.59693275E+03</rscale>
<asrwt>0</asrwt>
<pdfrwt beam="1">  1        2 0.15257470E+00 0.59693275E+03</pdfrwt>
<pdfrwt beam="2">  1       -2 0.13819158E-01 0.59693275E+03</pdfrwt>
<totfact> 0.10338954E+03</totfact>
</mgrwt>
</event>
<event>
 4    1  0.1806019E-005  0.6903107E+03  0.7818608E-02  0.9733947E-01
         -2   -1    0    0    0  501 -0.00000000000E+00  0.00000000000E+00  0.12149580451E+03  0.12149580454E+03  0.25500000000E-02 0. -1.
          2   -1    0    0  501    0  0.00000000000E+00 -0.00000000000E+00 -0.98054605285E+03  0.98054605285E+03  0.25500000000E-02 0.  1.
   -5000001    1    1    2    0    0 -0.72532696159E+02 -0.17029637454E+03 -0.19074939551E+03  0.36489338043E+03  0.25000000000E+03 0.  0.
    5000001    1    1    2    0    0  0.72532696159E+02  0.17029637454E+03 -0.66830085283E+03  0.73714847696E+03  0.25000000000E+03 0.  0.
<mgrwt>
<rscale>  0 0.69031075E+03</rscale>
<asrwt>0</asrwt>
<pdfrwt beam="1">  1        2 0.15085323E+00 0.69031075E+03</pdfrwt>
<pdfrwt beam="2">  1       -2 0.18691663E-01 0.69031075E+03</pdfrwt>
<totfact> 0.62712211E+02</totfact>
</mgrwt>
</event>
<event>
 4    1  0.1806019E-005  0.6717032E+03  0.7818608E-02  0.9766886E-01
         -2   -1    0    0    0  501 -0.00000000000E+00  0.00000000000E+00  0.22848332731E+04  0.22848332731E+04  0.25500000000E-02 0. -1.
          2   -1    0    0  501    0  0.00000000000E+00 -0.00000000000E+00 -0.49367415247E+02  0.49367415313E+02  0.25500000000E-02 0.  1.
   -5000001    1    1    2    0    0 -0.22277881179E+03 -0.24906790886E+02  0.10942755028E+04  0.11446351486E+04  0.25000000000E+03 0.  0.
    5000001    1    1    2    0    0  0.22277881179E+03  0.24906790886E+02  0.11411903550E+04  0.11895655398E+04  0.25000000000E+03 0.  0.
<mgrwt>
<rscale>  0 0.67170325E+03</rscale>
<asrwt>0</asrwt>
<pdfrwt beam="1">  1        2 0.75949872E-02 0.67170325E+03</pdfrwt>
<pdfrwt beam="2">  1       -2 0.35151280E+00 0.67170325E+03</pdfrwt>
<totfact> 0.15360741E+01</totfact>
</mgrwt>
</event>
<event>
 4    1  0.1806019E-005  0.1309427E+04  0.7818608E-02  0.9022123E-01
          2   -1    0    0  501    0  0.00000000000E+00  0.00000000000E+00  0.37893897235E+03  0.37893897236E+03  0.25500000000E-02 0.  1.
         -2   -1    0    0    0  501 -0.00000000000E+00 -0.00000000000E+00 -0.11311833432E+04  0.11311833432E+04  0.25500000000E-02 0. -1.
   -5000001    1    1    2    0    0  0.13319111507E+03 -0.12362874143E+03 -0.10417553331E+04  0.10866361456E+04  0.25000000000E+03 0.  0.
    5000001    1    1    2    0    0 -0.13319111507E+03  0.12362874143E+03  0.28951096230E+03  0.42348616994E+03  0.25000000000E+03 0.  0.
<mgrwt>
<rscale>  0 0.13094265E+04</rscale>
<asrwt>0</asrwt>
<pdfrwt beam="1">  1        2 0.58298304E-01 0.13094265E+04</pdfrwt>
<pdfrwt beam="2">  1       -2 0.17402820E+00 0.13094265E+04</pdfrwt>
<totfact> 0.16504881E+01</totfact>
</mgrwt>
</event>
<event>
 4    1  0.1806019E-005  0.5712540E+03  0.7818608E-02  0.9966908E-01
          2   -1    0    0  501    0  0.00000000000E+00  0.00000000000E+00  0.31245632652E+03  0.31245632653E+03  0.25500000000E-02 0.  1.
         -2   -1    0    0    0  501 -0.00000000000E+00 -0.00000000000E+00 -0.26110140225E+03  0.26110140227E+03  0.25500000000E-02 0. -1.
   -5000001    1    1    2    0    0 -0.77018569289E+02 -0.70305857913E+02 -0.65285972641E+02  0.27863422599E+03  0.25000000000E+03 0.  0.
    5000001    1    1    2    0    0  0.77018569289E+02  0.70305857913E+02  0.11664089690E+03  0.29492350280E+03  0.25000000000E+03 0.  0.
<mgrwt>
<rscale>  0 0.57125401E+03</rscale>
<asrwt>0</asrwt>
<pdfrwt beam="1">  1        2 0.48070204E-01 0.57125401E+03</pdfrwt>
<pdfrwt beam="2">  1       -2 0.40169446E-01 0.57125401E+03</pdfrwt>
<totfact> 0.61956425E+02</totfact>
</mgrwt>
</event>
<event>
 4    1  0.1806019E-005  0.9996082E+03  0.7818608E-02  0.9308975E-01
          2   -1    0    0  501    0  0.00000000000E+00  0.00000000000E+00  0.78640381685E+03  0.78640381685E+03  0.25500000000E-02 0.  1.
         -2   -1    0    0    0  501 -0.00000000000E+00 -0.00000000000E+00 -0.31765379571E+03  0.31765379572E+03  0.25500000000E-02 0. -1.
   -5000001    1    1    2    0    0 -0.21464844928E+03 -0.31263011081E+03  0.46471517226E+03  0.64982438727E+03  0.25000000000E+03 0.  0.
    5000001    1    1    2    0    0  0.21464844928E+03  0.31263011081E+03  0.40348488833E+01  0.45423322530E+03  0.25000000000E+03 0.  0.
<mgrwt>
<rscale>  0 0.99960824E+03</rscale>
<asrwt>0</asrwt>
<pdfrwt beam="1">  1        2 0.12098520E+00 0.99960824E+03</pdfrwt>
<pdfrwt beam="2">  1       -2 0.48869816E-01 0.99960824E+03</pdfrwt>
<totfact> 0.13948756E+02</totfact>
</mgrwt>
</event>
<event>
 4    1  0.1806019E-005  0.5318475E+03  0.7818608E-02  0.1005785E+00
          2   -1    0    0  501    0  0.00000000000E+00  0.00000000000E+00  0.32311212236E+03  0.32311212237E+03  0.25500000000E-02 0.  1.
         -2   -1    0    0    0  501 -0.00000000000E+00 -0.00000000000E+00 -0.21885725523E+03  0.21885725525E+03  0.25500000000E-02 0. -1.
   -5000001    1    1    2    0    0  0.13403810540E+02 -0.87649542442E+02  0.71282186932E+02  0.27466935505E+03  0.25000000000E+03 0.  0.
    5000001    1    1    2    0    0 -0.13403810540E+02  0.87649542442E+02  0.32972680196E+02  0.26730002257E+03  0.25000000000E+03 0.  0.
<mgrwt>
<rscale>  0 0.53184747E+03</rscale>
<asrwt>0</asrwt>
<pdfrwt beam="1">  1        2 0.49709557E-01 0.53184747E+03</pdfrwt>
<pdfrwt beam="2">  1       -2 0.33670347E-01 0.53184747E+03</pdfrwt>
<totfact> 0.83674944E+02</totfact>
</mgrwt>
</event>
<event>
 4    1  0.1806019E-005  0.9349837E+03  0.7818608E-02  0.9382877E-01
          2   -1    0    0  501    0  0.00000000000E+00  0.00000000000E+00  0.15615902081E+04  0.15615902081E+04  0.25500000000E-02 0.  1.
         -2   -1    0    0    0  501 -0.00000000000E+00 -0.00000000000E+00 -0.13995262339E+03  0.13995262341E+03  0.25500000000E-02 0. -1.
   -5000001    1    1    2    0    0  0.25533840028E+03  0.30289998022E+01  0.12593251050E+04  0.13090479723E+04  0.25000000000E+03 0.  0.
    5000001    1    1    2    0    0 -0.25533840028E+03 -0.30289998022E+01  0.16231247971E+03  0.39249485929E+03  0.25000000000E+03 0.  0.
<mgrwt>
<rscale>  0 0.93498374E+03</rscale>
<asrwt>0</asrwt>
<pdfrwt beam="1">  1        2 0.24024464E+00 0.93498374E+03</pdfrwt>
<pdfrwt beam="2">  1       -2 0.21531173E-01 0.93498374E+03</pdfrwt>
<totfact> 0.22015830E+02</totfact>
</mgrwt>
</event>
<event>
 4    1  0.1806019E-005  0.6624454E+03  0.7818608E-02  0.9783703E-01
          2   -1    0    0  501    0  0.00000000000E+00  0.00000000000E+00  0.54397191845E+03  0.54397191846E+03  0.25500000000E-02 0.  1.
         -2   -1    0    0    0  501 -0.00000000000E+00 -0.00000000000E+00 -0.20168038361E+03  0.20168038362E+03  0.25500000000E-02 0. -1.
   -5000001    1    1    2    0    0  0.17738946868E+03 -0.24335758859E+02  0.30968772681E+03  0.43642380881E+03  0.25000000000E+03 0.  0.
    5000001    1    1    2    0    0 -0.17738946868E+03  0.24335758859E+02  0.32603808037E+02  0.30922849328E+03  0.25000000000E+03 0.  0.
<mgrwt>
<rscale>  0 0.66244536E+03</rscale>
<asrwt>0</asrwt>
<pdfrwt beam="1">  1        2 0.83687987E-01 0.66244536E+03</pdfrwt>
<pdfrwt beam="2">  1       -2 0.31027751E-01 0.66244536E+03</pdfrwt>
<totfact> 0.54035390E+02</totfact>
</mgrwt>
</event>
<event>
 4    1  0.1806019E-005  0.7383737E+03  0.7818608E-02  0.9653769E-01
          2   -1    0    0  501    0  0.00000000000E+00  0.00000000000E+00  0.31419062056E+04  0.31419062056E+04  0.25500000000E-02 0.  1.
         -2   -1    0    0    0  501 -0.00000000000E+00 -0.00000000000E+00 -0.43380970524E+02  0.43380970599E+02  0.25500000000E-02 0. -1.
   -5000001    1    1    2    0    0 -0.82774906560E+02  0.25676841341E+03  0.16868515505E+04  0.17264848267E+04  0.25000000000E+03 0.  0.
    5000001    1    1    2    0    0  0.82774906560E+02 -0.25676841341E+03  0.14116736845E+04  0.14588023495E+04  0.25000000000E+03 0.  0.
<mgrwt>
<rscale>  0 0.73837373E+03</rscale>
<asrwt>0</asrwt>
<pdfrwt beam="1">  1        2 0.48337042E+00 0.73837373E+03</pdfrwt>
<pdfrwt beam="2">  1       -2 0.66739923E-02 0.73837373E+03</pdfrwt>
<totfact> 0.19724643E+02</totfact>
</mgrwt>
</event>
<event>
 4    1  0.1806019E-005  0.6866575E+03  0.7818608E-02  0.9740326E-01
         -2   -1    0    0    0  501 -0.00000000000E+00  0.00000000000E+00  0.17859405304E+03  0.17859405306E+03  0.25500000000E-02 0. -1.
          2   -1    0    0  501    0  0.00000000000E+00 -0.00000000000E+00 -0.66001434355E+03  0.66001434356E+03  0.25500000000E-02 0.  1.
   -5000001    1    1    2    0    0 -0.11649744665E+03 -0.16529118434E+03 -0.93739571444E+02  0.33493273646E+03  0.25000000000E+03 0.  0.
    5000001    1    1    2    0    0  0.11649744665E+03  0.16529118434E+03 -0.38768071907E+03  0.50367566016E+03  0.25000000000E+03 0.  0.
<mgrwt>
<rscale>  0 0.68665752E+03</rscale>
<asrwt>0</asrwt>
<pdfrwt beam="1">  1        2 0.10154067E+00 0.68665752E+03</pdfrwt>
<pdfrwt beam="2">  1       -2 0.27476009E-01 0.68665752E+03</pdfrwt>
<totfact> 0.53543673E+02</totfact>
</mgrwt>
</event>
<event>
 4    1  0.1806019E-005  0.6365616E+03  0.7818608E-02  0.9832327E-01
          2   -1    0    0  501    0  0.00000000000E+00  0.00000000000E+00  0.22104213767E+03  0.22104213768E+03  0.25500000000E-02 0. -1.
         -2   -1    0    0    0  501 -0.00000000000E+00 -0.00000000000E+00 -0.45829570281E+03  0.45829570282E+03  0.25500000000E-02 0.  1.
   -5000001    1    1    2    0    0 -0.19662455011E+03  0.11647075494E+02 -0.11605800867E+03  0.33877179554E+03  0.25000000000E+03 0.  0.
    5000001    1    1    2    0    0  0.19662455011E+03 -0.11647075494E+02 -0.12119555647E+03  0.34056604496E+03  0.25000000000E+03 0.  0.
<mgrwt>
<rscale>  0 0.63656158E+03</rscale>
<asrwt>0</asrwt>
<pdfrwt beam="1">  1        2 0.34006483E-01 0.63656158E+03</pdfrwt>
<pdfrwt beam="2">  1       -2 0.70507031E-01 0.63656158E+03</pdfrwt>
<totfact> 0.28564472E+02</totfact>
</mgrwt>
</event>
<event>
 4    1  0.1806019E-005  0.6191614E+03  0.7818608E-02  0.9866431E-01
         -2   -1    0    0    0  501 -0.00000000000E+00  0.00000000000E+00  0.50963765214E+02  0.50963765278E+02  0.25500000000E-02 0. -1.
          2   -1    0    0  501    0  0.00000000000E+00 -0.00000000000E+00 -0.18805559295E+04  0.18805559295E+04  0.25500000000E-02 0.  1.
   -5000001    1    1    2    0    0  0.17403978896E+03  0.30904179180E+02 -0.10575926603E+04  0.11010209587E+04  0.25000000000E+03 0.  0.
    5000001    1    1    2    0    0 -0.17403978896E+03 -0.30904179180E+02 -0.77199950402E+03  0.83049873608E+03  0.25000000000E+03 0.  0.
<mgrwt>
<rscale>  0 0.61916140E+03</rscale>
<asrwt>0</asrwt>
<pdfrwt beam="1">  1        2 0.28931624E+00 0.61916140E+03</pdfrwt>
<pdfrwt beam="2">  1       -2 0.78405807E-02 0.61916140E+03</pdfrwt>
<totfact> 0.81360817E+02</totfact>
</mgrwt>
</event>
<event>
 4    1  0.1806019E-005  0.7319410E+03  0.7818608E-02  0.9664116E-01
         -2   -1    0    0    0  501 -0.00000000000E+00  0.00000000000E+00  0.21318796633E+03  0.21318796634E+03  0.25500000000E-02 0. -1.
          2   -1    0    0  501    0  0.00000000000E+00 -0.00000000000E+00 -0.62824560069E+03  0.62824560069E+03  0.25500000000E-02 0.  1.
   -5000001    1    1    2    0    0  0.26358350815E+03 -0.36264522217E+02 -0.23668000267E+03  0.43509631692E+03  0.25000000000E+03 0.  0.
    5000001    1    1    2    0    0 -0.26358350815E+03  0.36264522217E+02 -0.17837763169E+03  0.40633725011E+03  0.25000000000E+03 0.  0.
<mgrwt>
<rscale>  0 0.73194099E+03</rscale>
<asrwt>0</asrwt>
<pdfrwt beam="1">  1        2 0.96653169E-01 0.73194099E+03</pdfrwt>
<pdfrwt beam="2">  1       -2 0.32798149E-01 0.73194099E+03</pdfrwt>
<totfact> 0.40909227E+02</totfact>
</mgrwt>
</event>
<event>
 4    1  0.1806019E-005  0.7277361E+03  0.7818608E-02  0.9670941E-01
          2   -1    0    0  501    0  0.00000000000E+00  0.00000000000E+00  0.93383566794E+03  0.93383566794E+03  0.25500000000E-02 0.  1.
         -2   -1    0    0    0  501 -0.00000000000E+00 -0.00000000000E+00 -0.14178080622E+03  0.14178080625E+03  0.25500000000E-02 0. -1.
   -5000001    1    1    2    0    0  0.22533054304E+03 -0.13145351483E+03  0.33252207258E+03  0.49104460993E+03  0.25000000000E+03 0.  0.
    5000001    1    1    2    0    0 -0.22533054304E+03  0.13145351483E+03  0.45953278914E+03  0.58457186426E+03  0.25000000000E+03 0.  0.
<mgrwt>
<rscale>  0 0.72773614E+03</rscale>
<asrwt>0</asrwt>
<pdfrwt beam="1">  1        2 0.14366702E+00 0.72773614E+03</pdfrwt>
<pdfrwt beam="2">  1       -2 0.21812432E-01 0.72773614E+03</pdfrwt>
<totfact> 0.51256152E+02</totfact>
</mgrwt>
</event>
<event>
 4    1  0.1806019E-005  0.8498718E+03  0.7818608E-02  0.9490509E-01
         -2   -1    0    0    0  501 -0.00000000000E+00  0.00000000000E+00  0.60369850153E+03  0.60369850153E+03  0.25500000000E-02 0. -1.
          2   -1    0    0  501    0  0.00000000000E+00 -0.00000000000E+00 -0.29910713051E+03  0.29910713053E+03  0.25500000000E-02 0.  1.
   -5000001    1    1    2    0    0  0.19393902488E+03  0.27891400706E+03  0.97455073207E+02  0.43290051975E+03  0.25000000000E+03 0.  0.
    5000001    1    1    2    0    0 -0.19393902488E+03 -0.27891400706E+03  0.20713629781E+03  0.46990511231E+03  0.25000000000E+03 0.  0.
<mgrwt>
<rscale>  0 0.84987182E+03</rscale>
<asrwt>0</asrwt>
<pdfrwt beam="1">  1        2 0.46016482E-01 0.84987182E+03</pdfrwt>
<pdfrwt beam="2">  1       -2 0.92876692E-01 0.84987182E+03</pdfrwt>
<totfact> 0.10883301E+02</totfact>
</mgrwt>
</event>
<event>
 4    1  0.1806019E-005  0.5976439E+03  0.7818608E-02  0.9910306E-01
          2   -1    0    0  501    0  0.00000000000E+00  0.00000000000E+00  0.31731578539E+03  0.31731578540E+03  0.25500000000E-02 0.  1.
         -2   -1    0    0    0  501 -0.00000000000E+00 -0.00000000000E+00 -0.28140594610E+03  0.28140594611E+03  0.25500000000E-02 0. -1.
   -5000001    1    1    2    0    0 -0.75879649641E+02 -0.60858111311E+02  0.14984766179E+03  0.30727146416E+03  0.25000000000E+03 0.  0.
    5000001    1    1    2    0    0  0.75879649641E+02  0.60858111311E+02 -0.11393782250E+03  0.29145026735E+03  0.25000000000E+03 0.  0.
<mgrwt>
<rscale>  0 0.59764387E+03</rscale>
<asrwt>0</asrwt>
<pdfrwt beam="1">  1        2 0.48817813E-01 0.59764387E+03</pdfrwt>
<pdfrwt beam="2">  1       -2 0.43293222E-01 0.59764387E+03</pdfrwt>
<totfact> 0.52587319E+02</totfact>
</mgrwt>
</event>
<event>
 4    1  0.1806019E-005  0.5621476E+03  0.7818608E-02  0.9987207E-01
         -2   -1    0    0    0  501 -0.00000000000E+00  0.00000000000E+00  0.25743987867E+02  0.25743987993E+02  0.25500000000E-02 0. -1.
          2   -1    0    0  501    0  0.00000000000E+00 -0.00000000000E+00 -0.30687735875E+04  0.30687735875E+04  0.25500000000E-02 0.  1.
   -5000001    1    1    2    0    0 -0.15247243560E+01  0.12274654670E+03 -0.13130988404E+04  0.13423105469E+04  0.25000000000E+03 0.  0.
    5000001    1    1    2    0    0  0.15247243560E+01 -0.12274654670E+03 -0.17299307592E+04  0.17522070286E+04  0.25000000000E+03 0.  0.
<mgrwt>
<rscale>  0 0.56214756E+03</rscale>
<asrwt>0</asrwt>
<pdfrwt beam="1">  1        2 0.47211872E+00 0.56214756E+03</pdfrwt>
<pdfrwt beam="2">  1       -2 0.39606160E-02 0.56214756E+03</pdfrwt>
<totfact> 0.50381513E+02</totfact>
</mgrwt>
</event>
<event>
 4    1  0.1806019E-005  0.6761317E+03  0.7818608E-02  0.9758944E-01
         -2   -1    0    0    0  501 -0.00000000000E+00  0.00000000000E+00  0.92098912614E+02  0.92098912649E+02  0.25500000000E-02 0. -1.
          2   -1    0    0  501    0  0.00000000000E+00 -0.00000000000E+00 -0.12409323236E+04  0.12409323236E+04  0.25500000000E-02 0.  1.
   -5000001    1    1    2    0    0 -0.30063720787E+02 -0.22536486486E+03 -0.59367023909E+03  0.68310870467E+03  0.25000000000E+03 0.  0.
    5000001    1    1    2    0    0  0.30063720787E+02  0.22536486486E+03 -0.55516317188E+03  0.64992253156E+03  0.25000000000E+03 0.  0.
<mgrwt>
<rscale>  0 0.67613170E+03</rscale>
<asrwt>0</asrwt>
<pdfrwt beam="1">  1        2 0.19091265E+00 0.67613170E+03</pdfrwt>
<pdfrwt beam="2">  1       -2 0.14169064E-01 0.67613170E+03</pdfrwt>
<totfact> 0.69824613E+02</totfact>
</mgrwt>
</event>
<event>
 4    1  0.1806019E-005  0.7273361E+03  0.7818608E-02  0.9671593E-01
          2   -1    0    0  501    0  0.00000000000E+00  0.00000000000E+00  0.21791456796E+04  0.21791456796E+04  0.25500000000E-02 0.  1.
         -2   -1    0    0    0  501 -0.00000000000E+00 -0.00000000000E+00 -0.60690964774E+02  0.60690964827E+02  0.25500000000E-02 0. -1.
   -5000001    1    1    2    0    0  0.94902734566E+02  0.21176783367E+03  0.67088810031E+03  0.75262406787E+03  0.25000000000E+03 0.  0.
    5000001    1    1    2    0    0 -0.94902734566E+02 -0.21176783367E+03  0.14475666145E+04  0.14872125766E+04  0.25000000000E+03 0.  0.
<mgrwt>
<rscale>  0 0.72733611E+03</rscale>
<asrwt>0</asrwt>
<pdfrwt beam="1">  1        2 0.33525318E+00 0.72733611E+03</pdfrwt>
<pdfrwt beam="2">  1       -2 0.93370716E-02 0.72733611E+03</pdfrwt>
<totfact> 0.41933332E+02</totfact>
</mgrwt>
</event>
<event>
 4    1  0.1806019E-005  0.6436713E+03  0.7818608E-02  0.9818727E-01
          2   -1    0    0  501    0  0.00000000000E+00  0.00000000000E+00  0.66180056583E+03  0.66180056583E+03  0.25500000000E-02 0.  1.
         -2   -1    0    0    0  501 -0.00000000000E+00 -0.00000000000E+00 -0.15650967680E+03  0.15650967682E+03  0.25500000000E-02 0. -1.
   -5000001    1    1    2    0    0 -0.87008183995E+02  0.16276056117E+03  0.35913877164E+03  0.47491270951E+03  0.25000000000E+03 0.  0.
    5000001    1    1    2    0    0  0.87008183995E+02 -0.16276056117E+03  0.14615211738E+03  0.34339753314E+03  0.25000000000E+03 0.  0.
<mgrwt>
<rscale>  0 0.64367132E+03</rscale>
<asrwt>0</asrwt>
<pdfrwt beam="1">  1        2 0.10181547E+00 0.64367132E+03</pdfrwt>
<pdfrwt beam="2">  1       -2 0.24078411E-01 0.64367132E+03</pdfrwt>
<totfact> 0.67825309E+02</totfact>
</mgrwt>
</event>
<event>
 4    1  0.1806019E-005  0.5679000E+03  0.7818608E-02  0.9974336E-01
          2   -1    0    0  501    0  0.00000000000E+00  0.00000000000E+00  0.13128466936E+04  0.13128466936E+04  0.25500000000E-02 0.  1.
         -2   -1    0    0    0  501 -0.00000000000E+00 -0.00000000000E+00 -0.61414336436E+02  0.61414336489E+02  0.25500000000E-02 0. -1.
   -5000001    1    1    2    0    0  0.82805744986E+02  0.78959675262E+02  0.79744700647E+03  0.84351238867E+03  0.25000000000E+03 0.  0.
    5000001    1    1    2    0    0 -0.82805744986E+02 -0.78959675262E+02  0.45398535069E+03  0.53074864141E+03  0.25000000000E+03 0.  0.
<mgrwt>
<rscale>  0 0.56790002E+03</rscale>
<asrwt>0</asrwt>
<pdfrwt beam="1">  1        2 0.20197640E+00 0.56790002E+03</pdfrwt>
<pdfrwt beam="2">  1       -2 0.94483602E-02 0.56790002E+03</pdfrwt>
<totfact> 0.12408128E+03</totfact>
</mgrwt>
</event>
<event>
 4    1  0.1806019E-005  0.7982251E+03  0.7818608E-02  0.9562590E-01
          2   -1    0    0  501    0  0.00000000000E+00  0.00000000000E+00  0.96760797986E+03  0.96760797986E+03  0.25500000000E-02 0.  1.
         -2   -1    0    0    0  501 -0.00000000000E+00 -0.00000000000E+00 -0.16462329896E+03  0.16462329898E+03  0.25500000000E-02 0. -1.
   -5000001    1    1    2    0    0 -0.30432319218E+03  0.28140591825E+02  0.31895057558E+03  0.50757656355E+03  0.25000000000E+03 0.  0.
    5000001    1    1    2    0    0  0.30432319218E+03 -0.28140591825E+02  0.48403410533E+03  0.62465471529E+03  0.25000000000E+03 0.  0.
<mgrwt>
<rscale>  0 0.79822508E+03</rscale>
<asrwt>0</asrwt>
<pdfrwt beam="1">  1        2 0.14886277E+00 0.79822508E+03</pdfrwt>
<pdfrwt beam="2">  1       -2 0.25326661E-01 0.79822508E+03</pdfrwt>
<totfact> 0.37183571E+02</totfact>
</mgrwt>
</event>
<event>
 4    1  0.1806019E-005  0.2227431E+04  0.7818608E-02  0.8507097E-01
          2   -1    0    0  501    0  0.00000000000E+00  0.00000000000E+00  0.46325100788E+03  0.46325100789E+03  0.25500000000E-02 0.  1.
         -2   -1    0    0    0  501 -0.00000000000E+00 -0.00000000000E+00 -0.26775165396E+04  0.26775165396E+04  0.25500000000E-02 0. -1.
   -5000001    1    1    2    0    0  0.30066380154E+03 -0.78377421500E+03 -0.13721206433E+03  0.88658214073E+03  0.25000000000E+03 0.  0.
    5000001    1    1    2    0    0 -0.30066380154E+03  0.78377421500E+03 -0.20770534674E+04  0.22541854067E+04  0.25000000000E+03 0.  0.
<mgrwt>
<rscale>  0 0.22274310E+04</rscale>
<asrwt>0</asrwt>
<pdfrwt beam="1">  1        2 0.71269388E-01 0.22274310E+04</pdfrwt>
<pdfrwt beam="2">  1       -2 0.41192561E+00 0.22274310E+04</pdfrwt>
<totfact> 0.38074608E-01</totfact>
</mgrwt>
</event>
