<event>
 4    1  0.3213443E-005  0.5272071E+03  0.7818608E-02  0.1006912E+00
          2   -1    0    0  501    0  0.00000000000E+00  0.00000000000E+00  0.37639414543E+03  0.37639414544E+03  0.25500000000E-02 0.  1.
         -2   -1    0    0    0  501 -0.00000000000E+00 -0.00000000000E+00 -0.18461189139E+03  0.18461189141E+03  0.25500000000E-02 0. -1.
    5000001    1    1    2    0    0  0.51824346471E+02  0.14359190088E+03  0.24240410571E+03  0.33058909140E+03  0.16500000000E+03 0.  0.
   -5000001    1    1    2    0    0 -0.51824346471E+02 -0.14359190088E+03 -0.50621851666E+02  0.23041694545E+03  0.16500000000E+03 0.  0.
<mgrwt>
<rscale>  0 0.52720711E+03</rscale>
<asrwt>0</asrwt>
<pdfrwt beam="1">  1        2 0.57906791E-01 0.52720711E+03</pdfrwt>
<pdfrwt beam="2">  1       -2 0.28401830E-01 0.52720711E+03</pdfrwt>
<totfact> 0.96887412E+02</totfact>
</mgrwt>
</event>
<event>
 4    1  0.3213443E-005  0.8145330E+03  0.7818608E-02  0.9539216E-01
          2   -1    0    0  501    0  0.00000000000E+00  0.00000000000E+00  0.84287389101E+03  0.84287389101E+03  0.25500000000E-02 0.  1.
         -2   -1    0    0    0  501 -0.00000000000E+00 -0.00000000000E+00 -0.19678624532E+03  0.19678624533E+03  0.25500000000E-02 0. -1.
    5000001    1    1    2    0    0  0.46803946537E+02 -0.36919378350E+03  0.30760379463E+03  0.51023499847E+03  0.16500000000E+03 0.  0.
   -5000001    1    1    2    0    0 -0.46803946537E+02  0.36919378350E+03  0.33848385106E+03  0.52942513788E+03  0.16500000000E+03 0.  0.
<mgrwt>
<rscale>  0 0.81453297E+03</rscale>
<asrwt>0</asrwt>
<pdfrwt beam="1">  1        2 0.12967290E+00 0.81453297E+03</pdfrwt>
<pdfrwt beam="2">  1       -2 0.30274807E-01 0.81453297E+03</pdfrwt>
<totfact> 0.32493952E+02</totfact>
</mgrwt>
</event>
<event>
 4    1  0.3213443E-005  0.6524774E+03  0.7818608E-02  0.9802142E-01
         -2   -1    0    0    0  501 -0.00000000000E+00  0.00000000000E+00  0.13481738143E+03  0.13481738145E+03  0.25500000000E-02 0. -1.
          2   -1    0    0  501    0  0.00000000000E+00 -0.00000000000E+00 -0.78945086941E+03  0.78945086941E+03  0.25500000000E-02 0.  1.
    5000001    1    1    2    0    0 -0.26900322308E+03  0.76815140976E+02 -0.28380762726E+03  0.43131782852E+03  0.16500000000E+03 0.  0.
   -5000001    1    1    2    0    0  0.26900322308E+03 -0.76815140976E+02 -0.37082586072E+03  0.49295042234E+03  0.16500000000E+03 0.  0.
<mgrwt>
<rscale>  0 0.65247743E+03</rscale>
<asrwt>0</asrwt>
<pdfrwt beam="1">  1        2 0.12145398E+00 0.65247743E+03</pdfrwt>
<pdfrwt beam="2">  1       -2 0.20741136E-01 0.65247743E+03</pdfrwt>
<totfact> 0.70586046E+02</totfact>
</mgrwt>
</event>
<event>
 4    1  0.3213443E-005  0.4279246E+03  0.7818608E-02  0.1034518E+00
         -2   -1    0    0    0  501 -0.00000000000E+00  0.00000000000E+00  0.30782072643E+02  0.30782072748E+02  0.25500000000E-02 0. -1.
          2   -1    0    0  501    0  0.00000000000E+00 -0.00000000000E+00 -0.14872246335E+04  0.14872246335E+04  0.25500000000E-02 0.  1.
    5000001    1    1    2    0    0 -0.11655171942E+03 -0.11528808897E+02 -0.97495201698E+03  0.99572769980E+03  0.16500000000E+03 0.  0.
   -5000001    1    1    2    0    0  0.11655171942E+03  0.11528808897E+02 -0.48149054384E+03  0.52227900642E+03  0.16500000000E+03 0.  0.
<mgrwt>
<rscale>  0 0.42792456E+03</rscale>
<asrwt>0</asrwt>
<pdfrwt beam="1">  1        2 0.22880374E+00 0.42792456E+03</pdfrwt>
<pdfrwt beam="2">  1       -2 0.47357046E-02 0.42792456E+03</pdfrwt>
<totfact> 0.29470308E+03</totfact>
</mgrwt>
</event>
<event>
 4    1  0.3213443E-005  0.4207836E+03  0.7818608E-02  0.1036812E+00
          2   -1    0    0  501    0  0.00000000000E+00  0.00000000000E+00  0.12642870530E+04  0.12642870530E+04  0.25500000000E-02 0.  1.
         -2   -1    0    0    0  501 -0.00000000000E+00 -0.00000000000E+00 -0.35011596503E+02  0.35011596596E+02  0.25500000000E-02 0. -1.
    5000001    1    1    2    0    0  0.63299858314E+02  0.10878281221E+03  0.72156399316E+03  0.75081300502E+03  0.16500000000E+03 0.  0.
   -5000001    1    1    2    0    0 -0.63299858314E+02 -0.10878281221E+03  0.50771146333E+03  0.54848564456E+03  0.16500000000E+03 0.  0.
<mgrwt>
<rscale>  0 0.42078359E+03</rscale>
<asrwt>0</asrwt>
<pdfrwt beam="1">  1        2 0.19450568E+00 0.42078359E+03</pdfrwt>
<pdfrwt beam="2">  1       -2 0.53864001E-02 0.42078359E+03</pdfrwt>
<totfact> 0.32163165E+03</totfact>
</mgrwt>
</event>
<event>
 4    1  0.3213443E-005  0.6225604E+03  0.7818608E-02  0.9859675E-01
         -2   -1    0    0    0  501 -0.00000000000E+00  0.00000000000E+00  0.77961217206E+02  0.77961217248E+02  0.25500000000E-02 0.  1.
          2   -1    0    0  501    0  0.00000000000E+00 -0.00000000000E+00 -0.12428662681E+04  0.12428662681E+04  0.25500000000E-02 0. -1.
    5000001    1    1    2    0    0 -0.20178593279E+03 -0.16721059974E+03 -0.64932247527E+03  0.71938975822E+03  0.16500000000E+03 0.  0.
   -5000001    1    1    2    0    0  0.20178593279E+03  0.16721059974E+03 -0.51558257563E+03  0.60143772714E+03  0.16500000000E+03 0.  0.
<mgrwt>
<rscale>  0 0.62256041E+03</rscale>
<asrwt>0</asrwt>
<pdfrwt beam="1">  1        2 0.19121018E+00 0.62256041E+03</pdfrwt>
<pdfrwt beam="2">  1       -2 0.11994034E-01 0.62256041E+03</pdfrwt>
<totfact> 0.92087357E+02</totfact>
</mgrwt>
</event>
<event>
 4    1  0.3213443E-005  0.6458491E+03  0.7818608E-02  0.9814599E-01
         -2   -1    0    0    0  501 -0.00000000000E+00  0.00000000000E+00  0.14765346092E+04  0.14765346092E+04  0.25500000000E-02 0. -1.
          2   -1    0    0  501    0  0.00000000000E+00 -0.00000000000E+00 -0.70625012506E+02  0.70625012552E+02  0.25500000000E-02 0.  1.
    5000001    1    1    2    0    0  0.12278327357E+03  0.23593308538E+03  0.51258637070E+03  0.60059132568E+03  0.16500000000E+03 0.  0.
   -5000001    1    1    2    0    0 -0.12278327357E+03 -0.23593308538E+03  0.89332322597E+03  0.94656829606E+03  0.16500000000E+03 0.  0.
<mgrwt>
<rscale>  0 0.64584913E+03</rscale>
<asrwt>0</asrwt>
<pdfrwt beam="1">  1        2 0.10865386E-01 0.64584913E+03</pdfrwt>
<pdfrwt beam="2">  1       -2 0.22715917E+00 0.64584913E+03</pdfrwt>
<totfact> 0.54875967E+01</totfact>
</mgrwt>
</event>
<event>
 4    1  0.3213443E-005  0.7025850E+03  0.7818608E-02  0.9712822E-01
          2   -1    0    0  501    0  0.00000000000E+00  0.00000000000E+00  0.19690223728E+04  0.19690223728E+04  0.25500000000E-02 0.  1.
         -2   -1    0    0    0  501 -0.00000000000E+00 -0.00000000000E+00 -0.62673952146E+02  0.62673952198E+02  0.25500000000E-02 0. -1.
    5000001    1    1    2    0    0  0.15298704235E+03  0.25089956132E+03  0.66652968567E+03  0.74688851034E+03  0.16500000000E+03 0.  0.
   -5000001    1    1    2    0    0 -0.15298704235E+03 -0.25089956132E+03  0.12398187350E+04  0.12848078147E+04  0.16500000000E+03 0.  0.
<mgrwt>
<rscale>  0 0.70258498E+03</rscale>
<asrwt>0</asrwt>
<pdfrwt beam="1">  1        2 0.30292646E+00 0.70258498E+03</pdfrwt>
<pdfrwt beam="2">  1       -2 0.96421482E-02 0.70258498E+03</pdfrwt>
<totfact> 0.51952049E+02</totfact>
</mgrwt>
</event>
<event>
 4    1  0.3213443E-005  0.3785555E+03  0.7818608E-02  0.1051469E+00
         -2   -1    0    0    0  501 -0.00000000000E+00  0.00000000000E+00  0.27275785330E+02  0.27275785449E+02  0.25500000000E-02 0. -1.
          2   -1    0    0  501    0  0.00000000000E+00 -0.00000000000E+00 -0.13134751006E+04  0.13134751006E+04  0.25500000000E-02 0.  1.
    5000001    1    1    2    0    0  0.33218396034E+02 -0.86190236000E+02 -0.61371240516E+03  0.64218387933E+03  0.16500000000E+03 0.  0.
   -5000001    1    1    2    0    0 -0.33218396034E+02  0.86190236000E+02 -0.67248691008E+03  0.69856700670E+03  0.16500000000E+03 0.  0.
<mgrwt>
<rscale>  0 0.37855549E+03</rscale>
<asrwt>0</asrwt>
<pdfrwt beam="1">  1        2 0.20207304E+00 0.37855549E+03</pdfrwt>
<pdfrwt beam="2">  1       -2 0.41962757E-02 0.37855549E+03</pdfrwt>
<totfact> 0.44228859E+03</totfact>
</mgrwt>
</event>
<event>
 4    1  0.3213443E-005  0.3958248E+03  0.7818608E-02  0.1045235E+00
         -2   -1    0    0    0  501 -0.00000000000E+00  0.00000000000E+00  0.90521192399E+02  0.90521192435E+02  0.25500000000E-02 0.  1.
          2   -1    0    0  501    0  0.00000000000E+00 -0.00000000000E+00 -0.43270885456E+03  0.43270885457E+03  0.25500000000E-02 0. -1.
    5000001    1    1    2    0    0  0.50188184362E+02  0.96370963435E+02 -0.15555943310E+03  0.25145566939E+03  0.16500000000E+03 0.  0.
   -5000001    1    1    2    0    0 -0.50188184362E+02 -0.96370963435E+02 -0.18662822906E+03  0.27177437761E+03  0.16500000000E+03 0.  0.
<mgrwt>
<rscale>  0 0.39582482E+03</rscale>
<asrwt>0</asrwt>
<pdfrwt beam="1">  1        2 0.66570592E-01 0.39582482E+03</pdfrwt>
<pdfrwt beam="2">  1       -2 0.13926338E-01 0.39582482E+03</pdfrwt>
<totfact> 0.28511180E+03</totfact>
</mgrwt>
</event>
<event>
 4    1  0.3213443E-005  0.4902262E+03  0.7818608E-02  0.1016362E+00
          2   -1    0    0  501    0  0.00000000000E+00  0.00000000000E+00  0.75839882302E+03  0.75839882302E+03  0.25500000000E-02 0.  1.
         -2   -1    0    0    0  501 -0.00000000000E+00 -0.00000000000E+00 -0.79220106730E+02  0.79220106771E+02  0.25500000000E-02 0. -1.
    5000001    1    1    2    0    0  0.98632334374E+02  0.99458774834E+02  0.53615732770E+03  0.57819552516E+03  0.16500000000E+03 0.  0.
   -5000001    1    1    2    0    0 -0.98632334374E+02 -0.99458774834E+02  0.14302138859E+03  0.25942340463E+03  0.16500000000E+03 0.  0.
<mgrwt>
<rscale>  0 0.49022622E+03</rscale>
<asrwt>0</asrwt>
<pdfrwt beam="1">  1        2 0.11667675E+00 0.49022622E+03</pdfrwt>
<pdfrwt beam="2">  1       -2 0.12187708E-01 0.49022622E+03</pdfrwt>
<totfact> 0.18354909E+03</totfact>
</mgrwt>
</event>
<event>
 4    1  0.3213443E-005  0.1084279E+04  0.7818608E-02  0.9220651E-01
         -2   -1    0    0    0  501 -0.00000000000E+00  0.00000000000E+00  0.19543187574E+03  0.19543187576E+03  0.25500000000E-02 0. -1.
          2   -1    0    0  501    0  0.00000000000E+00 -0.00000000000E+00 -0.15039273868E+04  0.15039273868E+04  0.25500000000E-02 0.  1.
    5000001    1    1    2    0    0  0.46288430309E+03 -0.80906515839E+02 -0.98996072547E+03  0.11081764211E+04  0.16500000000E+03 0.  0.
   -5000001    1    1    2    0    0 -0.46288430309E+03  0.80906515839E+02 -0.31853478554E+03  0.59118284139E+03  0.16500000000E+03 0.  0.
<mgrwt>
<rscale>  0 0.10842792E+04</rscale>
<asrwt>0</asrwt>
<pdfrwt beam="1">  1        2 0.23137344E+00 0.10842792E+04</pdfrwt>
<pdfrwt beam="2">  1       -2 0.30066443E-01 0.10842792E+04</pdfrwt>
<totfact> 0.12806755E+02</totfact>
</mgrwt>
</event>
<event>
 4    1  0.3213443E-005  0.6141163E+03  0.7818608E-02  0.9876544E-01
          2   -1    0    0  501    0  0.00000000000E+00  0.00000000000E+00  0.68638215667E+03  0.68638215667E+03  0.25500000000E-02 0.  1.
         -2   -1    0    0    0  501 -0.00000000000E+00 -0.00000000000E+00 -0.13736474833E+03  0.13736474836E+03  0.25500000000E-02 0. -1.
    5000001    1    1    2    0    0 -0.23481064050E+03 -0.10763304153E+03  0.24981892332E+03  0.39541801042E+03  0.16500000000E+03 0.  0.
   -5000001    1    1    2    0    0  0.23481064050E+03  0.10763304153E+03  0.29919848502E+03  0.42832889461E+03  0.16500000000E+03 0.  0.
<mgrwt>
<rscale>  0 0.61411632E+03</rscale>
<asrwt>0</asrwt>
<pdfrwt beam="1">  1        2 0.10559726E+00 0.61411632E+03</pdfrwt>
<pdfrwt beam="2">  1       -2 0.21133038E-01 0.61411632E+03</pdfrwt>
<totfact> 0.81750411E+02</totfact>
</mgrwt>
</event>
<event>
 4    1  0.3213443E-005  0.3990845E+03  0.7818608E-02  0.1044097E+00
          2   -1    0    0  501    0  0.00000000000E+00  0.00000000000E+00  0.41187176909E+02  0.41187176988E+02  0.25500000000E-02 0.  1.
         -2   -1    0    0    0  501 -0.00000000000E+00 -0.00000000000E+00 -0.96673567341E+03  0.96673567341E+03  0.25500000000E-02 0. -1.
    5000001    1    1    2    0    0  0.10484054728E+03 -0.39030715159E+02 -0.48496152558E+03  0.52433540637E+03  0.16500000000E+03 0.  0.
   -5000001    1    1    2    0    0 -0.10484054728E+03  0.39030715159E+02 -0.44058697092E+03  0.48358744403E+03  0.16500000000E+03 0.  0.
<mgrwt>
<rscale>  0 0.39908452E+03</rscale>
<asrwt>0</asrwt>
<pdfrwt beam="1">  1        2 0.63364895E-02 0.39908452E+03</pdfrwt>
<pdfrwt beam="2">  1       -2 0.14872855E+00 0.39908452E+03</pdfrwt>
<totfact> 0.37410914E+02</totfact>
</mgrwt>
</event>
<event>
 4    1  0.3213443E-005  0.3555409E+03  0.7818608E-02  0.1060364E+00
          2   -1    0    0  501    0  0.00000000000E+00  0.00000000000E+00  0.33535017600E+04  0.33535017600E+04  0.25500000000E-02 0.  1.
         -2   -1    0    0    0  501 -0.00000000000E+00 -0.00000000000E+00 -0.94236825929E+01  0.94236829379E+01  0.25500000000E-02 0. -1.
    5000001    1    1    2    0    0  0.41749852565E+02  0.29712277927E+01  0.21566912653E+04  0.21633987363E+04  0.16500000000E+03 0.  0.
   -5000001    1    1    2    0    0 -0.41749852565E+02 -0.29712277927E+01  0.11873868121E+04  0.11995267066E+04  0.16500000000E+03 0.  0.
<mgrwt>
<rscale>  0 0.35554092E+03</rscale>
<asrwt>0</asrwt>
<pdfrwt beam="1">  1        2 0.51592326E+00 0.35554092E+03</pdfrwt>
<pdfrwt beam="2">  1       -2 0.14497976E-02 0.35554092E+03</pdfrwt>
<totfact> 0.15472767E+03</totfact>
</mgrwt>
</event>
<event>
 4    1  0.3213443E-005  0.6199515E+03  0.7818608E-02  0.9864856E-01
         -2   -1    0    0    0  501 -0.00000000000E+00  0.00000000000E+00  0.33192799442E+02  0.33192799540E+02  0.25500000000E-02 0. -1.
          2   -1    0    0  501    0  0.00000000000E+00 -0.00000000000E+00 -0.28947531175E+04  0.28947531175E+04  0.25500000000E-02 0.  1.
    5000001    1    1    2    0    0  0.21253367530E+03 -0.84601642029E+02 -0.20380301346E+04  0.20574546971E+04  0.16500000000E+03 0.  0.
   -5000001    1    1    2    0    0 -0.21253367530E+03  0.84601642029E+02 -0.82353018339E+03  0.87049121990E+03  0.16500000000E+03 0.  0.
<mgrwt>
<rscale>  0 0.61995148E+03</rscale>
<asrwt>0</asrwt>
<pdfrwt beam="1">  1        2 0.44534644E+00 0.61995148E+03</pdfrwt>
<pdfrwt beam="2">  1       -2 0.51065868E-02 0.61995148E+03</pdfrwt>
<totfact> 0.43097634E+02</totfact>
</mgrwt>
</event>
<event>
 4    1  0.3213443E-005  0.7302484E+03  0.7818608E-02  0.9666857E-01
         -2   -1    0    0    0  501 -0.00000000000E+00  0.00000000000E+00  0.10689854805E+03  0.10689854808E+03  0.25500000000E-02 0. -1.
          2   -1    0    0  501    0  0.00000000000E+00 -0.00000000000E+00 -0.12471234937E+04  0.12471234937E+04  0.25500000000E-02 0.  1.
    5000001    1    1    2    0    0 -0.31910139790E+03  0.62637257817E+02 -0.60438058819E+03  0.70586827637E+03  0.16500000000E+03 0.  0.
   -5000001    1    1    2    0    0  0.31910139790E+03 -0.62637257817E+02 -0.53584435749E+03  0.64815376544E+03  0.16500000000E+03 0.  0.
<mgrwt>
<rscale>  0 0.73024843E+03</rscale>
<asrwt>0</asrwt>
<pdfrwt beam="1">  1        2 0.19186514E+00 0.73024843E+03</pdfrwt>
<pdfrwt beam="2">  1       -2 0.16445931E-01 0.73024843E+03</pdfrwt>
<totfact> 0.53676205E+02</totfact>
</mgrwt>
</event>
<event>
 4    1  0.3213443E-005  0.8194813E+03  0.7818608E-02  0.9532239E-01
          2   -1    0    0  501    0  0.00000000000E+00  0.00000000000E+00  0.83303498041E+03  0.83303498042E+03  0.25500000000E-02 0.  1.
         -2   -1    0    0    0  501 -0.00000000000E+00 -0.00000000000E+00 -0.20153703589E+03  0.20153703591E+03  0.25500000000E-02 0. -1.
    5000001    1    1    2    0    0 -0.18459458229E+03  0.29568587583E+03  0.14101127635E+03  0.41062693169E+03  0.16500000000E+03 0.  0.
   -5000001    1    1    2    0    0  0.18459458229E+03 -0.29568587583E+03  0.49048666818E+03  0.62394508463E+03  0.16500000000E+03 0.  0.
<mgrwt>
<rscale>  0 0.81948130E+03</rscale>
<asrwt>0</asrwt>
<pdfrwt beam="1">  1        2 0.12815923E+00 0.81948130E+03</pdfrwt>
<pdfrwt beam="2">  1       -2 0.31005698E-01 0.81948130E+03</pdfrwt>
<totfact> 0.31571942E+02</totfact>
</mgrwt>
</event>
<event>
 4    1  0.3213443E-005  0.6942634E+03  0.7818608E-02  0.9727093E-01
         -2   -1    0    0    0  501 -0.00000000000E+00  0.00000000000E+00  0.51081735276E+02  0.51081735339E+02  0.25500000000E-02 0. -1.
          2   -1    0    0  501    0  0.00000000000E+00 -0.00000000000E+00 -0.23589727516E+04  0.23589727516E+04  0.25500000000E-02 0.  1.
    5000001    1    1    2    0    0 -0.29184753392E+03 -0.89951637685E+02 -0.11644412198E+04  0.12150780364E+04  0.16500000000E+03 0.  0.
   -5000001    1    1    2    0    0  0.29184753392E+03  0.89951637685E+02 -0.11434497965E+04  0.11949764506E+04  0.16500000000E+03 0.  0.
<mgrwt>
<rscale>  0 0.69426341E+03</rscale>
<asrwt>0</asrwt>
<pdfrwt beam="1">  1        2 0.36291880E+00 0.69426341E+03</pdfrwt>
<pdfrwt beam="2">  1       -2 0.78587303E-02 0.69426341E+03</pdfrwt>
<totfact> 0.44115754E+02</totfact>
</mgrwt>
</event>
<event>
 4    1  0.3213443E-005  0.4106148E+03  0.7818608E-02  0.1040165E+00
          2   -1    0    0  501    0  0.00000000000E+00  0.00000000000E+00  0.27473878994E+03  0.27473878995E+03  0.25500000000E-02 0.  1.
         -2   -1    0    0    0  501 -0.00000000000E+00 -0.00000000000E+00 -0.15342252393E+03  0.15342252395E+03  0.25500000000E-02 0. -1.
    5000001    1    1    2    0    0  0.32970975516E+02 -0.93292671858E+02 -0.14066655984E+02  0.19290795385E+03  0.16500000000E+03 0.  0.
   -5000001    1    1    2    0    0 -0.32970975516E+02  0.93292671858E+02  0.13538292199E+03  0.23525336005E+03  0.16500000000E+03 0.  0.
<mgrwt>
<rscale>  0 0.41061475E+03</rscale>
<asrwt>0</asrwt>
<pdfrwt beam="1">  1        2 0.42267506E-01 0.41061475E+03</pdfrwt>
<pdfrwt beam="2">  1       -2 0.23603465E-01 0.41061475E+03</pdfrwt>
<totfact> 0.19070029E+03</totfact>
</mgrwt>
</event>
<event>
 4    1  0.3213443E-005  0.3815709E+03  0.7818608E-02  0.1050355E+00
         -2   -1    0    0    0  501 -0.00000000000E+00  0.00000000000E+00  0.16959478371E+03  0.16959478373E+03  0.25500000000E-02 0. -1.
          2   -1    0    0  501    0  0.00000000000E+00 -0.00000000000E+00 -0.21462389379E+03  0.21462389381E+03  0.25500000000E-02 0.  1.
    5000001    1    1    2    0    0  0.32404228460E+02 -0.40058245798E+02  0.58788501036E+02  0.18258089969E+03  0.16500000000E+03 0.  0.
   -5000001    1    1    2    0    0 -0.32404228460E+02  0.40058245798E+02 -0.10381761112E+03  0.20163777785E+03  0.16500000000E+03 0.  0.
<mgrwt>
<rscale>  0 0.38157093E+03</rscale>
<asrwt>0</asrwt>
<pdfrwt beam="1">  1        2 0.33019061E-01 0.38157093E+03</pdfrwt>
<pdfrwt beam="2">  1       -2 0.26091505E-01 0.38157093E+03</pdfrwt>
<totfact> 0.20897258E+03</totfact>
</mgrwt>
</event>
<event>
 4    1  0.3213443E-005  0.4024813E+03  0.7818608E-02  0.1042924E+00
          2   -1    0    0  501    0  0.00000000000E+00  0.00000000000E+00  0.23206817331E+03  0.23206817333E+03  0.25500000000E-02 0.  1.
         -2   -1    0    0    0  501 -0.00000000000E+00 -0.00000000000E+00 -0.17450823847E+03  0.17450823849E+03  0.25500000000E-02 0. -1.
    5000001    1    1    2    0    0  0.13075031375E+01  0.11464458043E+03  0.17363710031E+02  0.20167198073E+03  0.16500000000E+03 0.  0.
   -5000001    1    1    2    0    0 -0.13075031375E+01 -0.11464458043E+03  0.40196224814E+02  0.20490443108E+03  0.16500000000E+03 0.  0.
<mgrwt>
<rscale>  0 0.40248134E+03</rscale>
<asrwt>0</asrwt>
<pdfrwt beam="1">  1        2 0.35702796E-01 0.40248134E+03</pdfrwt>
<pdfrwt beam="2">  1       -2 0.26847421E-01 0.40248134E+03</pdfrwt>
<totfact> 0.18230359E+03</totfact>
</mgrwt>
</event>
<event>
 4    1  0.3213443E-005  0.6866936E+03  0.7818608E-02  0.9740263E-01
          2   -1    0    0  501    0  0.00000000000E+00  0.00000000000E+00  0.54823490499E+03  0.54823490499E+03  0.25500000000E-02 0.  1.
         -2   -1    0    0    0  501 -0.00000000000E+00 -0.00000000000E+00 -0.21503010332E+03  0.21503010333E+03  0.25500000000E-02 0. -1.
    5000001    1    1    2    0    0  0.13547057854E+03  0.22054652489E+03 -0.43999105795E+01  0.30698111750E+03  0.16500000000E+03 0.  0.
   -5000001    1    1    2    0    0 -0.13547057854E+03 -0.22054652489E+03  0.33760471225E+03  0.45628389082E+03  0.16500000000E+03 0.  0.
<mgrwt>
<rscale>  0 0.68669355E+03</rscale>
<asrwt>0</asrwt>
<pdfrwt beam="1">  1        2 0.84343830E-01 0.68669355E+03</pdfrwt>
<pdfrwt beam="2">  1       -2 0.33081555E-01 0.68669355E+03</pdfrwt>
<totfact> 0.47456463E+02</totfact>
</mgrwt>
</event>
<event>
 4    1  0.3213443E-005  0.4181451E+03  0.7818608E-02  0.1037672E+00
         -2   -1    0    0    0  501 -0.00000000000E+00  0.00000000000E+00  0.56110568701E+03  0.56110568702E+03  0.25500000000E-02 0. -1.
          2   -1    0    0  501    0  0.00000000000E+00 -0.00000000000E+00 -0.77902121322E+02  0.77902121363E+02  0.25500000000E-02 0.  1.
    5000001    1    1    2    0    0  0.22870668046E+02 -0.11286721668E+03  0.15482703467E+03  0.25388675965E+03  0.16500000000E+03 0.  0.
   -5000001    1    1    2    0    0 -0.22870668046E+02  0.11286721668E+03  0.32837653101E+03  0.38512104873E+03  0.16500000000E+03 0.  0.
<mgrwt>
<rscale>  0 0.41814506E+03</rscale>
<asrwt>0</asrwt>
<pdfrwt beam="1">  1        2 0.11984942E-01 0.41814506E+03</pdfrwt>
<pdfrwt beam="2">  1       -2 0.86323953E-01 0.41814506E+03</pdfrwt>
<totfact> 0.61873232E+02</totfact>
</mgrwt>
</event>
<event>
 4    1  0.3213443E-005  0.8726355E+03  0.7818608E-02  0.9460450E-01
         -2   -1    0    0    0  501 -0.00000000000E+00  0.00000000000E+00  0.31701359179E+03  0.31701359180E+03  0.25500000000E-02 0. -1.
          2   -1    0    0  501    0  0.00000000000E+00 -0.00000000000E+00 -0.60052062360E+03  0.60052062361E+03  0.25500000000E-02 0.  1.
    5000001    1    1    2    0    0  0.16177436395E+03 -0.11347553194E+03  0.22865096863E+03  0.34431657909E+03  0.16500000000E+03 0.  0.
   -5000001    1    1    2    0    0 -0.16177436395E+03  0.11347553194E+03 -0.51215800044E+03  0.57321763632E+03  0.16500000000E+03 0.  0.
<mgrwt>
<rscale>  0 0.87263555E+03</rscale>
<asrwt>0</asrwt>
<pdfrwt beam="1">  1        2 0.92387788E-01 0.87263555E+03</pdfrwt>
<pdfrwt beam="2">  1       -2 0.48771322E-01 0.87263555E+03</pdfrwt>
<totfact> 0.19810574E+02</totfact>
</mgrwt>
</event>
<event>
 4    1  0.3213443E-005  0.9621160E+03  0.7818608E-02  0.9351100E-01
          2   -1    0    0  501    0  0.00000000000E+00  0.00000000000E+00  0.92246060086E+03  0.92246060086E+03  0.25500000000E-02 0.  1.
         -2   -1    0    0    0  501 -0.00000000000E+00 -0.00000000000E+00 -0.25086905568E+03  0.25086905570E+03  0.25500000000E-02 0. -1.
    5000001    1    1    2    0    0 -0.26633053367E+03 -0.40715331684E+02 -0.10661332414E+03  0.33343828857E+03  0.16500000000E+03 0.  0.
   -5000001    1    1    2    0    0  0.26633053367E+03  0.40715331684E+02  0.77820486932E+03  0.83989136799E+03  0.16500000000E+03 0.  0.
<mgrwt>
<rscale>  0 0.96211604E+03</rscale>
<asrwt>0</asrwt>
<pdfrwt beam="1">  1        2 0.14191702E+00 0.96211604E+03</pdfrwt>
<pdfrwt beam="2">  1       -2 0.38595239E-01 0.96211604E+03</pdfrwt>
<totfact> 0.17946894E+02</totfact>
</mgrwt>
</event>
<event>
 4    1  0.3213443E-005  0.4018817E+03  0.7818608E-02  0.1043130E+00
          2   -1    0    0  501    0  0.00000000000E+00  0.00000000000E+00  0.15079997829E+04  0.15079997829E+04  0.25500000000E-02 0.  1.
         -2   -1    0    0    0  501 -0.00000000000E+00 -0.00000000000E+00 -0.26775346745E+02  0.26775346867E+02  0.25500000000E-02 0. -1.
    5000001    1    1    2    0    0 -0.90252997505E+02  0.40460638400E+02  0.96229529519E+03  0.98133577432E+03  0.16500000000E+03 0.  0.
   -5000001    1    1    2    0    0  0.90252997505E+02 -0.40460638400E+02  0.51892914101E+03  0.55343935549E+03  0.16500000000E+03 0.  0.
<mgrwt>
<rscale>  0 0.40188166E+03</rscale>
<asrwt>0</asrwt>
<pdfrwt beam="1">  1        2 0.23200006E+00 0.40188166E+03</pdfrwt>
<pdfrwt beam="2">  1       -2 0.41192825E-02 0.40188166E+03</pdfrwt>
<totfact> 0.35547843E+03</totfact>
</mgrwt>
</event>
<event>
 4    1  0.3213443E-005  0.1023640E+04  0.7818608E-02  0.9282991E-01
          2   -1    0    0  501    0  0.00000000000E+00  0.00000000000E+00  0.92179942933E+03  0.92179942933E+03  0.25500000000E-02 0. -1.
         -2   -1    0    0    0  501 -0.00000000000E+00 -0.00000000000E+00 -0.28418282134E+03  0.28418282135E+03  0.25500000000E-02 0.  1.
    5000001    1    1    2    0    0  0.89058976894E+02  0.36187200563E+03  0.68355698562E+03  0.79583792471E+03  0.16500000000E+03 0.  0.
   -5000001    1    1    2    0    0 -0.89058976894E+02 -0.36187200563E+03 -0.45940377630E+02  0.41014432597E+03  0.16500000000E+03 0.  0.
<mgrwt>
<rscale>  0 0.10236397E+04</rscale>
<asrwt>0</asrwt>
<pdfrwt beam="1">  1        2 0.14181530E+00 0.10236397E+04</pdfrwt>
<pdfrwt beam="2">  1       -2 0.43720434E-01 0.10236397E+04</pdfrwt>
<totfact> 0.14015204E+02</totfact>
</mgrwt>
</event>
<event>
 4    1  0.3213443E-005  0.5408064E+03  0.7818608E-02  0.1003645E+00
          2   -1    0    0  501    0  0.00000000000E+00  0.00000000000E+00  0.98845455948E+03  0.98845455949E+03  0.25500000000E-02 0.  1.
         -2   -1    0    0    0  501 -0.00000000000E+00 -0.00000000000E+00 -0.73971920075E+02  0.73971920119E+02  0.25500000000E-02 0. -1.
    5000001    1    1    2    0    0 -0.93875683072E+02  0.19098514713E+03  0.40892398448E+03  0.48962413684E+03  0.16500000000E+03 0.  0.
   -5000001    1    1    2    0    0  0.93875683072E+02 -0.19098514713E+03  0.50555865493E+03  0.57280234276E+03  0.16500000000E+03 0.  0.
<mgrwt>
<rscale>  0 0.54080637E+03</rscale>
<asrwt>0</asrwt>
<pdfrwt beam="1">  1        2 0.15206992E+00 0.54080637E+03</pdfrwt>
<pdfrwt beam="2">  1       -2 0.11380297E-01 0.54080637E+03</pdfrwt>
<totfact> 0.14336669E+03</totfact>
</mgrwt>
</event>
<event>
 4    1  0.3213443E-005  0.4681663E+03  0.7818608E-02  0.1022439E+00
          2   -1    0    0  501    0  0.00000000000E+00  0.00000000000E+00  0.92392308514E+03  0.92392308514E+03  0.25500000000E-02 0.  1.
         -2   -1    0    0    0  501 -0.00000000000E+00 -0.00000000000E+00 -0.59306793544E+02  0.59306793599E+02  0.25500000000E-02 0. -1.
    5000001    1    1    2    0    0 -0.13466336848E+03  0.30480632633E+01  0.22840312335E+03  0.31230834164E+03  0.16500000000E+03 0.  0.
   -5000001    1    1    2    0    0  0.13466336848E+03 -0.30480632633E+01  0.63621316825E+03  0.67092153711E+03  0.16500000000E+03 0.  0.
<mgrwt>
<rscale>  0 0.46816628E+03</rscale>
<asrwt>0</asrwt>
<pdfrwt beam="1">  1        2 0.14214201E+00 0.46816628E+03</pdfrwt>
<pdfrwt beam="2">  1       -2 0.91241224E-02 0.46816628E+03</pdfrwt>
<totfact> 0.22568806E+03</totfact>
</mgrwt>
</event>
<event>
 4    1  0.3213443E-005  0.7355373E+03  0.7818608E-02  0.9658317E-01
          2   -1    0    0  501    0  0.00000000000E+00  0.00000000000E+00  0.96829847030E+03  0.96829847030E+03  0.25500000000E-02 0.  1.
         -2   -1    0    0    0  501 -0.00000000000E+00 -0.00000000000E+00 -0.13968189651E+03  0.13968189653E+03  0.25500000000E-02 0. -1.
    5000001    1    1    2    0    0  0.11158845989E+03  0.16266660554E+03  0.18287660023E+02  0.25782134793E+03  0.16500000000E+03 0.  0.
   -5000001    1    1    2    0    0 -0.11158845989E+03 -0.16266660554E+03  0.81032891377E+03  0.85015901891E+03  0.16500000000E+03 0.  0.
<mgrwt>
<rscale>  0 0.73553726E+03</rscale>
<asrwt>0</asrwt>
<pdfrwt beam="1">  1        2 0.14896899E+00 0.73553726E+03</pdfrwt>
<pdfrwt beam="2">  1       -2 0.21489523E-01 0.73553726E+03</pdfrwt>
<totfact> 0.49951453E+02</totfact>
</mgrwt>
</event>
<event>
 4    1  0.3213443E-005  0.3694015E+03  0.7818608E-02  0.1054922E+00
         -2   -1    0    0    0  501 -0.00000000000E+00  0.00000000000E+00  0.24283908080E+02  0.24283908214E+02  0.25500000000E-02 0. -1.
          2   -1    0    0  501    0  0.00000000000E+00 -0.00000000000E+00 -0.14048136629E+04  0.14048136629E+04  0.25500000000E-02 0.  1.
    5000001    1    1    2    0    0  0.28258261001E+02 -0.67930085109E+02 -0.54161777323E+03  0.57095344649E+03  0.16500000000E+03 0.  0.
   -5000001    1    1    2    0    0 -0.28258261001E+02  0.67930085109E+02 -0.83891198160E+03  0.85814412463E+03  0.16500000000E+03 0.  0.
<mgrwt>
<rscale>  0 0.36940149E+03</rscale>
<asrwt>0</asrwt>
<pdfrwt beam="1">  1        2 0.21612512E+00 0.36940149E+03</pdfrwt>
<pdfrwt beam="2">  1       -2 0.37359870E-02 0.36940149E+03</pdfrwt>
<totfact> 0.46943329E+03</totfact>
</mgrwt>
</event>
<event>
 4    1  0.3213443E-005  0.4244834E+03  0.7818608E-02  0.1035617E+00
         -2   -1    0    0    0  501 -0.00000000000E+00  0.00000000000E+00  0.77050915557E+03  0.77050915558E+03  0.25500000000E-02 0. -1.
          2   -1    0    0  501    0  0.00000000000E+00 -0.00000000000E+00 -0.58463330153E+02  0.58463330209E+02  0.25500000000E-02 0.  1.
    5000001    1    1    2    0    0  0.34320171771E+02 -0.87709758724E+02  0.54078244649E+03  0.57318542409E+03  0.16500000000E+03 0.  0.
   -5000001    1    1    2    0    0 -0.34320171771E+02  0.87709758724E+02  0.17126337893E+03  0.25578706169E+03  0.16500000000E+03 0.  0.
<mgrwt>
<rscale>  0 0.42448336E+03</rscale>
<asrwt>0</asrwt>
<pdfrwt beam="1">  1        2 0.89943590E-02 0.42448336E+03</pdfrwt>
<pdfrwt beam="2">  1       -2 0.11853986E+00 0.42448336E+03</pdfrwt>
<totfact> 0.42101270E+02</totfact>
</mgrwt>
</event>
<event>
 4    1  0.3213443E-005  0.4891150E+03  0.7818608E-02  0.1016660E+00
          2   -1    0    0  501    0  0.00000000000E+00  0.00000000000E+00  0.26983293669E+03  0.26983293671E+03  0.25500000000E-02 0.  1.
         -2   -1    0    0    0  501 -0.00000000000E+00 -0.00000000000E+00 -0.22164963818E+03  0.22164963819E+03  0.25500000000E-02 0. -1.
    5000001    1    1    2    0    0  0.41040907822E+02  0.14326341006E+03 -0.78257224476E+02  0.23570734813E+03  0.16500000000E+03 0.  0.
   -5000001    1    1    2    0    0 -0.41040907822E+02 -0.14326341006E+03  0.12644052299E+03  0.25577522677E+03  0.16500000000E+03 0.  0.
<mgrwt>
<rscale>  0 0.48911501E+03</rscale>
<asrwt>0</asrwt>
<pdfrwt beam="1">  1        2 0.41512760E-01 0.48911501E+03</pdfrwt>
<pdfrwt beam="2">  1       -2 0.34099944E-01 0.48911501E+03</pdfrwt>
<totfact> 0.99620710E+02</totfact>
</mgrwt>
</event>
<event>
 4    1  0.3213443E-005  0.6698660E+03  0.7818608E-02  0.9770200E-01
         -2   -1    0    0    0  501 -0.00000000000E+00  0.00000000000E+00  0.47418217433E+03  0.47418217434E+03  0.25500000000E-02 0.  1.
          2   -1    0    0  501    0  0.00000000000E+00 -0.00000000000E+00 -0.23657600398E+03  0.23657600399E+03  0.25500000000E-02 0. -1.
    5000001    1    1    2    0    0 -0.66982552615E+01 -0.17842015653E+03 -0.12564411720E+03  0.27366048868E+03  0.16500000000E+03 0.  0.
   -5000001    1    1    2    0    0  0.66982552615E+01  0.17842015653E+03  0.36325028756E+03  0.43709768964E+03  0.16500000000E+03 0.  0.
<mgrwt>
<rscale>  0 0.66986603E+03</rscale>
<asrwt>0</asrwt>
<pdfrwt beam="1">  1        2 0.36396308E-01 0.66986603E+03</pdfrwt>
<pdfrwt beam="2">  1       -2 0.72951103E-01 0.66986603E+03</pdfrwt>
<totfact> 0.24553620E+02</totfact>
</mgrwt>
</event>
<event>
 4    1  0.3213443E-005  0.7351887E+03  0.7818608E-02  0.9658878E-01
         -2   -1    0    0    0  501 -0.00000000000E+00  0.00000000000E+00  0.61895056011E+02  0.61895056063E+02  0.25500000000E-02 0. -1.
          2   -1    0    0  501    0  0.00000000000E+00 -0.00000000000E+00 -0.21831404677E+04  0.21831404677E+04  0.25500000000E-02 0.  1.
    5000001    1    1    2    0    0 -0.32274372648E+03 -0.33538061782E+02 -0.90454716549E+03  0.97504814711E+03  0.16500000000E+03 0.  0.
   -5000001    1    1    2    0    0  0.32274372648E+03  0.33538061782E+02 -0.12166982462E+04  0.12699873766E+04  0.16500000000E+03 0.  0.
<mgrwt>
<rscale>  0 0.73518869E+03</rscale>
<asrwt>0</asrwt>
<pdfrwt beam="1">  1        2 0.33586770E+00 0.73518869E+03</pdfrwt>
<pdfrwt beam="2">  1       -2 0.95223180E-02 0.73518869E+03</pdfrwt>
<totfact> 0.40389887E+02</totfact>
</mgrwt>
</event>
<event>
 4    1  0.3213443E-005  0.3992607E+03  0.7818608E-02  0.1044036E+00
          2   -1    0    0  501    0  0.00000000000E+00  0.00000000000E+00  0.27400866077E+04  0.27400866077E+04  0.25500000000E-02 0.  1.
         -2   -1    0    0    0  501 -0.00000000000E+00 -0.00000000000E+00 -0.14544167023E+02  0.14544167246E+02  0.25500000000E-02 0. -1.
    5000001    1    1    2    0    0 -0.10969855865E+03 -0.21722247137E+02  0.12866757241E+04  0.13020234440E+04  0.16500000000E+03 0.  0.
   -5000001    1    1    2    0    0  0.10969855865E+03  0.21722247137E+02  0.14388667166E+04  0.14526073309E+04  0.16500000000E+03 0.  0.
<mgrwt>
<rscale>  0 0.39926070E+03</rscale>
<asrwt>0</asrwt>
<pdfrwt beam="1">  1        2 0.42155173E+00 0.39926070E+03</pdfrwt>
<pdfrwt beam="2">  1       -2 0.22375645E-02 0.39926070E+03</pdfrwt>
<totfact> 0.19050327E+03</totfact>
</mgrwt>
</event>
<event>
 4    1  0.3213443E-005  0.5319860E+03  0.7818608E-02  0.1005752E+00
          2   -1    0    0  501    0  0.00000000000E+00  0.00000000000E+00  0.57980513998E+03  0.57980513999E+03  0.25500000000E-02 0.  1.
         -2   -1    0    0    0  501 -0.00000000000E+00 -0.00000000000E+00 -0.12202768869E+03  0.12202768872E+03  0.25500000000E-02 0. -1.
    5000001    1    1    2    0    0  0.18923327899E+03 -0.33248339187E+02  0.12160856169E+03  0.28094185913E+03  0.16500000000E+03 0.  0.
   -5000001    1    1    2    0    0 -0.18923327899E+03  0.33248339187E+02  0.33616888960E+03  0.42089096958E+03  0.16500000000E+03 0.  0.
<mgrwt>
<rscale>  0 0.53198602E+03</rscale>
<asrwt>0</asrwt>
<pdfrwt beam="1">  1        2 0.89200792E-01 0.53198602E+03</pdfrwt>
<pdfrwt beam="2">  1       -2 0.18773490E-01 0.53198602E+03</pdfrwt>
<totfact> 0.12341625E+03</totfact>
</mgrwt>
</event>
<event>
 4    1  0.3213443E-005  0.3775252E+03  0.7818608E-02  0.1051852E+00
         -2   -1    0    0    0  501 -0.00000000000E+00  0.00000000000E+00  0.47856386082E+02  0.47856386150E+02  0.25500000000E-02 0. -1.
          2   -1    0    0  501    0  0.00000000000E+00 -0.00000000000E+00 -0.74454680215E+03  0.74454680216E+03  0.25500000000E-02 0.  1.
    5000001    1    1    2    0    0 -0.75851883920E+02 -0.21864878705E+02 -0.25046300344E+03  0.31014238231E+03  0.16500000000E+03 0.  0.
   -5000001    1    1    2    0    0  0.75851883920E+02  0.21864878705E+02 -0.44622741263E+03  0.48226080599E+03  0.16500000000E+03 0.  0.
<mgrwt>
<rscale>  0 0.37752520E+03</rscale>
<asrwt>0</asrwt>
<pdfrwt beam="1">  1        2 0.11454565E+00 0.37752520E+03</pdfrwt>
<pdfrwt beam="2">  1       -2 0.73625215E-02 0.37752520E+03</pdfrwt>
<totfact> 0.42062391E+03</totfact>
</mgrwt>
</event>
<event>
 4    1  0.3213443E-005  0.4811044E+03  0.7818608E-02  0.1018832E+00
          2   -1    0    0  501    0  0.00000000000E+00  0.00000000000E+00  0.10498078986E+03  0.10498078989E+03  0.25500000000E-02 0.  1.
         -2   -1    0    0    0  501 -0.00000000000E+00 -0.00000000000E+00 -0.55119945367E+03  0.55119945368E+03  0.25500000000E-02 0. -1.
    5000001    1    1    2    0    0  0.17226763994E+03 -0.26708138888E+02 -0.24471288352E+03  0.34278106689E+03  0.16500000000E+03 0.  0.
   -5000001    1    1    2    0    0 -0.17226763994E+03  0.26708138888E+02 -0.20150578029E+03  0.31339917668E+03  0.16500000000E+03 0.  0.
<mgrwt>
<rscale>  0 0.48110437E+03</rscale>
<asrwt>0</asrwt>
<pdfrwt beam="1">  1        2 0.16150891E-01 0.48110437E+03</pdfrwt>
<pdfrwt beam="2">  1       -2 0.84799914E-01 0.48110437E+03</pdfrwt>
<totfact> 0.44831389E+02</totfact>
</mgrwt>
</event>
<event>
 4    1  0.3213443E-005  0.5263584E+03  0.7818608E-02  0.1007119E+00
          2   -1    0    0  501    0  0.00000000000E+00  0.00000000000E+00  0.68975553563E+02  0.68975553610E+02  0.25500000000E-02 0.  1.
         -2   -1    0    0    0  501 -0.00000000000E+00 -0.00000000000E+00 -0.10041714101E+04  0.10041714101E+04  0.25500000000E-02 0. -1.
    5000001    1    1    2    0    0  0.12661019734E+03  0.61280763879E+01 -0.79616083784E+03  0.82290022183E+03  0.16500000000E+03 0.  0.
   -5000001    1    1    2    0    0 -0.12661019734E+03 -0.61280763879E+01 -0.13903501867E+03  0.25024674185E+03  0.16500000000E+03 0.  0.
<mgrwt>
<rscale>  0 0.52635835E+03</rscale>
<asrwt>0</asrwt>
<pdfrwt beam="1">  1        2 0.10611624E-01 0.52635835E+03</pdfrwt>
<pdfrwt beam="2">  1       -2 0.15448790E+00 0.52635835E+03</pdfrwt>
<totfact> 0.17387100E+02</totfact>
</mgrwt>
</event>
<event>
 4    1  0.3213443E-005  0.4992142E+03  0.7818608E-02  0.1013984E+00
         -2   -1    0    0    0  501 -0.00000000000E+00  0.00000000000E+00  0.45712572313E+02  0.45712572384E+02  0.25500000000E-02 0. -1.
          2   -1    0    0  501    0  0.00000000000E+00 -0.00000000000E+00 -0.13629446335E+04  0.13629446335E+04  0.25500000000E-02 0.  1.
    5000001    1    1    2    0    0 -0.43245255592E+02  0.15981659526E+03 -0.90569571436E+03  0.93537223781E+03  0.16500000000E+03 0.  0.
   -5000001    1    1    2    0    0  0.43245255592E+02 -0.15981659526E+03 -0.41153634683E+03  0.47328496808E+03  0.16500000000E+03 0.  0.
<mgrwt>
<rscale>  0 0.49921420E+03</rscale>
<asrwt>0</asrwt>
<pdfrwt beam="1">  1        2 0.20968376E+00 0.49921420E+03</pdfrwt>
<pdfrwt beam="2">  1       -2 0.70327045E-02 0.49921420E+03</pdfrwt>
<totfact> 0.18645594E+03</totfact>
</mgrwt>
</event>
<event>
 4    1  0.3213443E-005  0.4768581E+03  0.7818608E-02  0.1020002E+00
          2   -1    0    0  501    0  0.00000000000E+00  0.00000000000E+00  0.12298903738E+03  0.12298903741E+03  0.25500000000E-02 0.  1.
         -2   -1    0    0    0  501 -0.00000000000E+00 -0.00000000000E+00 -0.46222334287E+03  0.46222334287E+03  0.25500000000E-02 0. -1.
    5000001    1    1    2    0    0 -0.10175458021E+03  0.13719313184E+03 -0.19557678655E+03  0.30765439938E+03  0.16500000000E+03 0.  0.
   -5000001    1    1    2    0    0  0.10175458021E+03 -0.13719313184E+03 -0.14365751893E+03  0.27755798090E+03  0.16500000000E+03 0.  0.
<mgrwt>
<rscale>  0 0.47685807E+03</rscale>
<asrwt>0</asrwt>
<pdfrwt beam="1">  1        2 0.18921391E-01 0.47685807E+03</pdfrwt>
<pdfrwt beam="2">  1       -2 0.71111283E-01 0.47685807E+03</pdfrwt>
<totfact> 0.54903075E+02</totfact>
</mgrwt>
</event>
<event>
 4    1  0.3213443E-005  0.5537829E+03  0.7818608E-02  0.1000622E+00
          2   -1    0    0  501    0  0.00000000000E+00  0.00000000000E+00  0.23138510576E+04  0.23138510576E+04  0.25500000000E-02 0.  1.
         -2   -1    0    0    0  501 -0.00000000000E+00 -0.00000000000E+00 -0.33134745163E+02  0.33134745261E+02  0.25500000000E-02 0. -1.
    5000001    1    1    2    0    0 -0.21846776825E+03  0.30247813753E+02  0.10204290371E+04  0.10569501009E+04  0.16500000000E+03 0.  0.
   -5000001    1    1    2    0    0  0.21846776825E+03 -0.30247813753E+02  0.12602872754E+04  0.12900357020E+04  0.16500000000E+03 0.  0.
<mgrwt>
<rscale>  0 0.55378286E+03</rscale>
<asrwt>0</asrwt>
<pdfrwt beam="1">  1        2 0.35597723E+00 0.55378286E+03</pdfrwt>
<pdfrwt beam="2">  1       -2 0.50976510E-02 0.55378286E+03</pdfrwt>
<totfact> 0.93384596E+02</totfact>
</mgrwt>
</event>
<event>
 4    1  0.3213443E-005  0.4404130E+03  0.7818608E-02  0.1030620E+00
         -2   -1    0    0    0  501 -0.00000000000E+00  0.00000000000E+00  0.70154053616E+03  0.70154053616E+03  0.25500000000E-02 0. -1.
          2   -1    0    0  501    0  0.00000000000E+00 -0.00000000000E+00 -0.69120590717E+02  0.69120590764E+02  0.25500000000E-02 0.  1.
    5000001    1    1    2    0    0 -0.12156521591E+03 -0.48531406890E+02  0.42869886274E+03  0.47764119807E+03  0.16500000000E+03 0.  0.
   -5000001    1    1    2    0    0  0.12156521591E+03  0.48531406890E+02  0.20372108269E+03  0.29301992886E+03  0.16500000000E+03 0.  0.
<mgrwt>
<rscale>  0 0.44041297E+03</rscale>
<asrwt>0</asrwt>
<pdfrwt beam="1">  1        2 0.10633938E-01 0.44041297E+03</pdfrwt>
<pdfrwt beam="2">  1       -2 0.10792931E+00 0.44041297E+03</pdfrwt>
<totfact> 0.42710604E+02</totfact>
</mgrwt>
</event>
<event>
 4    1  0.3213443E-005  0.9558669E+03  0.7818608E-02  0.9358319E-01
         -2   -1    0    0    0  501 -0.00000000000E+00  0.00000000000E+00  0.15284538060E+03  0.15284538062E+03  0.25500000000E-02 0. -1.
          2   -1    0    0  501    0  0.00000000000E+00 -0.00000000000E+00 -0.14944538642E+04  0.14944538642E+04  0.25500000000E-02 0.  1.
    5000001    1    1    2    0    0 -0.42154505629E+02  0.44418002621E+03 -0.75019976915E+03  0.88831165233E+03  0.16500000000E+03 0.  0.
   -5000001    1    1    2    0    0  0.42154505629E+02 -0.44418002621E+03 -0.59140871447E+03  0.75898759251E+03  0.16500000000E+03 0.  0.
<mgrwt>
<rscale>  0 0.95586687E+03</rscale>
<asrwt>0</asrwt>
<pdfrwt beam="1">  1        2 0.22991597E+00 0.95586687E+03</pdfrwt>
<pdfrwt beam="2">  1       -2 0.23514675E-01 0.95586687E+03</pdfrwt>
<totfact> 0.20485957E+02</totfact>
</mgrwt>
</event>
<event>
 4    1  0.3213443E-005  0.3565284E+03  0.7818608E-02  0.1059967E+00
         -2   -1    0    0    0  501 -0.00000000000E+00  0.00000000000E+00  0.36902091182E+02  0.36902091270E+02  0.25500000000E-02 0. -1.
          2   -1    0    0  501    0  0.00000000000E+00 -0.00000000000E+00 -0.86114698370E+03  0.86114698370E+03  0.25500000000E-02 0.  1.
    5000001    1    1    2    0    0 -0.17606154805E+01 -0.61768180808E+02 -0.48039810155E+03  0.51168910864E+03  0.16500000000E+03 0.  0.
   -5000001    1    1    2    0    0  0.17606154805E+01  0.61768180808E+02 -0.34384679096E+03  0.38635996633E+03  0.16500000000E+03 0.  0.
<mgrwt>
<rscale>  0 0.35652840E+03</rscale>
<asrwt>0</asrwt>
<pdfrwt beam="1">  1        2 0.13248414E+00 0.35652840E+03</pdfrwt>
<pdfrwt beam="2">  1       -2 0.56772455E-02 0.35652840E+03</pdfrwt>
<totfact> 0.52166341E+03</totfact>
</mgrwt>
</event>
<event>
 4    1  0.3213443E-005  0.4013546E+03  0.7818608E-02  0.1043312E+00
          2   -1    0    0  501    0  0.00000000000E+00  0.00000000000E+00  0.12440417389E+04  0.12440417389E+04  0.25500000000E-02 0.  1.
         -2   -1    0    0    0  501 -0.00000000000E+00 -0.00000000000E+00 -0.32371405144E+02  0.32371405244E+02  0.25500000000E-02 0. -1.
    5000001    1    1    2    0    0 -0.70245421304E+02 -0.83500677737E+02  0.71319421046E+03  0.74012010122E+03  0.16500000000E+03 0.  0.
   -5000001    1    1    2    0    0  0.70245421304E+02  0.83500677737E+02  0.49847612332E+03  0.53629304295E+03  0.16500000000E+03 0.  0.
<mgrwt>
<rscale>  0 0.40135460E+03</rscale>
<asrwt>0</asrwt>
<pdfrwt beam="1">  1        2 0.19139107E+00 0.40135460E+03</pdfrwt>
<pdfrwt beam="2">  1       -2 0.49802154E-02 0.40135460E+03</pdfrwt>
<totfact> 0.37266489E+03</totfact>
</mgrwt>
</event>
<event>
 4    1  0.3213443E-005  0.6328714E+03  0.7818608E-02  0.9839461E-01
         -2   -1    0    0    0  501 -0.00000000000E+00  0.00000000000E+00  0.32988984771E+03  0.32988984772E+03  0.25500000000E-02 0. -1.
          2   -1    0    0  501    0  0.00000000000E+00 -0.00000000000E+00 -0.30353023586E+03  0.30353023587E+03  0.25500000000E-02 0.  1.
    5000001    1    1    2    0    0 -0.25725656318E+03  0.73717450406E+02  0.49146202798E+02  0.31820677404E+03  0.16500000000E+03 0.  0.
   -5000001    1    1    2    0    0  0.25725656318E+03 -0.73717450406E+02 -0.22786590953E+02  0.31521330955E+03  0.16500000000E+03 0.  0.
<mgrwt>
<rscale>  0 0.63287137E+03</rscale>
<asrwt>0</asrwt>
<pdfrwt beam="1">  1        2 0.46696959E-01 0.63287137E+03</pdfrwt>
<pdfrwt beam="2">  1       -2 0.50752284E-01 0.63287137E+03</pdfrwt>
<totfact> 0.40145641E+02</totfact>
</mgrwt>
</event>
<event>
 4    1  0.3213443E-005  0.4448339E+03  0.7818608E-02  0.1029274E+00
         -2   -1    0    0    0  501 -0.00000000000E+00  0.00000000000E+00  0.36513810849E+02  0.36513810938E+02  0.25500000000E-02 0. -1.
          2   -1    0    0  501    0  0.00000000000E+00 -0.00000000000E+00 -0.13548108336E+04  0.13548108336E+04  0.25500000000E-02 0.  1.
    5000001    1    1    2    0    0  0.12459444916E+03 -0.42235583263E+02 -0.43938869007E+03  0.48743721874E+03  0.16500000000E+03 0.  0.
   -5000001    1    1    2    0    0 -0.12459444916E+03  0.42235583263E+02 -0.87890833264E+03  0.90388742576E+03  0.16500000000E+03 0.  0.
<mgrwt>
<rscale>  0 0.44483393E+03</rscale>
<asrwt>0</asrwt>
<pdfrwt beam="1">  1        2 0.20843240E+00 0.44483393E+03</pdfrwt>
<pdfrwt beam="2">  1       -2 0.56175104E-02 0.44483393E+03</pdfrwt>
<totfact> 0.26792896E+03</totfact>
</mgrwt>
</event>
<event>
 4    1  0.3213443E-005  0.5313853E+03  0.7818608E-02  0.1005897E+00
         -2   -1    0    0    0  501 -0.00000000000E+00  0.00000000000E+00  0.42593392142E+03  0.42593392143E+03  0.25500000000E-02 0. -1.
          2   -1    0    0  501    0  0.00000000000E+00 -0.00000000000E+00 -0.16573601588E+03  0.16573601590E+03  0.25500000000E-02 0.  1.
    5000001    1    1    2    0    0  0.99605177664E+02  0.17349946247E+03  0.19448991516E+03  0.32415209700E+03  0.16500000000E+03 0.  0.
   -5000001    1    1    2    0    0 -0.99605177664E+02 -0.17349946247E+03  0.65707990382E+02  0.26751784033E+03  0.16500000000E+03 0.  0.
<mgrwt>
<rscale>  0 0.53138533E+03</rscale>
<asrwt>0</asrwt>
<pdfrwt beam="1">  1        2 0.25497849E-01 0.53138533E+03</pdfrwt>
<pdfrwt beam="2">  1       -2 0.65528295E-01 0.53138533E+03</pdfrwt>
<totfact> 0.46376780E+02</totfact>
</mgrwt>
</event>
<event>
 4    1  0.3213443E-005  0.7175776E+03  0.7818608E-02  0.9687635E-01
         -2   -1    0    0    0  501 -0.00000000000E+00  0.00000000000E+00  0.12393072683E+03  0.12393072686E+03  0.25500000000E-02 0. -1.
          2   -1    0    0  501    0  0.00000000000E+00 -0.00000000000E+00 -0.10387207131E+04  0.10387207131E+04  0.25500000000E-02 0.  1.
    5000001    1    1    2    0    0  0.26911053945E+03 -0.19003209804E+02 -0.18279906345E+03  0.36526990299E+03  0.16500000000E+03 0.  0.
   -5000001    1    1    2    0    0 -0.26911053945E+03  0.19003209804E+02 -0.73199092286E+03  0.79738153702E+03  0.16500000000E+03 0.  0.
<mgrwt>
<rscale>  0 0.71757763E+03</rscale>
<asrwt>0</asrwt>
<pdfrwt beam="1">  1        2 0.15980318E+00 0.71757763E+03</pdfrwt>
<pdfrwt beam="2">  1       -2 0.19066266E-01 0.71757763E+03</pdfrwt>
<totfact> 0.55599188E+02</totfact>
</mgrwt>
</event>
<event>
 4    1  0.3213443E-005  0.1037779E+04  0.7818608E-02  0.9268053E-01
          2   -1    0    0  501    0  0.00000000000E+00  0.00000000000E+00  0.18223344469E+04  0.18223344469E+04  0.25500000000E-02 0.  1.
         -2   -1    0    0    0  501 -0.00000000000E+00 -0.00000000000E+00 -0.14774794789E+03  0.14774794792E+03  0.25500000000E-02 0. -1.
    5000001    1    1    2    0    0  0.14266769029E+03  0.41109297435E+03  0.12729655292E+04  0.13553662759E+04  0.16500000000E+03 0.  0.
   -5000001    1    1    2    0    0 -0.14266769029E+03 -0.41109297435E+03  0.40162096976E+03  0.61471611884E+03  0.16500000000E+03 0.  0.
<mgrwt>
<rscale>  0 0.10377787E+04</rscale>
<asrwt>0</asrwt>
<pdfrwt beam="1">  1        2 0.28035917E+00 0.10377787E+04</pdfrwt>
<pdfrwt beam="2">  1       -2 0.22730451E-01 0.10377787E+04</pdfrwt>
<totfact> 0.14247654E+02</totfact>
</mgrwt>
</event>
<event>
 4    1  0.3213443E-005  0.4176377E+03  0.7818608E-02  0.1037838E+00
         -2   -1    0    0    0  501 -0.00000000000E+00  0.00000000000E+00  0.10302157945E+03  0.10302157948E+03  0.25500000000E-02 0. -1.
          2   -1    0    0  501    0  0.00000000000E+00 -0.00000000000E+00 -0.42326387969E+03  0.42326387970E+03  0.25500000000E-02 0.  1.
    5000001    1    1    2    0    0 -0.79524854564E+02 -0.95605318558E+02 -0.12198767924E+03  0.23993868658E+03  0.16500000000E+03 0.  0.
   -5000001    1    1    2    0    0  0.79524854564E+02  0.95605318558E+02 -0.19825462100E+03  0.28634677260E+03  0.16500000000E+03 0.  0.
<mgrwt>
<rscale>  0 0.41763771E+03</rscale>
<asrwt>0</asrwt>
<pdfrwt beam="1">  1        2 0.65117519E-01 0.41763771E+03</pdfrwt>
<pdfrwt beam="2">  1       -2 0.15849474E-01 0.41763771E+03</pdfrwt>
<totfact> 0.23567162E+03</totfact>
</mgrwt>
</event>
<event>
 4    1  0.3213443E-005  0.5437512E+03  0.7818608E-02  0.1002951E+00
          2   -1    0    0  501    0  0.00000000000E+00  0.00000000000E+00  0.58484428554E+02  0.58484428609E+02  0.25500000000E-02 0.  1.
         -2   -1    0    0    0  501 -0.00000000000E+00 -0.00000000000E+00 -0.12638636759E+04  0.12638636759E+04  0.25500000000E-02 0. -1.
    5000001    1    1    2    0    0  0.13906624493E+03  0.82987657164E+02 -0.95058699686E+03  0.97829801713E+03  0.16500000000E+03 0.  0.
   -5000001    1    1    2    0    0 -0.13906624493E+03 -0.82987657164E+02 -0.25479225049E+03  0.34405008738E+03  0.16500000000E+03 0.  0.
<mgrwt>
<rscale>  0 0.54375121E+03</rscale>
<asrwt>0</asrwt>
<pdfrwt beam="1">  1        2 0.89976054E-02 0.54375121E+03</pdfrwt>
<pdfrwt beam="2">  1       -2 0.19444054E+00 0.54375121E+03</pdfrwt>
<totfact> 0.11306323E+02</totfact>
</mgrwt>
</event>
<event>
 4    1  0.3213443E-005  0.5039371E+03  0.7818608E-02  0.1012756E+00
          2   -1    0    0  501    0  0.00000000000E+00  0.00000000000E+00  0.15716212778E+04  0.15716212778E+04  0.25500000000E-02 0.  1.
         -2   -1    0    0    0  501 -0.00000000000E+00 -0.00000000000E+00 -0.40396598082E+02  0.40396598163E+02  0.25500000000E-02 0. -1.
    5000001    1    1    2    0    0  0.12740640341E+03  0.80852757534E+02  0.39402807390E+03  0.45304821273E+03  0.16500000000E+03 0.  0.
   -5000001    1    1    2    0    0 -0.12740640341E+03 -0.80852757534E+02  0.11371966058E+04  0.11589696632E+04  0.16500000000E+03 0.  0.
<mgrwt>
<rscale>  0 0.50393711E+03</rscale>
<asrwt>0</asrwt>
<pdfrwt beam="1">  1        2 0.24178784E+00 0.50393711E+03</pdfrwt>
<pdfrwt beam="2">  1       -2 0.62148624E-02 0.50393711E+03</pdfrwt>
<totfact> 0.17362840E+03</totfact>
</mgrwt>
</event>
<event>
 4    1  0.3213443E-005  0.5446115E+03  0.7818608E-02  0.1002749E+00
         -2   -1    0    0    0  501 -0.00000000000E+00  0.00000000000E+00  0.47777493673E+02  0.47777493741E+02  0.25500000000E-02 0. -1.
          2   -1    0    0  501    0  0.00000000000E+00 -0.00000000000E+00 -0.15519946158E+04  0.15519946158E+04  0.25500000000E-02 0.  1.
    5000001    1    1    2    0    0 -0.19636115346E+03 -0.75027254426E+02 -0.59838609434E+03  0.65534548858E+03  0.16500000000E+03 0.  0.
   -5000001    1    1    2    0    0  0.19636115346E+03  0.75027254426E+02 -0.90583102777E+03  0.94442662095E+03  0.16500000000E+03 0.  0.
<mgrwt>
<rscale>  0 0.54461147E+03</rscale>
<asrwt>0</asrwt>
<pdfrwt beam="1">  1        2 0.23876836E+00 0.54461147E+03</pdfrwt>
<pdfrwt beam="2">  1       -2 0.73503848E-02 0.54461147E+03</pdfrwt>
<totfact> 0.13646418E+03</totfact>
</mgrwt>
</event>
<event>
 4    1  0.3213443E-005  0.9361239E+03  0.7818608E-02  0.9381518E-01
         -2   -1    0    0    0  501 -0.00000000000E+00  0.00000000000E+00  0.56359215210E+03  0.56359215211E+03  0.25500000000E-02 0. -1.
          2   -1    0    0  501    0  0.00000000000E+00 -0.00000000000E+00 -0.38872430889E+03  0.38872430890E+03  0.25500000000E-02 0.  1.
    5000001    1    1    2    0    0 -0.16323382824E+03 -0.39833666491E+03  0.51673897450E+01  0.46105214804E+03  0.16500000000E+03 0.  0.
   -5000001    1    1    2    0    0  0.16323382824E+03  0.39833666491E+03  0.16970045346E+03  0.49126431297E+03  0.16500000000E+03 0.  0.
<mgrwt>
<rscale>  0 0.93612386E+03</rscale>
<asrwt>0</asrwt>
<pdfrwt beam="1">  1        2 0.59803740E-01 0.93612386E+03</pdfrwt>
<pdfrwt beam="2">  1       -2 0.86706484E-01 0.93612386E+03</pdfrwt>
<totfact> 0.94768006E+01</totfact>
</mgrwt>
</event>
<event>
 4    1  0.3213443E-005  0.6305267E+03  0.7818608E-02  0.9844021E-01
          2   -1    0    0  501    0  0.00000000000E+00  0.00000000000E+00  0.11524570787E+04  0.11524570787E+04  0.25500000000E-02 0.  1.
         -2   -1    0    0    0  501 -0.00000000000E+00 -0.00000000000E+00 -0.86242685418E+02  0.86242685456E+02  0.25500000000E-02 0. -1.
    5000001    1    1    2    0    0 -0.18384682548E+03  0.19355422064E+03  0.47406929859E+03  0.56853284112E+03  0.16500000000E+03 0.  0.
   -5000001    1    1    2    0    0  0.18384682548E+03 -0.19355422064E+03  0.59214509467E+03  0.67016692302E+03  0.16500000000E+03 0.  0.
<mgrwt>
<rscale>  0 0.63052674E+03</rscale>
<asrwt>0</asrwt>
<pdfrwt beam="1">  1        2 0.17730107E+00 0.63052674E+03</pdfrwt>
<pdfrwt beam="2">  1       -2 0.13268107E-01 0.63052674E+03</pdfrwt>
<totfact> 0.88037798E+02</totfact>
</mgrwt>
</event>
<event>
 4    1  0.3213443E-005  0.3785869E+03  0.7818608E-02  0.1051457E+00
         -2   -1    0    0    0  501 -0.00000000000E+00  0.00000000000E+00  0.11183995641E+03  0.11183995644E+03  0.25500000000E-02 0.  1.
          2   -1    0    0  501    0  0.00000000000E+00 -0.00000000000E+00 -0.32038641023E+03  0.32038641024E+03  0.25500000000E-02 0. -1.
    5000001    1    1    2    0    0  0.45603351183E+02 -0.51656108637E+02 -0.33351034331E+02  0.18189367963E+03  0.16500000000E+03 0.  0.
   -5000001    1    1    2    0    0 -0.45603351183E+02  0.51656108637E+02 -0.17519541949E+03  0.25033268705E+03  0.16500000000E+03 0.  0.
<mgrwt>
<rscale>  0 0.37858686E+03</rscale>
<asrwt>0</asrwt>
<pdfrwt beam="1">  1        2 0.49290216E-01 0.37858686E+03</pdfrwt>
<pdfrwt beam="2">  1       -2 0.17206147E-01 0.37858686E+03</pdfrwt>
<totfact> 0.27818889E+03</totfact>
</mgrwt>
</event>
<event>
 4    1  0.3213443E-005  0.3488606E+03  0.7818608E-02  0.1063084E+00
          2   -1    0    0  501    0  0.00000000000E+00  0.00000000000E+00  0.10401193420E+03  0.10401193424E+03  0.25500000000E-02 0.  1.
         -2   -1    0    0    0  501 -0.00000000000E+00 -0.00000000000E+00 -0.29252346521E+03  0.29252346522E+03  0.25500000000E-02 0. -1.
    5000001    1    1    2    0    0 -0.35766227289E+01 -0.55886571286E+02 -0.85103698449E+02  0.19391683932E+03  0.16500000000E+03 0.  0.
   -5000001    1    1    2    0    0  0.35766227289E+01  0.55886571286E+02 -0.10340783256E+03  0.20261856014E+03  0.16500000000E+03 0.  0.
<mgrwt>
<rscale>  0 0.34886061E+03</rscale>
<asrwt>0</asrwt>
<pdfrwt beam="1">  1        2 0.16001836E-01 0.34886061E+03</pdfrwt>
<pdfrwt beam="2">  1       -2 0.45003610E-01 0.34886061E+03</pdfrwt>
<totfact> 0.17171565E+03</totfact>
</mgrwt>
</event>
<event>
 4    1  0.3213443E-005  0.1067496E+04  0.7818608E-02  0.9237465E-01
          2   -1    0    0  501    0  0.00000000000E+00  0.00000000000E+00  0.28195135376E+04  0.28195135376E+04  0.25500000000E-02 0.  1.
         -2   -1    0    0    0  501 -0.00000000000E+00 -0.00000000000E+00 -0.10104113464E+03  0.10104113467E+03  0.25500000000E-02 0. -1.
    5000001    1    1    2    0    0 -0.40248379671E+02 -0.37349709045E+03  0.42525082214E+03  0.59091731263E+03  0.16500000000E+03 0.  0.
   -5000001    1    1    2    0    0  0.40248379671E+02  0.37349709045E+03  0.22932215808E+04  0.23296373596E+04  0.16500000000E+03 0.  0.
<mgrwt>
<rscale>  0 0.10674958E+04</rscale>
<asrwt>0</asrwt>
<pdfrwt beam="1">  1        2 0.43377136E+00 0.10674958E+04</pdfrwt>
<pdfrwt beam="2">  1       -2 0.15544788E-01 0.10674958E+04</pdfrwt>
<totfact> 0.75189117E+01</totfact>
</mgrwt>
</event>
<event>
 4    1  0.3213443E-005  0.6474850E+03  0.7818608E-02  0.9811510E-01
          2   -1    0    0  501    0  0.00000000000E+00  0.00000000000E+00  0.58129160171E+03  0.58129160171E+03  0.25500000000E-02 0.  1.
         -2   -1    0    0    0  501 -0.00000000000E+00 -0.00000000000E+00 -0.18030401833E+03  0.18030401834E+03  0.25500000000E-02 0. -1.
    5000001    1    1    2    0    0 -0.25503965139E+03 -0.11071479277E+03  0.18076866745E+03  0.37041233814E+03  0.16500000000E+03 0.  0.
   -5000001    1    1    2    0    0  0.25503965139E+03  0.11071479277E+03  0.22021891593E+03  0.39118328191E+03  0.16500000000E+03 0.  0.
<mgrwt>
<rscale>  0 0.64748502E+03</rscale>
<asrwt>0</asrwt>
<pdfrwt beam="1">  1        2 0.89429477E-01 0.64748502E+03</pdfrwt>
<pdfrwt beam="2">  1       -2 0.27739080E-01 0.64748502E+03</pdfrwt>
<totfact> 0.61447529E+02</totfact>
</mgrwt>
</event>
<event>
 4    1  0.3213443E-005  0.6728193E+03  0.7818608E-02  0.9764878E-01
          2   -1    0    0  501    0  0.00000000000E+00  0.00000000000E+00  0.58746376530E+02  0.58746376585E+02  0.25500000000E-02 0.  1.
         -2   -1    0    0    0  501 -0.00000000000E+00 -0.00000000000E+00 -0.19264413499E+04  0.19264413499E+04  0.25500000000E-02 0. -1.
    5000001    1    1    2    0    0 -0.22820025926E+03 -0.10934868148E+03 -0.49706668083E+03  0.58166380122E+03  0.16500000000E+03 0.  0.
   -5000001    1    1    2    0    0  0.22820025926E+03  0.10934868148E+03 -0.13706282925E+04  0.14035239252E+04  0.16500000000E+03 0.  0.
<mgrwt>
<rscale>  0 0.67281929E+03</rscale>
<asrwt>0</asrwt>
<pdfrwt beam="1">  1        2 0.90379055E-02 0.67281929E+03</pdfrwt>
<pdfrwt beam="2">  1       -2 0.29637554E+00 0.67281929E+03</pdfrwt>
<totfact> 0.26512754E+01</totfact>
</mgrwt>
</event>
<event>
 4    1  0.3213443E-005  0.4848234E+03  0.7818608E-02  0.1017818E+00
         -2   -1    0    0    0  501 -0.00000000000E+00  0.00000000000E+00  0.60797860961E+02  0.60797861014E+02  0.25500000000E-02 0. -1.
          2   -1    0    0  501    0  0.00000000000E+00 -0.00000000000E+00 -0.96653775734E+03  0.96653775735E+03  0.25500000000E-02 0.  1.
    5000001    1    1    2    0    0 -0.70670326188E+02  0.12070693702E+03 -0.68474170080E+03  0.71809515836E+03  0.16500000000E+03 0.  0.
   -5000001    1    1    2    0    0  0.70670326188E+02 -0.12070693702E+03 -0.22099819558E+03  0.30924046000E+03  0.16500000000E+03 0.  0.
<mgrwt>
<rscale>  0 0.48482338E+03</rscale>
<asrwt>0</asrwt>
<pdfrwt beam="1">  1        2 0.14869811E+00 0.48482338E+03</pdfrwt>
<pdfrwt beam="2">  1       -2 0.93535178E-02 0.48482338E+03</pdfrwt>
<totfact> 0.20356911E+03</totfact>
</mgrwt>
</event>
<event>
 4    1  0.3213443E-005  0.4856891E+03  0.7818608E-02  0.1017583E+00
          2   -1    0    0  501    0  0.00000000000E+00  0.00000000000E+00  0.15531693024E+04  0.15531693024E+04  0.25500000000E-02 0.  1.
         -2   -1    0    0    0  501 -0.00000000000E+00 -0.00000000000E+00 -0.37969766121E+02  0.37969766207E+02  0.25500000000E-02 0. -1.
    5000001    1    1    2    0    0  0.14572964793E+03  0.80901658493E+02  0.96391948561E+03  0.99204232943E+03  0.16500000000E+03 0.  0.
   -5000001    1    1    2    0    0 -0.14572964793E+03 -0.80901658493E+02  0.55128005063E+03  0.59909673914E+03  0.16500000000E+03 0.  0.
<mgrwt>
<rscale>  0 0.48568910E+03</rscale>
<asrwt>0</asrwt>
<pdfrwt beam="1">  1        2 0.23894907E+00 0.48568910E+03</pdfrwt>
<pdfrwt beam="2">  1       -2 0.58415037E-02 0.48568910E+03</pdfrwt>
<totfact> 0.19584823E+03</totfact>
</mgrwt>
</event>
<event>
 4    1  0.3213443E-005  0.9044522E+03  0.7818608E-02  0.9420033E-01
         -2   -1    0    0    0  501 -0.00000000000E+00  0.00000000000E+00  0.36126574657E+03  0.36126574658E+03  0.25500000000E-02 0. -1.
          2   -1    0    0  501    0  0.00000000000E+00 -0.00000000000E+00 -0.56608867830E+03  0.56608867830E+03  0.25500000000E-02 0.  1.
    5000001    1    1    2    0    0 -0.41478214935E+03 -0.20712940770E+02 -0.31299724087E+02  0.44797090314E+03  0.16500000000E+03 0.  0.
   -5000001    1    1    2    0    0  0.41478214935E+03  0.20712940770E+02 -0.17352320764E+03  0.47938352174E+03  0.16500000000E+03 0.  0.
<mgrwt>
<rscale>  0 0.90445221E+03</rscale>
<asrwt>0</asrwt>
<pdfrwt beam="1">  1        2 0.87090566E-01 0.90445221E+03</pdfrwt>
<pdfrwt beam="2">  1       -2 0.55579346E-01 0.90445221E+03</pdfrwt>
<totfact> 0.16236887E+02</totfact>
</mgrwt>
</event>
<event>
 4    1  0.3213443E-005  0.7607983E+03  0.7818608E-02  0.9618560E-01
          2   -1    0    0  501    0  0.00000000000E+00  0.00000000000E+00  0.73426116517E+03  0.73426116517E+03  0.25500000000E-02 0.  1.
         -2   -1    0    0    0  501 -0.00000000000E+00 -0.00000000000E+00 -0.19707361737E+03  0.19707361739E+03  0.25500000000E-02 0. -1.
    5000001    1    1    2    0    0 -0.11076650900E+03 -0.25486697935E+03  0.22992500615E+02  0.32400625266E+03  0.16500000000E+03 0.  0.
   -5000001    1    1    2    0    0  0.11076650900E+03  0.25486697935E+03  0.51419504718E+03  0.60732852990E+03  0.16500000000E+03 0.  0.
<mgrwt>
<rscale>  0 0.76079828E+03</rscale>
<asrwt>0</asrwt>
<pdfrwt beam="1">  1        2 0.11296326E+00 0.76079828E+03</pdfrwt>
<pdfrwt beam="2">  1       -2 0.30319018E-01 0.76079828E+03</pdfrwt>
<totfact> 0.38953467E+02</totfact>
</mgrwt>
</event>
<event>
 4    1  0.3213443E-005  0.5858002E+03  0.7818608E-02  0.9935312E-01
         -2   -1    0    0    0  501 -0.00000000000E+00  0.00000000000E+00  0.38333886165E+02  0.38333886249E+02  0.25500000000E-02 0. -1.
          2   -1    0    0  501    0  0.00000000000E+00 -0.00000000000E+00 -0.22379796131E+04  0.22379796131E+04  0.25500000000E-02 0.  1.
    5000001    1    1    2    0    0 -0.26262141804E+02  0.21033876835E+03 -0.64610694741E+03  0.69972229138E+03  0.16500000000E+03 0.  0.
   -5000001    1    1    2    0    0  0.26262141804E+02 -0.21033876835E+03 -0.15535387796E+04  0.15765912080E+04  0.16500000000E+03 0.  0.
<mgrwt>
<rscale>  0 0.58580016E+03</rscale>
<asrwt>0</asrwt>
<pdfrwt beam="1">  1        2 0.34430445E+00 0.58580016E+03</pdfrwt>
<pdfrwt beam="2">  1       -2 0.58975227E-02 0.58580016E+03</pdfrwt>
<totfact> 0.81717925E+02</totfact>
</mgrwt>
</event>
<event>
 4    1  0.3213443E-005  0.4533370E+03  0.7818608E-02  0.1026732E+00
         -2   -1    0    0    0  501 -0.00000000000E+00  0.00000000000E+00  0.60838008099E+02  0.60838008152E+02  0.25500000000E-02 0. -1.
          2   -1    0    0  501    0  0.00000000000E+00 -0.00000000000E+00 -0.84451514388E+03  0.84451514388E+03  0.25500000000E-02 0.  1.
    5000001    1    1    2    0    0 -0.11170684928E+03  0.10596849475E+03 -0.34966848954E+03  0.41617399562E+03  0.16500000000E+03 0.  0.
   -5000001    1    1    2    0    0  0.11170684928E+03 -0.10596849475E+03 -0.43400864624E+03  0.48917915641E+03  0.16500000000E+03 0.  0.
<mgrwt>
<rscale>  0 0.45333705E+03</rscale>
<asrwt>0</asrwt>
<pdfrwt beam="1">  1        2 0.12992540E+00 0.45333705E+03</pdfrwt>
<pdfrwt beam="2">  1       -2 0.93596941E-02 0.45333705E+03</pdfrwt>
<totfact> 0.24476694E+03</totfact>
</mgrwt>
</event>
<event>
 4    1  0.3213443E-005  0.5340843E+03  0.7818608E-02  0.1005246E+00
          2   -1    0    0  501    0  0.00000000000E+00  0.00000000000E+00  0.14828428655E+04  0.14828428655E+04  0.25500000000E-02 0.  1.
         -2   -1    0    0    0  501 -0.00000000000E+00 -0.00000000000E+00 -0.48091084815E+02  0.48091084883E+02  0.25500000000E-02 0. -1.
    5000001    1    1    2    0    0 -0.15643640979E+03 -0.13937393861E+03  0.67796048908E+03  0.72852787854E+03  0.16500000000E+03 0.  0.
   -5000001    1    1    2    0    0  0.15643640979E+03  0.13937393861E+03  0.75679129159E+03  0.80240607182E+03  0.16500000000E+03 0.  0.
<mgrwt>
<rscale>  0 0.53408435E+03</rscale>
<asrwt>0</asrwt>
<pdfrwt beam="1">  1        2 0.22812966E+00 0.53408435E+03</pdfrwt>
<pdfrwt beam="2">  1       -2 0.73986287E-02 0.53408435E+03</pdfrwt>
<totfact> 0.14746466E+03</totfact>
</mgrwt>
</event>
<event>
 4    1  0.3213443E-005  0.4721328E+03  0.7818608E-02  0.1021320E+00
         -2   -1    0    0    0  501 -0.00000000000E+00  0.00000000000E+00  0.14990108599E+02  0.14990108816E+02  0.25500000000E-02 0. -1.
          2   -1    0    0  501    0  0.00000000000E+00 -0.00000000000E+00 -0.37176075873E+04  0.37176075873E+04  0.25500000000E-02 0.  1.
    5000001    1    1    2    0    0  0.14595919289E+03  0.31992826957E+02 -0.12300743638E+04  0.12500542258E+04  0.16500000000E+03 0.  0.
   -5000001    1    1    2    0    0 -0.14595919289E+03 -0.31992826957E+02 -0.24725431149E+04  0.24825434703E+04  0.16500000000E+03 0.  0.
<mgrwt>
<rscale>  0 0.47213279E+03</rscale>
<asrwt>0</asrwt>
<pdfrwt beam="1">  1        2 0.57193889E+00 0.47213279E+03</pdfrwt>
<pdfrwt beam="2">  1       -2 0.23061735E-02 0.47213279E+03</pdfrwt>
<totfact> 0.43202189E+02</totfact>
</mgrwt>
</event>
<event>
 4    1  0.3213443E-005  0.4092467E+03  0.7818608E-02  0.1040624E+00
         -2   -1    0    0    0  501 -0.00000000000E+00  0.00000000000E+00  0.21988125648E+02  0.21988125796E+02  0.25500000000E-02 0. -1.
          2   -1    0    0  501    0  0.00000000000E+00 -0.00000000000E+00 -0.19042421315E+04  0.19042421315E+04  0.25500000000E-02 0.  1.
    5000001    1    1    2    0    0  0.65097282513E+02  0.51848482622E+02 -0.13546749521E+04  0.13672216891E+04  0.16500000000E+03 0.  0.
   -5000001    1    1    2    0    0 -0.65097282513E+02 -0.51848482622E+02 -0.52757905372E+03  0.55900856815E+03  0.16500000000E+03 0.  0.
<mgrwt>
<rscale>  0 0.40924670E+03</rscale>
<asrwt>0</asrwt>
<pdfrwt beam="1">  1        2 0.29296020E+00 0.40924670E+03</pdfrwt>
<pdfrwt beam="2">  1       -2 0.33827901E-02 0.40924670E+03</pdfrwt>
<totfact> 0.29384841E+03</totfact>
</mgrwt>
</event>
<event>
 4    1  0.3213443E-005  0.4155868E+03  0.7818608E-02  0.1038512E+00
         -2   -1    0    0    0  501 -0.00000000000E+00  0.00000000000E+00  0.13366601580E+03  0.13366601582E+03  0.25500000000E-02 0. -1.
          2   -1    0    0  501    0  0.00000000000E+00 -0.00000000000E+00 -0.32302971242E+03  0.32302971243E+03  0.25500000000E-02 0.  1.
    5000001    1    1    2    0    0 -0.43188913488E+02  0.11809857447E+03 -0.81654266306E+02  0.22294612521E+03  0.16500000000E+03 0.  0.
   -5000001    1    1    2    0    0  0.43188913488E+02 -0.11809857447E+03 -0.10770943032E+03  0.23374960304E+03  0.16500000000E+03 0.  0.
<mgrwt>
<rscale>  0 0.41558679E+03</rscale>
<asrwt>0</asrwt>
<pdfrwt beam="1">  1        2 0.49696878E-01 0.41558679E+03</pdfrwt>
<pdfrwt beam="2">  1       -2 0.20564003E-01 0.41558679E+03</pdfrwt>
<totfact> 0.20343539E+03</totfact>
</mgrwt>
</event>
<event>
 4    1  0.3213443E-005  0.5563850E+03  0.7818608E-02  0.1000027E+00
          2   -1    0    0  501    0  0.00000000000E+00  0.00000000000E+00  0.70770994795E+03  0.70770994795E+03  0.25500000000E-02 0.  1.
         -2   -1    0    0    0  501 -0.00000000000E+00 -0.00000000000E+00 -0.10935421135E+03  0.10935421138E+03  0.25500000000E-02 0. -1.
    5000001    1    1    2    0    0  0.18817767405E+03  0.39856206129E+02  0.13067031303E+03  0.28512994386E+03  0.16500000000E+03 0.  0.
   -5000001    1    1    2    0    0 -0.18817767405E+03 -0.39856206129E+02  0.46768542357E+03  0.53193421548E+03  0.16500000000E+03 0.  0.
<mgrwt>
<rscale>  0 0.55638499E+03</rscale>
<asrwt>0</asrwt>
<pdfrwt beam="1">  1        2 0.10887845E+00 0.55638499E+03</pdfrwt>
<pdfrwt beam="2">  1       -2 0.16823725E-01 0.55638499E+03</pdfrwt>
<totfact> 0.11682623E+03</totfact>
</mgrwt>
</event>
<event>
 4    1  0.3213443E-005  0.9714645E+03  0.7818608E-02  0.9340408E-01
          2   -1    0    0  501    0  0.00000000000E+00  0.00000000000E+00  0.10833048303E+04  0.10833048303E+04  0.25500000000E-02 0.  1.
         -2   -1    0    0    0  501 -0.00000000000E+00 -0.00000000000E+00 -0.21779265625E+03  0.21779265627E+03  0.25500000000E-02 0. -1.
    5000001    1    1    2    0    0 -0.70783961611E+02  0.44787847396E+03  0.50739021390E+03  0.70019663368E+03  0.16500000000E+03 0.  0.
   -5000001    1    1    2    0    0  0.70783961611E+02 -0.44787847396E+03  0.35812196012E+03  0.60090085287E+03  0.16500000000E+03 0.  0.
<mgrwt>
<rscale>  0 0.97146454E+03</rscale>
<asrwt>0</asrwt>
<pdfrwt beam="1">  1        2 0.16666228E+00 0.97146454E+03</pdfrwt>
<pdfrwt beam="2">  1       -2 0.33506563E-01 0.97146454E+03</pdfrwt>
<totfact> 0.18545697E+02</totfact>
</mgrwt>
</event>
<event>
 4    1  0.3213443E-005  0.4271546E+03  0.7818608E-02  0.1034763E+00
          2   -1    0    0  501    0  0.00000000000E+00  0.00000000000E+00  0.13519277860E+04  0.13519277860E+04  0.25500000000E-02 0.  1.
         -2   -1    0    0    0  501 -0.00000000000E+00 -0.00000000000E+00 -0.33740895482E+02  0.33740895578E+02  0.25500000000E-02 0. -1.
    5000001    1    1    2    0    0 -0.11518263384E+03 -0.60350904819E+02  0.78393220430E+03  0.81159347692E+03  0.16500000000E+03 0.  0.
   -5000001    1    1    2    0    0  0.11518263384E+03  0.60350904819E+02  0.53425468619E+03  0.57407520463E+03  0.16500000000E+03 0.  0.
<mgrwt>
<rscale>  0 0.42715456E+03</rscale>
<asrwt>0</asrwt>
<pdfrwt beam="1">  1        2 0.20798890E+00 0.42715456E+03</pdfrwt>
<pdfrwt beam="2">  1       -2 0.51909068E-02 0.42715456E+03</pdfrwt>
<totfact> 0.30390351E+03</totfact>
</mgrwt>
</event>
<event>
 4    1  0.3213443E-005  0.5500418E+03  0.7818608E-02  0.1001484E+00
          2   -1    0    0  501    0  0.00000000000E+00  0.00000000000E+00  0.71519726976E+03  0.71519726976E+03  0.25500000000E-02 0.  1.
         -2   -1    0    0    0  501 -0.00000000000E+00 -0.00000000000E+00 -0.10575612516E+03  0.10575612519E+03  0.25500000000E-02 0. -1.
    5000001    1    1    2    0    0 -0.21712884396E+03 -0.20037595937E+01  0.25168762732E+03  0.37110727785E+03  0.16500000000E+03 0.  0.
   -5000001    1    1    2    0    0  0.21712884396E+03  0.20037595937E+01  0.35775351729E+03  0.44984611709E+03  0.16500000000E+03 0.  0.
<mgrwt>
<rscale>  0 0.55004179E+03</rscale>
<asrwt>0</asrwt>
<pdfrwt beam="1">  1        2 0.11003035E+00 0.55004179E+03</pdfrwt>
<pdfrwt beam="2">  1       -2 0.16270173E-01 0.55004179E+03</pdfrwt>
<totfact> 0.12204765E+03</totfact>
</mgrwt>
</event>
<event>
 4    1  0.3213443E-005  0.4819659E+03  0.7818608E-02  0.1018596E+00
         -2   -1    0    0    0  501 -0.00000000000E+00  0.00000000000E+00  0.43906984472E+03  0.43906984473E+03  0.25500000000E-02 0. -1.
          2   -1    0    0  501    0  0.00000000000E+00 -0.00000000000E+00 -0.13226318830E+03  0.13226318833E+03  0.25500000000E-02 0.  1.
    5000001    1    1    2    0    0  0.81471867877E+02 -0.13973646471E+03  0.23453188093E+03  0.32923266545E+03  0.16500000000E+03 0.  0.
   -5000001    1    1    2    0    0 -0.81471867877E+02  0.13973646471E+03  0.72274775496E+02  0.24210036761E+03  0.16500000000E+03 0.  0.
<mgrwt>
<rscale>  0 0.48196588E+03</rscale>
<asrwt>0</asrwt>
<pdfrwt beam="1">  1        2 0.20348183E-01 0.48196588E+03</pdfrwt>
<pdfrwt beam="2">  1       -2 0.67549207E-01 0.48196588E+03</pdfrwt>
<totfact> 0.56357437E+02</totfact>
</mgrwt>
</event>
<event>
 4    1  0.3213443E-005  0.8886088E+03  0.7818608E-02  0.9439934E-01
          2   -1    0    0  501    0  0.00000000000E+00  0.00000000000E+00  0.88990270746E+03  0.88990270747E+03  0.25500000000E-02 0.  1.
         -2   -1    0    0    0  501 -0.00000000000E+00 -0.00000000000E+00 -0.22182917416E+03  0.22182917418E+03  0.25500000000E-02 0. -1.
    5000001    1    1    2    0    0 -0.18641632767E+03 -0.29647913000E+03  0.61280032111E+02  0.39195811522E+03  0.16500000000E+03 0.  0.
   -5000001    1    1    2    0    0  0.18641632767E+03  0.29647913000E+03  0.60679350119E+03  0.71977376643E+03  0.16500000000E+03 0.  0.
<mgrwt>
<rscale>  0 0.88860876E+03</rscale>
<asrwt>0</asrwt>
<pdfrwt beam="1">  1        2 0.13690811E+00 0.88860876E+03</pdfrwt>
<pdfrwt beam="2">  1       -2 0.34127565E-01 0.88860876E+03</pdfrwt>
<totfact> 0.23996102E+02</totfact>
</mgrwt>
</event>
<event>
 4    1  0.3213443E-005  0.4208999E+03  0.7818608E-02  0.1036774E+00
          2   -1    0    0  501    0  0.00000000000E+00  0.00000000000E+00  0.68101420638E+03  0.68101420639E+03  0.25500000000E-02 0.  1.
         -2   -1    0    0    0  501 -0.00000000000E+00 -0.00000000000E+00 -0.65034157060E+02  0.65034157110E+02  0.25500000000E-02 0. -1.
    5000001    1    1    2    0    0  0.40171667488E+02  0.12397965907E+03  0.32379082986E+03  0.38607022707E+03  0.16500000000E+03 0.  0.
   -5000001    1    1    2    0    0 -0.40171667488E+02 -0.12397965907E+03  0.29218921947E+03  0.35997813643E+03  0.16500000000E+03 0.  0.
<mgrwt>
<rscale>  0 0.42089992E+03</rscale>
<asrwt>0</asrwt>
<pdfrwt beam="1">  1        2 0.10477142E+00 0.42089992E+03</pdfrwt>
<pdfrwt beam="2">  1       -2 0.10005255E-01 0.42089992E+03</pdfrwt>
<totfact> 0.28915982E+03</totfact>
</mgrwt>
</event>
<event>
 4    1  0.3213443E-005  0.4141399E+03  0.7818608E-02  0.1038991E+00
          2   -1    0    0  501    0  0.00000000000E+00  0.00000000000E+00  0.24355753398E+04  0.24355753398E+04  0.25500000000E-02 0.  1.
         -2   -1    0    0    0  501 -0.00000000000E+00 -0.00000000000E+00 -0.17604860204E+02  0.17604860389E+02  0.25500000000E-02 0. -1.
    5000001    1    1    2    0    0  0.85643795718E+02  0.43251326910E+02  0.16846221861E+04  0.16954003795E+04  0.16500000000E+03 0.  0.
   -5000001    1    1    2    0    0 -0.85643795718E+02 -0.43251326910E+02  0.73334829359E+03  0.75777982075E+03  0.16500000000E+03 0.  0.
<mgrwt>
<rscale>  0 0.41413990E+03</rscale>
<asrwt>0</asrwt>
<pdfrwt beam="1">  1        2 0.37470379E+00 0.41413990E+03</pdfrwt>
<pdfrwt beam="2">  1       -2 0.27084408E-02 0.41413990E+03</pdfrwt>
<totfact> 0.21207162E+03</totfact>
</mgrwt>
</event>
<event>
 4    1  0.3213443E-005  0.8901176E+03  0.7818608E-02  0.9438020E-01
         -2   -1    0    0    0  501 -0.00000000000E+00  0.00000000000E+00  0.31859300295E+03  0.31859300296E+03  0.25500000000E-02 0. -1.
          2   -1    0    0  501    0  0.00000000000E+00 -0.00000000000E+00 -0.62172534728E+03  0.62172534728E+03  0.25500000000E-02 0.  1.
    5000001    1    1    2    0    0 -0.36917933056E+02 -0.34582789969E+03  0.84397441328E+02  0.39409110380E+03  0.16500000000E+03 0.  0.
   -5000001    1    1    2    0    0  0.36917933056E+02  0.34582789969E+03 -0.38752978566E+03  0.54622724644E+03  0.16500000000E+03 0.  0.
<mgrwt>
<rscale>  0 0.89011762E+03</rscale>
<asrwt>0</asrwt>
<pdfrwt beam="1">  1        2 0.95650053E-01 0.89011762E+03</pdfrwt>
<pdfrwt beam="2">  1       -2 0.49014308E-01 0.89011762E+03</pdfrwt>
<totfact> 0.18786269E+02</totfact>
</mgrwt>
</event>
<event>
 4    1  0.3213443E-005  0.5519604E+03  0.7818608E-02  0.1001041E+00
          2   -1    0    0  501    0  0.00000000000E+00  0.00000000000E+00  0.11815468363E+04  0.11815468363E+04  0.25500000000E-02 0.  1.
         -2   -1    0    0    0  501 -0.00000000000E+00 -0.00000000000E+00 -0.64462163237E+02  0.64462163287E+02  0.25500000000E-02 0. -1.
    5000001    1    1    2    0    0  0.14739975159E+03  0.13371898534E+03  0.77662184650E+03  0.81851936218E+03  0.16500000000E+03 0.  0.
   -5000001    1    1    2    0    0 -0.14739975159E+03 -0.13371898534E+03  0.34046282653E+03  0.42748963737E+03  0.16500000000E+03 0.  0.
<mgrwt>
<rscale>  0 0.55196038E+03</rscale>
<asrwt>0</asrwt>
<pdfrwt beam="1">  1        2 0.18177643E+00 0.55196038E+03</pdfrwt>
<pdfrwt beam="2">  1       -2 0.99172565E-02 0.55196038E+03</pdfrwt>
<totfact> 0.13673617E+03</totfact>
</mgrwt>
</event>
<event>
 4    1  0.3213443E-005  0.4388604E+03  0.7818608E-02  0.1031097E+00
          2   -1    0    0  501    0  0.00000000000E+00  0.00000000000E+00  0.33176683366E+03  0.33176683367E+03  0.25500000000E-02 0.  1.
         -2   -1    0    0    0  501 -0.00000000000E+00 -0.00000000000E+00 -0.14513088405E+03  0.14513088407E+03  0.25500000000E-02 0. -1.
    5000001    1    1    2    0    0  0.99810390320E+02  0.47224588326E+02  0.19486427758E+03  0.27818943624E+03  0.16500000000E+03 0.  0.
   -5000001    1    1    2    0    0 -0.99810390320E+02 -0.47224588326E+02 -0.82283279670E+01  0.19870828151E+03  0.16500000000E+03 0.  0.
<mgrwt>
<rscale>  0 0.43886041E+03</rscale>
<asrwt>0</asrwt>
<pdfrwt beam="1">  1        2 0.51041050E-01 0.43886041E+03</pdfrwt>
<pdfrwt beam="2">  1       -2 0.22327829E-01 0.43886041E+03</pdfrwt>
<totfact> 0.17123200E+03</totfact>
</mgrwt>
</event>
<event>
 4    1  0.3213443E-005  0.6054554E+03  0.7818608E-02  0.9894152E-01
         -2   -1    0    0    0  501 -0.00000000000E+00  0.00000000000E+00  0.25182557745E+03  0.25182557747E+03  0.25500000000E-02 0. -1.
          2   -1    0    0  501    0  0.00000000000E+00 -0.00000000000E+00 -0.36391875822E+03  0.36391875823E+03  0.25500000000E-02 0.  1.
    5000001    1    1    2    0    0 -0.24854343128E+03  0.11478453310E+02 -0.50602055274E+01  0.29859035115E+03  0.16500000000E+03 0.  0.
   -5000001    1    1    2    0    0  0.24854343128E+03 -0.11478453310E+02 -0.10703297524E+03  0.31715398454E+03  0.16500000000E+03 0.  0.
<mgrwt>
<rscale>  0 0.60545537E+03</rscale>
<asrwt>0</asrwt>
<pdfrwt beam="1">  1        2 0.55987501E-01 0.60545537E+03</pdfrwt>
<pdfrwt beam="2">  1       -2 0.38742397E-01 0.60545537E+03</pdfrwt>
<totfact> 0.56097425E+02</totfact>
</mgrwt>
</event>
<event>
 4    1  0.3213443E-005  0.4730352E+03  0.7818608E-02  0.1021067E+00
         -2   -1    0    0    0  501 -0.00000000000E+00  0.00000000000E+00  0.24288182086E+02  0.24288182220E+02  0.25500000000E-02 0. -1.
          2   -1    0    0  501    0  0.00000000000E+00 -0.00000000000E+00 -0.23032016519E+04  0.23032016519E+04  0.25500000000E-02 0.  1.
    5000001    1    1    2    0    0  0.12644668114E+03 -0.10898322029E+03 -0.99604991299E+03  0.10233310973E+04  0.16500000000E+03 0.  0.
   -5000001    1    1    2    0    0 -0.12644668114E+03  0.10898322029E+03 -0.12828635569E+04  0.13041587369E+04  0.16500000000E+03 0.  0.
<mgrwt>
<rscale>  0 0.47303523E+03</rscale>
<asrwt>0</asrwt>
<pdfrwt beam="1">  1        2 0.35433854E+00 0.47303523E+03</pdfrwt>
<pdfrwt beam="2">  1       -2 0.37366452E-02 0.47303523E+03</pdfrwt>
<totfact> 0.15347679E+03</totfact>
</mgrwt>
</event>
<event>
 4    1  0.3213443E-005  0.3607892E+03  0.7818608E-02  0.1058272E+00
          2   -1    0    0  501    0  0.00000000000E+00  0.00000000000E+00  0.54409250756E+03  0.54409250757E+03  0.25500000000E-02 0.  1.
         -2   -1    0    0    0  501 -0.00000000000E+00 -0.00000000000E+00 -0.59810059353E+02  0.59810059408E+02  0.25500000000E-02 0. -1.
    5000001    1    1    2    0    0 -0.70412435238E+02  0.12530501564E+02  0.21833499565E+03  0.28286055722E+03  0.16500000000E+03 0.  0.
   -5000001    1    1    2    0    0  0.70412435238E+02 -0.12530501564E+02  0.26594745256E+03  0.32104200975E+03  0.16500000000E+03 0.  0.
<mgrwt>
<rscale>  0 0.36078916E+03</rscale>
<asrwt>0</asrwt>
<pdfrwt beam="1">  1        2 0.83706536E-01 0.36078916E+03</pdfrwt>
<pdfrwt beam="2">  1       -2 0.92015480E-02 0.36078916E+03</pdfrwt>
<totfact> 0.43030566E+03</totfact>
</mgrwt>
</event>
<event>
 4    1  0.3213443E-005  0.4605585E+03  0.7818608E-02  0.1024619E+00
         -2   -1    0    0    0  501 -0.00000000000E+00  0.00000000000E+00  0.22215023168E+02  0.22215023314E+02  0.25500000000E-02 0. -1.
          2   -1    0    0  501    0  0.00000000000E+00 -0.00000000000E+00 -0.23870573880E+04  0.23870573880E+04  0.25500000000E-02 0.  1.
    5000001    1    1    2    0    0  0.12403720369E+02 -0.14541730774E+03 -0.15334766020E+04  0.15492177170E+04  0.16500000000E+03 0.  0.
   -5000001    1    1    2    0    0 -0.12403720369E+02  0.14541730774E+03 -0.83136576286E+03  0.86005469438E+03  0.16500000000E+03 0.  0.
<mgrwt>
<rscale>  0 0.46055851E+03</rscale>
<asrwt>0</asrwt>
<pdfrwt beam="1">  1        2 0.36723939E+00 0.46055851E+03</pdfrwt>
<pdfrwt beam="2">  1       -2 0.34176978E-02 0.46055851E+03</pdfrwt>
<totfact> 0.15823792E+03</totfact>
</mgrwt>
</event>
<event>
 4    1  0.3213443E-005  0.5166575E+03  0.7818608E-02  0.1009520E+00
          2   -1    0    0  501    0  0.00000000000E+00  0.00000000000E+00  0.15522069774E+03  0.15522069776E+03  0.25500000000E-02 0.  1.
         -2   -1    0    0    0  501 -0.00000000000E+00 -0.00000000000E+00 -0.42992804572E+03  0.42992804573E+03  0.25500000000E-02 0. -1.
    5000001    1    1    2    0    0 -0.12510288289E+03  0.14969218236E+03 -0.18048423282E+03  0.31282269589E+03  0.16500000000E+03 0.  0.
   -5000001    1    1    2    0    0  0.12510288289E+03 -0.14969218236E+03 -0.94223115164E+02  0.27232604760E+03  0.16500000000E+03 0.  0.
<mgrwt>
<rscale>  0 0.51665745E+03</rscale>
<asrwt>0</asrwt>
<pdfrwt beam="1">  1        2 0.23880107E-01 0.51665745E+03</pdfrwt>
<pdfrwt beam="2">  1       -2 0.66142776E-01 0.51665745E+03</pdfrwt>
<totfact> 0.49002082E+02</totfact>
</mgrwt>
</event>
<event>
 4    1  0.3213443E-005  0.5088144E+03  0.7818608E-02  0.1011503E+00
         -2   -1    0    0    0  501 -0.00000000000E+00  0.00000000000E+00  0.93825900306E+02  0.93825900340E+02  0.25500000000E-02 0. -1.
          2   -1    0    0  501    0  0.00000000000E+00 -0.00000000000E+00 -0.68982054123E+03  0.68982054123E+03  0.25500000000E-02 0.  1.
    5000001    1    1    2    0    0  0.12564993988E+03  0.14407245052E+03 -0.25044570521E+03  0.35565830463E+03  0.16500000000E+03 0.  0.
   -5000001    1    1    2    0    0 -0.12564993988E+03 -0.14407245052E+03 -0.34554893571E+03  0.42798813695E+03  0.16500000000E+03 0.  0.
<mgrwt>
<rscale>  0 0.50881444E+03</rscale>
<asrwt>0</asrwt>
<pdfrwt beam="1">  1        2 0.10612623E+00 0.50881444E+03</pdfrwt>
<pdfrwt beam="2">  1       -2 0.14434754E-01 0.50881444E+03</pdfrwt>
<totfact> 0.15624033E+03</totfact>
</mgrwt>
</event>
<event>
 4    1  0.3213443E-005  0.6239269E+03  0.7818608E-02  0.9856972E-01
         -2   -1    0    0    0  501 -0.00000000000E+00  0.00000000000E+00  0.13528122484E+03  0.13528122487E+03  0.25500000000E-02 0. -1.
          2   -1    0    0  501    0  0.00000000000E+00 -0.00000000000E+00 -0.71939921489E+03  0.71939921490E+03  0.25500000000E-02 0.  1.
    5000001    1    1    2    0    0 -0.10055094393E+03 -0.10325286854E+03 -0.59628871301E+03  0.63526126630E+03  0.16500000000E+03 0.  0.
   -5000001    1    1    2    0    0  0.10055094393E+03  0.10325286854E+03  0.12170722965E+02  0.21941917347E+03  0.16500000000E+03 0.  0.
<mgrwt>
<rscale>  0 0.62392694E+03</rscale>
<asrwt>0</asrwt>
<pdfrwt beam="1">  1        2 0.11067680E+00 0.62392694E+03</pdfrwt>
<pdfrwt beam="2">  1       -2 0.20812497E-01 0.62392694E+03</pdfrwt>
<totfact> 0.79143135E+02</totfact>
</mgrwt>
</event>
<event>
 4    1  0.3213443E-005  0.7864857E+03  0.7818608E-02  0.9579787E-01
          2   -1    0    0  501    0  0.00000000000E+00  0.00000000000E+00  0.15218576454E+04  0.15218576454E+04  0.25500000000E-02 0.  1.
         -2   -1    0    0    0  501 -0.00000000000E+00 -0.00000000000E+00 -0.10161261936E+03  0.10161261939E+03  0.25500000000E-02 0. -1.
    5000001    1    1    2    0    0  0.19034317119E+03  0.29926609833E+03  0.79331346537E+03  0.88451228074E+03  0.16500000000E+03 0.  0.
   -5000001    1    1    2    0    0 -0.19034317119E+03 -0.29926609833E+03  0.62693156067E+03  0.73895798406E+03  0.16500000000E+03 0.  0.
<mgrwt>
<rscale>  0 0.78648571E+03</rscale>
<asrwt>0</asrwt>
<pdfrwt beam="1">  1        2 0.23413192E+00 0.78648571E+03</pdfrwt>
<pdfrwt beam="2">  1       -2 0.15632712E-01 0.78648571E+03</pdfrwt>
<totfact> 0.40736659E+02</totfact>
</mgrwt>
</event>
<event>
 4    1  0.3213443E-005  0.5150720E+03  0.7818608E-02  0.1009918E+00
         -2   -1    0    0    0  501 -0.00000000000E+00  0.00000000000E+00  0.11712261948E+03  0.11712261950E+03  0.25500000000E-02 0. -1.
          2   -1    0    0  501    0  0.00000000000E+00 -0.00000000000E+00 -0.56628497923E+03  0.56628497924E+03  0.25500000000E-02 0.  1.
    5000001    1    1    2    0    0  0.17390402105E+03 -0.84820981146E+02 -0.17048056147E+03  0.30614674459E+03  0.16500000000E+03 0.  0.
   -5000001    1    1    2    0    0 -0.17390402105E+03  0.84820981146E+02 -0.27868179828E+03  0.37726085415E+03  0.16500000000E+03 0.  0.
<mgrwt>
<rscale>  0 0.51507196E+03</rscale>
<asrwt>0</asrwt>
<pdfrwt beam="1">  1        2 0.87120765E-01 0.51507196E+03</pdfrwt>
<pdfrwt beam="2">  1       -2 0.18018865E-01 0.51507196E+03</pdfrwt>
<totfact> 0.13618098E+03</totfact>
</mgrwt>
</event>
<event>
 4    1  0.3213443E-005  0.8614274E+03  0.7818608E-02  0.9475127E-01
          2   -1    0    0  501    0  0.00000000000E+00  0.00000000000E+00  0.61776150663E+03  0.61776150664E+03  0.25500000000E-02 0.  1.
         -2   -1    0    0    0  501 -0.00000000000E+00 -0.00000000000E+00 -0.30030083056E+03  0.30030083057E+03  0.25500000000E-02 0. -1.
    5000001    1    1    2    0    0 -0.24252950556E+03 -0.11257058062E+03 -0.15525172295E+03  0.35045797775E+03  0.16500000000E+03 0.  0.
   -5000001    1    1    2    0    0  0.24252950556E+03  0.11257058062E+03  0.47271239902E+03  0.56760435946E+03  0.16500000000E+03 0.  0.
<mgrwt>
<rscale>  0 0.86142741E+03</rscale>
<asrwt>0</asrwt>
<pdfrwt beam="1">  1        2 0.95040231E-01 0.86142741E+03</pdfrwt>
<pdfrwt beam="2">  1       -2 0.46200128E-01 0.86142741E+03</pdfrwt>
<totfact> 0.21360389E+02</totfact>
</mgrwt>
</event>
<event>
 4    1  0.3213443E-005  0.4142605E+03  0.7818608E-02  0.1038951E+00
         -2   -1    0    0    0  501 -0.00000000000E+00  0.00000000000E+00  0.24994519060E+03  0.24994519061E+03  0.25500000000E-02 0. -1.
          2   -1    0    0  501    0  0.00000000000E+00 -0.00000000000E+00 -0.17164941583E+03  0.17164941585E+03  0.25500000000E-02 0.  1.
    5000001    1    1    2    0    0 -0.14454189581E+01  0.12132282764E+03  0.70624869512E+02  0.21664300113E+03  0.16500000000E+03 0.  0.
   -5000001    1    1    2    0    0  0.14454189581E+01 -0.12132282764E+03  0.76709052550E+01  0.20495160534E+03  0.16500000000E+03 0.  0.
<mgrwt>
<rscale>  0 0.41426053E+03</rscale>
<asrwt>0</asrwt>
<pdfrwt beam="1">  1        2 0.26407602E-01 0.41426053E+03</pdfrwt>
<pdfrwt beam="2">  1       -2 0.38453106E-01 0.41426053E+03</pdfrwt>
<totfact> 0.13091875E+03</totfact>
</mgrwt>
</event>
<event>
 4    1  0.3213443E-005  0.9809341E+03  0.7818608E-02  0.9329707E-01
         -2   -1    0    0    0  501 -0.00000000000E+00  0.00000000000E+00  0.20911372635E+03  0.20911372637E+03  0.25500000000E-02 0. -1.
          2   -1    0    0  501    0  0.00000000000E+00 -0.00000000000E+00 -0.11503688986E+04  0.11503688986E+04  0.25500000000E-02 0.  1.
    5000001    1    1    2    0    0  0.40938739571E+03 -0.10257026960E+03 -0.21055599794E+03  0.49967742418E+03  0.16500000000E+03 0.  0.
   -5000001    1    1    2    0    0 -0.40938739571E+03  0.10257026960E+03 -0.73069917433E+03  0.85980520081E+03  0.16500000000E+03 0.  0.
<mgrwt>
<rscale>  0 0.98093410E+03</rscale>
<asrwt>0</asrwt>
<pdfrwt beam="1">  1        2 0.17697983E+00 0.98093410E+03</pdfrwt>
<pdfrwt beam="2">  1       -2 0.32171343E-01 0.98093410E+03</pdfrwt>
<totfact> 0.18209281E+02</totfact>
</mgrwt>
</event>
<event>
 4    1  0.3213443E-005  0.4258564E+03  0.7818608E-02  0.1035177E+00
         -2   -1    0    0    0  501 -0.00000000000E+00  0.00000000000E+00  0.36698515655E+02  0.36698515744E+02  0.25500000000E-02 0. -1.
          2   -1    0    0  501    0  0.00000000000E+00 -0.00000000000E+00 -0.12354290198E+04  0.12354290198E+04  0.25500000000E-02 0.  1.
    5000001    1    1    2    0    0 -0.64545801861E+02  0.10433658810E+03 -0.43408986169E+03  0.48032415323E+03  0.16500000000E+03 0.  0.
   -5000001    1    1    2    0    0  0.64545801861E+02 -0.10433658810E+03 -0.76464064244E+03  0.79180338230E+03  0.16500000000E+03 0.  0.
<mgrwt>
<rscale>  0 0.42585637E+03</rscale>
<asrwt>0</asrwt>
<pdfrwt beam="1">  1        2 0.19006597E+00 0.42585637E+03</pdfrwt>
<pdfrwt beam="2">  1       -2 0.56459264E-02 0.42585637E+03</pdfrwt>
<totfact> 0.31062735E+03</totfact>
</mgrwt>
</event>
<event>
 4    1  0.3213443E-005  0.4113674E+03  0.7818608E-02  0.1039913E+00
         -2   -1    0    0    0  501 -0.00000000000E+00  0.00000000000E+00  0.54817416755E+02  0.54817416815E+02  0.25500000000E-02 0. -1.
          2   -1    0    0  501    0  0.00000000000E+00 -0.00000000000E+00 -0.77175789784E+03  0.77175789785E+03  0.25500000000E-02 0.  1.
    5000001    1    1    2    0    0 -0.57020502821E+02  0.10744223314E+03 -0.32451286617E+03  0.38383430216E+03  0.16500000000E+03 0.  0.
   -5000001    1    1    2    0    0  0.57020502821E+02 -0.10744223314E+03 -0.39242761492E+03  0.44274101251E+03  0.16500000000E+03 0.  0.
<mgrwt>
<rscale>  0 0.41136735E+03</rscale>
<asrwt>0</asrwt>
<pdfrwt beam="1">  1        2 0.11873198E+00 0.41136735E+03</pdfrwt>
<pdfrwt beam="2">  1       -2 0.84334493E-02 0.41136735E+03</pdfrwt>
<totfact> 0.32481739E+03</totfact>
</mgrwt>
</event>
<event>
 4    1  0.3213443E-005  0.3828125E+03  0.7818608E-02  0.1049899E+00
         -2   -1    0    0    0  501 -0.00000000000E+00  0.00000000000E+00  0.87403137025E+02  0.87403137062E+02  0.25500000000E-02 0. -1.
          2   -1    0    0  501    0  0.00000000000E+00 -0.00000000000E+00 -0.41916527947E+03  0.41916527947E+03  0.25500000000E-02 0.  1.
    5000001    1    1    2    0    0  0.87629682705E+02  0.10454653416E+02 -0.11256912990E+03  0.21836911429E+03  0.16500000000E+03 0.  0.
   -5000001    1    1    2    0    0 -0.87629682705E+02 -0.10454653416E+02 -0.21919301254E+03  0.28819930225E+03  0.16500000000E+03 0.  0.
<mgrwt>
<rscale>  0 0.38281254E+03</rscale>
<asrwt>0</asrwt>
<pdfrwt beam="1">  1        2 0.64486965E-01 0.38281254E+03</pdfrwt>
<pdfrwt beam="2">  1       -2 0.13446637E-01 0.38281254E+03</pdfrwt>
<totfact> 0.31277737E+03</totfact>
</mgrwt>
</event>
<event>
 4    1  0.3213443E-005  0.7533418E+03  0.7818608E-02  0.9630122E-01
          2   -1    0    0  501    0  0.00000000000E+00  0.00000000000E+00  0.22261709320E+04  0.22261709320E+04  0.25500000000E-02 0.  1.
         -2   -1    0    0    0  501 -0.00000000000E+00 -0.00000000000E+00 -0.63733190363E+02  0.63733190414E+02  0.25500000000E-02 0. -1.
    5000001    1    1    2    0    0 -0.14439930552E+03  0.30604049498E+03  0.11176988414E+04  0.11794013923E+04  0.16500000000E+03 0.  0.
   -5000001    1    1    2    0    0  0.14439930552E+03 -0.30604049498E+03  0.10447389002E+04  0.11105027301E+04  0.16500000000E+03 0.  0.
<mgrwt>
<rscale>  0 0.75334182E+03</rscale>
<asrwt>0</asrwt>
<pdfrwt beam="1">  1        2 0.34248783E+00 0.75334182E+03</pdfrwt>
<pdfrwt beam="2">  1       -2 0.98051064E-02 0.75334182E+03</pdfrwt>
<totfact> 0.36415886E+02</totfact>
</mgrwt>
</event>
<event>
 4    1  0.3213443E-005  0.4809458E+03  0.7818608E-02  0.1018876E+00
         -2   -1    0    0    0  501 -0.00000000000E+00  0.00000000000E+00  0.44099817983E+02  0.44099818057E+02  0.25500000000E-02 0. -1.
          2   -1    0    0  501    0  0.00000000000E+00 -0.00000000000E+00 -0.13112801482E+04  0.13112801482E+04  0.25500000000E-02 0.  1.
    5000001    1    1    2    0    0  0.90980020432E+02  0.14937163277E+03 -0.62344202066E+03  0.66820221634E+03  0.16500000000E+03 0.  0.
   -5000001    1    1    2    0    0 -0.90980020432E+02 -0.14937163277E+03 -0.64373830952E+03  0.68717774989E+03  0.16500000000E+03 0.  0.
<mgrwt>
<rscale>  0 0.48094580E+03</rscale>
<asrwt>0</asrwt>
<pdfrwt beam="1">  1        2 0.20173538E+00 0.48094580E+03</pdfrwt>
<pdfrwt beam="2">  1       -2 0.67845884E-02 0.48094580E+03</pdfrwt>
<totfact> 0.21104896E+03</totfact>
</mgrwt>
</event>
<event>
 4    1  0.3213443E-005  0.5560040E+03  0.7818608E-02  0.1000114E+00
         -2   -1    0    0    0  501 -0.00000000000E+00  0.00000000000E+00  0.13916041534E+03  0.13916041537E+03  0.25500000000E-02 0. -1.
          2   -1    0    0  501    0  0.00000000000E+00 -0.00000000000E+00 -0.55536707214E+03  0.55536707214E+03  0.25500000000E-02 0.  1.
    5000001    1    1    2    0    0  0.11693707303E+02  0.20849836814E+03 -0.30843821725E+03  0.40739102367E+03  0.16500000000E+03 0.  0.
   -5000001    1    1    2    0    0 -0.11693707303E+02 -0.20849836814E+03 -0.10776843954E+03  0.28713646384E+03  0.16500000000E+03 0.  0.
<mgrwt>
<rscale>  0 0.55600400E+03</rscale>
<asrwt>0</asrwt>
<pdfrwt beam="1">  1        2 0.85441087E-01 0.55600400E+03</pdfrwt>
<pdfrwt beam="2">  1       -2 0.21409295E-01 0.55600400E+03</pdfrwt>
<totfact> 0.10328911E+03</totfact>
</mgrwt>
</event>
<event>
 4    1  0.3213443E-005  0.7710827E+03  0.7818608E-02  0.9602843E-01
          2   -1    0    0  501    0  0.00000000000E+00  0.00000000000E+00  0.17486447817E+04  0.17486447817E+04  0.25500000000E-02 0.  1.
         -2   -1    0    0    0  501 -0.00000000000E+00 -0.00000000000E+00 -0.85004184074E+02  0.85004184113E+02  0.25500000000E-02 0. -1.
    5000001    1    1    2    0    0  0.21568878483E+03  0.10460457949E+03  0.14331974341E+04  0.14624444110E+04  0.16500000000E+03 0.  0.
   -5000001    1    1    2    0    0 -0.21568878483E+03 -0.10460457949E+03  0.23044316353E+03  0.37120455489E+03  0.16500000000E+03 0.  0.
<mgrwt>
<rscale>  0 0.77108268E+03</rscale>
<asrwt>0</asrwt>
<pdfrwt beam="1">  1        2 0.26902229E+00 0.77108268E+03</pdfrwt>
<pdfrwt beam="2">  1       -2 0.13077566E-01 0.77108268E+03</pdfrwt>
<totfact> 0.41310932E+02</totfact>
</mgrwt>
</event>
<event>
 4    1  0.3213443E-005  0.1194135E+04  0.7818608E-02  0.9118006E-01
          2   -1    0    0  501    0  0.00000000000E+00  0.00000000000E+00  0.13088759589E+04  0.13088759589E+04  0.25500000000E-02 0. -1.
         -2   -1    0    0    0  501 -0.00000000000E+00 -0.00000000000E+00 -0.27236322884E+03  0.27236322885E+03  0.25500000000E-02 0.  1.
    5000001    1    1    2    0    0  0.56401448162E+03 -0.12306677396E+02  0.65714223130E+03  0.88166019642E+03  0.16500000000E+03 0.  0.
   -5000001    1    1    2    0    0 -0.56401448162E+03  0.12306677396E+02  0.37937049875E+03  0.69957899133E+03  0.16500000000E+03 0.  0.
<mgrwt>
<rscale>  0 0.11941351E+04</rscale>
<asrwt>0</asrwt>
<pdfrwt beam="1">  1        2 0.20136553E+00 0.11941351E+04</pdfrwt>
<pdfrwt beam="2">  1       -2 0.41902035E-01 0.11941351E+04</pdfrwt>
<totfact> 0.86981685E+01</totfact>
</mgrwt>
</event>
<event>
 4    1  0.3213443E-005  0.4167205E+03  0.7818608E-02  0.1038139E+00
         -2   -1    0    0    0  501 -0.00000000000E+00  0.00000000000E+00  0.63582008577E+02  0.63582008628E+02  0.25500000000E-02 0. -1.
          2   -1    0    0  501    0  0.00000000000E+00 -0.00000000000E+00 -0.68280307007E+03  0.68280307007E+03  0.25500000000E-02 0.  1.
    5000001    1    1    2    0    0 -0.69873509048E+02 -0.10621521188E+03 -0.30065288565E+03  0.36576103695E+03  0.16500000000E+03 0.  0.
   -5000001    1    1    2    0    0  0.69873509048E+02  0.10621521188E+03 -0.31856817584E+03  0.38062404175E+03  0.16500000000E+03 0.  0.
<mgrwt>
<rscale>  0 0.41672049E+03</rscale>
<asrwt>0</asrwt>
<pdfrwt beam="1">  1        2 0.10504662E+00 0.41672049E+03</pdfrwt>
<pdfrwt beam="2">  1       -2 0.97818479E-02 0.41672049E+03</pdfrwt>
<totfact> 0.29885180E+03</totfact>
</mgrwt>
</event>
<event>
 4    1  0.3213443E-005  0.6714201E+03  0.7818608E-02  0.9767396E-01
         -2   -1    0    0    0  501 -0.00000000000E+00  0.00000000000E+00  0.15677268455E+04  0.15677268455E+04  0.25500000000E-02 0. -1.
          2   -1    0    0  501    0  0.00000000000E+00 -0.00000000000E+00 -0.71888321317E+02  0.71888321362E+02  0.25500000000E-02 0.  1.
    5000001    1    1    2    0    0 -0.21599470833E+03  0.19077099792E+03  0.62756594528E+03  0.71000796006E+03  0.16500000000E+03 0.  0.
   -5000001    1    1    2    0    0  0.21599470833E+03 -0.19077099792E+03  0.86827257892E+03  0.92960720683E+03  0.16500000000E+03 0.  0.
<mgrwt>
<rscale>  0 0.67142014E+03</rscale>
<asrwt>0</asrwt>
<pdfrwt beam="1">  1        2 0.11059742E-01 0.67142014E+03</pdfrwt>
<pdfrwt beam="2">  1       -2 0.24118875E+00 0.67142014E+03</pdfrwt>
<totfact> 0.43955607E+01</totfact>
</mgrwt>
</event>
<event>
 4    1  0.3213443E-005  0.4500596E+03  0.7818608E-02  0.1027704E+00
         -2   -1    0    0    0  501 -0.00000000000E+00  0.00000000000E+00  0.43482138506E+03  0.43482138507E+03  0.25500000000E-02 0. -1.
          2   -1    0    0  501    0  0.00000000000E+00 -0.00000000000E+00 -0.11645794064E+03  0.11645794067E+03  0.25500000000E-02 0.  1.
    5000001    1    1    2    0    0  0.15030027873E+03 -0.17752745674E+02  0.18679151733E+03  0.29158430121E+03  0.16500000000E+03 0.  0.
   -5000001    1    1    2    0    0 -0.15030027873E+03  0.17752745674E+02  0.13157192709E+03  0.25969502453E+03  0.16500000000E+03 0.  0.
<mgrwt>
<rscale>  0 0.45005957E+03</rscale>
<asrwt>0</asrwt>
<pdfrwt beam="1">  1        2 0.17916606E-01 0.45005957E+03</pdfrwt>
<pdfrwt beam="2">  1       -2 0.66895599E-01 0.45005957E+03</pdfrwt>
<totfact> 0.66792753E+02</totfact>
</mgrwt>
</event>
<event>
 4    1  0.3213443E-005  0.3754535E+03  0.7818608E-02  0.1052627E+00
         -2   -1    0    0    0  501 -0.00000000000E+00  0.00000000000E+00  0.11124298368E+02  0.11124298660E+02  0.25500000000E-02 0. -1.
          2   -1    0    0  501    0  0.00000000000E+00 -0.00000000000E+00 -0.31679606147E+04  0.31679606147E+04  0.25500000000E-02 0.  1.
    5000001    1    1    2    0    0 -0.12851801929E-01  0.87956374588E+02 -0.14367288711E+04  0.14488447719E+04  0.16500000000E+03 0.  0.
   -5000001    1    1    2    0    0  0.12851801929E-01 -0.87956374588E+02 -0.17201074452E+04  0.17302401414E+04  0.16500000000E+03 0.  0.
<mgrwt>
<rscale>  0 0.37545354E+03</rscale>
<asrwt>0</asrwt>
<pdfrwt beam="1">  1        2 0.48737784E+00 0.37545354E+03</pdfrwt>
<pdfrwt beam="2">  1       -2 0.17114331E-02 0.37545354E+03</pdfrwt>
<totfact> 0.15822585E+03</totfact>
</mgrwt>
</event>
<event>
 4    1  0.3213443E-005  0.4082251E+03  0.7818608E-02  0.1040968E+00
          2   -1    0    0  501    0  0.00000000000E+00  0.00000000000E+00  0.75450113772E+03  0.75450113772E+03  0.25500000000E-02 0.  1.
         -2   -1    0    0    0  501 -0.00000000000E+00 -0.00000000000E+00 -0.55217846474E+02  0.55217846532E+02  0.25500000000E-02 0. -1.
    5000001    1    1    2    0    0 -0.10810038100E+02 -0.96204350264E+02  0.49080291020E+03  0.52676809944E+03  0.16500000000E+03 0.  0.
   -5000001    1    1    2    0    0  0.10810038100E+02  0.96204350264E+02  0.20848038104E+03  0.28295088481E+03  0.16500000000E+03 0.  0.
<mgrwt>
<rscale>  0 0.40822508E+03</rscale>
<asrwt>0</asrwt>
<pdfrwt beam="1">  1        2 0.11607708E+00 0.40822508E+03</pdfrwt>
<pdfrwt beam="2">  1       -2 0.84950543E-02 0.40822508E+03</pdfrwt>
<totfact> 0.33043462E+03</totfact>
</mgrwt>
</event>
<event>
 4    1  0.3213443E-005  0.5037925E+03  0.7818608E-02  0.1012794E+00
         -2   -1    0    0    0  501 -0.00000000000E+00  0.00000000000E+00  0.73384688864E+03  0.73384688864E+03  0.25500000000E-02 0. -1.
          2   -1    0    0  501    0  0.00000000000E+00 -0.00000000000E+00 -0.86464530183E+02  0.86464530221E+02  0.25500000000E-02 0.  1.
    5000001    1    1    2    0    0 -0.65397503736E+02  0.16949610194E+03  0.41610139880E+03  0.48308501959E+03  0.16500000000E+03 0.  0.
   -5000001    1    1    2    0    0  0.65397503736E+02 -0.16949610194E+03  0.23128095966E+03  0.33722639927E+03  0.16500000000E+03 0.  0.
<mgrwt>
<rscale>  0 0.50379252E+03</rscale>
<asrwt>0</asrwt>
<pdfrwt beam="1">  1        2 0.13302235E-01 0.50379252E+03</pdfrwt>
<pdfrwt beam="2">  1       -2 0.11289953E+00 0.50379252E+03</pdfrwt>
<totfact> 0.29026481E+02</totfact>
</mgrwt>
</event>
<event>
 4    1  0.3213443E-005  0.6097709E+03  0.7818608E-02  0.9885339E-01
          2   -1    0    0  501    0  0.00000000000E+00  0.00000000000E+00  0.25943403066E+04  0.25943403066E+04  0.25500000000E-02 0.  1.
         -2   -1    0    0    0  501 -0.00000000000E+00 -0.00000000000E+00 -0.35829973028E+02  0.35829973118E+02  0.25500000000E-02 0. -1.
    5000001    1    1    2    0    0  0.89441107640E+02 -0.23933049045E+03  0.13708925941E+04  0.14042258721E+04  0.16500000000E+03 0.  0.
   -5000001    1    1    2    0    0 -0.89441107640E+02  0.23933049045E+03  0.11876177395E+04  0.12259444076E+04  0.16500000000E+03 0.  0.
<mgrwt>
<rscale>  0 0.60977092E+03</rscale>
<asrwt>0</asrwt>
<pdfrwt beam="1">  1        2 0.39912932E+00 0.60977092E+03</pdfrwt>
<pdfrwt beam="2">  1       -2 0.55123029E-02 0.60977092E+03</pdfrwt>
<totfact> 0.57320627E+02</totfact>
</mgrwt>
</event>
<event>
 4    1  0.3213443E-005  0.5374043E+03  0.7818608E-02  0.1004452E+00
          2   -1    0    0  501    0  0.00000000000E+00  0.00000000000E+00  0.12978162006E+04  0.12978162006E+04  0.25500000000E-02 0.  1.
         -2   -1    0    0    0  501 -0.00000000000E+00 -0.00000000000E+00 -0.55632573636E+02  0.55632573694E+02  0.25500000000E-02 0. -1.
    5000001    1    1    2    0    0 -0.21036636118E+03 -0.24536905369E+02  0.64865633651E+03  0.70202286895E+03  0.16500000000E+03 0.  0.
   -5000001    1    1    2    0    0  0.21036636118E+03  0.24536905369E+02  0.59352729050E+03  0.65142590538E+03  0.16500000000E+03 0.  0.
<mgrwt>
<rscale>  0 0.53740434E+03</rscale>
<asrwt>0</asrwt>
<pdfrwt beam="1">  1        2 0.19966399E+00 0.53740434E+03</pdfrwt>
<pdfrwt beam="2">  1       -2 0.85588591E-02 0.53740434E+03</pdfrwt>
<totfact> 0.14846746E+03</totfact>
</mgrwt>
</event>
<event>
 4    1  0.3213443E-005  0.1059622E+04  0.7818608E-02  0.9245466E-01
          2   -1    0    0  501    0  0.00000000000E+00  0.00000000000E+00  0.55503679824E+03  0.55503679825E+03  0.25500000000E-02 0.  1.
         -2   -1    0    0    0  501 -0.00000000000E+00 -0.00000000000E+00 -0.50573198494E+03  0.50573198495E+03  0.25500000000E-02 0. -1.
    5000001    1    1    2    0    0 -0.23799751671E+03 -0.28965118821E+03 -0.31176808315E+03  0.51474747835E+03  0.16500000000E+03 0.  0.
   -5000001    1    1    2    0    0  0.23799751671E+03  0.28965118821E+03  0.36107289645E+03  0.54602130485E+03  0.16500000000E+03 0.  0.
<mgrwt>
<rscale>  0 0.10596223E+04</rscale>
<asrwt>0</asrwt>
<pdfrwt beam="1">  1        2 0.85390277E-01 0.10596223E+04</pdfrwt>
<pdfrwt beam="2">  1       -2 0.77804920E-01 0.10596223E+04</pdfrwt>
<totfact> 0.79796747E+01</totfact>
</mgrwt>
</event>
<event>
 4    1  0.3213443E-005  0.4062656E+03  0.7818608E-02  0.1041631E+00
         -2   -1    0    0    0  501 -0.00000000000E+00  0.00000000000E+00  0.37127823862E+02  0.37127823949E+02  0.25500000000E-02 0. -1.
          2   -1    0    0  501    0  0.00000000000E+00 -0.00000000000E+00 -0.11113747342E+04  0.11113747342E+04  0.25500000000E-02 0.  1.
    5000001    1    1    2    0    0  0.23851930712E+02  0.90745555485E+02 -0.74164986801E+03  0.76555417650E+03  0.16500000000E+03 0.  0.
   -5000001    1    1    2    0    0 -0.23851930712E+02 -0.90745555485E+02 -0.33259704228E+03  0.38294838161E+03  0.16500000000E+03 0.  0.
<mgrwt>
<rscale>  0 0.40626556E+03</rscale>
<asrwt>0</asrwt>
<pdfrwt beam="1">  1        2 0.17098070E+00 0.40626556E+03</pdfrwt>
<pdfrwt beam="2">  1       -2 0.57119738E-02 0.40626556E+03</pdfrwt>
<totfact> 0.36041071E+03</totfact>
</mgrwt>
</event>
<event>
 4    1  0.3213443E-005  0.4970367E+03  0.7818608E-02  0.1014555E+00
          2   -1    0    0  501    0  0.00000000000E+00  0.00000000000E+00  0.38476873692E+03  0.38476873693E+03  0.25500000000E-02 0.  1.
         -2   -1    0    0    0  501 -0.00000000000E+00 -0.00000000000E+00 -0.16051558406E+03  0.16051558408E+03  0.25500000000E-02 0. -1.
    5000001    1    1    2    0    0  0.14209986202E+03 -0.10205404453E+03  0.18089268038E+03  0.30092284826E+03  0.16500000000E+03 0.  0.
   -5000001    1    1    2    0    0 -0.14209986202E+03  0.10205404453E+03  0.43360472480E+02  0.24436147275E+03  0.16500000000E+03 0.  0.
<mgrwt>
<rscale>  0 0.49703673E+03</rscale>
<asrwt>0</asrwt>
<pdfrwt beam="1">  1        2 0.59195189E-01 0.49703673E+03</pdfrwt>
<pdfrwt beam="2">  1       -2 0.24694706E-01 0.49703673E+03</pdfrwt>
<totfact> 0.12173872E+03</totfact>
</mgrwt>
</event>
<event>
 4    1  0.3213443E-005  0.4370091E+03  0.7818608E-02  0.1031668E+00
         -2   -1    0    0    0  501 -0.00000000000E+00  0.00000000000E+00  0.62937283030E+02  0.62937283082E+02  0.25500000000E-02 0. -1.
          2   -1    0    0  501    0  0.00000000000E+00 -0.00000000000E+00 -0.75860020647E+03  0.75860020647E+03  0.25500000000E-02 0.  1.
    5000001    1    1    2    0    0  0.80034235808E+02 -0.15115597469E+02 -0.12631083503E+03  0.22318912884E+03  0.16500000000E+03 0.  0.
   -5000001    1    1    2    0    0 -0.80034235808E+02  0.15115597469E+02 -0.56935208841E+03  0.59834836071E+03  0.16500000000E+03 0.  0.
<mgrwt>
<rscale>  0 0.43700909E+03</rscale>
<asrwt>0</asrwt>
<pdfrwt beam="1">  1        2 0.11670772E+00 0.43700909E+03</pdfrwt>
<pdfrwt beam="2">  1       -2 0.96826594E-02 0.43700909E+03</pdfrwt>
<totfact> 0.26646860E+03</totfact>
</mgrwt>
</event>
<event>
 4    1  0.3213443E-005  0.5505720E+03  0.7818608E-02  0.1001362E+00
         -2   -1    0    0    0  501 -0.00000000000E+00  0.00000000000E+00  0.17446338514E+03  0.17446338516E+03  0.25500000000E-02 0. -1.
          2   -1    0    0  501    0  0.00000000000E+00 -0.00000000000E+00 -0.43437408286E+03  0.43437408287E+03  0.25500000000E-02 0.  1.
    5000001    1    1    2    0    0  0.12550245513E+03  0.17879498979E+03 -0.97927219113E+02  0.29074603155E+03  0.16500000000E+03 0.  0.
   -5000001    1    1    2    0    0 -0.12550245513E+03 -0.17879498979E+03 -0.16198347860E+03  0.31809143648E+03  0.16500000000E+03 0.  0.
<mgrwt>
<rscale>  0 0.55057197E+03</rscale>
<asrwt>0</asrwt>
<pdfrwt beam="1">  1        2 0.66826782E-01 0.55057197E+03</pdfrwt>
<pdfrwt beam="2">  1       -2 0.26840521E-01 0.55057197E+03</pdfrwt>
<totfact> 0.91502358E+02</totfact>
</mgrwt>
</event>
<event>
 4    1  0.3213443E-005  0.4154561E+03  0.7818608E-02  0.1038555E+00
         -2   -1    0    0    0  501 -0.00000000000E+00  0.00000000000E+00  0.95947855346E+02  0.95947855380E+02  0.25500000000E-02 0. -1.
          2   -1    0    0  501    0  0.00000000000E+00 -0.00000000000E+00 -0.44973335865E+03  0.44973335866E+03  0.25500000000E-02 0.  1.
    5000001    1    1    2    0    0 -0.54229299977E+02  0.10055098795E+03 -0.10647129066E+03  0.22718374477E+03  0.16500000000E+03 0.  0.
   -5000001    1    1    2    0    0  0.54229299977E+02 -0.10055098795E+03 -0.24731421265E+03  0.31849746927E+03  0.16500000000E+03 0.  0.
<mgrwt>
<rscale>  0 0.41545614E+03</rscale>
<asrwt>0</asrwt>
<pdfrwt beam="1">  1        2 0.69189747E-01 0.41545614E+03</pdfrwt>
<pdfrwt beam="2">  1       -2 0.14761209E-01 0.41545614E+03</pdfrwt>
<totfact> 0.24808865E+03</totfact>
</mgrwt>
</event>
<event>
 4    1  0.3213443E-005  0.6187220E+03  0.7818608E-02  0.9867308E-01
         -2   -1    0    0    0  501 -0.00000000000E+00  0.00000000000E+00  0.39444413085E+02  0.39444413168E+02  0.25500000000E-02 0. -1.
          2   -1    0    0  501    0  0.00000000000E+00 -0.00000000000E+00 -0.24263060877E+04  0.24263060877E+04  0.25500000000E-02 0.  1.
    5000001    1    1    2    0    0  0.16702817184E+03 -0.11827348760E+03 -0.54355460048E+03  0.60379104975E+03  0.16500000000E+03 0.  0.
   -5000001    1    1    2    0    0 -0.16702817184E+03  0.11827348760E+03 -0.18433070741E+04  0.18619594511E+04  0.16500000000E+03 0.  0.
<mgrwt>
<rscale>  0 0.61872197E+03</rscale>
<asrwt>0</asrwt>
<pdfrwt beam="1">  1        2 0.37327774E+00 0.61872197E+03</pdfrwt>
<pdfrwt beam="2">  1       -2 0.60683732E-02 0.61872197E+03</pdfrwt>
<totfact> 0.61307538E+02</totfact>
</mgrwt>
</event>
<event>
 4    1  0.3213443E-005  0.6317073E+03  0.7818608E-02  0.9841723E-01
         -2   -1    0    0    0  501 -0.00000000000E+00  0.00000000000E+00  0.80241971620E+02  0.80241971660E+02  0.25500000000E-02 0. -1.
          2   -1    0    0  501    0  0.00000000000E+00 -0.00000000000E+00 -0.12432837337E+04  0.12432837337E+04  0.25500000000E-02 0.  1.
    5000001    1    1    2    0    0  0.21359611487E+03 -0.12620421850E+03 -0.36190157588E+03  0.46877345880E+03  0.16500000000E+03 0.  0.
   -5000001    1    1    2    0    0 -0.21359611487E+03  0.12620421850E+03 -0.80114018622E+03  0.85475224657E+03  0.16500000000E+03 0.  0.
<mgrwt>
<rscale>  0 0.63170733E+03</rscale>
<asrwt>0</asrwt>
<pdfrwt beam="1">  1        2 0.19127441E+00 0.63170733E+03</pdfrwt>
<pdfrwt beam="2">  1       -2 0.12344920E-01 0.63170733E+03</pdfrwt>
<totfact> 0.87726688E+02</totfact>
</mgrwt>
</event>
<event>
 4    1  0.3213443E-005  0.5446331E+03  0.7818608E-02  0.1002744E+00
          2   -1    0    0  501    0  0.00000000000E+00  0.00000000000E+00  0.13335200699E+04  0.13335200699E+04  0.25500000000E-02 0.  1.
         -2   -1    0    0    0  501 -0.00000000000E+00 -0.00000000000E+00 -0.55609429992E+02  0.55609430051E+02  0.25500000000E-02 0. -1.
    5000001    1    1    2    0    0 -0.25981089144E+02  0.13494263856E+03  0.10661049894E+04  0.10875152326E+04  0.16500000000E+03 0.  0.
   -5000001    1    1    2    0    0  0.25981089144E+02 -0.13494263856E+03  0.21180565053E+03  0.30161426738E+03  0.16500000000E+03 0.  0.
<mgrwt>
<rscale>  0 0.54463305E+03</rscale>
<asrwt>0</asrwt>
<pdfrwt beam="1">  1        2 0.20515693E+00 0.54463305E+03</pdfrwt>
<pdfrwt beam="2">  1       -2 0.85552970E-02 0.54463305E+03</pdfrwt>
<totfact> 0.14175718E+03</totfact>
</mgrwt>
</event>
<event>
 4    1  0.3213443E-005  0.4262778E+03  0.7818608E-02  0.1035042E+00
         -2   -1    0    0    0  501 -0.00000000000E+00  0.00000000000E+00  0.34431151432E+02  0.34431151527E+02  0.25500000000E-02 0. -1.
          2   -1    0    0  501    0  0.00000000000E+00 -0.00000000000E+00 -0.13193919888E+04  0.13193919888E+04  0.25500000000E-02 0.  1.
    5000001    1    1    2    0    0  0.11637809613E+03 -0.62785777766E+02 -0.55742330118E+03  0.59618088853E+03  0.16500000000E+03 0.  0.
   -5000001    1    1    2    0    0 -0.11637809613E+03  0.62785777766E+02 -0.72753753616E+03  0.75764225177E+03  0.16500000000E+03 0.  0.
<mgrwt>
<rscale>  0 0.42627778E+03</rscale>
<asrwt>0</asrwt>
<pdfrwt beam="1">  1        2 0.20298334E+00 0.42627778E+03</pdfrwt>
<pdfrwt beam="2">  1       -2 0.52971012E-02 0.42627778E+03</pdfrwt>
<totfact> 0.30718372E+03</totfact>
</mgrwt>
</event>
<event>
 4    1  0.3213443E-005  0.4623639E+03  0.7818608E-02  0.1024098E+00
         -2   -1    0    0    0  501 -0.00000000000E+00  0.00000000000E+00  0.36656871919E+02  0.36656872008E+02  0.25500000000E-02 0.  1.
          2   -1    0    0  501    0  0.00000000000E+00 -0.00000000000E+00 -0.14579829403E+04  0.14579829403E+04  0.25500000000E-02 0. -1.
    5000001    1    1    2    0    0  0.21253662980E+02 -0.15334092122E+03 -0.86416710537E+03  0.89329443204E+03  0.16500000000E+03 0.  0.
   -5000001    1    1    2    0    0 -0.21253662980E+02  0.15334092122E+03 -0.55715896303E+03  0.60134538029E+03  0.16500000000E+03 0.  0.
<mgrwt>
<rscale>  0 0.46236390E+03</rscale>
<asrwt>0</asrwt>
<pdfrwt beam="1">  1        2 0.22430502E+00 0.46236390E+03</pdfrwt>
<pdfrwt beam="2">  1       -2 0.56395199E-02 0.46236390E+03</pdfrwt>
<totfact> 0.23337545E+03</totfact>
</mgrwt>
</event>
<event>
 4    1  0.3213443E-005  0.5472242E+03  0.7818608E-02  0.1002138E+00
          2   -1    0    0  501    0  0.00000000000E+00  0.00000000000E+00  0.73600385675E+03  0.73600385676E+03  0.25500000000E-02 0.  1.
         -2   -1    0    0    0  501 -0.00000000000E+00 -0.00000000000E+00 -0.10171628781E+03  0.10171628784E+03  0.25500000000E-02 0. -1.
    5000001    1    1    2    0    0  0.17600848683E+03  0.45384243653E+01  0.51461200755E+03  0.56837496694E+03  0.16500000000E+03 0.  0.
   -5000001    1    1    2    0    0 -0.17600848683E+03 -0.45384243653E+01  0.11967556139E+03  0.26934517766E+03  0.16500000000E+03 0.  0.
<mgrwt>
<rscale>  0 0.54722420E+03</rscale>
<asrwt>0</asrwt>
<pdfrwt beam="1">  1        2 0.11323136E+00 0.54722420E+03</pdfrwt>
<pdfrwt beam="2">  1       -2 0.15648660E-01 0.54722420E+03</pdfrwt>
<totfact> 0.12572775E+03</totfact>
</mgrwt>
</event>
<event>
 4    1  0.3213443E-005  0.6929541E+03  0.7818608E-02  0.9729358E-01
         -2   -1    0    0    0  501 -0.00000000000E+00  0.00000000000E+00  0.86960275180E+02  0.86960275218E+02  0.25500000000E-02 0. -1.
          2   -1    0    0  501    0  0.00000000000E+00 -0.00000000000E+00 -0.13804735573E+04  0.13804735573E+04  0.25500000000E-02 0.  1.
    5000001    1    1    2    0    0  0.15313624041E+03 -0.19342829086E+03 -0.26819966885E+03  0.40002659187E+03  0.16500000000E+03 0.  0.
   -5000001    1    1    2    0    0 -0.15313624041E+03  0.19342829086E+03 -0.10253136133E+04  0.10674072407E+04  0.16500000000E+03 0.  0.
<mgrwt>
<rscale>  0 0.69295414E+03</rscale>
<asrwt>0</asrwt>
<pdfrwt beam="1">  1        2 0.21238053E+00 0.69295414E+03</pdfrwt>
<pdfrwt beam="2">  1       -2 0.13378505E-01 0.69295414E+03</pdfrwt>
<totfact> 0.63877742E+02</totfact>
</mgrwt>
</event>
<event>
 4    1  0.3213443E-005  0.4467156E+03  0.7818608E-02  0.1028706E+00
         -2   -1    0    0    0  501 -0.00000000000E+00  0.00000000000E+00  0.41066002068E+02  0.41066002147E+02  0.25500000000E-02 0. -1.
          2   -1    0    0  501    0  0.00000000000E+00 -0.00000000000E+00 -0.12148422618E+04  0.12148422618E+04  0.25500000000E-02 0.  1.
    5000001    1    1    2    0    0  0.68334630347E+02 -0.13400212543E+03 -0.60410993971E+03  0.64404969574E+03  0.16500000000E+03 0.  0.
   -5000001    1    1    2    0    0 -0.68334630347E+02  0.13400212543E+03 -0.56966631997E+03  0.61185856816E+03  0.16500000000E+03 0.  0.
<mgrwt>
<rscale>  0 0.44671564E+03</rscale>
<asrwt>0</asrwt>
<pdfrwt beam="1">  1        2 0.18689878E+00 0.44671564E+03</pdfrwt>
<pdfrwt beam="2">  1       -2 0.63178474E-02 0.44671564E+03</pdfrwt>
<totfact> 0.26801221E+03</totfact>
</mgrwt>
</event>
<event>
 4    1  0.3213443E-005  0.5165912E+03  0.7818608E-02  0.1009537E+00
          2   -1    0    0  501    0  0.00000000000E+00  0.00000000000E+00  0.14229315328E+04  0.14229315328E+04  0.25500000000E-02 0.  1.
         -2   -1    0    0    0  501 -0.00000000000E+00 -0.00000000000E+00 -0.46886732232E+02  0.46886732301E+02  0.25500000000E-02 0. -1.
    5000001    1    1    2    0    0 -0.41490267288E+02  0.15833437313E+03  0.10086679772E+04  0.10350977269E+04  0.16500000000E+03 0.  0.
   -5000001    1    1    2    0    0  0.41490267288E+02 -0.15833437313E+03  0.36737682336E+03  0.43472053820E+03  0.16500000000E+03 0.  0.
<mgrwt>
<rscale>  0 0.51659117E+03</rscale>
<asrwt>0</asrwt>
<pdfrwt beam="1">  1        2 0.21891249E+00 0.51659117E+03</pdfrwt>
<pdfrwt beam="2">  1       -2 0.72133450E-02 0.51659117E+03</pdfrwt>
<totfact> 0.16577362E+03</totfact>
</mgrwt>
</event>
<event>
 4    1  0.3213443E-005  0.3823732E+03  0.7818608E-02  0.1050060E+00
          2   -1    0    0  501    0  0.00000000000E+00  0.00000000000E+00  0.96156777080E+03  0.96156777080E+03  0.25500000000E-02 0.  1.
         -2   -1    0    0    0  501 -0.00000000000E+00 -0.00000000000E+00 -0.38013244235E+02  0.38013244321E+02  0.25500000000E-02 0. -1.
    5000001    1    1    2    0    0 -0.43799232350E+02 -0.73556422827E+02  0.57863857613E+03  0.60776354109E+03  0.16500000000E+03 0.  0.
   -5000001    1    1    2    0    0  0.43799232350E+02  0.73556422827E+02  0.34491595044E+03  0.39181747404E+03  0.16500000000E+03 0.  0.
<mgrwt>
<rscale>  0 0.38237317E+03</rscale>
<asrwt>0</asrwt>
<pdfrwt beam="1">  1        2 0.14793349E+00 0.38237317E+03</pdfrwt>
<pdfrwt beam="2">  1       -2 0.58481918E-02 0.38237317E+03</pdfrwt>
<totfact> 0.42912061E+03</totfact>
</mgrwt>
</event>
<event>
 4    1  0.3213443E-005  0.4137589E+03  0.7818608E-02  0.1039117E+00
         -2   -1    0    0    0  501 -0.00000000000E+00  0.00000000000E+00  0.22858485900E+02  0.22858486042E+02  0.25500000000E-02 0. -1.
          2   -1    0    0  501    0  0.00000000000E+00 -0.00000000000E+00 -0.18723511268E+04  0.18723511268E+04  0.25500000000E-02 0.  1.
    5000001    1    1    2    0    0  0.10092538295E+03  0.43390392503E+02 -0.11959414858E+04  0.12122580981E+04  0.16500000000E+03 0.  0.
   -5000001    1    1    2    0    0 -0.10092538295E+03 -0.43390392503E+02 -0.65355115516E+03  0.68295151474E+03  0.16500000000E+03 0.  0.
<mgrwt>
<rscale>  0 0.41375892E+03</rscale>
<asrwt>0</asrwt>
<pdfrwt beam="1">  1        2 0.28805390E+00 0.41375892E+03</pdfrwt>
<pdfrwt beam="2">  1       -2 0.35166916E-02 0.41375892E+03</pdfrwt>
<totfact> 0.28810316E+03</totfact>
</mgrwt>
</event>
<event>
 4    1  0.3213443E-005  0.5847504E+03  0.7818608E-02  0.9937559E-01
         -2   -1    0    0    0  501 -0.00000000000E+00  0.00000000000E+00  0.41228904192E+02  0.41228904270E+02  0.25500000000E-02 0. -1.
          2   -1    0    0  501    0  0.00000000000E+00 -0.00000000000E+00 -0.20733818939E+04  0.20733818939E+04  0.25500000000E-02 0.  1.
    5000001    1    1    2    0    0 -0.10732758669E+03 -0.19608317025E+03 -0.68680906613E+03  0.74087752958E+03  0.16500000000E+03 0.  0.
   -5000001    1    1    2    0    0  0.10732758669E+03  0.19608317025E+03 -0.13453439236E+04  0.13737332686E+04  0.16500000000E+03 0.  0.
<mgrwt>
<rscale>  0 0.58475042E+03</rscale>
<asrwt>0</asrwt>
<pdfrwt beam="1">  1        2 0.31898175E+00 0.58475042E+03</pdfrwt>
<pdfrwt beam="2">  1       -2 0.63429100E-02 0.58475042E+03</pdfrwt>
<totfact> 0.89651576E+02</totfact>
</mgrwt>
</event>
<event>
 4    1  0.3213443E-005  0.5317159E+03  0.7818608E-02  0.1005817E+00
          2   -1    0    0  501    0  0.00000000000E+00  0.00000000000E+00  0.17068964709E+04  0.17068964709E+04  0.25500000000E-02 0.  1.
         -2   -1    0    0    0  501 -0.00000000000E+00 -0.00000000000E+00 -0.41408755729E+02  0.41408755808E+02  0.25500000000E-02 0. -1.
    5000001    1    1    2    0    0  0.10104916870E+03 -0.18229563297E+03  0.84451982595E+03  0.88537075212E+03  0.16500000000E+03 0.  0.
   -5000001    1    1    2    0    0 -0.10104916870E+03  0.18229563297E+03  0.82096788923E+03  0.86293447459E+03  0.16500000000E+03 0.  0.
<mgrwt>
<rscale>  0 0.53171594E+03</rscale>
<asrwt>0</asrwt>
<pdfrwt beam="1">  1        2 0.26259945E+00 0.53171594E+03</pdfrwt>
<pdfrwt beam="2">  1       -2 0.63705781E-02 0.53171594E+03</pdfrwt>
<totfact> 0.14090271E+03</totfact>
</mgrwt>
</event>
<event>
 4    1  0.3213443E-005  0.5458826E+03  0.7818608E-02  0.1002451E+00
          2   -1    0    0  501    0  0.00000000000E+00  0.00000000000E+00  0.53593411295E+03  0.53593411296E+03  0.25500000000E-02 0.  1.
         -2   -1    0    0    0  501 -0.00000000000E+00 -0.00000000000E+00 -0.13900393721E+03  0.13900393723E+03  0.25500000000E-02 0. -1.
    5000001    1    1    2    0    0 -0.18006160979E+03 -0.10801229361E+03  0.12870762336E+03  0.29644475236E+03  0.16500000000E+03 0.  0.
   -5000001    1    1    2    0    0  0.18006160979E+03  0.10801229361E+03  0.26822255239E+03  0.37849329783E+03  0.16500000000E+03 0.  0.
<mgrwt>
<rscale>  0 0.54588259E+03</rscale>
<asrwt>0</asrwt>
<pdfrwt beam="1">  1        2 0.82451402E-01 0.54588259E+03</pdfrwt>
<pdfrwt beam="2">  1       -2 0.21385221E-01 0.54588259E+03</pdfrwt>
<totfact> 0.10790273E+03</totfact>
</mgrwt>
</event>
<event>
 4    1  0.3213443E-005  0.4008090E+03  0.7818608E-02  0.1043500E+00
         -2   -1    0    0    0  501 -0.00000000000E+00  0.00000000000E+00  0.15405632258E+03  0.15405632260E+03  0.25500000000E-02 0. -1.
          2   -1    0    0  501    0  0.00000000000E+00 -0.00000000000E+00 -0.26069662009E+03  0.26069662010E+03  0.25500000000E-02 0.  1.
    5000001    1    1    2    0    0  0.56048615355E+02 -0.73834328364E+02  0.14881879271E+02  0.18984052691E+03  0.16500000000E+03 0.  0.
   -5000001    1    1    2    0    0 -0.56048615355E+02  0.73834328364E+02 -0.12152217677E+03  0.22491241579E+03  0.16500000000E+03 0.  0.
<mgrwt>
<rscale>  0 0.40080899E+03</rscale>
<asrwt>0</asrwt>
<pdfrwt beam="1">  1        2 0.40107172E-01 0.40080899E+03</pdfrwt>
<pdfrwt beam="2">  1       -2 0.23700973E-01 0.40080899E+03</pdfrwt>
<totfact> 0.20041588E+03</totfact>
</mgrwt>
</event>
<event>
 4    1  0.3213443E-005  0.4026406E+03  0.7818608E-02  0.1042869E+00
         -2   -1    0    0    0  501 -0.00000000000E+00  0.00000000000E+00  0.24818256664E+02  0.24818256795E+02  0.25500000000E-02 0. -1.
          2   -1    0    0  501    0  0.00000000000E+00 -0.00000000000E+00 -0.16330661715E+04  0.16330661715E+04  0.25500000000E-02 0.  1.
    5000001    1    1    2    0    0  0.96474792010E+02  0.62781954146E+02 -0.77333974559E+03  0.79907967148E+03  0.16500000000E+03 0.  0.
   -5000001    1    1    2    0    0 -0.96474792010E+02 -0.62781954146E+02 -0.83490816921E+03  0.85880475678E+03  0.16500000000E+03 0.  0.
<mgrwt>
<rscale>  0 0.40264056E+03</rscale>
<asrwt>0</asrwt>
<pdfrwt beam="1">  1        2 0.25124087E+00 0.40264056E+03</pdfrwt>
<pdfrwt beam="2">  1       -2 0.38181946E-02 0.40264056E+03</pdfrwt>
<totfact> 0.34150365E+03</totfact>
</mgrwt>
</event>
<event>
 4    1  0.3213443E-005  0.4000267E+03  0.7818608E-02  0.1043770E+00
          2   -1    0    0  501    0  0.00000000000E+00  0.00000000000E+00  0.77512801287E+03  0.77512801287E+03  0.25500000000E-02 0.  1.
         -2   -1    0    0    0  501 -0.00000000000E+00 -0.00000000000E+00 -0.51611274595E+02  0.51611274658E+02  0.25500000000E-02 0. -1.
    5000001    1    1    2    0    0  0.88702066967E+02  0.66058216701E+02  0.41016529470E+03  0.45573272173E+03  0.16500000000E+03 0.  0.
   -5000001    1    1    2    0    0 -0.88702066967E+02 -0.66058216701E+02  0.31335144357E+03  0.37100656580E+03  0.16500000000E+03 0.  0.
<mgrwt>
<rscale>  0 0.40002672E+03</rscale>
<asrwt>0</asrwt>
<pdfrwt beam="1">  1        2 0.11925046E+00 0.40002672E+03</pdfrwt>
<pdfrwt beam="2">  1       -2 0.79401963E-02 0.40002672E+03</pdfrwt>
<totfact> 0.35521461E+03</totfact>
</mgrwt>
</event>
<event>
 4    1  0.3213443E-005  0.5153010E+03  0.7818608E-02  0.1009861E+00
          2   -1    0    0  501    0  0.00000000000E+00  0.00000000000E+00  0.57099501286E+03  0.57099501286E+03  0.25500000000E-02 0.  1.
         -2   -1    0    0    0  501 -0.00000000000E+00 -0.00000000000E+00 -0.11625984082E+03  0.11625984085E+03  0.25500000000E-02 0. -1.
    5000001    1    1    2    0    0  0.16742013392E+03  0.10285396864E+03  0.19607971782E+03  0.32292521712E+03  0.16500000000E+03 0.  0.
   -5000001    1    1    2    0    0 -0.16742013392E+03 -0.10285396864E+03  0.25865545421E+03  0.36432963659E+03  0.16500000000E+03 0.  0.
<mgrwt>
<rscale>  0 0.51530104E+03</rscale>
<asrwt>0</asrwt>
<pdfrwt beam="1">  1        2 0.87845386E-01 0.51530104E+03</pdfrwt>
<pdfrwt beam="2">  1       -2 0.17886129E-01 0.51530104E+03</pdfrwt>
<totfact> 0.13657911E+03</totfact>
</mgrwt>
</event>
<event>
 4    1  0.3213443E-005  0.5343076E+03  0.7818608E-02  0.1005193E+00
          2   -1    0    0  501    0  0.00000000000E+00  0.00000000000E+00  0.33811857960E+03  0.33811857961E+03  0.25500000000E-02 0.  1.
         -2   -1    0    0    0  501 -0.00000000000E+00 -0.00000000000E+00 -0.21108320547E+03  0.21108320548E+03  0.25500000000E-02 0. -1.
    5000001    1    1    2    0    0 -0.45431848931E+02  0.17784986399E+03 -0.41564826193E+02  0.25029435031E+03  0.16500000000E+03 0.  0.
   -5000001    1    1    2    0    0  0.45431848931E+02 -0.17784986399E+03  0.16860020032E+03  0.29890743478E+03  0.16500000000E+03 0.  0.
<mgrwt>
<rscale>  0 0.53430760E+03</rscale>
<asrwt>0</asrwt>
<pdfrwt beam="1">  1        2 0.52018243E-01 0.53430760E+03</pdfrwt>
<pdfrwt beam="2">  1       -2 0.32474339E-01 0.53430760E+03</pdfrwt>
<totfact> 0.85167145E+02</totfact>
</mgrwt>
</event>
<event>
 4    1  0.3213443E-005  0.6259196E+03  0.7818608E-02  0.9853044E-01
         -2   -1    0    0    0  501 -0.00000000000E+00  0.00000000000E+00  0.45721773129E+02  0.45721773200E+02  0.25500000000E-02 0. -1.
          2   -1    0    0  501    0  0.00000000000E+00 -0.00000000000E+00 -0.21421706156E+04  0.21421706156E+04  0.25500000000E-02 0.  1.
    5000001    1    1    2    0    0 -0.23209520948E+03 -0.78064745377E+02 -0.14107543495E+04  0.14413240875E+04  0.16500000000E+03 0.  0.
   -5000001    1    1    2    0    0  0.23209520948E+03  0.78064745377E+02 -0.68569449295E+03  0.74656830123E+03  0.16500000000E+03 0.  0.
<mgrwt>
<rscale>  0 0.62591961E+03</rscale>
<asrwt>0</asrwt>
<pdfrwt beam="1">  1        2 0.32956463E+00 0.62591961E+03</pdfrwt>
<pdfrwt beam="2">  1       -2 0.70341206E-02 0.62591961E+03</pdfrwt>
<totfact> 0.69664100E+02</totfact>
</mgrwt>
</event>
<event>
 4    1  0.3213443E-005  0.4686784E+03  0.7818608E-02  0.1022294E+00
         -2   -1    0    0    0  501 -0.00000000000E+00  0.00000000000E+00  0.23216536795E+03  0.23216536796E+03  0.25500000000E-02 0. -1.
          2   -1    0    0  501    0  0.00000000000E+00 -0.00000000000E+00 -0.23653335516E+03  0.23653335517E+03  0.25500000000E-02 0.  1.
    5000001    1    1    2    0    0  0.13529516068E+03 -0.88428400173E+02 -0.41751997798E+02  0.23471811132E+03  0.16500000000E+03 0.  0.
   -5000001    1    1    2    0    0 -0.13529516068E+03  0.88428400173E+02  0.37384010585E+02  0.23398061182E+03  0.16500000000E+03 0.  0.
<mgrwt>
<rscale>  0 0.46867837E+03</rscale>
<asrwt>0</asrwt>
<pdfrwt beam="1">  1        2 0.36389747E-01 0.46867837E+03</pdfrwt>
<pdfrwt beam="2">  1       -2 0.35717749E-01 0.46867837E+03</pdfrwt>
<totfact> 0.10551020E+03</totfact>
</mgrwt>
</event>
<event>
 4    1  0.3213443E-005  0.1050093E+04  0.7818608E-02  0.9255248E-01
          2   -1    0    0  501    0  0.00000000000E+00  0.00000000000E+00  0.83113583865E+03  0.83113583866E+03  0.25500000000E-02 0.  1.
         -2   -1    0    0    0  501 -0.00000000000E+00 -0.00000000000E+00 -0.33168302809E+03  0.33168302810E+03  0.25500000000E-02 0. -1.
    5000001    1    1    2    0    0 -0.29719796766E+03 -0.38584887699E+03  0.13231262861E+03  0.53097798405E+03  0.16500000000E+03 0.  0.
   -5000001    1    1    2    0    0  0.29719796766E+03  0.38584887699E+03  0.36714018195E+03  0.63184088271E+03  0.16500000000E+03 0.  0.
<mgrwt>
<rscale>  0 0.10500927E+04</rscale>
<asrwt>0</asrwt>
<pdfrwt beam="1">  1        2 0.12786705E+00 0.10500927E+04</pdfrwt>
<pdfrwt beam="2">  1       -2 0.51028158E-01 0.10500927E+04</pdfrwt>
<totfact> 0.11827000E+02</totfact>
</mgrwt>
</event>
<event>
 4    1  0.3213443E-005  0.5877930E+03  0.7818608E-02  0.9931060E-01
          2   -1    0    0  501    0  0.00000000000E+00  0.00000000000E+00  0.23418698744E+04  0.23418698744E+04  0.25500000000E-02 0.  1.
         -2   -1    0    0    0  501 -0.00000000000E+00 -0.00000000000E+00 -0.36882982810E+02  0.36882982898E+02  0.25500000000E-02 0. -1.
    5000001    1    1    2    0    0 -0.19056647213E+03  0.69550365380E+02  0.16954045963E+04  0.17154517128E+04  0.16500000000E+03 0.  0.
   -5000001    1    1    2    0    0  0.19056647213E+03 -0.69550365380E+02  0.60958229523E+03  0.66330114449E+03  0.16500000000E+03 0.  0.
<mgrwt>
<rscale>  0 0.58779298E+03</rscale>
<asrwt>0</asrwt>
<pdfrwt beam="1">  1        2 0.36028773E+00 0.58779298E+03</pdfrwt>
<pdfrwt beam="2">  1       -2 0.56743042E-02 0.58779298E+03</pdfrwt>
<totfact> 0.76069426E+02</totfact>
</mgrwt>
</event>
<event>
 4    1  0.3213443E-005  0.3940799E+03  0.7818608E-02  0.1045849E+00
          2   -1    0    0  501    0  0.00000000000E+00  0.00000000000E+00  0.83129937334E+02  0.83129937373E+02  0.25500000000E-02 0.  1.
         -2   -1    0    0    0  501 -0.00000000000E+00 -0.00000000000E+00 -0.46703674350E+03  0.46703674351E+03  0.25500000000E-02 0. -1.
    5000001    1    1    2    0    0  0.72586451228E+02  0.64512800552E+02 -0.25697294544E+03  0.32045403574E+03  0.16500000000E+03 0.  0.
   -5000001    1    1    2    0    0 -0.72586451228E+02 -0.64512800552E+02 -0.12693386073E+03  0.22971264514E+03  0.16500000000E+03 0.  0.
<mgrwt>
<rscale>  0 0.39407987E+03</rscale>
<asrwt>0</asrwt>
<pdfrwt beam="1">  1        2 0.12789221E-01 0.39407987E+03</pdfrwt>
<pdfrwt beam="2">  1       -2 0.71851806E-01 0.39407987E+03</pdfrwt>
<totfact> 0.85766197E+02</totfact>
</mgrwt>
</event>
<event>
 4    1  0.3213443E-005  0.3936265E+03  0.7818608E-02  0.1046009E+00
          2   -1    0    0  501    0  0.00000000000E+00  0.00000000000E+00  0.43285056192E+03  0.43285056193E+03  0.25500000000E-02 0.  1.
         -2   -1    0    0    0  501 -0.00000000000E+00 -0.00000000000E+00 -0.89489210634E+02  0.89489210671E+02  0.25500000000E-02 0. -1.
    5000001    1    1    2    0    0  0.88539468989E+02  0.37432604421E+02  0.23490488225E+03  0.30273047608E+03  0.16500000000E+03 0.  0.
   -5000001    1    1    2    0    0 -0.88539468989E+02 -0.37432604421E+02  0.10845646904E+03  0.21960929652E+03  0.16500000000E+03 0.  0.
<mgrwt>
<rscale>  0 0.39362650E+03</rscale>
<asrwt>0</asrwt>
<pdfrwt beam="1">  1        2 0.66592393E-01 0.39362650E+03</pdfrwt>
<pdfrwt beam="2">  1       -2 0.13767571E-01 0.39362650E+03</pdfrwt>
<totfact> 0.29043932E+03</totfact>
</mgrwt>
</event>
<event>
 4    1  0.3213443E-005  0.6573823E+03  0.7818608E-02  0.9793025E-01
         -2   -1    0    0    0  501 -0.00000000000E+00  0.00000000000E+00  0.86644004365E+02  0.86644004402E+02  0.25500000000E-02 0. -1.
          2   -1    0    0  501    0  0.00000000000E+00 -0.00000000000E+00 -0.12469169283E+04  0.12469169283E+04  0.25500000000E-02 0.  1.
    5000001    1    1    2    0    0  0.27653103308E+03 -0.48551041690E+02 -0.67054571635E+03  0.74544159638E+03  0.16500000000E+03 0.  0.
   -5000001    1    1    2    0    0 -0.27653103308E+03  0.48551041690E+02 -0.48972720757E+03  0.58811933631E+03  0.16500000000E+03 0.  0.
<mgrwt>
<rscale>  0 0.65738231E+03</rscale>
<asrwt>0</asrwt>
<pdfrwt beam="1">  1        2 0.19183336E+00 0.65738231E+03</pdfrwt>
<pdfrwt beam="2">  1       -2 0.13329848E-01 0.65738231E+03</pdfrwt>
<totfact> 0.76776063E+02</totfact>
</mgrwt>
</event>
<event>
 4    1  0.3213443E-005  0.4097989E+03  0.7818608E-02  0.1040439E+00
         -2   -1    0    0    0  501 -0.00000000000E+00  0.00000000000E+00  0.19043493905E+03  0.19043493906E+03  0.25500000000E-02 0. -1.
          2   -1    0    0  501    0  0.00000000000E+00 -0.00000000000E+00 -0.22046258960E+03  0.22046258961E+03  0.25500000000E-02 0.  1.
    5000001    1    1    2    0    0  0.87529178673E+02  0.54187252035E+02 -0.79693853941E+02  0.21017546422E+03  0.16500000000E+03 0.  0.
   -5000001    1    1    2    0    0 -0.87529178673E+02 -0.54187252035E+02  0.49666203392E+02  0.20072206446E+03  0.16500000000E+03 0.  0.
<mgrwt>
<rscale>  0 0.40979888E+03</rscale>
<asrwt>0</asrwt>
<pdfrwt beam="1">  1        2 0.33917322E-01 0.40979888E+03</pdfrwt>
<pdfrwt beam="2">  1       -2 0.29297683E-01 0.40979888E+03</pdfrwt>
<totfact> 0.16468004E+03</totfact>
</mgrwt>
</event>
<event>
 4    1  0.3213443E-005  0.4193301E+03  0.7818608E-02  0.1037285E+00
          2   -1    0    0  501    0  0.00000000000E+00  0.00000000000E+00  0.28428601435E+04  0.28428601435E+04  0.25500000000E-02 0.  1.
         -2   -1    0    0    0  501 -0.00000000000E+00 -0.00000000000E+00 -0.15463101567E+02  0.15463101777E+02  0.25500000000E-02 0. -1.
    5000001    1    1    2    0    0  0.72806037427E+02  0.97178940144E+02  0.17177720057E+04  0.17299451232E+04  0.16500000000E+03 0.  0.
   -5000001    1    1    2    0    0 -0.72806037427E+02 -0.97178940144E+02  0.11096250362E+04  0.11283781221E+04  0.16500000000E+03 0.  0.
<mgrwt>
<rscale>  0 0.41933011E+03</rscale>
<asrwt>0</asrwt>
<pdfrwt beam="1">  1        2 0.43736322E+00 0.41933011E+03</pdfrwt>
<pdfrwt beam="2">  1       -2 0.23789381E-02 0.41933011E+03</pdfrwt>
<totfact> 0.15127666E+03</totfact>
</mgrwt>
</event>
<event>
 4    1  0.3213443E-005  0.9823080E+03  0.7818608E-02  0.9328165E-01
          2   -1    0    0  501    0  0.00000000000E+00  0.00000000000E+00  0.87152361517E+03  0.87152361518E+03  0.25500000000E-02 0.  1.
         -2   -1    0    0    0  501 -0.00000000000E+00 -0.00000000000E+00 -0.27679372311E+03  0.27679372313E+03  0.25500000000E-02 0. -1.
    5000001    1    1    2    0    0 -0.14068132388E+03  0.40228025082E+03  0.50774139282E+03  0.68311562496E+03  0.16500000000E+03 0.  0.
   -5000001    1    1    2    0    0  0.14068132388E+03 -0.40228025082E+03  0.86988499242E+02  0.46520171334E+03  0.16500000000E+03 0.  0.
<mgrwt>
<rscale>  0 0.98230803E+03</rscale>
<asrwt>0</asrwt>
<pdfrwt beam="1">  1        2 0.13408056E+00 0.98230803E+03</pdfrwt>
<pdfrwt beam="2">  1       -2 0.42583650E-01 0.98230803E+03</pdfrwt>
<totfact> 0.16009790E+02</totfact>
</mgrwt>
</event>
<event>
 4    1  0.3213443E-005  0.4645643E+03  0.7818608E-02  0.1023466E+00
         -2   -1    0    0    0  501 -0.00000000000E+00  0.00000000000E+00  0.68069563406E+02  0.68069563453E+02  0.25500000000E-02 0. -1.
          2   -1    0    0  501    0  0.00000000000E+00 -0.00000000000E+00 -0.79264490435E+03  0.79264490436E+03  0.25500000000E-02 0.  1.
    5000001    1    1    2    0    0  0.30719588887E+02 -0.12329085414E+03 -0.17166596251E+03  0.26988614366E+03  0.16500000000E+03 0.  0.
   -5000001    1    1    2    0    0 -0.30719588887E+02  0.12329085414E+03 -0.55290937844E+03  0.59082832415E+03  0.16500000000E+03 0.  0.
<mgrwt>
<rscale>  0 0.46456428E+03</rscale>
<asrwt>0</asrwt>
<pdfrwt beam="1">  1        2 0.12194536E+00 0.46456428E+03</pdfrwt>
<pdfrwt beam="2">  1       -2 0.10472241E-01 0.46456428E+03</pdfrwt>
<totfact> 0.22201996E+03</totfact>
</mgrwt>
</event>
<event>
 4    1  0.3213443E-005  0.4561941E+03  0.7818608E-02  0.1025891E+00
          2   -1    0    0  501    0  0.00000000000E+00  0.00000000000E+00  0.19034429736E+03  0.19034429738E+03  0.25500000000E-02 0.  1.
         -2   -1    0    0    0  501 -0.00000000000E+00 -0.00000000000E+00 -0.27333769370E+03  0.27333769371E+03  0.25500000000E-02 0. -1.
    5000001    1    1    2    0    0 -0.13101313590E+03  0.37244202081E+02 -0.12186218154E+03  0.24622543260E+03  0.16500000000E+03 0.  0.
   -5000001    1    1    2    0    0  0.13101313590E+03 -0.37244202081E+02  0.38868785209E+02  0.21745655849E+03  0.16500000000E+03 0.  0.
<mgrwt>
<rscale>  0 0.45619413E+03</rscale>
<asrwt>0</asrwt>
<pdfrwt beam="1">  1        2 0.29283738E-01 0.45619413E+03</pdfrwt>
<pdfrwt beam="2">  1       -2 0.42051953E-01 0.45619413E+03</pdfrwt>
<totfact> 0.98127936E+02</totfact>
</mgrwt>
</event>
<event>
 4    1  0.3213443E-005  0.3742604E+03  0.7818608E-02  0.1053076E+00
         -2   -1    0    0    0  501 -0.00000000000E+00  0.00000000000E+00  0.32295533177E+03  0.32295533178E+03  0.25500000000E-02 0. -1.
          2   -1    0    0  501    0  0.00000000000E+00 -0.00000000000E+00 -0.10842898843E+03  0.10842898846E+03  0.25500000000E-02 0.  1.
    5000001    1    1    2    0    0  0.27108641090E+02 -0.30258601691E+02  0.16928499285E+02  0.17076895352E+03  0.16500000000E+03 0.  0.
   -5000001    1    1    2    0    0 -0.27108641090E+02  0.30258601691E+02  0.19759784406E+03  0.26061536673E+03  0.16500000000E+03 0.  0.
<mgrwt>
<rscale>  0 0.37426044E+03</rscale>
<asrwt>0</asrwt>
<pdfrwt beam="1">  1        2 0.16681383E-01 0.37426044E+03</pdfrwt>
<pdfrwt beam="2">  1       -2 0.49685436E-01 0.37426044E+03</pdfrwt>
<totfact> 0.13443903E+03</totfact>
</mgrwt>
</event>
<event>
 4    1  0.3213443E-005  0.5739030E+03  0.7818608E-02  0.9961079E-01
          2   -1    0    0  501    0  0.00000000000E+00  0.00000000000E+00  0.76008953301E+03  0.76008953302E+03  0.25500000000E-02 0.  1.
         -2   -1    0    0    0  501 -0.00000000000E+00 -0.00000000000E+00 -0.10833087774E+03  0.10833087777E+03  0.25500000000E-02 0. -1.
    5000001    1    1    2    0    0 -0.17997346715E+03 -0.14528173774E+03  0.38676373778E+03  0.47990459579E+03  0.16500000000E+03 0.  0.
   -5000001    1    1    2    0    0  0.17997346715E+03  0.14528173774E+03  0.26499491749E+03  0.38851581499E+03  0.16500000000E+03 0.  0.
<mgrwt>
<rscale>  0 0.57390301E+03</rscale>
<asrwt>0</asrwt>
<pdfrwt beam="1">  1        2 0.11693685E+00 0.57390301E+03</pdfrwt>
<pdfrwt beam="2">  1       -2 0.16666289E-01 0.57390301E+03</pdfrwt>
<totfact> 0.10839109E+03</totfact>
</mgrwt>
</event>
<event>
 4    1  0.3213443E-005  0.4315612E+03  0.7818608E-02  0.1033368E+00
         -2   -1    0    0    0  501 -0.00000000000E+00  0.00000000000E+00  0.94090870991E+02  0.94090871026E+02  0.25500000000E-02 0. -1.
          2   -1    0    0  501    0  0.00000000000E+00 -0.00000000000E+00 -0.49485420825E+03  0.49485420826E+03  0.25500000000E-02 0.  1.
    5000001    1    1    2    0    0  0.11665973000E+03  0.52943053284E+02 -0.27417320461E+03  0.34468595217E+03  0.16500000000E+03 0.  0.
   -5000001    1    1    2    0    0 -0.11665973000E+03 -0.52943053284E+02 -0.12659013265E+03  0.24425912712E+03  0.16500000000E+03 0.  0.
<mgrwt>
<rscale>  0 0.43156118E+03</rscale>
<asrwt>0</asrwt>
<pdfrwt beam="1">  1        2 0.76131415E-01 0.43156118E+03</pdfrwt>
<pdfrwt beam="2">  1       -2 0.14475519E-01 0.43156118E+03</pdfrwt>
<totfact> 0.23018573E+03</totfact>
</mgrwt>
</event>
<event>
 4    1  0.3213443E-005  0.8306303E+03  0.7818608E-02  0.9516710E-01
          2   -1    0    0  501    0  0.00000000000E+00  0.00000000000E+00  0.65441595474E+03  0.65441595474E+03  0.25500000000E-02 0. -1.
         -2   -1    0    0    0  501 -0.00000000000E+00 -0.00000000000E+00 -0.26357343890E+03  0.26357343891E+03  0.25500000000E-02 0.  1.
    5000001    1    1    2    0    0  0.10112834224E+03 -0.34635952184E+03  0.59751295623E+02  0.40123194951E+03  0.16500000000E+03 0.  0.
   -5000001    1    1    2    0    0 -0.10112834224E+03  0.34635952184E+03  0.33109122022E+03  0.51675744415E+03  0.16500000000E+03 0.  0.
<mgrwt>
<rscale>  0 0.83063028E+03</rscale>
<asrwt>0</asrwt>
<pdfrwt beam="1">  1        2 0.10067938E+00 0.83063028E+03</pdfrwt>
<pdfrwt beam="2">  1       -2 0.40549760E-01 0.83063028E+03</pdfrwt>
<totfact> 0.25801439E+02</totfact>
</mgrwt>
</event>
<event>
 4    1  0.3213443E-005  0.4858419E+03  0.7818608E-02  0.1017542E+00
         -2   -1    0    0    0  501 -0.00000000000E+00  0.00000000000E+00  0.27993389087E+02  0.27993389203E+02  0.25500000000E-02 0. -1.
          2   -1    0    0  501    0  0.00000000000E+00 -0.00000000000E+00 -0.21080185768E+04  0.21080185768E+04  0.25500000000E-02 0.  1.
    5000001    1    1    2    0    0  0.86648400055E+02  0.13739405236E+03 -0.13631046318E+04  0.13826294905E+04  0.16500000000E+03 0.  0.
   -5000001    1    1    2    0    0 -0.86648400055E+02 -0.13739405236E+03 -0.71692055591E+03  0.75338247547E+03  0.16500000000E+03 0.  0.
<mgrwt>
<rscale>  0 0.48584189E+03</rscale>
<asrwt>0</asrwt>
<pdfrwt beam="1">  1        2 0.32431043E+00 0.48584189E+03</pdfrwt>
<pdfrwt beam="2">  1       -2 0.43066769E-02 0.48584189E+03</pdfrwt>
<totfact> 0.15757531E+03</totfact>
</mgrwt>
</event>
<event>
 4    1  0.3213443E-005  0.4838607E+03  0.7818608E-02  0.1018079E+00
         -2   -1    0    0    0  501 -0.00000000000E+00  0.00000000000E+00  0.94564679361E+02  0.94564679395E+02  0.25500000000E-02 0.  1.
          2   -1    0    0  501    0  0.00000000000E+00 -0.00000000000E+00 -0.61894468387E+03  0.61894468388E+03  0.25500000000E-02 0. -1.
    5000001    1    1    2    0    0  0.11917206210E+03  0.12086340888E+03 -0.33585243007E+03  0.41089146837E+03  0.16500000000E+03 0.  0.
   -5000001    1    1    2    0    0 -0.11917206210E+03 -0.12086340888E+03 -0.18852757444E+03  0.30261789490E+03  0.16500000000E+03 0.  0.
<mgrwt>
<rscale>  0 0.48386075E+03</rscale>
<asrwt>0</asrwt>
<pdfrwt beam="1">  1        2 0.95222257E-01 0.48386075E+03</pdfrwt>
<pdfrwt beam="2">  1       -2 0.14548413E-01 0.48386075E+03</pdfrwt>
<totfact> 0.17598304E+03</totfact>
</mgrwt>
</event>
<event>
 4    1  0.3213443E-005  0.4669466E+03  0.7818608E-02  0.1022786E+00
         -2   -1    0    0    0  501 -0.00000000000E+00  0.00000000000E+00  0.24522041176E+02  0.24522041308E+02  0.25500000000E-02 0. -1.
          2   -1    0    0  501    0  0.00000000000E+00 -0.00000000000E+00 -0.22228891752E+04  0.22228891752E+04  0.25500000000E-02 0.  1.
    5000001    1    1    2    0    0 -0.14126923763E+03  0.46867201126E+02 -0.75441565723E+03  0.78646138870E+03  0.16500000000E+03 0.  0.
   -5000001    1    1    2    0    0  0.14126923763E+03 -0.46867201126E+02 -0.14439514768E+04  0.14609498278E+04  0.16500000000E+03 0.  0.
<mgrwt>
<rscale>  0 0.46694659E+03</rscale>
<asrwt>0</asrwt>
<pdfrwt beam="1">  1        2 0.34198279E+00 0.46694659E+03</pdfrwt>
<pdfrwt beam="2">  1       -2 0.37726235E-02 0.46694659E+03</pdfrwt>
<totfact> 0.16737154E+03</totfact>
</mgrwt>
</event>
<event>
 4    1  0.3213443E-005  0.4226549E+03  0.7818608E-02  0.1036206E+00
          2   -1    0    0  501    0  0.00000000000E+00  0.00000000000E+00  0.14843784065E+04  0.14843784065E+04  0.25500000000E-02 0.  1.
         -2   -1    0    0    0  501 -0.00000000000E+00 -0.00000000000E+00 -0.30086184945E+02  0.30086185054E+02  0.25500000000E-02 0. -1.
    5000001    1    1    2    0    0 -0.12677066905E+03 -0.28922845850E+02  0.80940027214E+03  0.83621835312E+03  0.16500000000E+03 0.  0.
   -5000001    1    1    2    0    0  0.12677066905E+03  0.28922845850E+02  0.64489194943E+03  0.67824623846E+03  0.16500000000E+03 0.  0.
<mgrwt>
<rscale>  0 0.42265486E+03</rscale>
<asrwt>0</asrwt>
<pdfrwt beam="1">  1        2 0.22836591E+00 0.42265486E+03</pdfrwt>
<pdfrwt beam="2">  1       -2 0.46286438E-02 0.42265486E+03</pdfrwt>
<totfact> 0.30634411E+03</totfact>
</mgrwt>
</event>
<event>
 4    1  0.3213443E-005  0.7236986E+03  0.7818608E-02  0.9677541E-01
          2   -1    0    0  501    0  0.00000000000E+00  0.00000000000E+00  0.23846121741E+04  0.23846121741E+04  0.25500000000E-02 0.  1.
         -2   -1    0    0    0  501 -0.00000000000E+00 -0.00000000000E+00 -0.54908261781E+02  0.54908261841E+02  0.25500000000E-02 0. -1.
    5000001    1    1    2    0    0 -0.31441107207E+03  0.74205893079E+01  0.13984079297E+04  0.14428025246E+04  0.16500000000E+03 0.  0.
   -5000001    1    1    2    0    0  0.31441107207E+03 -0.74205893079E+01  0.93129598264E+03  0.99671791127E+03  0.16500000000E+03 0.  0.
<mgrwt>
<rscale>  0 0.72369858E+03</rscale>
<asrwt>0</asrwt>
<pdfrwt beam="1">  1        2 0.36686330E+00 0.72369858E+03</pdfrwt>
<pdfrwt beam="2">  1       -2 0.84474274E-02 0.72369858E+03</pdfrwt>
<totfact> 0.37925272E+02</totfact>
</mgrwt>
</event>
<event>
 4    1  0.3213443E-005  0.6961640E+03  0.7818608E-02  0.9723815E-01
          2   -1    0    0  501    0  0.00000000000E+00  0.00000000000E+00  0.13815110943E+04  0.13815110943E+04  0.25500000000E-02 0.  1.
         -2   -1    0    0    0  501 -0.00000000000E+00 -0.00000000000E+00 -0.87701843688E+02  0.87701843725E+02  0.25500000000E-02 0. -1.
    5000001    1    1    2    0    0 -0.30044049126E+03  0.58423485175E+02  0.61298768841E+03  0.70473874489E+03  0.16500000000E+03 0.  0.
   -5000001    1    1    2    0    0  0.30044049126E+03 -0.58423485175E+02  0.68082156220E+03  0.76447419314E+03  0.16500000000E+03 0.  0.
<mgrwt>
<rscale>  0 0.69616398E+03</rscale>
<asrwt>0</asrwt>
<pdfrwt beam="1">  1        2 0.21254014E+00 0.69616398E+03</pdfrwt>
<pdfrwt beam="2">  1       -2 0.13492593E-01 0.69616398E+03</pdfrwt>
<totfact> 0.62883186E+02</totfact>
</mgrwt>
</event>
<event>
 4    1  0.3213443E-005  0.3696157E+03  0.7818608E-02  0.1054840E+00
          2   -1    0    0  501    0  0.00000000000E+00  0.00000000000E+00  0.10278131513E+04  0.10278131513E+04  0.25500000000E-02 0.  1.
         -2   -1    0    0    0  501 -0.00000000000E+00 -0.00000000000E+00 -0.33229714899E+02  0.33229714996E+02  0.25500000000E-02 0. -1.
    5000001    1    1    2    0    0 -0.77407036742E+02  0.52918498591E+01  0.58384524996E+03  0.61165360206E+03  0.16500000000E+03 0.  0.
   -5000001    1    1    2    0    0  0.77407036742E+02 -0.52918498591E+01  0.41073818644E+03  0.44938926423E+03  0.16500000000E+03 0.  0.
<mgrwt>
<rscale>  0 0.36961568E+03</rscale>
<asrwt>0</asrwt>
<pdfrwt beam="1">  1        2 0.15812506E+00 0.36961568E+03</pdfrwt>
<pdfrwt beam="2">  1       -2 0.51122652E-02 0.36961568E+03</pdfrwt>
<totfact> 0.47986665E+03</totfact>
</mgrwt>
</event>
<event>
 4    1  0.3213443E-005  0.6475187E+03  0.7818608E-02  0.9811446E-01
          2   -1    0    0  501    0  0.00000000000E+00  0.00000000000E+00  0.21909982765E+03  0.21909982766E+03  0.25500000000E-02 0.  1.
         -2   -1    0    0    0  501 -0.00000000000E+00 -0.00000000000E+00 -0.47841264478E+03  0.47841264479E+03  0.25500000000E-02 0. -1.
    5000001    1    1    2    0    0 -0.15795947688E+02 -0.26842056389E+03 -0.20804887381E+03  0.37790004627E+03  0.16500000000E+03 0.  0.
   -5000001    1    1    2    0    0  0.15795947688E+02  0.26842056389E+03 -0.51263943328E+02  0.31961242618E+03  0.16500000000E+03 0.  0.
<mgrwt>
<rscale>  0 0.64751873E+03</rscale>
<asrwt>0</asrwt>
<pdfrwt beam="1">  1        2 0.33707666E-01 0.64751873E+03</pdfrwt>
<pdfrwt beam="2">  1       -2 0.73601945E-01 0.64751873E+03</pdfrwt>
<totfact> 0.26249022E+02</totfact>
</mgrwt>
</event>
<event>
 4    1  0.3213443E-005  0.5107566E+03  0.7818608E-02  0.1011009E+00
          2   -1    0    0  501    0  0.00000000000E+00  0.00000000000E+00  0.16634166998E+03  0.16634167000E+03  0.25500000000E-02 0.  1.
         -2   -1    0    0    0  501 -0.00000000000E+00 -0.00000000000E+00 -0.39207302233E+03  0.39207302234E+03  0.25500000000E-02 0. -1.
    5000001    1    1    2    0    0 -0.18606812882E+03  0.33778489914E+02 -0.61227852779E+02  0.25833347615E+03  0.16500000000E+03 0.  0.
   -5000001    1    1    2    0    0  0.18606812882E+03 -0.33778489914E+02 -0.16450349957E+03  0.30008121620E+03  0.16500000000E+03 0.  0.
<mgrwt>
<rscale>  0 0.51075662E+03</rscale>
<asrwt>0</asrwt>
<pdfrwt beam="1">  1        2 0.25591026E-01 0.51075662E+03</pdfrwt>
<pdfrwt beam="2">  1       -2 0.60318926E-01 0.51075662E+03</pdfrwt>
<totfact> 0.55060275E+02</totfact>
</mgrwt>
</event>
<event>
 4    1  0.3213443E-005  0.6409341E+03  0.7818608E-02  0.9823941E-01
          2   -1    0    0  501    0  0.00000000000E+00  0.00000000000E+00  0.55525820676E+03  0.55525820676E+03  0.25500000000E-02 0. -1.
         -2   -1    0    0    0  501 -0.00000000000E+00 -0.00000000000E+00 -0.18495740520E+03  0.18495740522E+03  0.25500000000E-02 0.  1.
    5000001    1    1    2    0    0  0.11974528665E+03  0.11767090200E+03 -0.65994157029E+02  0.24447004646E+03  0.16500000000E+03 0.  0.
   -5000001    1    1    2    0    0 -0.11974528665E+03 -0.11767090200E+03  0.43629495858E+03  0.49574556553E+03  0.16500000000E+03 0.  0.
<mgrwt>
<rscale>  0 0.64093406E+03</rscale>
<asrwt>0</asrwt>
<pdfrwt beam="1">  1        2 0.85424338E-01 0.64093406E+03</pdfrwt>
<pdfrwt beam="2">  1       -2 0.28454986E-01 0.64093406E+03</pdfrwt>
<totfact> 0.61928559E+02</totfact>
</mgrwt>
</event>
<event>
 4    1  0.3213443E-005  0.7003572E+03  0.7818608E-02  0.9716622E-01
         -2   -1    0    0    0  501 -0.00000000000E+00  0.00000000000E+00  0.16186118480E+03  0.16186118482E+03  0.25500000000E-02 0. -1.
          2   -1    0    0  501    0  0.00000000000E+00 -0.00000000000E+00 -0.75759385842E+03  0.75759385842E+03  0.25500000000E-02 0.  1.
    5000001    1    1    2    0    0 -0.15698014479E+03  0.19654170494E+03 -0.53318536153E+03  0.61219526083E+03  0.16500000000E+03 0.  0.
   -5000001    1    1    2    0    0  0.15698014479E+03 -0.19654170494E+03 -0.62547312085E+02  0.30725978241E+03  0.16500000000E+03 0.  0.
<mgrwt>
<rscale>  0 0.70035716E+03</rscale>
<asrwt>0</asrwt>
<pdfrwt beam="1">  1        2 0.11655290E+00 0.70035716E+03</pdfrwt>
<pdfrwt beam="2">  1       -2 0.24901721E-01 0.70035716E+03</pdfrwt>
<totfact> 0.53744143E+02</totfact>
</mgrwt>
</event>
<event>
 4    1  0.3213443E-005  0.8012042E+03  0.7818608E-02  0.9558276E-01
          2   -1    0    0  501    0  0.00000000000E+00  0.00000000000E+00  0.61411565296E+03  0.61411565296E+03  0.25500000000E-02 0.  1.
         -2   -1    0    0    0  501 -0.00000000000E+00 -0.00000000000E+00 -0.26132217102E+03  0.26132217104E+03  0.25500000000E-02 0. -1.
    5000001    1    1    2    0    0  0.19445611709E+03 -0.30120547575E+03  0.10133607611E+03  0.40747014666E+03  0.16500000000E+03 0.  0.
   -5000001    1    1    2    0    0 -0.19445611709E+03  0.30120547575E+03  0.25145740582E+03  0.46796767734E+03  0.16500000000E+03 0.  0.
<mgrwt>
<rscale>  0 0.80120418E+03</rscale>
<asrwt>0</asrwt>
<pdfrwt beam="1">  1        2 0.94479330E-01 0.80120418E+03</pdfrwt>
<pdfrwt beam="2">  1       -2 0.40203411E-01 0.80120418E+03</pdfrwt>
<totfact> 0.28399631E+02</totfact>
</mgrwt>
</event>
<event>
 4    1  0.3213443E-005  0.5296518E+03  0.7818608E-02  0.1006317E+00
         -2   -1    0    0    0  501 -0.00000000000E+00  0.00000000000E+00  0.42648145319E+02  0.42648145395E+02  0.25500000000E-02 0. -1.
          2   -1    0    0  501    0  0.00000000000E+00 -0.00000000000E+00 -0.16444504867E+04  0.16444504867E+04  0.25500000000E-02 0.  1.
    5000001    1    1    2    0    0 -0.14559544678E+03  0.62256436091E+02 -0.37552540429E+03  0.43967968707E+03  0.16500000000E+03 0.  0.
   -5000001    1    1    2    0    0  0.14559544678E+03 -0.62256436091E+02 -0.12262769371E+04  0.12474189451E+04  0.16500000000E+03 0.  0.
<mgrwt>
<rscale>  0 0.52965182E+03</rscale>
<asrwt>0</asrwt>
<pdfrwt beam="1">  1        2 0.25299233E+00 0.52965182E+03</pdfrwt>
<pdfrwt beam="2">  1       -2 0.65612544E-02 0.52965182E+03</pdfrwt>
<totfact> 0.14543753E+03</totfact>
</mgrwt>
</event>
<event>
 4    1  0.3213443E-005  0.6254655E+03  0.7818608E-02  0.9853938E-01
         -2   -1    0    0    0  501 -0.00000000000E+00  0.00000000000E+00  0.65076565904E+02  0.65076565954E+02  0.25500000000E-02 0. -1.
          2   -1    0    0  501    0  0.00000000000E+00 -0.00000000000E+00 -0.15028722177E+04  0.15028722177E+04  0.25500000000E-02 0.  1.
    5000001    1    1    2    0    0  0.43904668766E+02  0.17373135601E+03 -0.12105638571E+04  0.12348279459E+04  0.16500000000E+03 0.  0.
   -5000001    1    1    2    0    0 -0.43904668766E+02 -0.17373135601E+03 -0.22723179475E+03  0.33312083775E+03  0.16500000000E+03 0.  0.
<mgrwt>
<rscale>  0 0.62546547E+03</rscale>
<asrwt>0</asrwt>
<pdfrwt beam="1">  1        2 0.23121108E+00 0.62546547E+03</pdfrwt>
<pdfrwt beam="2">  1       -2 0.10011781E-01 0.62546547E+03</pdfrwt>
<totfact> 0.88200849E+02</totfact>
</mgrwt>
</event>
<event>
 4    1  0.3213443E-005  0.3766492E+03  0.7818608E-02  0.1052179E+00
         -2   -1    0    0    0  501 -0.00000000000E+00  0.00000000000E+00  0.43184368430E+02  0.43184368505E+02  0.25500000000E-02 0. -1.
          2   -1    0    0  501    0  0.00000000000E+00 -0.00000000000E+00 -0.82127310452E+03  0.82127310453E+03  0.25500000000E-02 0.  1.
    5000001    1    1    2    0    0 -0.83169428607E+02 -0.32187780680E+02 -0.35009794593E+03  0.39717348706E+03  0.16500000000E+03 0.  0.
   -5000001    1    1    2    0    0  0.83169428607E+02  0.32187780680E+02 -0.42799079016E+03  0.46728398597E+03  0.16500000000E+03 0.  0.
<mgrwt>
<rscale>  0 0.37664923E+03</rscale>
<asrwt>0</asrwt>
<pdfrwt beam="1">  1        2 0.12634970E+00 0.37664923E+03</pdfrwt>
<pdfrwt beam="2">  1       -2 0.66437496E-02 0.37664923E+03</pdfrwt>
<totfact> 0.43559246E+03</totfact>
</mgrwt>
</event>
<event>
 4    1  0.3213443E-005  0.4513615E+03  0.7818608E-02  0.1027317E+00
         -2   -1    0    0    0  501 -0.00000000000E+00  0.00000000000E+00  0.12354253360E+02  0.12354253623E+02  0.25500000000E-02 0. -1.
          2   -1    0    0  501    0  0.00000000000E+00 -0.00000000000E+00 -0.41226126582E+04  0.41226126582E+04  0.25500000000E-02 0.  1.
    5000001    1    1    2    0    0 -0.75841280980E+02  0.64461971793E+02 -0.97896118474E+03  0.99774608340E+03  0.16500000000E+03 0.  0.
   -5000001    1    1    2    0    0  0.75841280980E+02 -0.64461971793E+02 -0.31312972201E+04  0.31372208285E+04  0.16500000000E+03 0.  0.
<mgrwt>
<rscale>  0 0.45136150E+03</rscale>
<asrwt>0</asrwt>
<pdfrwt beam="1">  1        2 0.63424700E+00 0.45136150E+03</pdfrwt>
<pdfrwt beam="2">  1       -2 0.19006577E-02 0.45136150E+03</pdfrwt>
<totfact> 0.28510881E+02</totfact>
</mgrwt>
</event>
<event>
 4    1  0.3213443E-005  0.4880633E+03  0.7818608E-02  0.1016942E+00
          2   -1    0    0  501    0  0.00000000000E+00  0.00000000000E+00  0.96878022274E+03  0.96878022275E+03  0.25500000000E-02 0.  1.
         -2   -1    0    0    0  501 -0.00000000000E+00 -0.00000000000E+00 -0.61470547578E+02  0.61470547631E+02  0.25500000000E-02 0. -1.
    5000001    1    1    2    0    0  0.29167671650E+02 -0.16302464680E+03  0.60139736650E+03  0.64523761589E+03  0.16500000000E+03 0.  0.
   -5000001    1    1    2    0    0 -0.29167671650E+02  0.16302464680E+03  0.30591230867E+03  0.38501315449E+03  0.16500000000E+03 0.  0.
<mgrwt>
<rscale>  0 0.48806332E+03</rscale>
<asrwt>0</asrwt>
<pdfrwt beam="1">  1        2 0.14904311E+00 0.48806332E+03</pdfrwt>
<pdfrwt beam="2">  1       -2 0.94570077E-02 0.48806332E+03</pdfrwt>
<totfact> 0.19934130E+03</totfact>
</mgrwt>
</event>
<event>
 4    1  0.3213443E-005  0.4019960E+03  0.7818608E-02  0.1043091E+00
         -2   -1    0    0    0  501 -0.00000000000E+00  0.00000000000E+00  0.19410284795E+03  0.19410284796E+03  0.25500000000E-02 0. -1.
          2   -1    0    0  501    0  0.00000000000E+00 -0.00000000000E+00 -0.20813811891E+03  0.20813811893E+03  0.25500000000E-02 0.  1.
    5000001    1    1    2    0    0 -0.72897637699E+02  0.58626732521E+01 -0.95540546851E+02  0.20420928630E+03  0.16500000000E+03 0.  0.
   -5000001    1    1    2    0    0  0.72897637699E+02 -0.58626732521E+01  0.81505275887E+02  0.19803168059E+03  0.16500000000E+03 0.  0.
<mgrwt>
<rscale>  0 0.40199603E+03</rscale>
<asrwt>0</asrwt>
<pdfrwt beam="1">  1        2 0.32021249E-01 0.40199603E+03</pdfrwt>
<pdfrwt beam="2">  1       -2 0.29861977E-01 0.40199603E+03</pdfrwt>
<totfact> 0.16942915E+03</totfact>
</mgrwt>
</event>
<event>
 4    1  0.3213443E-005  0.5095603E+03  0.7818608E-02  0.1011313E+00
         -2   -1    0    0    0  501 -0.00000000000E+00  0.00000000000E+00  0.15534990531E+03  0.15534990533E+03  0.25500000000E-02 0. -1.
          2   -1    0    0  501    0  0.00000000000E+00 -0.00000000000E+00 -0.41784979526E+03  0.41784979526E+03  0.25500000000E-02 0.  1.
    5000001    1    1    2    0    0  0.27733774749E+02 -0.19149601783E+03 -0.11353375308E+03  0.27848662481E+03  0.16500000000E+03 0.  0.
   -5000001    1    1    2    0    0 -0.27733774749E+02  0.19149601783E+03 -0.14896613686E+03  0.29471307579E+03  0.16500000000E+03 0.  0.
<mgrwt>
<rscale>  0 0.50956031E+03</rscale>
<asrwt>0</asrwt>
<pdfrwt beam="1">  1        2 0.64284583E-01 0.50956031E+03</pdfrwt>
<pdfrwt beam="2">  1       -2 0.23899986E-01 0.50956031E+03</pdfrwt>
<totfact> 0.11773164E+03</totfact>
</mgrwt>
</event>
<event>
 4    1  0.3213443E-005  0.5867134E+03  0.7818608E-02  0.9933362E-01
         -2   -1    0    0    0  501 -0.00000000000E+00  0.00000000000E+00  0.32528981516E+03  0.32528981517E+03  0.25500000000E-02 0. -1.
          2   -1    0    0  501    0  0.00000000000E+00 -0.00000000000E+00 -0.26455836265E+03  0.26455836266E+03  0.25500000000E-02 0.  1.
    5000001    1    1    2    0    0  0.95199025829E+02 -0.21548013368E+03  0.88455054535E+02  0.30090503353E+03  0.16500000000E+03 0.  0.
   -5000001    1    1    2    0    0 -0.95199025829E+02  0.21548013368E+03 -0.27723602027E+02  0.28894314430E+03  0.16500000000E+03 0.  0.
<mgrwt>
<rscale>  0 0.58671336E+03</rscale>
<asrwt>0</asrwt>
<pdfrwt beam="1">  1        2 0.40701287E-01 0.58671336E+03</pdfrwt>
<pdfrwt beam="2">  1       -2 0.50044587E-01 0.58671336E+03</pdfrwt>
<totfact> 0.48128087E+02</totfact>
</mgrwt>
</event>
<event>
 4    1  0.3213443E-005  0.7817346E+03  0.7818608E-02  0.9586838E-01
         -2   -1    0    0    0  501 -0.00000000000E+00  0.00000000000E+00  0.76343578457E+02  0.76343578500E+02  0.25500000000E-02 0. -1.
          2   -1    0    0  501    0  0.00000000000E+00 -0.00000000000E+00 -0.20011801467E+04  0.20011801467E+04  0.25500000000E-02 0.  1.
    5000001    1    1    2    0    0 -0.15977251761E+03 -0.13855816686E+03 -0.20686711046E+03  0.33873975908E+03  0.16500000000E+03 0.  0.
   -5000001    1    1    2    0    0  0.15977251761E+03  0.13855816686E+03 -0.17179694578E+04  0.17387839662E+04  0.16500000000E+03 0.  0.
<mgrwt>
<rscale>  0 0.78173462E+03</rscale>
<asrwt>0</asrwt>
<pdfrwt beam="1">  1        2 0.30787383E+00 0.78173462E+03</pdfrwt>
<pdfrwt beam="2">  1       -2 0.11745167E-01 0.78173462E+03</pdfrwt>
<totfact> 0.35922939E+02</totfact>
</mgrwt>
</event>
<event>
 4    1  0.3213443E-005  0.3505811E+03  0.7818608E-02  0.1062377E+00
          2   -1    0    0  501    0  0.00000000000E+00  0.00000000000E+00  0.21734706238E+04  0.21734706238E+04  0.25500000000E-02 0.  1.
         -2   -1    0    0    0  501 -0.00000000000E+00 -0.00000000000E+00 -0.14137192532E+02  0.14137192762E+02  0.25500000000E-02 0. -1.
    5000001    1    1    2    0    0  0.27003402530E+02 -0.52308400006E+02  0.10420090201E+04  0.10566329307E+04  0.16500000000E+03 0.  0.
   -5000001    1    1    2    0    0 -0.27003402530E+02  0.52308400006E+02  0.11173244112E+04  0.11309748858E+04  0.16500000000E+03 0.  0.
<mgrwt>
<rscale>  0 0.35058108E+03</rscale>
<asrwt>0</asrwt>
<pdfrwt beam="1">  1        2 0.33437998E+00 0.35058108E+03</pdfrwt>
<pdfrwt beam="2">  1       -2 0.21749535E-02 0.35058108E+03</pdfrwt>
<totfact> 0.40991798E+03</totfact>
</mgrwt>
</event>
<event>
 4    1  0.3213443E-005  0.6455557E+03  0.7818608E-02  0.9815154E-01
          2   -1    0    0  501    0  0.00000000000E+00  0.00000000000E+00  0.10095275048E+04  0.10095275048E+04  0.25500000000E-02 0.  1.
         -2   -1    0    0    0  501 -0.00000000000E+00 -0.00000000000E+00 -0.10320228482E+03  0.10320228485E+03  0.25500000000E-02 0. -1.
    5000001    1    1    2    0    0  0.24561490326E+03  0.23662233987E+02  0.23462938822E+03  0.37836824898E+03  0.16500000000E+03 0.  0.
   -5000001    1    1    2    0    0 -0.24561490326E+03 -0.23662233987E+02  0.67169583175E+03  0.73436154067E+03  0.16500000000E+03 0.  0.
<mgrwt>
<rscale>  0 0.64555571E+03</rscale>
<asrwt>0</asrwt>
<pdfrwt beam="1">  1        2 0.15531193E+00 0.64555571E+03</pdfrwt>
<pdfrwt beam="2">  1       -2 0.15877274E-01 0.64555571E+03</pdfrwt>
<totfact> 0.79625810E+02</totfact>
</mgrwt>
</event>
<event>
 4    1  0.3213443E-005  0.4372555E+03  0.7818608E-02  0.1031592E+00
          2   -1    0    0  501    0  0.00000000000E+00  0.00000000000E+00  0.25212734828E+03  0.25212734829E+03  0.25500000000E-02 0.  1.
         -2   -1    0    0    0  501 -0.00000000000E+00 -0.00000000000E+00 -0.18957918423E+03  0.18957918424E+03  0.25500000000E-02 0. -1.
    5000001    1    1    2    0    0 -0.94272060370E+01 -0.13518563373E+03 -0.16205095476E+02  0.21412994396E+03  0.16500000000E+03 0.  0.
   -5000001    1    1    2    0    0  0.94272060370E+01  0.13518563373E+03  0.78753259532E+02  0.22757658858E+03  0.16500000000E+03 0.  0.
<mgrwt>
<rscale>  0 0.43725552E+03</rscale>
<asrwt>0</asrwt>
<pdfrwt beam="1">  1        2 0.38788823E-01 0.43725552E+03</pdfrwt>
<pdfrwt beam="2">  1       -2 0.29166028E-01 0.43725552E+03</pdfrwt>
<totfact> 0.14332176E+03</totfact>
</mgrwt>
</event>
<event>
 4    1  0.3213443E-005  0.5845471E+03  0.7818608E-02  0.9937995E-01
         -2   -1    0    0    0  501 -0.00000000000E+00  0.00000000000E+00  0.15750971330E+03  0.15750971333E+03  0.25500000000E-02 0. -1.
          2   -1    0    0  501    0  0.00000000000E+00 -0.00000000000E+00 -0.54234010337E+03  0.54234010338E+03  0.25500000000E-02 0.  1.
    5000001    1    1    2    0    0 -0.11835070544E+03  0.16985076042E+03 -0.44117051929E+02  0.26837936687E+03  0.16500000000E+03 0.  0.
   -5000001    1    1    2    0    0  0.11835070544E+03 -0.16985076042E+03 -0.34071333814E+03  0.43147044983E+03  0.16500000000E+03 0.  0.
<mgrwt>
<rscale>  0 0.58454712E+03</rscale>
<asrwt>0</asrwt>
<pdfrwt beam="1">  1        2 0.83436938E-01 0.58454712E+03</pdfrwt>
<pdfrwt beam="2">  1       -2 0.24232264E-01 0.58454712E+03</pdfrwt>
<totfact> 0.85250795E+02</totfact>
</mgrwt>
</event>
<event>
 4    1  0.3213443E-005  0.3703117E+03  0.7818608E-02  0.1054574E+00
         -2   -1    0    0    0  501 -0.00000000000E+00  0.00000000000E+00  0.63420714555E+03  0.63420714556E+03  0.25500000000E-02 0. -1.
          2   -1    0    0  501    0  0.00000000000E+00 -0.00000000000E+00 -0.54055986890E+02  0.54055986950E+02  0.25500000000E-02 0.  1.
    5000001    1    1    2    0    0  0.63750435590E+01  0.82749027153E+02  0.31428389691E+03  0.36453725534E+03  0.16500000000E+03 0.  0.
   -5000001    1    1    2    0    0 -0.63750435590E+01 -0.82749027153E+02  0.26586726175E+03  0.32372587717E+03  0.16500000000E+03 0.  0.
<mgrwt>
<rscale>  0 0.37031172E+03</rscale>
<asrwt>0</asrwt>
<pdfrwt beam="1">  1        2 0.83163054E-02 0.37031172E+03</pdfrwt>
<pdfrwt beam="2">  1       -2 0.97570333E-01 0.37031172E+03</pdfrwt>
<totfact> 0.73920999E+02</totfact>
</mgrwt>
</event>
<event>
 4    1  0.3213443E-005  0.4351967E+03  0.7818608E-02  0.1032231E+00
         -2   -1    0    0    0  501 -0.00000000000E+00  0.00000000000E+00  0.14215069666E+02  0.14215069895E+02  0.25500000000E-02 0. -1.
          2   -1    0    0  501    0  0.00000000000E+00 -0.00000000000E+00 -0.33309041318E+04  0.33309041318E+04  0.25500000000E-02 0.  1.
    5000001    1    1    2    0    0 -0.94371281137E+02  0.58310964328E+02 -0.23379734569E+04  0.23464123662E+04  0.16500000000E+03 0.  0.
   -5000001    1    1    2    0    0  0.94371281137E+02 -0.58310964328E+02 -0.97871560524E+03  0.99870683547E+03  0.16500000000E+03 0.  0.
<mgrwt>
<rscale>  0 0.43519667E+03</rscale>
<asrwt>0</asrwt>
<pdfrwt beam="1">  1        2 0.51244617E+00 0.43519667E+03</pdfrwt>
<pdfrwt beam="2">  1       -2 0.21869365E-02 0.43519667E+03</pdfrwt>
<totfact> 0.86015304E+02</totfact>
</mgrwt>
</event>
<event>
 4    1  0.3213443E-005  0.5000921E+03  0.7818608E-02  0.1013755E+00
          2   -1    0    0  501    0  0.00000000000E+00  0.00000000000E+00  0.28275733598E+03  0.28275733599E+03  0.25500000000E-02 0.  1.
         -2   -1    0    0    0  501 -0.00000000000E+00 -0.00000000000E+00 -0.22111901438E+03  0.22111901440E+03  0.25500000000E-02 0. -1.
    5000001    1    1    2    0    0 -0.10147197466E+03  0.15713872145E+03  0.13111070864E+02  0.24977197521E+03  0.16500000000E+03 0.  0.
   -5000001    1    1    2    0    0  0.10147197466E+03 -0.15713872145E+03  0.48527250734E+02  0.25410437518E+03  0.16500000000E+03 0.  0.
<mgrwt>
<rscale>  0 0.50009209E+03</rscale>
<asrwt>0</asrwt>
<pdfrwt beam="1">  1        2 0.43501129E-01 0.50009209E+03</pdfrwt>
<pdfrwt beam="2">  1       -2 0.34018310E-01 0.50009209E+03</pdfrwt>
<totfact> 0.95058337E+02</totfact>
</mgrwt>
</event>
<event>
 4    1  0.3213443E-005  0.4101809E+03  0.7818608E-02  0.1040310E+00
         -2   -1    0    0    0  501 -0.00000000000E+00  0.00000000000E+00  0.13041530627E+03  0.13041530630E+03  0.25500000000E-02 0. -1.
          2   -1    0    0  501    0  0.00000000000E+00 -0.00000000000E+00 -0.32252422310E+03  0.32252422311E+03  0.25500000000E-02 0.  1.
    5000001    1    1    2    0    0 -0.60187513174E+01  0.10731392480E+03 -0.15934013987E+03  0.25331163415E+03  0.16500000000E+03 0.  0.
   -5000001    1    1    2    0    0  0.60187513174E+01 -0.10731392480E+03 -0.32768776966E+02  0.19962789526E+03  0.16500000000E+03 0.  0.
<mgrwt>
<rscale>  0 0.41018091E+03</rscale>
<asrwt>0</asrwt>
<pdfrwt beam="1">  1        2 0.49619111E-01 0.41018091E+03</pdfrwt>
<pdfrwt beam="2">  1       -2 0.20063893E-01 0.41018091E+03</pdfrwt>
<totfact> 0.21262912E+03</totfact>
</mgrwt>
</event>
<event>
 4    1  0.3213443E-005  0.3693032E+03  0.7818608E-02  0.1054960E+00
          2   -1    0    0  501    0  0.00000000000E+00  0.00000000000E+00  0.74249895801E+03  0.74249895802E+03  0.25500000000E-02 0.  1.
         -2   -1    0    0    0  501 -0.00000000000E+00 -0.00000000000E+00 -0.45920879446E+02  0.45920879517E+02  0.25500000000E-02 0. -1.
    5000001    1    1    2    0    0 -0.87709087588E+01  0.72650197562E+01  0.52357723036E+03  0.54907907036E+03  0.16500000000E+03 0.  0.
   -5000001    1    1    2    0    0  0.87709087588E+01 -0.72650197562E+01  0.17300084821E+03  0.23934076718E+03  0.16500000000E+03 0.  0.
<mgrwt>
<rscale>  0 0.36930316E+03</rscale>
<asrwt>0</asrwt>
<pdfrwt beam="1">  1        2 0.11423060E+00 0.36930316E+03</pdfrwt>
<pdfrwt beam="2">  1       -2 0.70647510E-02 0.36930316E+03</pdfrwt>
<totfact> 0.45009636E+03</totfact>
</mgrwt>
</event>
<event>
 4    1  0.3213443E-005  0.4631792E+03  0.7818608E-02  0.1023863E+00
         -2   -1    0    0    0  501 -0.00000000000E+00  0.00000000000E+00  0.46084586225E+02  0.46084586296E+02  0.25500000000E-02 0. -1.
          2   -1    0    0  501    0  0.00000000000E+00 -0.00000000000E+00 -0.11638107061E+04  0.11638107061E+04  0.25500000000E-02 0.  1.
    5000001    1    1    2    0    0  0.15435033826E+03  0.49906208874E+02 -0.58419937462E+03  0.62835385406E+03  0.16500000000E+03 0.  0.
   -5000001    1    1    2    0    0 -0.15435033826E+03 -0.49906208874E+02 -0.53352674529E+03  0.58154143838E+03  0.16500000000E+03 0.  0.
<mgrwt>
<rscale>  0 0.46317917E+03</rscale>
<asrwt>0</asrwt>
<pdfrwt beam="1">  1        2 0.17904778E+00 0.46317917E+03</pdfrwt>
<pdfrwt beam="2">  1       -2 0.70899372E-02 0.46317917E+03</pdfrwt>
<totfact> 0.23955324E+03</totfact>
</mgrwt>
</event>
<event>
 4    1  0.3213443E-005  0.7095166E+03  0.7818608E-02  0.9701095E-01
          2   -1    0    0  501    0  0.00000000000E+00  0.00000000000E+00  0.28252721085E+03  0.28252721086E+03  0.25500000000E-02 0. -1.
         -2   -1    0    0    0  501 -0.00000000000E+00 -0.00000000000E+00 -0.44545600165E+03  0.44545600166E+03  0.25500000000E-02 0.  1.
    5000001    1    1    2    0    0 -0.90267754107E+02  0.22044246836E+03 -0.29145003546E+03  0.41098816584E+03  0.16500000000E+03 0.  0.
   -5000001    1    1    2    0    0  0.90267754107E+02 -0.22044246836E+03  0.12852124466E+03  0.31699504668E+03  0.16500000000E+03 0.  0.
<mgrwt>
<rscale>  0 0.70951657E+03</rscale>
<asrwt>0</asrwt>
<pdfrwt beam="1">  1        2 0.43465725E-01 0.70951657E+03</pdfrwt>
<pdfrwt beam="2">  1       -2 0.68531692E-01 0.70951657E+03</pdfrwt>
<totfact> 0.23078149E+02</totfact>
</mgrwt>
</event>
<event>
 4    1  0.3213443E-005  0.5479963E+03  0.7818608E-02  0.1001959E+00
         -2   -1    0    0    0  501 -0.00000000000E+00  0.00000000000E+00  0.85539392313E+02  0.85539392351E+02  0.25500000000E-02 0. -1.
          2   -1    0    0  501    0  0.00000000000E+00 -0.00000000000E+00 -0.87766579983E+03  0.87766579984E+03  0.25500000000E-02 0.  1.
    5000001    1    1    2    0    0 -0.46203098903E+02  0.10673922716E+03 -0.72169552828E+03  0.74939804144E+03  0.16500000000E+03 0.  0.
   -5000001    1    1    2    0    0  0.46203098903E+02 -0.10673922716E+03 -0.70430879236E+02  0.21380715075E+03  0.16500000000E+03 0.  0.
<mgrwt>
<rscale>  0 0.54799635E+03</rscale>
<asrwt>0</asrwt>
<pdfrwt beam="1">  1        2 0.13502550E+00 0.54799635E+03</pdfrwt>
<pdfrwt beam="2">  1       -2 0.13159907E-01 0.54799635E+03</pdfrwt>
<totfact> 0.13330688E+03</totfact>
</mgrwt>
</event>
<event>
 4    1  0.3213443E-005  0.5780473E+03  0.7818608E-02  0.9952027E-01
          2   -1    0    0  501    0  0.00000000000E+00  0.00000000000E+00  0.20760932829E+03  0.20760932831E+03  0.25500000000E-02 0.  1.
         -2   -1    0    0    0  501 -0.00000000000E+00 -0.00000000000E+00 -0.40236476413E+03  0.40236476414E+03  0.25500000000E-02 0. -1.
    5000001    1    1    2    0    0 -0.11369003113E+03 -0.12869956085E+03  0.75437852698E+02  0.24980966707E+03  0.16500000000E+03 0.  0.
   -5000001    1    1    2    0    0  0.11369003113E+03  0.12869956085E+03 -0.27019328854E+03  0.36016442538E+03  0.16500000000E+03 0.  0.
<mgrwt>
<rscale>  0 0.57804733E+03</rscale>
<asrwt>0</asrwt>
<pdfrwt beam="1">  1        2 0.31939897E-01 0.57804733E+03</pdfrwt>
<pdfrwt beam="2">  1       -2 0.61902271E-01 0.57804733E+03</pdfrwt>
<totfact> 0.40573120E+02</totfact>
</mgrwt>
</event>
<event>
 4    1  0.3213443E-005  0.4072028E+03  0.7818608E-02  0.1041314E+00
          2   -1    0    0  501    0  0.00000000000E+00  0.00000000000E+00  0.56401455666E+03  0.56401455666E+03  0.25500000000E-02 0.  1.
         -2   -1    0    0    0  501 -0.00000000000E+00 -0.00000000000E+00 -0.73497285065E+02  0.73497285110E+02  0.25500000000E-02 0. -1.
    5000001    1    1    2    0    0 -0.61124983546E+02  0.99835667510E+02  0.28113467420E+03  0.34635982614E+03  0.16500000000E+03 0.  0.
   -5000001    1    1    2    0    0  0.61124983546E+02 -0.99835667510E+02  0.20938259739E+03  0.29115201564E+03  0.16500000000E+03 0.  0.
<mgrwt>
<rscale>  0 0.40720284E+03</rscale>
<asrwt>0</asrwt>
<pdfrwt beam="1">  1        2 0.86771467E-01 0.40720284E+03</pdfrwt>
<pdfrwt beam="2">  1       -2 0.11307275E-01 0.40720284E+03</pdfrwt>
<totfact> 0.29702699E+03</totfact>
</mgrwt>
</event>
<event>
 4    1  0.3213443E-005  0.4252793E+03  0.7818608E-02  0.1035362E+00
          2   -1    0    0  501    0  0.00000000000E+00  0.00000000000E+00  0.77701327776E+03  0.77701327776E+03  0.25500000000E-02 0.  1.
         -2   -1    0    0    0  501 -0.00000000000E+00 -0.00000000000E+00 -0.58191566327E+02  0.58191566383E+02  0.25500000000E-02 0. -1.
    5000001    1    1    2    0    0 -0.12427065728E+03  0.46951325090E+02  0.32303915354E+03  0.38629900066E+03  0.16500000000E+03 0.  0.
   -5000001    1    1    2    0    0  0.12427065728E+03 -0.46951325090E+02  0.39578255789E+03  0.44890584349E+03  0.16500000000E+03 0.  0.
<mgrwt>
<rscale>  0 0.42527930E+03</rscale>
<asrwt>0</asrwt>
<pdfrwt beam="1">  1        2 0.11954050E+00 0.42527930E+03</pdfrwt>
<pdfrwt beam="2">  1       -2 0.89525488E-02 0.42527930E+03</pdfrwt>
<totfact> 0.29291156E+03</totfact>
</mgrwt>
</event>
<event>
 4    1  0.3213443E-005  0.8314481E+03  0.7818608E-02  0.9515581E-01
          2   -1    0    0  501    0  0.00000000000E+00  0.00000000000E+00  0.13222498086E+04  0.13222498086E+04  0.25500000000E-02 0.  1.
         -2   -1    0    0    0  501 -0.00000000000E+00 -0.00000000000E+00 -0.13070637045E+03  0.13070637047E+03  0.25500000000E-02 0. -1.
    5000001    1    1    2    0    0 -0.37444956822E+03  0.52396541528E+02  0.68562107742E+03  0.80016194518E+03  0.16500000000E+03 0.  0.
   -5000001    1    1    2    0    0  0.37444956822E+03 -0.52396541528E+02  0.50592236070E+03  0.65279423386E+03  0.16500000000E+03 0.  0.
<mgrwt>
<rscale>  0 0.83144807E+03</rscale>
<asrwt>0</asrwt>
<pdfrwt beam="1">  1        2 0.20342304E+00 0.83144807E+03</pdfrwt>
<pdfrwt beam="2">  1       -2 0.20108673E-01 0.83144807E+03</pdfrwt>
<totfact> 0.34113856E+02</totfact>
</mgrwt>
</event>
<event>
 4    1  0.3213443E-005  0.9414665E+03  0.7818608E-02  0.9375181E-01
          2   -1    0    0  501    0  0.00000000000E+00  0.00000000000E+00  0.58901114206E+03  0.58901114206E+03  0.25500000000E-02 0. -1.
         -2   -1    0    0    0  501 -0.00000000000E+00 -0.00000000000E+00 -0.37620646517E+03  0.37620646517E+03  0.25500000000E-02 0.  1.
    5000001    1    1    2    0    0 -0.37492901720E+03 -0.21766814333E+03  0.24296948138E+02  0.46450676018E+03  0.16500000000E+03 0.  0.
   -5000001    1    1    2    0    0  0.37492901720E+03  0.21766814333E+03  0.18850772875E+03  0.50071084706E+03  0.16500000000E+03 0.  0.
<mgrwt>
<rscale>  0 0.94146651E+03</rscale>
<asrwt>0</asrwt>
<pdfrwt beam="1">  1        2 0.90617099E-01 0.94146651E+03</pdfrwt>
<pdfrwt beam="2">  1       -2 0.57877918E-01 0.94146651E+03</pdfrwt>
<totfact> 0.14198703E+02</totfact>
</mgrwt>
</event>
<event>
 4    1  0.3213443E-005  0.5607778E+03  0.7818608E-02  0.9990296E-01
         -2   -1    0    0    0  501 -0.00000000000E+00  0.00000000000E+00  0.35621285224E+02  0.35621285315E+02  0.25500000000E-02 0. -1.
          2   -1    0    0  501    0  0.00000000000E+00 -0.00000000000E+00 -0.22070493910E+04  0.22070493910E+04  0.25500000000E-02 0.  1.
    5000001    1    1    2    0    0  0.78076181754E+02  0.15837696251E+03 -0.16543031079E+04  0.16718621131E+04  0.16500000000E+03 0.  0.
   -5000001    1    1    2    0    0 -0.78076181754E+02 -0.15837696251E+03 -0.51712499785E+03  0.57080856319E+03  0.16500000000E+03 0.  0.
<mgrwt>
<rscale>  0 0.56077780E+03</rscale>
<asrwt>0</asrwt>
<pdfrwt beam="1">  1        2 0.33954595E+00 0.56077780E+03</pdfrwt>
<pdfrwt beam="2">  1       -2 0.54801995E-02 0.56077780E+03</pdfrwt>
<totfact> 0.95455349E+02</totfact>
</mgrwt>
</event>
<event>
 4    1  0.3213443E-005  0.7579767E+03  0.7818608E-02  0.9622919E-01
          2   -1    0    0  501    0  0.00000000000E+00  0.00000000000E+00  0.11478471577E+04  0.11478471577E+04  0.25500000000E-02 0.  1.
         -2   -1    0    0    0  501 -0.00000000000E+00 -0.00000000000E+00 -0.12513179629E+03  0.12513179632E+03  0.25500000000E-02 0. -1.
    5000001    1    1    2    0    0 -0.25350643610E+03  0.21932357196E+03  0.61808936875E+03  0.72223805640E+03  0.16500000000E+03 0.  0.
   -5000001    1    1    2    0    0  0.25350643610E+03 -0.21932357196E+03  0.40462599264E+03  0.55074089759E+03  0.16500000000E+03 0.  0.
<mgrwt>
<rscale>  0 0.75797672E+03</rscale>
<asrwt>0</asrwt>
<pdfrwt beam="1">  1        2 0.17659186E+00 0.75797672E+03</pdfrwt>
<pdfrwt beam="2">  1       -2 0.19251046E-01 0.75797672E+03</pdfrwt>
<totfact> 0.46783970E+02</totfact>
</mgrwt>
</event>
<event>
 4    1  0.3213443E-005  0.4790655E+03  0.7818608E-02  0.1019392E+00
          2   -1    0    0  501    0  0.00000000000E+00  0.00000000000E+00  0.18100766255E+03  0.18100766256E+03  0.25500000000E-02 0.  1.
         -2   -1    0    0    0  501 -0.00000000000E+00 -0.00000000000E+00 -0.31698065250E+03  0.31698065251E+03  0.25500000000E-02 0. -1.
    5000001    1    1    2    0    0 -0.13375259805E+03  0.35044396923E+02  0.41200844591E+02  0.21918115073E+03  0.16500000000E+03 0.  0.
   -5000001    1    1    2    0    0  0.13375259805E+03 -0.35044396923E+02 -0.17717383455E+03  0.27880716434E+03  0.16500000000E+03 0.  0.
<mgrwt>
<rscale>  0 0.47906545E+03</rscale>
<asrwt>0</asrwt>
<pdfrwt beam="1">  1        2 0.27847333E-01 0.47906545E+03</pdfrwt>
<pdfrwt beam="2">  1       -2 0.48766254E-01 0.47906545E+03</pdfrwt>
<totfact> 0.77450558E+02</totfact>
</mgrwt>
</event>
<event>
 4    1  0.3213443E-005  0.4242829E+03  0.7818608E-02  0.1035681E+00
         -2   -1    0    0    0  501 -0.00000000000E+00  0.00000000000E+00  0.13918865888E+03  0.13918865890E+03  0.25500000000E-02 0. -1.
          2   -1    0    0  501    0  0.00000000000E+00 -0.00000000000E+00 -0.32333085859E+03  0.32333085860E+03  0.25500000000E-02 0.  1.
    5000001    1    1    2    0    0  0.60197538944E+01  0.12928121169E+03 -0.57100147498E+02  0.21733682609E+03  0.16500000000E+03 0.  0.
   -5000001    1    1    2    0    0 -0.60197538944E+01 -0.12928121169E+03 -0.12704205221E+03  0.24518269140E+03  0.16500000000E+03 0.  0.
<mgrwt>
<rscale>  0 0.42428287E+03</rscale>
<asrwt>0</asrwt>
<pdfrwt beam="1">  1        2 0.49743209E-01 0.42428287E+03</pdfrwt>
<pdfrwt beam="2">  1       -2 0.21413640E-01 0.42428287E+03</pdfrwt>
<totfact> 0.18944607E+03</totfact>
</mgrwt>
</event>
<event>
 4    1  0.3213443E-005  0.4814013E+03  0.7818608E-02  0.1018751E+00
         -2   -1    0    0    0  501 -0.00000000000E+00  0.00000000000E+00  0.31308497713E+03  0.31308497714E+03  0.25500000000E-02 0. -1.
          2   -1    0    0  501    0  0.00000000000E+00 -0.00000000000E+00 -0.18505136462E+03  0.18505136464E+03  0.25500000000E-02 0.  1.
    5000001    1    1    2    0    0  0.13388053237E+03  0.10027410400E+03  0.11811136552E+03  0.26297183793E+03  0.16500000000E+03 0.  0.
   -5000001    1    1    2    0    0 -0.13388053237E+03 -0.10027410400E+03  0.99222469881E+01  0.23516450384E+03  0.16500000000E+03 0.  0.
<mgrwt>
<rscale>  0 0.48140130E+03</rscale>
<asrwt>0</asrwt>
<pdfrwt beam="1">  1        2 0.28469441E-01 0.48140130E+03</pdfrwt>
<pdfrwt beam="2">  1       -2 0.48166919E-01 0.48140130E+03</pdfrwt>
<totfact> 0.77449152E+02</totfact>
</mgrwt>
</event>
<event>
 4    1  0.3213443E-005  0.5388643E+03  0.7818608E-02  0.1004105E+00
         -2   -1    0    0    0  501 -0.00000000000E+00  0.00000000000E+00  0.53532367538E+02  0.53532367599E+02  0.25500000000E-02 0. -1.
          2   -1    0    0  501    0  0.00000000000E+00 -0.00000000000E+00 -0.13560710178E+04  0.13560710178E+04  0.25500000000E-02 0.  1.
    5000001    1    1    2    0    0  0.12388407321E+03 -0.11653161133E+03 -0.31584671310E+03  0.39485570302E+03  0.16500000000E+03 0.  0.
   -5000001    1    1    2    0    0 -0.12388407321E+03  0.11653161133E+03 -0.98669193714E+03  0.10147476824E+04  0.16500000000E+03 0.  0.
<mgrwt>
<rscale>  0 0.53886433E+03</rscale>
<asrwt>0</asrwt>
<pdfrwt beam="1">  1        2 0.20862628E+00 0.53886433E+03</pdfrwt>
<pdfrwt beam="2">  1       -2 0.82357499E-02 0.53886433E+03</pdfrwt>
<totfact> 0.14631393E+03</totfact>
</mgrwt>
</event>
<event>
 4    1  0.3213443E-005  0.4698906E+03  0.7818608E-02  0.1021951E+00
         -2   -1    0    0    0  501 -0.00000000000E+00  0.00000000000E+00  0.65090616350E+02  0.65090616400E+02  0.25500000000E-02 0. -1.
          2   -1    0    0  501    0  0.00000000000E+00 -0.00000000000E+00 -0.84803755785E+03  0.84803755786E+03  0.25500000000E-02 0.  1.
    5000001    1    1    2    0    0  0.96467973086E+02 -0.13611115433E+03 -0.41462795553E+03  0.47641752452E+03  0.16500000000E+03 0.  0.
   -5000001    1    1    2    0    0 -0.96467973086E+02  0.13611115433E+03 -0.36831898598E+03  0.43671064974E+03  0.16500000000E+03 0.  0.
<mgrwt>
<rscale>  0 0.46989057E+03</rscale>
<asrwt>0</asrwt>
<pdfrwt beam="1">  1        2 0.13046731E+00 0.46989057E+03</pdfrwt>
<pdfrwt beam="2">  1       -2 0.10013942E-01 0.46989057E+03</pdfrwt>
<totfact> 0.21837410E+03</totfact>
</mgrwt>
</event>
<event>
 4    1  0.3213443E-005  0.6704709E+03  0.7818608E-02  0.9769108E-01
         -2   -1    0    0    0  501 -0.00000000000E+00  0.00000000000E+00  0.27010676392E+02  0.27010676513E+02  0.25500000000E-02 0. -1.
          2   -1    0    0  501    0  0.00000000000E+00 -0.00000000000E+00 -0.41606806306E+04  0.41606806306E+04  0.25500000000E-02 0.  1.
    5000001    1    1    2    0    0  0.23167893740E+03 -0.81185314649E+02 -0.10814152234E+04  0.11211378465E+04  0.16500000000E+03 0.  0.
   -5000001    1    1    2    0    0 -0.23167893740E+03  0.81185314649E+02 -0.30522547308E+04  0.30665534606E+04  0.16500000000E+03 0.  0.
<mgrwt>
<rscale>  0 0.67047087E+03</rscale>
<asrwt>0</asrwt>
<pdfrwt beam="1">  1        2 0.64010421E+00 0.67047087E+03</pdfrwt>
<pdfrwt beam="2">  1       -2 0.41554920E-02 0.67047087E+03</pdfrwt>
<totfact> 0.77863919E+01</totfact>
</mgrwt>
</event>
<event>
 4    1  0.3213443E-005  0.3555670E+03  0.7818608E-02  0.1060353E+00
          2   -1    0    0  501    0  0.00000000000E+00  0.00000000000E+00  0.44929008471E+02  0.44929008543E+02  0.25500000000E-02 0.  1.
         -2   -1    0    0    0  501 -0.00000000000E+00 -0.00000000000E+00 -0.70348690762E+03  0.70348690762E+03  0.25500000000E-02 0. -1.
    5000001    1    1    2    0    0 -0.59734205589E+02  0.25586926625E+02 -0.35582873113E+03  0.39757005927E+03  0.16500000000E+03 0.  0.
   -5000001    1    1    2    0    0  0.59734205589E+02 -0.25586926625E+02 -0.30272916802E+03  0.35084585690E+03  0.16500000000E+03 0.  0.
<mgrwt>
<rscale>  0 0.35556698E+03</rscale>
<asrwt>0</asrwt>
<pdfrwt beam="1">  1        2 0.69121557E-02 0.35556698E+03</pdfrwt>
<pdfrwt beam="2">  1       -2 0.10822875E+00 0.35556698E+03</pdfrwt>
<totfact> 0.73478042E+02</totfact>
</mgrwt>
</event>
<event>
 4    1  0.3213443E-005  0.4393199E+03  0.7818608E-02  0.1030956E+00
          2   -1    0    0  501    0  0.00000000000E+00  0.00000000000E+00  0.14408427805E+03  0.14408427808E+03  0.25500000000E-02 0.  1.
         -2   -1    0    0    0  501 -0.00000000000E+00 -0.00000000000E+00 -0.33487690828E+03  0.33487690829E+03  0.25500000000E-02 0. -1.
    5000001    1    1    2    0    0 -0.12559278654E+03  0.88433126800E+01 -0.17381543291E+03  0.27071859361E+03  0.16500000000E+03 0.  0.
   -5000001    1    1    2    0    0  0.12559278654E+03 -0.88433126800E+01 -0.16977197320E+02  0.20824259276E+03  0.16500000000E+03 0.  0.
<mgrwt>
<rscale>  0 0.43931992E+03</rscale>
<asrwt>0</asrwt>
<pdfrwt beam="1">  1        2 0.22166812E-01 0.43931992E+03</pdfrwt>
<pdfrwt beam="2">  1       -2 0.51519524E-01 0.43931992E+03</pdfrwt>
<totfact> 0.89837978E+02</totfact>
</mgrwt>
</event>
<event>
 4    1  0.3213443E-005  0.7904987E+03  0.7818608E-02  0.9573873E-01
          2   -1    0    0  501    0  0.00000000000E+00  0.00000000000E+00  0.17304731949E+04  0.17304731949E+04  0.25500000000E-02 0.  1.
         -2   -1    0    0    0  501 -0.00000000000E+00 -0.00000000000E+00 -0.90277059741E+02  0.90277059777E+02  0.25500000000E-02 0. -1.
    5000001    1    1    2    0    0 -0.31952957856E+03  0.13008297471E+03  0.10501542962E+04  0.11176179032E+04  0.16500000000E+03 0.  0.
   -5000001    1    1    2    0    0  0.31952957856E+03 -0.13008297471E+03  0.59004183899E+03  0.70313235144E+03  0.16500000000E+03 0.  0.
<mgrwt>
<rscale>  0 0.79049866E+03</rscale>
<asrwt>0</asrwt>
<pdfrwt beam="1">  1        2 0.26622662E+00 0.79049866E+03</pdfrwt>
<pdfrwt beam="2">  1       -2 0.13888780E-01 0.79049866E+03</pdfrwt>
<totfact> 0.38168353E+02</totfact>
</mgrwt>
</event>
<event>
 4    1  0.3213443E-005  0.5260952E+03  0.7818608E-02  0.1007184E+00
          2   -1    0    0  501    0  0.00000000000E+00  0.00000000000E+00  0.30538362210E+04  0.30538362210E+04  0.25500000000E-02 0.  1.
         -2   -1    0    0    0  501 -0.00000000000E+00 -0.00000000000E+00 -0.22658072836E+02  0.22658072979E+02  0.25500000000E-02 0. -1.
    5000001    1    1    2    0    0  0.18845533337E+03 -0.64137217788E+02  0.17984703351E+04  0.18169616236E+04  0.16500000000E+03 0.  0.
   -5000001    1    1    2    0    0 -0.18845533337E+03  0.64137217788E+02  0.12327078131E+04  0.12595326704E+04  0.16500000000E+03 0.  0.
<mgrwt>
<rscale>  0 0.52609521E+03</rscale>
<asrwt>0</asrwt>
<pdfrwt beam="1">  1        2 0.46982072E+00 0.52609521E+03</pdfrwt>
<pdfrwt beam="2">  1       -2 0.34858591E-02 0.52609521E+03</pdfrwt>
<totfact> 0.62811251E+02</totfact>
</mgrwt>
</event>
<event>
 4    1  0.3213443E-005  0.4211311E+03  0.7818608E-02  0.1036699E+00
          2   -1    0    0  501    0  0.00000000000E+00  0.00000000000E+00  0.27381975082E+04  0.27381975082E+04  0.25500000000E-02 0.  1.
         -2   -1    0    0    0  501 -0.00000000000E+00 -0.00000000000E+00 -0.16192347163E+02  0.16192347364E+02  0.25500000000E-02 0. -1.
    5000001    1    1    2    0    0 -0.93755494512E+02 -0.57575241528E+02  0.18238453772E+04  0.18345958578E+04  0.16500000000E+03 0.  0.
   -5000001    1    1    2    0    0  0.93755494512E+02  0.57575241528E+02  0.89815978374E+03  0.91979399776E+03  0.16500000000E+03 0.  0.
<mgrwt>
<rscale>  0 0.42113107E+03</rscale>
<asrwt>0</asrwt>
<pdfrwt beam="1">  1        2 0.42126096E+00 0.42113107E+03</pdfrwt>
<pdfrwt beam="2">  1       -2 0.24911315E-02 0.42113107E+03</pdfrwt>
<totfact> 0.16233232E+03</totfact>
</mgrwt>
</event>
<event>
 4    1  0.3213443E-005  0.8026701E+03  0.7818608E-02  0.9556160E-01
          2   -1    0    0  501    0  0.00000000000E+00  0.00000000000E+00  0.84079734960E+03  0.84079734960E+03  0.25500000000E-02 0.  1.
         -2   -1    0    0    0  501 -0.00000000000E+00 -0.00000000000E+00 -0.19156795575E+03  0.19156795577E+03  0.25500000000E-02 0. -1.
    5000001    1    1    2    0    0  0.49418572540E+02 -0.32078677112E+03  0.54173836468E+03  0.65272643857E+03  0.16500000000E+03 0.  0.
   -5000001    1    1    2    0    0 -0.49418572540E+02  0.32078677112E+03  0.10749102917E+03  0.37963886680E+03  0.16500000000E+03 0.  0.
<mgrwt>
<rscale>  0 0.80267012E+03</rscale>
<asrwt>0</asrwt>
<pdfrwt beam="1">  1        2 0.12935344E+00 0.80267012E+03</pdfrwt>
<pdfrwt beam="2">  1       -2 0.29471993E-01 0.80267012E+03</pdfrwt>
<totfact> 0.34287670E+02</totfact>
</mgrwt>
</event>
<event>
 4    1  0.3213443E-005  0.3451772E+03  0.7818608E-02  0.1064612E+00
          2   -1    0    0  501    0  0.00000000000E+00  0.00000000000E+00  0.17516217832E+03  0.17516217834E+03  0.25500000000E-02 0.  1.
         -2   -1    0    0    0  501 -0.00000000000E+00 -0.00000000000E+00 -0.17005287356E+03  0.17005287358E+03  0.25500000000E-02 0. -1.
    5000001    1    1    2    0    0 -0.13671272652E+02 -0.48681516815E+02  0.30985893241E+00  0.17257430222E+03  0.16500000000E+03 0.  0.
   -5000001    1    1    2    0    0  0.13671272652E+02  0.48681516815E+02  0.47994458262E+01  0.17264074970E+03  0.16500000000E+03 0.  0.
<mgrwt>
<rscale>  0 0.34517724E+03</rscale>
<asrwt>0</asrwt>
<pdfrwt beam="1">  1        2 0.26948028E-01 0.34517724E+03</pdfrwt>
<pdfrwt beam="2">  1       -2 0.26161980E-01 0.34517724E+03</pdfrwt>
<totfact> 0.26008018E+03</totfact>
</mgrwt>
</event>
<event>
 4    1  0.3213443E-005  0.3859777E+03  0.7818608E-02  0.1048746E+00
         -2   -1    0    0    0  501 -0.00000000000E+00  0.00000000000E+00  0.29528831561E+03  0.29528831562E+03  0.25500000000E-02 0. -1.
          2   -1    0    0  501    0  0.00000000000E+00 -0.00000000000E+00 -0.12612994161E+03  0.12612994163E+03  0.25500000000E-02 0.  1.
    5000001    1    1    2    0    0 -0.82772228823E+02 -0.36228007669E+02  0.13161608344E+03  0.22958986002E+03  0.16500000000E+03 0.  0.
   -5000001    1    1    2    0    0  0.82772228823E+02  0.36228007669E+02  0.37542290559E+02  0.19182839723E+03  0.16500000000E+03 0.  0.
<mgrwt>
<rscale>  0 0.38597771E+03</rscale>
<asrwt>0</asrwt>
<pdfrwt beam="1">  1        2 0.19404607E-01 0.38597771E+03</pdfrwt>
<pdfrwt beam="2">  1       -2 0.45428971E-01 0.38597771E+03</pdfrwt>
<totfact> 0.13460789E+03</totfact>
</mgrwt>
</event>
<event>
 4    1  0.3213443E-005  0.8334670E+03  0.7818608E-02  0.9512800E-01
         -2   -1    0    0    0  501 -0.00000000000E+00  0.00000000000E+00  0.28298676998E+03  0.28298676999E+03  0.25500000000E-02 0. -1.
          2   -1    0    0  501    0  0.00000000000E+00 -0.00000000000E+00 -0.61369228040E+03  0.61369228040E+03  0.25500000000E-02 0.  1.
    5000001    1    1    2    0    0  0.37562106685E+02 -0.27971851566E+03 -0.44338762676E+03  0.55088197231E+03  0.16500000000E+03 0.  0.
   -5000001    1    1    2    0    0 -0.37562106685E+02  0.27971851566E+03  0.11268211634E+03  0.34579707807E+03  0.16500000000E+03 0.  0.
<mgrwt>
<rscale>  0 0.83346697E+03</rscale>
<asrwt>0</asrwt>
<pdfrwt beam="1">  1        2 0.94414197E-01 0.83346697E+03</pdfrwt>
<pdfrwt beam="2">  1       -2 0.43536426E-01 0.83346697E+03</pdfrwt>
<totfact> 0.24269122E+02</totfact>
</mgrwt>
</event>
<event>
 4    1  0.3213443E-005  0.1156698E+04  0.7818608E-02  0.9151626E-01
          2   -1    0    0  501    0  0.00000000000E+00  0.00000000000E+00  0.40099797306E+03  0.40099797307E+03  0.25500000000E-02 0.  1.
         -2   -1    0    0    0  501 -0.00000000000E+00 -0.00000000000E+00 -0.83413801632E+03  0.83413801633E+03  0.25500000000E-02 0. -1.
    5000001    1    1    2    0    0  0.12641910418E+01  0.54371690436E+03 -0.33174026681E+03  0.65795613447E+03  0.16500000000E+03 0.  0.
   -5000001    1    1    2    0    0 -0.12641910418E+01 -0.54371690436E+03 -0.10139977645E+03  0.57717985493E+03  0.16500000000E+03 0.  0.
<mgrwt>
<rscale>  0 0.11566982E+04</rscale>
<asrwt>0</asrwt>
<pdfrwt beam="1">  1        2 0.61691996E-01 0.11566982E+04</pdfrwt>
<pdfrwt beam="2">  1       -2 0.12832893E+00 0.11566982E+04</pdfrwt>
<totfact> 0.35187811E+01</totfact>
</mgrwt>
</event>
<event>
 4    1  0.3213443E-005  0.5127105E+03  0.7818608E-02  0.1010514E+00
         -2   -1    0    0    0  501 -0.00000000000E+00  0.00000000000E+00  0.12172560564E+03  0.12172560566E+03  0.25500000000E-02 0. -1.
          2   -1    0    0  501    0  0.00000000000E+00 -0.00000000000E+00 -0.53988662698E+03  0.53988662698E+03  0.25500000000E-02 0.  1.
    5000001    1    1    2    0    0  0.14315563753E+03 -0.13187914502E+03 -0.17727796039E+03  0.31070584270E+03  0.16500000000E+03 0.  0.
   -5000001    1    1    2    0    0 -0.14315563753E+03  0.13187914502E+03 -0.24088306095E+03  0.35090638994E+03  0.16500000000E+03 0.  0.
<mgrwt>
<rscale>  0 0.51271055E+03</rscale>
<asrwt>0</asrwt>
<pdfrwt beam="1">  1        2 0.83059480E-01 0.51271055E+03</pdfrwt>
<pdfrwt beam="2">  1       -2 0.18727017E-01 0.51271055E+03</pdfrwt>
<totfact> 0.13477323E+03</totfact>
</mgrwt>
</event>
<event>
 4    1  0.3213443E-005  0.4040873E+03  0.7818608E-02  0.1042374E+00
         -2   -1    0    0    0  501 -0.00000000000E+00  0.00000000000E+00  0.11435152731E+03  0.11435152734E+03  0.25500000000E-02 0.  1.
          2   -1    0    0  501    0  0.00000000000E+00 -0.00000000000E+00 -0.35698370776E+03  0.35698370777E+03  0.25500000000E-02 0. -1.
    5000001    1    1    2    0    0  0.11191362335E+02  0.10838267403E+03 -0.16975525009E+03  0.26060294618E+03  0.16500000000E+03 0.  0.
   -5000001    1    1    2    0    0 -0.11191362335E+02 -0.10838267403E+03 -0.72876930358E+02  0.21073228894E+03  0.16500000000E+03 0.  0.
<mgrwt>
<rscale>  0 0.40408728E+03</rscale>
<asrwt>0</asrwt>
<pdfrwt beam="1">  1        2 0.54920570E-01 0.40408728E+03</pdfrwt>
<pdfrwt beam="2">  1       -2 0.17592543E-01 0.40408728E+03</pdfrwt>
<totfact> 0.23829412E+03</totfact>
</mgrwt>
</event>
<event>
 4    1  0.3213443E-005  0.4546090E+03  0.7818608E-02  0.1026356E+00
         -2   -1    0    0    0  501 -0.00000000000E+00  0.00000000000E+00  0.65417068280E+02  0.65417068330E+02  0.25500000000E-02 0. -1.
          2   -1    0    0  501    0  0.00000000000E+00 -0.00000000000E+00 -0.78981438454E+03  0.78981438454E+03  0.25500000000E-02 0.  1.
    5000001    1    1    2    0    0 -0.20214587483E+00  0.15607829870E+03 -0.34517724197E+03  0.41319826302E+03  0.16500000000E+03 0.  0.
   -5000001    1    1    2    0    0  0.20214587483E+00 -0.15607829870E+03 -0.37922007429E+03  0.44203318986E+03  0.16500000000E+03 0.  0.
<mgrwt>
<rscale>  0 0.45460903E+03</rscale>
<asrwt>0</asrwt>
<pdfrwt beam="1">  1        2 0.12150990E+00 0.45460903E+03</pdfrwt>
<pdfrwt beam="2">  1       -2 0.10064165E-01 0.45460903E+03</pdfrwt>
<totfact> 0.23782375E+03</totfact>
</mgrwt>
</event>
<event>
 4    1  0.3213443E-005  0.3802840E+03  0.7818608E-02  0.1050829E+00
          2   -1    0    0  501    0  0.00000000000E+00  0.00000000000E+00  0.86934538323E+02  0.86934538361E+02  0.25500000000E-02 0.  1.
         -2   -1    0    0    0  501 -0.00000000000E+00 -0.00000000000E+00 -0.41587594973E+03  0.41587594974E+03  0.25500000000E-02 0. -1.
    5000001    1    1    2    0    0  0.86149608519E+02  0.38461944922E+02 -0.17145554312E+03  0.25597476345E+03  0.16500000000E+03 0.  0.
   -5000001    1    1    2    0    0 -0.86149608519E+02 -0.38461944922E+02 -0.15748586829E+03  0.24683572466E+03  0.16500000000E+03 0.  0.
<mgrwt>
<rscale>  0 0.38028402E+03</rscale>
<asrwt>0</asrwt>
<pdfrwt beam="1">  1        2 0.13374545E-01 0.38028402E+03</pdfrwt>
<pdfrwt beam="2">  1       -2 0.63980914E-01 0.38028402E+03</pdfrwt>
<totfact> 0.10409515E+03</totfact>
</mgrwt>
</event>
<event>
 4    1  0.3213443E-005  0.5276237E+03  0.7818608E-02  0.1006810E+00
         -2   -1    0    0    0  501 -0.00000000000E+00  0.00000000000E+00  0.37320484868E+03  0.37320484869E+03  0.25500000000E-02 0.  1.
          2   -1    0    0  501    0  0.00000000000E+00 -0.00000000000E+00 -0.18648386270E+03  0.18648386272E+03  0.25500000000E-02 0. -1.
    5000001    1    1    2    0    0  0.43613841248E+02  0.20113713263E+03  0.89481995204E+02  0.27855042764E+03  0.16500000000E+03 0.  0.
   -5000001    1    1    2    0    0 -0.43613841248E+02 -0.20113713263E+03  0.97238990772E+02  0.28113828376E+03  0.16500000000E+03 0.  0.
<mgrwt>
<rscale>  0 0.52762366E+03</rscale>
<asrwt>0</asrwt>
<pdfrwt beam="1">  1        2 0.28689826E-01 0.52762366E+03</pdfrwt>
<pdfrwt beam="2">  1       -2 0.57416129E-01 0.52762366E+03</pdfrwt>
<totfact> 0.53625906E+02</totfact>
</mgrwt>
</event>
<event>
 4    1  0.3213443E-005  0.5840690E+03  0.7818608E-02  0.9939020E-01
         -2   -1    0    0    0  501 -0.00000000000E+00  0.00000000000E+00  0.56463870577E+02  0.56463870635E+02  0.25500000000E-02 0. -1.
          2   -1    0    0  501    0  0.00000000000E+00 -0.00000000000E+00 -0.15104197609E+04  0.15104197609E+04  0.25500000000E-02 0.  1.
    5000001    1    1    2    0    0 -0.67944598612E+02 -0.21868866797E+03 -0.92805443593E+03  0.97002641100E+03  0.16500000000E+03 0.  0.
   -5000001    1    1    2    0    0  0.67944598612E+02  0.21868866797E+03 -0.52590145438E+03  0.59685722053E+03  0.16500000000E+03 0.  0.
<mgrwt>
<rscale>  0 0.58406899E+03</rscale>
<asrwt>0</asrwt>
<pdfrwt beam="1">  1        2 0.23237224E+00 0.58406899E+03</pdfrwt>
<pdfrwt beam="2">  1       -2 0.86867505E-02 0.58406899E+03</pdfrwt>
<totfact> 0.11005039E+03</totfact>
</mgrwt>
</event>
<event>
 4    1  0.3213443E-005  0.8468394E+03  0.7818608E-02  0.9494589E-01
         -2   -1    0    0    0  501 -0.00000000000E+00  0.00000000000E+00  0.15353663915E+03  0.15353663917E+03  0.25500000000E-02 0. -1.
          2   -1    0    0  501    0  0.00000000000E+00 -0.00000000000E+00 -0.11676968171E+04  0.11676968171E+04  0.25500000000E-02 0.  1.
    5000001    1    1    2    0    0 -0.26869499072E+03  0.25577910723E+03 -0.69455860196E+03  0.80452259216E+03  0.16500000000E+03 0.  0.
   -5000001    1    1    2    0    0  0.26869499072E+03 -0.25577910723E+03 -0.31960157600E+03  0.51671086413E+03  0.16500000000E+03 0.  0.
<mgrwt>
<rscale>  0 0.84683941E+03</rscale>
<asrwt>0</asrwt>
<pdfrwt beam="1">  1        2 0.17964566E+00 0.84683941E+03</pdfrwt>
<pdfrwt beam="2">  1       -2 0.23621022E-01 0.84683941E+03</pdfrwt>
<totfact> 0.31574929E+02</totfact>
</mgrwt>
</event>
<event>
 4    1  0.3213443E-005  0.4478613E+03  0.7818608E-02  0.1028362E+00
         -2   -1    0    0    0  501 -0.00000000000E+00  0.00000000000E+00  0.10973689298E+03  0.10973689301E+03  0.25500000000E-02 0. -1.
          2   -1    0    0  501    0  0.00000000000E+00 -0.00000000000E+00 -0.45695604335E+03  0.45695604336E+03  0.25500000000E-02 0.  1.
    5000001    1    1    2    0    0  0.12723189208E+03  0.14346636331E+02 -0.27582889573E+03  0.34597739818E+03  0.16500000000E+03 0.  0.
   -5000001    1    1    2    0    0 -0.12723189208E+03 -0.14346636331E+02 -0.71390254642E+02  0.22071553818E+03  0.16500000000E+03 0.  0.
<mgrwt>
<rscale>  0 0.44786130E+03</rscale>
<asrwt>0</asrwt>
<pdfrwt beam="1">  1        2 0.70300929E-01 0.44786130E+03</pdfrwt>
<pdfrwt beam="2">  1       -2 0.16882599E-01 0.44786130E+03</pdfrwt>
<totfact> 0.19458841E+03</totfact>
</mgrwt>
</event>
<event>
 4    1  0.3213443E-005  0.6561001E+03  0.7818608E-02  0.9795400E-01
          2   -1    0    0  501    0  0.00000000000E+00  0.00000000000E+00  0.65276248517E+02  0.65276248566E+02  0.25500000000E-02 0.  1.
         -2   -1    0    0    0  501 -0.00000000000E+00 -0.00000000000E+00 -0.16486368313E+04  0.16486368313E+04  0.25500000000E-02 0. -1.
    5000001    1    1    2    0    0  0.18605306658E+03  0.20242852422E+03 -0.61071971572E+03  0.68978012596E+03  0.16500000000E+03 0.  0.
   -5000001    1    1    2    0    0 -0.18605306658E+03 -0.20242852422E+03 -0.97264086709E+03  0.10241329539E+04  0.16500000000E+03 0.  0.
<mgrwt>
<rscale>  0 0.65610008E+03</rscale>
<asrwt>0</asrwt>
<pdfrwt beam="1">  1        2 0.10042501E-01 0.65610008E+03</pdfrwt>
<pdfrwt beam="2">  1       -2 0.25363640E+00 0.65610008E+03</pdfrwt>
<totfact> 0.41814767E+01</totfact>
</mgrwt>
</event>
<event>
 4    1  0.3213443E-005  0.1400515E+04  0.7818608E-02  0.8953446E-01
         -2   -1    0    0    0  501 -0.00000000000E+00  0.00000000000E+00  0.28707280250E+03  0.28707280251E+03  0.25500000000E-02 0. -1.
          2   -1    0    0  501    0  0.00000000000E+00 -0.00000000000E+00 -0.17081411332E+04  0.17081411332E+04  0.25500000000E-02 0.  1.
    5000001    1    1    2    0    0 -0.10538545354E+03  0.57837742461E+03 -0.11988915239E+04  0.13454339171E+04  0.16500000000E+03 0.  0.
   -5000001    1    1    2    0    0  0.10538545354E+03 -0.57837742461E+03 -0.22217680676E+03  0.64978001860E+03  0.16500000000E+03 0.  0.
<mgrwt>
<rscale>  0 0.14005154E+04</rscale>
<asrwt>0</asrwt>
<pdfrwt beam="1">  1        2 0.26279094E+00 0.14005154E+04</pdfrwt>
<pdfrwt beam="2">  1       -2 0.44165048E-01 0.14005154E+04</pdfrwt>
<totfact> 0.45918542E+01</totfact>
</mgrwt>
</event>
<event>
 4    1  0.3213443E-005  0.8770715E+03  0.7818608E-02  0.9454706E-01
          2   -1    0    0  501    0  0.00000000000E+00  0.00000000000E+00  0.47636668409E+03  0.47636668410E+03  0.25500000000E-02 0.  1.
         -2   -1    0    0    0  501 -0.00000000000E+00 -0.00000000000E+00 -0.40370915911E+03  0.40370915912E+03  0.25500000000E-02 0. -1.
    5000001    1    1    2    0    0  0.38570178011E+03  0.82792651021E+02  0.13396627289E+03  0.44809870399E+03  0.16500000000E+03 0.  0.
   -5000001    1    1    2    0    0 -0.38570178011E+03 -0.82792651021E+02 -0.61308747913E+02  0.43197713923E+03  0.16500000000E+03 0.  0.
<mgrwt>
<rscale>  0 0.87707148E+03</rscale>
<asrwt>0</asrwt>
<pdfrwt beam="1">  1        2 0.73287182E-01 0.87707148E+03</pdfrwt>
<pdfrwt beam="2">  1       -2 0.62109101E-01 0.87707148E+03</pdfrwt>
<totfact> 0.15753634E+02</totfact>
</mgrwt>
</event>
<event>
 4    1  0.3213443E-005  0.6146913E+03  0.7818608E-02  0.9875386E-01
         -2   -1    0    0    0  501 -0.00000000000E+00  0.00000000000E+00  0.10140693662E+03  0.10140693666E+03  0.25500000000E-02 0. -1.
          2   -1    0    0  501    0  0.00000000000E+00 -0.00000000000E+00 -0.93150779974E+03  0.93150779974E+03  0.25500000000E-02 0.  1.
    5000001    1    1    2    0    0  0.74119857976E+02 -0.24113952513E+03 -0.51579375681E+03  0.59741963769E+03  0.16500000000E+03 0.  0.
   -5000001    1    1    2    0    0 -0.74119857976E+02  0.24113952513E+03 -0.31430710630E+03  0.43549509871E+03  0.16500000000E+03 0.  0.
<mgrwt>
<rscale>  0 0.61469131E+03</rscale>
<asrwt>0</asrwt>
<pdfrwt beam="1">  1        2 0.14330889E+00 0.61469131E+03</pdfrwt>
<pdfrwt beam="2">  1       -2 0.15601068E-01 0.61469131E+03</pdfrwt>
<totfact> 0.92171214E+02</totfact>
</mgrwt>
</event>
<event>
 4    1  0.3213443E-005  0.4924624E+03  0.7818608E-02  0.1015765E+00
          2   -1    0    0  501    0  0.00000000000E+00  0.00000000000E+00  0.13287312597E+04  0.13287312597E+04  0.25500000000E-02 0.  1.
         -2   -1    0    0    0  501 -0.00000000000E+00 -0.00000000000E+00 -0.45629840918E+02  0.45629840989E+02  0.25500000000E-02 0. -1.
    5000001    1    1    2    0    0  0.58208753108E+02 -0.17228571717E+03  0.69256721846E+03  0.73480948508E+03  0.16500000000E+03 0.  0.
   -5000001    1    1    2    0    0 -0.58208753108E+02  0.17228571717E+03  0.59053420028E+03  0.63955161557E+03  0.16500000000E+03 0.  0.
<mgrwt>
<rscale>  0 0.49246237E+03</rscale>
<asrwt>0</asrwt>
<pdfrwt beam="1">  1        2 0.20442020E+00 0.49246237E+03</pdfrwt>
<pdfrwt beam="2">  1       -2 0.70199755E-02 0.49246237E+03</pdfrwt>
<totfact> 0.19549329E+03</totfact>
</mgrwt>
</event>
<event>
 4    1  0.3213443E-005  0.5224785E+03  0.7818608E-02  0.1008073E+00
         -2   -1    0    0    0  501 -0.00000000000E+00  0.00000000000E+00  0.79104366650E+02  0.79104366691E+02  0.25500000000E-02 0. -1.
          2   -1    0    0  501    0  0.00000000000E+00 -0.00000000000E+00 -0.86273311055E+03  0.86273311056E+03  0.25500000000E-02 0.  1.
    5000001    1    1    2    0    0 -0.20177926981E+03 -0.30503320913E+01 -0.36075995272E+03  0.44508080361E+03  0.16500000000E+03 0.  0.
   -5000001    1    1    2    0    0  0.20177926981E+03  0.30503320913E+01 -0.42286879118E+03  0.49675667364E+03  0.16500000000E+03 0.  0.
<mgrwt>
<rscale>  0 0.52247854E+03</rscale>
<asrwt>0</asrwt>
<pdfrwt beam="1">  1        2 0.13272816E+00 0.52247854E+03</pdfrwt>
<pdfrwt beam="2">  1       -2 0.12169903E-01 0.52247854E+03</pdfrwt>
<totfact> 0.15531069E+03</totfact>
</mgrwt>
</event>
<event>
 4    1  0.3213443E-005  0.3963144E+03  0.7818608E-02  0.1045063E+00
         -2   -1    0    0    0  501 -0.00000000000E+00  0.00000000000E+00  0.33983567019E+02  0.33983567114E+02  0.25500000000E-02 0.  1.
          2   -1    0    0  501    0  0.00000000000E+00 -0.00000000000E+00 -0.11554489590E+04  0.11554489590E+04  0.25500000000E-02 0. -1.
    5000001    1    1    2    0    0 -0.32062462198E+02  0.96472329083E+02 -0.68470822593E+03  0.71160752274E+03  0.16500000000E+03 0.  0.
   -5000001    1    1    2    0    0  0.32062462198E+02 -0.96472329083E+02 -0.43675716609E+03  0.47782500342E+03  0.16500000000E+03 0.  0.
<mgrwt>
<rscale>  0 0.39631441E+03</rscale>
<asrwt>0</asrwt>
<pdfrwt beam="1">  1        2 0.17776135E+00 0.39631441E+03</pdfrwt>
<pdfrwt beam="2">  1       -2 0.52282420E-02 0.39631441E+03</pdfrwt>
<totfact> 0.38907562E+03</totfact>
</mgrwt>
</event>
<event>
 4    1  0.3213443E-005  0.4394510E+03  0.7818608E-02  0.1030915E+00
          2   -1    0    0  501    0  0.00000000000E+00  0.00000000000E+00  0.44970489547E+03  0.44970489548E+03  0.25500000000E-02 0.  1.
         -2   -1    0    0    0  501 -0.00000000000E+00 -0.00000000000E+00 -0.10735772242E+03  0.10735772245E+03  0.25500000000E-02 0. -1.
    5000001    1    1    2    0    0 -0.20196672079E+02 -0.14220675853E+03  0.14508295015E+03  0.26249710505E+03  0.16500000000E+03 0.  0.
   -5000001    1    1    2    0    0  0.20196672079E+02  0.14220675853E+03  0.19726422290E+03  0.29456551287E+03  0.16500000000E+03 0.  0.
<mgrwt>
<rscale>  0 0.43945099E+03</rscale>
<asrwt>0</asrwt>
<pdfrwt beam="1">  1        2 0.69185367E-01 0.43945099E+03</pdfrwt>
<pdfrwt beam="2">  1       -2 0.16516573E-01 0.43945099E+03</pdfrwt>
<totfact> 0.20557399E+03</totfact>
</mgrwt>
</event>
<event>
 4    1  0.3213443E-005  0.1105875E+04  0.7818608E-02  0.9199484E-01
          2   -1    0    0  501    0  0.00000000000E+00  0.00000000000E+00  0.46141397415E+04  0.46141397415E+04  0.25500000000E-02 0.  1.
         -2   -1    0    0    0  501 -0.00000000000E+00 -0.00000000000E+00 -0.66261550965E+02  0.66261551014E+02  0.25500000000E-02 0. -1.
    5000001    1    1    2    0    0  0.23710480683E+03 -0.31627936884E+03  0.37538165032E+04  0.37781761034E+04  0.16500000000E+03 0.  0.
   -5000001    1    1    2    0    0 -0.23710480683E+03  0.31627936884E+03  0.79406168727E+03  0.90222518905E+03  0.16500000000E+03 0.  0.
<mgrwt>
<rscale>  0 0.11058753E+04</rscale>
<asrwt>0</asrwt>
<pdfrwt beam="1">  1        2 0.70986788E+00 0.11058753E+04</pdfrwt>
<pdfrwt beam="2">  1       -2 0.10194082E-01 0.11058753E+04</pdfrwt>
<totfact> 0.67210115E+00</totfact>
</mgrwt>
</event>
<event>
 4    1  0.3213443E-005  0.4077490E+03  0.7818608E-02  0.1041129E+00
          2   -1    0    0  501    0  0.00000000000E+00  0.00000000000E+00  0.20171401788E+03  0.20171401789E+03  0.25500000000E-02 0.  1.
         -2   -1    0    0    0  501 -0.00000000000E+00 -0.00000000000E+00 -0.20605814515E+03  0.20605814516E+03  0.25500000000E-02 0. -1.
    5000001    1    1    2    0    0  0.10784209395E+03 -0.51730672426E+02  0.36451971679E+01  0.20382410839E+03  0.16500000000E+03 0.  0.
   -5000001    1    1    2    0    0 -0.10784209395E+03  0.51730672426E+02 -0.79893244373E+01  0.20394805467E+03  0.16500000000E+03 0.  0.
<mgrwt>
<rscale>  0 0.40774902E+03</rscale>
<asrwt>0</asrwt>
<pdfrwt beam="1">  1        2 0.31032926E-01 0.40774902E+03</pdfrwt>
<pdfrwt beam="2">  1       -2 0.31701253E-01 0.40774902E+03</pdfrwt>
<totfact> 0.15717026E+03</totfact>
</mgrwt>
</event>
<event>
 4    1  0.3213443E-005  0.3868850E+03  0.7818608E-02  0.1048418E+00
          2   -1    0    0  501    0  0.00000000000E+00  0.00000000000E+00  0.61548988241E+03  0.61548988241E+03  0.25500000000E-02 0.  1.
         -2   -1    0    0    0  501 -0.00000000000E+00 -0.00000000000E+00 -0.60797086466E+02  0.60797086520E+02  0.25500000000E-02 0. -1.
    5000001    1    1    2    0    0 -0.43280244976E+01  0.94524158228E+02  0.33893674219E+03  0.38866008734E+03  0.16500000000E+03 0.  0.
   -5000001    1    1    2    0    0  0.43280244976E+01 -0.94524158228E+02  0.21575605376E+03  0.28762688160E+03  0.16500000000E+03 0.  0.
<mgrwt>
<rscale>  0 0.38688495E+03</rscale>
<asrwt>0</asrwt>
<pdfrwt beam="1">  1        2 0.94690747E-01 0.38688495E+03</pdfrwt>
<pdfrwt beam="2">  1       -2 0.93533983E-02 0.38688495E+03</pdfrwt>
<totfact> 0.36349677E+03</totfact>
</mgrwt>
</event>
<event>
 4    1  0.3213443E-005  0.1274091E+04  0.7818608E-02  0.9050368E-01
         -2   -1    0    0    0  501 -0.00000000000E+00  0.00000000000E+00  0.25462279053E+03  0.25462279055E+03  0.25500000000E-02 0. -1.
          2   -1    0    0  501    0  0.00000000000E+00 -0.00000000000E+00 -0.15938350723E+04  0.15938350723E+04  0.25500000000E-02 0.  1.
    5000001    1    1    2    0    0  0.17254870854E+03  0.52457926389E+03 -0.27589140420E+03  0.63898163341E+03  0.16500000000E+03 0.  0.
   -5000001    1    1    2    0    0 -0.17254870854E+03 -0.52457926389E+03 -0.10633208776E+04  0.12094762295E+04  0.16500000000E+03 0.  0.
<mgrwt>
<rscale>  0 0.12740906E+04</rscale>
<asrwt>0</asrwt>
<pdfrwt beam="1">  1        2 0.24520539E+00 0.12740906E+04</pdfrwt>
<pdfrwt beam="2">  1       -2 0.39172738E-01 0.12740906E+04</pdfrwt>
<totfact> 0.67979863E+01</totfact>
</mgrwt>
</event>
<event>
 4    1  0.3213443E-005  0.9462565E+03  0.7818608E-02  0.9369537E-01
         -2   -1    0    0    0  501 -0.00000000000E+00  0.00000000000E+00  0.14877459064E+04  0.14877459064E+04  0.25500000000E-02 0. -1.
          2   -1    0    0  501    0  0.00000000000E+00 -0.00000000000E+00 -0.15046273672E+03  0.15046273674E+03  0.25500000000E-02 0.  1.
    5000001    1    1    2    0    0  0.71499734071E+02  0.31642945558E+03  0.11919997724E+04  0.12463259083E+04  0.16500000000E+03 0.  0.
   -5000001    1    1    2    0    0 -0.71499734071E+02 -0.31642945558E+03  0.14528339729E+03  0.39188273483E+03  0.16500000000E+03 0.  0.
<mgrwt>
<rscale>  0 0.94625646E+03</rscale>
<asrwt>0</asrwt>
<pdfrwt beam="1">  1        2 0.23148114E-01 0.94625646E+03</pdfrwt>
<pdfrwt beam="2">  1       -2 0.22888397E+00 0.94625646E+03</pdfrwt>
<totfact> 0.20968742E+01</totfact>
</mgrwt>
</event>
<event>
 4    1  0.3213443E-005  0.4433342E+03  0.7818608E-02  0.1029729E+00
         -2   -1    0    0    0  501 -0.00000000000E+00  0.00000000000E+00  0.72324067641E+02  0.72324067686E+02  0.25500000000E-02 0. -1.
          2   -1    0    0  501    0  0.00000000000E+00 -0.00000000000E+00 -0.67939089558E+03  0.67939089558E+03  0.25500000000E-02 0.  1.
    5000001    1    1    2    0    0 -0.14308503597E+03 -0.14854168284E+02 -0.24437347292E+03  0.32808134373E+03  0.16500000000E+03 0.  0.
   -5000001    1    1    2    0    0  0.14308503597E+03  0.14854168284E+02 -0.36269335502E+03  0.42363361954E+03  0.16500000000E+03 0.  0.
<mgrwt>
<rscale>  0 0.44333424E+03</rscale>
<asrwt>0</asrwt>
<pdfrwt beam="1">  1        2 0.10452167E+00 0.44333424E+03</pdfrwt>
<pdfrwt beam="2">  1       -2 0.11126780E-01 0.44333424E+03</pdfrwt>
<totfact> 0.24434851E+03</totfact>
</mgrwt>
</event>
<event>
 4    1  0.3213443E-005  0.7668060E+03  0.7818608E-02  0.9609347E-01
         -2   -1    0    0    0  501 -0.00000000000E+00  0.00000000000E+00  0.56171179083E+02  0.56171179140E+02  0.25500000000E-02 0. -1.
          2   -1    0    0  501    0  0.00000000000E+00 -0.00000000000E+00 -0.26169622761E+04  0.26169622761E+04  0.25500000000E-02 0.  1.
    5000001    1    1    2    0    0  0.17429529197E+03 -0.20332434749E+03 -0.51621429251E+03  0.60450131090E+03  0.16500000000E+03 0.  0.
   -5000001    1    1    2    0    0 -0.17429529197E+03  0.20332434749E+03 -0.20445768045E+04  0.20686321443E+04  0.16500000000E+03 0.  0.
<mgrwt>
<rscale>  0 0.76680599E+03</rscale>
<asrwt>0</asrwt>
<pdfrwt beam="1">  1        2 0.40260949E+00 0.76680599E+03</pdfrwt>
<pdfrwt beam="2">  1       -2 0.86417219E-02 0.76680599E+03</pdfrwt>
<totfact> 0.26890512E+02</totfact>
</mgrwt>
</event>
<event>
 4    1  0.3213443E-005  0.4060042E+03  0.7818608E-02  0.1041720E+00
          2   -1    0    0  501    0  0.00000000000E+00  0.00000000000E+00  0.83453172191E+02  0.83453172230E+02  0.25500000000E-02 0.  1.
         -2   -1    0    0    0  501 -0.00000000000E+00 -0.00000000000E+00 -0.49380811054E+03  0.49380811055E+03  0.25500000000E-02 0. -1.
    5000001    1    1    2    0    0  0.11670239047E+03  0.14641207207E+02 -0.18770362469E+03  0.27620909401E+03  0.16500000000E+03 0.  0.
   -5000001    1    1    2    0    0 -0.11670239047E+03 -0.14641207207E+02 -0.22265131365E+03  0.30105218877E+03  0.16500000000E+03 0.  0.
<mgrwt>
<rscale>  0 0.40600420E+03</rscale>
<asrwt>0</asrwt>
<pdfrwt beam="1">  1        2 0.12838950E-01 0.40600420E+03</pdfrwt>
<pdfrwt beam="2">  1       -2 0.75970477E-01 0.40600420E+03</pdfrwt>
<totfact> 0.75591346E+02</totfact>
</mgrwt>
</event>
<event>
 4    1  0.3213443E-005  0.4785517E+03  0.7818608E-02  0.1019534E+00
         -2   -1    0    0    0  501 -0.00000000000E+00  0.00000000000E+00  0.60802125945E+02  0.60802125998E+02  0.25500000000E-02 0. -1.
          2   -1    0    0  501    0  0.00000000000E+00 -0.00000000000E+00 -0.94162722136E+03  0.94162722136E+03  0.25500000000E-02 0.  1.
    5000001    1    1    2    0    0  0.31909055082E+02  0.11060028218E+03 -0.16908975840E+03  0.26280592956E+03  0.16500000000E+03 0.  0.
   -5000001    1    1    2    0    0 -0.31909055082E+02 -0.11060028218E+03 -0.71173533701E+03  0.73962341780E+03  0.16500000000E+03 0.  0.
<mgrwt>
<rscale>  0 0.47855172E+03</rscale>
<asrwt>0</asrwt>
<pdfrwt beam="1">  1        2 0.14486572E+00 0.47855172E+03</pdfrwt>
<pdfrwt beam="2">  1       -2 0.93541739E-02 0.47855172E+03</pdfrwt>
<totfact> 0.21119021E+03</totfact>
</mgrwt>
</event>
<event>
 4    1  0.3213443E-005  0.7065180E+03  0.7818608E-02  0.9706150E-01
         -2   -1    0    0    0  501 -0.00000000000E+00  0.00000000000E+00  0.49598508290E+02  0.49598508355E+02  0.25500000000E-02 0. -1.
          2   -1    0    0  501    0  0.00000000000E+00 -0.00000000000E+00 -0.25160416766E+04  0.25160416766E+04  0.25500000000E-02 0.  1.
    5000001    1    1    2    0    0 -0.20414333766E+03  0.55576372753E+02 -0.20676798477E+04  0.20850151529E+04  0.16500000000E+03 0.  0.
   -5000001    1    1    2    0    0  0.20414333766E+03 -0.55576372753E+02 -0.39876332067E+03  0.48062503205E+03  0.16500000000E+03 0.  0.
<mgrwt>
<rscale>  0 0.70651798E+03</rscale>
<asrwt>0</asrwt>
<pdfrwt beam="1">  1        2 0.38708324E+00 0.70651798E+03</pdfrwt>
<pdfrwt beam="2">  1       -2 0.76305417E-02 0.70651798E+03</pdfrwt>
<totfact> 0.37694859E+02</totfact>
</mgrwt>
</event>
<event>
 4    1  0.3213443E-005  0.4361083E+03  0.7818608E-02  0.1031948E+00
          2   -1    0    0  501    0  0.00000000000E+00  0.00000000000E+00  0.57975530324E+03  0.57975530325E+03  0.25500000000E-02 0.  1.
         -2   -1    0    0    0  501 -0.00000000000E+00 -0.00000000000E+00 -0.82013242842E+02  0.82013242882E+02  0.25500000000E-02 0. -1.
    5000001    1    1    2    0    0 -0.30366376589E+02  0.12875317991E+03  0.16824486552E+03  0.27024217461E+03  0.16500000000E+03 0.  0.
   -5000001    1    1    2    0    0  0.30366376589E+02 -0.12875317991E+03  0.32949719488E+03  0.39152637152E+03  0.16500000000E+03 0.  0.
<mgrwt>
<rscale>  0 0.43610830E+03</rscale>
<asrwt>0</asrwt>
<pdfrwt beam="1">  1        2 0.89193122E-01 0.43610830E+03</pdfrwt>
<pdfrwt beam="2">  1       -2 0.12617422E-01 0.43610830E+03</pdfrwt>
<totfact> 0.24064924E+03</totfact>
</mgrwt>
</event>
<event>
 4    1  0.3213443E-005  0.6111411E+03  0.7818608E-02  0.9882558E-01
         -2   -1    0    0    0  501 -0.00000000000E+00  0.00000000000E+00  0.65569119851E+03  0.65569119852E+03  0.25500000000E-02 0. -1.
          2   -1    0    0  501    0  0.00000000000E+00 -0.00000000000E+00 -0.14240448231E+03  0.14240448234E+03  0.25500000000E-02 0.  1.
    5000001    1    1    2    0    0  0.13893137435E+03 -0.21285156792E+03  0.20538492758E+03  0.36608152811E+03  0.16500000000E+03 0.  0.
   -5000001    1    1    2    0    0 -0.13893137435E+03  0.21285156792E+03  0.30790178861E+03  0.43201415275E+03  0.16500000000E+03 0.  0.
<mgrwt>
<rscale>  0 0.61114112E+03</rscale>
<asrwt>0</asrwt>
<pdfrwt beam="1">  1        2 0.21908382E-01 0.61114112E+03</pdfrwt>
<pdfrwt beam="2">  1       -2 0.10087557E+00 0.61114112E+03</pdfrwt>
<totfact> 0.20910229E+02</totfact>
</mgrwt>
</event>
<event>
 4    1  0.3213443E-005  0.7805240E+03  0.7818608E-02  0.9588644E-01
          2   -1    0    0  501    0  0.00000000000E+00  0.00000000000E+00  0.69623091106E+03  0.69623091107E+03  0.25500000000E-02 0.  1.
         -2   -1    0    0    0  501 -0.00000000000E+00 -0.00000000000E+00 -0.21875564351E+03  0.21875564353E+03  0.25500000000E-02 0. -1.
    5000001    1    1    2    0    0 -0.29773466454E+03 -0.18696293067E+03  0.19366421959E+03  0.43397223167E+03  0.16500000000E+03 0.  0.
   -5000001    1    1    2    0    0  0.29773466454E+03  0.18696293067E+03  0.28381104796E+03  0.48101432292E+03  0.16500000000E+03 0.  0.
<mgrwt>
<rscale>  0 0.78052403E+03</rscale>
<asrwt>0</asrwt>
<pdfrwt beam="1">  1        2 0.10711245E+00 0.78052403E+03</pdfrwt>
<pdfrwt beam="2">  1       -2 0.33654714E-01 0.78052403E+03</pdfrwt>
<totfact> 0.34244442E+02</totfact>
</mgrwt>
</event>
<event>
 4    1  0.3213443E-005  0.8015785E+03  0.7818608E-02  0.9557735E-01
         -2   -1    0    0    0  501 -0.00000000000E+00  0.00000000000E+00  0.67433325343E+02  0.67433325391E+02  0.25500000000E-02 0. -1.
          2   -1    0    0  501    0  0.00000000000E+00 -0.00000000000E+00 -0.23820868482E+04  0.23820868482E+04  0.25500000000E-02 0.  1.
    5000001    1    1    2    0    0  0.51105737244E+02 -0.22208302872E+03 -0.20295857327E+04  0.20489938785E+04  0.16500000000E+03 0.  0.
   -5000001    1    1    2    0    0 -0.51105737244E+02  0.22208302872E+03 -0.28506779016E+03  0.40052629503E+03  0.16500000000E+03 0.  0.
<mgrwt>
<rscale>  0 0.80157854E+03</rscale>
<asrwt>0</asrwt>
<pdfrwt beam="1">  1        2 0.36647484E+00 0.80157854E+03</pdfrwt>
<pdfrwt beam="2">  1       -2 0.10374360E-01 0.80157854E+03</pdfrwt>
<totfact> 0.27091727E+02</totfact>
</mgrwt>
</event>
<event>
 4    1  0.3213443E-005  0.5845505E+03  0.7818608E-02  0.9937988E-01
         -2   -1    0    0    0  501 -0.00000000000E+00  0.00000000000E+00  0.48261479554E+02  0.48261479621E+02  0.25500000000E-02 0. -1.
          2   -1    0    0  501    0  0.00000000000E+00 -0.00000000000E+00 -0.17700412560E+04  0.17700412560E+04  0.25500000000E-02 0.  1.
    5000001    1    1    2    0    0  0.63102861525E+02  0.17786239513E+03 -0.13283377196E+04  0.13517851530E+04  0.16500000000E+03 0.  0.
   -5000001    1    1    2    0    0 -0.63102861525E+02 -0.17786239513E+03 -0.39344205682E+03  0.46651758253E+03  0.16500000000E+03 0.  0.
<mgrwt>
<rscale>  0 0.58455046E+03</rscale>
<asrwt>0</asrwt>
<pdfrwt beam="1">  1        2 0.27231399E+00 0.58455046E+03</pdfrwt>
<pdfrwt beam="2">  1       -2 0.74248444E-02 0.58455046E+03</pdfrwt>
<totfact> 0.10202790E+03</totfact>
</mgrwt>
</event>
<event>
 4    1  0.3213443E-005  0.6267562E+03  0.7818608E-02  0.9851399E-01
         -2   -1    0    0    0  501 -0.00000000000E+00  0.00000000000E+00  0.89642007642E+02  0.89642007679E+02  0.25500000000E-02 0. -1.
          2   -1    0    0  501    0  0.00000000000E+00 -0.00000000000E+00 -0.10955335310E+04  0.10955335310E+04  0.25500000000E-02 0.  1.
    5000001    1    1    2    0    0  0.14168672999E+03  0.22331152199E+03 -0.56385898345E+03  0.64428651897E+03  0.16500000000E+03 0.  0.
   -5000001    1    1    2    0    0 -0.14168672999E+03 -0.22331152199E+03 -0.44203253992E+03  0.54088901972E+03  0.16500000000E+03 0.  0.
<mgrwt>
<rscale>  0 0.62675617E+03</rscale>
<asrwt>0</asrwt>
<pdfrwt beam="1">  1        2 0.16854361E+00 0.62675617E+03</pdfrwt>
<pdfrwt beam="2">  1       -2 0.13791079E-01 0.62675617E+03</pdfrwt>
<totfact> 0.89337436E+02</totfact>
</mgrwt>
</event>
<event>
 4    1  0.3213443E-005  0.4067322E+03  0.7818608E-02  0.1041473E+00
          2   -1    0    0  501    0  0.00000000000E+00  0.00000000000E+00  0.40138589700E+03  0.40138589700E+03  0.25500000000E-02 0.  1.
         -2   -1    0    0    0  501 -0.00000000000E+00 -0.00000000000E+00 -0.10303742533E+03  0.10303742536E+03  0.25500000000E-02 0. -1.
    5000001    1    1    2    0    0  0.15723343630E+02 -0.11550330375E+03  0.17811423982E+03  0.26932864523E+03  0.16500000000E+03 0.  0.
   -5000001    1    1    2    0    0 -0.15723343630E+02  0.11550330375E+03  0.12023423184E+03  0.23509467714E+03  0.16500000000E+03 0.  0.
<mgrwt>
<rscale>  0 0.40673219E+03</rscale>
<asrwt>0</asrwt>
<pdfrwt beam="1">  1        2 0.61751677E-01 0.40673219E+03</pdfrwt>
<pdfrwt beam="2">  1       -2 0.15851912E-01 0.40673219E+03</pdfrwt>
<totfact> 0.24979717E+03</totfact>
</mgrwt>
</event>
<event>
 4    1  0.3213443E-005  0.4902044E+03  0.7818608E-02  0.1016368E+00
         -2   -1    0    0    0  501 -0.00000000000E+00  0.00000000000E+00  0.90714837922E+03  0.90714837923E+03  0.25500000000E-02 0. -1.
          2   -1    0    0  501    0  0.00000000000E+00 -0.00000000000E+00 -0.66224113096E+02  0.66224113145E+02  0.25500000000E-02 0.  1.
    5000001    1    1    2    0    0 -0.14762609378E+03  0.99761510577E+02  0.35447787747E+03  0.42968056527E+03  0.16500000000E+03 0.  0.
   -5000001    1    1    2    0    0  0.14762609378E+03 -0.99761510577E+02  0.48644638866E+03  0.54369192710E+03  0.16500000000E+03 0.  0.
<mgrwt>
<rscale>  0 0.49020443E+03</rscale>
<asrwt>0</asrwt>
<pdfrwt beam="1">  1        2 0.10188326E-01 0.49020443E+03</pdfrwt>
<pdfrwt beam="2">  1       -2 0.13956128E+00 0.49020443E+03</pdfrwt>
<totfact> 0.23876362E+02</totfact>
</mgrwt>
</event>
<event>
 4    1  0.3213443E-005  0.7166789E+03  0.7818608E-02  0.9689127E-01
          2   -1    0    0  501    0  0.00000000000E+00  0.00000000000E+00  0.10744971744E+03  0.10744971747E+03  0.25500000000E-02 0.  1.
         -2   -1    0    0    0  501 -0.00000000000E+00 -0.00000000000E+00 -0.11950441692E+04  0.11950441692E+04  0.25500000000E-02 0. -1.
    5000001    1    1    2    0    0 -0.25983934166E+03  0.18080021187E+03 -0.60060255530E+03  0.69867991922E+03  0.16500000000E+03 0.  0.
   -5000001    1    1    2    0    0  0.25983934166E+03 -0.18080021187E+03 -0.48699189649E+03  0.60381396749E+03  0.16500000000E+03 0.  0.
<mgrwt>
<rscale>  0 0.71667889E+03</rscale>
<asrwt>0</asrwt>
<pdfrwt beam="1">  1        2 0.16530727E-01 0.71667889E+03</pdfrwt>
<pdfrwt beam="2">  1       -2 0.18385294E+00 0.71667889E+03</pdfrwt>
<totfact> 0.61827538E+01</totfact>
</mgrwt>
</event>
<event>
 4    1  0.3213443E-005  0.4683132E+03  0.7818608E-02  0.1022397E+00
         -2   -1    0    0    0  501 -0.00000000000E+00  0.00000000000E+00  0.19980877349E+03  0.19980877351E+03  0.25500000000E-02 0.  1.
          2   -1    0    0  501    0  0.00000000000E+00 -0.00000000000E+00 -0.27440891999E+03  0.27440892000E+03  0.25500000000E-02 0. -1.
    5000001    1    1    2    0    0 -0.18192361339E+02 -0.16506110459E+03 -0.42675437591E+02  0.23795445621E+03  0.16500000000E+03 0.  0.
   -5000001    1    1    2    0    0  0.18192361339E+02  0.16506110459E+03 -0.31924708905E+02  0.23626323729E+03  0.16500000000E+03 0.  0.
<mgrwt>
<rscale>  0 0.46831318E+03</rscale>
<asrwt>0</asrwt>
<pdfrwt beam="1">  1        2 0.42216757E-01 0.46831318E+03</pdfrwt>
<pdfrwt beam="2">  1       -2 0.30739811E-01 0.46831318E+03</pdfrwt>
<totfact> 0.11863505E+03</totfact>
</mgrwt>
</event>
<event>
 4    1  0.3213443E-005  0.9099654E+03  0.7818608E-02  0.9413209E-01
         -2   -1    0    0    0  501 -0.00000000000E+00  0.00000000000E+00  0.11887993040E+03  0.11887993042E+03  0.25500000000E-02 0. -1.
          2   -1    0    0  501    0  0.00000000000E+00 -0.00000000000E+00 -0.17413307613E+04  0.17413307613E+04  0.25500000000E-02 0.  1.
    5000001    1    1    2    0    0 -0.24017036132E+03 -0.86912538035E+01 -0.97115451663E+02  0.30726820744E+03  0.16500000000E+03 0.  0.
   -5000001    1    1    2    0    0  0.24017036132E+03  0.86912538035E+01 -0.15253353792E+04  0.15529424843E+04  0.16500000000E+03 0.  0.
<mgrwt>
<rscale>  0 0.90996545E+03</rscale>
<asrwt>0</asrwt>
<pdfrwt beam="1">  1        2 0.26789702E+00 0.90996545E+03</pdfrwt>
<pdfrwt beam="2">  1       -2 0.18289221E-01 0.90996545E+03</pdfrwt>
<totfact> 0.23354710E+02</totfact>
</mgrwt>
</event>
<event>
 4    1  0.3213443E-005  0.4595556E+03  0.7818608E-02  0.1024910E+00
         -2   -1    0    0    0  501 -0.00000000000E+00  0.00000000000E+00  0.42252782443E+02  0.42252782519E+02  0.25500000000E-02 0. -1.
          2   -1    0    0  501    0  0.00000000000E+00 -0.00000000000E+00 -0.12495708758E+04  0.12495708759E+04  0.25500000000E-02 0.  1.
    5000001    1    1    2    0    0 -0.13621024543E+03 -0.82990475262E+02 -0.63597932290E+03  0.67611785149E+03  0.16500000000E+03 0.  0.
   -5000001    1    1    2    0    0  0.13621024543E+03  0.82990475262E+02 -0.57133877051E+03  0.61570580688E+03  0.16500000000E+03 0.  0.
<mgrwt>
<rscale>  0 0.45955564E+03</rscale>
<asrwt>0</asrwt>
<pdfrwt beam="1">  1        2 0.19224165E+00 0.45955564E+03</pdfrwt>
<pdfrwt beam="2">  1       -2 0.65004290E-02 0.45955564E+03</pdfrwt>
<totfact> 0.24478474E+03</totfact>
</mgrwt>
</event>
<event>
 4    1  0.3213443E-005  0.5873967E+03  0.7818608E-02  0.9931905E-01
          2   -1    0    0  501    0  0.00000000000E+00  0.00000000000E+00  0.33353131231E+04  0.33353131231E+04  0.25500000000E-02 0.  1.
         -2   -1    0    0    0  501 -0.00000000000E+00 -0.00000000000E+00 -0.25862252259E+02  0.25862252384E+02  0.25500000000E-02 0. -1.
    5000001    1    1    2    0    0  0.37267582345E+02 -0.10123601131E+03  0.29004758323E+04  0.29071674627E+04  0.16500000000E+03 0.  0.
   -5000001    1    1    2    0    0 -0.37267582345E+02  0.10123601131E+03  0.40897503853E+03  0.45400791273E+03  0.16500000000E+03 0.  0.
<mgrwt>
<rscale>  0 0.58739666E+03</rscale>
<asrwt>0</asrwt>
<pdfrwt beam="1">  1        2 0.51312485E+00 0.58739666E+03</pdfrwt>
<pdfrwt beam="2">  1       -2 0.39788100E-02 0.58739666E+03</pdfrwt>
<totfact> 0.33826424E+02</totfact>
</mgrwt>
</event>
<event>
 4    1  0.3213443E-005  0.5704056E+03  0.7818608E-02  0.9968781E-01
          2   -1    0    0  501    0  0.00000000000E+00  0.00000000000E+00  0.20513650239E+04  0.20513650239E+04  0.25500000000E-02 0. -1.
         -2   -1    0    0    0  501 -0.00000000000E+00 -0.00000000000E+00 -0.39651960810E+02  0.39651960892E+02  0.25500000000E-02 0.  1.
    5000001    1    1    2    0    0  0.41990872447E+02  0.22672602137E+03  0.89300314953E+03  0.93693518837E+03  0.16500000000E+03 0.  0.
   -5000001    1    1    2    0    0 -0.41990872447E+02 -0.22672602137E+03  0.11187099135E+04  0.11540817964E+04  0.16500000000E+03 0.  0.
<mgrwt>
<rscale>  0 0.57040563E+03</rscale>
<asrwt>0</asrwt>
<pdfrwt beam="1">  1        2 0.31559474E+00 0.57040563E+03</pdfrwt>
<pdfrwt beam="2">  1       -2 0.61002993E-02 0.57040563E+03</pdfrwt>
<totfact> 0.98060258E+02</totfact>
</mgrwt>
</event>
<event>
 4    1  0.3213443E-005  0.3447847E+03  0.7818608E-02  0.1064776E+00
         -2   -1    0    0    0  501 -0.00000000000E+00  0.00000000000E+00  0.70381025755E+02  0.70381025801E+02  0.25500000000E-02 0. -1.
          2   -1    0    0  501    0  0.00000000000E+00 -0.00000000000E+00 -0.42226045362E+03  0.42226045363E+03  0.25500000000E-02 0.  1.
    5000001    1    1    2    0    0 -0.25182390843E+02  0.43024240530E+02 -0.18019894374E+03  0.24936298323E+03  0.16500000000E+03 0.  0.
   -5000001    1    1    2    0    0  0.25182390843E+02 -0.43024240530E+02 -0.17168048412E+03  0.24327849619E+03  0.16500000000E+03 0.  0.
<mgrwt>
<rscale>  0 0.34478471E+03</rscale>
<asrwt>0</asrwt>
<pdfrwt beam="1">  1        2 0.64963145E-01 0.34478471E+03</pdfrwt>
<pdfrwt beam="2">  1       -2 0.10827850E-01 0.34478471E+03</pdfrwt>
<totfact> 0.44052912E+03</totfact>
</mgrwt>
</event>
<event>
 4    1  0.3213443E-005  0.6726385E+03  0.7818608E-02  0.9765203E-01
          2   -1    0    0  501    0  0.00000000000E+00  0.00000000000E+00  0.16392273427E+04  0.16392273428E+04  0.25500000000E-02 0.  1.
         -2   -1    0    0    0  501 -0.00000000000E+00 -0.00000000000E+00 -0.69002404122E+02  0.69002404169E+02  0.25500000000E-02 0. -1.
    5000001    1    1    2    0    0  0.21299132894E+03  0.19723648395E+03  0.68295596550E+03  0.76021140982E+03  0.16500000000E+03 0.  0.
   -5000001    1    1    2    0    0 -0.21299132894E+03 -0.19723648395E+03  0.88726897313E+03  0.94801833710E+03  0.16500000000E+03 0.  0.
<mgrwt>
<rscale>  0 0.67263847E+03</rscale>
<asrwt>0</asrwt>
<pdfrwt beam="1">  1        2 0.25218884E+00 0.67263847E+03</pdfrwt>
<pdfrwt beam="2">  1       -2 0.10615754E-01 0.67263847E+03</pdfrwt>
<totfact> 0.67295197E+02</totfact>
</mgrwt>
</event>
<event>
 4    1  0.3213443E-005  0.4441917E+03  0.7818608E-02  0.1029468E+00
          2   -1    0    0  501    0  0.00000000000E+00  0.00000000000E+00  0.23778633877E+04  0.23778633877E+04  0.25500000000E-02 0.  1.
         -2   -1    0    0    0  501 -0.00000000000E+00 -0.00000000000E+00 -0.20744066609E+02  0.20744066765E+02  0.25500000000E-02 0. -1.
    5000001    1    1    2    0    0 -0.12703298878E+03 -0.38569194968E+02  0.81726410376E+03  0.84425741237E+03  0.16500000000E+03 0.  0.
   -5000001    1    1    2    0    0  0.12703298878E+03  0.38569194968E+02  0.15398552173E+04  0.15543500421E+04  0.16500000000E+03 0.  0.
<mgrwt>
<rscale>  0 0.44419166E+03</rscale>
<asrwt>0</asrwt>
<pdfrwt beam="1">  1        2 0.36582526E+00 0.44419166E+03</pdfrwt>
<pdfrwt beam="2">  1       -2 0.31913938E-02 0.44419166E+03</pdfrwt>
<totfact> 0.17781694E+03</totfact>
</mgrwt>
</event>
<event>
 4    1  0.3213443E-005  0.4213726E+03  0.7818608E-02  0.1036620E+00
          2   -1    0    0  501    0  0.00000000000E+00  0.00000000000E+00  0.20614230649E+03  0.20614230651E+03  0.25500000000E-02 0.  1.
         -2   -1    0    0    0  501 -0.00000000000E+00 -0.00000000000E+00 -0.21533047952E+03  0.21533047953E+03  0.25500000000E-02 0. -1.
    5000001    1    1    2    0    0  0.30974075644E+02  0.11892443841E+03 -0.50006490044E+02  0.21172639056E+03  0.16500000000E+03 0.  0.
   -5000001    1    1    2    0    0 -0.30974075644E+02 -0.11892443841E+03  0.40818317022E+02  0.20974639548E+03  0.16500000000E+03 0.  0.
<mgrwt>
<rscale>  0 0.42137262E+03</rscale>
<asrwt>0</asrwt>
<pdfrwt beam="1">  1        2 0.31714201E-01 0.42137262E+03</pdfrwt>
<pdfrwt beam="2">  1       -2 0.33127766E-01 0.42137262E+03</pdfrwt>
<totfact> 0.14142602E+03</totfact>
</mgrwt>
</event>
<event>
 4    1  0.3213443E-005  0.1023973E+04  0.7818608E-02  0.9282636E-01
         -2   -1    0    0    0  501 -0.00000000000E+00  0.00000000000E+00  0.10542307622E+03  0.10542307625E+03  0.25500000000E-02 0. -1.
          2   -1    0    0  501    0  0.00000000000E+00 -0.00000000000E+00 -0.24864587879E+04  0.24864587879E+04  0.25500000000E-02 0.  1.
    5000001    1    1    2    0    0  0.34027440220E+03 -0.34449039925E+03 -0.12439034344E+04  0.13449836646E+04  0.16500000000E+03 0.  0.
   -5000001    1    1    2    0    0 -0.34027440220E+03  0.34449039925E+03 -0.11371322773E+04  0.12468981995E+04  0.16500000000E+03 0.  0.
<mgrwt>
<rscale>  0 0.10239729E+04</rscale>
<asrwt>0</asrwt>
<pdfrwt beam="1">  1        2 0.38253208E+00 0.10239729E+04</pdfrwt>
<pdfrwt beam="2">  1       -2 0.16218937E-01 0.10239729E+04</pdfrwt>
<totfact> 0.10986525E+02</totfact>
</mgrwt>
</event>
<event>
 4    1  0.3213443E-005  0.3607246E+03  0.7818608E-02  0.1058297E+00
          2   -1    0    0  501    0  0.00000000000E+00  0.00000000000E+00  0.13649804847E+03  0.13649804849E+03  0.25500000000E-02 0.  1.
         -2   -1    0    0    0  501 -0.00000000000E+00 -0.00000000000E+00 -0.23832247820E+03  0.23832247821E+03  0.25500000000E-02 0. -1.
    5000001    1    1    2    0    0 -0.43731611123E+02  0.53272610563E+02 -0.75394071246E+02  0.19406104923E+03  0.16500000000E+03 0.  0.
   -5000001    1    1    2    0    0  0.43731611123E+02 -0.53272610563E+02 -0.26430358484E+02  0.18075947748E+03  0.16500000000E+03 0.  0.
<mgrwt>
<rscale>  0 0.36072457E+03</rscale>
<asrwt>0</asrwt>
<pdfrwt beam="1">  1        2 0.20999700E-01 0.36072457E+03</pdfrwt>
<pdfrwt beam="2">  1       -2 0.36664997E-01 0.36072457E+03</pdfrwt>
<totfact> 0.18569195E+03</totfact>
</mgrwt>
</event>
<event>
 4    1  0.3213443E-005  0.4512649E+03  0.7818608E-02  0.1027346E+00
         -2   -1    0    0    0  501 -0.00000000000E+00  0.00000000000E+00  0.14371240053E+03  0.14371240056E+03  0.25500000000E-02 0. -1.
          2   -1    0    0  501    0  0.00000000000E+00 -0.00000000000E+00 -0.35424922040E+03  0.35424922040E+03  0.25500000000E-02 0.  1.
    5000001    1    1    2    0    0 -0.12586553106E+03  0.57051834010E+02 -0.30524774475E+02  0.21737940457E+03  0.16500000000E+03 0.  0.
   -5000001    1    1    2    0    0  0.12586553106E+03 -0.57051834010E+02 -0.18001204539E+03  0.28058221640E+03  0.16500000000E+03 0.  0.
<mgrwt>
<rscale>  0 0.45126491E+03</rscale>
<asrwt>0</asrwt>
<pdfrwt beam="1">  1        2 0.54499880E-01 0.45126491E+03</pdfrwt>
<pdfrwt beam="2">  1       -2 0.22109600E-01 0.45126491E+03</pdfrwt>
<totfact> 0.16214148E+03</totfact>
</mgrwt>
</event>
<event>
 4    1  0.3213443E-005  0.1483915E+04  0.7818608E-02  0.8895221E-01
          2   -1    0    0  501    0  0.00000000000E+00  0.00000000000E+00  0.79847289162E+03  0.79847289162E+03  0.25500000000E-02 0.  1.
         -2   -1    0    0    0  501 -0.00000000000E+00 -0.00000000000E+00 -0.68944189278E+03  0.68944189279E+03  0.25500000000E-02 0. -1.
    5000001    1    1    2    0    0  0.25081340925E+03  0.67839529796E+03  0.66718564554E+02  0.74485160496E+03  0.16500000000E+03 0.  0.
   -5000001    1    1    2    0    0 -0.25081340925E+03 -0.67839529796E+03  0.42312434285E+02  0.74306317945E+03  0.16500000000E+03 0.  0.
<mgrwt>
<rscale>  0 0.14839146E+04</rscale>
<asrwt>0</asrwt>
<pdfrwt beam="1">  1        2 0.12284198E+00 0.14839146E+04</pdfrwt>
<pdfrwt beam="2">  1       -2 0.10606798E+00 0.14839146E+04</pdfrwt>
<totfact> 0.23969607E+01</totfact>
</mgrwt>
</event>
<event>
 4    1  0.3213443E-005  0.4815344E+03  0.7818608E-02  0.1018714E+00
          2   -1    0    0  501    0  0.00000000000E+00  0.00000000000E+00  0.60745589302E+03  0.60745589302E+03  0.25500000000E-02 0.  1.
         -2   -1    0    0    0  501 -0.00000000000E+00 -0.00000000000E+00 -0.95428894932E+02  0.95428894966E+02  0.25500000000E-02 0. -1.
    5000001    1    1    2    0    0  0.48124147798E+02  0.99027421353E+02  0.56825149312E+02  0.20634064402E+03  0.16500000000E+03 0.  0.
   -5000001    1    1    2    0    0 -0.48124147798E+02 -0.99027421353E+02  0.45520184877E+03  0.49654414397E+03  0.16500000000E+03 0.  0.
<mgrwt>
<rscale>  0 0.48153440E+03</rscale>
<asrwt>0</asrwt>
<pdfrwt beam="1">  1        2 0.93454756E-01 0.48153440E+03</pdfrwt>
<pdfrwt beam="2">  1       -2 0.14681368E-01 0.48153440E+03</pdfrwt>
<totfact> 0.17725140E+03</totfact>
</mgrwt>
</event>
<event>
 4    1  0.3213443E-005  0.4794697E+03  0.7818608E-02  0.1019281E+00
          2   -1    0    0  501    0  0.00000000000E+00  0.00000000000E+00  0.89246228612E+03  0.89246228612E+03  0.25500000000E-02 0.  1.
         -2   -1    0    0    0  501 -0.00000000000E+00 -0.00000000000E+00 -0.64398002576E+02  0.64398002626E+02  0.25500000000E-02 0. -1.
    5000001    1    1    2    0    0  0.37937474786E+02  0.14075116130E+03  0.60333269414E+03  0.64225032597E+03  0.16500000000E+03 0.  0.
   -5000001    1    1    2    0    0 -0.37937474786E+02 -0.14075116130E+03  0.22473158941E+03  0.31460996278E+03  0.16500000000E+03 0.  0.
<mgrwt>
<rscale>  0 0.47946966E+03</rscale>
<asrwt>0</asrwt>
<pdfrwt beam="1">  1        2 0.13730189E+00 0.47946966E+03</pdfrwt>
<pdfrwt beam="2">  1       -2 0.99073848E-02 0.47946966E+03</pdfrwt>
<totfact> 0.20737502E+03</totfact>
</mgrwt>
</event>
<event>
 4    1  0.3213443E-005  0.4507791E+03  0.7818608E-02  0.1027490E+00
          2   -1    0    0  501    0  0.00000000000E+00  0.00000000000E+00  0.43118241953E+03  0.43118241954E+03  0.25500000000E-02 0.  1.
         -2   -1    0    0    0  501 -0.00000000000E+00 -0.00000000000E+00 -0.11781663169E+03  0.11781663171E+03  0.25500000000E-02 0. -1.
    5000001    1    1    2    0    0 -0.31655117130E+02  0.13080737062E+03  0.66667405928E+02  0.22311915575E+03  0.16500000000E+03 0.  0.
   -5000001    1    1    2    0    0  0.31655117130E+02 -0.13080737062E+03  0.24669838192E+03  0.32587989550E+03  0.16500000000E+03 0.  0.
<mgrwt>
<rscale>  0 0.45077915E+03</rscale>
<asrwt>0</asrwt>
<pdfrwt beam="1">  1        2 0.66335757E-01 0.45077915E+03</pdfrwt>
<pdfrwt beam="2">  1       -2 0.18125636E-01 0.45077915E+03</pdfrwt>
<totfact> 0.18402343E+03</totfact>
</mgrwt>
</event>
<event>
 4    1  0.3213443E-005  0.4440059E+03  0.7818608E-02  0.1029525E+00
          2   -1    0    0  501    0  0.00000000000E+00  0.00000000000E+00  0.38876615514E+03  0.38876615515E+03  0.25500000000E-02 0.  1.
         -2   -1    0    0    0  501 -0.00000000000E+00 -0.00000000000E+00 -0.12677365880E+03  0.12677365883E+03  0.25500000000E-02 0. -1.
    5000001    1    1    2    0    0 -0.11114648891E+03 -0.72116532727E+02  0.53054937619E+02  0.21816086426E+03  0.16500000000E+03 0.  0.
   -5000001    1    1    2    0    0  0.11114648891E+03  0.72116532727E+02  0.20893755872E+03  0.29737894971E+03  0.16500000000E+03 0.  0.
<mgrwt>
<rscale>  0 0.44400589E+03</rscale>
<asrwt>0</asrwt>
<pdfrwt beam="1">  1        2 0.59810176E-01 0.44400589E+03</pdfrwt>
<pdfrwt beam="2">  1       -2 0.19503640E-01 0.44400589E+03</pdfrwt>
<totfact> 0.18201350E+03</totfact>
</mgrwt>
</event>
<event>
 4    1  0.3213443E-005  0.6999978E+03  0.7818608E-02  0.9717236E-01
         -2   -1    0    0    0  501 -0.00000000000E+00  0.00000000000E+00  0.33276812996E+02  0.33276813093E+02  0.25500000000E-02 0. -1.
          2   -1    0    0  501    0  0.00000000000E+00 -0.00000000000E+00 -0.36812184635E+04  0.36812184635E+04  0.25500000000E-02 0.  1.
    5000001    1    1    2    0    0  0.23551510500E+03  0.14576678645E+03 -0.25468725261E+04  0.25671969120E+04  0.16500000000E+03 0.  0.
   -5000001    1    1    2    0    0 -0.23551510500E+03 -0.14576678645E+03 -0.11010691244E+04  0.11472983646E+04  0.16500000000E+03 0.  0.
<mgrwt>
<rscale>  0 0.69999777E+03</rscale>
<asrwt>0</asrwt>
<pdfrwt beam="1">  1        2 0.56634098E+00 0.69999777E+03</pdfrwt>
<pdfrwt beam="2">  1       -2 0.51195126E-02 0.69999777E+03</pdfrwt>
<totfact> 0.13105046E+02</totfact>
</mgrwt>
</event>
<event>
 4    1  0.3213443E-005  0.4621910E+03  0.7818608E-02  0.1024148E+00
          2   -1    0    0  501    0  0.00000000000E+00  0.00000000000E+00  0.18612009071E+03  0.18612009073E+03  0.25500000000E-02 0.  1.
         -2   -1    0    0    0  501 -0.00000000000E+00 -0.00000000000E+00 -0.28693912588E+03  0.28693912590E+03  0.25500000000E-02 0. -1.
    5000001    1    1    2    0    0 -0.18008600986E+02  0.10869081075E+03 -0.17169548520E+03  0.26237824165E+03  0.16500000000E+03 0.  0.
   -5000001    1    1    2    0    0  0.18008600986E+02 -0.10869081075E+03  0.70876450028E+02  0.21068097498E+03  0.16500000000E+03 0.  0.
<mgrwt>
<rscale>  0 0.46219103E+03</rscale>
<asrwt>0</asrwt>
<pdfrwt beam="1">  1        2 0.28633860E-01 0.46219103E+03</pdfrwt>
<pdfrwt beam="2">  1       -2 0.44144481E-01 0.46219103E+03</pdfrwt>
<totfact> 0.91496170E+02</totfact>
</mgrwt>
</event>
<event>
 4    1  0.3213443E-005  0.4022589E+03  0.7818608E-02  0.1043000E+00
          2   -1    0    0  501    0  0.00000000000E+00  0.00000000000E+00  0.76056760161E+03  0.76056760161E+03  0.25500000000E-02 0.  1.
         -2   -1    0    0    0  501 -0.00000000000E+00 -0.00000000000E+00 -0.53187986116E+02  0.53187986177E+02  0.25500000000E-02 0. -1.
    5000001    1    1    2    0    0  0.54244918712E+02  0.78586484728E+02  0.22400353384E+03  0.29414440324E+03  0.16500000000E+03 0.  0.
   -5000001    1    1    2    0    0 -0.54244918712E+02 -0.78586484728E+02  0.48337608165E+03  0.51961118454E+03  0.16500000000E+03 0.  0.
<mgrwt>
<rscale>  0 0.40225892E+03</rscale>
<asrwt>0</asrwt>
<pdfrwt beam="1">  1        2 0.11701039E+00 0.40225892E+03</pdfrwt>
<pdfrwt beam="2">  1       -2 0.81827675E-02 0.40225892E+03</pdfrwt>
<totfact> 0.34702850E+03</totfact>
</mgrwt>
</event>
<event>
 4    1  0.3213443E-005  0.4869012E+03  0.7818608E-02  0.1017256E+00
          2   -1    0    0  501    0  0.00000000000E+00  0.00000000000E+00  0.90939816220E+03  0.90939816221E+03  0.25500000000E-02 0.  1.
         -2   -1    0    0    0  501 -0.00000000000E+00 -0.00000000000E+00 -0.65172979055E+02  0.65172979105E+02  0.25500000000E-02 0. -1.
    5000001    1    1    2    0    0  0.12273145877E+02  0.17854814447E+03  0.41486328264E+03  0.48100583498E+03  0.16500000000E+03 0.  0.
   -5000001    1    1    2    0    0 -0.12273145877E+02 -0.17854814447E+03  0.42936190051E+03  0.49356530633E+03  0.16500000000E+03 0.  0.
<mgrwt>
<rscale>  0 0.48690117E+03</rscale>
<asrwt>0</asrwt>
<pdfrwt beam="1">  1        2 0.13990741E+00 0.48690117E+03</pdfrwt>
<pdfrwt beam="2">  1       -2 0.10026612E-01 0.48690117E+03</pdfrwt>
<totfact> 0.19822592E+03</totfact>
</mgrwt>
</event>
<event>
 4    1  0.3213443E-005  0.5035977E+03  0.7818608E-02  0.1012844E+00
          2   -1    0    0  501    0  0.00000000000E+00  0.00000000000E+00  0.14689033985E+04  0.14689033985E+04  0.25500000000E-02 0.  1.
         -2   -1    0    0    0  501 -0.00000000000E+00 -0.00000000000E+00 -0.43163267847E+02  0.43163267923E+02  0.25500000000E-02 0. -1.
    5000001    1    1    2    0    0 -0.36371413419E+02  0.15022911475E+03  0.38006303040E+03  0.44222683513E+03  0.16500000000E+03 0.  0.
   -5000001    1    1    2    0    0  0.36371413419E+02 -0.15022911475E+03  0.10456771002E+04  0.10698398313E+04  0.16500000000E+03 0.  0.
<mgrwt>
<rscale>  0 0.50359774E+03</rscale>
<asrwt>0</asrwt>
<pdfrwt beam="1">  1        2 0.22598512E+00 0.50359774E+03</pdfrwt>
<pdfrwt beam="2">  1       -2 0.66405032E-02 0.50359774E+03</pdfrwt>
<totfact> 0.17816410E+03</totfact>
</mgrwt>
</event>
<event>
 4    1  0.3213443E-005  0.7703902E+03  0.7818608E-02  0.9603893E-01
         -2   -1    0    0    0  501 -0.00000000000E+00  0.00000000000E+00  0.92144070046E+02  0.92144070081E+02  0.25500000000E-02 0. -1.
          2   -1    0    0  501    0  0.00000000000E+00 -0.00000000000E+00 -0.16102530280E+04  0.16102530280E+04  0.25500000000E-02 0.  1.
    5000001    1    1    2    0    0 -0.32154228093E+03  0.71917616066E+02 -0.51111806496E+03  0.63010178405E+03  0.16500000000E+03 0.  0.
   -5000001    1    1    2    0    0  0.32154228093E+03 -0.71917616066E+02 -0.10069908930E+04  0.10722953140E+04  0.16500000000E+03 0.  0.
<mgrwt>
<rscale>  0 0.77039021E+03</rscale>
<asrwt>0</asrwt>
<pdfrwt beam="1">  1        2 0.24773121E+00 0.77039021E+03</pdfrwt>
<pdfrwt beam="2">  1       -2 0.14176012E-01 0.77039021E+03</pdfrwt>
<totfact> 0.42984279E+02</totfact>
</mgrwt>
</event>
<event>
 4    1  0.3213443E-005  0.3570506E+03  0.7818608E-02  0.1059758E+00
          2   -1    0    0  501    0  0.00000000000E+00  0.00000000000E+00  0.19966510865E+03  0.19966510867E+03  0.25500000000E-02 0.  1.
         -2   -1    0    0    0  501 -0.00000000000E+00 -0.00000000000E+00 -0.15962367888E+03  0.15962367890E+03  0.25500000000E-02 0. -1.
    5000001    1    1    2    0    0  0.66185146040E+02 -0.19599923301E+01  0.37339516485E+01  0.17782929320E+03  0.16500000000E+03 0.  0.
   -5000001    1    1    2    0    0 -0.66185146040E+02  0.19599923301E+01  0.36307478123E+02  0.18145949436E+03  0.16500000000E+03 0.  0.
<mgrwt>
<rscale>  0 0.35705058E+03</rscale>
<asrwt>0</asrwt>
<pdfrwt beam="1">  1        2 0.30717709E-01 0.35705058E+03</pdfrwt>
<pdfrwt beam="2">  1       -2 0.24557489E-01 0.35705058E+03</pdfrwt>
<totfact> 0.25182528E+03</totfact>
</mgrwt>
</event>
<event>
 4    1  0.3213443E-005  0.7259292E+03  0.7818608E-02  0.9673889E-01
          2   -1    0    0  501    0  0.00000000000E+00  0.00000000000E+00  0.44857137357E+03  0.44857137358E+03  0.25500000000E-02 0.  1.
         -2   -1    0    0    0  501 -0.00000000000E+00 -0.00000000000E+00 -0.29369531416E+03  0.29369531417E+03  0.25500000000E-02 0. -1.
    5000001    1    1    2    0    0 -0.19641354518E+03  0.21000782336E+03 -0.73660287872E+02  0.33960624937E+03  0.16500000000E+03 0.  0.
   -5000001    1    1    2    0    0  0.19641354518E+03 -0.21000782336E+03  0.22853634728E+03  0.40266043838E+03  0.16500000000E+03 0.  0.
<mgrwt>
<rscale>  0 0.72592923E+03</rscale>
<asrwt>0</asrwt>
<pdfrwt beam="1">  1        2 0.69010980E-01 0.72592923E+03</pdfrwt>
<pdfrwt beam="2">  1       -2 0.45183895E-01 0.72592923E+03</pdfrwt>
<totfact> 0.32694828E+02</totfact>
</mgrwt>
</event>
<event>
 4    1  0.3213443E-005  0.4277631E+03  0.7818608E-02  0.1034569E+00
          2   -1    0    0  501    0  0.00000000000E+00  0.00000000000E+00  0.43076196705E+03  0.43076196705E+03  0.25500000000E-02 0.  1.
         -2   -1    0    0    0  501 -0.00000000000E+00 -0.00000000000E+00 -0.10619627789E+03  0.10619627792E+03  0.25500000000E-02 0. -1.
    5000001    1    1    2    0    0 -0.64109822817E+02 -0.11789125376E+02  0.12325263237E+02  0.17783690554E+03  0.16500000000E+03 0.  0.
   -5000001    1    1    2    0    0  0.64109822817E+02  0.11789125376E+02  0.31224042592E+03  0.35912133943E+03  0.16500000000E+03 0.  0.
<mgrwt>
<rscale>  0 0.42776310E+03</rscale>
<asrwt>0</asrwt>
<pdfrwt beam="1">  1        2 0.66271072E-01 0.42776310E+03</pdfrwt>
<pdfrwt beam="2">  1       -2 0.16337889E-01 0.42776310E+03</pdfrwt>
<totfact> 0.21965231E+03</totfact>
</mgrwt>
</event>
<event>
 4    1  0.3213443E-005  0.3614976E+03  0.7818608E-02  0.1057992E+00
         -2   -1    0    0    0  501 -0.00000000000E+00  0.00000000000E+00  0.28263891909E+02  0.28263892024E+02  0.25500000000E-02 0. -1.
          2   -1    0    0  501    0  0.00000000000E+00 -0.00000000000E+00 -0.11558960448E+04  0.11558960448E+04  0.25500000000E-02 0.  1.
    5000001    1    1    2    0    0  0.55520797944E+02 -0.30392948767E+02 -0.68806991942E+03  0.71040235384E+03  0.16500000000E+03 0.  0.
   -5000001    1    1    2    0    0 -0.55520797944E+02  0.30392948767E+02 -0.43956223349E+03  0.47375758300E+03  0.16500000000E+03 0.  0.
<mgrwt>
<rscale>  0 0.36149756E+03</rscale>
<asrwt>0</asrwt>
<pdfrwt beam="1">  1        2 0.17783012E+00 0.36149756E+03</pdfrwt>
<pdfrwt beam="2">  1       -2 0.43482920E-02 0.36149756E+03</pdfrwt>
<totfact> 0.51517709E+03</totfact>
</mgrwt>
</event>
<event>
 4    1  0.3213443E-005  0.4359578E+03  0.7818608E-02  0.1031994E+00
         -2   -1    0    0    0  501 -0.00000000000E+00  0.00000000000E+00  0.15110370199E+02  0.15110370414E+02  0.25500000000E-02 0. -1.
          2   -1    0    0  501    0  0.00000000000E+00 -0.00000000000E+00 -0.31445160018E+04  0.31445160018E+04  0.25500000000E-02 0.  1.
    5000001    1    1    2    0    0  0.40603050414E+02  0.11782532488E+03 -0.10647590859E+04  0.10846512462E+04  0.16500000000E+03 0.  0.
   -5000001    1    1    2    0    0 -0.40603050414E+02 -0.11782532488E+03 -0.20646465457E+04  0.20749751260E+04  0.16500000000E+03 0.  0.
<mgrwt>
<rscale>  0 0.43595780E+03</rscale>
<asrwt>0</asrwt>
<pdfrwt beam="1">  1        2 0.48377117E+00 0.43595780E+03</pdfrwt>
<pdfrwt beam="2">  1       -2 0.23246749E-02 0.43595780E+03</pdfrwt>
<totfact> 0.10294768E+03</totfact>
</mgrwt>
</event>
<event>
 4    1  0.3213443E-005  0.4519546E+03  0.7818608E-02  0.1027141E+00
         -2   -1    0    0    0  501 -0.00000000000E+00  0.00000000000E+00  0.33194858583E+02  0.33194858681E+02  0.25500000000E-02 0. -1.
          2   -1    0    0  501    0  0.00000000000E+00 -0.00000000000E+00 -0.15383627601E+04  0.15383627601E+04  0.25500000000E-02 0.  1.
    5000001    1    1    2    0    0 -0.12181756734E+03  0.88477762028E+02 -0.87167141940E+03  0.89983548357E+03  0.16500000000E+03 0.  0.
   -5000001    1    1    2    0    0  0.12181756734E+03 -0.88477762028E+02 -0.63349648212E+03  0.67172213522E+03  0.16500000000E+03 0.  0.
<mgrwt>
<rscale>  0 0.45195457E+03</rscale>
<asrwt>0</asrwt>
<pdfrwt beam="1">  1        2 0.23667114E+00 0.45195457E+03</pdfrwt>
<pdfrwt beam="2">  1       -2 0.51069025E-02 0.45195457E+03</pdfrwt>
<totfact> 0.24595236E+03</totfact>
</mgrwt>
</event>
<event>
 4    1  0.3213443E-005  0.5881946E+03  0.7818608E-02  0.9930206E-01
          2   -1    0    0  501    0  0.00000000000E+00  0.00000000000E+00  0.17988493419E+04  0.17988493419E+04  0.25500000000E-02 0.  1.
         -2   -1    0    0    0  501 -0.00000000000E+00 -0.00000000000E+00 -0.48082534461E+02  0.48082534528E+02  0.25500000000E-02 0. -1.
    5000001    1    1    2    0    0 -0.19905059917E+03 -0.10880689503E+03  0.11528457136E+04  0.11864814878E+04  0.16500000000E+03 0.  0.
   -5000001    1    1    2    0    0  0.19905059917E+03  0.10880689503E+03  0.59792109383E+03  0.66045038866E+03  0.16500000000E+03 0.  0.
<mgrwt>
<rscale>  0 0.58819465E+03</rscale>
<asrwt>0</asrwt>
<pdfrwt beam="1">  1        2 0.27674604E+00 0.58819465E+03</pdfrwt>
<pdfrwt beam="2">  1       -2 0.73973132E-02 0.58819465E+03</pdfrwt>
<totfact> 0.98992430E+02</totfact>
</mgrwt>
</event>
<event>
 4    1  0.3213443E-005  0.4244137E+03  0.7818608E-02  0.1035639E+00
          2   -1    0    0  501    0  0.00000000000E+00  0.00000000000E+00  0.50483972486E+03  0.50483972487E+03  0.25500000000E-02 0.  1.
         -2   -1    0    0    0  501 -0.00000000000E+00 -0.00000000000E+00 -0.89200067448E+02  0.89200067484E+02  0.25500000000E-02 0. -1.
    5000001    1    1    2    0    0 -0.89815804834E+02 -0.62561067307E+02  0.10098561187E+03  0.22226979045E+03  0.16500000000E+03 0.  0.
   -5000001    1    1    2    0    0  0.89815804834E+02  0.62561067307E+02  0.31465404554E+03  0.37177000191E+03  0.16500000000E+03 0.  0.
<mgrwt>
<rscale>  0 0.42441365E+03</rscale>
<asrwt>0</asrwt>
<pdfrwt beam="1">  1        2 0.77667650E-01 0.42441365E+03</pdfrwt>
<pdfrwt beam="2">  1       -2 0.13723087E-01 0.42441365E+03</pdfrwt>
<totfact> 0.24582109E+03</totfact>
</mgrwt>
</event>
<event>
 4    1  0.3213443E-005  0.4160082E+03  0.7818608E-02  0.1038373E+00
         -2   -1    0    0    0  501 -0.00000000000E+00  0.00000000000E+00  0.17750915205E+03  0.17750915207E+03  0.25500000000E-02 0. -1.
          2   -1    0    0  501    0  0.00000000000E+00 -0.00000000000E+00 -0.24373788009E+03  0.24373788010E+03  0.25500000000E-02 0.  1.
    5000001    1    1    2    0    0  0.55020324498E+02 -0.11289937951E+03 -0.49666418746E+02  0.21322584073E+03  0.16500000000E+03 0.  0.
   -5000001    1    1    2    0    0 -0.55020324498E+02  0.11289937951E+03 -0.16562309292E+02  0.20802119145E+03  0.16500000000E+03 0.  0.
<mgrwt>
<rscale>  0 0.41600819E+03</rscale>
<asrwt>0</asrwt>
<pdfrwt beam="1">  1        2 0.37498135E-01 0.41600819E+03</pdfrwt>
<pdfrwt beam="2">  1       -2 0.27309100E-01 0.41600819E+03</pdfrwt>
<totfact> 0.16756929E+03</totfact>
</mgrwt>
</event>
<event>
 4    1  0.3213443E-005  0.5540151E+03  0.7818608E-02  0.1000569E+00
         -2   -1    0    0    0  501 -0.00000000000E+00  0.00000000000E+00  0.15347041469E+03  0.15347041472E+03  0.25500000000E-02 0. -1.
          2   -1    0    0  501    0  0.00000000000E+00 -0.00000000000E+00 -0.49998678649E+03  0.49998678649E+03  0.25500000000E-02 0.  1.
    5000001    1    1    2    0    0  0.15675102213E+03  0.15568653496E+03 -0.14207403331E+03  0.31019221629E+03  0.16500000000E+03 0.  0.
   -5000001    1    1    2    0    0 -0.15675102213E+03 -0.15568653496E+03 -0.20444233848E+03  0.34326498492E+03  0.16500000000E+03 0.  0.
<mgrwt>
<rscale>  0 0.55401509E+03</rscale>
<asrwt>0</asrwt>
<pdfrwt beam="1">  1        2 0.76921043E-01 0.55401509E+03</pdfrwt>
<pdfrwt beam="2">  1       -2 0.23610833E-01 0.55401509E+03</pdfrwt>
<totfact> 0.98157687E+02</totfact>
</mgrwt>
</event>
<event>
 4    1  0.3213443E-005  0.5733929E+03  0.7818608E-02  0.9962198E-01
         -2   -1    0    0    0  501 -0.00000000000E+00  0.00000000000E+00  0.13206603543E+03  0.13206603545E+03  0.25500000000E-02 0. -1.
          2   -1    0    0  501    0  0.00000000000E+00 -0.00000000000E+00 -0.62237704055E+03  0.62237704055E+03  0.25500000000E-02 0.  1.
    5000001    1    1    2    0    0  0.21147945134E+03 -0.42292136963E+02 -0.12415145841E+03  0.29858125831E+03  0.16500000000E+03 0.  0.
   -5000001    1    1    2    0    0 -0.21147945134E+03  0.42292136963E+02 -0.36615954671E+03  0.45586181770E+03  0.16500000000E+03 0.  0.
<mgrwt>
<rscale>  0 0.57339295E+03</rscale>
<asrwt>0</asrwt>
<pdfrwt beam="1">  1        2 0.95750312E-01 0.57339295E+03</pdfrwt>
<pdfrwt beam="2">  1       -2 0.20317852E-01 0.57339295E+03</pdfrwt>
<totfact> 0.98821934E+02</totfact>
</mgrwt>
</event>
<event>
 4    1  0.3213443E-005  0.3869889E+03  0.7818608E-02  0.1048380E+00
          2   -1    0    0  501    0  0.00000000000E+00  0.00000000000E+00  0.48841770750E+03  0.48841770750E+03  0.25500000000E-02 0.  1.
         -2   -1    0    0    0  501 -0.00000000000E+00 -0.00000000000E+00 -0.76655886798E+02  0.76655886841E+02  0.25500000000E-02 0. -1.
    5000001    1    1    2    0    0  0.10142495838E+02 -0.53275310880E+02  0.81345710789E+02  0.19178960773E+03  0.16500000000E+03 0.  0.
   -5000001    1    1    2    0    0 -0.10142495838E+02  0.53275310880E+02  0.33041610991E+03  0.37328398661E+03  0.16500000000E+03 0.  0.
<mgrwt>
<rscale>  0 0.38698885E+03</rscale>
<asrwt>0</asrwt>
<pdfrwt beam="1">  1        2 0.75141185E-01 0.38698885E+03</pdfrwt>
<pdfrwt beam="2">  1       -2 0.11793213E-01 0.38698885E+03</pdfrwt>
<totfact> 0.32688625E+03</totfact>
</mgrwt>
</event>
<event>
 4    1  0.3213443E-005  0.3642442E+03  0.7818608E-02  0.1056916E+00
         -2   -1    0    0    0  501 -0.00000000000E+00  0.00000000000E+00  0.21281360949E+02  0.21281361102E+02  0.25500000000E-02 0. -1.
          2   -1    0    0  501    0  0.00000000000E+00 -0.00000000000E+00 -0.15585685539E+04  0.15585685539E+04  0.25500000000E-02 0.  1.
    5000001    1    1    2    0    0 -0.27958014299E+02 -0.68192376254E+02 -0.86674888368E+03  0.88538719107E+03  0.16500000000E+03 0.  0.
   -5000001    1    1    2    0    0  0.27958014299E+02  0.68192376254E+02 -0.67053830931E+03  0.69446272398E+03  0.16500000000E+03 0.  0.
<mgrwt>
<rscale>  0 0.36424420E+03</rscale>
<asrwt>0</asrwt>
<pdfrwt beam="1">  1        2 0.23977969E+00 0.36424420E+03</pdfrwt>
<pdfrwt beam="2">  1       -2 0.32740568E-02 0.36424420E+03</pdfrwt>
<totfact> 0.47262728E+03</totfact>
</mgrwt>
</event>
<event>
 4    1  0.3213443E-005  0.4242489E+03  0.7818608E-02  0.1035692E+00
          2   -1    0    0  501    0  0.00000000000E+00  0.00000000000E+00  0.81317220043E+03  0.81317220043E+03  0.25500000000E-02 0.  1.
         -2   -1    0    0    0  501 -0.00000000000E+00 -0.00000000000E+00 -0.55334874556E+02  0.55334874615E+02  0.25500000000E-02 0. -1.
    5000001    1    1    2    0    0 -0.99639469893E+02  0.81002767566E+00  0.56021814340E+03  0.59245088260E+03  0.16500000000E+03 0.  0.
   -5000001    1    1    2    0    0  0.99639469893E+02 -0.81002767566E+00  0.19761918248E+03  0.27605619245E+03  0.16500000000E+03 0.  0.
<mgrwt>
<rscale>  0 0.42424890E+03</rscale>
<asrwt>0</asrwt>
<pdfrwt beam="1">  1        2 0.12510341E+00 0.42424890E+03</pdfrwt>
<pdfrwt beam="2">  1       -2 0.85130579E-02 0.42424890E+03</pdfrwt>
<totfact> 0.29919069E+03</totfact>
</mgrwt>
</event>
<event>
 4    1  0.3213443E-005  0.4557816E+03  0.7818608E-02  0.1026012E+00
         -2   -1    0    0    0  501 -0.00000000000E+00  0.00000000000E+00  0.43356331081E+02  0.43356331156E+02  0.25500000000E-02 0. -1.
          2   -1    0    0  501    0  0.00000000000E+00 -0.00000000000E+00 -0.11978461879E+04  0.11978461879E+04  0.25500000000E-02 0.  1.
    5000001    1    1    2    0    0 -0.66771910709E+02  0.13577217571E+03 -0.46117471015E+03  0.51263991752E+03  0.16500000000E+03 0.  0.
   -5000001    1    1    2    0    0  0.66771910709E+02 -0.13577217571E+03 -0.69331514671E+03  0.72856260158E+03  0.16500000000E+03 0.  0.
<mgrwt>
<rscale>  0 0.45578160E+03</rscale>
<asrwt>0</asrwt>
<pdfrwt beam="1">  1        2 0.18428400E+00 0.45578160E+03</pdfrwt>
<pdfrwt beam="2">  1       -2 0.66702057E-02 0.45578160E+03</pdfrwt>
<totfact> 0.25184286E+03</totfact>
</mgrwt>
</event>
<event>
 4    1  0.3213443E-005  0.6140713E+03  0.7818608E-02  0.9876635E-01
          2   -1    0    0  501    0  0.00000000000E+00  0.00000000000E+00  0.11708138853E+04  0.11708138853E+04  0.25500000000E-02 0.  1.
         -2   -1    0    0    0  501 -0.00000000000E+00 -0.00000000000E+00 -0.80517412681E+02  0.80517412721E+02  0.25500000000E-02 0. -1.
    5000001    1    1    2    0    0  0.22844153180E+03 -0.12154665171E+03  0.52616499698E+03  0.60912537793E+03  0.16500000000E+03 0.  0.
   -5000001    1    1    2    0    0 -0.22844153180E+03  0.12154665171E+03  0.56413147564E+03  0.64220592009E+03  0.16500000000E+03 0.  0.
<mgrwt>
<rscale>  0 0.61407135E+03</rscale>
<asrwt>0</asrwt>
<pdfrwt beam="1">  1        2 0.18012521E+00 0.61407135E+03</pdfrwt>
<pdfrwt beam="2">  1       -2 0.12387295E-01 0.61407135E+03</pdfrwt>
<totfact> 0.96269600E+02</totfact>
</mgrwt>
</event>
<event>
 4    1  0.3213443E-005  0.3760590E+03  0.7818608E-02  0.1052400E+00
          2   -1    0    0  501    0  0.00000000000E+00  0.00000000000E+00  0.22300334020E+04  0.22300334020E+04  0.25500000000E-02 0.  1.
         -2   -1    0    0    0  501 -0.00000000000E+00 -0.00000000000E+00 -0.15854063485E+02  0.15854063690E+02  0.25500000000E-02 0. -1.
    5000001    1    1    2    0    0  0.69747624004E+02 -0.55246603415E+02  0.10198933338E+04  0.10369784620E+04  0.16500000000E+03 0.  0.
   -5000001    1    1    2    0    0 -0.69747624004E+02  0.55246603415E+02  0.11942860047E+04  0.12089090038E+04  0.16500000000E+03 0.  0.
<mgrwt>
<rscale>  0 0.37605899E+03</rscale>
<asrwt>0</asrwt>
<pdfrwt beam="1">  1        2 0.34308212E+00 0.37605899E+03</pdfrwt>
<pdfrwt beam="2">  1       -2 0.24390863E-02 0.37605899E+03</pdfrwt>
<totfact> 0.32189136E+03</totfact>
</mgrwt>
</event>
<event>
 4    1  0.3213443E-005  0.5432376E+03  0.7818608E-02  0.1003071E+00
          2   -1    0    0  501    0  0.00000000000E+00  0.00000000000E+00  0.10455679776E+04  0.10455679776E+04  0.25500000000E-02 0.  1.
         -2   -1    0    0    0  501 -0.00000000000E+00 -0.00000000000E+00 -0.70561424007E+02  0.70561424053E+02  0.25500000000E-02 0. -1.
    5000001    1    1    2    0    0 -0.27266013670E+02  0.19226207116E+03  0.29428868154E+03  0.38928006319E+03  0.16500000000E+03 0.  0.
   -5000001    1    1    2    0    0  0.27266013670E+02 -0.19226207116E+03  0.68071787209E+03  0.72684933851E+03  0.16500000000E+03 0.  0.
<mgrwt>
<rscale>  0 0.54323757E+03</rscale>
<asrwt>0</asrwt>
<pdfrwt beam="1">  1        2 0.16085660E+00 0.54323757E+03</pdfrwt>
<pdfrwt beam="2">  1       -2 0.10855604E-01 0.54323757E+03</pdfrwt>
<totfact> 0.14260915E+03</totfact>
</mgrwt>
</event>
<event>
 4    1  0.3213443E-005  0.3758195E+03  0.7818608E-02  0.1052490E+00
          2   -1    0    0  501    0  0.00000000000E+00  0.00000000000E+00  0.18495447933E+03  0.18495447935E+03  0.25500000000E-02 0.  1.
         -2   -1    0    0    0  501 -0.00000000000E+00 -0.00000000000E+00 -0.19091219793E+03  0.19091219794E+03  0.25500000000E-02 0. -1.
    5000001    1    1    2    0    0 -0.88154741114E+02 -0.15447758687E+02 -0.11650274059E+02  0.18807078592E+03  0.16500000000E+03 0.  0.
   -5000001    1    1    2    0    0  0.88154741114E+02  0.15447758687E+02  0.56925554612E+01  0.18779589137E+03  0.16500000000E+03 0.  0.
<mgrwt>
<rscale>  0 0.37581946E+03</rscale>
<asrwt>0</asrwt>
<pdfrwt beam="1">  1        2 0.28454535E-01 0.37581946E+03</pdfrwt>
<pdfrwt beam="2">  1       -2 0.29371107E-01 0.37581946E+03</pdfrwt>
<totfact> 0.19892052E+03</totfact>
</mgrwt>
</event>
<event>
 4    1  0.3213443E-005  0.5787151E+03  0.7818608E-02  0.9950577E-01
         -2   -1    0    0    0  501 -0.00000000000E+00  0.00000000000E+00  0.99205245385E+02  0.99205245418E+02  0.25500000000E-02 0. -1.
          2   -1    0    0  501    0  0.00000000000E+00 -0.00000000000E+00 -0.84398548034E+03  0.84398548035E+03  0.25500000000E-02 0.  1.
    5000001    1    1    2    0    0 -0.23724930010E+03  0.70873563996E+01 -0.35143428686E+03  0.45504782056E+03  0.16500000000E+03 0.  0.
   -5000001    1    1    2    0    0  0.23724930010E+03 -0.70873563996E+01 -0.39334594810E+03  0.48814290521E+03  0.16500000000E+03 0.  0.
<mgrwt>
<rscale>  0 0.57871508E+03</rscale>
<asrwt>0</asrwt>
<pdfrwt beam="1">  1        2 0.12984392E+00 0.57871508E+03</pdfrwt>
<pdfrwt beam="2">  1       -2 0.15262346E-01 0.57871508E+03</pdfrwt>
<totfact> 0.10963603E+03</totfact>
</mgrwt>
</event>
<event>
 4    1  0.3213443E-005  0.1172888E+04  0.7818608E-02  0.9136925E-01
         -2   -1    0    0    0  501 -0.00000000000E+00  0.00000000000E+00  0.32197080875E+03  0.32197080876E+03  0.25500000000E-02 0. -1.
          2   -1    0    0  501    0  0.00000000000E+00 -0.00000000000E+00 -0.10681600064E+04  0.10681600064E+04  0.25500000000E-02 0.  1.
    5000001    1    1    2    0    0 -0.53641522365E+03 -0.15064729598E+03 -0.27935388818E+03  0.64474762100E+03  0.16500000000E+03 0.  0.
   -5000001    1    1    2    0    0  0.53641522365E+03  0.15064729598E+03 -0.46683530943E+03  0.74538319412E+03  0.16500000000E+03 0.  0.
<mgrwt>
<rscale>  0 0.11728876E+04</rscale>
<asrwt>0</asrwt>
<pdfrwt beam="1">  1        2 0.16433231E+00 0.11728876E+04</pdfrwt>
<pdfrwt beam="2">  1       -2 0.49533971E-01 0.11728876E+04</pdfrwt>
<totfact> 0.86916952E+01</totfact>
</mgrwt>
</event>
<event>
 4    1  0.3213443E-005  0.5753131E+03  0.7818608E-02  0.9957990E-01
          2   -1    0    0  501    0  0.00000000000E+00  0.00000000000E+00  0.41350325845E+04  0.41350325845E+04  0.25500000000E-02 0.  1.
         -2   -1    0    0    0  501 -0.00000000000E+00 -0.00000000000E+00 -0.20011035611E+02  0.20011035773E+02  0.25500000000E-02 0. -1.
    5000001    1    1    2    0    0  0.53105961122E+02  0.21117537844E+03  0.14072692968E+04  0.14335435666E+04  0.16500000000E+03 0.  0.
   -5000001    1    1    2    0    0 -0.53105961122E+02 -0.21117537844E+03  0.27077522521E+04  0.27215000537E+04  0.16500000000E+03 0.  0.
<mgrwt>
<rscale>  0 0.57531308E+03</rscale>
<asrwt>0</asrwt>
<pdfrwt beam="1">  1        2 0.63615835E+00 0.57531308E+03</pdfrwt>
<pdfrwt beam="2">  1       -2 0.30786234E-02 0.57531308E+03</pdfrwt>
<totfact> 0.13160063E+02</totfact>
</mgrwt>
</event>
<event>
 4    1  0.3213443E-005  0.4278414E+03  0.7818608E-02  0.1034544E+00
         -2   -1    0    0    0  501 -0.00000000000E+00  0.00000000000E+00  0.39588248719E+02  0.39588248801E+02  0.25500000000E-02 0.  1.
          2   -1    0    0  501    0  0.00000000000E+00 -0.00000000000E+00 -0.11559504932E+04  0.11559504932E+04  0.25500000000E-02 0. -1.
    5000001    1    1    2    0    0 -0.10311480750E+03  0.74314292353E+02 -0.42180713278E+03  0.47042697078E+03  0.16500000000E+03 0.  0.
   -5000001    1    1    2    0    0  0.10311480750E+03 -0.74314292353E+02 -0.69455511167E+03  0.72511177119E+03  0.16500000000E+03 0.  0.
<mgrwt>
<rscale>  0 0.42784135E+03</rscale>
<asrwt>0</asrwt>
<pdfrwt beam="1">  1        2 0.17783851E+00 0.42784135E+03</pdfrwt>
<pdfrwt beam="2">  1       -2 0.60905007E-02 0.42784135E+03</pdfrwt>
<totfact> 0.30709862E+03</totfact>
</mgrwt>
</event>
<event>
 4    1  0.3213443E-005  0.4279517E+03  0.7818608E-02  0.1034509E+00
          2   -1    0    0  501    0  0.00000000000E+00  0.00000000000E+00  0.88118502401E+03  0.88118502402E+03  0.25500000000E-02 0.  1.
         -2   -1    0    0    0  501 -0.00000000000E+00 -0.00000000000E+00 -0.51959190441E+02  0.51959190504E+02  0.25500000000E-02 0. -1.
    5000001    1    1    2    0    0 -0.13089016630E+03  0.34918994571E+02  0.44614257792E+03  0.49459050906E+03  0.16500000000E+03 0.  0.
   -5000001    1    1    2    0    0  0.13089016630E+03 -0.34918994571E+02  0.38308325565E+03  0.43855370546E+03  0.16500000000E+03 0.  0.
<mgrwt>
<rscale>  0 0.42795168E+03</rscale>
<asrwt>0</asrwt>
<pdfrwt beam="1">  1        2 0.13556690E+00 0.42795168E+03</pdfrwt>
<pdfrwt beam="2">  1       -2 0.79937230E-02 0.42795168E+03</pdfrwt>
<totfact> 0.29713721E+03</totfact>
</mgrwt>
</event>
<event>
 4    1  0.3213443E-005  0.4391745E+03  0.7818608E-02  0.1031000E+00
         -2   -1    0    0    0  501 -0.00000000000E+00  0.00000000000E+00  0.26451173570E+02  0.26451173693E+02  0.25500000000E-02 0. -1.
          2   -1    0    0  501    0  0.00000000000E+00 -0.00000000000E+00 -0.18229273406E+04  0.18229273406E+04  0.25500000000E-02 0.  1.
    5000001    1    1    2    0    0  0.36168720514E+02 -0.13955297302E+03 -0.95931388752E+03  0.98401795888E+03  0.16500000000E+03 0.  0.
   -5000001    1    1    2    0    0 -0.36168720514E+02  0.13955297302E+03 -0.83716227952E+03  0.86536055542E+03  0.16500000000E+03 0.  0.
<mgrwt>
<rscale>  0 0.43917453E+03</rscale>
<asrwt>0</asrwt>
<pdfrwt beam="1">  1        2 0.28045026E+00 0.43917453E+03</pdfrwt>
<pdfrwt beam="2">  1       -2 0.40694128E-02 0.43917453E+03</pdfrwt>
<totfact> 0.24500217E+03</totfact>
</mgrwt>
</event>
<event>
 4    1  0.3213443E-005  0.5801219E+03  0.7818608E-02  0.9947527E-01
         -2   -1    0    0    0  501 -0.00000000000E+00  0.00000000000E+00  0.74919346674E+02  0.74919346718E+02  0.25500000000E-02 0. -1.
          2   -1    0    0  501    0  0.00000000000E+00 -0.00000000000E+00 -0.11230122304E+04  0.11230122304E+04  0.25500000000E-02 0.  1.
    5000001    1    1    2    0    0 -0.10337387980E+03 -0.17841229309E+03 -0.27630878481E+03  0.38221544960E+03  0.16500000000E+03 0.  0.
   -5000001    1    1    2    0    0  0.10337387980E+03  0.17841229309E+03 -0.77178409892E+03  0.81571612752E+03  0.16500000000E+03 0.  0.
<mgrwt>
<rscale>  0 0.58012186E+03</rscale>
<asrwt>0</asrwt>
<pdfrwt beam="1">  1        2 0.17277110E+00 0.58012186E+03</pdfrwt>
<pdfrwt beam="2">  1       -2 0.11526054E-01 0.58012186E+03</pdfrwt>
<totfact> 0.11588311E+03</totfact>
</mgrwt>
</event>
<event>
 4    1  0.3213443E-005  0.1063958E+04  0.7818608E-02  0.9241050E-01
         -2   -1    0    0    0  501 -0.00000000000E+00  0.00000000000E+00  0.19058615767E+03  0.19058615769E+03  0.25500000000E-02 0. -1.
          2   -1    0    0  501    0  0.00000000000E+00 -0.00000000000E+00 -0.14849023545E+04  0.14849023545E+04  0.25500000000E-02 0.  1.
    5000001    1    1    2    0    0  0.39272508093E+03 -0.23480754004E+03 -0.30790863046E+03  0.57567377460E+03  0.16500000000E+03 0.  0.
   -5000001    1    1    2    0    0 -0.39272508093E+03  0.23480754004E+03 -0.98640756637E+03  0.10998147376E+04  0.16500000000E+03 0.  0.
<mgrwt>
<rscale>  0 0.10639583E+04</rscale>
<asrwt>0</asrwt>
<pdfrwt beam="1">  1        2 0.22844651E+00 0.10639583E+04</pdfrwt>
<pdfrwt beam="2">  1       -2 0.29320948E-01 0.10639583E+04</pdfrwt>
<totfact> 0.13772287E+02</totfact>
</mgrwt>
</event>
<event>
 4    1  0.3213443E-005  0.1295574E+04  0.7818608E-02  0.9033083E-01
          2   -1    0    0  501    0  0.00000000000E+00  0.00000000000E+00  0.12746278356E+04  0.12746278356E+04  0.25500000000E-02 0.  1.
         -2   -1    0    0    0  501 -0.00000000000E+00 -0.00000000000E+00 -0.32921598487E+03  0.32921598488E+03  0.25500000000E-02 0. -1.
    5000001    1    1    2    0    0  0.35887099808E+03  0.50110045756E+03  0.61118275530E+03  0.88354933207E+03  0.16500000000E+03 0.  0.
   -5000001    1    1    2    0    0 -0.35887099808E+03 -0.50110045756E+03  0.33422909546E+03  0.72029448844E+03  0.16500000000E+03 0.  0.
<mgrwt>
<rscale>  0 0.12955738E+04</rscale>
<asrwt>0</asrwt>
<pdfrwt beam="1">  1        2 0.19609659E+00 0.12955738E+04</pdfrwt>
<pdfrwt beam="2">  1       -2 0.50648613E-01 0.12955738E+04</pdfrwt>
<totfact> 0.61804902E+01</totfact>
</mgrwt>
</event>
<event>
 4    1  0.3213443E-005  0.6255255E+03  0.7818608E-02  0.9853820E-01
         -2   -1    0    0    0  501 -0.00000000000E+00  0.00000000000E+00  0.10350532253E+03  0.10350532256E+03  0.25500000000E-02 0. -1.
          2   -1    0    0  501    0  0.00000000000E+00 -0.00000000000E+00 -0.94507727570E+03  0.94507727570E+03  0.25500000000E-02 0.  1.
    5000001    1    1    2    0    0  0.16348365238E+03 -0.20653809756E+03 -0.36245962866E+03  0.47747970925E+03  0.16500000000E+03 0.  0.
   -5000001    1    1    2    0    0 -0.16348365238E+03  0.20653809756E+03 -0.47911232451E+03  0.57110288901E+03  0.16500000000E+03 0.  0.
<mgrwt>
<rscale>  0 0.62552547E+03</rscale>
<asrwt>0</asrwt>
<pdfrwt beam="1">  1        2 0.14539650E+00 0.62552547E+03</pdfrwt>
<pdfrwt beam="2">  1       -2 0.15923896E-01 0.62552547E+03</pdfrwt>
<totfact> 0.87199379E+02</totfact>
</mgrwt>
</event>
<event>
 4    1  0.3213443E-005  0.6311978E+03  0.7818608E-02  0.9842714E-01
         -2   -1    0    0    0  501 -0.00000000000E+00  0.00000000000E+00  0.17528125035E+03  0.17528125037E+03  0.25500000000E-02 0. -1.
          2   -1    0    0  501    0  0.00000000000E+00 -0.00000000000E+00 -0.56824475262E+03  0.56824475263E+03  0.25500000000E-02 0.  1.
    5000001    1    1    2    0    0  0.13658913075E+03 -0.19987976815E+03 -0.58257546319E+02  0.29870964842E+03  0.16500000000E+03 0.  0.
   -5000001    1    1    2    0    0 -0.13658913075E+03  0.19987976815E+03 -0.33470595595E+03  0.44481635458E+03  0.16500000000E+03 0.  0.
<mgrwt>
<rscale>  0 0.63119775E+03</rscale>
<asrwt>0</asrwt>
<pdfrwt beam="1">  1        2 0.87422269E-01 0.63119775E+03</pdfrwt>
<pdfrwt beam="2">  1       -2 0.26966346E-01 0.63119775E+03</pdfrwt>
<totfact> 0.66490465E+02</totfact>
</mgrwt>
</event>
<event>
 4    1  0.3213443E-005  0.4401940E+03  0.7818608E-02  0.1030687E+00
          2   -1    0    0  501    0  0.00000000000E+00  0.00000000000E+00  0.14631078637E+04  0.14631078637E+04  0.25500000000E-02 0.  1.
         -2   -1    0    0    0  501 -0.00000000000E+00 -0.00000000000E+00 -0.33109451372E+02  0.33109451470E+02  0.25500000000E-02 0. -1.
    5000001    1    1    2    0    0  0.11736213810E+03  0.46645688822E+02  0.46829662845E+03  0.51232452993E+03  0.16500000000E+03 0.  0.
   -5000001    1    1    2    0    0 -0.11736213810E+03 -0.46645688822E+02  0.96170178384E+03  0.98389278520E+03  0.16500000000E+03 0.  0.
<mgrwt>
<rscale>  0 0.44019404E+03</rscale>
<asrwt>0</asrwt>
<pdfrwt beam="1">  1        2 0.22509346E+00 0.44019404E+03</pdfrwt>
<pdfrwt beam="2">  1       -2 0.50937630E-02 0.44019404E+03</pdfrwt>
<totfact> 0.27151943E+03</totfact>
</mgrwt>
</event>
<event>
 4    1  0.3213443E-005  0.7878203E+03  0.7818608E-02  0.9577816E-01
         -2   -1    0    0    0  501 -0.00000000000E+00  0.00000000000E+00  0.18219049161E+03  0.18219049163E+03  0.25500000000E-02 0. -1.
          2   -1    0    0  501    0  0.00000000000E+00 -0.00000000000E+00 -0.85166457681E+03  0.85166457681E+03  0.25500000000E-02 0.  1.
    5000001    1    1    2    0    0 -0.23450747296E+02  0.34366880670E+03 -0.46116797517E+03  0.59879803571E+03  0.16500000000E+03 0.  0.
   -5000001    1    1    2    0    0  0.23450747296E+02 -0.34366880670E+03 -0.20830611004E+03  0.43505703273E+03  0.16500000000E+03 0.  0.
<mgrwt>
<rscale>  0 0.78782025E+03</rscale>
<asrwt>0</asrwt>
<pdfrwt beam="1">  1        2 0.13102532E+00 0.78782025E+03</pdfrwt>
<pdfrwt beam="2">  1       -2 0.28029307E-01 0.78782025E+03</pdfrwt>
<totfact> 0.36985896E+02</totfact>
</mgrwt>
</event>
<event>
 4    1  0.3213443E-005  0.4122888E+03  0.7818608E-02  0.1039606E+00
         -2   -1    0    0    0  501 -0.00000000000E+00  0.00000000000E+00  0.61994078055E+03  0.61994078055E+03  0.25500000000E-02 0. -1.
          2   -1    0    0  501    0  0.00000000000E+00 -0.00000000000E+00 -0.68547688173E+02  0.68547688220E+02  0.25500000000E-02 0.  1.
    5000001    1    1    2    0    0 -0.20085329762E+02  0.11429597157E+03  0.20477872647E+03  0.28744793685E+03  0.16500000000E+03 0.  0.
   -5000001    1    1    2    0    0  0.20085329762E+02 -0.11429597157E+03  0.34661436591E+03  0.40104053192E+03  0.16500000000E+03 0.  0.
<mgrwt>
<rscale>  0 0.41228877E+03</rscale>
<asrwt>0</asrwt>
<pdfrwt beam="1">  1        2 0.10545798E-01 0.41228877E+03</pdfrwt>
<pdfrwt beam="2">  1       -2 0.95375507E-01 0.41228877E+03</pdfrwt>
<totfact> 0.57738175E+02</totfact>
</mgrwt>
</event>
<event>
 4    1  0.3213443E-005  0.5095684E+03  0.7818608E-02  0.1011311E+00
          2   -1    0    0  501    0  0.00000000000E+00  0.00000000000E+00  0.10843606870E+03  0.10843606873E+03  0.25500000000E-02 0.  1.
         -2   -1    0    0    0  501 -0.00000000000E+00 -0.00000000000E+00 -0.59864765322E+03  0.59864765323E+03  0.25500000000E-02 0. -1.
    5000001    1    1    2    0    0  0.18828482552E+03  0.45750743630E+02 -0.26185468775E+03  0.36515364378E+03  0.16500000000E+03 0.  0.
   -5000001    1    1    2    0    0 -0.18828482552E+03 -0.45750743630E+02 -0.22835689677E+03  0.34193007818E+03  0.16500000000E+03 0.  0.
<mgrwt>
<rscale>  0 0.50956844E+03</rscale>
<asrwt>0</asrwt>
<pdfrwt beam="1">  1        2 0.16682473E-01 0.50956844E+03</pdfrwt>
<pdfrwt beam="2">  1       -2 0.92099637E-01 0.50956844E+03</pdfrwt>
<totfact> 0.35714518E+02</totfact>
</mgrwt>
</event>
<event>
 4    1  0.3213443E-005  0.6129101E+03  0.7818608E-02  0.9878978E-01
          2   -1    0    0  501    0  0.00000000000E+00  0.00000000000E+00  0.81504598170E+02  0.81504598210E+02  0.25500000000E-02 0.  1.
         -2   -1    0    0    0  501 -0.00000000000E+00 -0.00000000000E+00 -0.11522626720E+04  0.11522626720E+04  0.25500000000E-02 0. -1.
    5000001    1    1    2    0    0 -0.83518840682E+02 -0.22749330239E+03 -0.71498600019E+03  0.77276036380E+03  0.16500000000E+03 0.  0.
   -5000001    1    1    2    0    0  0.83518840682E+02  0.22749330239E+03 -0.35577207363E+03  0.46100690641E+03  0.16500000000E+03 0.  0.
<mgrwt>
<rscale>  0 0.61291013E+03</rscale>
<asrwt>0</asrwt>
<pdfrwt beam="1">  1        2 0.12539170E-01 0.61291013E+03</pdfrwt>
<pdfrwt beam="2">  1       -2 0.17727117E+00 0.61291013E+03</pdfrwt>
<totfact> 0.96629431E+01</totfact>
</mgrwt>
</event>
<event>
 4    1  0.3213443E-005  0.6114301E+03  0.7818608E-02  0.9881972E-01
          2   -1    0    0  501    0  0.00000000000E+00  0.00000000000E+00  0.72195548250E+03  0.72195548251E+03  0.25500000000E-02 0.  1.
         -2   -1    0    0    0  501 -0.00000000000E+00 -0.00000000000E+00 -0.12945628861E+03  0.12945628863E+03  0.25500000000E-02 0. -1.
    5000001    1    1    2    0    0 -0.99637133460E+02 -0.22547252533E+03  0.39924942911E+03  0.49738367955E+03  0.16500000000E+03 0.  0.
   -5000001    1    1    2    0    0  0.99637133460E+02  0.22547252533E+03  0.19324976478E+03  0.35402809158E+03  0.16500000000E+03 0.  0.
<mgrwt>
<rscale>  0 0.61143005E+03</rscale>
<asrwt>0</asrwt>
<pdfrwt beam="1">  1        2 0.11107008E+00 0.61143005E+03</pdfrwt>
<pdfrwt beam="2">  1       -2 0.19916352E-01 0.61143005E+03</pdfrwt>
<totfact> 0.85113033E+02</totfact>
</mgrwt>
</event>
<event>
 4    1  0.3213443E-005  0.4474384E+03  0.7818608E-02  0.1028489E+00
          2   -1    0    0  501    0  0.00000000000E+00  0.00000000000E+00  0.38507823311E+02  0.38507823396E+02  0.25500000000E-02 0.  1.
         -2   -1    0    0    0  501 -0.00000000000E+00 -0.00000000000E+00 -0.12997429022E+04  0.12997429022E+04  0.25500000000E-02 0. -1.
    5000001    1    1    2    0    0 -0.98733221478E+02  0.59382612370E+02 -0.33832180246E+03  0.39365109639E+03  0.16500000000E+03 0.  0.
   -5000001    1    1    2    0    0  0.98733221478E+02 -0.59382612370E+02 -0.92291327641E+03  0.94459962918E+03  0.16500000000E+03 0.  0.
<mgrwt>
<rscale>  0 0.44743835E+03</rscale>
<asrwt>0</asrwt>
<pdfrwt beam="1">  1        2 0.59242815E-02 0.44743835E+03</pdfrwt>
<pdfrwt beam="2">  1       -2 0.19996041E+00 0.44743835E+03</pdfrwt>
<totfact> 0.18038841E+02</totfact>
</mgrwt>
</event>
<event>
 4    1  0.3213443E-005  0.1232119E+04  0.7818608E-02  0.9085198E-01
         -2   -1    0    0    0  501 -0.00000000000E+00  0.00000000000E+00  0.18100065889E+03  0.18100065891E+03  0.25500000000E-02 0. -1.
          2   -1    0    0  501    0  0.00000000000E+00 -0.00000000000E+00 -0.20968386064E+04  0.20968386064E+04  0.25500000000E-02 0.  1.
    5000001    1    1    2    0    0  0.40422283004E+03  0.43017847759E+03 -0.84314131367E+03  0.10423827962E+04  0.16500000000E+03 0.  0.
   -5000001    1    1    2    0    0 -0.40422283004E+03 -0.43017847759E+03 -0.10726966338E+04  0.12354564691E+04  0.16500000000E+03 0.  0.
<mgrwt>
<rscale>  0 0.12321188E+04</rscale>
<asrwt>0</asrwt>
<pdfrwt beam="1">  1        2 0.32259054E+00 0.12321188E+04</pdfrwt>
<pdfrwt beam="2">  1       -2 0.27846257E-01 0.12321188E+04</pdfrwt>
<totfact> 0.68538322E+01</totfact>
</mgrwt>
</event>
<event>
 4    1  0.3213443E-005  0.4121387E+03  0.7818608E-02  0.1039656E+00
         -2   -1    0    0    0  501 -0.00000000000E+00  0.00000000000E+00  0.22071639093E+02  0.22071639240E+02  0.25500000000E-02 0. -1.
          2   -1    0    0  501    0  0.00000000000E+00 -0.00000000000E+00 -0.19239431774E+04  0.19239431774E+04  0.25500000000E-02 0.  1.
    5000001    1    1    2    0    0 -0.26590919858E+02  0.54671630749E+02 -0.14582438441E+04  0.14688077387E+04  0.16500000000E+03 0.  0.
   -5000001    1    1    2    0    0  0.26590919858E+02 -0.54671630749E+02 -0.44362769418E+03  0.47720707798E+03  0.16500000000E+03 0.  0.
<mgrwt>
<rscale>  0 0.41213871E+03</rscale>
<asrwt>0</asrwt>
<pdfrwt beam="1">  1        2 0.29599113E+00 0.41213871E+03</pdfrwt>
<pdfrwt beam="2">  1       -2 0.33956383E-02 0.41213871E+03</pdfrwt>
<totfact> 0.28515403E+03</totfact>
</mgrwt>
</event>
<event>
 4    1  0.3213443E-005  0.5718137E+03  0.7818608E-02  0.9965673E-01
         -2   -1    0    0    0  501 -0.00000000000E+00  0.00000000000E+00  0.13437850464E+03  0.13437850466E+03  0.25500000000E-02 0. -1.
          2   -1    0    0  501    0  0.00000000000E+00 -0.00000000000E+00 -0.60830219032E+03  0.60830219032E+03  0.25500000000E-02 0.  1.
    5000001    1    1    2    0    0 -0.23343570247E+03 -0.14332481706E+01 -0.24325236664E+03  0.37535449280E+03  0.16500000000E+03 0.  0.
   -5000001    1    1    2    0    0  0.23343570247E+03  0.14332481706E+01 -0.23067131904E+03  0.36732620219E+03  0.16500000000E+03 0.  0.
<mgrwt>
<rscale>  0 0.57181374E+03</rscale>
<asrwt>0</asrwt>
<pdfrwt beam="1">  1        2 0.93584951E-01 0.57181374E+03</pdfrwt>
<pdfrwt beam="2">  1       -2 0.20673616E-01 0.57181374E+03</pdfrwt>
<totfact> 0.98550631E+02</totfact>
</mgrwt>
</event>
<event>
 4    1  0.3213443E-005  0.4121530E+03  0.7818608E-02  0.1039651E+00
         -2   -1    0    0    0  501 -0.00000000000E+00  0.00000000000E+00  0.19430032154E+03  0.19430032156E+03  0.25500000000E-02 0. -1.
          2   -1    0    0  501    0  0.00000000000E+00 -0.00000000000E+00 -0.21856645016E+03  0.21856645017E+03  0.25500000000E-02 0.  1.
    5000001    1    1    2    0    0  0.91108508424E+02 -0.30630904079E+02 -0.89749620604E+02  0.21099527718E+03  0.16500000000E+03 0.  0.
   -5000001    1    1    2    0    0 -0.91108508424E+02  0.30630904079E+02  0.65483491987E+02  0.20187149456E+03  0.16500000000E+03 0.  0.
<mgrwt>
<rscale>  0 0.41215304E+03</rscale>
<asrwt>0</asrwt>
<pdfrwt beam="1">  1        2 0.33625608E-01 0.41215304E+03</pdfrwt>
<pdfrwt beam="2">  1       -2 0.29892357E-01 0.41215304E+03</pdfrwt>
<totfact> 0.16026459E+03</totfact>
</mgrwt>
</event>
<event>
 4    1  0.3213443E-005  0.1007790E+04  0.7818608E-02  0.9300041E-01
         -2   -1    0    0    0  501 -0.00000000000E+00  0.00000000000E+00  0.16933005920E+03  0.16933005922E+03  0.25500000000E-02 0. -1.
          2   -1    0    0  501    0  0.00000000000E+00 -0.00000000000E+00 -0.14994998598E+04  0.14994998598E+04  0.25500000000E-02 0.  1.
    5000001    1    1    2    0    0  0.35343125799E+03 -0.25402668653E+03 -0.34551973413E+03  0.57970000713E+03  0.16500000000E+03 0.  0.
   -5000001    1    1    2    0    0 -0.35343125799E+03  0.25402668653E+03 -0.98465006650E+03  0.10891299119E+04  0.16500000000E+03 0.  0.
<mgrwt>
<rscale>  0 0.10077905E+04</rscale>
<asrwt>0</asrwt>
<pdfrwt beam="1">  1        2 0.23069228E+00 0.10077905E+04</pdfrwt>
<pdfrwt beam="2">  1       -2 0.26050779E-01 0.10077905E+04</pdfrwt>
<totfact> 0.16857618E+02</totfact>
</mgrwt>
</event>
<event>
 4    1  0.3213443E-005  0.4185865E+03  0.7818608E-02  0.1037527E+00
          2   -1    0    0  501    0  0.00000000000E+00  0.00000000000E+00  0.10215435613E+04  0.10215435613E+04  0.25500000000E-02 0.  1.
         -2   -1    0    0    0  501 -0.00000000000E+00 -0.00000000000E+00 -0.42879881338E+02  0.42879881414E+02  0.25500000000E-02 0. -1.
    5000001    1    1    2    0    0  0.81453209136E+02  0.94018318708E+02  0.57384632935E+03  0.60991694454E+03  0.16500000000E+03 0.  0.
   -5000001    1    1    2    0    0 -0.81453209136E+02 -0.94018318708E+02  0.40481735065E+03  0.45450649822E+03  0.16500000000E+03 0.  0.
<mgrwt>
<rscale>  0 0.41858651E+03</rscale>
<asrwt>0</asrwt>
<pdfrwt beam="1">  1        2 0.15716053E+00 0.41858651E+03</pdfrwt>
<pdfrwt beam="2">  1       -2 0.65969057E-02 0.41858651E+03</pdfrwt>
<totfact> 0.32664164E+03</totfact>
</mgrwt>
</event>
<event>
 4    1  0.3213443E-005  0.1090508E+04  0.7818608E-02  0.9214493E-01
         -2   -1    0    0    0  501 -0.00000000000E+00  0.00000000000E+00  0.31319824491E+03  0.31319824492E+03  0.25500000000E-02 0. -1.
          2   -1    0    0  501    0  0.00000000000E+00 -0.00000000000E+00 -0.94924544684E+03  0.94924544684E+03  0.25500000000E-02 0.  1.
    5000001    1    1    2    0    0 -0.31858853765E+03 -0.20729303871E+03 -0.72831428835E+03  0.83793541686E+03  0.16500000000E+03 0.  0.
   -5000001    1    1    2    0    0  0.31858853765E+03  0.20729303871E+03  0.92267086423E+02  0.42450827490E+03  0.16500000000E+03 0.  0.
<mgrwt>
<rscale>  0 0.10905082E+04</rscale>
<asrwt>0</asrwt>
<pdfrwt beam="1">  1        2 0.14603776E+00 0.10905082E+04</pdfrwt>
<pdfrwt beam="2">  1       -2 0.48184346E-01 0.10905082E+04</pdfrwt>
<totfact> 0.11014753E+02</totfact>
</mgrwt>
</event>
<event>
 4    1  0.3213443E-005  0.6573904E+03  0.7818608E-02  0.9793010E-01
          2   -1    0    0  501    0  0.00000000000E+00  0.00000000000E+00  0.87512249200E+03  0.87512249200E+03  0.25500000000E-02 0.  1.
         -2   -1    0    0    0  501 -0.00000000000E+00 -0.00000000000E+00 -0.12345761637E+03  0.12345761639E+03  0.25500000000E-02 0. -1.
    5000001    1    1    2    0    0 -0.24190125476E+03  0.13187190260E+03  0.26940308447E+03  0.41917709583E+03  0.16500000000E+03 0.  0.
   -5000001    1    1    2    0    0  0.24190125476E+03 -0.13187190260E+03  0.48226179116E+03  0.57940301256E+03  0.16500000000E+03 0.  0.
<mgrwt>
<rscale>  0 0.65739041E+03</rscale>
<asrwt>0</asrwt>
<pdfrwt beam="1">  1        2 0.13463423E+00 0.65739041E+03</pdfrwt>
<pdfrwt beam="2">  1       -2 0.18993480E-01 0.65739041E+03</pdfrwt>
<totfact> 0.71674679E+02</totfact>
</mgrwt>
</event>
<event>
 4    1  0.3213443E-005  0.6729287E+03  0.7818608E-02  0.9764681E-01
          2   -1    0    0  501    0  0.00000000000E+00  0.00000000000E+00  0.10307525404E+04  0.10307525404E+04  0.25500000000E-02 0.  1.
         -2   -1    0    0    0  501 -0.00000000000E+00 -0.00000000000E+00 -0.10983069558E+03  0.10983069561E+03  0.25500000000E-02 0. -1.
    5000001    1    1    2    0    0 -0.23473480314E+03  0.17573101470E+03  0.46250274019E+03  0.57194020842E+03  0.16500000000E+03 0.  0.
   -5000001    1    1    2    0    0  0.23473480314E+03 -0.17573101470E+03  0.45841910461E+03  0.56864302757E+03  0.16500000000E+03 0.  0.
<mgrwt>
<rscale>  0 0.67292873E+03</rscale>
<asrwt>0</asrwt>
<pdfrwt beam="1">  1        2 0.15857732E+00 0.67292873E+03</pdfrwt>
<pdfrwt beam="2">  1       -2 0.16897030E-01 0.67292873E+03</pdfrwt>
<totfact> 0.69377876E+02</totfact>
</mgrwt>
</event>
<event>
 4    1  0.3213443E-005  0.6508873E+03  0.7818608E-02  0.9805116E-01
         -2   -1    0    0    0  501 -0.00000000000E+00  0.00000000000E+00  0.47152498255E+02  0.47152498323E+02  0.25500000000E-02 0. -1.
          2   -1    0    0  501    0  0.00000000000E+00 -0.00000000000E+00 -0.22461919338E+04  0.22461919338E+04  0.25500000000E-02 0.  1.
    5000001    1    1    2    0    0 -0.20483290460E+03 -0.18261544215E+03 -0.89456601978E+03  0.95014645307E+03  0.16500000000E+03 0.  0.
   -5000001    1    1    2    0    0  0.20483290460E+03  0.18261544215E+03 -0.13044734158E+04  0.13431979791E+04  0.16500000000E+03 0.  0.
<mgrwt>
<rscale>  0 0.65088728E+03</rscale>
<asrwt>0</asrwt>
<pdfrwt beam="1">  1        2 0.34556791E+00 0.65088728E+03</pdfrwt>
<pdfrwt beam="2">  1       -2 0.72542323E-02 0.65088728E+03</pdfrwt>
<totfact> 0.58069301E+02</totfact>
</mgrwt>
</event>
<event>
 4    1  0.3213443E-005  0.5968022E+03  0.7818608E-02  0.9912063E-01
          2   -1    0    0  501    0  0.00000000000E+00  0.00000000000E+00  0.55319435328E+03  0.55319435329E+03  0.25500000000E-02 0.  1.
         -2   -1    0    0    0  501 -0.00000000000E+00 -0.00000000000E+00 -0.16096188403E+03  0.16096188405E+03  0.25500000000E-02 0. -1.
    5000001    1    1    2    0    0  0.23378119683E+03 -0.47049570110E+02  0.28031480482E+03  0.40332207954E+03  0.16500000000E+03 0.  0.
   -5000001    1    1    2    0    0 -0.23378119683E+03  0.47049570110E+02  0.11191766443E+03  0.31083415780E+03  0.16500000000E+03 0.  0.
<mgrwt>
<rscale>  0 0.59680216E+03</rscale>
<asrwt>0</asrwt>
<pdfrwt beam="1">  1        2 0.85106824E-01 0.59680216E+03</pdfrwt>
<pdfrwt beam="2">  1       -2 0.24763367E-01 0.59680216E+03</pdfrwt>
<totfact> 0.80106244E+02</totfact>
</mgrwt>
</event>
<event>
 4    1  0.3213443E-005  0.9007735E+03  0.7818608E-02  0.9424615E-01
          2   -1    0    0  501    0  0.00000000000E+00  0.00000000000E+00  0.17269895271E+03  0.17269895272E+03  0.25500000000E-02 0.  1.
         -2   -1    0    0    0  501 -0.00000000000E+00 -0.00000000000E+00 -0.11745770149E+04  0.11745770149E+04  0.25500000000E-02 0. -1.
    5000001    1    1    2    0    0 -0.16075300854E+03  0.36941954998E+03 -0.67350075061E+03  0.80196046956E+03  0.16500000000E+03 0.  0.
   -5000001    1    1    2    0    0  0.16075300854E+03 -0.36941954998E+03 -0.32837731157E+03  0.54531549805E+03  0.16500000000E+03 0.  0.
<mgrwt>
<rscale>  0 0.90077349E+03</rscale>
<asrwt>0</asrwt>
<pdfrwt beam="1">  1        2 0.26569070E-01 0.90077349E+03</pdfrwt>
<pdfrwt beam="2">  1       -2 0.18070415E+00 0.90077349E+03</pdfrwt>
<totfact> 0.36825305E+01</totfact>
</mgrwt>
</event>
<event>
 4    1  0.3213443E-005  0.4992087E+03  0.7818608E-02  0.1013986E+00
          2   -1    0    0  501    0  0.00000000000E+00  0.00000000000E+00  0.12240617765E+04  0.12240617765E+04  0.25500000000E-02 0.  1.
         -2   -1    0    0    0  501 -0.00000000000E+00 -0.00000000000E+00 -0.50898031315E+02  0.50898031379E+02  0.25500000000E-02 0. -1.
    5000001    1    1    2    0    0 -0.83511813374E+02  0.10010692181E+03  0.24315509207E+03  0.32147319883E+03  0.16500000000E+03 0.  0.
   -5000001    1    1    2    0    0  0.83511813374E+02 -0.10010692181E+03  0.93000865313E+03  0.95348660906E+03  0.16500000000E+03 0.  0.
<mgrwt>
<rscale>  0 0.49920871E+03</rscale>
<asrwt>0</asrwt>
<pdfrwt beam="1">  1        2 0.18831721E+00 0.49920871E+03</pdfrwt>
<pdfrwt beam="2">  1       -2 0.78304658E-02 0.49920871E+03</pdfrwt>
<totfact> 0.18875727E+03</totfact>
</mgrwt>
</event>
<event>
 4    1  0.3213443E-005  0.3633198E+03  0.7818608E-02  0.1057277E+00
         -2   -1    0    0    0  501 -0.00000000000E+00  0.00000000000E+00  0.29360055103E+03  0.29360055105E+03  0.25500000000E-02 0.  1.
          2   -1    0    0  501    0  0.00000000000E+00 -0.00000000000E+00 -0.11239871935E+03  0.11239871938E+03  0.25500000000E-02 0. -1.
    5000001    1    1    2    0    0 -0.20253883813E+02 -0.18196209919E+02  0.16988626159E+03  0.23838553593E+03  0.16500000000E+03 0.  0.
   -5000001    1    1    2    0    0  0.20253883813E+02  0.18196209919E+02  0.11315570093E+02  0.16761373450E+03  0.16500000000E+03 0.  0.
<mgrwt>
<rscale>  0 0.36331984E+03</rscale>
<asrwt>0</asrwt>
<pdfrwt beam="1">  1        2 0.17292111E-01 0.36331984E+03</pdfrwt>
<pdfrwt beam="2">  1       -2 0.45169315E-01 0.36331984E+03</pdfrwt>
<totfact> 0.15565431E+03</totfact>
</mgrwt>
</event>
<event>
 4    1  0.3213443E-005  0.4456597E+03  0.7818608E-02  0.1029024E+00
          2   -1    0    0  501    0  0.00000000000E+00  0.00000000000E+00  0.22084708095E+04  0.22084708095E+04  0.25500000000E-02 0.  1.
         -2   -1    0    0    0  501 -0.00000000000E+00 -0.00000000000E+00 -0.22483043859E+02  0.22483044003E+02  0.25500000000E-02 0. -1.
    5000001    1    1    2    0    0 -0.93734814274E+02  0.52331797478E+02  0.16157106858E+04  0.16276580883E+04  0.16500000000E+03 0.  0.
   -5000001    1    1    2    0    0  0.93734814274E+02 -0.52331797478E+02  0.57027707983E+03  0.60329576512E+03  0.16500000000E+03 0.  0.
<mgrwt>
<rscale>  0 0.44565972E+03</rscale>
<asrwt>0</asrwt>
<pdfrwt beam="1">  1        2 0.33976472E+00 0.44565972E+03</pdfrwt>
<pdfrwt beam="2">  1       -2 0.34589301E-02 0.44565972E+03</pdfrwt>
<totfact> 0.19472291E+03</totfact>
</mgrwt>
</event>
<event>
 4    1  0.3213443E-005  0.5673648E+03  0.7818608E-02  0.9975527E-01
          2   -1    0    0  501    0  0.00000000000E+00  0.00000000000E+00  0.16078043110E+03  0.16078043112E+03  0.25500000000E-02 0.  1.
         -2   -1    0    0    0  501 -0.00000000000E+00 -0.00000000000E+00 -0.50053166546E+03  0.50053166547E+03  0.25500000000E-02 0. -1.
    5000001    1    1    2    0    0  0.21026331080E+03  0.88497351108E+02 -0.21039133773E+03  0.35147113113E+03  0.16500000000E+03 0.  0.
   -5000001    1    1    2    0    0 -0.21026331080E+03 -0.88497351108E+02 -0.12935989663E+03  0.30984096546E+03  0.16500000000E+03 0.  0.
<mgrwt>
<rscale>  0 0.56736477E+03</rscale>
<asrwt>0</asrwt>
<pdfrwt beam="1">  1        2 0.24735451E-01 0.56736477E+03</pdfrwt>
<pdfrwt beam="2">  1       -2 0.77004871E-01 0.56736477E+03</pdfrwt>
<totfact> 0.33760973E+02</totfact>
</mgrwt>
</event>
<event>
 4    1  0.3213443E-005  0.5207951E+03  0.7818608E-02  0.1008489E+00
          2   -1    0    0  501    0  0.00000000000E+00  0.00000000000E+00  0.16836369147E+04  0.16836369147E+04  0.25500000000E-02 0. -1.
         -2   -1    0    0    0  501 -0.00000000000E+00 -0.00000000000E+00 -0.40274049237E+02  0.40274049318E+02  0.25500000000E-02 0.  1.
    5000001    1    1    2    0    0  0.42992331079E+01 -0.61699049737E+02  0.18705851466E+03  0.25698471560E+03  0.16500000000E+03 0.  0.
   -5000001    1    1    2    0    0 -0.42992331079E+01  0.61699049737E+02  0.14563043509E+04  0.14669262485E+04  0.16500000000E+03 0.  0.
<mgrwt>
<rscale>  0 0.52079507E+03</rscale>
<asrwt>0</asrwt>
<pdfrwt beam="1">  1        2 0.25902111E+00 0.52079507E+03</pdfrwt>
<pdfrwt beam="2">  1       -2 0.61960064E-02 0.52079507E+03</pdfrwt>
<totfact> 0.15156960E+03</totfact>
</mgrwt>
</event>
<event>
 4    1  0.3213443E-005  0.4608123E+03  0.7818608E-02  0.1024546E+00
         -2   -1    0    0    0  501 -0.00000000000E+00  0.00000000000E+00  0.18309855401E+02  0.18309855578E+02  0.25500000000E-02 0. -1.
          2   -1    0    0  501    0  0.00000000000E+00 -0.00000000000E+00 -0.28993667896E+04  0.28993667896E+04  0.25500000000E-02 0.  1.
    5000001    1    1    2    0    0  0.13210908449E+03  0.87585827876E+02 -0.12685350887E+04  0.12890036302E+04  0.16500000000E+03 0.  0.
   -5000001    1    1    2    0    0 -0.13210908449E+03 -0.87585827876E+02 -0.16125218455E+04  0.16286730150E+04  0.16500000000E+03 0.  0.
<mgrwt>
<rscale>  0 0.46081227E+03</rscale>
<asrwt>0</asrwt>
<pdfrwt beam="1">  1        2 0.44605606E+00 0.46081227E+03</pdfrwt>
<pdfrwt beam="2">  1       -2 0.28169031E-02 0.46081227E+03</pdfrwt>
<totfact> 0.10825420E+03</totfact>
</mgrwt>
</event>
<event>
 4    1  0.3213443E-005  0.9034361E+03  0.7818608E-02  0.9421296E-01
         -2   -1    0    0    0  501 -0.00000000000E+00  0.00000000000E+00  0.13835803246E+03  0.13835803248E+03  0.25500000000E-02 0.  1.
          2   -1    0    0  501    0  0.00000000000E+00 -0.00000000000E+00 -0.14747909988E+04  0.14747909988E+04  0.25500000000E-02 0. -1.
    5000001    1    1    2    0    0  0.41717782929E+03 -0.52709562941E+02 -0.67343500202E+03  0.81089786115E+03  0.16500000000E+03 0.  0.
   -5000001    1    1    2    0    0 -0.41717782929E+03  0.52709562941E+02 -0.66299796431E+03  0.80225117012E+03  0.16500000000E+03 0.  0.
<mgrwt>
<rscale>  0 0.90343607E+03</rscale>
<asrwt>0</asrwt>
<pdfrwt beam="1">  1        2 0.22689091E+00 0.90343607E+03</pdfrwt>
<pdfrwt beam="2">  1       -2 0.21285852E-01 0.90343607E+03</pdfrwt>
<totfact> 0.25172953E+02</totfact>
</mgrwt>
</event>
<event>
 4    1  0.3213443E-005  0.6519582E+03  0.7818608E-02  0.9803112E-01
         -2   -1    0    0    0  501 -0.00000000000E+00  0.00000000000E+00  0.11322652526E+03  0.11322652529E+03  0.25500000000E-02 0.  1.
          2   -1    0    0  501    0  0.00000000000E+00 -0.00000000000E+00 -0.93849362690E+03  0.93849362691E+03  0.25500000000E-02 0. -1.
    5000001    1    1    2    0    0  0.15603930560E+03  0.76637824096E+02 -0.56214888884E+02  0.24618435106E+03  0.16500000000E+03 0.  0.
   -5000001    1    1    2    0    0 -0.15603930560E+03 -0.76637824096E+02 -0.76905221276E+03  0.80553580114E+03  0.16500000000E+03 0.  0.
<mgrwt>
<rscale>  0 0.65195820E+03</rscale>
<asrwt>0</asrwt>
<pdfrwt beam="1">  1        2 0.14438363E+00 0.65195820E+03</pdfrwt>
<pdfrwt beam="2">  1       -2 0.17419466E-01 0.65195820E+03</pdfrwt>
<totfact> 0.75501279E+02</totfact>
</mgrwt>
</event>
<event>
 4    1  0.3213443E-005  0.6494877E+03  0.7818608E-02  0.9807741E-01
         -2   -1    0    0    0  501 -0.00000000000E+00  0.00000000000E+00  0.42483220104E+02  0.42483220180E+02  0.25500000000E-02 0. -1.
          2   -1    0    0  501    0  0.00000000000E+00 -0.00000000000E+00 -0.24823580158E+04  0.24823580158E+04  0.25500000000E-02 0.  1.
    5000001    1    1    2    0    0 -0.22432715125E+03 -0.15606271123E+03 -0.14517316124E+04  0.14864144492E+04  0.16500000000E+03 0.  0.
   -5000001    1    1    2    0    0  0.22432715125E+03  0.15606271123E+03 -0.98814318336E+03  0.10384267868E+04  0.16500000000E+03 0.  0.
<mgrwt>
<rscale>  0 0.64948768E+03</rscale>
<asrwt>0</asrwt>
<pdfrwt beam="1">  1        2 0.38190112E+00 0.64948768E+03</pdfrwt>
<pdfrwt beam="2">  1       -2 0.65358820E-02 0.64948768E+03</pdfrwt>
<totfact> 0.50606363E+02</totfact>
</mgrwt>
</event>
<event>
 4    1  0.3213443E-005  0.4239985E+03  0.7818608E-02  0.1035773E+00
         -2   -1    0    0    0  501 -0.00000000000E+00  0.00000000000E+00  0.54051137047E+02  0.54051137107E+02  0.25500000000E-02 0. -1.
          2   -1    0    0  501    0  0.00000000000E+00 -0.00000000000E+00 -0.83150306147E+03  0.83150306147E+03  0.25500000000E-02 0.  1.
    5000001    1    1    2    0    0 -0.37207972228E+02 -0.95828024765E+02 -0.21210528008E+03  0.28771703697E+03  0.16500000000E+03 0.  0.
   -5000001    1    1    2    0    0  0.37207972228E+02  0.95828024765E+02 -0.56534664434E+03  0.59783716161E+03  0.16500000000E+03 0.  0.
<mgrwt>
<rscale>  0 0.42399852E+03</rscale>
<asrwt>0</asrwt>
<pdfrwt beam="1">  1        2 0.12792354E+00 0.42399852E+03</pdfrwt>
<pdfrwt beam="2">  1       -2 0.83155602E-02 0.42399852E+03</pdfrwt>
<totfact> 0.30159411E+03</totfact>
</mgrwt>
</event>
<event>
 4    1  0.3213443E-005  0.5084706E+03  0.7818608E-02  0.1011591E+00
         -2   -1    0    0    0  501 -0.00000000000E+00  0.00000000000E+00  0.43932296151E+02  0.43932296225E+02  0.25500000000E-02 0. -1.
          2   -1    0    0  501    0  0.00000000000E+00 -0.00000000000E+00 -0.14712546350E+04  0.14712546350E+04  0.25500000000E-02 0.  1.
    5000001    1    1    2    0    0  0.14704939921E+03 -0.66884504536E+02 -0.39670482851E+03  0.45901719327E+03  0.16500000000E+03 0.  0.
   -5000001    1    1    2    0    0 -0.14704939921E+03  0.66884504536E+02 -0.10306175103E+04  0.10561697380E+04  0.16500000000E+03 0.  0.
<mgrwt>
<rscale>  0 0.50847063E+03</rscale>
<asrwt>0</asrwt>
<pdfrwt beam="1">  1        2 0.22634683E+00 0.50847063E+03</pdfrwt>
<pdfrwt beam="2">  1       -2 0.67588159E-02 0.50847063E+03</pdfrwt>
<totfact> 0.17274665E+03</totfact>
</mgrwt>
</event>
<event>
 4    1  0.3213443E-005  0.4960713E+03  0.7818608E-02  0.1014809E+00
         -2   -1    0    0    0  501 -0.00000000000E+00  0.00000000000E+00  0.47151071305E+02  0.47151071374E+02  0.25500000000E-02 0. -1.
          2   -1    0    0  501    0  0.00000000000E+00 -0.00000000000E+00 -0.13047782192E+04  0.13047782192E+04  0.25500000000E-02 0.  1.
    5000001    1    1    2    0    0  0.77513665906E+02 -0.14184398143E+03 -0.87512460529E+03  0.90509455763E+03  0.16500000000E+03 0.  0.
   -5000001    1    1    2    0    0 -0.77513665906E+02  0.14184398143E+03 -0.38250254264E+03  0.44683473298E+03  0.16500000000E+03 0.  0.
<mgrwt>
<rscale>  0 0.49607133E+03</rscale>
<asrwt>0</asrwt>
<pdfrwt beam="1">  1        2 0.20073508E+00 0.49607133E+03</pdfrwt>
<pdfrwt beam="2">  1       -2 0.72540120E-02 0.49607133E+03</pdfrwt>
<totfact> 0.19151610E+03</totfact>
</mgrwt>
</event>
<event>
 4    1  0.3213443E-005  0.4995179E+03  0.7818608E-02  0.1013905E+00
          2   -1    0    0  501    0  0.00000000000E+00  0.00000000000E+00  0.11239703647E+04  0.11239703647E+04  0.25500000000E-02 0.  1.
         -2   -1    0    0    0  501 -0.00000000000E+00 -0.00000000000E+00 -0.55499261370E+02  0.55499261429E+02  0.25500000000E-02 0. -1.
    5000001    1    1    2    0    0  0.10920420856E+03 -0.15131568589E+03  0.49117787693E+03  0.55072924631E+03  0.16500000000E+03 0.  0.
   -5000001    1    1    2    0    0 -0.10920420856E+03  0.15131568589E+03  0.57729322644E+03  0.62874037985E+03  0.16500000000E+03 0.  0.
<mgrwt>
<rscale>  0 0.49951787E+03</rscale>
<asrwt>0</asrwt>
<pdfrwt beam="1">  1        2 0.17291851E+00 0.49951787E+03</pdfrwt>
<pdfrwt beam="2">  1       -2 0.85383485E-02 0.49951787E+03</pdfrwt>
<totfact> 0.18835101E+03</totfact>
</mgrwt>
</event>
<event>
 4    1  0.3213443E-005  0.3692892E+03  0.7818608E-02  0.1054965E+00
         -2   -1    0    0    0  501 -0.00000000000E+00  0.00000000000E+00  0.13966649520E+03  0.13966649522E+03  0.25500000000E-02 0. -1.
          2   -1    0    0  501    0  0.00000000000E+00 -0.00000000000E+00 -0.24410736446E+03  0.24410736447E+03  0.25500000000E-02 0.  1.
    5000001    1    1    2    0    0 -0.28091811800E+02  0.62856620065E+02 -0.10016586728E+03  0.20493488123E+03  0.16500000000E+03 0.  0.
   -5000001    1    1    2    0    0  0.28091811800E+02 -0.62856620065E+02 -0.42750019824E+01  0.17883897846E+03  0.16500000000E+03 0.  0.
<mgrwt>
<rscale>  0 0.36928916E+03</rscale>
<asrwt>0</asrwt>
<pdfrwt beam="1">  1        2 0.37554979E-01 0.36928916E+03</pdfrwt>
<pdfrwt beam="2">  1       -2 0.21487153E-01 0.36928916E+03</pdfrwt>
<totfact> 0.25542437E+03</totfact>
</mgrwt>
</event>
<event>
 4    1  0.3213443E-005  0.4380258E+03  0.7818608E-02  0.1031354E+00
          2   -1    0    0  501    0  0.00000000000E+00  0.00000000000E+00  0.12377911583E+03  0.12377911586E+03  0.25500000000E-02 0.  1.
         -2   -1    0    0    0  501 -0.00000000000E+00 -0.00000000000E+00 -0.38751812614E+03  0.38751812615E+03  0.25500000000E-02 0. -1.
    5000001    1    1    2    0    0  0.13499180733E+03  0.42450344895E+02 -0.10061718916E+03  0.23952794948E+03  0.16500000000E+03 0.  0.
   -5000001    1    1    2    0    0 -0.13499180733E+03 -0.42450344895E+02 -0.16312182115E+03  0.27176929253E+03  0.16500000000E+03 0.  0.
<mgrwt>
<rscale>  0 0.43802580E+03</rscale>
<asrwt>0</asrwt>
<pdfrwt beam="1">  1        2 0.19042941E-01 0.43802580E+03</pdfrwt>
<pdfrwt beam="2">  1       -2 0.59618173E-01 0.43802580E+03</pdfrwt>
<totfact> 0.79324692E+02</totfact>
</mgrwt>
</event>
<event>
 4    1  0.3213443E-005  0.4157425E+03  0.7818608E-02  0.1038461E+00
         -2   -1    0    0    0  501 -0.00000000000E+00  0.00000000000E+00  0.51053702347E+02  0.51053702411E+02  0.25500000000E-02 0. -1.
          2   -1    0    0  501    0  0.00000000000E+00 -0.00000000000E+00 -0.84637244122E+03  0.84637244123E+03  0.25500000000E-02 0.  1.
    5000001    1    1    2    0    0  0.97135696587E+02  0.36698172779E+02 -0.24194964013E+03  0.31071969328E+03  0.16500000000E+03 0.  0.
   -5000001    1    1    2    0    0 -0.97135696587E+02 -0.36698172779E+02 -0.55336909875E+03  0.58670645036E+03  0.16500000000E+03 0.  0.
<mgrwt>
<rscale>  0 0.41574245E+03</rscale>
<asrwt>0</asrwt>
<pdfrwt beam="1">  1        2 0.13021113E+00 0.41574245E+03</pdfrwt>
<pdfrwt beam="2">  1       -2 0.78544164E-02 0.41574245E+03</pdfrwt>
<totfact> 0.32239087E+03</totfact>
</mgrwt>
</event>
<event>
 4    1  0.3213443E-005  0.4954239E+03  0.7818608E-02  0.1014980E+00
         -2   -1    0    0    0  501 -0.00000000000E+00  0.00000000000E+00  0.14486205930E+03  0.14486205933E+03  0.25500000000E-02 0. -1.
          2   -1    0    0  501    0  0.00000000000E+00 -0.00000000000E+00 -0.42358368471E+03  0.42358368472E+03  0.25500000000E-02 0.  1.
    5000001    1    1    2    0    0  0.78114046138E+02  0.14787480974E+03 -0.22946907130E+03  0.32840496075E+03  0.16500000000E+03 0.  0.
   -5000001    1    1    2    0    0 -0.78114046138E+02 -0.14787480974E+03 -0.49252554101E+02  0.24004078329E+03  0.16500000000E+03 0.  0.
<mgrwt>
<rscale>  0 0.49542388E+03</rscale>
<asrwt>0</asrwt>
<pdfrwt beam="1">  1        2 0.65166720E-01 0.49542388E+03</pdfrwt>
<pdfrwt beam="2">  1       -2 0.22286471E-01 0.49542388E+03</pdfrwt>
<totfact> 0.13121891E+03</totfact>
</mgrwt>
</event>
<event>
 4    1  0.3213443E-005  0.4347601E+03  0.7818608E-02  0.1032367E+00
         -2   -1    0    0    0  501 -0.00000000000E+00  0.00000000000E+00  0.62907156063E+02  0.62907156115E+02  0.25500000000E-02 0. -1.
          2   -1    0    0  501    0  0.00000000000E+00 -0.00000000000E+00 -0.75117186081E+03  0.75117186082E+03  0.25500000000E-02 0.  1.
    5000001    1    1    2    0    0  0.11906999415E+03 -0.73614465502E+02 -0.38306606397E+03  0.43995609145E+03  0.16500000000E+03 0.  0.
   -5000001    1    1    2    0    0 -0.11906999415E+03  0.73614465502E+02 -0.30519864078E+03  0.37412292548E+03  0.16500000000E+03 0.  0.
<mgrwt>
<rscale>  0 0.43476010E+03</rscale>
<asrwt>0</asrwt>
<pdfrwt beam="1">  1        2 0.11556490E+00 0.43476010E+03</pdfrwt>
<pdfrwt beam="2">  1       -2 0.96780245E-02 0.43476010E+03</pdfrwt>
<totfact> 0.27001873E+03</totfact>
</mgrwt>
</event>
<event>
 4    1  0.3213443E-005  0.4001324E+03  0.7818608E-02  0.1043734E+00
         -2   -1    0    0    0  501 -0.00000000000E+00  0.00000000000E+00  0.78685043643E+02  0.78685043685E+02  0.25500000000E-02 0. -1.
          2   -1    0    0  501    0  0.00000000000E+00 -0.00000000000E+00 -0.50869245867E+03  0.50869245868E+03  0.25500000000E-02 0.  1.
    5000001    1    1    2    0    0 -0.34296543371E+02 -0.10741668416E+03 -0.22868735802E+03  0.30370628022E+03  0.16500000000E+03 0.  0.
   -5000001    1    1    2    0    0  0.34296543371E+02  0.10741668416E+03 -0.20132005701E+03  0.28367122215E+03  0.16500000000E+03 0.  0.
<mgrwt>
<rscale>  0 0.40013242E+03</rscale>
<asrwt>0</asrwt>
<pdfrwt beam="1">  1        2 0.78260376E-01 0.40013242E+03</pdfrwt>
<pdfrwt beam="2">  1       -2 0.12105392E-01 0.40013242E+03</pdfrwt>
<totfact> 0.29928636E+03</totfact>
</mgrwt>
</event>
<event>
 4    1  0.3213443E-005  0.6428841E+03  0.7818608E-02  0.9820224E-01
          2   -1    0    0  501    0  0.00000000000E+00  0.00000000000E+00  0.61378154714E+03  0.61378154714E+03  0.25500000000E-02 0.  1.
         -2   -1    0    0    0  501 -0.00000000000E+00 -0.00000000000E+00 -0.16834161936E+03  0.16834161938E+03  0.25500000000E-02 0. -1.
    5000001    1    1    2    0    0  0.21897812223E+03 -0.91789845712E+02  0.39357627409E+03  0.48836879233E+03  0.16500000000E+03 0.  0.
   -5000001    1    1    2    0    0 -0.21897812223E+03  0.91789845712E+02  0.51863653680E+02  0.29375437420E+03  0.16500000000E+03 0.  0.
<mgrwt>
<rscale>  0 0.64288406E+03</rscale>
<asrwt>0</asrwt>
<pdfrwt beam="1">  1        2 0.94427930E-01 0.64288406E+03</pdfrwt>
<pdfrwt beam="2">  1       -2 0.25898711E-01 0.64288406E+03</pdfrwt>
<totfact> 0.65224466E+02</totfact>
</mgrwt>
</event>
<event>
 4    1  0.3213443E-005  0.5119448E+03  0.7818608E-02  0.1010707E+00
          2   -1    0    0  501    0  0.00000000000E+00  0.00000000000E+00  0.21684695762E+03  0.21684695764E+03  0.25500000000E-02 0.  1.
         -2   -1    0    0    0  501 -0.00000000000E+00 -0.00000000000E+00 -0.30215721502E+03  0.30215721503E+03  0.25500000000E-02 0. -1.
    5000001    1    1    2    0    0  0.32167410049E+02 -0.19263697527E+03 -0.30110073033E+02  0.25744001827E+03  0.16500000000E+03 0.  0.
   -5000001    1    1    2    0    0 -0.32167410049E+02  0.19263697527E+03 -0.55200184365E+02  0.26156415440E+03  0.16500000000E+03 0.  0.
<mgrwt>
<rscale>  0 0.51194481E+03</rscale>
<asrwt>0</asrwt>
<pdfrwt beam="1">  1        2 0.33361070E-01 0.51194481E+03</pdfrwt>
<pdfrwt beam="2">  1       -2 0.46485726E-01 0.51194481E+03</pdfrwt>
<totfact> 0.69644339E+02</totfact>
</mgrwt>
</event>
<event>
 4    1  0.3213443E-005  0.4456078E+03  0.7818608E-02  0.1029040E+00
          2   -1    0    0  501    0  0.00000000000E+00  0.00000000000E+00  0.96797360197E+03  0.96797360197E+03  0.25500000000E-02 0.  1.
         -2   -1    0    0    0  501 -0.00000000000E+00 -0.00000000000E+00 -0.51284028237E+02  0.51284028300E+02  0.25500000000E-02 0. -1.
    5000001    1    1    2    0    0 -0.13280303671E+03 -0.65105762929E+02  0.51155579392E+03  0.55748519013E+03  0.16500000000E+03 0.  0.
   -5000001    1    1    2    0    0  0.13280303671E+03  0.65105762929E+02  0.40513377982E+03  0.46177244014E+03  0.16500000000E+03 0.  0.
<mgrwt>
<rscale>  0 0.44560783E+03</rscale>
<asrwt>0</asrwt>
<pdfrwt beam="1">  1        2 0.14891902E+00 0.44560783E+03</pdfrwt>
<pdfrwt beam="2">  1       -2 0.78898502E-02 0.44560783E+03</pdfrwt>
<totfact> 0.26641910E+03</totfact>
</mgrwt>
</event>
<event>
 4    1  0.3213443E-005  0.6106251E+03  0.7818608E-02  0.9883604E-01
          2   -1    0    0  501    0  0.00000000000E+00  0.00000000000E+00  0.79917656961E+03  0.79917656961E+03  0.25500000000E-02 0.  1.
         -2   -1    0    0    0  501 -0.00000000000E+00 -0.00000000000E+00 -0.11663976117E+03  0.11663976119E+03  0.25500000000E-02 0. -1.
    5000001    1    1    2    0    0  0.26781860687E+02  0.21249881614E+03  0.55399578929E+03  0.61644898368E+03  0.16500000000E+03 0.  0.
   -5000001    1    1    2    0    0 -0.26781860687E+02 -0.21249881614E+03  0.12854101915E+03  0.29936734713E+03  0.16500000000E+03 0.  0.
<mgrwt>
<rscale>  0 0.61062514E+03</rscale>
<asrwt>0</asrwt>
<pdfrwt beam="1">  1        2 0.12295024E+00 0.61062514E+03</pdfrwt>
<pdfrwt beam="2">  1       -2 0.17944579E-01 0.61062514E+03</pdfrwt>
<totfact> 0.89419244E+02</totfact>
</mgrwt>
</event>
<event>
 4    1  0.3213443E-005  0.9587849E+03  0.7818608E-02  0.9354941E-01
          2   -1    0    0  501    0  0.00000000000E+00  0.00000000000E+00  0.25214216369E+04  0.25214216369E+04  0.25500000000E-02 0.  1.
         -2   -1    0    0    0  501 -0.00000000000E+00 -0.00000000000E+00 -0.91145851643E+02  0.91145851679E+02  0.25500000000E-02 0. -1.
    5000001    1    1    2    0    0  0.21693883135E+03  0.34941497189E+03  0.71685961496E+03  0.84277279660E+03  0.16500000000E+03 0.  0.
   -5000001    1    1    2    0    0 -0.21693883135E+03 -0.34941497189E+03  0.17134161703E+04  0.17697946919E+04  0.16500000000E+03 0.  0.
<mgrwt>
<rscale>  0 0.95878490E+03</rscale>
<asrwt>0</asrwt>
<pdfrwt beam="1">  1        2 0.38791097E+00 0.95878490E+03</pdfrwt>
<pdfrwt beam="2">  1       -2 0.14022441E-01 0.95878490E+03</pdfrwt>
<totfact> 0.13513417E+02</totfact>
</mgrwt>
</event>
<event>
 4    1  0.3213443E-005  0.3853682E+03  0.7818608E-02  0.1048967E+00
         -2   -1    0    0    0  501 -0.00000000000E+00  0.00000000000E+00  0.74799387301E+02  0.74799387345E+02  0.25500000000E-02 0. -1.
          2   -1    0    0  501    0  0.00000000000E+00 -0.00000000000E+00 -0.49635639465E+03  0.49635639465E+03  0.25500000000E-02 0.  1.
    5000001    1    1    2    0    0  0.61315903455E+02 -0.54782700018E+02 -0.29384737230E+03  0.34688912125E+03  0.16500000000E+03 0.  0.
   -5000001    1    1    2    0    0 -0.61315903455E+02  0.54782700018E+02 -0.12770963505E+03  0.22426666075E+03  0.16500000000E+03 0.  0.
<mgrwt>
<rscale>  0 0.38536816E+03</rscale>
<asrwt>0</asrwt>
<pdfrwt beam="1">  1        2 0.76362520E-01 0.38536816E+03</pdfrwt>
<pdfrwt beam="2">  1       -2 0.11507598E-01 0.38536816E+03</pdfrwt>
<totfact> 0.33400088E+03</totfact>
</mgrwt>
</event>
<event>
 4    1  0.3213443E-005  0.7227863E+03  0.7818608E-02  0.9679039E-01
          2   -1    0    0  501    0  0.00000000000E+00  0.00000000000E+00  0.11275137539E+04  0.11275137539E+04  0.25500000000E-02 0.  1.
         -2   -1    0    0    0  501 -0.00000000000E+00 -0.00000000000E+00 -0.11583451578E+03  0.11583451581E+03  0.25500000000E-02 0. -1.
    5000001    1    1    2    0    0  0.18699570492E+03  0.25741666517E+03  0.42608992357E+03  0.55678394027E+03  0.16500000000E+03 0.  0.
   -5000001    1    1    2    0    0 -0.18699570492E+03 -0.25741666517E+03  0.58558931454E+03  0.68656432945E+03  0.16500000000E+03 0.  0.
<mgrwt>
<rscale>  0 0.72278630E+03</rscale>
<asrwt>0</asrwt>
<pdfrwt beam="1">  1        2 0.17346365E+00 0.72278630E+03</pdfrwt>
<pdfrwt beam="2">  1       -2 0.17820695E-01 0.72278630E+03</pdfrwt>
<totfact> 0.55097293E+02</totfact>
</mgrwt>
</event>
<event>
 4    1  0.3213443E-005  0.4601066E+03  0.7818608E-02  0.1024750E+00
          2   -1    0    0  501    0  0.00000000000E+00  0.00000000000E+00  0.43316248351E+04  0.43316248351E+04  0.25500000000E-02 0.  1.
         -2   -1    0    0    0  501 -0.00000000000E+00 -0.00000000000E+00 -0.12218168032E+02  0.12218168298E+02  0.25500000000E-02 0. -1.
    5000001    1    1    2    0    0  0.56227251313E+02  0.10736540600E+03  0.31503592925E+04  0.31570045147E+04  0.16500000000E+03 0.  0.
   -5000001    1    1    2    0    0 -0.56227251313E+02 -0.10736540600E+03  0.11690473746E+04  0.11868384887E+04  0.16500000000E+03 0.  0.
<mgrwt>
<rscale>  0 0.46010660E+03</rscale>
<asrwt>0</asrwt>
<pdfrwt beam="1">  1        2 0.66640484E+00 0.46010660E+03</pdfrwt>
<pdfrwt beam="2">  1       -2 0.18797153E-02 0.46010660E+03</pdfrwt>
<totfact> 0.19279817E+02</totfact>
</mgrwt>
</event>
<event>
 4    1  0.3213443E-005  0.1306930E+04  0.7818608E-02  0.9024087E-01
         -2   -1    0    0    0  501 -0.00000000000E+00  0.00000000000E+00  0.22646585588E+03  0.22646585589E+03  0.25500000000E-02 0. -1.
          2   -1    0    0  501    0  0.00000000000E+00 -0.00000000000E+00 -0.18855679115E+04  0.18855679115E+04  0.25500000000E-02 0.  1.
    5000001    1    1    2    0    0  0.35718312393E+03 -0.48881241996E+03 -0.53476735576E+03  0.82445041738E+03  0.16500000000E+03 0.  0.
   -5000001    1    1    2    0    0 -0.35718312393E+03  0.48881241996E+03 -0.11243346999E+04  0.12875833500E+04  0.16500000000E+03 0.  0.
<mgrwt>
<rscale>  0 0.13069304E+04</rscale>
<asrwt>0</asrwt>
<pdfrwt beam="1">  1        2 0.29008736E+00 0.13069304E+04</pdfrwt>
<pdfrwt beam="2">  1       -2 0.34840902E-01 0.13069304E+04</pdfrwt>
<totfact> 0.58583358E+01</totfact>
</mgrwt>
</event>
<event>
 4    1  0.3213443E-005  0.4886915E+03  0.7818608E-02  0.1016773E+00
          2   -1    0    0  501    0  0.00000000000E+00  0.00000000000E+00  0.13522935719E+04  0.13522935719E+04  0.25500000000E-02 0.  1.
         -2   -1    0    0    0  501 -0.00000000000E+00 -0.00000000000E+00 -0.44150795566E+02  0.44150795639E+02  0.25500000000E-02 0. -1.
    5000001    1    1    2    0    0 -0.31160348539E+02  0.45871035651E+02  0.16406990735E+03  0.23920504537E+03  0.16500000000E+03 0.  0.
   -5000001    1    1    2    0    0  0.31160348539E+02 -0.45871035651E+02  0.11440728690E+04  0.11572393222E+04  0.16500000000E+03 0.  0.
<mgrwt>
<rscale>  0 0.48869147E+03</rscale>
<asrwt>0</asrwt>
<pdfrwt beam="1">  1        2 0.20804515E+00 0.48869147E+03</pdfrwt>
<pdfrwt beam="2">  1       -2 0.67924305E-02 0.48869147E+03</pdfrwt>
<totfact> 0.19971393E+03</totfact>
</mgrwt>
</event>
<event>
 4    1  0.3213443E-005  0.4897419E+03  0.7818608E-02  0.1016492E+00
         -2   -1    0    0    0  501 -0.00000000000E+00  0.00000000000E+00  0.61233151752E+03  0.61233151753E+03  0.25500000000E-02 0. -1.
          2   -1    0    0  501    0  0.00000000000E+00 -0.00000000000E+00 -0.97923737427E+02  0.97923737460E+02  0.25500000000E-02 0.  1.
    5000001    1    1    2    0    0  0.65444927084E+02  0.13787394863E+03  0.39814486095E+03  0.45720519955E+03  0.16500000000E+03 0.  0.
   -5000001    1    1    2    0    0 -0.65444927084E+02 -0.13787394863E+03  0.11626291914E+03  0.25305005544E+03  0.16500000000E+03 0.  0.
<mgrwt>
<rscale>  0 0.48974194E+03</rscale>
<asrwt>0</asrwt>
<pdfrwt beam="1">  1        2 0.15065190E-01 0.48974194E+03</pdfrwt>
<pdfrwt beam="2">  1       -2 0.94204848E-01 0.48974194E+03</pdfrwt>
<totfact> 0.38319505E+02</totfact>
</mgrwt>
</event>
<event>
 4    1  0.3213443E-005  0.6909674E+03  0.7818608E-02  0.9732805E-01
         -2   -1    0    0    0  501 -0.00000000000E+00  0.00000000000E+00  0.27316910782E+02  0.27316910901E+02  0.25500000000E-02 0. -1.
          2   -1    0    0  501    0  0.00000000000E+00 -0.00000000000E+00 -0.43694176841E+04  0.43694176841E+04  0.25500000000E-02 0.  1.
    5000001    1    1    2    0    0  0.27278681960E+03  0.12692871255E+03 -0.19156945408E+04  0.19461845032E+04  0.16500000000E+03 0.  0.
   -5000001    1    1    2    0    0 -0.27278681960E+03 -0.12692871255E+03 -0.24264062326E+04  0.24505500918E+04  0.16500000000E+03 0.  0.
<mgrwt>
<rscale>  0 0.69096742E+03</rscale>
<asrwt>0</asrwt>
<pdfrwt beam="1">  1        2 0.67221755E+00 0.69096742E+03</pdfrwt>
<pdfrwt beam="2">  1       -2 0.42026051E-02 0.69096742E+03</pdfrwt>
<totfact> 0.50319311E+01</totfact>
</mgrwt>
</event>
<event>
 4    1  0.3213443E-005  0.4271544E+03  0.7818608E-02  0.1034763E+00
          2   -1    0    0  501    0  0.00000000000E+00  0.00000000000E+00  0.19034304442E+04  0.19034304442E+04  0.25500000000E-02 0.  1.
         -2   -1    0    0    0  501 -0.00000000000E+00 -0.00000000000E+00 -0.23964746784E+02  0.23964746920E+02  0.25500000000E-02 0. -1.
    5000001    1    1    2    0    0 -0.19751018080E+02 -0.13243545751E+03  0.10366107739E+04  0.10581664093E+04  0.16500000000E+03 0.  0.
   -5000001    1    1    2    0    0  0.19751018080E+02  0.13243545751E+03  0.84285492351E+03  0.86922878186E+03  0.16500000000E+03 0.  0.
<mgrwt>
<rscale>  0 0.42715444E+03</rscale>
<asrwt>0</asrwt>
<pdfrwt beam="1">  1        2 0.29283561E+00 0.42715444E+03</pdfrwt>
<pdfrwt beam="2">  1       -2 0.36868822E-02 0.42715444E+03</pdfrwt>
<totfact> 0.25799577E+03</totfact>
</mgrwt>
</event>
<event>
 4    1  0.3213443E-005  0.5206367E+03  0.7818608E-02  0.1008528E+00
         -2   -1    0    0    0  501 -0.00000000000E+00  0.00000000000E+00  0.31661153892E+03  0.31661153893E+03  0.25500000000E-02 0. -1.
          2   -1    0    0  501    0  0.00000000000E+00 -0.00000000000E+00 -0.21403406340E+03  0.21403406342E+03  0.25500000000E-02 0.  1.
    5000001    1    1    2    0    0 -0.14810549944E+03 -0.12895114566E+03  0.59702939993E+01  0.25656243167E+03  0.16500000000E+03 0.  0.
   -5000001    1    1    2    0    0  0.14810549944E+03  0.12895114566E+03  0.96607181520E+02  0.27408317069E+03  0.16500000000E+03 0.  0.
<mgrwt>
<rscale>  0 0.52063674E+03</rscale>
<asrwt>0</asrwt>
<pdfrwt beam="1">  1        2 0.32928318E-01 0.52063674E+03</pdfrwt>
<pdfrwt beam="2">  1       -2 0.48709467E-01 0.52063674E+03</pdfrwt>
<totfact> 0.64348673E+02</totfact>
</mgrwt>
</event>
<event>
 4    1  0.3213443E-005  0.5672565E+03  0.7818608E-02  0.9975768E-01
         -2   -1    0    0    0  501 -0.00000000000E+00  0.00000000000E+00  0.45259167810E+02  0.45259167882E+02  0.25500000000E-02 0. -1.
          2   -1    0    0  501    0  0.00000000000E+00 -0.00000000000E+00 -0.17774295106E+04  0.17774295106E+04  0.25500000000E-02 0.  1.
    5000001    1    1    2    0    0 -0.18601042132E+03 -0.12278909469E+03 -0.67482918282E+03  0.72958650249E+03  0.16500000000E+03 0.  0.
   -5000001    1    1    2    0    0  0.18601042132E+03  0.12278909469E+03 -0.10573411600E+04  0.10931021760E+04  0.16500000000E+03 0.  0.
<mgrwt>
<rscale>  0 0.56725649E+03</rscale>
<asrwt>0</asrwt>
<pdfrwt beam="1">  1        2 0.27345064E+00 0.56725649E+03</pdfrwt>
<pdfrwt beam="2">  1       -2 0.69629503E-02 0.56725649E+03</pdfrwt>
<totfact> 0.11201348E+03</totfact>
</mgrwt>
</event>
<event>
 4    1  0.3213443E-005  0.6906292E+03  0.7818608E-02  0.9733393E-01
         -2   -1    0    0    0  501 -0.00000000000E+00  0.00000000000E+00  0.35482342744E+03  0.35482342745E+03  0.25500000000E-02 0. -1.
          2   -1    0    0  501    0  0.00000000000E+00 -0.00000000000E+00 -0.33606056138E+03  0.33606056139E+03  0.25500000000E-02 0.  1.
    5000001    1    1    2    0    0  0.22427428482E+03 -0.19002718444E+03  0.84294807489E+02  0.34747647435E+03  0.16500000000E+03 0.  0.
   -5000001    1    1    2    0    0 -0.22427428482E+03  0.19002718444E+03 -0.65531941424E+02  0.34340751449E+03  0.16500000000E+03 0.  0.
<mgrwt>
<rscale>  0 0.69062916E+03</rscale>
<asrwt>0</asrwt>
<pdfrwt beam="1">  1        2 0.51701625E-01 0.69062916E+03</pdfrwt>
<pdfrwt beam="2">  1       -2 0.54588220E-01 0.69062916E+03</pdfrwt>
<totfact> 0.30834471E+02</totfact>
</mgrwt>
</event>
<event>
 4    1  0.3213443E-005  0.3845191E+03  0.7818608E-02  0.1049276E+00
         -2   -1    0    0    0  501 -0.00000000000E+00  0.00000000000E+00  0.16209885700E+04  0.16209885700E+04  0.25500000000E-02 0. -1.
          2   -1    0    0  501    0  0.00000000000E+00 -0.00000000000E+00 -0.22803209531E+02  0.22803209673E+02  0.25500000000E-02 0.  1.
    5000001    1    1    2    0    0 -0.98257298673E+02 -0.36707925152E+01  0.76312971521E+03  0.78693070451E+03  0.16500000000E+03 0.  0.
   -5000001    1    1    2    0    0  0.98257298673E+02  0.36707925152E+01  0.83505564531E+03  0.85686107522E+03  0.16500000000E+03 0.  0.
<mgrwt>
<rscale>  0 0.38451914E+03</rscale>
<asrwt>0</asrwt>
<pdfrwt beam="1">  1        2 0.35081863E-02 0.38451914E+03</pdfrwt>
<pdfrwt beam="2">  1       -2 0.24938284E+00 0.38451914E+03</pdfrwt>
<totfact> 0.18224204E+02</totfact>
</mgrwt>
</event>
<event>
 4    1  0.3213443E-005  0.3975513E+03  0.7818608E-02  0.1044631E+00
          2   -1    0    0  501    0  0.00000000000E+00  0.00000000000E+00  0.29076966967E+03  0.29076966968E+03  0.25500000000E-02 0.  1.
         -2   -1    0    0    0  501 -0.00000000000E+00 -0.00000000000E+00 -0.13588680849E+03  0.13588680851E+03  0.25500000000E-02 0. -1.
    5000001    1    1    2    0    0 -0.10515468037E+03  0.15544990458E+02  0.11116842520E+03  0.22557165667E+03  0.16500000000E+03 0.  0.
   -5000001    1    1    2    0    0  0.10515468037E+03 -0.15544990458E+02  0.43714435977E+02  0.20108482152E+03  0.16500000000E+03 0.  0.
<mgrwt>
<rscale>  0 0.39755132E+03</rscale>
<asrwt>0</asrwt>
<pdfrwt beam="1">  1        2 0.44733795E-01 0.39755132E+03</pdfrwt>
<pdfrwt beam="2">  1       -2 0.20905663E-01 0.39755132E+03</pdfrwt>
<totfact> 0.22162751E+03</totfact>
</mgrwt>
</event>
<event>
 4    1  0.3213443E-005  0.5521111E+03  0.7818608E-02  0.1001006E+00
          2   -1    0    0  501    0  0.00000000000E+00  0.00000000000E+00  0.94925513705E+03  0.94925513705E+03  0.25500000000E-02 0.  1.
         -2   -1    0    0    0  501 -0.00000000000E+00 -0.00000000000E+00 -0.80280492622E+02  0.80280492663E+02  0.25500000000E-02 0. -1.
    5000001    1    1    2    0    0  0.17693881504E+03  0.13095659119E+03  0.47720121810E+03  0.55082027522E+03  0.16500000000E+03 0.  0.
   -5000001    1    1    2    0    0 -0.17693881504E+03 -0.13095659119E+03  0.39177342633E+03  0.47871535449E+03  0.16500000000E+03 0.  0.
<mgrwt>
<rscale>  0 0.55211111E+03</rscale>
<asrwt>0</asrwt>
<pdfrwt beam="1">  1        2 0.14603926E+00 0.55211111E+03</pdfrwt>
<pdfrwt beam="2">  1       -2 0.12350844E-01 0.55211111E+03</pdfrwt>
<totfact> 0.13277203E+03</totfact>
</mgrwt>
</event>
<event>
 4    1  0.3213443E-005  0.4408914E+03  0.7818608E-02  0.1030474E+00
          2   -1    0    0  501    0  0.00000000000E+00  0.00000000000E+00  0.47466211833E+02  0.47466211901E+02  0.25500000000E-02 0.  1.
         -2   -1    0    0    0  501 -0.00000000000E+00 -0.00000000000E+00 -0.10238084925E+04  0.10238084926E+04  0.25500000000E-02 0. -1.
    5000001    1    1    2    0    0 -0.74728973508E+02 -0.12167725603E+03 -0.41204698681E+03  0.46625904115E+03  0.16500000000E+03 0.  0.
   -5000001    1    1    2    0    0  0.74728973508E+02  0.12167725603E+03 -0.56429529390E+03  0.60501566330E+03  0.16500000000E+03 0.  0.
<mgrwt>
<rscale>  0 0.44089142E+03</rscale>
<asrwt>0</asrwt>
<pdfrwt beam="1">  1        2 0.73024949E-02 0.44089142E+03</pdfrwt>
<pdfrwt beam="2">  1       -2 0.15750898E+00 0.44089142E+03</pdfrwt>
<totfact> 0.26712302E+02</totfact>
</mgrwt>
</event>
<event>
 4    1  0.3213443E-005  0.4788973E+03  0.7818608E-02  0.1019439E+00
         -2   -1    0    0    0  501 -0.00000000000E+00  0.00000000000E+00  0.38307483481E+02  0.38307483566E+02  0.25500000000E-02 0. -1.
          2   -1    0    0  501    0  0.00000000000E+00 -0.00000000000E+00 -0.14967222392E+04  0.14967222392E+04  0.25500000000E-02 0.  1.
    5000001    1    1    2    0    0  0.31729443846E+01  0.17096775948E+03 -0.82378507521E+03  0.85737208520E+03  0.16500000000E+03 0.  0.
   -5000001    1    1    2    0    0 -0.31729443846E+01 -0.17096775948E+03 -0.63462968047E+03  0.67765763752E+03  0.16500000000E+03 0.  0.
<mgrwt>
<rscale>  0 0.47889733E+03</rscale>
<asrwt>0</asrwt>
<pdfrwt beam="1">  1        2 0.23026492E+00 0.47889733E+03</pdfrwt>
<pdfrwt beam="2">  1       -2 0.58934602E-02 0.47889733E+03</pdfrwt>
<totfact> 0.20742907E+03</totfact>
</mgrwt>
</event>
<event>
 4    1  0.3213443E-005  0.4165494E+03  0.7818608E-02  0.1038195E+00
          2   -1    0    0  501    0  0.00000000000E+00  0.00000000000E+00  0.14885717856E+04  0.14885717857E+04  0.25500000000E-02 0.  1.
         -2   -1    0    0    0  501 -0.00000000000E+00 -0.00000000000E+00 -0.29140912714E+02  0.29140912825E+02  0.25500000000E-02 0. -1.
    5000001    1    1    2    0    0  0.73431745806E+02 -0.97945668877E+02  0.85422447301E+03  0.87858410277E+03  0.16500000000E+03 0.  0.
   -5000001    1    1    2    0    0 -0.73431745806E+02  0.97945668877E+02  0.60520639993E+03  0.63912859571E+03  0.16500000000E+03 0.  0.
<mgrwt>
<rscale>  0 0.41654935E+03</rscale>
<asrwt>0</asrwt>
<pdfrwt beam="1">  1        2 0.22901112E+00 0.41654935E+03</pdfrwt>
<pdfrwt beam="2">  1       -2 0.44832159E-02 0.41654935E+03</pdfrwt>
<totfact> 0.32003079E+03</totfact>
</mgrwt>
</event>
<event>
 4    1  0.3213443E-005  0.5013517E+03  0.7818608E-02  0.1013427E+00
          2   -1    0    0  501    0  0.00000000000E+00  0.00000000000E+00  0.21781417606E+04  0.21781417606E+04  0.25500000000E-02 0.  1.
         -2   -1    0    0    0  501 -0.00000000000E+00 -0.00000000000E+00 -0.28849532471E+02  0.28849532584E+02  0.25500000000E-02 0. -1.
    5000001    1    1    2    0    0  0.73173547698E+02 -0.32820997127E+02  0.32265260032E+03  0.37116207568E+03  0.16500000000E+03 0.  0.
   -5000001    1    1    2    0    0 -0.73173547698E+02  0.32820997127E+02  0.18266396278E+04  0.18358292175E+04  0.16500000000E+03 0.  0.
<mgrwt>
<rscale>  0 0.50135166E+03</rscale>
<asrwt>0</asrwt>
<pdfrwt beam="1">  1        2 0.33509879E+00 0.50135166E+03</pdfrwt>
<pdfrwt beam="2">  1       -2 0.44383889E-02 0.50135166E+03</pdfrwt>
<totfact> 0.13771552E+03</totfact>
</mgrwt>
</event>
<event>
 4    1  0.3213443E-005  0.5031531E+03  0.7818608E-02  0.1012959E+00
          2   -1    0    0  501    0  0.00000000000E+00  0.00000000000E+00  0.27729919258E+03  0.27729919259E+03  0.25500000000E-02 0.  1.
         -2   -1    0    0    0  501 -0.00000000000E+00 -0.00000000000E+00 -0.22823997434E+03  0.22823997435E+03  0.25500000000E-02 0. -1.
    5000001    1    1    2    0    0  0.12636614471E+03 -0.25103112902E+02  0.16471614664E+03  0.26637375578E+03  0.16500000000E+03 0.  0.
   -5000001    1    1    2    0    0 -0.12636614471E+03  0.25103112902E+02 -0.11565692840E+03  0.23916541116E+03  0.16500000000E+03 0.  0.
<mgrwt>
<rscale>  0 0.50315310E+03</rscale>
<asrwt>0</asrwt>
<pdfrwt beam="1">  1        2 0.42661414E-01 0.50315310E+03</pdfrwt>
<pdfrwt beam="2">  1       -2 0.35113842E-01 0.50315310E+03</pdfrwt>
<totfact> 0.91481311E+02</totfact>
</mgrwt>
</event>
<event>
 4    1  0.3213443E-005  0.9189679E+03  0.7818608E-02  0.9402176E-01
          2   -1    0    0  501    0  0.00000000000E+00  0.00000000000E+00  0.13725323154E+04  0.13725323154E+04  0.25500000000E-02 0.  1.
         -2   -1    0    0    0  501 -0.00000000000E+00 -0.00000000000E+00 -0.15382188161E+03  0.15382188163E+03  0.25500000000E-02 0. -1.
    5000001    1    1    2    0    0 -0.20607643739E+03 -0.37596515343E+03  0.59420428375E+03  0.75107990618E+03  0.16500000000E+03 0.  0.
   -5000001    1    1    2    0    0  0.20607643739E+03  0.37596515343E+03  0.62450615008E+03  0.77527429089E+03  0.16500000000E+03 0.  0.
<mgrwt>
<rscale>  0 0.91896791E+03</rscale>
<asrwt>0</asrwt>
<pdfrwt beam="1">  1        2 0.21115882E+00 0.91896791E+03</pdfrwt>
<pdfrwt beam="2">  1       -2 0.23664905E-01 0.91896791E+03</pdfrwt>
<totfact> 0.23794964E+02</totfact>
</mgrwt>
</event>
<event>
 4    1  0.3213443E-005  0.3705482E+03  0.7818608E-02  0.1054484E+00
          2   -1    0    0  501    0  0.00000000000E+00  0.00000000000E+00  0.48965878212E+03  0.48965878213E+03  0.25500000000E-02 0.  1.
         -2   -1    0    0    0  501 -0.00000000000E+00 -0.00000000000E+00 -0.70102881590E+02  0.70102881636E+02  0.25500000000E-02 0. -1.
    5000001    1    1    2    0    0 -0.82710905608E+02 -0.12751687567E+02  0.22471657246E+03  0.29107771708E+03  0.16500000000E+03 0.  0.
   -5000001    1    1    2    0    0  0.82710905608E+02  0.12751687567E+02  0.19483932807E+03  0.26868394668E+03  0.16500000000E+03 0.  0.
<mgrwt>
<rscale>  0 0.37054820E+03</rscale>
<asrwt>0</asrwt>
<pdfrwt beam="1">  1        2 0.75332121E-01 0.37054820E+03</pdfrwt>
<pdfrwt beam="2">  1       -2 0.10785059E-01 0.37054820E+03</pdfrwt>
<totfact> 0.37642842E+03</totfact>
</mgrwt>
</event>
<event>
 4    1  0.3213443E-005  0.6086139E+03  0.7818608E-02  0.9887694E-01
          2   -1    0    0  501    0  0.00000000000E+00  0.00000000000E+00  0.10452990721E+03  0.10452990724E+03  0.25500000000E-02 0.  1.
         -2   -1    0    0    0  501 -0.00000000000E+00 -0.00000000000E+00 -0.88589692851E+03  0.88589692852E+03  0.25500000000E-02 0. -1.
    5000001    1    1    2    0    0  0.60249892263E+02 -0.15718662871E+03 -0.77487490536E+02  0.24812697748E+03  0.16500000000E+03 0.  0.
   -5000001    1    1    2    0    0 -0.60249892263E+02  0.15718662871E+03 -0.70387953077E+03  0.74229985828E+03  0.16500000000E+03 0.  0.
<mgrwt>
<rscale>  0 0.60861391E+03</rscale>
<asrwt>0</asrwt>
<pdfrwt beam="1">  1        2 0.16081525E-01 0.60861391E+03</pdfrwt>
<pdfrwt beam="2">  1       -2 0.13629183E+00 0.60861391E+03</pdfrwt>
<totfact> 0.14399720E+02</totfact>
</mgrwt>
</event>
<event>
 4    1  0.3213443E-005  0.5144890E+03  0.7818608E-02  0.1010065E+00
          2   -1    0    0  501    0  0.00000000000E+00  0.00000000000E+00  0.57548824860E+03  0.57548824861E+03  0.25500000000E-02 0.  1.
         -2   -1    0    0    0  501 -0.00000000000E+00 -0.00000000000E+00 -0.11498883605E+03  0.11498883608E+03  0.25500000000E-02 0. -1.
    5000001    1    1    2    0    0  0.10684833252E+03  0.16572690383E+03  0.24129637347E+03  0.35260588859E+03  0.16500000000E+03 0.  0.
   -5000001    1    1    2    0    0 -0.10684833252E+03 -0.16572690383E+03  0.21920303907E+03  0.33787119610E+03  0.16500000000E+03 0.  0.
<mgrwt>
<rscale>  0 0.51448897E+03</rscale>
<asrwt>0</asrwt>
<pdfrwt beam="1">  1        2 0.88536653E-01 0.51448897E+03</pdfrwt>
<pdfrwt beam="2">  1       -2 0.17690590E-01 0.51448897E+03</pdfrwt>
<totfact> 0.13789289E+03</totfact>
</mgrwt>
</event>
<event>
 4    1  0.3213443E-005  0.4323460E+03  0.7818608E-02  0.1033121E+00
          2   -1    0    0  501    0  0.00000000000E+00  0.00000000000E+00  0.47450963050E+03  0.47450963051E+03  0.25500000000E-02 0.  1.
         -2   -1    0    0    0  501 -0.00000000000E+00 -0.00000000000E+00 -0.98482234763E+02  0.98482234796E+02  0.25500000000E-02 0. -1.
    5000001    1    1    2    0    0  0.12916550708E+03  0.22627733016E+02  0.12431574699E+03  0.24469398740E+03  0.16500000000E+03 0.  0.
   -5000001    1    1    2    0    0 -0.12916550708E+03 -0.22627733016E+02  0.25171164875E+03  0.32829787791E+03  0.16500000000E+03 0.  0.
<mgrwt>
<rscale>  0 0.43234601E+03</rscale>
<asrwt>0</asrwt>
<pdfrwt beam="1">  1        2 0.73001481E-01 0.43234601E+03</pdfrwt>
<pdfrwt beam="2">  1       -2 0.15151113E-01 0.43234601E+03</pdfrwt>
<totfact> 0.22370786E+03</totfact>
</mgrwt>
</event>
<event>
 4    1  0.3213443E-005  0.4562315E+03  0.7818608E-02  0.1025880E+00
         -2   -1    0    0    0  501 -0.00000000000E+00  0.00000000000E+00  0.70201602799E+02  0.70201602845E+02  0.25500000000E-02 0. -1.
          2   -1    0    0  501    0  0.00000000000E+00 -0.00000000000E+00 -0.74124792382E+03  0.74124792382E+03  0.25500000000E-02 0.  1.
    5000001    1    1    2    0    0 -0.98137327811E+02 -0.10848069749E+03 -0.43942695066E+03  0.49165032472E+03  0.16500000000E+03 0.  0.
   -5000001    1    1    2    0    0  0.98137327811E+02  0.10848069749E+03 -0.23161937036E+03  0.31979920195E+03  0.16500000000E+03 0.  0.
<mgrwt>
<rscale>  0 0.45623149E+03</rscale>
<asrwt>0</asrwt>
<pdfrwt beam="1">  1        2 0.11403814E+00 0.45623149E+03</pdfrwt>
<pdfrwt beam="2">  1       -2 0.10800247E-01 0.45623149E+03</pdfrwt>
<totfact> 0.23011812E+03</totfact>
</mgrwt>
</event>
<event>
 4    1  0.3213443E-005  0.6936215E+03  0.7818608E-02  0.9728203E-01
          2   -1    0    0  501    0  0.00000000000E+00  0.00000000000E+00  0.37005596991E+03  0.37005596992E+03  0.25500000000E-02 0.  1.
         -2   -1    0    0    0  501 -0.00000000000E+00 -0.00000000000E+00 -0.32502569088E+03  0.32502569089E+03  0.25500000000E-02 0. -1.
    5000001    1    1    2    0    0  0.93772490580E+02  0.28097682959E+03  0.95548176759E+02  0.35227221411E+03  0.16500000000E+03 0.  0.
   -5000001    1    1    2    0    0 -0.93772490580E+02 -0.28097682959E+03 -0.50517897726E+02  0.34280944670E+03  0.16500000000E+03 0.  0.
<mgrwt>
<rscale>  0 0.69362150E+03</rscale>
<asrwt>0</asrwt>
<pdfrwt beam="1">  1        2 0.56931688E-01 0.69362150E+03</pdfrwt>
<pdfrwt beam="2">  1       -2 0.50003952E-01 0.69362150E+03</pdfrwt>
<totfact> 0.33147465E+02</totfact>
</mgrwt>
</event>
<event>
 4    1  0.3213443E-005  0.4009128E+03  0.7818608E-02  0.1043464E+00
          2   -1    0    0  501    0  0.00000000000E+00  0.00000000000E+00  0.14491763623E+04  0.14491763623E+04  0.25500000000E-02 0.  1.
         -2   -1    0    0    0  501 -0.00000000000E+00 -0.00000000000E+00 -0.27728003441E+02  0.27728003558E+02  0.25500000000E-02 0. -1.
    5000001    1    1    2    0    0  0.40756162300E+02 -0.10625282959E+03  0.70095072051E+03  0.72904570580E+03  0.16500000000E+03 0.  0.
   -5000001    1    1    2    0    0 -0.40756162300E+02  0.10625282959E+03  0.72049763835E+03  0.74785866006E+03  0.16500000000E+03 0.  0.
<mgrwt>
<rscale>  0 0.40091279E+03</rscale>
<asrwt>0</asrwt>
<pdfrwt beam="1">  1        2 0.22295021E+00 0.40091279E+03</pdfrwt>
<pdfrwt beam="2">  1       -2 0.42658466E-02 0.40091279E+03</pdfrwt>
<totfact> 0.36288219E+03</totfact>
</mgrwt>
</event>
<event>
 4    1  0.3213443E-005  0.3540859E+03  0.7818608E-02  0.1060950E+00
         -2   -1    0    0    0  501 -0.00000000000E+00  0.00000000000E+00  0.14216727755E+02  0.14216727984E+02  0.25500000000E-02 0. -1.
          2   -1    0    0  501    0  0.00000000000E+00 -0.00000000000E+00 -0.22047409996E+04  0.22047409996E+04  0.25500000000E-02 0.  1.
    5000001    1    1    2    0    0 -0.46197062376E+02 -0.18144463621E+02 -0.84025870634E+03  0.85774301729E+03  0.16500000000E+03 0.  0.
   -5000001    1    1    2    0    0  0.46197062376E+02  0.18144463621E+02 -0.13502655655E+04  0.13612147103E+04  0.16500000000E+03 0.  0.
<mgrwt>
<rscale>  0 0.35408588E+03</rscale>
<asrwt>0</asrwt>
<pdfrwt beam="1">  1        2 0.33919065E+00 0.35408588E+03</pdfrwt>
<pdfrwt beam="2">  1       -2 0.21871907E-02 0.35408588E+03</pdfrwt>
<totfact> 0.39106284E+03</totfact>
</mgrwt>
</event>
<event>
 4    1  0.3213443E-005  0.4003905E+03  0.7818608E-02  0.1043645E+00
         -2   -1    0    0    0  501 -0.00000000000E+00  0.00000000000E+00  0.61394223977E+02  0.61394224030E+02  0.25500000000E-02 0. -1.
          2   -1    0    0  501    0  0.00000000000E+00 -0.00000000000E+00 -0.65279970999E+03  0.65279970999E+03  0.25500000000E-02 0.  1.
    5000001    1    1    2    0    0  0.81679328886E+02  0.75374661069E+02 -0.33559960215E+03  0.39013452200E+03  0.16500000000E+03 0.  0.
   -5000001    1    1    2    0    0 -0.81679328886E+02 -0.75374661069E+02 -0.25580588387E+03  0.32405941202E+03  0.16500000000E+03 0.  0.
<mgrwt>
<rscale>  0 0.40039047E+03</rscale>
<asrwt>0</asrwt>
<pdfrwt beam="1">  1        2 0.10043072E+00 0.40039047E+03</pdfrwt>
<pdfrwt beam="2">  1       -2 0.94452657E-02 0.40039047E+03</pdfrwt>
<totfact> 0.33369712E+03</totfact>
</mgrwt>
</event>
<event>
 4    1  0.3213443E-005  0.6341816E+03  0.7818608E-02  0.9836923E-01
          2   -1    0    0  501    0  0.00000000000E+00  0.00000000000E+00  0.81670077564E+03  0.81670077565E+03  0.25500000000E-02 0.  1.
         -2   -1    0    0    0  501 -0.00000000000E+00 -0.00000000000E+00 -0.12311311660E+03  0.12311311662E+03  0.25500000000E-02 0. -1.
    5000001    1    1    2    0    0  0.25410080223E+03  0.51613159694E+02  0.23114197009E+03  0.38455525778E+03  0.16500000000E+03 0.  0.
   -5000001    1    1    2    0    0 -0.25410080223E+03 -0.51613159694E+02  0.46244568895E+03  0.55525863449E+03  0.16500000000E+03 0.  0.
<mgrwt>
<rscale>  0 0.63418161E+03</rscale>
<asrwt>0</asrwt>
<pdfrwt beam="1">  1        2 0.12564628E+00 0.63418161E+03</pdfrwt>
<pdfrwt beam="2">  1       -2 0.18940479E-01 0.63418161E+03</pdfrwt>
<totfact> 0.79110987E+02</totfact>
</mgrwt>
</event>
<event>
 4    1  0.3213443E-005  0.3747290E+03  0.7818608E-02  0.1052899E+00
         -2   -1    0    0    0  501 -0.00000000000E+00  0.00000000000E+00  0.52593465376E+02  0.52593465438E+02  0.25500000000E-02 0. -1.
          2   -1    0    0  501    0  0.00000000000E+00 -0.00000000000E+00 -0.66748694831E+03  0.66748694832E+03  0.25500000000E-02 0.  1.
    5000001    1    1    2    0    0  0.54613878349E+02 -0.69872548843E+02 -0.29985630192E+03  0.35355855327E+03  0.16500000000E+03 0.  0.
   -5000001    1    1    2    0    0 -0.54613878349E+02  0.69872548843E+02 -0.31503718101E+03  0.36652186048E+03  0.16500000000E+03 0.  0.
<mgrwt>
<rscale>  0 0.37472898E+03</rscale>
<asrwt>0</asrwt>
<pdfrwt beam="1">  1        2 0.10269029E+00 0.37472898E+03</pdfrwt>
<pdfrwt beam="2">  1       -2 0.80913029E-02 0.37472898E+03</pdfrwt>
<totfact> 0.41486958E+03</totfact>
</mgrwt>
</event>
<event>
 4    1  0.3213443E-005  0.1225912E+04  0.7818608E-02  0.9090474E-01
         -2   -1    0    0    0  501 -0.00000000000E+00  0.00000000000E+00  0.11699294578E+03  0.11699294581E+03  0.25500000000E-02 0. -1.
          2   -1    0    0  501    0  0.00000000000E+00 -0.00000000000E+00 -0.32114321140E+04  0.32114321140E+04  0.25500000000E-02 0.  1.
    5000001    1    1    2    0    0 -0.24496186700E+00  0.52804173291E+03 -0.83061953482E+03  0.99798894950E+03  0.16500000000E+03 0.  0.
   -5000001    1    1    2    0    0  0.24496186700E+00 -0.52804173291E+03 -0.22638196334E+04  0.23304361103E+04  0.16500000000E+03 0.  0.
<mgrwt>
<rscale>  0 0.12259117E+04</rscale>
<asrwt>0</asrwt>
<pdfrwt beam="1">  1        2 0.49406641E+00 0.12259117E+04</pdfrwt>
<pdfrwt beam="2">  1       -2 0.17998917E-01 0.12259117E+04</pdfrwt>
<totfact> 0.32842598E+01</totfact>
</mgrwt>
</event>
<event>
 4    1  0.3213443E-005  0.4615788E+03  0.7818608E-02  0.1024324E+00
         -2   -1    0    0    0  501 -0.00000000000E+00  0.00000000000E+00  0.64048247982E+03  0.64048247983E+03  0.25500000000E-02 0. -1.
          2   -1    0    0  501    0  0.00000000000E+00 -0.00000000000E+00 -0.83161900347E+02  0.83161900386E+02  0.25500000000E-02 0.  1.
    5000001    1    1    2    0    0 -0.44311896060E+02 -0.13177654315E+03  0.15023660762E+03  0.26291565135E+03  0.16500000000E+03 0.  0.
   -5000001    1    1    2    0    0  0.44311896060E+02  0.13177654315E+03  0.40708397185E+03  0.46072872886E+03  0.16500000000E+03 0.  0.
<mgrwt>
<rscale>  0 0.46157877E+03</rscale>
<asrwt>0</asrwt>
<pdfrwt beam="1">  1        2 0.12794138E-01 0.46157877E+03</pdfrwt>
<pdfrwt beam="2">  1       -2 0.98535767E-01 0.46157877E+03</pdfrwt>
<totfact> 0.42118848E+02</totfact>
</mgrwt>
</event>
<event>
 4    1  0.3213443E-005  0.5279655E+03  0.7818608E-02  0.1006727E+00
          2   -1    0    0  501    0  0.00000000000E+00  0.00000000000E+00  0.62553592241E+03  0.62553592241E+03  0.25500000000E-02 0.  1.
         -2   -1    0    0    0  501 -0.00000000000E+00 -0.00000000000E+00 -0.11140351387E+03  0.11140351390E+03  0.25500000000E-02 0. -1.
    5000001    1    1    2    0    0  0.10163732052E+03 -0.98989287971E+02  0.48473768740E+02  0.22294333431E+03  0.16500000000E+03 0.  0.
   -5000001    1    1    2    0    0 -0.10163732052E+03  0.98989287971E+02  0.46565863980E+03  0.51399610201E+03  0.16500000000E+03 0.  0.
<mgrwt>
<rscale>  0 0.52796553E+03</rscale>
<asrwt>0</asrwt>
<pdfrwt beam="1">  1        2 0.96236298E-01 0.52796553E+03</pdfrwt>
<pdfrwt beam="2">  1       -2 0.17139002E-01 0.52796553E+03</pdfrwt>
<totfact> 0.13176801E+03</totfact>
</mgrwt>
</event>
<event>
 4    1  0.3213443E-005  0.4325571E+03  0.7818608E-02  0.1033055E+00
         -2   -1    0    0    0  501 -0.00000000000E+00  0.00000000000E+00  0.36506171270E+02  0.36506171359E+02  0.25500000000E-02 0. -1.
          2   -1    0    0  501    0  0.00000000000E+00 -0.00000000000E+00 -0.12813287206E+04  0.12813287206E+04  0.25500000000E-02 0.  1.
    5000001    1    1    2    0    0  0.96385275080E+02 -0.99548509808E+02 -0.56530217449E+03  0.60497237585E+03  0.16500000000E+03 0.  0.
   -5000001    1    1    2    0    0 -0.96385275080E+02  0.99548509808E+02 -0.67952037485E+03  0.71286251613E+03  0.16500000000E+03 0.  0.
<mgrwt>
<rscale>  0 0.43255708E+03</rscale>
<asrwt>0</asrwt>
<pdfrwt beam="1">  1        2 0.19712746E+00 0.43255708E+03</pdfrwt>
<pdfrwt beam="2">  1       -2 0.56163350E-02 0.43255708E+03</pdfrwt>
<totfact> 0.29483751E+03</totfact>
</mgrwt>
</event>
<event>
 4    1  0.3213443E-005  0.4471674E+03  0.7818608E-02  0.1028570E+00
         -2   -1    0    0    0  501 -0.00000000000E+00  0.00000000000E+00  0.51775384810E+03  0.51775384811E+03  0.25500000000E-02 0. -1.
          2   -1    0    0  501    0  0.00000000000E+00 -0.00000000000E+00 -0.96551032473E+02  0.96551032506E+02  0.25500000000E-02 0.  1.
    5000001    1    1    2    0    0  0.25511763594E+01  0.14837779412E+03  0.17317557395E+03  0.28149113255E+03  0.16500000000E+03 0.  0.
   -5000001    1    1    2    0    0 -0.25511763594E+01 -0.14837779412E+03  0.24802724168E+03  0.33281374807E+03  0.16500000000E+03 0.  0.
<mgrwt>
<rscale>  0 0.44716739E+03</rscale>
<asrwt>0</asrwt>
<pdfrwt beam="1">  1        2 0.14854005E-01 0.44716739E+03</pdfrwt>
<pdfrwt beam="2">  1       -2 0.79654437E-01 0.44716739E+03</pdfrwt>
<totfact> 0.57046190E+02</totfact>
</mgrwt>
</event>
<event>
 4    1  0.3213443E-005  0.5181748E+03  0.7818608E-02  0.1009141E+00
         -2   -1    0    0    0  501 -0.00000000000E+00  0.00000000000E+00  0.93938083270E+02  0.93938083305E+02  0.25500000000E-02 0. -1.
          2   -1    0    0  501    0  0.00000000000E+00 -0.00000000000E+00 -0.71457999043E+03  0.71457999044E+03  0.25500000000E-02 0.  1.
    5000001    1    1    2    0    0  0.19851993286E+03  0.21351522589E+02 -0.31958134001E+03  0.41136757789E+03  0.16500000000E+03 0.  0.
   -5000001    1    1    2    0    0 -0.19851993286E+03 -0.21351522589E+02 -0.30106056715E+03  0.39715049585E+03  0.16500000000E+03 0.  0.
<mgrwt>
<rscale>  0 0.51817478E+03</rscale>
<asrwt>0</asrwt>
<pdfrwt beam="1">  1        2 0.10993538E+00 0.51817478E+03</pdfrwt>
<pdfrwt beam="2">  1       -2 0.14452013E-01 0.51817478E+03</pdfrwt>
<totfact> 0.14921239E+03</totfact>
</mgrwt>
</event>
<event>
 4    1  0.3213443E-005  0.7288616E+03  0.7818608E-02  0.9669109E-01
          2   -1    0    0  501    0  0.00000000000E+00  0.00000000000E+00  0.41864092501E+04  0.41864092501E+04  0.25500000000E-02 0.  1.
         -2   -1    0    0    0  501 -0.00000000000E+00 -0.00000000000E+00 -0.31724041961E+02  0.31724042064E+02  0.25500000000E-02 0. -1.
    5000001    1    1    2    0    0 -0.45346025660E+01 -0.29051255266E+03  0.12353622524E+04  0.12797511479E+04  0.16500000000E+03 0.  0.
   -5000001    1    1    2    0    0  0.45346025660E+01  0.29051255266E+03  0.29193229558E+04  0.29383821443E+04  0.16500000000E+03 0.  0.
<mgrwt>
<rscale>  0 0.72886164E+03</rscale>
<asrwt>0</asrwt>
<pdfrwt beam="1">  1        2 0.64406307E+00 0.72886164E+03</pdfrwt>
<pdfrwt beam="2">  1       -2 0.48806210E-02 0.72886164E+03</pdfrwt>
<totfact> 0.57182965E+01</totfact>
</mgrwt>
</event>
<event>
 4    1  0.3213443E-005  0.9091553E+03  0.7818608E-02  0.9414209E-01
          2   -1    0    0  501    0  0.00000000000E+00  0.00000000000E+00  0.90575907242E+03  0.90575907243E+03  0.25500000000E-02 0.  1.
         -2   -1    0    0    0  501 -0.00000000000E+00 -0.00000000000E+00 -0.22814106999E+03  0.22814107000E+03  0.25500000000E-02 0. -1.
    5000001    1    1    2    0    0  0.50100898835E+02 -0.41159520316E+03  0.23083321093E+03  0.50242380775E+03  0.16500000000E+03 0.  0.
   -5000001    1    1    2    0    0 -0.50100898835E+02  0.41159520316E+03  0.44678479151E+03  0.63147633467E+03  0.16500000000E+03 0.  0.
<mgrwt>
<rscale>  0 0.90915531E+03</rscale>
<asrwt>0</asrwt>
<pdfrwt beam="1">  1        2 0.13934755E+00 0.90915531E+03</pdfrwt>
<pdfrwt beam="2">  1       -2 0.35098626E-01 0.90915531E+03</pdfrwt>
<totfact> 0.22170316E+02</totfact>
</mgrwt>
</event>
<event>
 4    1  0.3213443E-005  0.4426108E+03  0.7818608E-02  0.1029949E+00
         -2   -1    0    0    0  501 -0.00000000000E+00  0.00000000000E+00  0.29978853615E+02  0.29978853723E+02  0.25500000000E-02 0. -1.
          2   -1    0    0  501    0  0.00000000000E+00 -0.00000000000E+00 -0.16336877065E+04  0.16336877065E+04  0.25500000000E-02 0.  1.
    5000001    1    1    2    0    0 -0.46277365955E+02 -0.11140795437E+03 -0.48296297700E+03  0.52443451836E+03  0.16500000000E+03 0.  0.
   -5000001    1    1    2    0    0  0.46277365955E+02  0.11140795437E+03 -0.11207458759E+04  0.11392320419E+04  0.16500000000E+03 0.  0.
<mgrwt>
<rscale>  0 0.44261082E+03</rscale>
<asrwt>0</asrwt>
<pdfrwt beam="1">  1        2 0.25133650E+00 0.44261082E+03</pdfrwt>
<pdfrwt beam="2">  1       -2 0.46121326E-02 0.44261082E+03</pdfrwt>
<totfact> 0.25552868E+03</totfact>
</mgrwt>
</event>
<event>
 4    1  0.3213443E-005  0.9986316E+03  0.7818608E-02  0.9310047E-01
         -2   -1    0    0    0  501 -0.00000000000E+00  0.00000000000E+00  0.14173452144E+03  0.14173452146E+03  0.25500000000E-02 0. -1.
          2   -1    0    0  501    0  0.00000000000E+00 -0.00000000000E+00 -0.17590371790E+04  0.17590371790E+04  0.25500000000E-02 0.  1.
    5000001    1    1    2    0    0 -0.45921090376E+03 -0.92951474360E+02 -0.90526828756E+03  0.10325939682E+04  0.16500000000E+03 0.  0.
   -5000001    1    1    2    0    0  0.45921090376E+03  0.92951474360E+02 -0.71203437000E+03  0.86817773225E+03  0.16500000000E+03 0.  0.
<mgrwt>
<rscale>  0 0.99863165E+03</rscale>
<asrwt>0</asrwt>
<pdfrwt beam="1">  1        2 0.27062109E+00 0.99863165E+03</pdfrwt>
<pdfrwt beam="2">  1       -2 0.21805312E-01 0.99863165E+03</pdfrwt>
<totfact> 0.16670160E+02</totfact>
</mgrwt>
</event>
<event>
 4    1  0.3213443E-005  0.3794727E+03  0.7818608E-02  0.1051129E+00
          2   -1    0    0  501    0  0.00000000000E+00  0.00000000000E+00  0.89678447806E+03  0.89678447806E+03  0.25500000000E-02 0.  1.
         -2   -1    0    0    0  501 -0.00000000000E+00 -0.00000000000E+00 -0.40143291131E+02  0.40143291212E+02  0.25500000000E-02 0. -1.
    5000001    1    1    2    0    0 -0.20952738376E+02 -0.88986766023E+02  0.37788844805E+03  0.42235333660E+03  0.16500000000E+03 0.  0.
   -5000001    1    1    2    0    0  0.20952738376E+02  0.88986766023E+02  0.47875273888E+03  0.51457443267E+03  0.16500000000E+03 0.  0.
<mgrwt>
<rscale>  0 0.37947269E+03</rscale>
<asrwt>0</asrwt>
<pdfrwt beam="1">  1        2 0.13796683E+00 0.37947269E+03</pdfrwt>
<pdfrwt beam="2">  1       -2 0.61758917E-02 0.37947269E+03</pdfrwt>
<totfact> 0.43414518E+03</totfact>
</mgrwt>
</event>
<event>
 4    1  0.3213443E-005  0.3440110E+03  0.7818608E-02  0.1065100E+00
         -2   -1    0    0    0  501 -0.00000000000E+00  0.00000000000E+00  0.15501234836E+02  0.15501235046E+02  0.25500000000E-02 0. -1.
          2   -1    0    0  501    0  0.00000000000E+00 -0.00000000000E+00 -0.19086151666E+04  0.19086151666E+04  0.25500000000E-02 0.  1.
    5000001    1    1    2    0    0 -0.29497787015E+01 -0.43600632822E+02 -0.82775274275E+03  0.84516821965E+03  0.16500000000E+03 0.  0.
   -5000001    1    1    2    0    0  0.29497787015E+01  0.43600632822E+02 -0.10653611890E+04  0.10789481820E+04  0.16500000000E+03 0.  0.
<mgrwt>
<rscale>  0 0.34401100E+03</rscale>
<asrwt>0</asrwt>
<pdfrwt beam="1">  1        2 0.29363292E+00 0.34401100E+03</pdfrwt>
<pdfrwt beam="2">  1       -2 0.23848069E-02 0.34401100E+03</pdfrwt>
<totfact> 0.49454550E+03</totfact>
</mgrwt>
</event>
<event>
 4    1  0.3213443E-005  0.3933453E+03  0.7818608E-02  0.1046109E+00
          2   -1    0    0  501    0  0.00000000000E+00  0.00000000000E+00  0.16992301971E+04  0.16992301971E+04  0.25500000000E-02 0. -1.
         -2   -1    0    0    0  501 -0.00000000000E+00 -0.00000000000E+00 -0.22763329910E+02  0.22763330053E+02  0.25500000000E-02 0.  1.
    5000001    1    1    2    0    0 -0.89378033005E+02 -0.37063239757E+02  0.10385165423E+04  0.10559847183E+04  0.16500000000E+03 0.  0.
   -5000001    1    1    2    0    0  0.89378033005E+02  0.37063239757E+02  0.63795032488E+03  0.66600880890E+03  0.16500000000E+03 0.  0.
<mgrwt>
<rscale>  0 0.39334533E+03</rscale>
<asrwt>0</asrwt>
<pdfrwt beam="1">  1        2 0.26141998E+00 0.39334533E+03</pdfrwt>
<pdfrwt beam="2">  1       -2 0.35020515E-02 0.39334533E+03</pdfrwt>
<totfact> 0.35883907E+03</totfact>
</mgrwt>
</event>
<event>
 4    1  0.3213443E-005  0.4997347E+03  0.7818608E-02  0.1013848E+00
          2   -1    0    0  501    0  0.00000000000E+00  0.00000000000E+00  0.14701253632E+04  0.14701253632E+04  0.25500000000E-02 0.  1.
         -2   -1    0    0    0  501 -0.00000000000E+00 -0.00000000000E+00 -0.42468271777E+02  0.42468271853E+02  0.25500000000E-02 0. -1.
    5000001    1    1    2    0    0 -0.10982857614E+03 -0.28625992717E+02  0.26155914972E+03  0.32942366703E+03  0.16500000000E+03 0.  0.
   -5000001    1    1    2    0    0  0.10982857614E+03  0.28625992717E+02  0.11660979417E+04  0.11831699681E+04  0.16500000000E+03 0.  0.
<mgrwt>
<rscale>  0 0.49973466E+03</rscale>
<asrwt>0</asrwt>
<pdfrwt beam="1">  1        2 0.22617312E+00 0.49973466E+03</pdfrwt>
<pdfrwt beam="2">  1       -2 0.65335805E-02 0.49973466E+03</pdfrwt>
<totfact> 0.18249824E+03</totfact>
</mgrwt>
</event>
<event>
 4    1  0.3213443E-005  0.4737431E+03  0.7818608E-02  0.1020869E+00
          2   -1    0    0  501    0  0.00000000000E+00  0.00000000000E+00  0.22444032216E+04  0.22444032216E+04  0.25500000000E-02 0.  1.
         -2   -1    0    0    0  501 -0.00000000000E+00 -0.00000000000E+00 -0.24999126553E+02  0.24999126683E+02  0.25500000000E-02 0. -1.
    5000001    1    1    2    0    0  0.12447348204E+03 -0.95810365076E+02  0.79888718576E+03  0.83073401842E+03  0.16500000000E+03 0.  0.
   -5000001    1    1    2    0    0 -0.12447348204E+03  0.95810365076E+02  0.14205169093E+04  0.14386683298E+04  0.16500000000E+03 0.  0.
<mgrwt>
<rscale>  0 0.47374305E+03</rscale>
<asrwt>0</asrwt>
<pdfrwt beam="1">  1        2 0.34529286E+00 0.47374305E+03</pdfrwt>
<pdfrwt beam="2">  1       -2 0.38460188E-02 0.47374305E+03</pdfrwt>
<totfact> 0.15813185E+03</totfact>
</mgrwt>
</event>
<event>
 4    1  0.3213443E-005  0.4291364E+03  0.7818608E-02  0.1034133E+00
          2   -1    0    0  501    0  0.00000000000E+00  0.00000000000E+00  0.16310150981E+04  0.16310150981E+04  0.25500000000E-02 0.  1.
         -2   -1    0    0    0  501 -0.00000000000E+00 -0.00000000000E+00 -0.28227515820E+02  0.28227515935E+02  0.25500000000E-02 0. -1.
    5000001    1    1    2    0    0  0.16298738509E+02 -0.12791066005E+03  0.62054720245E+03  0.65492794741E+03  0.16500000000E+03 0.  0.
   -5000001    1    1    2    0    0 -0.16298738509E+02  0.12791066005E+03  0.98224037981E+03  0.10043146666E+04  0.16500000000E+03 0.  0.
<mgrwt>
<rscale>  0 0.42913636E+03</rscale>
<asrwt>0</asrwt>
<pdfrwt beam="1">  1        2 0.25092539E+00 0.42913636E+03</pdfrwt>
<pdfrwt beam="2">  1       -2 0.43426949E-02 0.42913636E+03</pdfrwt>
<totfact> 0.28124460E+03</totfact>
</mgrwt>
</event>
<event>
 4    1  0.3213443E-005  0.6268538E+03  0.7818608E-02  0.9851208E-01
          2   -1    0    0  501    0  0.00000000000E+00  0.00000000000E+00  0.80331861934E+03  0.80331861935E+03  0.25500000000E-02 0.  1.
         -2   -1    0    0    0  501 -0.00000000000E+00 -0.00000000000E+00 -0.12228823951E+03  0.12228823954E+03  0.25500000000E-02 0. -1.
    5000001    1    1    2    0    0 -0.12347047391E+03  0.16252124093E+03  0.59349672974E+03  0.64893873355E+03  0.16500000000E+03 0.  0.
   -5000001    1    1    2    0    0  0.12347047391E+03 -0.16252124093E+03  0.87533650089E+02  0.27666812534E+03  0.16500000000E+03 0.  0.
<mgrwt>
<rscale>  0 0.62685379E+03</rscale>
<asrwt>0</asrwt>
<pdfrwt beam="1">  1        2 0.12358748E+00 0.62685379E+03</pdfrwt>
<pdfrwt beam="2">  1       -2 0.18813576E-01 0.62685379E+03</pdfrwt>
<totfact> 0.81823165E+02</totfact>
</mgrwt>
</event>
<event>
 4    1  0.3213443E-005  0.4641236E+03  0.7818608E-02  0.1023592E+00
         -2   -1    0    0    0  501 -0.00000000000E+00  0.00000000000E+00  0.66456497069E+02  0.66456497118E+02  0.25500000000E-02 0. -1.
          2   -1    0    0  501    0  0.00000000000E+00 -0.00000000000E+00 -0.81034484182E+03  0.81034484183E+03  0.25500000000E-02 0.  1.
    5000001    1    1    2    0    0 -0.89838245967E+02  0.96980463525E+02 -0.55266786385E+03  0.59172872879E+03  0.16500000000E+03 0.  0.
   -5000001    1    1    2    0    0  0.89838245967E+02 -0.96980463525E+02 -0.19122048091E+03  0.28507261016E+03  0.16500000000E+03 0.  0.
<mgrwt>
<rscale>  0 0.46412360E+03</rscale>
<asrwt>0</asrwt>
<pdfrwt beam="1">  1        2 0.12466843E+00 0.46412360E+03</pdfrwt>
<pdfrwt beam="2">  1       -2 0.10224077E-01 0.46412360E+03</pdfrwt>
<totfact> 0.22424853E+03</totfact>
</mgrwt>
</event>
<event>
 4    1  0.3213443E-005  0.1424835E+04  0.7818608E-02  0.8936035E-01
          2   -1    0    0  501    0  0.00000000000E+00  0.00000000000E+00  0.15363094269E+04  0.15363094269E+04  0.25500000000E-02 0.  1.
         -2   -1    0    0    0  501 -0.00000000000E+00 -0.00000000000E+00 -0.33036236748E+03  0.33036236749E+03  0.25500000000E-02 0. -1.
    5000001    1    1    2    0    0  0.47674228704E+03  0.49490192993E+03  0.72090181246E+03  0.10095224375E+04  0.16500000000E+03 0.  0.
   -5000001    1    1    2    0    0 -0.47674228704E+03 -0.49490192993E+03  0.48504524695E+03  0.85714935694E+03  0.16500000000E+03 0.  0.
<mgrwt>
<rscale>  0 0.14248352E+04</rscale>
<asrwt>0</asrwt>
<pdfrwt beam="1">  1        2 0.23635529E+00 0.14248352E+04</pdfrwt>
<pdfrwt beam="2">  1       -2 0.50824980E-01 0.14248352E+04</pdfrwt>
<totfact> 0.43045207E+01</totfact>
</mgrwt>
</event>
<event>
 4    1  0.3213443E-005  0.4307359E+03  0.7818608E-02  0.1033628E+00
         -2   -1    0    0    0  501 -0.00000000000E+00  0.00000000000E+00  0.10399289993E+03  0.10399289996E+03  0.25500000000E-02 0. -1.
          2   -1    0    0  501    0  0.00000000000E+00 -0.00000000000E+00 -0.44602427619E+03  0.44602427619E+03  0.25500000000E-02 0.  1.
    5000001    1    1    2    0    0 -0.61658947128E+02 -0.68367721789E+02 -0.30299301042E+03  0.35707945265E+03  0.16500000000E+03 0.  0.
   -5000001    1    1    2    0    0  0.61658947128E+02  0.68367721789E+02 -0.39038365832E+02  0.19293772350E+03  0.16500000000E+03 0.  0.
<mgrwt>
<rscale>  0 0.43073592E+03</rscale>
<asrwt>0</asrwt>
<pdfrwt beam="1">  1        2 0.68619119E-01 0.43073592E+03</pdfrwt>
<pdfrwt beam="2">  1       -2 0.15998908E-01 0.43073592E+03</pdfrwt>
<totfact> 0.21888548E+03</totfact>
</mgrwt>
</event>
<event>
 4    1  0.3213443E-005  0.3852387E+03  0.7818608E-02  0.1049014E+00
          2   -1    0    0  501    0  0.00000000000E+00  0.00000000000E+00  0.17091999222E+04  0.17091999222E+04  0.25500000000E-02 0.  1.
         -2   -1    0    0    0  501 -0.00000000000E+00 -0.00000000000E+00 -0.21707358654E+02  0.21707358804E+02  0.25500000000E-02 0. -1.
    5000001    1    1    2    0    0 -0.77825200736E+02  0.56647282171E+02  0.73263552418E+03  0.75712976942E+03  0.16500000000E+03 0.  0.
   -5000001    1    1    2    0    0  0.77825200736E+02 -0.56647282171E+02  0.95485703933E+03  0.97377751155E+03  0.16500000000E+03 0.  0.
<mgrwt>
<rscale>  0 0.38523871E+03</rscale>
<asrwt>0</asrwt>
<pdfrwt beam="1">  1        2 0.26295389E+00 0.38523871E+03</pdfrwt>
<pdfrwt beam="2">  1       -2 0.33395930E-02 0.38523871E+03</pdfrwt>
<totfact> 0.38088824E+03</totfact>
</mgrwt>
</event>
<event>
 4    1  0.3213443E-005  0.3621917E+03  0.7818608E-02  0.1057719E+00
         -2   -1    0    0    0  501 -0.00000000000E+00  0.00000000000E+00  0.23230302217E+02  0.23230302357E+02  0.25500000000E-02 0. -1.
          2   -1    0    0  501    0  0.00000000000E+00 -0.00000000000E+00 -0.14117638787E+04  0.14117638787E+04  0.25500000000E-02 0.  1.
    5000001    1    1    2    0    0 -0.68432969712E+02 -0.15702413495E+00 -0.57622882334E+03  0.60328082420E+03  0.16500000000E+03 0.  0.
   -5000001    1    1    2    0    0  0.68432969712E+02  0.15702413495E+00 -0.81230475316E+03  0.83171335687E+03  0.16500000000E+03 0.  0.
<mgrwt>
<rscale>  0 0.36219167E+03</rscale>
<asrwt>0</asrwt>
<pdfrwt beam="1">  1        2 0.21719438E+00 0.36219167E+03</pdfrwt>
<pdfrwt beam="2">  1       -2 0.35738938E-02 0.36219167E+03</pdfrwt>
<totfact> 0.49755504E+03</totfact>
</mgrwt>
</event>
<event>
 4    1  0.3213443E-005  0.6403629E+03  0.7818608E-02  0.9825032E-01
          2   -1    0    0  501    0  0.00000000000E+00  0.00000000000E+00  0.33898318366E+04  0.33898318366E+04  0.25500000000E-02 0.  1.
         -2   -1    0    0    0  501 -0.00000000000E+00 -0.00000000000E+00 -0.30242259758E+02  0.30242259866E+02  0.25500000000E-02 0. -1.
    5000001    1    1    2    0    0  0.16682257285E+03 -0.78665975425E+02  0.59476239994E+03  0.64419361909E+03  0.16500000000E+03 0.  0.
   -5000001    1    1    2    0    0 -0.16682257285E+03  0.78665975425E+02  0.27648271769E+04  0.27758804774E+04  0.16500000000E+03 0.  0.
<mgrwt>
<rscale>  0 0.64036294E+03</rscale>
<asrwt>0</asrwt>
<pdfrwt beam="1">  1        2 0.52151277E+00 0.64036294E+03</pdfrwt>
<pdfrwt beam="2">  1       -2 0.46526538E-02 0.64036294E+03</pdfrwt>
<totfact> 0.24305108E+02</totfact>
</mgrwt>
</event>
<event>
 4    1  0.3213443E-005  0.4377284E+03  0.7818608E-02  0.1031446E+00
         -2   -1    0    0    0  501 -0.00000000000E+00  0.00000000000E+00  0.46681641109E+02  0.46681641178E+02  0.25500000000E-02 0. -1.
          2   -1    0    0  501    0  0.00000000000E+00 -0.00000000000E+00 -0.10261321599E+04  0.10261321599E+04  0.25500000000E-02 0.  1.
    5000001    1    1    2    0    0 -0.11582550454E+03 -0.44708347302E+02 -0.31193775354E+03  0.37409162769E+03  0.16500000000E+03 0.  0.
   -5000001    1    1    2    0    0  0.11582550454E+03  0.44708347302E+02 -0.66751276523E+03  0.69872217337E+03  0.16500000000E+03 0.  0.
<mgrwt>
<rscale>  0 0.43772838E+03</rscale>
<asrwt>0</asrwt>
<pdfrwt beam="1">  1        2 0.15786647E+00 0.43772838E+03</pdfrwt>
<pdfrwt beam="2">  1       -2 0.71817917E-02 0.43772838E+03</pdfrwt>
<totfact> 0.28411952E+03</totfact>
</mgrwt>
</event>
<event>
 4    1  0.3213443E-005  0.6329807E+03  0.7818608E-02  0.9839249E-01
         -2   -1    0    0    0  501 -0.00000000000E+00  0.00000000000E+00  0.17286043431E+03  0.17286043433E+03  0.25500000000E-02 0. -1.
          2   -1    0    0  501    0  0.00000000000E+00 -0.00000000000E+00 -0.57946252677E+03  0.57946252677E+03  0.25500000000E-02 0.  1.
    5000001    1    1    2    0    0  0.18915393595E+03 -0.18912712592E+03 -0.24765864360E+03  0.40013508343E+03  0.16500000000E+03 0.  0.
   -5000001    1    1    2    0    0 -0.18915393595E+03  0.18912712592E+03 -0.15894344886E+03  0.35218787767E+03  0.16500000000E+03 0.  0.
<mgrwt>
<rscale>  0 0.63298071E+03</rscale>
<asrwt>0</asrwt>
<pdfrwt beam="1">  1        2 0.89148080E-01 0.63298071E+03</pdfrwt>
<pdfrwt beam="2">  1       -2 0.26593913E-01 0.63298071E+03</pdfrwt>
<totfact> 0.66624408E+02</totfact>
</mgrwt>
</event>
<event>
 4    1  0.3213443E-005  0.8509707E+03  0.7818608E-02  0.9489035E-01
          2   -1    0    0  501    0  0.00000000000E+00  0.00000000000E+00  0.67896338927E+02  0.67896338975E+02  0.25500000000E-02 0.  1.
         -2   -1    0    0    0  501 -0.00000000000E+00 -0.00000000000E+00 -0.26663847495E+04  0.26663847495E+04  0.25500000000E-02 0. -1.
    5000001    1    1    2    0    0  0.19695934893E+03  0.28673918942E+03 -0.71731755845E+03  0.81411413668E+03  0.16500000000E+03 0.  0.
   -5000001    1    1    2    0    0 -0.19695934893E+03 -0.28673918942E+03 -0.18811708521E+04  0.19201669518E+04  0.16500000000E+03 0.  0.
<mgrwt>
<rscale>  0 0.85097065E+03</rscale>
<asrwt>0</asrwt>
<pdfrwt beam="1">  1        2 0.10445593E-01 0.85097065E+03</pdfrwt>
<pdfrwt beam="2">  1       -2 0.41021296E+00 0.85097065E+03</pdfrwt>
<totfact> 0.42071391E+00</totfact>
</mgrwt>
</event>
<event>
 4    1  0.3213443E-005  0.8032856E+03  0.7818608E-02  0.9555273E-01
          2   -1    0    0  501    0  0.00000000000E+00  0.00000000000E+00  0.72028551330E+03  0.72028551330E+03  0.25500000000E-02 0. -1.
         -2   -1    0    0    0  501 -0.00000000000E+00 -0.00000000000E+00 -0.22396251846E+03  0.22396251847E+03  0.25500000000E-02 0.  1.
    5000001    1    1    2    0    0  0.33596779399E+03  0.39534791218E+02  0.83364923732E+02  0.38550235904E+03  0.16500000000E+03 0.  0.
   -5000001    1    1    2    0    0 -0.33596779399E+03 -0.39534791218E+02  0.41295807111E+03  0.55874567274E+03  0.16500000000E+03 0.  0.
<mgrwt>
<rscale>  0 0.80328565E+03</rscale>
<asrwt>0</asrwt>
<pdfrwt beam="1">  1        2 0.11081315E+00 0.80328565E+03</pdfrwt>
<pdfrwt beam="2">  1       -2 0.34455773E-01 0.80328565E+03</pdfrwt>
<totfact> 0.31341511E+02</totfact>
</mgrwt>
</event>
<event>
 4    1  0.3213443E-005  0.9501649E+03  0.7818608E-02  0.9364958E-01
          2   -1    0    0  501    0  0.00000000000E+00  0.00000000000E+00  0.14041306232E+04  0.14041306232E+04  0.25500000000E-02 0.  1.
         -2   -1    0    0    0  501 -0.00000000000E+00 -0.00000000000E+00 -0.16074241250E+03  0.16074241252E+03  0.25500000000E-02 0. -1.
    5000001    1    1    2    0    0  0.44161495551E+03 -0.34689802730E+02  0.69983644917E+03  0.84452543296E+03  0.16500000000E+03 0.  0.
   -5000001    1    1    2    0    0 -0.44161495551E+03  0.34689802730E+02  0.54355176157E+03  0.72034760279E+03  0.16500000000E+03 0.  0.
<mgrwt>
<rscale>  0 0.95016492E+03</rscale>
<asrwt>0</asrwt>
<pdfrwt beam="1">  1        2 0.21602010E+00 0.95016492E+03</pdfrwt>
<pdfrwt beam="2">  1       -2 0.24729602E-01 0.95016492E+03</pdfrwt>
<totfact> 0.21049896E+02</totfact>
</mgrwt>
</event>
<event>
 4    1  0.3213443E-005  0.4461450E+03  0.7818608E-02  0.1028878E+00
         -2   -1    0    0    0  501 -0.00000000000E+00  0.00000000000E+00  0.69572628064E+02  0.69572628111E+02  0.25500000000E-02 0. -1.
          2   -1    0    0  501    0  0.00000000000E+00 -0.00000000000E+00 -0.71524303966E+03  0.71524303967E+03  0.25500000000E-02 0.  1.
    5000001    1    1    2    0    0  0.77281329027E+02  0.12487877929E+03 -0.26807010744E+03  0.34735240871E+03  0.16500000000E+03 0.  0.
   -5000001    1    1    2    0    0 -0.77281329027E+02 -0.12487877929E+03 -0.37760030416E+03  0.43746325907E+03  0.16500000000E+03 0.  0.
<mgrwt>
<rscale>  0 0.44614499E+03</rscale>
<asrwt>0</asrwt>
<pdfrwt beam="1">  1        2 0.11003739E+00 0.44614499E+03</pdfrwt>
<pdfrwt beam="2">  1       -2 0.10703482E-01 0.44614499E+03</pdfrwt>
<totfact> 0.24418303E+03</totfact>
</mgrwt>
</event>
<event>
 4    1  0.3213443E-005  0.4373247E+03  0.7818608E-02  0.1031571E+00
         -2   -1    0    0    0  501 -0.00000000000E+00  0.00000000000E+00  0.85327972802E+02  0.85327972840E+02  0.25500000000E-02 0. -1.
          2   -1    0    0  501    0  0.00000000000E+00 -0.00000000000E+00 -0.56034642811E+03  0.56034642812E+03  0.25500000000E-02 0.  1.
    5000001    1    1    2    0    0 -0.98579220680E+02 -0.77748362216E+02 -0.34007044198E+03  0.39829081848E+03  0.16500000000E+03 0.  0.
   -5000001    1    1    2    0    0  0.98579220680E+02  0.77748362216E+02 -0.13494801333E+03  0.24738358248E+03  0.16500000000E+03 0.  0.
<mgrwt>
<rscale>  0 0.43732471E+03</rscale>
<asrwt>0</asrwt>
<pdfrwt beam="1">  1        2 0.86207141E-01 0.43732471E+03</pdfrwt>
<pdfrwt beam="2">  1       -2 0.13127381E-01 0.43732471E+03</pdfrwt>
<totfact> 0.23462411E+03</totfact>
</mgrwt>
</event>
<event>
 4    1  0.3213443E-005  0.4938439E+03  0.7818608E-02  0.1015398E+00
         -2   -1    0    0    0  501 -0.00000000000E+00  0.00000000000E+00  0.51904935595E+03  0.51904935596E+03  0.25500000000E-02 0. -1.
          2   -1    0    0  501    0  0.00000000000E+00 -0.00000000000E+00 -0.11746563308E+03  0.11746563311E+03  0.25500000000E-02 0.  1.
    5000001    1    1    2    0    0  0.72626287019E+02  0.13952410352E+03  0.78489616706E+02  0.24109577549E+03  0.16500000000E+03 0.  0.
   -5000001    1    1    2    0    0 -0.72626287019E+02 -0.13952410352E+03  0.32309410616E+03  0.39541921358E+03  0.16500000000E+03 0.  0.
<mgrwt>
<rscale>  0 0.49384395E+03</rscale>
<asrwt>0</asrwt>
<pdfrwt beam="1">  1        2 0.18071636E-01 0.49384395E+03</pdfrwt>
<pdfrwt beam="2">  1       -2 0.79853747E-01 0.49384395E+03</pdfrwt>
<totfact> 0.44890143E+02</totfact>
</mgrwt>
</event>
<event>
 4    1  0.3213443E-005  0.4477926E+03  0.7818608E-02  0.1028382E+00
          2   -1    0    0  501    0  0.00000000000E+00  0.00000000000E+00  0.25647898961E+03  0.25647898962E+03  0.25500000000E-02 0.  1.
         -2   -1    0    0    0  501 -0.00000000000E+00 -0.00000000000E+00 -0.19545288112E+03  0.19545288114E+03  0.25500000000E-02 0. -1.
    5000001    1    1    2    0    0 -0.11861061135E+03  0.41280340759E+02 -0.54718837182E+02  0.21445674342E+03  0.16500000000E+03 0.  0.
   -5000001    1    1    2    0    0  0.11861061135E+03 -0.41280340759E+02  0.11574494567E+03  0.23747512734E+03  0.16500000000E+03 0.  0.
<mgrwt>
<rscale>  0 0.44779262E+03</rscale>
<asrwt>0</asrwt>
<pdfrwt beam="1">  1        2 0.39458306E-01 0.44779262E+03</pdfrwt>
<pdfrwt beam="2">  1       -2 0.30069674E-01 0.44779262E+03</pdfrwt>
<totfact> 0.13302399E+03</totfact>
</mgrwt>
</event>
<event>
 4    1  0.3213443E-005  0.5821858E+03  0.7818608E-02  0.9943070E-01
          2   -1    0    0  501    0  0.00000000000E+00  0.00000000000E+00  0.28810226112E+03  0.28810226113E+03  0.25500000000E-02 0. -1.
         -2   -1    0    0    0  501 -0.00000000000E+00 -0.00000000000E+00 -0.29411454138E+03  0.29411454139E+03  0.25500000000E-02 0.  1.
    5000001    1    1    2    0    0  0.10172649112E+02 -0.17642533753E+03  0.15911568040E+03  0.28943424514E+03  0.16500000000E+03 0.  0.
   -5000001    1    1    2    0    0 -0.10172649112E+02  0.17642533753E+03 -0.16512796067E+03  0.29278255738E+03  0.16500000000E+03 0.  0.
<mgrwt>
<rscale>  0 0.58218576E+03</rscale>
<asrwt>0</asrwt>
<pdfrwt beam="1">  1        2 0.44323425E-01 0.58218576E+03</pdfrwt>
<pdfrwt beam="2">  1       -2 0.45248391E-01 0.58218576E+03</pdfrwt>
<totfact> 0.53622633E+02</totfact>
</mgrwt>
</event>
<event>
 4    1  0.3213443E-005  0.6961605E+03  0.7818608E-02  0.9723821E-01
         -2   -1    0    0    0  501 -0.00000000000E+00  0.00000000000E+00  0.43300059697E+02  0.43300059772E+02  0.25500000000E-02 0. -1.
          2   -1    0    0  501    0  0.00000000000E+00 -0.00000000000E+00 -0.27981451951E+04  0.27981451951E+04  0.25500000000E-02 0.  1.
    5000001    1    1    2    0    0 -0.21404831384E+03 -0.63567253020E+02 -0.52050745633E+03  0.58992413784E+03  0.16500000000E+03 0.  0.
   -5000001    1    1    2    0    0  0.21404831384E+03  0.63567253020E+02 -0.22343376791E+04  0.22515211171E+04  0.16500000000E+03 0.  0.
<mgrwt>
<rscale>  0 0.69616048E+03</rscale>
<asrwt>0</asrwt>
<pdfrwt beam="1">  1        2 0.43048373E+00 0.69616048E+03</pdfrwt>
<pdfrwt beam="2">  1       -2 0.66615498E-02 0.69616048E+03</pdfrwt>
<totfact> 0.32164365E+02</totfact>
</mgrwt>
</event>
<event>
 4    1  0.3213443E-005  0.5516749E+03  0.7818608E-02  0.1001107E+00
          2   -1    0    0  501    0  0.00000000000E+00  0.00000000000E+00  0.15887412437E+04  0.15887412437E+04  0.25500000000E-02 0.  1.
         -2   -1    0    0    0  501 -0.00000000000E+00 -0.00000000000E+00 -0.47890931416E+02  0.47890931484E+02  0.25500000000E-02 0. -1.
    5000001    1    1    2    0    0  0.42062900977E+02  0.21670371866E+03  0.73640431374E+03  0.78628627269E+03  0.16500000000E+03 0.  0.
   -5000001    1    1    2    0    0 -0.42062900977E+02 -0.21670371866E+03  0.80444599850E+03  0.85034590246E+03  0.16500000000E+03 0.  0.
<mgrwt>
<rscale>  0 0.55167490E+03</rscale>
<asrwt>0</asrwt>
<pdfrwt beam="1">  1        2 0.24442178E+00 0.55167490E+03</pdfrwt>
<pdfrwt beam="2">  1       -2 0.73678340E-02 0.55167490E+03</pdfrwt>
<totfact> 0.12976988E+03</totfact>
</mgrwt>
</event>
<event>
 4    1  0.3213443E-005  0.4782223E+03  0.7818608E-02  0.1019625E+00
          2   -1    0    0  501    0  0.00000000000E+00  0.00000000000E+00  0.67281437648E+02  0.67281437696E+02  0.25500000000E-02 0.  1.
         -2   -1    0    0    0  501 -0.00000000000E+00 -0.00000000000E+00 -0.84977579116E+03  0.84977579117E+03  0.25500000000E-02 0. -1.
    5000001    1    1    2    0    0 -0.12621916176E+03 -0.21481424126E+02 -0.61452159097E+03  0.64904122685E+03  0.16500000000E+03 0.  0.
   -5000001    1    1    2    0    0  0.12621916176E+03  0.21481424126E+02 -0.16797276254E+03  0.26801600201E+03  0.16500000000E+03 0.  0.
<mgrwt>
<rscale>  0 0.47822228E+03</rscale>
<asrwt>0</asrwt>
<pdfrwt beam="1">  1        2 0.10350991E-01 0.47822228E+03</pdfrwt>
<pdfrwt beam="2">  1       -2 0.13073473E+00 0.47822228E+03</pdfrwt>
<totfact> 0.27626505E+02</totfact>
</mgrwt>
</event>
<event>
 4    1  0.3213443E-005  0.8349595E+03  0.7818608E-02  0.9510749E-01
          2   -1    0    0  501    0  0.00000000000E+00  0.00000000000E+00  0.12516770360E+04  0.12516770360E+04  0.25500000000E-02 0.  1.
         -2   -1    0    0    0  501 -0.00000000000E+00 -0.00000000000E+00 -0.13924465099E+03  0.13924465101E+03  0.25500000000E-02 0. -1.
    5000001    1    1    2    0    0  0.21881980101E+03  0.30707513699E+03  0.67267231197E+03  0.78860020566E+03  0.16500000000E+03 0.  0.
   -5000001    1    1    2    0    0 -0.21881980101E+03 -0.30707513699E+03  0.43976007306E+03  0.60232148138E+03  0.16500000000E+03 0.  0.
<mgrwt>
<rscale>  0 0.83495948E+03</rscale>
<asrwt>0</asrwt>
<pdfrwt beam="1">  1        2 0.19256570E+00 0.83495948E+03</pdfrwt>
<pdfrwt beam="2">  1       -2 0.21422254E-01 0.83495948E+03</pdfrwt>
<totfact> 0.33527978E+02</totfact>
</mgrwt>
</event>
<event>
 4    1  0.3213443E-005  0.1057238E+04  0.7818608E-02  0.9247903E-01
          2   -1    0    0  501    0  0.00000000000E+00  0.00000000000E+00  0.94553784237E+03  0.94553784237E+03  0.25500000000E-02 0. -1.
         -2   -1    0    0    0  501 -0.00000000000E+00 -0.00000000000E+00 -0.29553331815E+03  0.29553331816E+03  0.25500000000E-02 0.  1.
    5000001    1    1    2    0    0 -0.29588909688E+03  0.38125082237E+03  0.48812688270E+03  0.70597124646E+03  0.16500000000E+03 0.  0.
   -5000001    1    1    2    0    0  0.29588909688E+03 -0.38125082237E+03  0.16187764152E+03  0.53509991407E+03  0.16500000000E+03 0.  0.
<mgrwt>
<rscale>  0 0.10572378E+04</rscale>
<asrwt>0</asrwt>
<pdfrwt beam="1">  1        2 0.14546736E+00 0.10572378E+04</pdfrwt>
<pdfrwt beam="2">  1       -2 0.45466665E-01 0.10572378E+04</pdfrwt>
<totfact> 0.12475288E+02</totfact>
</mgrwt>
</event>
<event>
 4    1  0.3213443E-005  0.3419714E+03  0.7818608E-02  0.1065959E+00
          2   -1    0    0  501    0  0.00000000000E+00  0.00000000000E+00  0.12218005099E+03  0.12218005102E+03  0.25500000000E-02 0.  1.
         -2   -1    0    0    0  501 -0.00000000000E+00 -0.00000000000E+00 -0.23928704795E+03  0.23928704797E+03  0.25500000000E-02 0. -1.
    5000001    1    1    2    0    0  0.31533434520E+02  0.26949002309E+02 -0.76569161005E+02  0.18657020833E+03  0.16500000000E+03 0.  0.
   -5000001    1    1    2    0    0 -0.31533434520E+02 -0.26949002309E+02 -0.40537835956E+02  0.17489689066E+03  0.16500000000E+03 0.  0.
<mgrwt>
<rscale>  0 0.34197137E+03</rscale>
<asrwt>0</asrwt>
<pdfrwt beam="1">  1        2 0.18796931E-01 0.34197137E+03</pdfrwt>
<pdfrwt beam="2">  1       -2 0.36813392E-01 0.34197137E+03</pdfrwt>
<totfact> 0.20926345E+03</totfact>
</mgrwt>
</event>
<event>
 4    1  0.3213443E-005  0.7810847E+03  0.7818608E-02  0.9587807E-01
          2   -1    0    0  501    0  0.00000000000E+00  0.00000000000E+00  0.30560339947E+03  0.30560339948E+03  0.25500000000E-02 0.  1.
         -2   -1    0    0    0  501 -0.00000000000E+00 -0.00000000000E+00 -0.49908912823E+03  0.49908912823E+03  0.25500000000E-02 0. -1.
    5000001    1    1    2    0    0  0.35068773134E+03  0.33773693058E+02 -0.61416727189E+02  0.39385220785E+03  0.16500000000E+03 0.  0.
   -5000001    1    1    2    0    0 -0.35068773134E+03 -0.33773693058E+02 -0.13206900157E+03  0.41084031987E+03  0.16500000000E+03 0.  0.
<mgrwt>
<rscale>  0 0.78108472E+03</rscale>
<asrwt>0</asrwt>
<pdfrwt beam="1">  1        2 0.47015907E-01 0.78108472E+03</pdfrwt>
<pdfrwt beam="2">  1       -2 0.76782943E-01 0.78108472E+03</pdfrwt>
<totfact> 0.16431904E+02</totfact>
</mgrwt>
</event>
<event>
 4    1  0.3213443E-005  0.4835828E+03  0.7818608E-02  0.1018155E+00
          2   -1    0    0  501    0  0.00000000000E+00  0.00000000000E+00  0.15007728969E+03  0.15007728971E+03  0.25500000000E-02 0.  1.
         -2   -1    0    0    0  501 -0.00000000000E+00 -0.00000000000E+00 -0.38955311031E+03  0.38955311032E+03  0.25500000000E-02 0. -1.
    5000001    1    1    2    0    0 -0.71355441872E+02  0.15642423467E+03 -0.16544810957E+03  0.29010035718E+03  0.16500000000E+03 0.  0.
   -5000001    1    1    2    0    0  0.71355441872E+02 -0.15642423467E+03 -0.74027711051E+02  0.24953004284E+03  0.16500000000E+03 0.  0.
<mgrwt>
<rscale>  0 0.48358277E+03</rscale>
<asrwt>0</asrwt>
<pdfrwt beam="1">  1        2 0.23088814E-01 0.48358277E+03</pdfrwt>
<pdfrwt beam="2">  1       -2 0.59931247E-01 0.48358277E+03</pdfrwt>
<totfact> 0.62780188E+02</totfact>
</mgrwt>
</event>
<event>
 4    1  0.3213443E-005  0.9121563E+03  0.7818608E-02  0.9410512E-01
         -2   -1    0    0    0  501 -0.00000000000E+00  0.00000000000E+00  0.77633089112E+02  0.77633089154E+02  0.25500000000E-02 0. -1.
          2   -1    0    0  501    0  0.00000000000E+00 -0.00000000000E+00 -0.26793635700E+04  0.26793635700E+04  0.25500000000E-02 0.  1.
    5000001    1    1    2    0    0  0.10155631973E+02 -0.41821998124E+03 -0.15304797586E+04  0.15951816138E+04  0.16500000000E+03 0.  0.
   -5000001    1    1    2    0    0 -0.10155631973E+02  0.41821998124E+03 -0.10712507223E+04  0.11618150453E+04  0.16500000000E+03 0.  0.
<mgrwt>
<rscale>  0 0.91215628E+03</rscale>
<asrwt>0</asrwt>
<pdfrwt beam="1">  1        2 0.41220971E+00 0.91215628E+03</pdfrwt>
<pdfrwt beam="2">  1       -2 0.11943554E-01 0.91215628E+03</pdfrwt>
<totfact> 0.14383015E+02</totfact>
</mgrwt>
</event>
<event>
 4    1  0.3213443E-005  0.5287411E+03  0.7818608E-02  0.1006538E+00
         -2   -1    0    0    0  501 -0.00000000000E+00  0.00000000000E+00  0.17800213061E+03  0.17800213063E+03  0.25500000000E-02 0. -1.
          2   -1    0    0  501    0  0.00000000000E+00 -0.00000000000E+00 -0.39264584305E+03  0.39264584306E+03  0.25500000000E-02 0.  1.
    5000001    1    1    2    0    0  0.46185504569E+02 -0.15750352494E+03  0.28022125508E+02  0.23441565801E+03  0.16500000000E+03 0.  0.
   -5000001    1    1    2    0    0 -0.46185504569E+02  0.15750352494E+03 -0.24266583795E+03  0.33623231568E+03  0.16500000000E+03 0.  0.
<mgrwt>
<rscale>  0 0.52874113E+03</rscale>
<asrwt>0</asrwt>
<pdfrwt beam="1">  1        2 0.60407053E-01 0.52874113E+03</pdfrwt>
<pdfrwt beam="2">  1       -2 0.27384943E-01 0.52874113E+03</pdfrwt>
<totfact> 0.98795544E+02</totfact>
</mgrwt>
</event>
<event>
 4    1  0.3213443E-005  0.4015987E+03  0.7818608E-02  0.1043228E+00
         -2   -1    0    0    0  501 -0.00000000000E+00  0.00000000000E+00  0.16912151410E+03  0.16912151411E+03  0.25500000000E-02 0. -1.
          2   -1    0    0  501    0  0.00000000000E+00 -0.00000000000E+00 -0.23841066131E+03  0.23841066133E+03  0.25500000000E-02 0.  1.
    5000001    1    1    2    0    0  0.70856230535E+02 -0.35309564249E+02  0.49208008226E+02  0.18950936337E+03  0.16500000000E+03 0.  0.
   -5000001    1    1    2    0    0 -0.70856230535E+02  0.35309564249E+02 -0.11849715544E+03  0.21802281207E+03  0.16500000000E+03 0.  0.
<mgrwt>
<rscale>  0 0.40159867E+03</rscale>
<asrwt>0</asrwt>
<pdfrwt beam="1">  1        2 0.36678563E-01 0.40159867E+03</pdfrwt>
<pdfrwt beam="2">  1       -2 0.26018694E-01 0.40159867E+03</pdfrwt>
<totfact> 0.18722776E+03</totfact>
</mgrwt>
</event>
<event>
 4    1  0.3213443E-005  0.5204441E+03  0.7818608E-02  0.1008576E+00
         -2   -1    0    0    0  501 -0.00000000000E+00  0.00000000000E+00  0.40461530453E+02  0.40461530534E+02  0.25500000000E-02 0. -1.
          2   -1    0    0  501    0  0.00000000000E+00 -0.00000000000E+00 -0.16735780159E+04  0.16735780159E+04  0.25500000000E-02 0.  1.
    5000001    1    1    2    0    0 -0.14039158107E+03 -0.45288655385E+02 -0.12672833655E+04  0.12864653073E+04  0.16500000000E+03 0.  0.
   -5000001    1    1    2    0    0  0.14039158107E+03  0.45288655385E+02 -0.36583311990E+03  0.42757423911E+03  0.16500000000E+03 0.  0.
<mgrwt>
<rscale>  0 0.52044415E+03</rscale>
<asrwt>0</asrwt>
<pdfrwt beam="1">  1        2 0.25747349E+00 0.52044415E+03</pdfrwt>
<pdfrwt beam="2">  1       -2 0.62248521E-02 0.52044415E+03</pdfrwt>
<totfact> 0.15237174E+03</totfact>
</mgrwt>
</event>
<event>
 4    1  0.3213443E-005  0.8719579E+03  0.7818608E-02  0.9461331E-01
         -2   -1    0    0    0  501 -0.00000000000E+00  0.00000000000E+00  0.13537478441E+03  0.13537478443E+03  0.25500000000E-02 0. -1.
          2   -1    0    0  501    0  0.00000000000E+00 -0.00000000000E+00 -0.14040845486E+04  0.14040845486E+04  0.25500000000E-02 0.  1.
    5000001    1    1    2    0    0  0.22489337428E+03  0.29268983700E+03 -0.92234729511E+03  0.10070719454E+04  0.16500000000E+03 0.  0.
   -5000001    1    1    2    0    0 -0.22489337428E+03 -0.29268983700E+03 -0.34636246903E+03  0.53238738756E+03  0.16500000000E+03 0.  0.
<mgrwt>
<rscale>  0 0.87195790E+03</rscale>
<asrwt>0</asrwt>
<pdfrwt beam="1">  1        2 0.21601300E+00 0.87195790E+03</pdfrwt>
<pdfrwt beam="2">  1       -2 0.20826891E-01 0.87195790E+03</pdfrwt>
<totfact> 0.28733013E+02</totfact>
</mgrwt>
</event>
<event>
 4    1  0.3213443E-005  0.5055987E+03  0.7818608E-02  0.1012328E+00
         -2   -1    0    0    0  501 -0.00000000000E+00  0.00000000000E+00  0.87158686889E+02  0.87158686926E+02  0.25500000000E-02 0. -1.
          2   -1    0    0  501    0  0.00000000000E+00 -0.00000000000E+00 -0.73323166033E+03  0.73323166034E+03  0.25500000000E-02 0.  1.
    5000001    1    1    2    0    0  0.12943791070E+03 -0.11766669965E+03 -0.19648438511E+03  0.31053299104E+03  0.16500000000E+03 0.  0.
   -5000001    1    1    2    0    0 -0.12943791070E+03  0.11766669965E+03 -0.44958858834E+03  0.50985735623E+03  0.16500000000E+03 0.  0.
<mgrwt>
<rscale>  0 0.50559869E+03</rscale>
<asrwt>0</asrwt>
<pdfrwt beam="1">  1        2 0.11280487E+00 0.50559869E+03</pdfrwt>
<pdfrwt beam="2">  1       -2 0.13409029E-01 0.50559869E+03</pdfrwt>
<totfact> 0.16365346E+03</totfact>
</mgrwt>
</event>
<event>
 4    1  0.3213443E-005  0.3889391E+03  0.7818608E-02  0.1047678E+00
         -2   -1    0    0    0  501 -0.00000000000E+00  0.00000000000E+00  0.18457620279E+03  0.18457620281E+03  0.25500000000E-02 0. -1.
          2   -1    0    0  501    0  0.00000000000E+00 -0.00000000000E+00 -0.20489321272E+03  0.20489321273E+03  0.25500000000E-02 0.  1.
    5000001    1    1    2    0    0  0.39168549116E+02  0.73231345114E+02 -0.71039474374E+02  0.19791061636E+03  0.16500000000E+03 0.  0.
   -5000001    1    1    2    0    0 -0.39168549116E+02 -0.73231345114E+02  0.50722464451E+02  0.19155879919E+03  0.16500000000E+03 0.  0.
<mgrwt>
<rscale>  0 0.38893913E+03</rscale>
<asrwt>0</asrwt>
<pdfrwt beam="1">  1        2 0.31522033E-01 0.38893913E+03</pdfrwt>
<pdfrwt beam="2">  1       -2 0.28396339E-01 0.38893913E+03</pdfrwt>
<totfact> 0.18888573E+03</totfact>
</mgrwt>
</event>
<event>
 4    1  0.3213443E-005  0.5707301E+03  0.7818608E-02  0.9968064E-01
          2   -1    0    0  501    0  0.00000000000E+00  0.00000000000E+00  0.19152878004E+03  0.19152878006E+03  0.25500000000E-02 0.  1.
         -2   -1    0    0    0  501 -0.00000000000E+00 -0.00000000000E+00 -0.42517477509E+03  0.42517477510E+03  0.25500000000E-02 0. -1.
    5000001    1    1    2    0    0  0.13163699457E+03 -0.19118039360E+03 -0.13645115181E+03  0.31578815378E+03  0.16500000000E+03 0.  0.
   -5000001    1    1    2    0    0 -0.13163699457E+03  0.19118039360E+03 -0.97194843241E+02  0.30091540138E+03  0.16500000000E+03 0.  0.
<mgrwt>
<rscale>  0 0.57073008E+03</rscale>
<asrwt>0</asrwt>
<pdfrwt beam="1">  1        2 0.29465966E-01 0.57073008E+03</pdfrwt>
<pdfrwt beam="2">  1       -2 0.65411503E-01 0.57073008E+03</pdfrwt>
<totfact> 0.39500912E+02</totfact>
</mgrwt>
</event>
<event>
 4    1  0.3213443E-005  0.4912903E+03  0.7818608E-02  0.1016078E+00
         -2   -1    0    0    0  501 -0.00000000000E+00  0.00000000000E+00  0.29548501110E+02  0.29548501220E+02  0.25500000000E-02 0. -1.
          2   -1    0    0  501    0  0.00000000000E+00 -0.00000000000E+00 -0.20421188052E+04  0.20421188052E+04  0.25500000000E-02 0.  1.
    5000001    1    1    2    0    0 -0.98131865322E+02 -0.52501561711E+02 -0.16134187910E+04  0.16256480161E+04  0.16500000000E+03 0.  0.
   -5000001    1    1    2    0    0  0.98131865322E+02  0.52501561711E+02 -0.39915151311E+03  0.44601929038E+03  0.16500000000E+03 0.  0.
<mgrwt>
<rscale>  0 0.49129034E+03</rscale>
<asrwt>0</asrwt>
<pdfrwt beam="1">  1        2 0.31417201E+00 0.49129034E+03</pdfrwt>
<pdfrwt beam="2">  1       -2 0.45459249E-02 0.49129034E+03</pdfrwt>
<totfact> 0.15733748E+03</totfact>
</mgrwt>
</event>
<event>
 4    1  0.3213443E-005  0.7986861E+03  0.7818608E-02  0.9561921E-01
         -2   -1    0    0    0  501 -0.00000000000E+00  0.00000000000E+00  0.69430003979E+02  0.69430004025E+02  0.25500000000E-02 0. -1.
          2   -1    0    0  501    0  0.00000000000E+00 -0.00000000000E+00 -0.22969158285E+04  0.22969158285E+04  0.25500000000E-02 0.  1.
    5000001    1    1    2    0    0 -0.23260834935E+03  0.26600480542E+03 -0.85913742330E+03  0.94350798238E+03  0.16500000000E+03 0.  0.
   -5000001    1    1    2    0    0  0.23260834935E+03 -0.26600480542E+03 -0.13683484012E+04  0.14228378501E+04  0.16500000000E+03 0.  0.
<mgrwt>
<rscale>  0 0.79868611E+03</rscale>
<asrwt>0</asrwt>
<pdfrwt beam="1">  1        2 0.35337161E+00 0.79868611E+03</pdfrwt>
<pdfrwt beam="2">  1       -2 0.10681541E-01 0.79868611E+03</pdfrwt>
<totfact> 0.28825113E+02</totfact>
</mgrwt>
</event>
<event>
 4    1  0.3213443E-005  0.4482815E+03  0.7818608E-02  0.1028236E+00
         -2   -1    0    0    0  501 -0.00000000000E+00  0.00000000000E+00  0.66902623359E+02  0.66902623408E+02  0.25500000000E-02 0. -1.
          2   -1    0    0  501    0  0.00000000000E+00 -0.00000000000E+00 -0.75092841361E+03  0.75092841362E+03  0.25500000000E-02 0.  1.
    5000001    1    1    2    0    0 -0.13460833669E+03  0.69377269558E+02 -0.35847988791E+03  0.42268834840E+03  0.16500000000E+03 0.  0.
   -5000001    1    1    2    0    0  0.13460833669E+03 -0.69377269558E+02 -0.32554590234E+03  0.39514268862E+03  0.16500000000E+03 0.  0.
<mgrwt>
<rscale>  0 0.44828152E+03</rscale>
<asrwt>0</asrwt>
<pdfrwt beam="1">  1        2 0.11552744E+00 0.44828152E+03</pdfrwt>
<pdfrwt beam="2">  1       -2 0.10292712E-01 0.44828152E+03</pdfrwt>
<totfact> 0.24468051E+03</totfact>
</mgrwt>
</event>
<event>
 4    1  0.3213443E-005  0.3616630E+03  0.7818608E-02  0.1057927E+00
          2   -1    0    0  501    0  0.00000000000E+00  0.00000000000E+00  0.86353948793E+03  0.86353948794E+03  0.25500000000E-02 0.  1.
         -2   -1    0    0    0  501 -0.00000000000E+00 -0.00000000000E+00 -0.37867441112E+02  0.37867441198E+02  0.25500000000E-02 0. -1.
    5000001    1    1    2    0    0 -0.65021636767E+02 -0.31199004149E+02  0.37159162496E+03  0.41292435972E+03  0.16500000000E+03 0.  0.
   -5000001    1    1    2    0    0  0.65021636767E+02  0.31199004149E+02  0.45408042186E+03  0.48848256941E+03  0.16500000000E+03 0.  0.
<mgrwt>
<rscale>  0 0.36166300E+03</rscale>
<asrwt>0</asrwt>
<pdfrwt beam="1">  1        2 0.13285222E+00 0.36166300E+03</pdfrwt>
<pdfrwt beam="2">  1       -2 0.58257608E-02 0.36166300E+03</pdfrwt>
<totfact> 0.49956366E+03</totfact>
</mgrwt>
</event>
<event>
 4    1  0.3213443E-005  0.3928150E+03  0.7818608E-02  0.1046296E+00
          2   -1    0    0  501    0  0.00000000000E+00  0.00000000000E+00  0.19720855318E+04  0.19720855318E+04  0.25500000000E-02 0.  1.
         -2   -1    0    0    0  501 -0.00000000000E+00 -0.00000000000E+00 -0.19560971148E+02  0.19560971314E+02  0.25500000000E-02 0. -1.
    5000001    1    1    2    0    0 -0.94990110563E+02  0.31122563020E+01  0.12203749777E+04  0.12351408395E+04  0.16500000000E+03 0.  0.
   -5000001    1    1    2    0    0  0.94990110563E+02 -0.31122563020E+01  0.73214958302E+03  0.75650566367E+03  0.16500000000E+03 0.  0.
<mgrwt>
<rscale>  0 0.39281501E+03</rscale>
<asrwt>0</asrwt>
<pdfrwt beam="1">  1        2 0.30339791E+00 0.39281501E+03</pdfrwt>
<pdfrwt beam="2">  1       -2 0.30093788E-02 0.39281501E+03</pdfrwt>
<totfact> 0.32272506E+03</totfact>
</mgrwt>
</event>
<event>
 4    1  0.3213443E-005  0.4778233E+03  0.7818608E-02  0.1019735E+00
         -2   -1    0    0    0  501 -0.00000000000E+00  0.00000000000E+00  0.12482152565E+03  0.12482152567E+03  0.25500000000E-02 0. -1.
          2   -1    0    0  501    0  0.00000000000E+00 -0.00000000000E+00 -0.45728303782E+03  0.45728303783E+03  0.25500000000E-02 0.  1.
    5000001    1    1    2    0    0 -0.68952617971E+02 -0.12395759313E+03 -0.46038820186E+02  0.22240620806E+03  0.16500000000E+03 0.  0.
   -5000001    1    1    2    0    0  0.68952617971E+02  0.12395759313E+03 -0.28642269199E+03  0.35969835544E+03  0.16500000000E+03 0.  0.
<mgrwt>
<rscale>  0 0.47782326E+03</rscale>
<asrwt>0</asrwt>
<pdfrwt beam="1">  1        2 0.70351235E-01 0.47782326E+03</pdfrwt>
<pdfrwt beam="2">  1       -2 0.19203312E-01 0.47782326E+03</pdfrwt>
<totfact> 0.15606322E+03</totfact>
</mgrwt>
</event>
<event>
 4    1  0.3213443E-005  0.2614143E+04  0.7818608E-02  0.8363413E-01
         -2   -1    0    0    0  501 -0.00000000000E+00  0.00000000000E+00  0.62904217148E+03  0.62904217149E+03  0.25500000000E-02 0. -1.
          2   -1    0    0  501    0  0.00000000000E+00 -0.00000000000E+00 -0.27159316395E+04  0.27159316395E+04  0.25500000000E-02 0.  1.
    5000001    1    1    2    0    0  0.12211382868E+04 -0.38602534375E+03 -0.78430057298E+03  0.15108099385E+04  0.16500000000E+03 0.  0.
   -5000001    1    1    2    0    0 -0.12211382868E+04  0.38602534375E+03 -0.13025888950E+04  0.18341638725E+04  0.16500000000E+03 0.  0.
<mgrwt>
<rscale>  0 0.26141427E+04</rscale>
<asrwt>0</asrwt>
<pdfrwt beam="1">  1        2 0.41783563E+00 0.26141427E+04</pdfrwt>
<pdfrwt beam="2">  1       -2 0.96775720E-01 0.26141427E+04</pdfrwt>
<totfact> 0.20479623E+00</totfact>
</mgrwt>
</event>
<event>
 4    1  0.3213443E-005  0.4545472E+03  0.7818608E-02  0.1026375E+00
         -2   -1    0    0    0  501 -0.00000000000E+00  0.00000000000E+00  0.32100044249E+02  0.32100044350E+02  0.25500000000E-02 0. -1.
          2   -1    0    0  501    0  0.00000000000E+00 -0.00000000000E+00 -0.16091347002E+04  0.16091347002E+04  0.25500000000E-02 0.  1.
    5000001    1    1    2    0    0 -0.14099246496E+03 -0.64792202753E+02 -0.72083322638E+03  0.75558086593E+03  0.16500000000E+03 0.  0.
   -5000001    1    1    2    0    0  0.14099246496E+03  0.64792202753E+02 -0.85620142962E+03  0.88565387867E+03  0.16500000000E+03 0.  0.
<mgrwt>
<rscale>  0 0.45454723E+03</rscale>
<asrwt>0</asrwt>
<pdfrwt beam="1">  1        2 0.24755912E+00 0.45454723E+03</pdfrwt>
<pdfrwt beam="2">  1       -2 0.49384696E-02 0.45454723E+03</pdfrwt>
<totfact> 0.23707852E+03</totfact>
</mgrwt>
</event>
<event>
 4    1  0.3213443E-005  0.4974865E+03  0.7818608E-02  0.1014437E+00
          2   -1    0    0  501    0  0.00000000000E+00  0.00000000000E+00  0.22695548793E+04  0.22695548793E+04  0.25500000000E-02 0.  1.
         -2   -1    0    0    0  501 -0.00000000000E+00 -0.00000000000E+00 -0.27262266237E+02  0.27262266357E+02  0.25500000000E-02 0. -1.
    5000001    1    1    2    0    0 -0.12488421529E+03 -0.12425346620E+03  0.13986649798E+04  0.14193391831E+04  0.16500000000E+03 0.  0.
   -5000001    1    1    2    0    0  0.12488421529E+03  0.12425346620E+03  0.84362763326E+03  0.87747796251E+03  0.16500000000E+03 0.  0.
<mgrwt>
<rscale>  0 0.49748652E+03</rscale>
<asrwt>0</asrwt>
<pdfrwt beam="1">  1        2 0.34916220E+00 0.49748652E+03</pdfrwt>
<pdfrwt beam="2">  1       -2 0.41941958E-02 0.49748652E+03</pdfrwt>
<totfact> 0.13397284E+03</totfact>
</mgrwt>
</event>
<event>
 4    1  0.3213443E-005  0.4107536E+03  0.7818608E-02  0.1040118E+00
          2   -1    0    0  501    0  0.00000000000E+00  0.00000000000E+00  0.70334616721E+02  0.70334616768E+02  0.25500000000E-02 0.  1.
         -2   -1    0    0    0  501 -0.00000000000E+00 -0.00000000000E+00 -0.59969950919E+03  0.59969950919E+03  0.25500000000E-02 0. -1.
    5000001    1    1    2    0    0  0.55951538674E+02 -0.10238339088E+03 -0.32443321654E+03  0.38222355422E+03  0.16500000000E+03 0.  0.
   -5000001    1    1    2    0    0 -0.55951538674E+02  0.10238339088E+03 -0.20493167593E+03  0.28781057174E+03  0.16500000000E+03 0.  0.
<mgrwt>
<rscale>  0 0.41075363E+03</rscale>
<asrwt>0</asrwt>
<pdfrwt beam="1">  1        2 0.10820711E-01 0.41075363E+03</pdfrwt>
<pdfrwt beam="2">  1       -2 0.92261460E-01 0.41075363E+03</pdfrwt>
<totfact> 0.60356442E+02</totfact>
</mgrwt>
</event>
<event>
 4    1  0.3213443E-005  0.5433065E+03  0.7818608E-02  0.1003055E+00
         -2   -1    0    0    0  501 -0.00000000000E+00  0.00000000000E+00  0.11750393290E+03  0.11750393292E+03  0.25500000000E-02 0.  1.
          2   -1    0    0  501    0  0.00000000000E+00 -0.00000000000E+00 -0.62802576874E+03  0.62802576874E+03  0.25500000000E-02 0. -1.
    5000001    1    1    2    0    0 -0.14444101278E+03  0.14874499688E+03 -0.17313201931E+03  0.31652484322E+03  0.16500000000E+03 0.  0.
   -5000001    1    1    2    0    0  0.14444101278E+03 -0.14874499688E+03 -0.33738981654E+03  0.42900485845E+03  0.16500000000E+03 0.  0.
<mgrwt>
<rscale>  0 0.54330654E+03</rscale>
<asrwt>0</asrwt>
<pdfrwt beam="1">  1        2 0.96619347E-01 0.54330654E+03</pdfrwt>
<pdfrwt beam="2">  1       -2 0.18077528E-01 0.54330654E+03</pdfrwt>
<totfact> 0.11969318E+03</totfact>
</mgrwt>
</event>
<event>
 4    1  0.3213443E-005  0.5393057E+03  0.7818608E-02  0.1004000E+00
         -2   -1    0    0    0  501 -0.00000000000E+00  0.00000000000E+00  0.40709542980E+03  0.40709542981E+03  0.25500000000E-02 0. -1.
          2   -1    0    0  501    0  0.00000000000E+00 -0.00000000000E+00 -0.17861328948E+03  0.17861328949E+03  0.25500000000E-02 0.  1.
    5000001    1    1    2    0    0 -0.15667618045E+03 -0.12637453140E+03  0.19080285529E+03  0.32272074196E+03  0.16500000000E+03 0.  0.
   -5000001    1    1    2    0    0  0.15667618045E+03  0.12637453140E+03  0.37679285039E+02  0.26298797734E+03  0.16500000000E+03 0.  0.
<mgrwt>
<rscale>  0 0.53930568E+03</rscale>
<asrwt>0</asrwt>
<pdfrwt beam="1">  1        2 0.27478968E-01 0.53930568E+03</pdfrwt>
<pdfrwt beam="2">  1       -2 0.62630066E-01 0.53930568E+03</pdfrwt>
<totfact> 0.46902684E+02</totfact>
</mgrwt>
</event>
<event>
 4    1  0.3213443E-005  0.6913032E+03  0.7818608E-02  0.9732221E-01
          2   -1    0    0  501    0  0.00000000000E+00  0.00000000000E+00  0.96141409663E+03  0.96141409663E+03  0.25500000000E-02 0.  1.
         -2   -1    0    0    0  501 -0.00000000000E+00 -0.00000000000E+00 -0.12427011815E+03  0.12427011818E+03  0.25500000000E-02 0. -1.
    5000001    1    1    2    0    0 -0.29113393754E+03  0.82612152539E+02  0.37803310303E+03  0.51158358488E+03  0.16500000000E+03 0.  0.
   -5000001    1    1    2    0    0  0.29113393754E+03 -0.82612152539E+02  0.45911087544E+03  0.57410062993E+03  0.16500000000E+03 0.  0.
<mgrwt>
<rscale>  0 0.69130324E+03</rscale>
<asrwt>0</asrwt>
<pdfrwt beam="1">  1        2 0.14790986E+00 0.69130324E+03</pdfrwt>
<pdfrwt beam="2">  1       -2 0.19118480E-01 0.69130324E+03</pdfrwt>
<totfact> 0.62039691E+02</totfact>
</mgrwt>
</event>
<event>
 4    1  0.3213443E-005  0.7858455E+03  0.7818608E-02  0.9580734E-01
          2   -1    0    0  501    0  0.00000000000E+00  0.00000000000E+00  0.15974055651E+03  0.15974055653E+03  0.25500000000E-02 0.  1.
         -2   -1    0    0    0  501 -0.00000000000E+00 -0.00000000000E+00 -0.96649391943E+03  0.96649391943E+03  0.25500000000E-02 0. -1.
    5000001    1    1    2    0    0  0.93636301774E+02  0.29955479345E+03 -0.64600879524E+03  0.73692143056E+03  0.16500000000E+03 0.  0.
   -5000001    1    1    2    0    0 -0.93636301774E+02 -0.29955479345E+03 -0.16074456768E+03  0.38931304541E+03  0.16500000000E+03 0.  0.
<mgrwt>
<rscale>  0 0.78584547E+03</rscale>
<asrwt>0</asrwt>
<pdfrwt beam="1">  1        2 0.24575471E-01 0.78584547E+03</pdfrwt>
<pdfrwt beam="2">  1       -2 0.14869137E+00 0.78584547E+03</pdfrwt>
<totfact> 0.69163971E+01</totfact>
</mgrwt>
</event>
<event>
 4    1  0.3213443E-005  0.4855748E+03  0.7818608E-02  0.1017614E+00
         -2   -1    0    0    0  501 -0.00000000000E+00  0.00000000000E+00  0.53194512674E+02  0.53194512735E+02  0.25500000000E-02 0. -1.
          2   -1    0    0  501    0  0.00000000000E+00 -0.00000000000E+00 -0.11081164487E+04  0.11081164487E+04  0.25500000000E-02 0.  1.
    5000001    1    1    2    0    0  0.12599880460E+03  0.12452506484E+03 -0.57146445861E+03  0.62062776122E+03  0.16500000000E+03 0.  0.
   -5000001    1    1    2    0    0 -0.12599880460E+03 -0.12452506484E+03 -0.48345747739E+03  0.54068320020E+03  0.16500000000E+03 0.  0.
<mgrwt>
<rscale>  0 0.48557477E+03</rscale>
<asrwt>0</asrwt>
<pdfrwt beam="1">  1        2 0.17047944E+00 0.48557477E+03</pdfrwt>
<pdfrwt beam="2">  1       -2 0.81837720E-02 0.48557477E+03</pdfrwt>
<totfact> 0.20600413E+03</totfact>
</mgrwt>
</event>
<event>
 4    1  0.3213443E-005  0.5766599E+03  0.7818608E-02  0.9955049E-01
          2   -1    0    0  501    0  0.00000000000E+00  0.00000000000E+00  0.34511518255E+03  0.34511518256E+03  0.25500000000E-02 0.  1.
         -2   -1    0    0    0  501 -0.00000000000E+00 -0.00000000000E+00 -0.24088813173E+03  0.24088813174E+03  0.25500000000E-02 0. -1.
    5000001    1    1    2    0    0 -0.79488223469E+02  0.18689020297E+02 -0.17338616737E+03  0.25289408887E+03  0.16500000000E+03 0.  0.
   -5000001    1    1    2    0    0  0.79488223469E+02 -0.18689020297E+02  0.27761321820E+03  0.33310922543E+03  0.16500000000E+03 0.  0.
<mgrwt>
<rscale>  0 0.57665987E+03</rscale>
<asrwt>0</asrwt>
<pdfrwt beam="1">  1        2 0.53094643E-01 0.57665987E+03</pdfrwt>
<pdfrwt beam="2">  1       -2 0.37059713E-01 0.57665987E+03</pdfrwt>
<totfact> 0.64832092E+02</totfact>
</mgrwt>
</event>
<event>
 4    1  0.3213443E-005  0.4906123E+03  0.7818608E-02  0.1016259E+00
          2   -1    0    0  501    0  0.00000000000E+00  0.00000000000E+00  0.13261528846E+04  0.13261528846E+04  0.25500000000E-02 0.  1.
         -2   -1    0    0    0  501 -0.00000000000E+00 -0.00000000000E+00 -0.45375699148E+02  0.45375699219E+02  0.25500000000E-02 0. -1.
    5000001    1    1    2    0    0  0.41824894055E+02 -0.17428945406E+03  0.56014240196E+03  0.61082783665E+03  0.16500000000E+03 0.  0.
   -5000001    1    1    2    0    0 -0.41824894055E+02  0.17428945406E+03  0.72063478345E+03  0.76070074712E+03  0.16500000000E+03 0.  0.
<mgrwt>
<rscale>  0 0.49061233E+03</rscale>
<asrwt>0</asrwt>
<pdfrwt beam="1">  1        2 0.20402351E+00 0.49061233E+03</pdfrwt>
<pdfrwt beam="2">  1       -2 0.69808770E-02 0.49061233E+03</pdfrwt>
<totfact> 0.19788937E+03</totfact>
</mgrwt>
</event>
<event>
 4    1  0.3213443E-005  0.4668896E+03  0.7818608E-02  0.1022802E+00
          2   -1    0    0  501    0  0.00000000000E+00  0.00000000000E+00  0.36152235251E+03  0.36152235252E+03  0.25500000000E-02 0.  1.
         -2   -1    0    0    0  501 -0.00000000000E+00 -0.00000000000E+00 -0.15074164354E+03  0.15074164356E+03  0.25500000000E-02 0. -1.
    5000001    1    1    2    0    0  0.12420292257E+03  0.21305897186E+02 -0.11711489681E+02  0.20794822966E+03  0.16500000000E+03 0.  0.
   -5000001    1    1    2    0    0 -0.12420292257E+03 -0.21305897186E+02  0.22249219865E+03  0.30431576641E+03  0.16500000000E+03 0.  0.
<mgrwt>
<rscale>  0 0.46688960E+03</rscale>
<asrwt>0</asrwt>
<pdfrwt beam="1">  1        2 0.55618823E-01 0.46688960E+03</pdfrwt>
<pdfrwt beam="2">  1       -2 0.23191022E-01 0.46688960E+03</pdfrwt>
<totfact> 0.14579131E+03</totfact>
</mgrwt>
</event>
<event>
 4    1  0.3213443E-005  0.4450782E+03  0.7818608E-02  0.1029200E+00
         -2   -1    0    0    0  501 -0.00000000000E+00  0.00000000000E+00  0.22636975786E+02  0.22636975929E+02  0.25500000000E-02 0. -1.
          2   -1    0    0  501    0  0.00000000000E+00 -0.00000000000E+00 -0.21877322238E+04  0.21877322238E+04  0.25500000000E-02 0.  1.
    5000001    1    1    2    0    0  0.13748106065E+03  0.30870395012E+02 -0.83700094749E+03  0.86466734032E+03  0.16500000000E+03 0.  0.
   -5000001    1    1    2    0    0 -0.13748106065E+03 -0.30870395012E+02 -0.13280943005E+04  0.13457018594E+04  0.16500000000E+03 0.  0.
<mgrwt>
<rscale>  0 0.44507816E+03</rscale>
<asrwt>0</asrwt>
<pdfrwt beam="1">  1        2 0.33657402E+00 0.44507816E+03</pdfrwt>
<pdfrwt beam="2">  1       -2 0.34826134E-02 0.44507816E+03</pdfrwt>
<totfact> 0.19777344E+03</totfact>
</mgrwt>
</event>
<event>
 4    1  0.3213443E-005  0.8072506E+03  0.7818608E-02  0.9549581E-01
          2   -1    0    0  501    0  0.00000000000E+00  0.00000000000E+00  0.96873090551E+03  0.96873090552E+03  0.25500000000E-02 0.  1.
         -2   -1    0    0    0  501 -0.00000000000E+00 -0.00000000000E+00 -0.16817198213E+03  0.16817198215E+03  0.25500000000E-02 0. -1.
    5000001    1    1    2    0    0 -0.19618609398E+03  0.28532918565E+03  0.22332552665E+03  0.44384796779E+03  0.16500000000E+03 0.  0.
   -5000001    1    1    2    0    0  0.19618609398E+03 -0.28532918565E+03  0.57723339674E+03  0.69305491988E+03  0.16500000000E+03 0.  0.
<mgrwt>
<rscale>  0 0.80725063E+03</rscale>
<asrwt>0</asrwt>
<pdfrwt beam="1">  1        2 0.14903552E+00 0.80725063E+03</pdfrwt>
<pdfrwt beam="2">  1       -2 0.25872613E-01 0.80725063E+03</pdfrwt>
<totfact> 0.35699918E+02</totfact>
</mgrwt>
</event>
<event>
 4    1  0.3213443E-005  0.7437671E+03  0.7818608E-02  0.9645180E-01
         -2   -1    0    0    0  501 -0.00000000000E+00  0.00000000000E+00  0.18004390880E+03  0.18004390882E+03  0.25500000000E-02 0. -1.
          2   -1    0    0  501    0  0.00000000000E+00 -0.00000000000E+00 -0.76813139429E+03  0.76813139429E+03  0.25500000000E-02 0.  1.
    5000001    1    1    2    0    0 -0.60642288792E+02  0.32675870910E+03 -0.32587969141E+03  0.49383328608E+03  0.16500000000E+03 0.  0.
   -5000001    1    1    2    0    0  0.60642288792E+02 -0.32675870910E+03 -0.26220779407E+03  0.45434201703E+03  0.16500000000E+03 0.  0.
<mgrwt>
<rscale>  0 0.74376711E+03</rscale>
<asrwt>0</asrwt>
<pdfrwt beam="1">  1        2 0.11817406E+00 0.74376711E+03</pdfrwt>
<pdfrwt beam="2">  1       -2 0.27699063E-01 0.74376711E+03</pdfrwt>
<totfact> 0.43444131E+02</totfact>
</mgrwt>
</event>
<event>
 4    1  0.3213443E-005  0.4955515E+03  0.7818608E-02  0.1014947E+00
          2   -1    0    0  501    0  0.00000000000E+00  0.00000000000E+00  0.92976842714E+02  0.92976842749E+02  0.25500000000E-02 0.  1.
         -2   -1    0    0    0  501 -0.00000000000E+00 -0.00000000000E+00 -0.66030228687E+03  0.66030228687E+03  0.25500000000E-02 0. -1.
    5000001    1    1    2    0    0 -0.57445447129E+02  0.17108721346E+03 -0.34440913963E+03  0.42239018628E+03  0.16500000000E+03 0.  0.
   -5000001    1    1    2    0    0  0.57445447129E+02 -0.17108721346E+03 -0.22291630452E+03  0.33088894334E+03  0.16500000000E+03 0.  0.
<mgrwt>
<rscale>  0 0.49555150E+03</rscale>
<asrwt>0</asrwt>
<pdfrwt beam="1">  1        2 0.14304130E-01 0.49555150E+03</pdfrwt>
<pdfrwt beam="2">  1       -2 0.10158496E+00 0.49555150E+03</pdfrwt>
<totfact> 0.34202465E+02</totfact>
</mgrwt>
</event>
<event>
 4    1  0.3213443E-005  0.4430185E+03  0.7818608E-02  0.1029825E+00
          2   -1    0    0  501    0  0.00000000000E+00  0.00000000000E+00  0.64649731225E+03  0.64649731226E+03  0.25500000000E-02 0.  1.
         -2   -1    0    0    0  501 -0.00000000000E+00 -0.00000000000E+00 -0.75895676023E+02  0.75895676066E+02  0.25500000000E-02 0. -1.
    5000001    1    1    2    0    0  0.35086632909E+02 -0.30712441841E+02  0.56624611674E+02  0.18057040882E+03  0.16500000000E+03 0.  0.
   -5000001    1    1    2    0    0 -0.35086632909E+02  0.30712441841E+02  0.51397702456E+03  0.54182257951E+03  0.16500000000E+03 0.  0.
<mgrwt>
<rscale>  0 0.44301851E+03</rscale>
<asrwt>0</asrwt>
<pdfrwt beam="1">  1        2 0.99461123E-01 0.44301851E+03</pdfrwt>
<pdfrwt beam="2">  1       -2 0.11676258E-01 0.44301851E+03</pdfrwt>
<totfact> 0.23998176E+03</totfact>
</mgrwt>
</event>
<event>
 4    1  0.3213443E-005  0.5291577E+03  0.7818608E-02  0.1006437E+00
          2   -1    0    0  501    0  0.00000000000E+00  0.00000000000E+00  0.67371299696E+03  0.67371299697E+03  0.25500000000E-02 0.  1.
         -2   -1    0    0    0  501 -0.00000000000E+00 -0.00000000000E+00 -0.10390472810E+03  0.10390472813E+03  0.25500000000E-02 0. -1.
    5000001    1    1    2    0    0  0.88585438845E+02 -0.13407518532E+03  0.93562344335E+02  0.24860098063E+03  0.16500000000E+03 0.  0.
   -5000001    1    1    2    0    0 -0.88585438845E+02  0.13407518532E+03  0.47624592453E+03  0.52901674446E+03  0.16500000000E+03 0.  0.
<mgrwt>
<rscale>  0 0.52915769E+03</rscale>
<asrwt>0</asrwt>
<pdfrwt beam="1">  1        2 0.10364815E+00 0.52915769E+03</pdfrwt>
<pdfrwt beam="2">  1       -2 0.15985343E-01 0.52915769E+03</pdfrwt>
<totfact> 0.13549284E+03</totfact>
</mgrwt>
</event>
<event>
 4    1  0.3213443E-005  0.5024391E+03  0.7818608E-02  0.1013144E+00
          2   -1    0    0  501    0  0.00000000000E+00  0.00000000000E+00  0.13450479966E+04  0.13450479966E+04  0.25500000000E-02 0.  1.
         -2   -1    0    0    0  501 -0.00000000000E+00 -0.00000000000E+00 -0.46921203075E+02  0.46921203145E+02  0.25500000000E-02 0. -1.
    5000001    1    1    2    0    0 -0.23687401061E+02 -0.18192965213E+03  0.77979624498E+03  0.81790382991E+03  0.16500000000E+03 0.  0.
   -5000001    1    1    2    0    0  0.23687401061E+02  0.18192965213E+03  0.51833054856E+03  0.57406536985E+03  0.16500000000E+03 0.  0.
<mgrwt>
<rscale>  0 0.50243913E+03</rscale>
<asrwt>0</asrwt>
<pdfrwt beam="1">  1        2 0.20693042E+00 0.50243913E+03</pdfrwt>
<pdfrwt beam="2">  1       -2 0.72186480E-02 0.50243913E+03</pdfrwt>
<totfact> 0.18311766E+03</totfact>
</mgrwt>
</event>
<event>
 4    1  0.3213443E-005  0.7740204E+03  0.7818608E-02  0.9598402E-01
          2   -1    0    0  501    0  0.00000000000E+00  0.00000000000E+00  0.22215451249E+04  0.22215451249E+04  0.25500000000E-02 0.  1.
         -2   -1    0    0    0  501 -0.00000000000E+00 -0.00000000000E+00 -0.67420152638E+02  0.67420152686E+02  0.25500000000E-02 0. -1.
    5000001    1    1    2    0    0 -0.17989584234E+03  0.18231823476E+03  0.17827811020E+04  0.18086281847E+04  0.16500000000E+03 0.  0.
   -5000001    1    1    2    0    0  0.17989584234E+03 -0.18231823476E+03  0.37134387019E+03  0.48033709282E+03  0.16500000000E+03 0.  0.
<mgrwt>
<rscale>  0 0.77402044E+03</rscale>
<asrwt>0</asrwt>
<pdfrwt beam="1">  1        2 0.34177610E+00 0.77402044E+03</pdfrwt>
<pdfrwt beam="2">  1       -2 0.10372334E-01 0.77402044E+03</pdfrwt>
<totfact> 0.33366728E+02</totfact>
</mgrwt>
</event>
<event>
 4    1  0.3213443E-005  0.3687343E+03  0.7818608E-02  0.1055178E+00
         -2   -1    0    0    0  501 -0.00000000000E+00  0.00000000000E+00  0.16633272574E+02  0.16633272770E+02  0.25500000000E-02 0. -1.
          2   -1    0    0  501    0  0.00000000000E+00 -0.00000000000E+00 -0.20435695397E+04  0.20435695397E+04  0.25500000000E-02 0.  1.
    5000001    1    1    2    0    0 -0.26367268421E+01 -0.66517775673E+02 -0.74350134712E+03  0.76449383253E+03  0.16500000000E+03 0.  0.
   -5000001    1    1    2    0    0  0.26367268421E+01  0.66517775673E+02 -0.12834349201E+04  0.12957089800E+04  0.16500000000E+03 0.  0.
<mgrwt>
<rscale>  0 0.36873432E+03</rscale>
<asrwt>0</asrwt>
<pdfrwt beam="1">  1        2 0.31439512E+00 0.36873432E+03</pdfrwt>
<pdfrwt beam="2">  1       -2 0.25589666E-02 0.36873432E+03</pdfrwt>
<totfact> 0.37726572E+03</totfact>
</mgrwt>
</event>
<event>
 4    1  0.3213443E-005  0.3917245E+03  0.7818608E-02  0.1046683E+00
         -2   -1    0    0    0  501 -0.00000000000E+00  0.00000000000E+00  0.14012508640E+03  0.14012508643E+03  0.25500000000E-02 0. -1.
          2   -1    0    0  501    0  0.00000000000E+00 -0.00000000000E+00 -0.27376985041E+03  0.27376985043E+03  0.25500000000E-02 0.  1.
    5000001    1    1    2    0    0 -0.81472712986E+02 -0.55857667430E+02 -0.27583750623E+02  0.19427749553E+03  0.16500000000E+03 0.  0.
   -5000001    1    1    2    0    0  0.81472712986E+02  0.55857667430E+02 -0.10606101339E+03  0.21961744132E+03  0.16500000000E+03 0.  0.
<mgrwt>
<rscale>  0 0.39172452E+03</rscale>
<asrwt>0</asrwt>
<pdfrwt beam="1">  1        2 0.42118438E-01 0.39172452E+03</pdfrwt>
<pdfrwt beam="2">  1       -2 0.21557706E-01 0.39172452E+03</pdfrwt>
<totfact> 0.22430592E+03</totfact>
</mgrwt>
</event>
<event>
 4    1  0.3213443E-005  0.5008860E+03  0.7818608E-02  0.1013548E+00
          2   -1    0    0  501    0  0.00000000000E+00  0.00000000000E+00  0.25583397288E+04  0.25583397288E+04  0.25500000000E-02 0.  1.
         -2   -1    0    0    0  501 -0.00000000000E+00 -0.00000000000E+00 -0.24516560667E+02  0.24516560799E+02  0.25500000000E-02 0. -1.
    5000001    1    1    2    0    0  0.16958683591E+03 -0.66528347508E+02  0.10190215722E+04  0.10482440940E+04  0.16500000000E+03 0.  0.
   -5000001    1    1    2    0    0 -0.16958683591E+03  0.66528347508E+02  0.15148015959E+04  0.15346121956E+04  0.16500000000E+03 0.  0.
<mgrwt>
<rscale>  0 0.50088598E+03</rscale>
<asrwt>0</asrwt>
<pdfrwt beam="1">  1        2 0.39359074E+00 0.50088598E+03</pdfrwt>
<pdfrwt beam="2">  1       -2 0.37717784E-02 0.50088598E+03</pdfrwt>
<totfact> 0.10895373E+03</totfact>
</mgrwt>
</event>
<event>
 4    1  0.3213443E-005  0.4486094E+03  0.7818608E-02  0.1028138E+00
         -2   -1    0    0    0  501 -0.00000000000E+00  0.00000000000E+00  0.58477861135E+02  0.58477861191E+02  0.25500000000E-02 0. -1.
          2   -1    0    0  501    0  0.00000000000E+00 -0.00000000000E+00 -0.86037013384E+03  0.86037013384E+03  0.25500000000E-02 0.  1.
    5000001    1    1    2    0    0  0.42265021516E+02  0.14534565570E+03 -0.42811208886E+03  0.48313212717E+03  0.16500000000E+03 0.  0.
   -5000001    1    1    2    0    0 -0.42265021516E+02 -0.14534565570E+03 -0.37378018384E+03  0.43571586786E+03  0.16500000000E+03 0.  0.
<mgrwt>
<rscale>  0 0.44860943E+03</rscale>
<asrwt>0</asrwt>
<pdfrwt beam="1">  1        2 0.13236463E+00 0.44860943E+03</pdfrwt>
<pdfrwt beam="2">  1       -2 0.89965946E-02 0.44860943E+03</pdfrwt>
<totfact> 0.25435978E+03</totfact>
</mgrwt>
</event>
<event>
 4    1  0.3213443E-005  0.5655705E+03  0.7818608E-02  0.9979529E-01
         -2   -1    0    0    0  501 -0.00000000000E+00  0.00000000000E+00  0.47987523207E+03  0.47987523208E+03  0.25500000000E-02 0. -1.
          2   -1    0    0  501    0  0.00000000000E+00 -0.00000000000E+00 -0.16664228770E+03  0.16664228772E+03  0.25500000000E-02 0.  1.
    5000001    1    1    2    0    0 -0.83419063050E+02 -0.21396932247E+03  0.15553475070E+03  0.32273467386E+03  0.16500000000E+03 0.  0.
   -5000001    1    1    2    0    0  0.83419063050E+02  0.21396932247E+03  0.15769819367E+03  0.32378284594E+03  0.16500000000E+03 0.  0.
<mgrwt>
<rscale>  0 0.56557053E+03</rscale>
<asrwt>0</asrwt>
<pdfrwt beam="1">  1        2 0.25637276E-01 0.56557053E+03</pdfrwt>
<pdfrwt beam="2">  1       -2 0.73826956E-01 0.56557053E+03</pdfrwt>
<totfact> 0.35570169E+02</totfact>
</mgrwt>
</event>
<event>
 4    1  0.3213443E-005  0.3539618E+03  0.7818608E-02  0.1061001E+00
         -2   -1    0    0    0  501 -0.00000000000E+00  0.00000000000E+00  0.18064474483E+02  0.18064474663E+02  0.25500000000E-02 0. -1.
          2   -1    0    0  501    0  0.00000000000E+00 -0.00000000000E+00 -0.17339136120E+04  0.17339136120E+04  0.25500000000E-02 0.  1.
    5000001    1    1    2    0    0  0.16262591106E+02 -0.51442580177E+02 -0.68743694043E+03  0.70901717750E+03  0.16500000000E+03 0.  0.
   -5000001    1    1    2    0    0 -0.16262591106E+02  0.51442580177E+02 -0.10284121971E+04  0.10429609092E+04  0.16500000000E+03 0.  0.
<mgrwt>
<rscale>  0 0.35396180E+03</rscale>
<asrwt>0</asrwt>
<pdfrwt beam="1">  1        2 0.26675581E+00 0.35396180E+03</pdfrwt>
<pdfrwt beam="2">  1       -2 0.27791513E-02 0.35396180E+03</pdfrwt>
<totfact> 0.48712127E+03</totfact>
</mgrwt>
</event>
<event>
 4    1  0.3213443E-005  0.5309646E+03  0.7818608E-02  0.1005998E+00
         -2   -1    0    0    0  501 -0.00000000000E+00  0.00000000000E+00  0.63716910542E+02  0.63716910593E+02  0.25500000000E-02 0. -1.
          2   -1    0    0  501    0  0.00000000000E+00 -0.00000000000E+00 -0.11061560868E+04  0.11061560868E+04  0.25500000000E-02 0.  1.
    5000001    1    1    2    0    0  0.81570072378E+02  0.18837617746E+03 -0.44759556524E+03  0.51933231265E+03  0.16500000000E+03 0.  0.
   -5000001    1    1    2    0    0 -0.81570072378E+02 -0.18837617746E+03 -0.59484361107E+03  0.65054068479E+03  0.16500000000E+03 0.  0.
<mgrwt>
<rscale>  0 0.53096459E+03</rscale>
<asrwt>0</asrwt>
<pdfrwt beam="1">  1        2 0.17017784E+00 0.53096459E+03</pdfrwt>
<pdfrwt beam="2">  1       -2 0.98026025E-02 0.53096459E+03</pdfrwt>
<totfact> 0.15458166E+03</totfact>
</mgrwt>
</event>
<event>
 4    1  0.3213443E-005  0.5775633E+03  0.7818608E-02  0.9953080E-01
         -2   -1    0    0    0  501 -0.00000000000E+00  0.00000000000E+00  0.13631861758E+03  0.13631861761E+03  0.25500000000E-02 0. -1.
          2   -1    0    0  501    0  0.00000000000E+00 -0.00000000000E+00 -0.61176422992E+03  0.61176422992E+03  0.25500000000E-02 0.  1.
    5000001    1    1    2    0    0  0.33002952336E+02 -0.22531801532E+03 -0.32278021986E+03  0.42809984025E+03  0.16500000000E+03 0.  0.
   -5000001    1    1    2    0    0 -0.33002952336E+02  0.22531801532E+03 -0.15266539247E+03  0.31998300728E+03  0.16500000000E+03 0.  0.
<mgrwt>
<rscale>  0 0.57756334E+03</rscale>
<asrwt>0</asrwt>
<pdfrwt beam="1">  1        2 0.94117572E-01 0.57756334E+03</pdfrwt>
<pdfrwt beam="2">  1       -2 0.20972095E-01 0.57756334E+03</pdfrwt>
<totfact> 0.95448026E+02</totfact>
</mgrwt>
</event>
<event>
 4    1  0.3213443E-005  0.5193451E+03  0.7818608E-02  0.1008849E+00
         -2   -1    0    0    0  501 -0.00000000000E+00  0.00000000000E+00  0.31922587203E+03  0.31922587204E+03  0.25500000000E-02 0. -1.
          2   -1    0    0  501    0  0.00000000000E+00 -0.00000000000E+00 -0.21122920475E+03  0.21122920476E+03  0.25500000000E-02 0.  1.
    5000001    1    1    2    0    0 -0.13300979691E+03 -0.13828167967E+03 -0.54831752546E+01  0.25311755019E+03  0.16500000000E+03 0.  0.
   -5000001    1    1    2    0    0  0.13300979691E+03  0.13828167967E+03  0.11347984254E+03  0.27733752661E+03  0.16500000000E+03 0.  0.
<mgrwt>
<rscale>  0 0.51934508E+03</rscale>
<asrwt>0</asrwt>
<pdfrwt beam="1">  1        2 0.32496801E-01 0.51934508E+03</pdfrwt>
<pdfrwt beam="2">  1       -2 0.49111673E-01 0.51934508E+03</pdfrwt>
<totfact> 0.64229622E+02</totfact>
</mgrwt>
</event>
<event>
 4    1  0.3213443E-005  0.3833648E+03  0.7818608E-02  0.1049697E+00
         -2   -1    0    0    0  501 -0.00000000000E+00  0.00000000000E+00  0.75264733223E+02  0.75264733266E+02  0.25500000000E-02 0. -1.
          2   -1    0    0  501    0  0.00000000000E+00 -0.00000000000E+00 -0.48817207679E+03  0.48817207680E+03  0.25500000000E-02 0.  1.
    5000001    1    1    2    0    0 -0.48910030940E+02  0.71274540477E+02 -0.27291483754E+03  0.33042360659E+03  0.16500000000E+03 0.  0.
   -5000001    1    1    2    0    0  0.48910030940E+02 -0.71274540477E+02 -0.13999250603E+03  0.23301320347E+03  0.16500000000E+03 0.  0.
<mgrwt>
<rscale>  0 0.38336479E+03</rscale>
<asrwt>0</asrwt>
<pdfrwt beam="1">  1        2 0.75103394E-01 0.38336479E+03</pdfrwt>
<pdfrwt beam="2">  1       -2 0.11579190E-01 0.38336479E+03</pdfrwt>
<totfact> 0.33690289E+03</totfact>
</mgrwt>
</event>
<event>
 4    1  0.3213443E-005  0.5765215E+03  0.7818608E-02  0.9955350E-01
          2   -1    0    0  501    0  0.00000000000E+00  0.00000000000E+00  0.25354911522E+04  0.25354911522E+04  0.25500000000E-02 0.  1.
         -2   -1    0    0    0  501 -0.00000000000E+00 -0.00000000000E+00 -0.32772453809E+02  0.32772453908E+02  0.25500000000E-02 0. -1.
    5000001    1    1    2    0    0  0.10958288803E+03 -0.19637464957E+03  0.15756049433E+04  0.16001022935E+04  0.16500000000E+03 0.  0.
   -5000001    1    1    2    0    0 -0.10958288803E+03  0.19637464957E+03  0.92711375514E+03  0.96816131265E+03  0.16500000000E+03 0.  0.
<mgrwt>
<rscale>  0 0.57652152E+03</rscale>
<asrwt>0</asrwt>
<pdfrwt beam="1">  1        2 0.39007546E+00 0.57652152E+03</pdfrwt>
<pdfrwt beam="2">  1       -2 0.50419173E-02 0.57652152E+03</pdfrwt>
<totfact> 0.71332933E+02</totfact>
</mgrwt>
</event>
<event>
 4    1  0.3213443E-005  0.5706273E+03  0.7818608E-02  0.9968291E-01
          2   -1    0    0  501    0  0.00000000000E+00  0.00000000000E+00  0.25007769092E+04  0.25007769092E+04  0.25500000000E-02 0.  1.
         -2   -1    0    0    0  501 -0.00000000000E+00 -0.00000000000E+00 -0.32551433699E+02  0.32551433799E+02  0.25500000000E-02 0. -1.
    5000001    1    1    2    0    0  0.22433951375E+03  0.13220414734E+02  0.96494720873E+03  0.10044158065E+04  0.16500000000E+03 0.  0.
   -5000001    1    1    2    0    0 -0.22433951375E+03 -0.13220414734E+02  0.15032782668E+04  0.15289125365E+04  0.16500000000E+03 0.  0.
<mgrwt>
<rscale>  0 0.57062728E+03</rscale>
<asrwt>0</asrwt>
<pdfrwt beam="1">  1        2 0.38473503E+00 0.57062728E+03</pdfrwt>
<pdfrwt beam="2">  1       -2 0.50079114E-02 0.57062728E+03</pdfrwt>
<totfact> 0.75446820E+02</totfact>
</mgrwt>
</event>
<event>
 4    1  0.3213443E-005  0.4743528E+03  0.7818608E-02  0.1020699E+00
          2   -1    0    0  501    0  0.00000000000E+00  0.00000000000E+00  0.13177238197E+04  0.13177238197E+04  0.25500000000E-02 0.  1.
         -2   -1    0    0    0  501 -0.00000000000E+00 -0.00000000000E+00 -0.42689257544E+02  0.42689257620E+02  0.25500000000E-02 0. -1.
    5000001    1    1    2    0    0  0.60142449163E+02 -0.15935254364E+03  0.62558715095E+03  0.66902513465E+03  0.16500000000E+03 0.  0.
   -5000001    1    1    2    0    0 -0.60142449163E+02  0.15935254364E+03  0.64944741121E+03  0.69138794268E+03  0.16500000000E+03 0.  0.
<mgrwt>
<rscale>  0 0.47435283E+03</rscale>
<asrwt>0</asrwt>
<pdfrwt beam="1">  1        2 0.20272670E+00 0.47435283E+03</pdfrwt>
<pdfrwt beam="2">  1       -2 0.65675794E-02 0.47435283E+03</pdfrwt>
<totfact> 0.22025901E+03</totfact>
</mgrwt>
</event>
<event>
 4    1  0.3213443E-005  0.5419062E+03  0.7818608E-02  0.1003385E+00
         -2   -1    0    0    0  501 -0.00000000000E+00  0.00000000000E+00  0.58693091802E+02  0.58693091858E+02  0.25500000000E-02 0. -1.
          2   -1    0    0  501    0  0.00000000000E+00 -0.00000000000E+00 -0.12508383629E+04  0.12508383629E+04  0.25500000000E-02 0.  1.
    5000001    1    1    2    0    0  0.17371507175E+03 -0.12143737672E+03 -0.51006975245E+03  0.57647212854E+03  0.16500000000E+03 0.  0.
   -5000001    1    1    2    0    0 -0.17371507175E+03  0.12143737672E+03 -0.68207551864E+03  0.73305932621E+03  0.16500000000E+03 0.  0.
<mgrwt>
<rscale>  0 0.54190616E+03</rscale>
<asrwt>0</asrwt>
<pdfrwt beam="1">  1        2 0.19243665E+00 0.54190616E+03</pdfrwt>
<pdfrwt beam="2">  1       -2 0.90297074E-02 0.54190616E+03</pdfrwt>
<totfact> 0.14496311E+03</totfact>
</mgrwt>
</event>
<event>
 4    1  0.3213443E-005  0.7896926E+03  0.7818608E-02  0.9575058E-01
         -2   -1    0    0    0  501 -0.00000000000E+00  0.00000000000E+00  0.11546257943E+03  0.11546257946E+03  0.25500000000E-02 0. -1.
          2   -1    0    0  501    0  0.00000000000E+00 -0.00000000000E+00 -0.13502520314E+04  0.13502520314E+04  0.25500000000E-02 0.  1.
    5000001    1    1    2    0    0  0.31174312869E+03 -0.16095620431E+03 -0.47865019924E+03  0.61597215134E+03  0.16500000000E+03 0.  0.
   -5000001    1    1    2    0    0 -0.31174312869E+03  0.16095620431E+03 -0.75613925275E+03  0.84974245954E+03  0.16500000000E+03 0.  0.
<mgrwt>
<rscale>  0 0.78969255E+03</rscale>
<asrwt>0</asrwt>
<pdfrwt beam="1">  1        2 0.20773107E+00 0.78969255E+03</pdfrwt>
<pdfrwt beam="2">  1       -2 0.17763475E-01 0.78969255E+03</pdfrwt>
<totfact> 0.40880628E+02</totfact>
</mgrwt>
</event>
<event>
 4    1  0.3213443E-005  0.9831138E+03  0.7818608E-02  0.9327262E-01
         -2   -1    0    0    0  501 -0.00000000000E+00  0.00000000000E+00  0.32424114329E+03  0.32424114330E+03  0.25500000000E-02 0. -1.
          2   -1    0    0  501    0  0.00000000000E+00 -0.00000000000E+00 -0.74521139793E+03  0.74521139794E+03  0.25500000000E-02 0.  1.
    5000001    1    1    2    0    0 -0.33402303156E+03  0.31980582733E+03 -0.18483368141E+03  0.52462905237E+03  0.16500000000E+03 0.  0.
   -5000001    1    1    2    0    0  0.33402303156E+03 -0.31980582733E+03 -0.23613657323E+03  0.54482348887E+03  0.16500000000E+03 0.  0.
<mgrwt>
<rscale>  0 0.98311382E+03</rscale>
<asrwt>0</asrwt>
<pdfrwt beam="1">  1        2 0.11464791E+00 0.98311382E+03</pdfrwt>
<pdfrwt beam="2">  1       -2 0.49883253E-01 0.98311382E+03</pdfrwt>
<totfact> 0.14367770E+02</totfact>
</mgrwt>
</event>
<event>
 4    1  0.3213443E-005  0.9351795E+03  0.7818608E-02  0.9382643E-01
         -2   -1    0    0    0  501 -0.00000000000E+00  0.00000000000E+00  0.13997176352E+03  0.13997176354E+03  0.25500000000E-02 0. -1.
          2   -1    0    0  501    0  0.00000000000E+00 -0.00000000000E+00 -0.15620306081E+04  0.15620306081E+04  0.25500000000E-02 0.  1.
    5000001    1    1    2    0    0  0.24055376156E+03 -0.36030818250E+03 -0.82213850309E+03  0.94383516402E+03  0.16500000000E+03 0.  0.
   -5000001    1    1    2    0    0 -0.24055376156E+03  0.36030818250E+03 -0.59992034149E+03  0.75816720762E+03  0.16500000000E+03 0.  0.
<mgrwt>
<rscale>  0 0.93517951E+03</rscale>
<asrwt>0</asrwt>
<pdfrwt beam="1">  1        2 0.24031239E+00 0.93517951E+03</pdfrwt>
<pdfrwt beam="2">  1       -2 0.21534119E-01 0.93517951E+03</pdfrwt>
<totfact> 0.21997799E+02</totfact>
</mgrwt>
</event>
<event>
 4    1  0.3213443E-005  0.4620871E+03  0.7818608E-02  0.1024178E+00
         -2   -1    0    0    0  501 -0.00000000000E+00  0.00000000000E+00  0.33596080488E+02  0.33596080585E+02  0.25500000000E-02 0. -1.
          2   -1    0    0  501    0  0.00000000000E+00 -0.00000000000E+00 -0.15889094126E+04  0.15889094126E+04  0.25500000000E-02 0.  1.
    5000001    1    1    2    0    0  0.11035506995E+03  0.11635369123E+03 -0.70402860947E+03  0.74067381882E+03  0.16500000000E+03 0.  0.
   -5000001    1    1    2    0    0 -0.11035506995E+03 -0.11635369123E+03 -0.85128472268E+03  0.88183167441E+03  0.16500000000E+03 0.  0.
<mgrwt>
<rscale>  0 0.46208713E+03</rscale>
<asrwt>0</asrwt>
<pdfrwt beam="1">  1        2 0.24444754E+00 0.46208713E+03</pdfrwt>
<pdfrwt beam="2">  1       -2 0.51686290E-02 0.46208713E+03</pdfrwt>
<totfact> 0.22658199E+03</totfact>
</mgrwt>
</event>
<event>
 4    1  0.3213443E-005  0.4441802E+03  0.7818608E-02  0.1029472E+00
          2   -1    0    0  501    0  0.00000000000E+00  0.00000000000E+00  0.30023152548E+03  0.30023152549E+03  0.25500000000E-02 0.  1.
         -2   -1    0    0    0  501 -0.00000000000E+00 -0.00000000000E+00 -0.16428657710E+03  0.16428657712E+03  0.25500000000E-02 0. -1.
    5000001    1    1    2    0    0  0.13572001775E+03 -0.29834072322E+02  0.12320168694E+03  0.24842232338E+03  0.16500000000E+03 0.  0.
   -5000001    1    1    2    0    0 -0.13572001775E+03  0.29834072322E+02  0.12743261444E+02  0.21609577923E+03  0.16500000000E+03 0.  0.
<mgrwt>
<rscale>  0 0.44418019E+03</rscale>
<asrwt>0</asrwt>
<pdfrwt beam="1">  1        2 0.46189465E-01 0.44418019E+03</pdfrwt>
<pdfrwt beam="2">  1       -2 0.25274858E-01 0.44418019E+03</pdfrwt>
<totfact> 0.15336527E+03</totfact>
</mgrwt>
</event>
<event>
 4    1  0.3213443E-005  0.5489998E+03  0.7818608E-02  0.1001726E+00
          2   -1    0    0  501    0  0.00000000000E+00  0.00000000000E+00  0.12048732080E+03  0.12048732082E+03  0.25500000000E-02 0.  1.
         -2   -1    0    0    0  501 -0.00000000000E+00 -0.00000000000E+00 -0.62537870363E+03  0.62537870364E+03  0.25500000000E-02 0. -1.
    5000001    1    1    2    0    0  0.16435495427E+01  0.15749256340E+03 -0.44983095469E+02  0.23249750033E+03  0.16500000000E+03 0.  0.
   -5000001    1    1    2    0    0 -0.16435495427E+01 -0.15749256340E+03 -0.45990828737E+03  0.51336852413E+03  0.16500000000E+03 0.  0.
<mgrwt>
<rscale>  0 0.54899983E+03</rscale>
<asrwt>0</asrwt>
<pdfrwt beam="1">  1        2 0.18536511E-01 0.54899983E+03</pdfrwt>
<pdfrwt beam="2">  1       -2 0.96212106E-01 0.54899983E+03</pdfrwt>
<totfact> 0.28460712E+02</totfact>
</mgrwt>
</event>
<event>
 4    1  0.3213443E-005  0.2504661E+04  0.7818608E-02  0.8401327E-01
         -2   -1    0    0    0  501 -0.00000000000E+00  0.00000000000E+00  0.65439309608E+03  0.65439309608E+03  0.25500000000E-02 0. -1.
          2   -1    0    0  501    0  0.00000000000E+00 -0.00000000000E+00 -0.23966208121E+04  0.23966208121E+04  0.25500000000E-02 0.  1.
    5000001    1    1    2    0    0 -0.11480953911E+04 -0.47208836342E+03 -0.85795668505E+03  0.15179937824E+04  0.16500000000E+03 0.  0.
   -5000001    1    1    2    0    0  0.11480953911E+04  0.47208836342E+03 -0.88427103092E+03  0.15330201258E+04  0.16500000000E+03 0.  0.
<mgrwt>
<rscale>  0 0.25046613E+04</rscale>
<asrwt>0</asrwt>
<pdfrwt beam="1">  1        2 0.36871089E+00 0.25046613E+04</pdfrwt>
<pdfrwt beam="2">  1       -2 0.10067586E+00 0.25046613E+04</pdfrwt>
<totfact> 0.28934911E+00</totfact>
</mgrwt>
</event>
<event>
 4    1  0.3213443E-005  0.1007543E+04  0.7818608E-02  0.9300310E-01
         -2   -1    0    0    0  501 -0.00000000000E+00  0.00000000000E+00  0.68829004766E+03  0.68829004766E+03  0.25500000000E-02 0. -1.
          2   -1    0    0  501    0  0.00000000000E+00 -0.00000000000E+00 -0.36871915093E+03  0.36871915094E+03  0.25500000000E-02 0.  1.
    5000001    1    1    2    0    0 -0.22096765050E+03 -0.37854004150E+03  0.35448095675E+03  0.58736786963E+03  0.16500000000E+03 0.  0.
   -5000001    1    1    2    0    0  0.22096765050E+03  0.37854004150E+03 -0.34910060013E+02  0.46964132897E+03  0.16500000000E+03 0.  0.
<mgrwt>
<rscale>  0 0.10075430E+04</rscale>
<asrwt>0</asrwt>
<pdfrwt beam="1">  1        2 0.56726024E-01 0.10075430E+04</pdfrwt>
<pdfrwt beam="2">  1       -2 0.10589078E+00 0.10075430E+04</pdfrwt>
<totfact> 0.62659541E+01</totfact>
</mgrwt>
</event>
<event>
 4    1  0.3213443E-005  0.8050707E+03  0.7818608E-02  0.9552706E-01
         -2   -1    0    0    0  501 -0.00000000000E+00  0.00000000000E+00  0.10071684030E+03  0.10071684033E+03  0.25500000000E-02 0. -1.
          2   -1    0    0  501    0  0.00000000000E+00 -0.00000000000E+00 -0.16088146431E+04  0.16088146431E+04  0.25500000000E-02 0.  1.
    5000001    1    1    2    0    0  0.17897285272E+03 -0.32057556891E+03 -0.76067942581E+03  0.86061499304E+03  0.16500000000E+03 0.  0.
   -5000001    1    1    2    0    0 -0.17897285272E+03  0.32057556891E+03 -0.74741837695E+03  0.84891649035E+03  0.16500000000E+03 0.  0.
<mgrwt>
<rscale>  0 0.80507075E+03</rscale>
<asrwt>0</asrwt>
<pdfrwt beam="1">  1        2 0.24750993E+00 0.80507075E+03</pdfrwt>
<pdfrwt beam="2">  1       -2 0.15494900E-01 0.80507075E+03</pdfrwt>
<totfact> 0.36971680E+02</totfact>
</mgrwt>
</event>
<event>
 4    1  0.3213443E-005  0.4019723E+03  0.7818608E-02  0.1043099E+00
         -2   -1    0    0    0  501 -0.00000000000E+00  0.00000000000E+00  0.72559545094E+02  0.72559545138E+02  0.25500000000E-02 0. -1.
          2   -1    0    0  501    0  0.00000000000E+00 -0.00000000000E+00 -0.55672118392E+03  0.55672118392E+03  0.25500000000E-02 0.  1.
    5000001    1    1    2    0    0 -0.94663684361E+02 -0.58592493357E+02 -0.28569412515E+03  0.34819596000E+03  0.16500000000E+03 0.  0.
   -5000001    1    1    2    0    0  0.94663684361E+02  0.58592493357E+02 -0.19846751367E+03  0.28108476906E+03  0.16500000000E+03 0.  0.
<mgrwt>
<rscale>  0 0.40197232E+03</rscale>
<asrwt>0</asrwt>
<pdfrwt beam="1">  1        2 0.85649410E-01 0.40197232E+03</pdfrwt>
<pdfrwt beam="2">  1       -2 0.11163007E-01 0.40197232E+03</pdfrwt>
<totfact> 0.30784388E+03</totfact>
</mgrwt>
</event>
<event>
 4    1  0.3213443E-005  0.6544991E+03  0.7818608E-02  0.9798373E-01
          2   -1    0    0  501    0  0.00000000000E+00  0.00000000000E+00  0.22835792737E+04  0.22835792737E+04  0.25500000000E-02 0.  1.
         -2   -1    0    0    0  501 -0.00000000000E+00 -0.00000000000E+00 -0.46896665301E+02  0.46896665370E+02  0.25500000000E-02 0. -1.
    5000001    1    1    2    0    0 -0.11255339784E+03  0.24939479807E+03  0.13701516635E+04  0.14069138615E+04  0.16500000000E+03 0.  0.
   -5000001    1    1    2    0    0  0.11255339784E+03 -0.24939479807E+03  0.86653094483E+03  0.92356207751E+03  0.16500000000E+03 0.  0.
<mgrwt>
<rscale>  0 0.65449905E+03</rscale>
<asrwt>0</asrwt>
<pdfrwt beam="1">  1        2 0.35131996E+00 0.65449905E+03</pdfrwt>
<pdfrwt beam="2">  1       -2 0.72148702E-02 0.65449905E+03</pdfrwt>
<totfact> 0.55840843E+02</totfact>
</mgrwt>
</event>
<event>
 4    1  0.3213443E-005  0.5178547E+03  0.7818608E-02  0.1009221E+00
         -2   -1    0    0    0  501 -0.00000000000E+00  0.00000000000E+00  0.55789662283E+02  0.55789662341E+02  0.25500000000E-02 0. -1.
          2   -1    0    0  501    0  0.00000000000E+00 -0.00000000000E+00 -0.12017168052E+04  0.12017168052E+04  0.25500000000E-02 0.  1.
    5000001    1    1    2    0    0  0.17946194657E+03  0.79741140968E+02 -0.65892452335E+03  0.70708681737E+03  0.16500000000E+03 0.  0.
   -5000001    1    1    2    0    0 -0.17946194657E+03 -0.79741140968E+02 -0.48700261957E+03  0.55041965018E+03  0.16500000000E+03 0.  0.
<mgrwt>
<rscale>  0 0.51785471E+03</rscale>
<asrwt>0</asrwt>
<pdfrwt beam="1">  1        2 0.18487949E+00 0.51785471E+03</pdfrwt>
<pdfrwt beam="2">  1       -2 0.85830258E-02 0.51785471E+03</pdfrwt>
<totfact> 0.16799632E+03</totfact>
</mgrwt>
</event>
<event>
 4    1  0.3213443E-005  0.4527867E+03  0.7818608E-02  0.1026894E+00
          2   -1    0    0  501    0  0.00000000000E+00  0.00000000000E+00  0.87998913108E+02  0.87998913145E+02  0.25500000000E-02 0.  1.
         -2   -1    0    0    0  501 -0.00000000000E+00 -0.00000000000E+00 -0.58243847626E+03  0.58243847627E+03  0.25500000000E-02 0. -1.
    5000001    1    1    2    0    0 -0.55631553209E+02  0.14336078025E+03 -0.27615090925E+03  0.35655505564E+03  0.16500000000E+03 0.  0.
   -5000001    1    1    2    0    0  0.55631553209E+02 -0.14336078025E+03 -0.21828865390E+03  0.31388233377E+03  0.16500000000E+03 0.  0.
<mgrwt>
<rscale>  0 0.45278672E+03</rscale>
<asrwt>0</asrwt>
<pdfrwt beam="1">  1        2 0.13538295E-01 0.45278672E+03</pdfrwt>
<pdfrwt beam="2">  1       -2 0.89605917E-01 0.45278672E+03</pdfrwt>
<totfact> 0.48953274E+02</totfact>
</mgrwt>
</event>
<event>
 4    1  0.3213443E-005  0.9038589E+03  0.7818608E-02  0.9420770E-01
          2   -1    0    0  501    0  0.00000000000E+00  0.00000000000E+00  0.11839704616E+03  0.11839704619E+03  0.25500000000E-02 0.  1.
         -2   -1    0    0    0  501 -0.00000000000E+00 -0.00000000000E+00 -0.17250448962E+04  0.17250448963E+04  0.25500000000E-02 0. -1.
    5000001    1    1    2    0    0 -0.22553818242E+03 -0.20272127394E+03 -0.20852431636E+03  0.40332465478E+03  0.16500000000E+03 0.  0.
   -5000001    1    1    2    0    0  0.22553818242E+03  0.20272127394E+03 -0.13981235337E+04  0.14401172877E+04  0.16500000000E+03 0.  0.
<mgrwt>
<rscale>  0 0.90385888E+03</rscale>
<asrwt>0</asrwt>
<pdfrwt beam="1">  1        2 0.18214931E-01 0.90385888E+03</pdfrwt>
<pdfrwt beam="2">  1       -2 0.26539150E+00 0.90385888E+03</pdfrwt>
<totfact> 0.16702437E+01</totfact>
</mgrwt>
</event>
<event>
 4    1  0.3213443E-005  0.1123164E+04  0.7818608E-02  0.9182904E-01
          2   -1    0    0  501    0  0.00000000000E+00  0.00000000000E+00  0.10851394428E+04  0.10851394428E+04  0.25500000000E-02 0.  1.
         -2   -1    0    0    0  501 -0.00000000000E+00 -0.00000000000E+00 -0.29063033236E+03  0.29063033237E+03  0.25500000000E-02 0. -1.
    5000001    1    1    2    0    0 -0.46218158452E+03  0.25788327427E+03  0.50704486847E+03  0.75128895830E+03  0.16500000000E+03 0.  0.
   -5000001    1    1    2    0    0  0.46218158452E+03 -0.25788327427E+03  0.28746424195E+03  0.62448081685E+03  0.16500000000E+03 0.  0.
<mgrwt>
<rscale>  0 0.11231642E+04</rscale>
<asrwt>0</asrwt>
<pdfrwt beam="1">  1        2 0.16694453E+00 0.11231642E+04</pdfrwt>
<pdfrwt beam="2">  1       -2 0.44712359E-01 0.11231642E+04</pdfrwt>
<totfact> 0.10461113E+02</totfact>
</mgrwt>
</event>
<event>
 4    1  0.3213443E-005  0.6932681E+03  0.7818608E-02  0.9728814E-01
          2   -1    0    0  501    0  0.00000000000E+00  0.00000000000E+00  0.75390320631E+03  0.75390320632E+03  0.25500000000E-02 0.  1.
         -2   -1    0    0    0  501 -0.00000000000E+00 -0.00000000000E+00 -0.15937746305E+03  0.15937746307E+03  0.25500000000E-02 0. -1.
    5000001    1    1    2    0    0 -0.26526404563E+03  0.12218859762E+03  0.18215348020E+03  0.38170663819E+03  0.16500000000E+03 0.  0.
   -5000001    1    1    2    0    0  0.26526404563E+03 -0.12218859762E+03  0.41237226307E+03  0.53157403119E+03  0.16500000000E+03 0.  0.
<mgrwt>
<rscale>  0 0.69326815E+03</rscale>
<asrwt>0</asrwt>
<pdfrwt beam="1">  1        2 0.11598511E+00 0.69326815E+03</pdfrwt>
<pdfrwt beam="2">  1       -2 0.24519609E-01 0.69326815E+03</pdfrwt>
<totfact> 0.55622281E+02</totfact>
</mgrwt>
</event>
<event>
 4    1  0.3213443E-005  0.6809138E+03  0.7818608E-02  0.9750441E-01
          2   -1    0    0  501    0  0.00000000000E+00  0.00000000000E+00  0.24032016943E+03  0.24032016945E+03  0.25500000000E-02 0.  1.
         -2   -1    0    0    0  501 -0.00000000000E+00 -0.00000000000E+00 -0.48231867043E+03  0.48231867044E+03  0.25500000000E-02 0. -1.
    5000001    1    1    2    0    0  0.21278719430E+03  0.15848790392E+03 -0.26452350856E+03  0.40938306307E+03  0.16500000000E+03 0.  0.
   -5000001    1    1    2    0    0 -0.21278719430E+03 -0.15848790392E+03  0.22525007564E+02  0.31325577682E+03  0.16500000000E+03 0.  0.
<mgrwt>
<rscale>  0 0.68091381E+03</rscale>
<asrwt>0</asrwt>
<pdfrwt beam="1">  1        2 0.36972334E-01 0.68091381E+03</pdfrwt>
<pdfrwt beam="2">  1       -2 0.74202872E-01 0.68091381E+03</pdfrwt>
<totfact> 0.23232671E+02</totfact>
</mgrwt>
</event>
<event>
 4    1  0.3213443E-005  0.3718069E+03  0.7818608E-02  0.1054004E+00
         -2   -1    0    0    0  501 -0.00000000000E+00  0.00000000000E+00  0.38236077948E+03  0.38236077949E+03  0.25500000000E-02 0. -1.
          2   -1    0    0  501    0  0.00000000000E+00 -0.00000000000E+00 -0.90386057762E+02  0.90386057798E+02  0.25500000000E-02 0.  1.
    5000001    1    1    2    0    0  0.82791533614E+02 -0.21919174916E+02  0.14542553786E+03  0.23602642930E+03  0.16500000000E+03 0.  0.
   -5000001    1    1    2    0    0 -0.82791533614E+02  0.21919174916E+02  0.14654918385E+03  0.23672040798E+03  0.16500000000E+03 0.  0.
<mgrwt>
<rscale>  0 0.37180685E+03</rscale>
<asrwt>0</asrwt>
<pdfrwt beam="1">  1        2 0.13905547E-01 0.37180685E+03</pdfrwt>
<pdfrwt beam="2">  1       -2 0.58824736E-01 0.37180685E+03</pdfrwt>
<totfact> 0.11838335E+03</totfact>
</mgrwt>
</event>
<event>
 4    1  0.3213443E-005  0.1027650E+04  0.7818608E-02  0.9278728E-01
          2   -1    0    0  501    0  0.00000000000E+00  0.00000000000E+00  0.29922596994E+04  0.29922596994E+04  0.25500000000E-02 0.  1.
         -2   -1    0    0    0  501 -0.00000000000E+00 -0.00000000000E+00 -0.88233004987E+02  0.88233005024E+02  0.25500000000E-02 0. -1.
    5000001    1    1    2    0    0  0.35692732216E+03 -0.32078955565E+03  0.16934653755E+04  0.17678668022E+04  0.16500000000E+03 0.  0.
   -5000001    1    1    2    0    0 -0.35692732216E+03  0.32078955565E+03  0.12105613189E+04  0.13126259022E+04  0.16500000000E+03 0.  0.
<mgrwt>
<rscale>  0 0.10276499E+04</rscale>
<asrwt>0</asrwt>
<pdfrwt beam="1">  1        2 0.46034765E+00 0.10276499E+04</pdfrwt>
<pdfrwt beam="2">  1       -2 0.13574308E-01 0.10276499E+04</pdfrwt>
<totfact> 0.74588936E+01</totfact>
</mgrwt>
</event>
<event>
 4    1  0.3213443E-005  0.1031363E+04  0.7818608E-02  0.9274799E-01
          2   -1    0    0  501    0  0.00000000000E+00  0.00000000000E+00  0.58647092513E+03  0.58647092513E+03  0.25500000000E-02 0.  1.
         -2   -1    0    0    0  501 -0.00000000000E+00 -0.00000000000E+00 -0.45343698399E+03  0.45343698400E+03  0.25500000000E-02 0. -1.
    5000001    1    1    2    0    0  0.14689191546E+03  0.44302613736E+03 -0.79085812249E+02  0.50132719746E+03  0.16500000000E+03 0.  0.
   -5000001    1    1    2    0    0 -0.14689191546E+03 -0.44302613736E+03  0.21211975339E+03  0.53858071167E+03  0.16500000000E+03 0.  0.
<mgrwt>
<rscale>  0 0.10313634E+04</rscale>
<asrwt>0</asrwt>
<pdfrwt beam="1">  1        2 0.90226296E-01 0.10313634E+04</pdfrwt>
<pdfrwt beam="2">  1       -2 0.69759536E-01 0.10313634E+04</pdfrwt>
<totfact> 0.95245398E+01</totfact>
</mgrwt>
</event>
<event>
 4    1  0.3213443E-005  0.6199668E+03  0.7818608E-02  0.9864826E-01
         -2   -1    0    0    0  501 -0.00000000000E+00  0.00000000000E+00  0.76121653009E+02  0.76121653052E+02  0.25500000000E-02 0. -1.
          2   -1    0    0  501    0  0.00000000000E+00 -0.00000000000E+00 -0.12623178349E+04  0.12623178349E+04  0.25500000000E-02 0.  1.
    5000001    1    1    2    0    0 -0.17680408905E+03 -0.18473147163E+03 -0.72044175037E+03  0.78207846038E+03  0.16500000000E+03 0.  0.
   -5000001    1    1    2    0    0  0.17680408905E+03  0.18473147163E+03 -0.46575443150E+03  0.55636102755E+03  0.16500000000E+03 0.  0.
<mgrwt>
<rscale>  0 0.61996684E+03</rscale>
<asrwt>0</asrwt>
<pdfrwt beam="1">  1        2 0.19420273E+00 0.61996684E+03</pdfrwt>
<pdfrwt beam="2">  1       -2 0.11711024E-01 0.61996684E+03</pdfrwt>
<totfact> 0.93335257E+02</totfact>
</mgrwt>
</event>
<event>
 4    1  0.3213443E-005  0.5380689E+03  0.7818608E-02  0.1004294E+00
          2   -1    0    0  501    0  0.00000000000E+00  0.00000000000E+00  0.13429509215E+04  0.13429509215E+04  0.25500000000E-02 0.  1.
         -2   -1    0    0    0  501 -0.00000000000E+00 -0.00000000000E+00 -0.53895895564E+02  0.53895895624E+02  0.25500000000E-02 0. -1.
    5000001    1    1    2    0    0 -0.20144454420E+03  0.12835660900E+02  0.47213259610E+03  0.53933185227E+03  0.16500000000E+03 0.  0.
   -5000001    1    1    2    0    0  0.20144454420E+03 -0.12835660900E+02  0.81692242985E+03  0.85751496486E+03  0.16500000000E+03 0.  0.
<mgrwt>
<rscale>  0 0.53806893E+03</rscale>
<asrwt>0</asrwt>
<pdfrwt beam="1">  1        2 0.20660783E+00 0.53806893E+03</pdfrwt>
<pdfrwt beam="2">  1       -2 0.82916762E-02 0.53806893E+03</pdfrwt>
<totfact> 0.14723409E+03</totfact>
</mgrwt>
</event>
<event>
 4    1  0.3213443E-005  0.6069163E+03  0.7818608E-02  0.9891160E-01
         -2   -1    0    0    0  501 -0.00000000000E+00  0.00000000000E+00  0.60949585504E+03  0.60949585504E+03  0.25500000000E-02 0. -1.
          2   -1    0    0  501    0  0.00000000000E+00 -0.00000000000E+00 -0.15108692831E+03  0.15108692833E+03  0.25500000000E-02 0.  1.
    5000001    1    1    2    0    0  0.19077874100E+03  0.10669380426E+03  0.39299318267E+03  0.47900807667E+03  0.16500000000E+03 0.  0.
   -5000001    1    1    2    0    0 -0.19077874100E+03 -0.10669380426E+03  0.65415744057E+02  0.28157470670E+03  0.16500000000E+03 0.  0.
<mgrwt>
<rscale>  0 0.60691633E+03</rscale>
<asrwt>0</asrwt>
<pdfrwt beam="1">  1        2 0.23244143E-01 0.60691633E+03</pdfrwt>
<pdfrwt beam="2">  1       -2 0.93768592E-01 0.60691633E+03</pdfrwt>
<totfact> 0.23173539E+02</totfact>
</mgrwt>
</event>
<event>
 4    1  0.3213443E-005  0.9600519E+03  0.7818608E-02  0.9353478E-01
          2   -1    0    0  501    0  0.00000000000E+00  0.00000000000E+00  0.47052469619E+03  0.47052469620E+03  0.25500000000E-02 0.  1.
         -2   -1    0    0    0  501 -0.00000000000E+00 -0.00000000000E+00 -0.48971904074E+03  0.48971904075E+03  0.25500000000E-02 0. -1.
    5000001    1    1    2    0    0 -0.36412573101E+03  0.14362880643E+03 -0.23321090210E+03  0.48459169089E+03  0.16500000000E+03 0.  0.
   -5000001    1    1    2    0    0  0.36412573101E+03 -0.14362880643E+03  0.21401655755E+03  0.47565204606E+03  0.16500000000E+03 0.  0.
<mgrwt>
<rscale>  0 0.96005188E+03</rscale>
<asrwt>0</asrwt>
<pdfrwt beam="1">  1        2 0.72388415E-01 0.96005188E+03</pdfrwt>
<pdfrwt beam="2">  1       -2 0.75341391E-01 0.96005188E+03</pdfrwt>
<totfact> 0.10457398E+02</totfact>
</mgrwt>
</event>
<event>
 4    1  0.3213443E-005  0.6826932E+03  0.7818608E-02  0.9747296E-01
          2   -1    0    0  501    0  0.00000000000E+00  0.00000000000E+00  0.57085266624E+03  0.57085266624E+03  0.25500000000E-02 0.  1.
         -2   -1    0    0    0  501 -0.00000000000E+00 -0.00000000000E+00 -0.20411133028E+03  0.20411133029E+03  0.25500000000E-02 0. -1.
    5000001    1    1    2    0    0 -0.95248369625E+02  0.22275643862E+03 -0.15200116837E+02  0.29351103287E+03  0.16500000000E+03 0.  0.
   -5000001    1    1    2    0    0  0.95248369625E+02 -0.22275643862E+03  0.38194145280E+03  0.48145296367E+03  0.16500000000E+03 0.  0.
<mgrwt>
<rscale>  0 0.68269319E+03</rscale>
<asrwt>0</asrwt>
<pdfrwt beam="1">  1        2 0.87823487E-01 0.68269319E+03</pdfrwt>
<pdfrwt beam="2">  1       -2 0.31401743E-01 0.68269319E+03</pdfrwt>
<totfact> 0.49887207E+02</totfact>
</mgrwt>
</event>
<event>
 4    1  0.3213443E-005  0.6757860E+03  0.7818608E-02  0.9759562E-01
         -2   -1    0    0    0  501 -0.00000000000E+00  0.00000000000E+00  0.28968407411E+03  0.28968407412E+03  0.25500000000E-02 0. -1.
          2   -1    0    0  501    0  0.00000000000E+00 -0.00000000000E+00 -0.39412476386E+03  0.39412476387E+03  0.25500000000E-02 0.  1.
    5000001    1    1    2    0    0 -0.19288159207E+03  0.18164016557E+03 -0.18317943755E+03  0.36190629263E+03  0.16500000000E+03 0.  0.
   -5000001    1    1    2    0    0  0.19288159207E+03 -0.18164016557E+03  0.78738747803E+02  0.32190254536E+03  0.16500000000E+03 0.  0.
<mgrwt>
<rscale>  0 0.67578596E+03</rscale>
<asrwt>0</asrwt>
<pdfrwt beam="1">  1        2 0.60634579E-01 0.67578596E+03</pdfrwt>
<pdfrwt beam="2">  1       -2 0.44566781E-01 0.67578596E+03</pdfrwt>
<totfact> 0.38947377E+02</totfact>
</mgrwt>
</event>
<event>
 4    1  0.3213443E-005  0.8696052E+03  0.7818608E-02  0.9464395E-01
         -2   -1    0    0    0  501 -0.00000000000E+00  0.00000000000E+00  0.60370861487E+02  0.60370861541E+02  0.25500000000E-02 0. -1.
          2   -1    0    0  501    0  0.00000000000E+00 -0.00000000000E+00 -0.31315321729E+04  0.31315321729E+04  0.25500000000E-02 0.  1.
    5000001    1    1    2    0    0  0.24574844954E+03  0.25842449661E+03 -0.22188572951E+04  0.22533815072E+04  0.16500000000E+03 0.  0.
   -5000001    1    1    2    0    0 -0.24574844954E+03 -0.25842449661E+03 -0.85230401627E+03  0.93852152722E+03  0.16500000000E+03 0.  0.
<mgrwt>
<rscale>  0 0.86960519E+03</rscale>
<asrwt>0</asrwt>
<pdfrwt beam="1">  1        2 0.48177405E+00 0.86960519E+03</pdfrwt>
<pdfrwt beam="2">  1       -2 0.92878273E-02 0.86960519E+03</pdfrwt>
<totfact> 0.11619082E+02</totfact>
</mgrwt>
</event>
<event>
 4    1  0.3213443E-005  0.3497265E+03  0.7818608E-02  0.1062727E+00
          2   -1    0    0  501    0  0.00000000000E+00  0.00000000000E+00  0.15416459520E+04  0.15416459520E+04  0.25500000000E-02 0.  1.
         -2   -1    0    0    0  501 -0.00000000000E+00 -0.00000000000E+00 -0.19834103005E+02  0.19834103169E+02  0.25500000000E-02 0. -1.
    5000001    1    1    2    0    0 -0.16356340503E+02  0.53376294334E+02  0.69237271454E+03  0.71394785140E+03  0.16500000000E+03 0.  0.
   -5000001    1    1    2    0    0  0.16356340503E+02 -0.53376294334E+02  0.82943913443E+03  0.84753220375E+03  0.16500000000E+03 0.  0.
<mgrwt>
<rscale>  0 0.34972655E+03</rscale>
<asrwt>0</asrwt>
<pdfrwt beam="1">  1        2 0.23717628E+00 0.34972655E+03</pdfrwt>
<pdfrwt beam="2">  1       -2 0.30514007E-02 0.34972655E+03</pdfrwt>
<totfact> 0.53647471E+03</totfact>
</mgrwt>
</event>
<event>
 4    1  0.3213443E-005  0.5839678E+03  0.7818608E-02  0.9939238E-01
          2   -1    0    0  501    0  0.00000000000E+00  0.00000000000E+00  0.27538257982E+03  0.27538257984E+03  0.25500000000E-02 0.  1.
         -2   -1    0    0    0  501 -0.00000000000E+00 -0.00000000000E+00 -0.30958597582E+03  0.30958597583E+03  0.25500000000E-02 0. -1.
    5000001    1    1    2    0    0 -0.18773530001E+03  0.14242063387E+03  0.32998062652E+02  0.28955492046E+03  0.16500000000E+03 0.  0.
   -5000001    1    1    2    0    0  0.18773530001E+03 -0.14242063387E+03 -0.67201458651E+02  0.29541363521E+03  0.16500000000E+03 0.  0.
<mgrwt>
<rscale>  0 0.58396775E+03</rscale>
<asrwt>0</asrwt>
<pdfrwt beam="1">  1        2 0.42366551E-01 0.58396775E+03</pdfrwt>
<pdfrwt beam="2">  1       -2 0.47628612E-01 0.58396775E+03</pdfrwt>
<totfact> 0.50877151E+02</totfact>
</mgrwt>
</event>
<event>
 4    1  0.3213443E-005  0.6082521E+03  0.7818608E-02  0.9888432E-01
          2   -1    0    0  501    0  0.00000000000E+00  0.00000000000E+00  0.94231274360E+03  0.94231274361E+03  0.25500000000E-02 0.  1.
         -2   -1    0    0    0  501 -0.00000000000E+00 -0.00000000000E+00 -0.98154934371E+02  0.98154934404E+02  0.25500000000E-02 0. -1.
    5000001    1    1    2    0    0  0.24594518862E+03  0.59809069522E+02  0.36278580430E+03  0.47212784328E+03  0.16500000000E+03 0.  0.
   -5000001    1    1    2    0    0 -0.24594518862E+03 -0.59809069522E+02  0.48137200494E+03  0.56833983473E+03  0.16500000000E+03 0.  0.
<mgrwt>
<rscale>  0 0.60825207E+03</rscale>
<asrwt>0</asrwt>
<pdfrwt beam="1">  1        2 0.14497120E+00 0.60825207E+03</pdfrwt>
<pdfrwt beam="2">  1       -2 0.15100759E-01 0.60825207E+03</pdfrwt>
<totfact> 0.95833355E+02</totfact>
</mgrwt>
</event>
<event>
 4    1  0.3213443E-005  0.3697955E+03  0.7818608E-02  0.1054771E+00
         -2   -1    0    0    0  501 -0.00000000000E+00  0.00000000000E+00  0.35421983851E+02  0.35421983942E+02  0.25500000000E-02 0. -1.
          2   -1    0    0  501    0  0.00000000000E+00 -0.00000000000E+00 -0.96513992326E+03  0.96513992326E+03  0.25500000000E-02 0.  1.
    5000001    1    1    2    0    0 -0.64040012344E+02  0.42010905214E+02 -0.37527842184E+03  0.41704308319E+03  0.16500000000E+03 0.  0.
   -5000001    1    1    2    0    0  0.64040012344E+02 -0.42010905214E+02 -0.55443951757E+03  0.58351882401E+03  0.16500000000E+03 0.  0.
<mgrwt>
<rscale>  0 0.36979546E+03</rscale>
<asrwt>0</asrwt>
<pdfrwt beam="1">  1        2 0.14848305E+00 0.36979546E+03</pdfrwt>
<pdfrwt beam="2">  1       -2 0.54495367E-02 0.36979546E+03</pdfrwt>
<totfact> 0.47583453E+03</totfact>
</mgrwt>
</event>
<event>
 4    1  0.3213443E-005  0.7110289E+03  0.7818608E-02  0.9698555E-01
          2   -1    0    0  501    0  0.00000000000E+00  0.00000000000E+00  0.18778449148E+04  0.18778449148E+04  0.25500000000E-02 0.  1.
         -2   -1    0    0    0  501 -0.00000000000E+00 -0.00000000000E+00 -0.67306161635E+02  0.67306161683E+02  0.25500000000E-02 0. -1.
    5000001    1    1    2    0    0 -0.13952641609E+03 -0.42934104070E+02  0.14194674495E+03  0.26207792063E+03  0.16500000000E+03 0.  0.
   -5000001    1    1    2    0    0  0.13952641609E+03  0.42934104070E+02  0.16685920082E+04  0.16830731558E+04  0.16500000000E+03 0.  0.
<mgrwt>
<rscale>  0 0.71102893E+03</rscale>
<asrwt>0</asrwt>
<pdfrwt beam="1">  1        2 0.28889923E+00 0.71102893E+03</pdfrwt>
<pdfrwt beam="2">  1       -2 0.10354794E-01 0.71102893E+03</pdfrwt>
<totfact> 0.51828993E+02</totfact>
</mgrwt>
</event>
<event>
 4    1  0.3213443E-005  0.7123938E+03  0.7818608E-02  0.9696269E-01
          2   -1    0    0  501    0  0.00000000000E+00  0.00000000000E+00  0.28240007973E+03  0.28240007974E+03  0.25500000000E-02 0.  1.
         -2   -1    0    0    0  501 -0.00000000000E+00 -0.00000000000E+00 -0.44927825481E+03  0.44927825481E+03  0.25500000000E-02 0. -1.
    5000001    1    1    2    0    0 -0.19177598097E+03  0.14173175433E+03 -0.29588450762E+03  0.41429284197E+03  0.16500000000E+03 0.  0.
   -5000001    1    1    2    0    0  0.19177598097E+03 -0.14173175433E+03  0.12900633254E+03  0.31738549258E+03  0.16500000000E+03 0.  0.
<mgrwt>
<rscale>  0 0.71239375E+03</rscale>
<asrwt>0</asrwt>
<pdfrwt beam="1">  1        2 0.43446166E-01 0.71239375E+03</pdfrwt>
<pdfrwt beam="2">  1       -2 0.69119732E-01 0.71239375E+03</pdfrwt>
<totfact> 0.22663091E+02</totfact>
</mgrwt>
</event>
<event>
 4    1  0.3213443E-005  0.4232612E+03  0.7818608E-02  0.1036010E+00
          2   -1    0    0  501    0  0.00000000000E+00  0.00000000000E+00  0.53027397495E+03  0.53027397496E+03  0.25500000000E-02 0.  1.
         -2   -1    0    0    0  501 -0.00000000000E+00 -0.00000000000E+00 -0.84461064078E+02  0.84461064117E+02  0.25500000000E-02 0. -1.
    5000001    1    1    2    0    0  0.81761408835E+02 -0.16929484714E+02  0.37237416692E+03  0.41576322062E+03  0.16500000000E+03 0.  0.
   -5000001    1    1    2    0    0 -0.81761408835E+02  0.16929484714E+02  0.73438743953E+02  0.19897181846E+03  0.16500000000E+03 0.  0.
<mgrwt>
<rscale>  0 0.42326117E+03</rscale>
<asrwt>0</asrwt>
<pdfrwt beam="1">  1        2 0.81580612E-01 0.42326117E+03</pdfrwt>
<pdfrwt beam="2">  1       -2 0.12994010E-01 0.42326117E+03</pdfrwt>
<totfact> 0.25426860E+03</totfact>
</mgrwt>
</event>
<event>
 4    1  0.3213443E-005  0.6429521E+03  0.7818608E-02  0.9820095E-01
         -2   -1    0    0    0  501 -0.00000000000E+00  0.00000000000E+00  0.60751481253E+02  0.60751481306E+02  0.25500000000E-02 0. -1.
          2   -1    0    0  501    0  0.00000000000E+00 -0.00000000000E+00 -0.17011412192E+04  0.17011412192E+04  0.25500000000E-02 0.  1.
    5000001    1    1    2    0    0  0.18505389654E+03 -0.20145224986E+03 -0.72162358480E+03  0.78917270083E+03  0.16500000000E+03 0.  0.
   -5000001    1    1    2    0    0 -0.18505389654E+03  0.20145224986E+03 -0.91876615315E+03  0.97271999968E+03  0.16500000000E+03 0.  0.
<mgrwt>
<rscale>  0 0.64295209E+03</rscale>
<asrwt>0</asrwt>
<pdfrwt beam="1">  1        2 0.26171400E+00 0.64295209E+03</pdfrwt>
<pdfrwt beam="2">  1       -2 0.93463830E-02 0.64295209E+03</pdfrwt>
<totfact> 0.76692583E+02</totfact>
</mgrwt>
</event>
<event>
 4    1  0.3213443E-005  0.5321646E+03  0.7818608E-02  0.1005709E+00
          2   -1    0    0  501    0  0.00000000000E+00  0.00000000000E+00  0.32713086217E+04  0.32713086217E+04  0.25500000000E-02 0.  1.
         -2   -1    0    0    0  501 -0.00000000000E+00 -0.00000000000E+00 -0.21642653437E+02  0.21642653587E+02  0.25500000000E-02 0. -1.
    5000001    1    1    2    0    0 -0.14350772794E+03 -0.84843578322E+02  0.24021871251E+04  0.24136115853E+04  0.16500000000E+03 0.  0.
   -5000001    1    1    2    0    0  0.14350772794E+03  0.84843578322E+02  0.84747884321E+03  0.87933969003E+03  0.16500000000E+03 0.  0.
<mgrwt>
<rscale>  0 0.53216463E+03</rscale>
<asrwt>0</asrwt>
<pdfrwt beam="1">  1        2 0.50327780E+00 0.53216463E+03</pdfrwt>
<pdfrwt beam="2">  1       -2 0.33296420E-02 0.53216463E+03</pdfrwt>
<totfact> 0.49203403E+02</totfact>
</mgrwt>
</event>
<event>
 4    1  0.3213443E-005  0.3522158E+03  0.7818608E-02  0.1061709E+00
         -2   -1    0    0    0  501 -0.00000000000E+00  0.00000000000E+00  0.15846467130E+02  0.15846467336E+02  0.25500000000E-02 0. -1.
          2   -1    0    0  501    0  0.00000000000E+00 -0.00000000000E+00 -0.19571551151E+04  0.19571551151E+04  0.25500000000E-02 0.  1.
    5000001    1    1    2    0    0  0.26863083074E+02  0.50292990257E+02 -0.84072613414E+03  0.85865967806E+03  0.16500000000E+03 0.  0.
   -5000001    1    1    2    0    0 -0.26863083074E+02 -0.50292990257E+02 -0.11005825138E+04  0.11143419043E+04  0.16500000000E+03 0.  0.
<mgrwt>
<rscale>  0 0.35221581E+03</rscale>
<asrwt>0</asrwt>
<pdfrwt beam="1">  1        2 0.30110060E+00 0.35221581E+03</pdfrwt>
<pdfrwt beam="2">  1       -2 0.24379196E-02 0.35221581E+03</pdfrwt>
<totfact> 0.45100139E+03</totfact>
</mgrwt>
</event>
<event>
 4    1  0.3213443E-005  0.6073807E+03  0.7818608E-02  0.9890211E-01
         -2   -1    0    0    0  501 -0.00000000000E+00  0.00000000000E+00  0.49903055140E+02  0.49903055205E+02  0.25500000000E-02 0. -1.
          2   -1    0    0  501    0  0.00000000000E+00 -0.00000000000E+00 -0.18481398098E+04  0.18481398098E+04  0.25500000000E-02 0.  1.
    5000001    1    1    2    0    0 -0.21415460750E+03 -0.13834081080E+03 -0.89422997852E+03  0.94439008377E+03  0.16500000000E+03 0.  0.
   -5000001    1    1    2    0    0  0.21415460750E+03  0.13834081080E+03 -0.90400677618E+03  0.95365278127E+03  0.16500000000E+03 0.  0.
<mgrwt>
<rscale>  0 0.60738068E+03</rscale>
<asrwt>0</asrwt>
<pdfrwt beam="1">  1        2 0.28432915E+00 0.60738068E+03</pdfrwt>
<pdfrwt beam="2">  1       -2 0.76773945E-02 0.60738068E+03</pdfrwt>
<totfact> 0.87662684E+02</totfact>
</mgrwt>
</event>
<event>
 4    1  0.3213443E-005  0.7635260E+03  0.7818608E-02  0.9614366E-01
         -2   -1    0    0    0  501 -0.00000000000E+00  0.00000000000E+00  0.19287550832E+03  0.19287550834E+03  0.25500000000E-02 0. -1.
          2   -1    0    0  501    0  0.00000000000E+00 -0.00000000000E+00 -0.75563236864E+03  0.75563236864E+03  0.25500000000E-02 0.  1.
    5000001    1    1    2    0    0  0.19122327389E+03  0.76372599925E+02  0.61360370903E+02  0.27090442893E+03  0.16500000000E+03 0.  0.
   -5000001    1    1    2    0    0 -0.19122327389E+03 -0.76372599925E+02 -0.62411723122E+03  0.67760344805E+03  0.16500000000E+03 0.  0.
<mgrwt>
<rscale>  0 0.76352597E+03</rscale>
<asrwt>0</asrwt>
<pdfrwt beam="1">  1        2 0.11625113E+00 0.76352597E+03</pdfrwt>
<pdfrwt beam="2">  1       -2 0.29673155E-01 0.76352597E+03</pdfrwt>
<totfact> 0.39065050E+02</totfact>
</mgrwt>
</event>
<event>
 4    1  0.3213443E-005  0.5706540E+03  0.7818608E-02  0.9968233E-01
          2   -1    0    0  501    0  0.00000000000E+00  0.00000000000E+00  0.97990379625E+03  0.97990379626E+03  0.25500000000E-02 0.  1.
         -2   -1    0    0    0  501 -0.00000000000E+00 -0.00000000000E+00 -0.83081099702E+02  0.83081099741E+02  0.25500000000E-02 0. -1.
    5000001    1    1    2    0    0  0.18127366402E+03  0.93185716241E+02  0.23896378593E+03  0.35478501936E+03  0.16500000000E+03 0.  0.
   -5000001    1    1    2    0    0 -0.18127366402E+03 -0.93185716241E+02  0.65785891062E+03  0.70819987663E+03  0.16500000000E+03 0.  0.
<mgrwt>
<rscale>  0 0.57065396E+03</rscale>
<asrwt>0</asrwt>
<pdfrwt beam="1">  1        2 0.15075444E+00 0.57065396E+03</pdfrwt>
<pdfrwt beam="2">  1       -2 0.12781707E-01 0.57065396E+03</pdfrwt>
<totfact> 0.11985218E+03</totfact>
</mgrwt>
</event>
<event>
 4    1  0.3213443E-005  0.3984427E+03  0.7818608E-02  0.1044320E+00
          2   -1    0    0  501    0  0.00000000000E+00  0.00000000000E+00  0.41160855743E+03  0.41160855744E+03  0.25500000000E-02 0.  1.
         -2   -1    0    0    0  501 -0.00000000000E+00 -0.00000000000E+00 -0.96424492579E+02  0.96424492613E+02  0.25500000000E-02 0. -1.
    5000001    1    1    2    0    0  0.50159483863E+02  0.94004894160E+02  0.20009629040E+03  0.28038619684E+03  0.16500000000E+03 0.  0.
   -5000001    1    1    2    0    0 -0.50159483863E+02 -0.94004894160E+02  0.11508777445E+03  0.22764685321E+03  0.16500000000E+03 0.  0.
<mgrwt>
<rscale>  0 0.39844270E+03</rscale>
<asrwt>0</asrwt>
<pdfrwt beam="1">  1        2 0.63324395E-01 0.39844270E+03</pdfrwt>
<pdfrwt beam="2">  1       -2 0.14834537E-01 0.39844270E+03</pdfrwt>
<totfact> 0.27137588E+03</totfact>
</mgrwt>
</event>
<event>
 4    1  0.3213443E-005  0.4337369E+03  0.7818608E-02  0.1032686E+00
         -2   -1    0    0    0  501 -0.00000000000E+00  0.00000000000E+00  0.19481158986E+03  0.19481158988E+03  0.25500000000E-02 0. -1.
          2   -1    0    0  501    0  0.00000000000E+00 -0.00000000000E+00 -0.24142259829E+03  0.24142259830E+03  0.25500000000E-02 0.  1.
    5000001    1    1    2    0    0  0.25430834473E+02 -0.97746226294E+02  0.75268331825E+02  0.20758461858E+03  0.16500000000E+03 0.  0.
   -5000001    1    1    2    0    0 -0.25430834473E+02  0.97746226294E+02 -0.12187934025E+03  0.22864956960E+03  0.16500000000E+03 0.  0.
<mgrwt>
<rscale>  0 0.43373688E+03</rscale>
<asrwt>0</asrwt>
<pdfrwt beam="1">  1        2 0.37141938E-01 0.43373688E+03</pdfrwt>
<pdfrwt beam="2">  1       -2 0.29971014E-01 0.43373688E+03</pdfrwt>
<totfact> 0.14300073E+03</totfact>
</mgrwt>
</event>
<event>
 4    1  0.3213443E-005  0.6037867E+03  0.7818608E-02  0.9897581E-01
          2   -1    0    0  501    0  0.00000000000E+00  0.00000000000E+00  0.11530121424E+04  0.11530121424E+04  0.25500000000E-02 0.  1.
         -2   -1    0    0    0  501 -0.00000000000E+00 -0.00000000000E+00 -0.79044774732E+02  0.79044774773E+02  0.25500000000E-02 0. -1.
    5000001    1    1    2    0    0 -0.23971674726E+03  0.79809166064E+02  0.55534446005E+03  0.63203329914E+03  0.16500000000E+03 0.  0.
   -5000001    1    1    2    0    0  0.23971674726E+03 -0.79809166064E+02  0.51862290764E+03  0.60002361806E+03  0.16500000000E+03 0.  0.
<mgrwt>
<rscale>  0 0.60378667E+03</rscale>
<asrwt>0</asrwt>
<pdfrwt beam="1">  1        2 0.17738646E+00 0.60378667E+03</pdfrwt>
<pdfrwt beam="2">  1       -2 0.12160736E-01 0.60378667E+03</pdfrwt>
<totfact> 0.10173249E+03</totfact>
</mgrwt>
</event>
<event>
 4    1  0.3213443E-005  0.5266430E+03  0.7818608E-02  0.1007050E+00
         -2   -1    0    0    0  501 -0.00000000000E+00  0.00000000000E+00  0.60241388917E+02  0.60241388971E+02  0.25500000000E-02 0. -1.
          2   -1    0    0  501    0  0.00000000000E+00 -0.00000000000E+00 -0.11510063517E+04  0.11510063517E+04  0.25500000000E-02 0.  1.
    5000001    1    1    2    0    0  0.20283792926E+03  0.30229432559E+02 -0.56262086600E+03  0.62114755332E+03  0.16500000000E+03 0.  0.
   -5000001    1    1    2    0    0 -0.20283792926E+03 -0.30229432559E+02 -0.52814409674E+03  0.59010018731E+03  0.16500000000E+03 0.  0.
<mgrwt>
<rscale>  0 0.52664303E+03</rscale>
<asrwt>0</asrwt>
<pdfrwt beam="1">  1        2 0.17707788E+00 0.52664303E+03</pdfrwt>
<pdfrwt beam="2">  1       -2 0.92679068E-02 0.52664303E+03</pdfrwt>
<totfact> 0.15908400E+03</totfact>
</mgrwt>
</event>
<event>
 4    1  0.3213443E-005  0.7910464E+03  0.7818608E-02  0.9573068E-01
          2   -1    0    0  501    0  0.00000000000E+00  0.00000000000E+00  0.27692150100E+04  0.27692150100E+04  0.25500000000E-02 0.  1.
         -2   -1    0    0    0  501 -0.00000000000E+00 -0.00000000000E+00 -0.56492035382E+02  0.56492035439E+02  0.25500000000E-02 0. -1.
    5000001    1    1    2    0    0 -0.22497658256E+03 -0.25046353872E+03  0.18063221947E+04  0.18448228419E+04  0.16500000000E+03 0.  0.
   -5000001    1    1    2    0    0  0.22497658256E+03  0.25046353872E+03  0.90640077996E+03  0.98088420358E+03  0.16500000000E+03 0.  0.
<mgrwt>
<rscale>  0 0.79104638E+03</rscale>
<asrwt>0</asrwt>
<pdfrwt beam="1">  1        2 0.42603308E+00 0.79104638E+03</pdfrwt>
<pdfrwt beam="2">  1       -2 0.86910823E-02 0.79104638E+03</pdfrwt>
<totfact> 0.21674116E+02</totfact>
</mgrwt>
</event>
<event>
 4    1  0.3213443E-005  0.3762147E+03  0.7818608E-02  0.1052342E+00
          2   -1    0    0  501    0  0.00000000000E+00  0.00000000000E+00  0.11510958644E+04  0.11510958644E+04  0.25500000000E-02 0.  1.
         -2   -1    0    0    0  501 -0.00000000000E+00 -0.00000000000E+00 -0.30739724403E+02  0.30739724509E+02  0.25500000000E-02 0. -1.
    5000001    1    1    2    0    0 -0.85604306220E+02 -0.15555594660E+02  0.63643653456E+03  0.66320927036E+03  0.16500000000E+03 0.  0.
   -5000001    1    1    2    0    0  0.85604306220E+02  0.15555594660E+02  0.48391960544E+03  0.51862631856E+03  0.16500000000E+03 0.  0.
<mgrwt>
<rscale>  0 0.37621467E+03</rscale>
<asrwt>0</asrwt>
<pdfrwt beam="1">  1        2 0.17709166E+00 0.37621467E+03</pdfrwt>
<pdfrwt beam="2">  1       -2 0.47291886E-02 0.37621467E+03</pdfrwt>
<totfact> 0.45632849E+03</totfact>
</mgrwt>
</event>
<event>
 4    1  0.3213443E-005  0.5962660E+03  0.7818608E-02  0.9913183E-01
          2   -1    0    0  501    0  0.00000000000E+00  0.00000000000E+00  0.18508047605E+04  0.18508047605E+04  0.25500000000E-02 0.  1.
         -2   -1    0    0    0  501 -0.00000000000E+00 -0.00000000000E+00 -0.48024135978E+02  0.48024136046E+02  0.25500000000E-02 0. -1.
    5000001    1    1    2    0    0  0.19291214427E+03  0.15342041744E+03  0.80556921977E+03  0.85844026452E+03  0.16500000000E+03 0.  0.
   -5000001    1    1    2    0    0 -0.19291214427E+03 -0.15342041744E+03  0.99721140475E+03  0.10403886320E+04  0.16500000000E+03 0.  0.
<mgrwt>
<rscale>  0 0.59626605E+03</rscale>
<asrwt>0</asrwt>
<pdfrwt beam="1">  1        2 0.28473913E+00 0.59626605E+03</pdfrwt>
<pdfrwt beam="2">  1       -2 0.73883302E-02 0.59626605E+03</pdfrwt>
<totfact> 0.92925346E+02</totfact>
</mgrwt>
</event>
<event>
 4    1  0.3213443E-005  0.5128900E+03  0.7818608E-02  0.1010468E+00
         -2   -1    0    0    0  501 -0.00000000000E+00  0.00000000000E+00  0.28315454674E+02  0.28315454789E+02  0.25500000000E-02 0. -1.
          2   -1    0    0  501    0  0.00000000000E+00 -0.00000000000E+00 -0.23225493195E+04  0.23225493195E+04  0.25500000000E-02 0.  1.
    5000001    1    1    2    0    0  0.18760726961E+03 -0.18247845138E+02 -0.89566467557E+03  0.93003746296E+03  0.16500000000E+03 0.  0.
   -5000001    1    1    2    0    0 -0.18760726961E+03  0.18247845138E+02 -0.13985691893E+04  0.14208273113E+04  0.16500000000E+03 0.  0.
<mgrwt>
<rscale>  0 0.51289001E+03</rscale>
<asrwt>0</asrwt>
<pdfrwt beam="1">  1        2 0.35731513E+00 0.51289001E+03</pdfrwt>
<pdfrwt beam="2">  1       -2 0.43562256E-02 0.51289001E+03</pdfrwt>
<totfact> 0.11808985E+03</totfact>
</mgrwt>
</event>
<event>
 4    1  0.3213443E-005  0.5110207E+03  0.7818608E-02  0.1010942E+00
         -2   -1    0    0    0  501 -0.00000000000E+00  0.00000000000E+00  0.84812589329E+03  0.84812589329E+03  0.25500000000E-02 0. -1.
          2   -1    0    0  501    0  0.00000000000E+00 -0.00000000000E+00 -0.76976235795E+02  0.76976235837E+02  0.25500000000E-02 0.  1.
    5000001    1    1    2    0    0 -0.14446611570E+03 -0.68822238677E+02  0.18355300384E+03  0.29414905123E+03  0.16500000000E+03 0.  0.
   -5000001    1    1    2    0    0  0.14446611570E+03  0.68822238677E+02  0.58759665365E+03  0.63095307790E+03  0.16500000000E+03 0.  0.
<mgrwt>
<rscale>  0 0.51102070E+03</rscale>
<asrwt>0</asrwt>
<pdfrwt beam="1">  1        2 0.11842497E-01 0.51102070E+03</pdfrwt>
<pdfrwt beam="2">  1       -2 0.13048091E+00 0.51102070E+03</pdfrwt>
<totfact> 0.23443589E+02</totfact>
</mgrwt>
</event>
<event>
 4    1  0.3213443E-005  0.3613247E+03  0.7818608E-02  0.1058061E+00
          2   -1    0    0  501    0  0.00000000000E+00  0.00000000000E+00  0.32495943613E+03  0.32495943614E+03  0.25500000000E-02 0.  1.
         -2   -1    0    0    0  501 -0.00000000000E+00 -0.00000000000E+00 -0.10043990076E+03  0.10043990079E+03  0.25500000000E-02 0. -1.
    5000001    1    1    2    0    0  0.84925850275E+01 -0.72529039856E+02  0.10164365615E+03  0.20709664039E+03  0.16500000000E+03 0.  0.
   -5000001    1    1    2    0    0 -0.84925850275E+01  0.72529039856E+02  0.12287587922E+03  0.21830269654E+03  0.16500000000E+03 0.  0.
<mgrwt>
<rscale>  0 0.36132475E+03</rscale>
<asrwt>0</asrwt>
<pdfrwt beam="1">  1        2 0.49993760E-01 0.36132475E+03</pdfrwt>
<pdfrwt beam="2">  1       -2 0.15452292E-01 0.36132475E+03</pdfrwt>
<totfact> 0.32789087E+03</totfact>
</mgrwt>
</event>
<event>
 4    1  0.3213443E-005  0.6317946E+03  0.7818608E-02  0.9841553E-01
          2   -1    0    0  501    0  0.00000000000E+00  0.00000000000E+00  0.10115331505E+04  0.10115331505E+04  0.25500000000E-02 0.  1.
         -2   -1    0    0    0  501 -0.00000000000E+00 -0.00000000000E+00 -0.98653335518E+02  0.98653335551E+02  0.25500000000E-02 0. -1.
    5000001    1    1    2    0    0  0.14478681907E+02 -0.26788698304E+03  0.41364755546E+03  0.51990611465E+03  0.16500000000E+03 0.  0.
   -5000001    1    1    2    0    0 -0.14478681907E+02  0.26788698304E+03  0.49923225951E+03  0.59028037139E+03  0.16500000000E+03 0.  0.
<mgrwt>
<rscale>  0 0.63179465E+03</rscale>
<asrwt>0</asrwt>
<pdfrwt beam="1">  1        2 0.15562049E+00 0.63179465E+03</pdfrwt>
<pdfrwt beam="2">  1       -2 0.15177436E-01 0.63179465E+03</pdfrwt>
<totfact> 0.85727918E+02</totfact>
</mgrwt>
</event>
<event>
 4    1  0.3213443E-005  0.4078519E+03  0.7818608E-02  0.1041094E+00
         -2   -1    0    0    0  501 -0.00000000000E+00  0.00000000000E+00  0.23122259273E+03  0.23122259274E+03  0.25500000000E-02 0. -1.
          2   -1    0    0  501    0  0.00000000000E+00 -0.00000000000E+00 -0.17985181021E+03  0.17985181023E+03  0.25500000000E-02 0.  1.
    5000001    1    1    2    0    0  0.39551669925E+02 -0.10273775165E+03  0.73403110926E+02  0.21150034728E+03  0.16500000000E+03 0.  0.
   -5000001    1    1    2    0    0 -0.39551669925E+02  0.10273775165E+03 -0.22032328411E+02  0.19957405568E+03  0.16500000000E+03 0.  0.
<mgrwt>
<rscale>  0 0.40785194E+03</rscale>
<asrwt>0</asrwt>
<pdfrwt beam="1">  1        2 0.27669509E-01 0.40785194E+03</pdfrwt>
<pdfrwt beam="2">  1       -2 0.35572707E-01 0.40785194E+03</pdfrwt>
<totfact> 0.14401910E+03</totfact>
</mgrwt>
</event>
<event>
 4    1  0.3213443E-005  0.3755418E+03  0.7818608E-02  0.1052594E+00
          2   -1    0    0  501    0  0.00000000000E+00  0.00000000000E+00  0.15495886932E+03  0.15495886934E+03  0.25500000000E-02 0.  1.
         -2   -1    0    0    0  501 -0.00000000000E+00 -0.00000000000E+00 -0.22753074164E+03  0.22753074165E+03  0.25500000000E-02 0. -1.
    5000001    1    1    2    0    0  0.83669313555E+02 -0.31127403136E+02 -0.44398038544E+02  0.19278395961E+03  0.16500000000E+03 0.  0.
   -5000001    1    1    2    0    0 -0.83669313555E+02  0.31127403136E+02 -0.28173833777E+02  0.18970565138E+03  0.16500000000E+03 0.  0.
<mgrwt>
<rscale>  0 0.37554178E+03</rscale>
<asrwt>0</asrwt>
<pdfrwt beam="1">  1        2 0.23839826E-01 0.37554178E+03</pdfrwt>
<pdfrwt beam="2">  1       -2 0.35004730E-01 0.37554178E+03</pdfrwt>
<totfact> 0.17542314E+03</totfact>
</mgrwt>
</event>
<event>
 4    1  0.3213443E-005  0.6079793E+03  0.7818608E-02  0.9888989E-01
          2   -1    0    0  501    0  0.00000000000E+00  0.00000000000E+00  0.29897879665E+04  0.29897879665E+04  0.25500000000E-02 0.  1.
         -2   -1    0    0    0  501 -0.00000000000E+00 -0.00000000000E+00 -0.30908444906E+02  0.30908445011E+02  0.25500000000E-02 0. -1.
    5000001    1    1    2    0    0  0.39677269746E+02 -0.25218369506E+03  0.14978932898E+04  0.15284240934E+04  0.16500000000E+03 0.  0.
   -5000001    1    1    2    0    0 -0.39677269746E+02  0.25218369506E+03  0.14609862318E+04  0.14922723181E+04  0.16500000000E+03 0.  0.
<mgrwt>
<rscale>  0 0.60797927E+03</rscale>
<asrwt>0</asrwt>
<pdfrwt beam="1">  1        2 0.45996767E+00 0.60797927E+03</pdfrwt>
<pdfrwt beam="2">  1       -2 0.47551424E-02 0.60797927E+03</pdfrwt>
<totfact> 0.42252190E+02</totfact>
</mgrwt>
</event>
<event>
 4    1  0.3213443E-005  0.6474666E+03  0.7818608E-02  0.9811544E-01
          2   -1    0    0  501    0  0.00000000000E+00  0.00000000000E+00  0.12531191398E+03  0.12531191401E+03  0.25500000000E-02 0.  1.
         -2   -1    0    0    0  501 -0.00000000000E+00 -0.00000000000E+00 -0.83633917649E+03  0.83633917649E+03  0.25500000000E-02 0. -1.
    5000001    1    1    2    0    0 -0.18015534571E+03  0.11012109990E+03 -0.85721967983E+02  0.28134651416E+03  0.16500000000E+03 0.  0.
   -5000001    1    1    2    0    0  0.18015534571E+03 -0.11012109990E+03 -0.62530529453E+03  0.68030457634E+03  0.16500000000E+03 0.  0.
<mgrwt>
<rscale>  0 0.64746664E+03</rscale>
<asrwt>0</asrwt>
<pdfrwt beam="1">  1        2 0.19278756E-01 0.64746664E+03</pdfrwt>
<pdfrwt beam="2">  1       -2 0.12866756E+00 0.64746664E+03</pdfrwt>
<totfact> 0.13401832E+02</totfact>
</mgrwt>
</event>
<event>
 4    1  0.3213443E-005  0.5031587E+03  0.7818608E-02  0.1012958E+00
          2   -1    0    0  501    0  0.00000000000E+00  0.00000000000E+00  0.35620754624E+03  0.35620754625E+03  0.25500000000E-02 0.  1.
         -2   -1    0    0    0  501 -0.00000000000E+00 -0.00000000000E+00 -0.17768339681E+03  0.17768339682E+03  0.25500000000E-02 0. -1.
    5000001    1    1    2    0    0 -0.18542140472E+03 -0.25213309234E+02  0.54873327633E+02  0.25544645305E+03  0.16500000000E+03 0.  0.
   -5000001    1    1    2    0    0  0.18542140472E+03  0.25213309234E+02  0.12365082180E+03  0.27844449002E+03  0.16500000000E+03 0.  0.
<mgrwt>
<rscale>  0 0.50315869E+03</rscale>
<asrwt>0</asrwt>
<pdfrwt beam="1">  1        2 0.54801161E-01 0.50315869E+03</pdfrwt>
<pdfrwt beam="2">  1       -2 0.27335907E-01 0.50315869E+03</pdfrwt>
<totfact> 0.11042179E+03</totfact>
</mgrwt>
</event>
<event>
 4    1  0.3213443E-005  0.5184682E+03  0.7818608E-02  0.1009068E+00
          2   -1    0    0  501    0  0.00000000000E+00  0.00000000000E+00  0.25717143360E+04  0.25717143360E+04  0.25500000000E-02 0.  1.
         -2   -1    0    0    0  501 -0.00000000000E+00 -0.00000000000E+00 -0.26131332612E+02  0.26131332736E+02  0.25500000000E-02 0. -1.
    5000001    1    1    2    0    0 -0.10198128348E+03 -0.16534436375E+03  0.10357314815E+04  0.10666319152E+04  0.16500000000E+03 0.  0.
   -5000001    1    1    2    0    0  0.10198128348E+03  0.16534436375E+03  0.15098515218E+04  0.15312137535E+04  0.16500000000E+03 0.  0.
<mgrwt>
<rscale>  0 0.51846822E+03</rscale>
<asrwt>0</asrwt>
<pdfrwt beam="1">  1        2 0.39564841E+00 0.51846822E+03</pdfrwt>
<pdfrwt beam="2">  1       -2 0.40202045E-02 0.51846822E+03</pdfrwt>
<totfact> 0.96976766E+02</totfact>
</mgrwt>
</event>
<event>
 4    1  0.3213443E-005  0.5038900E+03  0.7818608E-02  0.1012769E+00
          2   -1    0    0  501    0  0.00000000000E+00  0.00000000000E+00  0.18434851317E+03  0.18434851319E+03  0.25500000000E-02 0.  1.
         -2   -1    0    0    0  501 -0.00000000000E+00 -0.00000000000E+00 -0.34432764370E+03  0.34432764370E+03  0.25500000000E-02 0. -1.
    5000001    1    1    2    0    0  0.55135487679E+02 -0.17569674481E+03 -0.29214632281E+02  0.24897341801E+03  0.16500000000E+03 0.  0.
   -5000001    1    1    2    0    0 -0.55135487679E+02  0.17569674481E+03 -0.13076449824E+03  0.27970273888E+03  0.16500000000E+03 0.  0.
<mgrwt>
<rscale>  0 0.50389002E+03</rscale>
<asrwt>0</asrwt>
<pdfrwt beam="1">  1        2 0.28361310E-01 0.50389002E+03</pdfrwt>
<pdfrwt beam="2">  1       -2 0.52973484E-01 0.50389002E+03</pdfrwt>
<totfact> 0.64154991E+02</totfact>
</mgrwt>
</event>
<event>
 4    1  0.3213443E-005  0.8025999E+03  0.7818608E-02  0.9556261E-01
          2   -1    0    0  501    0  0.00000000000E+00  0.00000000000E+00  0.20537306260E+04  0.20537306260E+04  0.25500000000E-02 0.  1.
         -2   -1    0    0    0  501 -0.00000000000E+00 -0.00000000000E+00 -0.78414207103E+02  0.78414207145E+02  0.25500000000E-02 0. -1.
    5000001    1    1    2    0    0 -0.30309503826E+03  0.11629142038E+03  0.14355552886E+04  0.14810247410E+04  0.16500000000E+03 0.  0.
   -5000001    1    1    2    0    0  0.30309503826E+03 -0.11629142038E+03  0.53976113025E+03  0.65112009215E+03  0.16500000000E+03 0.  0.
<mgrwt>
<rscale>  0 0.80259992E+03</rscale>
<asrwt>0</asrwt>
<pdfrwt beam="1">  1        2 0.31595849E+00 0.80259992E+03</pdfrwt>
<pdfrwt beam="2">  1       -2 0.12063727E-01 0.80259992E+03</pdfrwt>
<totfact> 0.32115723E+02</totfact>
</mgrwt>
</event>
<event>
 4    1  0.3213443E-005  0.5516990E+03  0.7818608E-02  0.1001101E+00
          2   -1    0    0  501    0  0.00000000000E+00  0.00000000000E+00  0.13607480715E+04  0.13607480715E+04  0.25500000000E-02 0.  1.
         -2   -1    0    0    0  501 -0.00000000000E+00 -0.00000000000E+00 -0.55919930985E+02  0.55919931043E+02  0.25500000000E-02 0. -1.
    5000001    1    1    2    0    0  0.20058850218E+03 -0.57381495570E+02  0.84005105532E+03  0.88115785123E+03  0.16500000000E+03 0.  0.
   -5000001    1    1    2    0    0 -0.20058850218E+03  0.57381495570E+02  0.46477708522E+03  0.53551015134E+03  0.16500000000E+03 0.  0.
<mgrwt>
<rscale>  0 0.55169897E+03</rscale>
<asrwt>0</asrwt>
<pdfrwt beam="1">  1        2 0.20934585E+00 0.55169897E+03</pdfrwt>
<pdfrwt beam="2">  1       -2 0.86030667E-02 0.55169897E+03</pdfrwt>
<totfact> 0.13558299E+03</totfact>
</mgrwt>
</event>
<event>
 4    1  0.3213443E-005  0.5593755E+03  0.7818608E-02  0.9993469E-01
         -2   -1    0    0    0  501 -0.00000000000E+00  0.00000000000E+00  0.56061084521E+02  0.56061084579E+02  0.25500000000E-02 0. -1.
          2   -1    0    0  501    0  0.00000000000E+00 -0.00000000000E+00 -0.13953570058E+04  0.13953570059E+04  0.25500000000E-02 0.  1.
    5000001    1    1    2    0    0 -0.18030314942E+01  0.20225831758E+03 -0.40903051941E+03  0.48522432313E+03  0.16500000000E+03 0.  0.
   -5000001    1    1    2    0    0  0.18030314942E+01 -0.20225831758E+03 -0.93026540192E+03  0.96619376730E+03  0.16500000000E+03 0.  0.
<mgrwt>
<rscale>  0 0.55937546E+03</rscale>
<asrwt>0</asrwt>
<pdfrwt beam="1">  1        2 0.21467028E+00 0.55937546E+03</pdfrwt>
<pdfrwt beam="2">  1       -2 0.86247833E-02 0.55937546E+03</pdfrwt>
<totfact> 0.12909342E+03</totfact>
</mgrwt>
</event>
<event>
 4    1  0.3213443E-005  0.4426678E+03  0.7818608E-02  0.1029931E+00
         -2   -1    0    0    0  501 -0.00000000000E+00  0.00000000000E+00  0.31487971283E+03  0.31487971284E+03  0.25500000000E-02 0. -1.
          2   -1    0    0  501    0  0.00000000000E+00 -0.00000000000E+00 -0.15557906808E+03  0.15557906810E+03  0.25500000000E-02 0.  1.
    5000001    1    1    2    0    0 -0.92849954181E+02 -0.10314576852E+03  0.26473797819E+02  0.21722344608E+03  0.16500000000E+03 0.  0.
   -5000001    1    1    2    0    0  0.92849954181E+02  0.10314576852E+03  0.13282684693E+03  0.25323533486E+03  0.16500000000E+03 0.  0.
<mgrwt>
<rscale>  0 0.44266779E+03</rscale>
<asrwt>0</asrwt>
<pdfrwt beam="1">  1        2 0.23935241E-01 0.44266779E+03</pdfrwt>
<pdfrwt beam="2">  1       -2 0.48443033E-01 0.44266779E+03</pdfrwt>
<totfact> 0.93155638E+02</totfact>
</mgrwt>
</event>
<event>
 4    1  0.3213443E-005  0.4257085E+03  0.7818608E-02  0.1035224E+00
         -2   -1    0    0    0  501 -0.00000000000E+00  0.00000000000E+00  0.10646184424E+03  0.10646184427E+03  0.25500000000E-02 0. -1.
          2   -1    0    0  501    0  0.00000000000E+00 -0.00000000000E+00 -0.42556958568E+03  0.42556958568E+03  0.25500000000E-02 0.  1.
    5000001    1    1    2    0    0  0.10272322002E+02  0.10656618735E+03 -0.57869162549E+02  0.20502612726E+03  0.16500000000E+03 0.  0.
   -5000001    1    1    2    0    0 -0.10272322002E+02 -0.10656618735E+03 -0.26123857889E+03  0.32700530269E+03  0.16500000000E+03 0.  0.
<mgrwt>
<rscale>  0 0.42570846E+03</rscale>
<asrwt>0</asrwt>
<pdfrwt beam="1">  1        2 0.65472243E-01 0.42570846E+03</pdfrwt>
<pdfrwt beam="2">  1       -2 0.16378745E-01 0.42570846E+03</pdfrwt>
<totfact> 0.22169230E+03</totfact>
</mgrwt>
</event>
<event>
 4    1  0.3213443E-005  0.5623996E+03  0.7818608E-02  0.9986640E-01
          2   -1    0    0  501    0  0.00000000000E+00  0.00000000000E+00  0.23051890731E+04  0.23051890731E+04  0.25500000000E-02 0.  1.
         -2   -1    0    0    0  501 -0.00000000000E+00 -0.00000000000E+00 -0.34302316820E+02  0.34302316915E+02  0.25500000000E-02 0. -1.
    5000001    1    1    2    0    0  0.15587998938E+03 -0.16349621345E+03  0.12544716932E+04  0.12852835532E+04  0.16500000000E+03 0.  0.
   -5000001    1    1    2    0    0 -0.15587998938E+03  0.16349621345E+03  0.10164150631E+04  0.10542078369E+04  0.16500000000E+03 0.  0.
<mgrwt>
<rscale>  0 0.56239959E+03</rscale>
<asrwt>0</asrwt>
<pdfrwt beam="1">  1        2 0.35464456E+00 0.56239959E+03</pdfrwt>
<pdfrwt beam="2">  1       -2 0.52772782E-02 0.56239959E+03</pdfrwt>
<totfact> 0.89414496E+02</totfact>
</mgrwt>
</event>
<event>
 4    1  0.3213443E-005  0.4825181E+03  0.7818608E-02  0.1018445E+00
          2   -1    0    0  501    0  0.00000000000E+00  0.00000000000E+00  0.59298501595E+03  0.59298501595E+03  0.25500000000E-02 0.  1.
         -2   -1    0    0    0  501 -0.00000000000E+00 -0.00000000000E+00 -0.98157508594E+02  0.98157508627E+02  0.25500000000E-02 0. -1.
    5000001    1    1    2    0    0 -0.96726819327E+01  0.16450414477E+03  0.15881804034E+03  0.28214064641E+03  0.16500000000E+03 0.  0.
   -5000001    1    1    2    0    0  0.96726819327E+01 -0.16450414477E+03  0.33600946702E+03  0.40900187817E+03  0.16500000000E+03 0.  0.
<mgrwt>
<rscale>  0 0.48251811E+03</rscale>
<asrwt>0</asrwt>
<pdfrwt beam="1">  1        2 0.91228464E-01 0.48251811E+03</pdfrwt>
<pdfrwt beam="2">  1       -2 0.15101155E-01 0.48251811E+03</pdfrwt>
<totfact> 0.17399491E+03</totfact>
</mgrwt>
</event>
<event>
 4    1  0.3213443E-005  0.4446265E+03  0.7818608E-02  0.1029337E+00
         -2   -1    0    0    0  501 -0.00000000000E+00  0.00000000000E+00  0.25224449382E+02  0.25224449511E+02  0.25500000000E-02 0. -1.
          2   -1    0    0  501    0  0.00000000000E+00 -0.00000000000E+00 -0.19593362516E+04  0.19593362516E+04  0.25500000000E-02 0.  1.
    5000001    1    1    2    0    0 -0.38176412943E+02 -0.13026666032E+03 -0.12411607534E+04  0.12594172689E+04  0.16500000000E+03 0.  0.
   -5000001    1    1    2    0    0  0.38176412943E+02  0.13026666032E+03 -0.69295104880E+03  0.72514343224E+03  0.16500000000E+03 0.  0.
<mgrwt>
<rscale>  0 0.44462649E+03</rscale>
<asrwt>0</asrwt>
<pdfrwt beam="1">  1        2 0.30143623E+00 0.44462649E+03</pdfrwt>
<pdfrwt beam="2">  1       -2 0.38806861E-02 0.44462649E+03</pdfrwt>
<totfact> 0.22261104E+03</totfact>
</mgrwt>
</event>
<event>
 4    1  0.3213443E-005  0.5121966E+03  0.7818608E-02  0.1010644E+00
         -2   -1    0    0    0  501 -0.00000000000E+00  0.00000000000E+00  0.18308341639E+03  0.18308341641E+03  0.25500000000E-02 0. -1.
          2   -1    0    0  501    0  0.00000000000E+00 -0.00000000000E+00 -0.35823201438E+03  0.35823201439E+03  0.25500000000E-02 0.  1.
    5000001    1    1    2    0    0 -0.15602271233E+03  0.17776256593E+02 -0.21128572022E+03  0.31068591476E+03  0.16500000000E+03 0.  0.
   -5000001    1    1    2    0    0  0.15602271233E+03 -0.17776256593E+02  0.36137122239E+02  0.23062951603E+03  0.16500000000E+03 0.  0.
<mgrwt>
<rscale>  0 0.51219661E+03</rscale>
<asrwt>0</asrwt>
<pdfrwt beam="1">  1        2 0.55112618E-01 0.51219661E+03</pdfrwt>
<pdfrwt beam="2">  1       -2 0.28166679E-01 0.51219661E+03</pdfrwt>
<totfact> 0.10391326E+03</totfact>
</mgrwt>
</event>
<event>
 4    1  0.3213443E-005  0.4054585E+03  0.7818608E-02  0.1041906E+00
          2   -1    0    0  501    0  0.00000000000E+00  0.00000000000E+00  0.74954377940E+03  0.74954377941E+03  0.25500000000E-02 0.  1.
         -2   -1    0    0    0  501 -0.00000000000E+00 -0.00000000000E+00 -0.54832230293E+02  0.54832230353E+02  0.25500000000E-02 0. -1.
    5000001    1    1    2    0    0 -0.96338510340E+02  0.57853015725E+02  0.27732561400E+03  0.34170539385E+03  0.16500000000E+03 0.  0.
   -5000001    1    1    2    0    0  0.96338510340E+02 -0.57853015725E+02  0.41738593511E+03  0.46267061592E+03  0.16500000000E+03 0.  0.
<mgrwt>
<rscale>  0 0.40545854E+03</rscale>
<asrwt>0</asrwt>
<pdfrwt beam="1">  1        2 0.11531443E+00 0.40545854E+03</pdfrwt>
<pdfrwt beam="2">  1       -2 0.84357277E-02 0.40545854E+03</pdfrwt>
<totfact> 0.33689857E+03</totfact>
</mgrwt>
</event>
<event>
 4    1  0.3213443E-005  0.4341544E+03  0.7818608E-02  0.1032556E+00
          2   -1    0    0  501    0  0.00000000000E+00  0.00000000000E+00  0.24933663544E+04  0.24933663544E+04  0.25500000000E-02 0.  1.
         -2   -1    0    0    0  501 -0.00000000000E+00 -0.00000000000E+00 -0.18899155170E+02  0.18899155342E+02  0.25500000000E-02 0. -1.
    5000001    1    1    2    0    0 -0.53943988777E+02  0.12555672535E+03  0.14396042010E+04  0.14554585878E+04  0.16500000000E+03 0.  0.
   -5000001    1    1    2    0    0  0.53943988777E+02 -0.12555672535E+03  0.10348629983E+04  0.10568069220E+04  0.16500000000E+03 0.  0.
<mgrwt>
<rscale>  0 0.43415443E+03</rscale>
<asrwt>0</asrwt>
<pdfrwt beam="1">  1        2 0.38359491E+00 0.43415443E+03</pdfrwt>
<pdfrwt beam="2">  1       -2 0.29075617E-02 0.43415443E+03</pdfrwt>
<totfact> 0.17679669E+03</totfact>
</mgrwt>
</event>
<event>
 4    1  0.3213443E-005  0.7164836E+03  0.7818608E-02  0.9689451E-01
         -2   -1    0    0    0  501 -0.00000000000E+00  0.00000000000E+00  0.18911375462E+03  0.18911375463E+03  0.25500000000E-02 0. -1.
          2   -1    0    0  501    0  0.00000000000E+00 -0.00000000000E+00 -0.67862420855E+03  0.67862420856E+03  0.25500000000E-02 0.  1.
    5000001    1    1    2    0    0  0.20974529006E+03 -0.23495339974E+03 -0.29776774799E+03  0.46377453411E+03  0.16500000000E+03 0.  0.
   -5000001    1    1    2    0    0 -0.20974529006E+03  0.23495339974E+03 -0.19174270595E+03  0.40396342908E+03  0.16500000000E+03 0.  0.
<mgrwt>
<rscale>  0 0.71648356E+03</rscale>
<asrwt>0</asrwt>
<pdfrwt beam="1">  1        2 0.10440372E+00 0.71648356E+03</pdfrwt>
<pdfrwt beam="2">  1       -2 0.29094424E-01 0.71648356E+03</pdfrwt>
<totfact> 0.46523705E+02</totfact>
</mgrwt>
</event>
<event>
 4    1  0.3213443E-005  0.4416769E+03  0.7818608E-02  0.1030234E+00
         -2   -1    0    0    0  501 -0.00000000000E+00  0.00000000000E+00  0.59973064351E+02  0.59973064406E+02  0.25500000000E-02 0. -1.
          2   -1    0    0  501    0  0.00000000000E+00 -0.00000000000E+00 -0.81319217027E+03  0.81319217027E+03  0.25500000000E-02 0.  1.
    5000001    1    1    2    0    0 -0.97892138607E+02 -0.81306350844E+02 -0.23199548721E+03  0.31183408982E+03  0.16500000000E+03 0.  0.
   -5000001    1    1    2    0    0  0.97892138607E+02  0.81306350844E+02 -0.52122361870E+03  0.56133114485E+03  0.16500000000E+03 0.  0.
<mgrwt>
<rscale>  0 0.44167692E+03</rscale>
<asrwt>0</asrwt>
<pdfrwt beam="1">  1        2 0.12510648E+00 0.44167692E+03</pdfrwt>
<pdfrwt beam="2">  1       -2 0.92266258E-02 0.44167692E+03</pdfrwt>
<totfact> 0.26321843E+03</totfact>
</mgrwt>
</event>
<event>
 4    1  0.3213443E-005  0.4147073E+03  0.7818608E-02  0.1038803E+00
         -2   -1    0    0    0  501 -0.00000000000E+00  0.00000000000E+00  0.64890151510E+03  0.64890151510E+03  0.25500000000E-02 0. -1.
          2   -1    0    0  501    0  0.00000000000E+00 -0.00000000000E+00 -0.66258956786E+02  0.66258956835E+02  0.25500000000E-02 0.  1.
    5000001    1    1    2    0    0  0.45946615551E+02  0.10820263999E+03  0.36750480696E+03  0.41964709688E+03  0.16500000000E+03 0.  0.
   -5000001    1    1    2    0    0 -0.45946615551E+02 -0.10820263999E+03  0.21513775135E+03  0.29551337506E+03  0.16500000000E+03 0.  0.
<mgrwt>
<rscale>  0 0.41470731E+03</rscale>
<asrwt>0</asrwt>
<pdfrwt beam="1">  1        2 0.10193686E-01 0.41470731E+03</pdfrwt>
<pdfrwt beam="2">  1       -2 0.99830998E-01 0.41470731E+03</pdfrwt>
<totfact> 0.54177674E+02</totfact>
</mgrwt>
</event>
<event>
 4    1  0.3213443E-005  0.3660992E+03  0.7818608E-02  0.1056195E+00
          2   -1    0    0  501    0  0.00000000000E+00  0.00000000000E+00  0.94062026477E+03  0.94062026477E+03  0.25500000000E-02 0.  1.
         -2   -1    0    0    0  501 -0.00000000000E+00 -0.00000000000E+00 -0.35622398357E+02  0.35622398448E+02  0.25500000000E-02 0. -1.
    5000001    1    1    2    0    0  0.34553677218E+02 -0.69156261496E+02  0.49911536879E+03  0.53133576623E+03  0.16500000000E+03 0.  0.
   -5000001    1    1    2    0    0 -0.34553677218E+02  0.69156261496E+02  0.40588249762E+03  0.44490689699E+03  0.16500000000E+03 0.  0.
<mgrwt>
<rscale>  0 0.36609917E+03</rscale>
<asrwt>0</asrwt>
<pdfrwt beam="1">  1        2 0.14471079E+00 0.36609917E+03</pdfrwt>
<pdfrwt beam="2">  1       -2 0.54803699E-02 0.36609917E+03</pdfrwt>
<totfact> 0.48888325E+03</totfact>
</mgrwt>
</event>
<event>
 4    1  0.3213443E-005  0.4373819E+03  0.7818608E-02  0.1031553E+00
          2   -1    0    0  501    0  0.00000000000E+00  0.00000000000E+00  0.19758709874E+04  0.19758709874E+04  0.25500000000E-02 0.  1.
         -2   -1    0    0    0  501 -0.00000000000E+00 -0.00000000000E+00 -0.24204890671E+02  0.24204890806E+02  0.25500000000E-02 0. -1.
    5000001    1    1    2    0    0 -0.11713477143E+03 -0.65033578796E+02  0.12112706181E+04  0.12297769844E+04  0.16500000000E+03 0.  0.
   -5000001    1    1    2    0    0  0.11713477143E+03  0.65033578796E+02  0.74039547857E+03  0.77029889376E+03  0.16500000000E+03 0.  0.
<mgrwt>
<rscale>  0 0.43738194E+03</rscale>
<asrwt>0</asrwt>
<pdfrwt beam="1">  1        2 0.30398014E+00 0.43738194E+03</pdfrwt>
<pdfrwt beam="2">  1       -2 0.37238295E-02 0.43738194E+03</pdfrwt>
<totfact> 0.23233282E+03</totfact>
</mgrwt>
</event>
<event>
 4    1  0.3213443E-005  0.4715217E+03  0.7818608E-02  0.1021492E+00
         -2   -1    0    0    0  501 -0.00000000000E+00  0.00000000000E+00  0.39358061268E+02  0.39358061350E+02  0.25500000000E-02 0. -1.
          2   -1    0    0  501    0  0.00000000000E+00 -0.00000000000E+00 -0.14122435989E+04  0.14122435989E+04  0.25500000000E-02 0.  1.
    5000001    1    1    2    0    0 -0.10084344161E+03  0.13433454754E+03 -0.72325680844E+03  0.76061855179E+03  0.16500000000E+03 0.  0.
   -5000001    1    1    2    0    0  0.10084344161E+03 -0.13433454754E+03 -0.64962872917E+03  0.69098310843E+03  0.16500000000E+03 0.  0.
<mgrwt>
<rscale>  0 0.47152167E+03</rscale>
<asrwt>0</asrwt>
<pdfrwt beam="1">  1        2 0.21726821E+00 0.47152167E+03</pdfrwt>
<pdfrwt beam="2">  1       -2 0.60550874E-02 0.47152167E+03</pdfrwt>
<totfact> 0.22141870E+03</totfact>
</mgrwt>
</event>
<event>
 4    1  0.3213443E-005  0.4380094E+03  0.7818608E-02  0.1031359E+00
          2   -1    0    0  501    0  0.00000000000E+00  0.00000000000E+00  0.15018181050E+04  0.15018181050E+04  0.25500000000E-02 0. -1.
         -2   -1    0    0    0  501 -0.00000000000E+00 -0.00000000000E+00 -0.31936661291E+02  0.31936661392E+02  0.25500000000E-02 0.  1.
    5000001    1    1    2    0    0 -0.36597281516E+02 -0.13809425043E+03  0.79842331434E+03  0.82771623876E+03  0.16500000000E+03 0.  0.
   -5000001    1    1    2    0    0  0.36597281516E+02  0.13809425043E+03  0.67145812938E+03  0.70603852765E+03  0.16500000000E+03 0.  0.
<mgrwt>
<rscale>  0 0.43800939E+03</rscale>
<asrwt>0</asrwt>
<pdfrwt beam="1">  1        2 0.23104897E+00 0.43800939E+03</pdfrwt>
<pdfrwt beam="2">  1       -2 0.49133319E-02 0.43800939E+03</pdfrwt>
<totfact> 0.27337509E+03</totfact>
</mgrwt>
</event>
<event>
 4    1  0.3213443E-005  0.1377563E+04  0.7818608E-02  0.8970222E-01
          2   -1    0    0  501    0  0.00000000000E+00  0.00000000000E+00  0.29021767770E+04  0.29021767770E+04  0.25500000000E-02 0.  1.
         -2   -1    0    0    0  501 -0.00000000000E+00 -0.00000000000E+00 -0.16347030380E+03  0.16347030381E+03  0.25500000000E-02 0. -1.
    5000001    1    1    2    0    0 -0.56533723603E+03 -0.30974531598E+03  0.97346487559E+03  0.11791552973E+04  0.16500000000E+03 0.  0.
   -5000001    1    1    2    0    0  0.56533723603E+03  0.30974531598E+03  0.17652415977E+04  0.18864917835E+04  0.16500000000E+03 0.  0.
<mgrwt>
<rscale>  0 0.13775627E+04</rscale>
<asrwt>0</asrwt>
<pdfrwt beam="1">  1        2 0.44648875E+00 0.13775627E+04</pdfrwt>
<pdfrwt beam="2">  1       -2 0.25149277E-01 0.13775627E+04</pdfrwt>
<totfact> 0.27940986E+01</totfact>
</mgrwt>
</event>
<event>
 4    1  0.3213443E-005  0.5828298E+03  0.7818608E-02  0.9941683E-01
         -2   -1    0    0    0  501 -0.00000000000E+00  0.00000000000E+00  0.27635703948E+02  0.27635704065E+02  0.25500000000E-02 0. -1.
          2   -1    0    0  501    0  0.00000000000E+00 -0.00000000000E+00 -0.30729319870E+04  0.30729319870E+04  0.25500000000E-02 0.  1.
    5000001    1    1    2    0    0 -0.17819292534E+02  0.21659053248E+03 -0.97833993643E+03  0.10156785993E+04  0.16500000000E+03 0.  0.
   -5000001    1    1    2    0    0  0.17819292534E+02 -0.21659053248E+03 -0.20669563466E+04  0.20848890917E+04  0.16500000000E+03 0.  0.
<mgrwt>
<rscale>  0 0.58282978E+03</rscale>
<asrwt>0</asrwt>
<pdfrwt beam="1">  1        2 0.47275850E+00 0.58282978E+03</pdfrwt>
<pdfrwt beam="2">  1       -2 0.42516492E-02 0.58282978E+03</pdfrwt>
<totfact> 0.44804984E+02</totfact>
</mgrwt>
</event>
<event>
 4    1  0.3213443E-005  0.6636380E+03  0.7818608E-02  0.9781520E-01
         -2   -1    0    0    0  501 -0.00000000000E+00  0.00000000000E+00  0.35602055134E+02  0.35602055226E+02  0.25500000000E-02 0. -1.
          2   -1    0    0  501    0  0.00000000000E+00 -0.00000000000E+00 -0.30926264332E+04  0.30926264332E+04  0.25500000000E-02 0.  1.
    5000001    1    1    2    0    0  0.28344860423E+02 -0.27043208153E+03 -0.10827712992E+04  0.11285192192E+04  0.16500000000E+03 0.  0.
   -5000001    1    1    2    0    0 -0.28344860423E+02  0.27043208153E+03 -0.19742530789E+04  0.19997092692E+04  0.16500000000E+03 0.  0.
<mgrwt>
<rscale>  0 0.66363802E+03</rscale>
<asrwt>0</asrwt>
<pdfrwt beam="1">  1        2 0.47578847E+00 0.66363802E+03</pdfrwt>
<pdfrwt beam="2">  1       -2 0.54772417E-02 0.66363802E+03</pdfrwt>
<totfact> 0.29140848E+02</totfact>
</mgrwt>
</event>
<event>
 4    1  0.3213443E-005  0.9699129E+03  0.7818608E-02  0.9342174E-01
         -2   -1    0    0    0  501 -0.00000000000E+00  0.00000000000E+00  0.37436814082E+03  0.37436814083E+03  0.25500000000E-02 0. -1.
          2   -1    0    0  501    0  0.00000000000E+00 -0.00000000000E+00 -0.62821256690E+03  0.62821256691E+03  0.25500000000E-02 0.  1.
    5000001    1    1    2    0    0  0.22986486997E+03  0.25580396450E+03  0.18263766885E+03  0.42291257345E+03  0.16500000000E+03 0.  0.
   -5000001    1    1    2    0    0 -0.22986486997E+03 -0.25580396450E+03 -0.43648209493E+03  0.57966813428E+03  0.16500000000E+03 0.  0.
<mgrwt>
<rscale>  0 0.96991293E+03</rscale>
<asrwt>0</asrwt>
<pdfrwt beam="1">  1        2 0.96648087E-01 0.96991293E+03</pdfrwt>
<pdfrwt beam="2">  1       -2 0.57595099E-01 0.96991293E+03</pdfrwt>
<totfact> 0.13244989E+02</totfact>
</mgrwt>
</event>
<event>
 4    1  0.3213443E-005  0.4060095E+03  0.7818608E-02  0.1041718E+00
         -2   -1    0    0    0  501 -0.00000000000E+00  0.00000000000E+00  0.29512634091E+02  0.29512634202E+02  0.25500000000E-02 0. -1.
          2   -1    0    0  501    0  0.00000000000E+00 -0.00000000000E+00 -0.13963827368E+04  0.13963827368E+04  0.25500000000E-02 0.  1.
    5000001    1    1    2    0    0 -0.37266039224E+02  0.25908117449E+02 -0.10669637218E+04  0.10806000980E+04  0.16500000000E+03 0.  0.
   -5000001    1    1    2    0    0  0.37266039224E+02 -0.25908117449E+02 -0.29990638093E+03  0.34529527300E+03  0.16500000000E+03 0.  0.
<mgrwt>
<rscale>  0 0.40600952E+03</rscale>
<asrwt>0</asrwt>
<pdfrwt beam="1">  1        2 0.21482806E+00 0.40600952E+03</pdfrwt>
<pdfrwt beam="2">  1       -2 0.45404064E-02 0.40600952E+03</pdfrwt>
<totfact> 0.35270612E+03</totfact>
</mgrwt>
</event>
<event>
 4    1  0.3213443E-005  0.6052336E+03  0.7818608E-02  0.9894607E-01
          2   -1    0    0  501    0  0.00000000000E+00  0.00000000000E+00  0.22496699057E+04  0.22496699057E+04  0.25500000000E-02 0.  1.
         -2   -1    0    0    0  501 -0.00000000000E+00 -0.00000000000E+00 -0.40706830186E+02  0.40706830266E+02  0.25500000000E-02 0. -1.
    5000001    1    1    2    0    0  0.23355848114E+03 -0.63778096188E+02  0.13910576867E+04  0.14215778900E+04  0.16500000000E+03 0.  0.
   -5000001    1    1    2    0    0 -0.23355848114E+03  0.63778096188E+02  0.81790538878E+03  0.86879884591E+03  0.16500000000E+03 0.  0.
<mgrwt>
<rscale>  0 0.60523361E+03</rscale>
<asrwt>0</asrwt>
<pdfrwt beam="1">  1        2 0.34610309E+00 0.60523361E+03</pdfrwt>
<pdfrwt beam="2">  1       -2 0.62625887E-02 0.60523361E+03</pdfrwt>
<totfact> 0.73175456E+02</totfact>
</mgrwt>
</event>
<event>
 4    1  0.3213443E-005  0.6407417E+03  0.7818608E-02  0.9824308E-01
          2   -1    0    0  501    0  0.00000000000E+00  0.00000000000E+00  0.74407080755E+03  0.74407080756E+03  0.25500000000E-02 0.  1.
         -2   -1    0    0    0  501 -0.00000000000E+00 -0.00000000000E+00 -0.13794048245E+03  0.13794048247E+03  0.25500000000E-02 0. -1.
    5000001    1    1    2    0    0  0.10917350885E+03  0.19787420098E+03  0.88308640300E+02  0.29342200054E+03  0.16500000000E+03 0.  0.
   -5000001    1    1    2    0    0 -0.10917350885E+03 -0.19787420098E+03  0.51782168480E+03  0.58858928949E+03  0.16500000000E+03 0.  0.
<mgrwt>
<rscale>  0 0.64074171E+03</rscale>
<asrwt>0</asrwt>
<pdfrwt beam="1">  1        2 0.11447243E+00 0.64074171E+03</pdfrwt>
<pdfrwt beam="2">  1       -2 0.21221613E-01 0.64074171E+03</pdfrwt>
<totfact> 0.73236992E+02</totfact>
</mgrwt>
</event>
<event>
 4    1  0.3213443E-005  0.3859822E+03  0.7818608E-02  0.1048745E+00
          2   -1    0    0  501    0  0.00000000000E+00  0.00000000000E+00  0.12012862492E+03  0.12012862495E+03  0.25500000000E-02 0.  1.
         -2   -1    0    0    0  501 -0.00000000000E+00 -0.00000000000E+00 -0.31004740494E+03  0.31004740495E+03  0.25500000000E-02 0. -1.
    5000001    1    1    2    0    0 -0.62316031929E+02 -0.55547190105E+02 -0.15652756061E+03  0.24226979877E+03  0.16500000000E+03 0.  0.
   -5000001    1    1    2    0    0  0.62316031929E+02  0.55547190105E+02 -0.33391219398E+02  0.18790623113E+03  0.16500000000E+03 0.  0.
<mgrwt>
<rscale>  0 0.38598222E+03</rscale>
<asrwt>0</asrwt>
<pdfrwt beam="1">  1        2 0.18481327E-01 0.38598222E+03</pdfrwt>
<pdfrwt beam="2">  1       -2 0.47699600E-01 0.38598222E+03</pdfrwt>
<totfact> 0.12935022E+03</totfact>
</mgrwt>
</event>
<event>
 4    1  0.3213443E-005  0.6100228E+03  0.7818608E-02  0.9884827E-01
         -2   -1    0    0    0  501 -0.00000000000E+00  0.00000000000E+00  0.33869829429E+03  0.33869829430E+03  0.25500000000E-02 0. -1.
          2   -1    0    0  501    0  0.00000000000E+00 -0.00000000000E+00 -0.27467498815E+03  0.27467498816E+03  0.25500000000E-02 0.  1.
    5000001    1    1    2    0    0 -0.22180917233E+03  0.72137388860E+01  0.16138693204E+03  0.32019070691E+03  0.16500000000E+03 0.  0.
   -5000001    1    1    2    0    0  0.22180917233E+03 -0.72137388860E+01 -0.97363625892E+02  0.29318257555E+03  0.16500000000E+03 0.  0.
<mgrwt>
<rscale>  0 0.61002279E+03</rscale>
<asrwt>0</asrwt>
<pdfrwt beam="1">  1        2 0.42257690E-01 0.61002279E+03</pdfrwt>
<pdfrwt beam="2">  1       -2 0.52107430E-01 0.61002279E+03</pdfrwt>
<totfact> 0.42508971E+02</totfact>
</mgrwt>
</event>
<event>
 4    1  0.3213443E-005  0.4796173E+03  0.7818608E-02  0.1019240E+00
         -2   -1    0    0    0  501 -0.00000000000E+00  0.00000000000E+00  0.19318195073E+02  0.19318195241E+02  0.25500000000E-02 0. -1.
          2   -1    0    0  501    0  0.00000000000E+00 -0.00000000000E+00 -0.29768920586E+04  0.29768920586E+04  0.25500000000E-02 0.  1.
    5000001    1    1    2    0    0 -0.75854878688E+02  0.11686701292E+03 -0.21301432349E+04  0.21410621342E+04  0.16500000000E+03 0.  0.
   -5000001    1    1    2    0    0  0.75854878688E+02 -0.11686701292E+03 -0.82743062860E+03  0.85514811962E+03  0.16500000000E+03 0.  0.
<mgrwt>
<rscale>  0 0.47961727E+03</rscale>
<asrwt>0</asrwt>
<pdfrwt beam="1">  1        2 0.45798303E+00 0.47961727E+03</pdfrwt>
<pdfrwt beam="2">  1       -2 0.29720324E-02 0.47961727E+03</pdfrwt>
<totfact> 0.89563434E+02</totfact>
</mgrwt>
</event>
<event>
 4    1  0.3213443E-005  0.6725683E+03  0.7818608E-02  0.9765329E-01
         -2   -1    0    0    0  501 -0.00000000000E+00  0.00000000000E+00  0.74988036355E+02  0.74988036398E+02  0.25500000000E-02 0.  1.
          2   -1    0    0  501    0  0.00000000000E+00 -0.00000000000E+00 -0.15080675871E+04  0.15080675871E+04  0.25500000000E-02 0. -1.
    5000001    1    1    2    0    0  0.17882985957E+03 -0.16711041254E+03 -0.33733061266E+03  0.44824429823E+03  0.16500000000E+03 0.  0.
   -5000001    1    1    2    0    0 -0.17882985957E+03  0.16711041254E+03 -0.10957489380E+04  0.11348113252E+04  0.16500000000E+03 0.  0.
<mgrwt>
<rscale>  0 0.67256829E+03</rscale>
<asrwt>0</asrwt>
<pdfrwt beam="1">  1        2 0.23201037E+00 0.67256829E+03</pdfrwt>
<pdfrwt beam="2">  1       -2 0.11536622E-01 0.67256829E+03</pdfrwt>
<totfact> 0.69338529E+02</totfact>
</mgrwt>
</event>
<event>
 4    1  0.3213443E-005  0.6138691E+03  0.7818608E-02  0.9877043E-01
         -2   -1    0    0    0  501 -0.00000000000E+00  0.00000000000E+00  0.13193002206E+03  0.13193002209E+03  0.25500000000E-02 0. -1.
          2   -1    0    0  501    0  0.00000000000E+00 -0.00000000000E+00 -0.71408169708E+03  0.71408169708E+03  0.25500000000E-02 0.  1.
    5000001    1    1    2    0    0 -0.20711245813E+03 -0.11454609181E+03 -0.14674697751E+03  0.32369129255E+03  0.16500000000E+03 0.  0.
   -5000001    1    1    2    0    0  0.20711245813E+03  0.11454609181E+03 -0.43540469750E+03  0.52232042662E+03  0.16500000000E+03 0.  0.
<mgrwt>
<rscale>  0 0.61386909E+03</rscale>
<asrwt>0</asrwt>
<pdfrwt beam="1">  1        2 0.10985872E+00 0.61386909E+03</pdfrwt>
<pdfrwt beam="2">  1       -2 0.20296927E-01 0.61386909E+03</pdfrwt>
<totfact> 0.83493333E+02</totfact>
</mgrwt>
</event>
<event>
 4    1  0.3213443E-005  0.5284284E+03  0.7818608E-02  0.1006614E+00
         -2   -1    0    0    0  501 -0.00000000000E+00  0.00000000000E+00  0.48376727968E+03  0.48376727968E+03  0.25500000000E-02 0. -1.
          2   -1    0    0  501    0  0.00000000000E+00 -0.00000000000E+00 -0.14430317184E+03  0.14430317186E+03  0.25500000000E-02 0.  1.
    5000001    1    1    2    0    0  0.76117211323E+02  0.18520254307E+03  0.22904528714E+03  0.34609327555E+03  0.16500000000E+03 0.  0.
   -5000001    1    1    2    0    0 -0.76117211323E+02 -0.18520254307E+03  0.11041882069E+03  0.28197717599E+03  0.16500000000E+03 0.  0.
<mgrwt>
<rscale>  0 0.52842844E+03</rscale>
<asrwt>0</asrwt>
<pdfrwt beam="1">  1        2 0.22200489E-01 0.52842844E+03</pdfrwt>
<pdfrwt beam="2">  1       -2 0.74425733E-01 0.52842844E+03</pdfrwt>
<totfact> 0.41244017E+02</totfact>
</mgrwt>
</event>
<event>
 4    1  0.3213443E-005  0.4400860E+03  0.7818608E-02  0.1030720E+00
         -2   -1    0    0    0  501 -0.00000000000E+00  0.00000000000E+00  0.21674727093E+02  0.21674727243E+02  0.25500000000E-02 0. -1.
          2   -1    0    0  501    0  0.00000000000E+00 -0.00000000000E+00 -0.22338883972E+04  0.22338883972E+04  0.25500000000E-02 0.  1.
    5000001    1    1    2    0    0  0.83616175825E+02  0.11782365721E+03 -0.10144456420E+04  0.10378819970E+04  0.16500000000E+03 0.  0.
   -5000001    1    1    2    0    0 -0.83616175825E+02 -0.11782365721E+03 -0.11977680280E+04  0.12176811274E+04  0.16500000000E+03 0.  0.
<mgrwt>
<rscale>  0 0.44008600E+03</rscale>
<asrwt>0</asrwt>
<pdfrwt beam="1">  1        2 0.34367496E+00 0.44008600E+03</pdfrwt>
<pdfrwt beam="2">  1       -2 0.33345752E-02 0.44008600E+03</pdfrwt>
<totfact> 0.19947325E+03</totfact>
</mgrwt>
</event>
<event>
 4    1  0.3213443E-005  0.3844865E+03  0.7818608E-02  0.1049288E+00
         -2   -1    0    0    0  501 -0.00000000000E+00  0.00000000000E+00  0.45812133635E+02  0.45812133706E+02  0.25500000000E-02 0. -1.
          2   -1    0    0  501    0  0.00000000000E+00 -0.00000000000E+00 -0.80671769504E+03  0.80671769505E+03  0.25500000000E-02 0.  1.
    5000001    1    1    2    0    0 -0.28757345611E+02 -0.89815181853E+02 -0.31623819468E+03  0.36895168734E+03  0.16500000000E+03 0.  0.
   -5000001    1    1    2    0    0  0.28757345611E+02  0.89815181853E+02 -0.44466736673E+03  0.48357814141E+03  0.16500000000E+03 0.  0.
<mgrwt>
<rscale>  0 0.38448646E+03</rscale>
<asrwt>0</asrwt>
<pdfrwt beam="1">  1        2 0.12411040E+00 0.38448646E+03</pdfrwt>
<pdfrwt beam="2">  1       -2 0.70480212E-02 0.38448646E+03</pdfrwt>
<totfact> 0.40668749E+03</totfact>
</mgrwt>
</event>
<event>
 4    1  0.3213443E-005  0.1102440E+04  0.7818608E-02  0.9202817E-01
          2   -1    0    0  501    0  0.00000000000E+00  0.00000000000E+00  0.58914747509E+03  0.58914747509E+03  0.25500000000E-02 0.  1.
         -2   -1    0    0    0  501 -0.00000000000E+00 -0.00000000000E+00 -0.51573423001E+03  0.51573423002E+03  0.25500000000E-02 0. -1.
    5000001    1    1    2    0    0 -0.27223512245E+03  0.41768748661E+03 -0.13112686427E+03  0.54128925068E+03  0.16500000000E+03 0.  0.
   -5000001    1    1    2    0    0  0.27223512245E+03 -0.41768748661E+03  0.20454010934E+03  0.56359245443E+03  0.16500000000E+03 0.  0.
<mgrwt>
<rscale>  0 0.11024401E+04</rscale>
<asrwt>0</asrwt>
<pdfrwt beam="1">  1        2 0.90638073E-01 0.11024401E+04</pdfrwt>
<pdfrwt beam="2">  1       -2 0.79343728E-01 0.11024401E+04</pdfrwt>
<totfact> 0.70922616E+01</totfact>
</mgrwt>
</event>
<event>
 4    1  0.3213443E-005  0.4234103E+03  0.7818608E-02  0.1035962E+00
          2   -1    0    0  501    0  0.00000000000E+00  0.00000000000E+00  0.18864247515E+03  0.18864247517E+03  0.25500000000E-02 0.  1.
         -2   -1    0    0    0  501 -0.00000000000E+00 -0.00000000000E+00 -0.23758736129E+03  0.23758736130E+03  0.25500000000E-02 0. -1.
    5000001    1    1    2    0    0  0.11821026022E+03  0.59150548275E+02 -0.35573795170E+02  0.21438971030E+03  0.16500000000E+03 0.  0.
   -5000001    1    1    2    0    0 -0.11821026022E+03 -0.59150548275E+02 -0.13371090969E+02  0.21184012617E+03  0.16500000000E+03 0.  0.
<mgrwt>
<rscale>  0 0.42341029E+03</rscale>
<asrwt>0</asrwt>
<pdfrwt beam="1">  1        2 0.29021919E-01 0.42341029E+03</pdfrwt>
<pdfrwt beam="2">  1       -2 0.36551902E-01 0.42341029E+03</pdfrwt>
<totfact> 0.12973642E+03</totfact>
</mgrwt>
</event>
<event>
 4    1  0.3213443E-005  0.4986033E+03  0.7818608E-02  0.1014144E+00
         -2   -1    0    0    0  501 -0.00000000000E+00  0.00000000000E+00  0.62324845600E+03  0.62324845600E+03  0.25500000000E-02 0. -1.
          2   -1    0    0  501    0  0.00000000000E+00 -0.00000000000E+00 -0.99721570858E+02  0.99721570890E+02  0.25500000000E-02 0.  1.
    5000001    1    1    2    0    0 -0.21993573945E+02 -0.18141864048E+03  0.20504907899E+03  0.32041623742E+03  0.16500000000E+03 0.  0.
   -5000001    1    1    2    0    0  0.21993573945E+02  0.18141864048E+03  0.31847780615E+03  0.40255378948E+03  0.16500000000E+03 0.  0.
<mgrwt>
<rscale>  0 0.49860331E+03</rscale>
<asrwt>0</asrwt>
<pdfrwt beam="1">  1        2 0.15341780E-01 0.49860331E+03</pdfrwt>
<pdfrwt beam="2">  1       -2 0.95884377E-01 0.49860331E+03</pdfrwt>
<totfact> 0.35978592E+02</totfact>
</mgrwt>
</event>
<event>
 4    1  0.3213443E-005  0.1078092E+04  0.7818608E-02  0.9226812E-01
          2   -1    0    0  501    0  0.00000000000E+00  0.00000000000E+00  0.11170807143E+03  0.11170807146E+03  0.25500000000E-02 0.  1.
         -2   -1    0    0    0  501 -0.00000000000E+00 -0.00000000000E+00 -0.26011582464E+04  0.26011582464E+04  0.25500000000E-02 0. -1.
    5000001    1    1    2    0    0 -0.20524350616E+03  0.45971439772E+03 -0.14948865228E+04  0.15859927302E+04  0.16500000000E+03 0.  0.
   -5000001    1    1    2    0    0  0.20524350616E+03 -0.45971439772E+03 -0.99456365215E+03  0.11268735876E+04  0.16500000000E+03 0.  0.
<mgrwt>
<rscale>  0 0.10780916E+04</rscale>
<asrwt>0</asrwt>
<pdfrwt beam="1">  1        2 0.17185859E-01 0.10780916E+04</pdfrwt>
<pdfrwt beam="2">  1       -2 0.40017815E+00 0.10780916E+04</pdfrwt>
<totfact> 0.25726099E+00</totfact>
</mgrwt>
</event>
<event>
 4    1  0.3213443E-005  0.4280457E+03  0.7818608E-02  0.1034479E+00
          2   -1    0    0  501    0  0.00000000000E+00  0.00000000000E+00  0.11447822036E+03  0.11447822039E+03  0.25500000000E-02 0.  1.
         -2   -1    0    0    0  501 -0.00000000000E+00 -0.00000000000E+00 -0.40012663731E+03  0.40012663732E+03  0.25500000000E-02 0. -1.
    5000001    1    1    2    0    0 -0.51391236591E+02 -0.12623766243E+03 -0.14048721289E+03  0.25600520229E+03  0.16500000000E+03 0.  0.
   -5000001    1    1    2    0    0  0.51391236591E+02  0.12623766243E+03 -0.14516120407E+03  0.25859965541E+03  0.16500000000E+03 0.  0.
<mgrwt>
<rscale>  0 0.42804572E+03</rscale>
<asrwt>0</asrwt>
<pdfrwt beam="1">  1        2 0.17612034E-01 0.42804572E+03</pdfrwt>
<pdfrwt beam="2">  1       -2 0.61557943E-01 0.42804572E+03</pdfrwt>
<totfact> 0.81298114E+02</totfact>
</mgrwt>
</event>
<event>
 4    1  0.3213443E-005  0.4894358E+03  0.7818608E-02  0.1016574E+00
         -2   -1    0    0    0  501 -0.00000000000E+00  0.00000000000E+00  0.90327431816E+02  0.90327431852E+02  0.25500000000E-02 0. -1.
          2   -1    0    0  501    0  0.00000000000E+00 -0.00000000000E+00 -0.66299742752E+03  0.66299742753E+03  0.25500000000E-02 0.  1.
    5000001    1    1    2    0    0  0.60993976307E+02  0.17006556036E+03 -0.29309596278E+03  0.38180204736E+03  0.16500000000E+03 0.  0.
   -5000001    1    1    2    0    0 -0.60993976307E+02 -0.17006556036E+03 -0.27957403292E+03  0.37152281202E+03  0.16500000000E+03 0.  0.
<mgrwt>
<rscale>  0 0.48943582E+03</rscale>
<asrwt>0</asrwt>
<pdfrwt beam="1">  1        2 0.10199960E+00 0.48943582E+03</pdfrwt>
<pdfrwt beam="2">  1       -2 0.13896528E-01 0.48943582E+03</pdfrwt>
<totfact> 0.17479496E+03</totfact>
</mgrwt>
</event>
<event>
 4    1  0.3213443E-005  0.5834243E+03  0.7818608E-02  0.9940405E-01
         -2   -1    0    0    0  501 -0.00000000000E+00  0.00000000000E+00  0.32986205063E+02  0.32986205161E+02  0.25500000000E-02 0.  1.
          2   -1    0    0  501    0  0.00000000000E+00 -0.00000000000E+00 -0.25797440218E+04  0.25797440218E+04  0.25500000000E-02 0. -1.
    5000001    1    1    2    0    0  0.16896874553E+03  0.15121317731E+03 -0.16331793513E+04  0.16570804613E+04  0.16500000000E+03 0.  0.
   -5000001    1    1    2    0    0 -0.16896874553E+03 -0.15121317731E+03 -0.91357846547E+03  0.95564976562E+03  0.16500000000E+03 0.  0.
<mgrwt>
<rscale>  0 0.58342426E+03</rscale>
<asrwt>0</asrwt>
<pdfrwt beam="1">  1        2 0.39688354E+00 0.58342426E+03</pdfrwt>
<pdfrwt beam="2">  1       -2 0.50748028E-02 0.58342426E+03</pdfrwt>
<totfact> 0.66613405E+02</totfact>
</mgrwt>
</event>
<event>
 4    1  0.3213443E-005  0.4554014E+03  0.7818608E-02  0.1026123E+00
          2   -1    0    0  501    0  0.00000000000E+00  0.00000000000E+00  0.20057133104E+04  0.20057133104E+04  0.25500000000E-02 0.  1.
         -2   -1    0    0    0  501 -0.00000000000E+00 -0.00000000000E+00 -0.25849962816E+02  0.25849962942E+02  0.25500000000E-02 0. -1.
    5000001    1    1    2    0    0 -0.15673580041E+03 -0.83110772772E+00  0.95660417699E+03  0.98330226955E+03  0.16500000000E+03 0.  0.
   -5000001    1    1    2    0    0  0.15673580041E+03  0.83110772772E+00  0.10232591706E+04  0.10482610038E+04  0.16500000000E+03 0.  0.
<mgrwt>
<rscale>  0 0.45540143E+03</rscale>
<asrwt>0</asrwt>
<pdfrwt beam="1">  1        2 0.30857131E+00 0.45540143E+03</pdfrwt>
<pdfrwt beam="2">  1       -2 0.39769170E-02 0.45540143E+03</pdfrwt>
<totfact> 0.20241397E+03</totfact>
</mgrwt>
</event>
<event>
 4    1  0.3213443E-005  0.7952484E+03  0.7818608E-02  0.9566920E-01
          2   -1    0    0  501    0  0.00000000000E+00  0.00000000000E+00  0.82379739703E+03  0.82379739704E+03  0.25500000000E-02 0.  1.
         -2   -1    0    0    0  501 -0.00000000000E+00 -0.00000000000E+00 -0.19192221759E+03  0.19192221761E+03  0.25500000000E-02 0. -1.
    5000001    1    1    2    0    0  0.27727686078E+03  0.22150839530E+03  0.22624330297E+03  0.45206134412E+03  0.16500000000E+03 0.  0.
   -5000001    1    1    2    0    0 -0.27727686078E+03 -0.22150839530E+03  0.40563187647E+03  0.56365827052E+03  0.16500000000E+03 0.  0.
<mgrwt>
<rscale>  0 0.79524845E+03</rscale>
<asrwt>0</asrwt>
<pdfrwt beam="1">  1        2 0.12673806E+00 0.79524845E+03</pdfrwt>
<pdfrwt beam="2">  1       -2 0.29526495E-01 0.79524845E+03</pdfrwt>
<totfact> 0.35135855E+02</totfact>
</mgrwt>
</event>
<event>
 4    1  0.3213443E-005  0.3791493E+03  0.7818608E-02  0.1051249E+00
         -2   -1    0    0    0  501 -0.00000000000E+00  0.00000000000E+00  0.68994355761E+02  0.68994355808E+02  0.25500000000E-02 0. -1.
          2   -1    0    0  501    0  0.00000000000E+00 -0.00000000000E+00 -0.52089122837E+03  0.52089122837E+03  0.25500000000E-02 0.  1.
    5000001    1    1    2    0    0  0.64092877143E+02  0.41688119448E+02 -0.30926450582E+03  0.35876918870E+03  0.16500000000E+03 0.  0.
   -5000001    1    1    2    0    0 -0.64092877143E+02 -0.41688119448E+02 -0.14263236679E+03  0.23111639548E+03  0.16500000000E+03 0.  0.
<mgrwt>
<rscale>  0 0.37914934E+03</rscale>
<asrwt>0</asrwt>
<pdfrwt beam="1">  1        2 0.80137110E-01 0.37914934E+03</pdfrwt>
<pdfrwt beam="2">  1       -2 0.10614517E-01 0.37914934E+03</pdfrwt>
<totfact> 0.36019360E+03</totfact>
</mgrwt>
</event>
<event>
 4    1  0.3213443E-005  0.6856674E+03  0.7818608E-02  0.9742062E-01
          2   -1    0    0  501    0  0.00000000000E+00  0.00000000000E+00  0.12691422026E+04  0.12691422026E+04  0.25500000000E-02 0.  1.
         -2   -1    0    0    0  501 -0.00000000000E+00 -0.00000000000E+00 -0.92609762146E+02  0.92609762181E+02  0.25500000000E-02 0. -1.
    5000001    1    1    2    0    0  0.20045727571E+03 -0.21478545857E+03  0.71377987081E+03  0.78931781722E+03  0.16500000000E+03 0.  0.
   -5000001    1    1    2    0    0 -0.20045727571E+03  0.21478545857E+03  0.46275256968E+03  0.57243414761E+03  0.16500000000E+03 0.  0.
<mgrwt>
<rscale>  0 0.68566743E+03</rscale>
<asrwt>0</asrwt>
<pdfrwt beam="1">  1        2 0.19525266E+00 0.68566743E+03</pdfrwt>
<pdfrwt beam="2">  1       -2 0.14247655E-01 0.68566743E+03</pdfrwt>
<totfact> 0.66589127E+02</totfact>
</mgrwt>
</event>
<event>
 4    1  0.3213443E-005  0.5750508E+03  0.7818608E-02  0.9958564E-01
         -2   -1    0    0    0  501 -0.00000000000E+00  0.00000000000E+00  0.70472936355E+02  0.70472936401E+02  0.25500000000E-02 0. -1.
          2   -1    0    0  501    0  0.00000000000E+00 -0.00000000000E+00 -0.11730867548E+04  0.11730867548E+04  0.25500000000E-02 0.  1.
    5000001    1    1    2    0    0  0.16116884173E+03  0.12669215911E+03 -0.30079424629E+03  0.39966045254E+03  0.16500000000E+03 0.  0.
   -5000001    1    1    2    0    0 -0.16116884173E+03 -0.12669215911E+03 -0.80181957218E+03  0.84389923869E+03  0.16500000000E+03 0.  0.
<mgrwt>
<rscale>  0 0.57505084E+03</rscale>
<asrwt>0</asrwt>
<pdfrwt beam="1">  1        2 0.18047487E+00 0.57505084E+03</pdfrwt>
<pdfrwt beam="2">  1       -2 0.10841991E-01 0.57505084E+03</pdfrwt>
<totfact> 0.11959065E+03</totfact>
</mgrwt>
</event>
<event>
 4    1  0.3213443E-005  0.7453810E+03  0.7818608E-02  0.9642625E-01
         -2   -1    0    0    0  501 -0.00000000000E+00  0.00000000000E+00  0.10658732140E+03  0.10658732143E+03  0.25500000000E-02 0. -1.
          2   -1    0    0  501    0  0.00000000000E+00 -0.00000000000E+00 -0.13031401332E+04  0.13031401332E+04  0.25500000000E-02 0.  1.
    5000001    1    1    2    0    0  0.30509911285E+03 -0.48087463888E+02 -0.83955673021E+03  0.90965838428E+03  0.16500000000E+03 0.  0.
   -5000001    1    1    2    0    0 -0.30509911285E+03  0.48087463888E+02 -0.35699608154E+03  0.50006907031E+03  0.16500000000E+03 0.  0.
<mgrwt>
<rscale>  0 0.74538102E+03</rscale>
<asrwt>0</asrwt>
<pdfrwt beam="1">  1        2 0.20048309E+00 0.74538102E+03</pdfrwt>
<pdfrwt beam="2">  1       -2 0.16398050E-01 0.74538102E+03</pdfrwt>
<totfact> 0.50021038E+02</totfact>
</mgrwt>
</event>
<event>
 4    1  0.3213443E-005  0.1217339E+04  0.7818608E-02  0.9097814E-01
         -2   -1    0    0    0  501 -0.00000000000E+00  0.00000000000E+00  0.15326062364E+03  0.15326062366E+03  0.25500000000E-02 0. -1.
          2   -1    0    0  501    0  0.00000000000E+00 -0.00000000000E+00 -0.24173105028E+04  0.24173105028E+04  0.25500000000E-02 0.  1.
    5000001    1    1    2    0    0 -0.15027506201E+03 -0.20242591276E+03 -0.15264010168E+02  0.30168996408E+03  0.16500000000E+03 0.  0.
   -5000001    1    1    2    0    0  0.15027506201E+03  0.20242591276E+03 -0.22487858690E+04  0.22688811624E+04  0.16500000000E+03 0.  0.
<mgrwt>
<rscale>  0 0.12173389E+04</rscale>
<asrwt>0</asrwt>
<pdfrwt beam="1">  1        2 0.37189389E+00 0.12173389E+04</pdfrwt>
<pdfrwt beam="2">  1       -2 0.23578559E-01 0.12173389E+04</pdfrwt>
<totfact> 0.61385576E+01</totfact>
</mgrwt>
</event>
<event>
 4    1  0.3213443E-005  0.5531287E+03  0.7818608E-02  0.1000772E+00
          2   -1    0    0  501    0  0.00000000000E+00  0.00000000000E+00  0.20259854181E+03  0.20259854182E+03  0.25500000000E-02 0.  1.
         -2   -1    0    0    0  501 -0.00000000000E+00 -0.00000000000E+00 -0.37753401324E+03  0.37753401325E+03  0.25500000000E-02 0. -1.
    5000001    1    1    2    0    0  0.19709221609E+03 -0.78878581352E+02 -0.19531478533E+02  0.26958050911E+03  0.16500000000E+03 0.  0.
   -5000001    1    1    2    0    0 -0.19709221609E+03  0.78878581352E+02 -0.15540399290E+03  0.31055204596E+03  0.16500000000E+03 0.  0.
<mgrwt>
<rscale>  0 0.55312870E+03</rscale>
<asrwt>0</asrwt>
<pdfrwt beam="1">  1        2 0.31169006E-01 0.55312870E+03</pdfrwt>
<pdfrwt beam="2">  1       -2 0.58082156E-01 0.55312870E+03</pdfrwt>
<totfact> 0.47687891E+02</totfact>
</mgrwt>
</event>
<event>
 4    1  0.3213443E-005  0.6723000E+03  0.7818608E-02  0.9765812E-01
         -2   -1    0    0    0  501 -0.00000000000E+00  0.00000000000E+00  0.12499130254E+03  0.12499130257E+03  0.25500000000E-02 0. -1.
          2   -1    0    0  501    0  0.00000000000E+00 -0.00000000000E+00 -0.90403750826E+03  0.90403750827E+03  0.25500000000E-02 0.  1.
    5000001    1    1    2    0    0 -0.15674945113E+03  0.19131212404E+03 -0.14945097748E+03  0.33276314986E+03  0.16500000000E+03 0.  0.
   -5000001    1    1    2    0    0  0.15674945113E+03 -0.19131212404E+03 -0.62959522824E+03  0.69626566097E+03  0.16500000000E+03 0.  0.
<mgrwt>
<rscale>  0 0.67230001E+03</rscale>
<asrwt>0</asrwt>
<pdfrwt beam="1">  1        2 0.13908269E+00 0.67230001E+03</pdfrwt>
<pdfrwt beam="2">  1       -2 0.19229432E-01 0.67230001E+03</pdfrwt>
<totfact> 0.67043276E+02</totfact>
</mgrwt>
</event>
<event>
 4    1  0.3213443E-005  0.7884278E+03  0.7818608E-02  0.9576920E-01
          2   -1    0    0  501    0  0.00000000000E+00  0.00000000000E+00  0.56725379830E+03  0.56725379831E+03  0.25500000000E-02 0.  1.
         -2   -1    0    0    0  501 -0.00000000000E+00 -0.00000000000E+00 -0.27395952637E+03  0.27395952638E+03  0.25500000000E-02 0. -1.
    5000001    1    1    2    0    0  0.60999925431E+00 -0.34599594605E+03  0.24481825879E+03  0.45483463656E+03  0.16500000000E+03 0.  0.
   -5000001    1    1    2    0    0 -0.60999925431E+00  0.34599594605E+03  0.48476013150E+02  0.38637868812E+03  0.16500000000E+03 0.  0.
<mgrwt>
<rscale>  0 0.78842776E+03</rscale>
<asrwt>0</asrwt>
<pdfrwt beam="1">  1        2 0.87269814E-01 0.78842776E+03</pdfrwt>
<pdfrwt beam="2">  1       -2 0.42147620E-01 0.78842776E+03</pdfrwt>
<totfact> 0.28496298E+02</totfact>
</mgrwt>
</event>
<event>
 4    1  0.3213443E-005  0.3991670E+03  0.7818608E-02  0.1044069E+00
          2   -1    0    0  501    0  0.00000000000E+00  0.00000000000E+00  0.51376748247E+03  0.51376748248E+03  0.25500000000E-02 0.  1.
         -2   -1    0    0    0  501 -0.00000000000E+00 -0.00000000000E+00 -0.77532284685E+02  0.77532284727E+02  0.25500000000E-02 0. -1.
    5000001    1    1    2    0    0 -0.10152840388E+03 -0.30167104397E+02  0.16287959873E+03  0.25489769450E+03  0.16500000000E+03 0.  0.
   -5000001    1    1    2    0    0  0.10152840388E+03  0.30167104397E+02  0.27335559905E+03  0.33640207270E+03  0.16500000000E+03 0.  0.
<mgrwt>
<rscale>  0 0.39916697E+03</rscale>
<asrwt>0</asrwt>
<pdfrwt beam="1">  1        2 0.79041150E-01 0.39916697E+03</pdfrwt>
<pdfrwt beam="2">  1       -2 0.11928044E-01 0.39916697E+03</pdfrwt>
<totfact> 0.30311676E+03</totfact>
</mgrwt>
</event>
<event>
 4    1  0.3213443E-005  0.5225838E+03  0.7818608E-02  0.1008047E+00
          2   -1    0    0  501    0  0.00000000000E+00  0.00000000000E+00  0.51718367138E+03  0.51718367138E+03  0.25500000000E-02 0.  1.
         -2   -1    0    0    0  501 -0.00000000000E+00 -0.00000000000E+00 -0.13201009703E+03  0.13201009706E+03  0.25500000000E-02 0. -1.
    5000001    1    1    2    0    0 -0.40907125003E+02  0.19698764464E+03  0.22227022692E+03  0.34220838504E+03  0.16500000000E+03 0.  0.
   -5000001    1    1    2    0    0  0.40907125003E+02 -0.19698764464E+03  0.16290334742E+03  0.30698538340E+03  0.16500000000E+03 0.  0.
<mgrwt>
<rscale>  0 0.52258384E+03</rscale>
<asrwt>0</asrwt>
<pdfrwt beam="1">  1        2 0.79566717E-01 0.52258384E+03</pdfrwt>
<pdfrwt beam="2">  1       -2 0.20309246E-01 0.52258384E+03</pdfrwt>
<totfact> 0.12308733E+03</totfact>
</mgrwt>
</event>
<event>
 4    1  0.3213443E-005  0.8018976E+03  0.7818608E-02  0.9557275E-01
         -2   -1    0    0    0  501 -0.00000000000E+00  0.00000000000E+00  0.19983514088E+03  0.19983514089E+03  0.25500000000E-02 0. -1.
          2   -1    0    0  501    0  0.00000000000E+00 -0.00000000000E+00 -0.80446275821E+03  0.80446275821E+03  0.25500000000E-02 0.  1.
    5000001    1    1    2    0    0  0.33116864596E+03 -0.10835546113E+03 -0.44019948789E+03  0.58516165900E+03  0.16500000000E+03 0.  0.
   -5000001    1    1    2    0    0 -0.33116864596E+03  0.10835546113E+03 -0.16442812945E+03  0.41913624011E+03  0.16500000000E+03 0.  0.
<mgrwt>
<rscale>  0 0.80189757E+03</rscale>
<asrwt>0</asrwt>
<pdfrwt beam="1">  1        2 0.12376350E+00 0.80189757E+03</pdfrwt>
<pdfrwt beam="2">  1       -2 0.30743868E-01 0.80189757E+03</pdfrwt>
<totfact> 0.33636242E+02</totfact>
</mgrwt>
</event>
<event>
 4    1  0.3213443E-005  0.4057243E+03  0.7818608E-02  0.1041815E+00
         -2   -1    0    0    0  501 -0.00000000000E+00  0.00000000000E+00  0.85235851394E+02  0.85235851432E+02  0.25500000000E-02 0. -1.
          2   -1    0    0  501    0  0.00000000000E+00 -0.00000000000E+00 -0.48281393156E+03  0.48281393157E+03  0.25500000000E-02 0.  1.
    5000001    1    1    2    0    0 -0.11482797169E+03  0.81262879602E+01 -0.16237175910E+03  0.25853643417E+03  0.16500000000E+03 0.  0.
   -5000001    1    1    2    0    0  0.11482797169E+03 -0.81262879602E+01 -0.23520632107E+03  0.30951334884E+03  0.16500000000E+03 0.  0.
<mgrwt>
<rscale>  0 0.40572432E+03</rscale>
<asrwt>0</asrwt>
<pdfrwt beam="1">  1        2 0.74279065E-01 0.40572432E+03</pdfrwt>
<pdfrwt beam="2">  1       -2 0.13113208E-01 0.40572432E+03</pdfrwt>
<totfact> 0.27860053E+03</totfact>
</mgrwt>
</event>
<event>
 4    1  0.3213443E-005  0.3660081E+03  0.7818608E-02  0.1056230E+00
         -2   -1    0    0    0  501 -0.00000000000E+00  0.00000000000E+00  0.19591434070E+02  0.19591434236E+02  0.25500000000E-02 0. -1.
          2   -1    0    0  501    0  0.00000000000E+00 -0.00000000000E+00 -0.17094448766E+04  0.17094448766E+04  0.25500000000E-02 0.  1.
    5000001    1    1    2    0    0 -0.37350849168E+02  0.15968497493E+02 -0.11658624195E+04  0.11781809114E+04  0.16500000000E+03 0.  0.
   -5000001    1    1    2    0    0  0.37350849168E+02 -0.15968497493E+02 -0.52399102303E+03  0.55085539941E+03  0.16500000000E+03 0.  0.
<mgrwt>
<rscale>  0 0.36600807E+03</rscale>
<asrwt>0</asrwt>
<pdfrwt beam="1">  1        2 0.26299140E+00 0.36600807E+03</pdfrwt>
<pdfrwt beam="2">  1       -2 0.30140681E-02 0.36600807E+03</pdfrwt>
<totfact> 0.44443651E+03</totfact>
</mgrwt>
</event>
<event>
 4    1  0.3213443E-005  0.5334425E+03  0.7818608E-02  0.1005401E+00
          2   -1    0    0  501    0  0.00000000000E+00  0.00000000000E+00  0.11081895047E+04  0.11081895047E+04  0.25500000000E-02 0.  1.
         -2   -1    0    0    0  501 -0.00000000000E+00 -0.00000000000E+00 -0.64195009443E+02  0.64195009494E+02  0.25500000000E-02 0. -1.
    5000001    1    1    2    0    0  0.62615623004E+02 -0.14549150818E+03  0.82355465196E+03  0.85472554657E+03  0.16500000000E+03 0.  0.
   -5000001    1    1    2    0    0 -0.62615623004E+02  0.14549150818E+03  0.22043984328E+03  0.31765896761E+03  0.16500000000E+03 0.  0.
<mgrwt>
<rscale>  0 0.53344254E+03</rscale>
<asrwt>0</asrwt>
<pdfrwt beam="1">  1        2 0.17049068E+00 0.53344254E+03</pdfrwt>
<pdfrwt beam="2">  1       -2 0.98761559E-02 0.53344254E+03</pdfrwt>
<totfact> 0.15228782E+03</totfact>
</mgrwt>
</event>
<event>
 4    1  0.3213443E-005  0.8366244E+03  0.7818608E-02  0.9508467E-01
         -2   -1    0    0    0  501 -0.00000000000E+00  0.00000000000E+00  0.62844563431E+02  0.62844563482E+02  0.25500000000E-02 0. -1.
          2   -1    0    0  501    0  0.00000000000E+00 -0.00000000000E+00 -0.27844107278E+04  0.27844107278E+04  0.25500000000E-02 0.  1.
    5000001    1    1    2    0    0  0.32073353508E+03  0.18741960229E+03 -0.10244968408E+04  0.11021864110E+04  0.16500000000E+03 0.  0.
   -5000001    1    1    2    0    0 -0.32073353508E+03 -0.18741960229E+03 -0.16970693236E+04  0.17450688803E+04  0.16500000000E+03 0.  0.
<mgrwt>
<rscale>  0 0.83662435E+03</rscale>
<asrwt>0</asrwt>
<pdfrwt beam="1">  1        2 0.42837079E+00 0.83662435E+03</pdfrwt>
<pdfrwt beam="2">  1       -2 0.96683965E-02 0.83662435E+03</pdfrwt>
<totfact> 0.17784140E+02</totfact>
</mgrwt>
</event>
<event>
 4    1  0.3213443E-005  0.4918665E+03  0.7818608E-02  0.1015924E+00
          2   -1    0    0  501    0  0.00000000000E+00  0.00000000000E+00  0.10432057530E+04  0.10432057530E+04  0.25500000000E-02 0.  1.
         -2   -1    0    0    0  501 -0.00000000000E+00 -0.00000000000E+00 -0.57978167536E+02  0.57978167592E+02  0.25500000000E-02 0. -1.
    5000001    1    1    2    0    0  0.10928967715E+03 -0.14576158568E+03  0.51100519548E+03  0.56704672047E+03  0.16500000000E+03 0.  0.
   -5000001    1    1    2    0    0 -0.10928967715E+03  0.14576158568E+03  0.47422238996E+03  0.53413720010E+03  0.16500000000E+03 0.  0.
<mgrwt>
<rscale>  0 0.49186648E+03</rscale>
<asrwt>0</asrwt>
<pdfrwt beam="1">  1        2 0.16049319E+00 0.49186648E+03</pdfrwt>
<pdfrwt beam="2">  1       -2 0.89197185E-02 0.49186648E+03</pdfrwt>
<totfact> 0.19664595E+03</totfact>
</mgrwt>
</event>
<event>
 4    1  0.3213443E-005  0.8536855E+03  0.7818608E-02  0.9485404E-01
         -2   -1    0    0    0  501 -0.00000000000E+00  0.00000000000E+00  0.31123001874E+03  0.31123001875E+03  0.25500000000E-02 0. -1.
          2   -1    0    0  501    0  0.00000000000E+00 -0.00000000000E+00 -0.58540217674E+03  0.58540217675E+03  0.25500000000E-02 0.  1.
    5000001    1    1    2    0    0 -0.11886886040E+03  0.36663721408E+03 -0.22122270210E+03  0.47404339110E+03  0.16500000000E+03 0.  0.
   -5000001    1    1    2    0    0  0.11886886040E+03 -0.36663721408E+03 -0.52949455904E+02  0.42258880440E+03  0.16500000000E+03 0.  0.
<mgrwt>
<rscale>  0 0.85368549E+03</rscale>
<asrwt>0</asrwt>
<pdfrwt beam="1">  1        2 0.90061873E-01 0.85368549E+03</pdfrwt>
<pdfrwt beam="2">  1       -2 0.47881541E-01 0.85368549E+03</pdfrwt>
<totfact> 0.21222620E+02</totfact>
</mgrwt>
</event>
<event>
 4    1  0.3213443E-005  0.5020444E+03  0.7818608E-02  0.1013247E+00
          2   -1    0    0  501    0  0.00000000000E+00  0.00000000000E+00  0.40624705464E+03  0.40624705465E+03  0.25500000000E-02 0.  1.
         -2   -1    0    0    0  501 -0.00000000000E+00 -0.00000000000E+00 -0.15510795076E+03  0.15510795079E+03  0.25500000000E-02 0. -1.
    5000001    1    1    2    0    0  0.16099004666E+03 -0.39176995742E+02  0.22764837507E+03  0.32634554508E+03  0.16500000000E+03 0.  0.
   -5000001    1    1    2    0    0 -0.16099004666E+03  0.39176995742E+02  0.23490728811E+02  0.23500946036E+03  0.16500000000E+03 0.  0.
<mgrwt>
<rscale>  0 0.50204441E+03</rscale>
<asrwt>0</asrwt>
<pdfrwt beam="1">  1        2 0.62499547E-01 0.50204441E+03</pdfrwt>
<pdfrwt beam="2">  1       -2 0.23862762E-01 0.50204441E+03</pdfrwt>
<totfact> 0.12182746E+03</totfact>
</mgrwt>
</event>
<event>
 4    1  0.3213443E-005  0.3641101E+03  0.7818608E-02  0.1056968E+00
         -2   -1    0    0    0  501 -0.00000000000E+00  0.00000000000E+00  0.72818114242E+02  0.72818114287E+02  0.25500000000E-02 0. -1.
          2   -1    0    0  501    0  0.00000000000E+00 -0.00000000000E+00 -0.45516198266E+03  0.45516198267E+03  0.25500000000E-02 0.  1.
    5000001    1    1    2    0    0  0.59291047162E+01 -0.74054250270E+02 -0.22016765738E+03  0.28498769030E+03  0.16500000000E+03 0.  0.
   -5000001    1    1    2    0    0 -0.59291047162E+01  0.74054250270E+02 -0.16217621104E+03  0.24299240666E+03  0.16500000000E+03 0.  0.
<mgrwt>
<rscale>  0 0.36411008E+03</rscale>
<asrwt>0</asrwt>
<pdfrwt beam="1">  1        2 0.70024919E-01 0.36411008E+03</pdfrwt>
<pdfrwt beam="2">  1       -2 0.11202787E-01 0.36411008E+03</pdfrwt>
<totfact> 0.38413226E+03</totfact>
</mgrwt>
</event>
<event>
 4    1  0.3213443E-005  0.5217722E+03  0.7818608E-02  0.1008247E+00
         -2   -1    0    0    0  501 -0.00000000000E+00  0.00000000000E+00  0.15951219456E+03  0.15951219458E+03  0.25500000000E-02 0. -1.
          2   -1    0    0  501    0  0.00000000000E+00 -0.00000000000E+00 -0.42668566476E+03  0.42668566476E+03  0.25500000000E-02 0.  1.
    5000001    1    1    2    0    0 -0.41047301685E+02 -0.18307559763E+03 -0.49251189453E+02  0.25466101996E+03  0.16500000000E+03 0.  0.
   -5000001    1    1    2    0    0  0.41047301685E+02  0.18307559763E+03 -0.21792228074E+03  0.33153683938E+03  0.16500000000E+03 0.  0.
<mgrwt>
<rscale>  0 0.52177224E+03</rscale>
<asrwt>0</asrwt>
<pdfrwt beam="1">  1        2 0.65643948E-01 0.52177224E+03</pdfrwt>
<pdfrwt beam="2">  1       -2 0.24540338E-01 0.52177224E+03</pdfrwt>
<totfact> 0.10970733E+03</totfact>
</mgrwt>
</event>
<event>
 4    1  0.3213443E-005  0.7455691E+03  0.7818608E-02  0.9642327E-01
         -2   -1    0    0    0  501 -0.00000000000E+00  0.00000000000E+00  0.82335092555E+02  0.82335092595E+02  0.25500000000E-02 0. -1.
          2   -1    0    0  501    0  0.00000000000E+00 -0.00000000000E+00 -0.16878382543E+04  0.16878382543E+04  0.25500000000E-02 0.  1.
    5000001    1    1    2    0    0  0.16585578635E+03 -0.21729696044E+03 -0.12595554036E+04  0.12993963697E+04  0.16500000000E+03 0.  0.
   -5000001    1    1    2    0    0 -0.16585578635E+03  0.21729696044E+03 -0.34594775815E+03  0.47077697719E+03  0.16500000000E+03 0.  0.
<mgrwt>
<rscale>  0 0.74556910E+03</rscale>
<asrwt>0</asrwt>
<pdfrwt beam="1">  1        2 0.25966740E+00 0.74556910E+03</pdfrwt>
<pdfrwt beam="2">  1       -2 0.12666939E-01 0.74556910E+03</pdfrwt>
<totfact> 0.47108710E+02</totfact>
</mgrwt>
</event>
<event>
 4    1  0.3213443E-005  0.5329848E+03  0.7818608E-02  0.1005511E+00
         -2   -1    0    0    0  501 -0.00000000000E+00  0.00000000000E+00  0.53628295475E+02  0.53628295535E+02  0.25500000000E-02 0. -1.
          2   -1    0    0  501    0  0.00000000000E+00 -0.00000000000E+00 -0.13242674066E+04  0.13242674066E+04  0.25500000000E-02 0.  1.
    5000001    1    1    2    0    0  0.20044391940E+03  0.13131023589E+02 -0.78701445494E+03  0.82883468852E+03  0.16500000000E+03 0.  0.
   -5000001    1    1    2    0    0 -0.20044391940E+03 -0.13131023589E+02 -0.48362465615E+03  0.54906101358E+03  0.16500000000E+03 0.  0.
<mgrwt>
<rscale>  0 0.53298482E+03</rscale>
<asrwt>0</asrwt>
<pdfrwt beam="1">  1        2 0.20373342E+00 0.53298482E+03</pdfrwt>
<pdfrwt beam="2">  1       -2 0.82505080E-02 0.53298482E+03</pdfrwt>
<totfact> 0.15208607E+03</totfact>
</mgrwt>
</event>
<event>
 4    1  0.3213443E-005  0.1149331E+04  0.7818608E-02  0.9158401E-01
          2   -1    0    0  501    0  0.00000000000E+00  0.00000000000E+00  0.91392081184E+03  0.91392081185E+03  0.25500000000E-02 0.  1.
         -2   -1    0    0    0  501 -0.00000000000E+00 -0.00000000000E+00 -0.36134498304E+03  0.36134498305E+03  0.25500000000E-02 0. -1.
    5000001    1    1    2    0    0 -0.42056523825E+03 -0.33110289923E+03  0.41886444224E+03  0.69941166024E+03  0.16500000000E+03 0.  0.
   -5000001    1    1    2    0    0  0.42056523825E+03  0.33110289923E+03  0.13371138656E+03  0.57585413465E+03  0.16500000000E+03 0.  0.
<mgrwt>
<rscale>  0 0.11493315E+04</rscale>
<asrwt>0</asrwt>
<pdfrwt beam="1">  1        2 0.14060320E+00 0.11493315E+04</pdfrwt>
<pdfrwt beam="2">  1       -2 0.55591537E-01 0.11493315E+04</pdfrwt>
<totfact> 0.86369596E+01</totfact>
</mgrwt>
</event>
<event>
 4    1  0.3213443E-005  0.7523872E+03  0.7818608E-02  0.9631613E-01
          2   -1    0    0  501    0  0.00000000000E+00  0.00000000000E+00  0.10527795783E+04  0.10527795783E+04  0.25500000000E-02 0.  1.
         -2   -1    0    0    0  501 -0.00000000000E+00 -0.00000000000E+00 -0.13442664358E+03  0.13442664361E+03  0.25500000000E-02 0. -1.
    5000001    1    1    2    0    0  0.66628051030E+01  0.32370880779E+03  0.30566479537E+03  0.47485550681E+03  0.16500000000E+03 0.  0.
   -5000001    1    1    2    0    0 -0.66628051030E+01 -0.32370880779E+03  0.61268813932E+03  0.71235071509E+03  0.16500000000E+03 0.  0.
<mgrwt>
<rscale>  0 0.75238720E+03</rscale>
<asrwt>0</asrwt>
<pdfrwt beam="1">  1        2 0.16196609E+00 0.75238720E+03</pdfrwt>
<pdfrwt beam="2">  1       -2 0.20681022E-01 0.75238720E+03</pdfrwt>
<totfact> 0.47200352E+02</totfact>
</mgrwt>
</event>
<event>
 4    1  0.3213443E-005  0.4350220E+03  0.7818608E-02  0.1032285E+00
          2   -1    0    0  501    0  0.00000000000E+00  0.00000000000E+00  0.39327543799E+02  0.39327543882E+02  0.25500000000E-02 0.  1.
         -2   -1    0    0    0  501 -0.00000000000E+00 -0.00000000000E+00 -0.12029997727E+04  0.12029997727E+04  0.25500000000E-02 0. -1.
    5000001    1    1    2    0    0 -0.35426505568E+01  0.12118953919E+03 -0.37224104124E+03  0.42483861355E+03  0.16500000000E+03 0.  0.
   -5000001    1    1    2    0    0  0.35426505568E+01 -0.12118953919E+03 -0.79143118767E+03  0.81748870304E+03  0.16500000000E+03 0.  0.
<mgrwt>
<rscale>  0 0.43502196E+03</rscale>
<asrwt>0</asrwt>
<pdfrwt beam="1">  1        2 0.60503923E-02 0.43502196E+03</pdfrwt>
<pdfrwt beam="2">  1       -2 0.18507686E+00 0.43502196E+03</pdfrwt>
<totfact> 0.21956277E+02</totfact>
</mgrwt>
</event>
<event>
 4    1  0.3213443E-005  0.4325872E+03  0.7818608E-02  0.1033046E+00
          2   -1    0    0  501    0  0.00000000000E+00  0.00000000000E+00  0.15198575400E+04  0.15198575400E+04  0.25500000000E-02 0.  1.
         -2   -1    0    0    0  501 -0.00000000000E+00 -0.00000000000E+00 -0.30781118983E+02  0.30781119089E+02  0.25500000000E-02 0. -1.
    5000001    1    1    2    0    0  0.48832465489E+02 -0.10918889419E+03  0.10042919232E+04  0.10247605043E+04  0.16500000000E+03 0.  0.
   -5000001    1    1    2    0    0 -0.48832465489E+02  0.10918889419E+03  0.48478449786E+03  0.52587815477E+03  0.16500000000E+03 0.  0.
<mgrwt>
<rscale>  0 0.43258717E+03</rscale>
<asrwt>0</asrwt>
<pdfrwt beam="1">  1        2 0.23382422E+00 0.43258717E+03</pdfrwt>
<pdfrwt beam="2">  1       -2 0.47355571E-02 0.43258717E+03</pdfrwt>
<totfact> 0.28286243E+03</totfact>
</mgrwt>
</event>
<event>
 4    1  0.3213443E-005  0.5450642E+03  0.7818608E-02  0.1002643E+00
          2   -1    0    0  501    0  0.00000000000E+00  0.00000000000E+00  0.56551411981E+03  0.56551411982E+03  0.25500000000E-02 0.  1.
         -2   -1    0    0    0  501 -0.00000000000E+00 -0.00000000000E+00 -0.13133844314E+03  0.13133844317E+03  0.25500000000E-02 0. -1.
    5000001    1    1    2    0    0  0.20394033542E+03  0.69013753789E+02  0.18340326872E+03  0.32743902883E+03  0.16500000000E+03 0.  0.
   -5000001    1    1    2    0    0 -0.20394033542E+03 -0.69013753789E+02  0.25077240795E+03  0.36941353415E+03  0.16500000000E+03 0.  0.
<mgrwt>
<rscale>  0 0.54506419E+03</rscale>
<asrwt>0</asrwt>
<pdfrwt beam="1">  1        2 0.87002173E-01 0.54506419E+03</pdfrwt>
<pdfrwt beam="2">  1       -2 0.20205914E-01 0.54506419E+03</pdfrwt>
<totfact> 0.11188811E+03</totfact>
</mgrwt>
</event>
<event>
 4    1  0.3213443E-005  0.1498273E+04  0.7818608E-02  0.8885602E-01
          2   -1    0    0  501    0  0.00000000000E+00  0.00000000000E+00  0.19865529036E+04  0.19865529036E+04  0.25500000000E-02 0.  1.
         -2   -1    0    0    0  501 -0.00000000000E+00 -0.00000000000E+00 -0.28250214684E+03  0.28250214685E+03  0.25500000000E-02 0. -1.
    5000001    1    1    2    0    0 -0.35066013989E+03 -0.60494945786E+03  0.53056966051E+03  0.89311563916E+03  0.16500000000E+03 0.  0.
   -5000001    1    1    2    0    0  0.35066013989E+03  0.60494945786E+03  0.11734810963E+04  0.13759394113E+04  0.16500000000E+03 0.  0.
<mgrwt>
<rscale>  0 0.14982730E+04</rscale>
<asrwt>0</asrwt>
<pdfrwt beam="1">  1        2 0.30562352E+00 0.14982730E+04</pdfrwt>
<pdfrwt beam="2">  1       -2 0.43461869E-01 0.14982730E+04</pdfrwt>
<totfact> 0.32984142E+01</totfact>
</mgrwt>
</event>
<event>
 4    1  0.3213443E-005  0.4247693E+03  0.7818608E-02  0.1035525E+00
          2   -1    0    0  501    0  0.00000000000E+00  0.00000000000E+00  0.94118162673E+03  0.94118162673E+03  0.25500000000E-02 0.  1.
         -2   -1    0    0    0  501 -0.00000000000E+00 -0.00000000000E+00 -0.47926186436E+02  0.47926186504E+02  0.25500000000E-02 0. -1.
    5000001    1    1    2    0    0  0.11113783945E+03  0.59793156425E+02  0.54959728251E+03  0.58754490369E+03  0.16500000000E+03 0.  0.
   -5000001    1    1    2    0    0 -0.11113783945E+03 -0.59793156425E+02  0.34365815779E+03  0.40156290955E+03  0.16500000000E+03 0.  0.
<mgrwt>
<rscale>  0 0.42476933E+03</rscale>
<asrwt>0</asrwt>
<pdfrwt beam="1">  1        2 0.14479717E+00 0.42476933E+03</pdfrwt>
<pdfrwt beam="2">  1       -2 0.73732596E-02 0.42476933E+03</pdfrwt>
<totfact> 0.30833048E+03</totfact>
</mgrwt>
</event>
<event>
 4    1  0.3213443E-005  0.6303880E+03  0.7818608E-02  0.9844292E-01
         -2   -1    0    0    0  501 -0.00000000000E+00  0.00000000000E+00  0.25842465602E+03  0.25842465603E+03  0.25500000000E-02 0. -1.
          2   -1    0    0  501    0  0.00000000000E+00 -0.00000000000E+00 -0.38443413421E+03  0.38443413422E+03  0.25500000000E-02 0.  1.
    5000001    1    1    2    0    0 -0.83330862722E+02  0.21219091872E+03  0.81765765287E+02  0.29305231451E+03  0.16500000000E+03 0.  0.
   -5000001    1    1    2    0    0  0.83330862722E+02 -0.21219091872E+03 -0.20777524348E+03  0.34980647574E+03  0.16500000000E+03 0.  0.
<mgrwt>
<rscale>  0 0.63038800E+03</rscale>
<asrwt>0</asrwt>
<pdfrwt beam="1">  1        2 0.59143713E-01 0.63038800E+03</pdfrwt>
<pdfrwt beam="2">  1       -2 0.39757640E-01 0.63038800E+03</pdfrwt>
<totfact> 0.50168446E+02</totfact>
</mgrwt>
</event>
<event>
 4    1  0.3213443E-005  0.4346859E+03  0.7818608E-02  0.1032390E+00
         -2   -1    0    0    0  501 -0.00000000000E+00  0.00000000000E+00  0.17015500330E+03  0.17015500332E+03  0.25500000000E-02 0. -1.
          2   -1    0    0  501    0  0.00000000000E+00 -0.00000000000E+00 -0.27761727030E+03  0.27761727031E+03  0.25500000000E-02 0.  1.
    5000001    1    1    2    0    0  0.24186519163E+02 -0.12151074313E+03 -0.12407396677E+03  0.24076793315E+03  0.16500000000E+03 0.  0.
   -5000001    1    1    2    0    0 -0.24186519163E+02  0.12151074313E+03  0.16611699776E+02  0.20700434047E+03  0.16500000000E+03 0.  0.
<mgrwt>
<rscale>  0 0.43468594E+03</rscale>
<asrwt>0</asrwt>
<pdfrwt beam="1">  1        2 0.42710349E-01 0.43468594E+03</pdfrwt>
<pdfrwt beam="2">  1       -2 0.26177693E-01 0.43468594E+03</pdfrwt>
<totfact> 0.15687196E+03</totfact>
</mgrwt>
</event>
<event>
 4    1  0.3213443E-005  0.9699784E+03  0.7818608E-02  0.9342099E-01
          2   -1    0    0  501    0  0.00000000000E+00  0.00000000000E+00  0.10877450907E+04  0.10877450907E+04  0.25500000000E-02 0.  1.
         -2   -1    0    0    0  501 -0.00000000000E+00 -0.00000000000E+00 -0.21624048691E+03  0.21624048692E+03  0.25500000000E-02 0. -1.
    5000001    1    1    2    0    0 -0.71653318062E+02  0.40197671248E+03  0.70885640994E+03  0.83451895442E+03  0.16500000000E+03 0.  0.
   -5000001    1    1    2    0    0  0.71653318062E+02 -0.40197671248E+03  0.16264819389E+03  0.46946662325E+03  0.16500000000E+03 0.  0.
<mgrwt>
<rscale>  0 0.96997841E+03</rscale>
<asrwt>0</asrwt>
<pdfrwt beam="1">  1        2 0.16734540E+00 0.96997841E+03</pdfrwt>
<pdfrwt beam="2">  1       -2 0.33267768E-01 0.96997841E+03</pdfrwt>
<totfact> 0.18681486E+02</totfact>
</mgrwt>
</event>
<event>
 4    1  0.3213443E-005  0.4539927E+03  0.7818608E-02  0.1026538E+00
          2   -1    0    0  501    0  0.00000000000E+00  0.00000000000E+00  0.12671358491E+04  0.12671358491E+04  0.25500000000E-02 0.  1.
         -2   -1    0    0    0  501 -0.00000000000E+00 -0.00000000000E+00 -0.40664415570E+02  0.40664415650E+02  0.25500000000E-02 0. -1.
    5000001    1    1    2    0    0  0.78393300477E+01  0.15445073137E+03  0.66982116979E+03  0.70696667745E+03  0.16500000000E+03 0.  0.
   -5000001    1    1    2    0    0 -0.78393300477E+01 -0.15445073137E+03  0.55665026374E+03  0.60083358731E+03  0.16500000000E+03 0.  0.
<mgrwt>
<rscale>  0 0.45399268E+03</rscale>
<asrwt>0</asrwt>
<pdfrwt beam="1">  1        2 0.19494397E+00 0.45399268E+03</pdfrwt>
<pdfrwt beam="2">  1       -2 0.62560642E-02 0.45399268E+03</pdfrwt>
<totfact> 0.25395925E+03</totfact>
</mgrwt>
</event>
<event>
 4    1  0.3213443E-005  0.6199895E+03  0.7818608E-02  0.9864781E-01
          2   -1    0    0  501    0  0.00000000000E+00  0.00000000000E+00  0.23138089639E+04  0.23138089639E+04  0.25500000000E-02 0.  1.
         -2   -1    0    0    0  501 -0.00000000000E+00 -0.00000000000E+00 -0.41531834760E+02  0.41531834838E+02  0.25500000000E-02 0. -1.
    5000001    1    1    2    0    0  0.50329026654E+02 -0.23534720036E+03  0.15336821588E+04  0.15611941839E+04  0.16500000000E+03 0.  0.
   -5000001    1    1    2    0    0 -0.50329026654E+02  0.23534720036E+03  0.73859497039E+03  0.79414661488E+03  0.16500000000E+03 0.  0.
<mgrwt>
<rscale>  0 0.61998946E+03</rscale>
<asrwt>0</asrwt>
<pdfrwt beam="1">  1        2 0.35597071E+00 0.61998946E+03</pdfrwt>
<pdfrwt beam="2">  1       -2 0.63895112E-02 0.61998946E+03</pdfrwt>
<totfact> 0.65285043E+02</totfact>
</mgrwt>
</event>
<event>
 4    1  0.3213443E-005  0.3823317E+03  0.7818608E-02  0.1050075E+00
         -2   -1    0    0    0  501 -0.00000000000E+00  0.00000000000E+00  0.56522359150E+02  0.56522359207E+02  0.25500000000E-02 0. -1.
          2   -1    0    0  501    0  0.00000000000E+00 -0.00000000000E+00 -0.64654726306E+03  0.64654726307E+03  0.25500000000E-02 0.  1.
    5000001    1    1    2    0    0 -0.82625404570E+02  0.48128888830E+02 -0.31941023871E+03  0.37200974183E+03  0.16500000000E+03 0.  0.
   -5000001    1    1    2    0    0  0.82625404570E+02 -0.48128888830E+02 -0.27061466520E+03  0.33105988045E+03  0.16500000000E+03 0.  0.
<mgrwt>
<rscale>  0 0.38233167E+03</rscale>
<asrwt>0</asrwt>
<pdfrwt beam="1">  1        2 0.99468805E-01 0.38233167E+03</pdfrwt>
<pdfrwt beam="2">  1       -2 0.86957480E-02 0.38233167E+03</pdfrwt>
<totfact> 0.38483349E+03</totfact>
</mgrwt>
</event>
<event>
 4    1  0.3213443E-005  0.4002795E+03  0.7818608E-02  0.1043683E+00
         -2   -1    0    0    0  501 -0.00000000000E+00  0.00000000000E+00  0.38939071317E+02  0.38939071401E+02  0.25500000000E-02 0. -1.
          2   -1    0    0  501    0  0.00000000000E+00 -0.00000000000E+00 -0.10286818001E+04  0.10286818001E+04  0.25500000000E-02 0.  1.
    5000001    1    1    2    0    0 -0.10769464443E+03 -0.34590697895E+02 -0.47881028071E+03  0.51892093592E+03  0.16500000000E+03 0.  0.
   -5000001    1    1    2    0    0  0.10769464443E+03  0.34590697895E+02 -0.51093244809E+03  0.54869993560E+03  0.16500000000E+03 0.  0.
<mgrwt>
<rscale>  0 0.40027947E+03</rscale>
<asrwt>0</asrwt>
<pdfrwt beam="1">  1        2 0.15825872E+00 0.40027947E+03</pdfrwt>
<pdfrwt beam="2">  1       -2 0.59906271E-02 0.40027947E+03</pdfrwt>
<totfact> 0.37558742E+03</totfact>
</mgrwt>
</event>
<event>
 4    1  0.3213443E-005  0.6604061E+03  0.7818608E-02  0.9787446E-01
         -2   -1    0    0    0  501 -0.00000000000E+00  0.00000000000E+00  0.36178192718E+03  0.36178192719E+03  0.25500000000E-02 0. -1.
          2   -1    0    0  501    0  0.00000000000E+00 -0.00000000000E+00 -0.30138061328E+03  0.30138061329E+03  0.25500000000E-02 0.  1.
    5000001    1    1    2    0    0  0.22976691848E+01 -0.19318288449E+03 -0.18159232423E+03  0.31229101550E+03  0.16500000000E+03 0.  0.
   -5000001    1    1    2    0    0 -0.22976691848E+01  0.19318288449E+03  0.24199363814E+03  0.35087152498E+03  0.16500000000E+03 0.  0.
<mgrwt>
<rscale>  0 0.66040611E+03</rscale>
<asrwt>0</asrwt>
<pdfrwt beam="1">  1        2 0.46366249E-01 0.66040611E+03</pdfrwt>
<pdfrwt beam="2">  1       -2 0.55658758E-01 0.66040611E+03</pdfrwt>
<totfact> 0.33450129E+02</totfact>
</mgrwt>
</event>
<event>
 4    1  0.3213443E-005  0.4744225E+03  0.7818608E-02  0.1020679E+00
          2   -1    0    0  501    0  0.00000000000E+00  0.00000000000E+00  0.20346406893E+03  0.20346406895E+03  0.25500000000E-02 0.  1.
         -2   -1    0    0    0  501 -0.00000000000E+00 -0.00000000000E+00 -0.27655589845E+03  0.27655589846E+03  0.25500000000E-02 0. -1.
    5000001    1    1    2    0    0  0.30830997781E+02  0.16245223969E+03  0.52072642574E+01  0.23365229767E+03  0.16500000000E+03 0.  0.
   -5000001    1    1    2    0    0 -0.30830997781E+02 -0.16245223969E+03 -0.78299093781E+02  0.24636766974E+03  0.16500000000E+03 0.  0.
<mgrwt>
<rscale>  0 0.47442255E+03</rscale>
<asrwt>0</asrwt>
<pdfrwt beam="1">  1        2 0.31302165E-01 0.47442255E+03</pdfrwt>
<pdfrwt beam="2">  1       -2 0.42547061E-01 0.47442255E+03</pdfrwt>
<totfact> 0.89042913E+02</totfact>
</mgrwt>
</event>
<event>
 4    1  0.3213443E-005  0.6544685E+03  0.7818608E-02  0.9798430E-01
          2   -1    0    0  501    0  0.00000000000E+00  0.00000000000E+00  0.39315047428E+03  0.39315047428E+03  0.25500000000E-02 0.  1.
         -2   -1    0    0    0  501 -0.00000000000E+00 -0.00000000000E+00 -0.27236963802E+03  0.27236963804E+03  0.25500000000E-02 0. -1.
    5000001    1    1    2    0    0  0.16309487102E+03  0.16559421594E+03  0.22384006793E+03  0.36242345028E+03  0.16500000000E+03 0.  0.
   -5000001    1    1    2    0    0 -0.16309487102E+03 -0.16559421594E+03 -0.10305923168E+03  0.30309666204E+03  0.16500000000E+03 0.  0.
<mgrwt>
<rscale>  0 0.65446849E+03</rscale>
<asrwt>0</asrwt>
<pdfrwt beam="1">  1        2 0.60484688E-01 0.65446849E+03</pdfrwt>
<pdfrwt beam="2">  1       -2 0.41903021E-01 0.65446849E+03</pdfrwt>
<totfact> 0.44131878E+02</totfact>
</mgrwt>
</event>
<event>
 4    1  0.3213443E-005  0.6298669E+03  0.7818608E-02  0.9845309E-01
          2   -1    0    0  501    0  0.00000000000E+00  0.00000000000E+00  0.46351547829E+03  0.46351547829E+03  0.25500000000E-02 0.  1.
         -2   -1    0    0    0  501 -0.00000000000E+00 -0.00000000000E+00 -0.21398009568E+03  0.21398009569E+03  0.25500000000E-02 0. -1.
    5000001    1    1    2    0    0  0.57936343552E+01  0.26746271053E+03  0.10357452386E+03  0.33094191291E+03  0.16500000000E+03 0.  0.
   -5000001    1    1    2    0    0 -0.57936343552E+01 -0.26746271053E+03  0.14596085874E+03  0.34655366108E+03  0.16500000000E+03 0.  0.
<mgrwt>
<rscale>  0 0.62986693E+03</rscale>
<asrwt>0</asrwt>
<pdfrwt beam="1">  1        2 0.71310074E-01 0.62986693E+03</pdfrwt>
<pdfrwt beam="2">  1       -2 0.32920015E-01 0.62986693E+03</pdfrwt>
<totfact> 0.58257087E+02</totfact>
</mgrwt>
</event>
<event>
 4    1  0.3213443E-005  0.7617808E+03  0.7818608E-02  0.9617047E-01
          2   -1    0    0  501    0  0.00000000000E+00  0.00000000000E+00  0.26549244628E+04  0.26549244628E+04  0.25500000000E-02 0.  1.
         -2   -1    0    0    0  501 -0.00000000000E+00 -0.00000000000E+00 -0.54644684137E+02  0.54644684196E+02  0.25500000000E-02 0. -1.
    5000001    1    1    2    0    0 -0.61169803712E+02 -0.30045329035E+03  0.18493144703E+04  0.18818084214E+04  0.16500000000E+03 0.  0.
   -5000001    1    1    2    0    0  0.61169803712E+02  0.30045329035E+03  0.75096530834E+03  0.82776072564E+03  0.16500000000E+03 0.  0.
<mgrwt>
<rscale>  0 0.76178083E+03</rscale>
<asrwt>0</asrwt>
<pdfrwt beam="1">  1        2 0.40844992E+00 0.76178083E+03</pdfrwt>
<pdfrwt beam="2">  1       -2 0.84068744E-02 0.76178083E+03</pdfrwt>
<totfact> 0.26738948E+02</totfact>
</mgrwt>
</event>
<event>
 4    1  0.3213443E-005  0.6032693E+03  0.7818608E-02  0.9898646E-01
         -2   -1    0    0    0  501 -0.00000000000E+00  0.00000000000E+00  0.18436236425E+03  0.18436236426E+03  0.25500000000E-02 0. -1.
          2   -1    0    0  501    0  0.00000000000E+00 -0.00000000000E+00 -0.49350352665E+03  0.49350352665E+03  0.25500000000E-02 0.  1.
    5000001    1    1    2    0    0  0.68230111229E+02 -0.15610054607E+03  0.54850718811E+02  0.24342623095E+03  0.16500000000E+03 0.  0.
   -5000001    1    1    2    0    0 -0.68230111229E+02  0.15610054607E+03 -0.36399188121E+03  0.43443965996E+03  0.16500000000E+03 0.  0.
<mgrwt>
<rscale>  0 0.60326935E+03</rscale>
<asrwt>0</asrwt>
<pdfrwt beam="1">  1        2 0.75923619E-01 0.60326935E+03</pdfrwt>
<pdfrwt beam="2">  1       -2 0.28363441E-01 0.60326935E+03</pdfrwt>
<totfact> 0.71517678E+02</totfact>
</mgrwt>
</event>
<event>
 4    1  0.3213443E-005  0.4850315E+03  0.7818608E-02  0.1017761E+00
          2   -1    0    0  501    0  0.00000000000E+00  0.00000000000E+00  0.23775000486E+04  0.23775000486E+04  0.25500000000E-02 0.  1.
         -2   -1    0    0    0  501 -0.00000000000E+00 -0.00000000000E+00 -0.24737704133E+02  0.24737704264E+02  0.25500000000E-02 0. -1.
    5000001    1    1    2    0    0  0.30293574299E+02 -0.16734220529E+03  0.14321931781E+04  0.14516622933E+04  0.16500000000E+03 0.  0.
   -5000001    1    1    2    0    0 -0.30293574299E+02  0.16734220529E+03  0.92056916641E+03  0.95057545964E+03  0.16500000000E+03 0.  0.
<mgrwt>
<rscale>  0 0.48503152E+03</rscale>
<asrwt>0</asrwt>
<pdfrwt beam="1">  1        2 0.36576906E+00 0.48503152E+03</pdfrwt>
<pdfrwt beam="2">  1       -2 0.38058025E-02 0.48503152E+03</pdfrwt>
<totfact> 0.13573263E+03</totfact>
</mgrwt>
</event>
<event>
 4    1  0.3213443E-005  0.6654743E+03  0.7818608E-02  0.9778168E-01
          2   -1    0    0  501    0  0.00000000000E+00  0.00000000000E+00  0.27202629095E+04  0.27202629095E+04  0.25500000000E-02 0.  1.
         -2   -1    0    0    0  501 -0.00000000000E+00 -0.00000000000E+00 -0.40699741717E+02  0.40699741797E+02  0.25500000000E-02 0. -1.
    5000001    1    1    2    0    0 -0.22863855811E+03  0.88166431490E+02  0.19749792424E+04  0.19969519067E+04  0.16500000000E+03 0.  0.
   -5000001    1    1    2    0    0  0.22863855811E+03 -0.88166431490E+02  0.70458392534E+03  0.76401074453E+03  0.16500000000E+03 0.  0.
<mgrwt>
<rscale>  0 0.66547426E+03</rscale>
<asrwt>0</asrwt>
<pdfrwt beam="1">  1        2 0.41850204E+00 0.66547426E+03</pdfrwt>
<pdfrwt beam="2">  1       -2 0.62614980E-02 0.66547426E+03</pdfrwt>
<totfact> 0.39516001E+02</totfact>
</mgrwt>
</event>
<event>
 4    1  0.3213443E-005  0.4558555E+03  0.7818608E-02  0.1025990E+00
          2   -1    0    0  501    0  0.00000000000E+00  0.00000000000E+00  0.14618819994E+04  0.14618819994E+04  0.25500000000E-02 0.  1.
         -2   -1    0    0    0  501 -0.00000000000E+00 -0.00000000000E+00 -0.35537104268E+02  0.35537104359E+02  0.25500000000E-02 0. -1.
    5000001    1    1    2    0    0 -0.13164451244E+03  0.31749520957E+02  0.45063580563E+03  0.49863407329E+03  0.16500000000E+03 0.  0.
   -5000001    1    1    2    0    0  0.13164451244E+03 -0.31749520957E+02  0.97570908947E+03  0.99878503043E+03  0.16500000000E+03 0.  0.
<mgrwt>
<rscale>  0 0.45585547E+03</rscale>
<asrwt>0</asrwt>
<pdfrwt beam="1">  1        2 0.22490491E+00 0.45585547E+03</pdfrwt>
<pdfrwt beam="2">  1       -2 0.54672471E-02 0.45585547E+03</pdfrwt>
<totfact> 0.24370172E+03</totfact>
</mgrwt>
</event>
<event>
 4    1  0.3213443E-005  0.7942703E+03  0.7818608E-02  0.9568348E-01
          2   -1    0    0  501    0  0.00000000000E+00  0.00000000000E+00  0.31493864524E+04  0.31493864525E+04  0.25500000000E-02 0.  1.
         -2   -1    0    0    0  501 -0.00000000000E+00 -0.00000000000E+00 -0.50078432786E+02  0.50078432851E+02  0.25500000000E-02 0. -1.
    5000001    1    1    2    0    0 -0.13199045073E+03  0.32510768061E+03  0.18955820350E+04  0.19348314486E+04  0.16500000000E+03 0.  0.
   -5000001    1    1    2    0    0  0.13199045073E+03 -0.32510768061E+03  0.12037259847E+04  0.12646334367E+04  0.16500000000E+03 0.  0.
<mgrwt>
<rscale>  0 0.79427033E+03</rscale>
<asrwt>0</asrwt>
<pdfrwt beam="1">  1        2 0.48452112E+00 0.79427033E+03</pdfrwt>
<pdfrwt beam="2">  1       -2 0.77043723E-02 0.79427033E+03</pdfrwt>
<totfact> 0.15429598E+02</totfact>
</mgrwt>
</event>
<event>
 4    1  0.3213443E-005  0.4035604E+03  0.7818608E-02  0.1042554E+00
         -2   -1    0    0    0  501 -0.00000000000E+00  0.00000000000E+00  0.47807368947E+02  0.47807369015E+02  0.25500000000E-02 0. -1.
          2   -1    0    0  501    0  0.00000000000E+00 -0.00000000000E+00 -0.85165196598E+03  0.85165196598E+03  0.25500000000E-02 0.  1.
    5000001    1    1    2    0    0 -0.81856172632E+02  0.52190251425E+02 -0.25980207048E+03  0.32271716900E+03  0.16500000000E+03 0.  0.
   -5000001    1    1    2    0    0  0.81856172632E+02 -0.52190251425E+02 -0.54404252655E+03  0.57674216599E+03  0.16500000000E+03 0.  0.
<mgrwt>
<rscale>  0 0.40356035E+03</rscale>
<asrwt>0</asrwt>
<pdfrwt beam="1">  1        2 0.13102337E+00 0.40356035E+03</pdfrwt>
<pdfrwt beam="2">  1       -2 0.73549805E-02 0.40356035E+03</pdfrwt>
<totfact> 0.35449165E+03</totfact>
</mgrwt>
</event>
<event>
 4    1  0.3213443E-005  0.7424099E+03  0.7818608E-02  0.9647334E-01
          2   -1    0    0  501    0  0.00000000000E+00  0.00000000000E+00  0.88133391829E+03  0.88133391830E+03  0.25500000000E-02 0.  1.
         -2   -1    0    0    0  501 -0.00000000000E+00 -0.00000000000E+00 -0.15634607434E+03  0.15634607436E+03  0.25500000000E-02 0. -1.
    5000001    1    1    2    0    0  0.19613451449E+03 -0.25561347237E+03  0.47742262351E+03  0.59913634214E+03  0.16500000000E+03 0.  0.
   -5000001    1    1    2    0    0 -0.19613451449E+03  0.25561347237E+03  0.24756522045E+03  0.43854365052E+03  0.16500000000E+03 0.  0.
<mgrwt>
<rscale>  0 0.74240986E+03</rscale>
<asrwt>0</asrwt>
<pdfrwt beam="1">  1        2 0.13558983E+00 0.74240986E+03</pdfrwt>
<pdfrwt beam="2">  1       -2 0.24053242E-01 0.74240986E+03</pdfrwt>
<totfact> 0.46665794E+02</totfact>
</mgrwt>
</event>
<event>
 4    1  0.3213443E-005  0.4374232E+03  0.7818608E-02  0.1031540E+00
         -2   -1    0    0    0  501 -0.00000000000E+00  0.00000000000E+00  0.47752303109E+02  0.47752303177E+02  0.25500000000E-02 0. -1.
          2   -1    0    0  501    0  0.00000000000E+00 -0.00000000000E+00 -0.10017266408E+04  0.10017266408E+04  0.25500000000E-02 0.  1.
    5000001    1    1    2    0    0 -0.51682724061E+02 -0.13312033483E+03 -0.51238103953E+03  0.55691243224E+03  0.16500000000E+03 0.  0.
   -5000001    1    1    2    0    0  0.51682724061E+02  0.13312033483E+03 -0.44159329820E+03  0.49256651178E+03  0.16500000000E+03 0.  0.
<mgrwt>
<rscale>  0 0.43742316E+03</rscale>
<asrwt>0</asrwt>
<pdfrwt beam="1">  1        2 0.15411178E+00 0.43742316E+03</pdfrwt>
<pdfrwt beam="2">  1       -2 0.73465089E-02 0.43742316E+03</pdfrwt>
<totfact> 0.28390572E+03</totfact>
</mgrwt>
</event>
<event>
 4    1  0.3213443E-005  0.5047768E+03  0.7818608E-02  0.1012540E+00
          2   -1    0    0  501    0  0.00000000000E+00  0.00000000000E+00  0.45858415733E+03  0.45858415734E+03  0.25500000000E-02 0.  1.
         -2   -1    0    0    0  501 -0.00000000000E+00 -0.00000000000E+00 -0.13890558793E+03  0.13890558795E+03  0.25500000000E-02 0. -1.
    5000001    1    1    2    0    0  0.44711587038E+02  0.18493726945E+03  0.14024667119E+03  0.28826211757E+03  0.16500000000E+03 0.  0.
   -5000001    1    1    2    0    0 -0.44711587038E+02 -0.18493726945E+03  0.17943189821E+03  0.30922762771E+03  0.16500000000E+03 0.  0.
<mgrwt>
<rscale>  0 0.50477679E+03</rscale>
<asrwt>0</asrwt>
<pdfrwt beam="1">  1        2 0.70551409E-01 0.50477679E+03</pdfrwt>
<pdfrwt beam="2">  1       -2 0.21370090E-01 0.50477679E+03</pdfrwt>
<totfact> 0.12919849E+03</totfact>
</mgrwt>
</event>
<event>
 4    1  0.3213443E-005  0.3841096E+03  0.7818608E-02  0.1049425E+00
         -2   -1    0    0    0  501 -0.00000000000E+00  0.00000000000E+00  0.20079127163E+02  0.20079127325E+02  0.25500000000E-02 0. -1.
          2   -1    0    0  501    0  0.00000000000E+00 -0.00000000000E+00 -0.18369849604E+04  0.18369849604E+04  0.25500000000E-02 0.  1.
    5000001    1    1    2    0    0  0.35894949302E+02 -0.90265446645E+02 -0.98077310268E+03  0.99928833536E+03  0.16500000000E+03 0.  0.
   -5000001    1    1    2    0    0 -0.35894949302E+02  0.90265446645E+02 -0.83613273057E+03  0.85777575238E+03  0.16500000000E+03 0.  0.
<mgrwt>
<rscale>  0 0.38410964E+03</rscale>
<asrwt>0</asrwt>
<pdfrwt beam="1">  1        2 0.28261294E+00 0.38410964E+03</pdfrwt>
<pdfrwt beam="2">  1       -2 0.30890979E-02 0.38410964E+03</pdfrwt>
<totfact> 0.36624557E+03</totfact>
</mgrwt>
</event>
<event>
 4    1  0.3213443E-005  0.3832012E+03  0.7818608E-02  0.1049757E+00
          2   -1    0    0  501    0  0.00000000000E+00  0.00000000000E+00  0.21778883889E+04  0.21778883889E+04  0.25500000000E-02 0.  1.
         -2   -1    0    0    0  501 -0.00000000000E+00 -0.00000000000E+00 -0.16856141384E+02  0.16856141577E+02  0.25500000000E-02 0. -1.
    5000001    1    1    2    0    0  0.35472389643E+02 -0.50279059818E+02  0.64812552048E+03  0.67162338002E+03  0.16500000000E+03 0.  0.
   -5000001    1    1    2    0    0 -0.35472389643E+02  0.50279059818E+02  0.15129067270E+04  0.15231211504E+04  0.16500000000E+03 0.  0.
<mgrwt>
<rscale>  0 0.38320123E+03</rscale>
<asrwt>0</asrwt>
<pdfrwt beam="1">  1        2 0.33505969E+00 0.38320123E+03</pdfrwt>
<pdfrwt beam="2">  1       -2 0.25932530E-02 0.38320123E+03</pdfrwt>
<totfact> 0.31323016E+03</totfact>
</mgrwt>
</event>
<event>
 4    1  0.3213443E-005  0.5279545E+03  0.7818608E-02  0.1006729E+00
          2   -1    0    0  501    0  0.00000000000E+00  0.00000000000E+00  0.75777739817E+03  0.75777739817E+03  0.25500000000E-02 0.  1.
         -2   -1    0    0    0  501 -0.00000000000E+00 -0.00000000000E+00 -0.91958377249E+02  0.91958377285E+02  0.25500000000E-02 0. -1.
    5000001    1    1    2    0    0 -0.13909626190E+01 -0.19028096064E+03  0.46015266578E+03  0.52457054300E+03  0.16500000000E+03 0.  0.
   -5000001    1    1    2    0    0  0.13909626190E+01  0.19028096064E+03  0.20566635514E+03  0.32516523245E+03  0.16500000000E+03 0.  0.
<mgrwt>
<rscale>  0 0.52795447E+03</rscale>
<asrwt>0</asrwt>
<pdfrwt beam="1">  1        2 0.11658114E+00 0.52795447E+03</pdfrwt>
<pdfrwt beam="2">  1       -2 0.14147443E-01 0.52795447E+03</pdfrwt>
<totfact> 0.14351860E+03</totfact>
</mgrwt>
</event>
<event>
 4    1  0.3213443E-005  0.4726067E+03  0.7818608E-02  0.1021187E+00
          2   -1    0    0  501    0  0.00000000000E+00  0.00000000000E+00  0.31729506198E+04  0.31729506198E+04  0.25500000000E-02 0.  1.
         -2   -1    0    0    0  501 -0.00000000000E+00 -0.00000000000E+00 -0.17598530874E+02  0.17598531058E+02  0.25500000000E-02 0. -1.
    5000001    1    1    2    0    0  0.43191928859E+01 -0.16321406430E+03  0.18763084761E+04  0.18906125949E+04  0.16500000000E+03 0.  0.
   -5000001    1    1    2    0    0 -0.43191928859E+01  0.16321406430E+03  0.12790436128E+04  0.12999365560E+04  0.16500000000E+03 0.  0.
<mgrwt>
<rscale>  0 0.47260669E+03</rscale>
<asrwt>0</asrwt>
<pdfrwt beam="1">  1        2 0.48814614E+00 0.47260669E+03</pdfrwt>
<pdfrwt beam="2">  1       -2 0.27074669E-02 0.47260669E+03</pdfrwt>
<totfact> 0.78255597E+02</totfact>
</mgrwt>
</event>
<event>
 4    1  0.3213443E-005  0.4624749E+03  0.7818608E-02  0.1024066E+00
          2   -1    0    0  501    0  0.00000000000E+00  0.00000000000E+00  0.30922947110E+04  0.30922947110E+04  0.25500000000E-02 0.  1.
         -2   -1    0    0    0  501 -0.00000000000E+00 -0.00000000000E+00 -0.17291609968E+02  0.17291610156E+02  0.25500000000E-02 0. -1.
    5000001    1    1    2    0    0  0.11753063279E+03  0.20388453060E+01  0.22870809991E+04  0.22960361720E+04  0.16500000000E+03 0.  0.
   -5000001    1    1    2    0    0 -0.11753063279E+03 -0.20388453060E+01  0.78792210189E+03  0.81355014915E+03  0.16500000000E+03 0.  0.
<mgrwt>
<rscale>  0 0.46247488E+03</rscale>
<asrwt>0</asrwt>
<pdfrwt beam="1">  1        2 0.47573778E+00 0.46247488E+03</pdfrwt>
<pdfrwt beam="2">  1       -2 0.26602470E-02 0.46247488E+03</pdfrwt>
<totfact> 0.90263310E+02</totfact>
</mgrwt>
</event>
<event>
 4    1  0.3213443E-005  0.3844737E+03  0.7818608E-02  0.1049293E+00
          2   -1    0    0  501    0  0.00000000000E+00  0.00000000000E+00  0.55161707596E+04  0.55161707596E+04  0.25500000000E-02 0.  1.
         -2   -1    0    0    0  501 -0.00000000000E+00 -0.00000000000E+00 -0.66993952858E+01  0.66993957711E+01  0.25500000000E-02 0. -1.
    5000001    1    1    2    0    0  0.57780541523E+02 -0.72163643524E+02  0.32489807591E+04  0.32544810885E+04  0.16500000000E+03 0.  0.
   -5000001    1    1    2    0    0 -0.57780541523E+02  0.72163643524E+02  0.22604906052E+04  0.22683890669E+04  0.16500000000E+03 0.  0.
<mgrwt>
<rscale>  0 0.38447372E+03</rscale>
<asrwt>0</asrwt>
<pdfrwt beam="1">  1        2 0.84864178E+00 0.38447372E+03</pdfrwt>
<pdfrwt beam="2">  1       -2 0.10306761E-02 0.38447372E+03</pdfrwt>
<totfact> 0.17418432E+01</totfact>
</mgrwt>
</event>
<event>
 4    1  0.3213443E-005  0.1399528E+04  0.7818608E-02  0.8954160E-01
         -2   -1    0    0    0  501 -0.00000000000E+00  0.00000000000E+00  0.33248508177E+03  0.33248508178E+03  0.25500000000E-02 0. -1.
          2   -1    0    0  501    0  0.00000000000E+00 -0.00000000000E+00 -0.14727575343E+04  0.14727575343E+04  0.25500000000E-02 0.  1.
    5000001    1    1    2    0    0 -0.53988011932E+03  0.41294694507E+03 -0.59747425794E+03  0.91988923876E+03  0.16500000000E+03 0.  0.
   -5000001    1    1    2    0    0  0.53988011932E+03 -0.41294694507E+03 -0.54279819458E+03  0.88535337731E+03  0.16500000000E+03 0.  0.
<mgrwt>
<rscale>  0 0.13995284E+04</rscale>
<asrwt>0</asrwt>
<pdfrwt beam="1">  1        2 0.22657808E+00 0.13995284E+04</pdfrwt>
<pdfrwt beam="2">  1       -2 0.51151552E-01 0.13995284E+04</pdfrwt>
<totfact> 0.46229194E+01</totfact>
</mgrwt>
</event>
<event>
 4    1  0.3213443E-005  0.3579477E+03  0.7818608E-02  0.1059399E+00
         -2   -1    0    0    0  501 -0.00000000000E+00  0.00000000000E+00  0.57748402373E+02  0.57748402429E+02  0.25500000000E-02 0. -1.
          2   -1    0    0  501    0  0.00000000000E+00 -0.00000000000E+00 -0.55467562332E+03  0.55467562332E+03  0.25500000000E-02 0.  1.
    5000001    1    1    2    0    0 -0.53297646290E+02  0.43739634302E+02 -0.26090014195E+03  0.31630314380E+03  0.16500000000E+03 0.  0.
   -5000001    1    1    2    0    0  0.53297646290E+02 -0.43739634302E+02 -0.23602707899E+03  0.29612088195E+03  0.16500000000E+03 0.  0.
<mgrwt>
<rscale>  0 0.35794766E+03</rscale>
<asrwt>0</asrwt>
<pdfrwt beam="1">  1        2 0.85334707E-01 0.35794766E+03</pdfrwt>
<pdfrwt beam="2">  1       -2 0.88843700E-02 0.35794766E+03</pdfrwt>
<totfact> 0.44491624E+03</totfact>
</mgrwt>
</event>
<event>
 4    1  0.3213443E-005  0.4350974E+03  0.7818608E-02  0.1032262E+00
         -2   -1    0    0    0  501 -0.00000000000E+00  0.00000000000E+00  0.87584953058E+02  0.87584953095E+02  0.25500000000E-02 0. -1.
          2   -1    0    0  501    0  0.00000000000E+00 -0.00000000000E+00 -0.54036031767E+03  0.54036031767E+03  0.25500000000E-02 0.  1.
    5000001    1    1    2    0    0 -0.69764440384E+02 -0.66665284941E+02 -0.37631062418E+03  0.42207348084E+03  0.16500000000E+03 0.  0.
   -5000001    1    1    2    0    0  0.69764440384E+02  0.66665284941E+02 -0.76464740425E+02  0.20587178992E+03  0.16500000000E+03 0.  0.
<mgrwt>
<rscale>  0 0.43509738E+03</rscale>
<asrwt>0</asrwt>
<pdfrwt beam="1">  1        2 0.83132355E-01 0.43509738E+03</pdfrwt>
<pdfrwt beam="2">  1       -2 0.13474608E-01 0.43509738E+03</pdfrwt>
<totfact> 0.23438860E+03</totfact>
</mgrwt>
</event>
<event>
 4    1  0.3213443E-005  0.4911956E+03  0.7818608E-02  0.1016103E+00
          2   -1    0    0  501    0  0.00000000000E+00  0.00000000000E+00  0.20004321956E+04  0.20004321956E+04  0.25500000000E-02 0.  1.
         -2   -1    0    0    0  501 -0.00000000000E+00 -0.00000000000E+00 -0.30152619641E+02  0.30152619749E+02  0.25500000000E-02 0. -1.
    5000001    1    1    2    0    0  0.15047648531E+03  0.10155571775E+03  0.10334443724E+04  0.10621624204E+04  0.16500000000E+03 0.  0.
   -5000001    1    1    2    0    0 -0.15047648531E+03 -0.10155571775E+03  0.93683520358E+03  0.96842239498E+03  0.16500000000E+03 0.  0.
<mgrwt>
<rscale>  0 0.49119557E+03</rscale>
<asrwt>0</asrwt>
<pdfrwt beam="1">  1        2 0.30775885E+00 0.49119557E+03</pdfrwt>
<pdfrwt beam="2">  1       -2 0.46388638E-02 0.49119557E+03</pdfrwt>
<totfact> 0.16060322E+03</totfact>
</mgrwt>
</event>
<event>
 4    1  0.3213443E-005  0.4485850E+03  0.7818608E-02  0.1028145E+00
          2   -1    0    0  501    0  0.00000000000E+00  0.00000000000E+00  0.64969414308E+03  0.64969414309E+03  0.25500000000E-02 0.  1.
         -2   -1    0    0    0  501 -0.00000000000E+00 -0.00000000000E+00 -0.77431997750E+02  0.77431997792E+02  0.25500000000E-02 0. -1.
    5000001    1    1    2    0    0 -0.17898984114E+02 -0.12307754524E+03  0.14469448026E+03  0.25224977382E+03  0.16500000000E+03 0.  0.
   -5000001    1    1    2    0    0  0.17898984114E+02  0.12307754524E+03  0.42756766508E+03  0.47487636706E+03  0.16500000000E+03 0.  0.
<mgrwt>
<rscale>  0 0.44858495E+03</rscale>
<asrwt>0</asrwt>
<pdfrwt beam="1">  1        2 0.99952941E-01 0.44858495E+03</pdfrwt>
<pdfrwt beam="2">  1       -2 0.11912616E-01 0.44858495E+03</pdfrwt>
<totfact> 0.23089116E+03</totfact>
</mgrwt>
</event>
<event>
 4    1  0.3213443E-005  0.4988792E+03  0.7818608E-02  0.1014072E+00
         -2   -1    0    0    0  501 -0.00000000000E+00  0.00000000000E+00  0.61576156331E+03  0.61576156331E+03  0.25500000000E-02 0. -1.
          2   -1    0    0  501    0  0.00000000000E+00 -0.00000000000E+00 -0.10104580353E+03  0.10104580356E+03  0.25500000000E-02 0.  1.
    5000001    1    1    2    0    0  0.10781791027E+03 -0.14957413729E+03  0.21196666651E+03  0.32580974822E+03  0.16500000000E+03 0.  0.
   -5000001    1    1    2    0    0 -0.10781791027E+03  0.14957413729E+03  0.30274909327E+03  0.39099761866E+03  0.16500000000E+03 0.  0.
<mgrwt>
<rscale>  0 0.49887923E+03</rscale>
<asrwt>0</asrwt>
<pdfrwt beam="1">  1        2 0.15545508E-01 0.49887923E+03</pdfrwt>
<pdfrwt beam="2">  1       -2 0.94732549E-01 0.49887923E+03</pdfrwt>
<totfact> 0.36419646E+02</totfact>
</mgrwt>
</event>
<event>
 4    1  0.3213443E-005  0.3508488E+03  0.7818608E-02  0.1062267E+00
          2   -1    0    0  501    0  0.00000000000E+00  0.00000000000E+00  0.13419410269E+04  0.13419410269E+04  0.25500000000E-02 0.  1.
         -2   -1    0    0    0  501 -0.00000000000E+00 -0.00000000000E+00 -0.22932251139E+02  0.22932251281E+02  0.25500000000E-02 0. -1.
    5000001    1    1    2    0    0  0.91790247630E+01  0.57792474578E+02  0.61609695020E+03  0.64048784271E+03  0.16500000000E+03 0.  0.
   -5000001    1    1    2    0    0 -0.91790247630E+01 -0.57792474578E+02  0.70291182557E+03  0.72438543548E+03  0.16500000000E+03 0.  0.
<mgrwt>
<rscale>  0 0.35084885E+03</rscale>
<asrwt>0</asrwt>
<pdfrwt beam="1">  1        2 0.20645244E+00 0.35084885E+03</pdfrwt>
<pdfrwt beam="2">  1       -2 0.35280391E-02 0.35084885E+03</pdfrwt>
<totfact> 0.55427237E+03</totfact>
</mgrwt>
</event>
<event>
 4    1  0.3213443E-005  0.5183821E+03  0.7818608E-02  0.1009089E+00
          2   -1    0    0  501    0  0.00000000000E+00  0.00000000000E+00  0.48493135549E+03  0.48493135550E+03  0.25500000000E-02 0.  1.
         -2   -1    0    0    0  501 -0.00000000000E+00 -0.00000000000E+00 -0.13853506853E+03  0.13853506855E+03  0.25500000000E-02 0. -1.
    5000001    1    1    2    0    0  0.17979774779E+03  0.86660271011E+02  0.18625001660E+03  0.31898479802E+03  0.16500000000E+03 0.  0.
   -5000001    1    1    2    0    0 -0.17979774779E+03 -0.86660271011E+02  0.16014627037E+03  0.30448162604E+03  0.16500000000E+03 0.  0.
<mgrwt>
<rscale>  0 0.51838209E+03</rscale>
<asrwt>0</asrwt>
<pdfrwt beam="1">  1        2 0.74604824E-01 0.51838209E+03</pdfrwt>
<pdfrwt beam="2">  1       -2 0.21313088E-01 0.51838209E+03</pdfrwt>
<totfact> 0.12182163E+03</totfact>
</mgrwt>
</event>
<event>
 4    1  0.3213443E-005  0.6636549E+03  0.7818608E-02  0.9781489E-01
          2   -1    0    0  501    0  0.00000000000E+00  0.00000000000E+00  0.94268054670E+03  0.94268054670E+03  0.25500000000E-02 0.  1.
         -2   -1    0    0    0  501 -0.00000000000E+00 -0.00000000000E+00 -0.11680465065E+03  0.11680465068E+03  0.25500000000E-02 0. -1.
    5000001    1    1    2    0    0  0.21978779839E+03 -0.59271193898E+02  0.13156244276E+03  0.31040848424E+03  0.16500000000E+03 0.  0.
   -5000001    1    1    2    0    0 -0.21978779839E+03  0.59271193898E+02  0.69431345329E+03  0.74907671314E+03  0.16500000000E+03 0.  0.
<mgrwt>
<rscale>  0 0.66365495E+03</rscale>
<asrwt>0</asrwt>
<pdfrwt beam="1">  1        2 0.14502778E+00 0.66365495E+03</pdfrwt>
<pdfrwt beam="2">  1       -2 0.17969946E-01 0.66365495E+03</pdfrwt>
<totfact> 0.71092527E+02</totfact>
</mgrwt>
</event>
<event>
 4    1  0.3213443E-005  0.4140919E+03  0.7818608E-02  0.1039007E+00
         -2   -1    0    0    0  501 -0.00000000000E+00  0.00000000000E+00  0.31098659730E+02  0.31098659835E+02  0.25500000000E-02 0. -1.
          2   -1    0    0  501    0  0.00000000000E+00 -0.00000000000E+00 -0.13784522620E+04  0.13784522620E+04  0.25500000000E-02 0.  1.
    5000001    1    1    2    0    0  0.11284380872E+03  0.48388035476E+02 -0.75479466062E+03  0.78231394392E+03  0.16500000000E+03 0.  0.
   -5000001    1    1    2    0    0 -0.11284380872E+03 -0.48388035476E+02 -0.59255894166E+03  0.62723697793E+03  0.16500000000E+03 0.  0.
<mgrwt>
<rscale>  0 0.41409186E+03</rscale>
<asrwt>0</asrwt>
<pdfrwt beam="1">  1        2 0.21206953E+00 0.41409186E+03</pdfrwt>
<pdfrwt beam="2">  1       -2 0.47844103E-02 0.41409186E+03</pdfrwt>
<totfact> 0.33303430E+03</totfact>
</mgrwt>
</event>
<event>
 4    1  0.3213443E-005  0.6793044E+03  0.7818608E-02  0.9753294E-01
          2   -1    0    0  501    0  0.00000000000E+00  0.00000000000E+00  0.52272785235E+03  0.52272785236E+03  0.25500000000E-02 0.  1.
         -2   -1    0    0    0  501 -0.00000000000E+00 -0.00000000000E+00 -0.22069536591E+03  0.22069536593E+03  0.25500000000E-02 0. -1.
    5000001    1    1    2    0    0 -0.15232172116E+03  0.78610768261E+02  0.41629453211E+03  0.47948691024E+03  0.16500000000E+03 0.  0.
   -5000001    1    1    2    0    0  0.15232172116E+03 -0.78610768261E+02 -0.11426204567E+03  0.26393630805E+03  0.16500000000E+03 0.  0.
<mgrwt>
<rscale>  0 0.67930439E+03</rscale>
<asrwt>0</asrwt>
<pdfrwt beam="1">  1        2 0.80419670E-01 0.67930439E+03</pdfrwt>
<pdfrwt beam="2">  1       -2 0.33953133E-01 0.67930439E+03</pdfrwt>
<totfact> 0.47789782E+02</totfact>
</mgrwt>
</event>
<event>
 4    1  0.3213443E-005  0.9344767E+03  0.7818608E-02  0.9383481E-01
         -2   -1    0    0    0  501 -0.00000000000E+00  0.00000000000E+00  0.11923645926E+03  0.11923645929E+03  0.25500000000E-02 0. -1.
          2   -1    0    0  501    0  0.00000000000E+00 -0.00000000000E+00 -0.18309138088E+04  0.18309138088E+04  0.25500000000E-02 0.  1.
    5000001    1    1    2    0    0 -0.20872113877E+02 -0.40228975007E+03 -0.50159564902E+03  0.66415049745E+03  0.16500000000E+03 0.  0.
   -5000001    1    1    2    0    0  0.20872113877E+02  0.40228975007E+03 -0.12100817005E+04  0.12859997706E+04  0.16500000000E+03 0.  0.
<mgrwt>
<rscale>  0 0.93447671E+03</rscale>
<asrwt>0</asrwt>
<pdfrwt beam="1">  1        2 0.28167903E+00 0.93447671E+03</pdfrwt>
<pdfrwt beam="2">  1       -2 0.18344072E-01 0.93447671E+03</pdfrwt>
<totfact> 0.20711152E+02</totfact>
</mgrwt>
</event>
<event>
 4    1  0.3213443E-005  0.3725326E+03  0.7818608E-02  0.1053729E+00
          2   -1    0    0  501    0  0.00000000000E+00  0.00000000000E+00  0.16724882350E+04  0.16724882350E+04  0.25500000000E-02 0.  1.
         -2   -1    0    0    0  501 -0.00000000000E+00 -0.00000000000E+00 -0.20744620557E+02  0.20744620714E+02  0.25500000000E-02 0. -1.
    5000001    1    1    2    0    0 -0.78427003087E+02  0.27825788184E+02  0.71975689540E+03  0.74310164701E+03  0.16500000000E+03 0.  0.
   -5000001    1    1    2    0    0  0.78427003087E+02 -0.27825788184E+02  0.93198671908E+03  0.95013120875E+03  0.16500000000E+03 0.  0.
<mgrwt>
<rscale>  0 0.37253260E+03</rscale>
<asrwt>0</asrwt>
<pdfrwt beam="1">  1        2 0.25730589E+00 0.37253260E+03</pdfrwt>
<pdfrwt beam="2">  1       -2 0.31914801E-02 0.37253260E+03</pdfrwt>
<totfact> 0.42673208E+03</totfact>
</mgrwt>
</event>
<event>
 4    1  0.3213443E-005  0.3912354E+03  0.7818608E-02  0.1046857E+00
          2   -1    0    0  501    0  0.00000000000E+00  0.00000000000E+00  0.10445165525E+03  0.10445165528E+03  0.25500000000E-02 0.  1.
         -2   -1    0    0    0  501 -0.00000000000E+00 -0.00000000000E+00 -0.36635410316E+03  0.36635410317E+03  0.25500000000E-02 0. -1.
    5000001    1    1    2    0    0 -0.43195286892E+02  0.94086830883E+02 -0.10931951504E+03  0.22336947178E+03  0.16500000000E+03 0.  0.
   -5000001    1    1    2    0    0  0.43195286892E+02 -0.94086830883E+02 -0.15258293287E+03  0.24743628667E+03  0.16500000000E+03 0.  0.
<mgrwt>
<rscale>  0 0.39123544E+03</rscale>
<asrwt>0</asrwt>
<pdfrwt beam="1">  1        2 0.16069486E-01 0.39123544E+03</pdfrwt>
<pdfrwt beam="2">  1       -2 0.56362169E-01 0.39123544E+03</pdfrwt>
<totfact> 0.10880505E+03</totfact>
</mgrwt>
</event>
<event>
 4    1  0.3213443E-005  0.8157018E+03  0.7818608E-02  0.9537563E-01
         -2   -1    0    0    0  501 -0.00000000000E+00  0.00000000000E+00  0.70324967170E+03  0.70324967171E+03  0.25500000000E-02 0. -1.
          2   -1    0    0  501    0  0.00000000000E+00 -0.00000000000E+00 -0.23653386567E+03  0.23653386569E+03  0.25500000000E-02 0.  1.
    5000001    1    1    2    0    0  0.77965807246E+02 -0.36472476641E+03  0.22896456745E+03  0.46770994802E+03  0.16500000000E+03 0.  0.
   -5000001    1    1    2    0    0 -0.77965807246E+02  0.36472476641E+03  0.23775123858E+03  0.47207358937E+03  0.16500000000E+03 0.  0.
<mgrwt>
<rscale>  0 0.81570182E+03</rscale>
<asrwt>0</asrwt>
<pdfrwt beam="1">  1        2 0.36389825E-01 0.81570182E+03</pdfrwt>
<pdfrwt beam="2">  1       -2 0.10819226E+00 0.81570182E+03</pdfrwt>
<totfact> 0.98570956E+01</totfact>
</mgrwt>
</event>
<event>
 4    1  0.3213443E-005  0.6211598E+03  0.7818608E-02  0.9862453E-01
         -2   -1    0    0    0  501 -0.00000000000E+00  0.00000000000E+00  0.29674753716E+04  0.29674753716E+04  0.25500000000E-02 0. -1.
          2   -1    0    0  501    0  0.00000000000E+00 -0.00000000000E+00 -0.32505702168E+02  0.32505702268E+02  0.25500000000E-02 0.  1.
    5000001    1    1    2    0    0 -0.25086652075E+03  0.58035124212E+02  0.17290351288E+04  0.17558728779E+04  0.16500000000E+03 0.  0.
   -5000001    1    1    2    0    0  0.25086652075E+03 -0.58035124212E+02  0.12059345406E+04  0.12441081959E+04  0.16500000000E+03 0.  0.
<mgrwt>
<rscale>  0 0.62115979E+03</rscale>
<asrwt>0</asrwt>
<pdfrwt beam="1">  1        2 0.50008760E-02 0.62115979E+03</pdfrwt>
<pdfrwt beam="2">  1       -2 0.45653478E+00 0.62115979E+03</pdfrwt>
<totfact> 0.56553255E+00</totfact>
</mgrwt>
</event>
<event>
 4    1  0.3213443E-005  0.5174830E+03  0.7818608E-02  0.1009314E+00
          2   -1    0    0  501    0  0.00000000000E+00  0.00000000000E+00  0.71485727721E+03  0.71485727722E+03  0.25500000000E-02 0.  1.
         -2   -1    0    0    0  501 -0.00000000000E+00 -0.00000000000E+00 -0.93651088452E+02  0.93651088487E+02  0.25500000000E-02 0. -1.
    5000001    1    1    2    0    0 -0.16696980161E+03  0.10661976291E+03  0.27653470127E+03  0.37807820554E+03  0.16500000000E+03 0.  0.
   -5000001    1    1    2    0    0  0.16696980161E+03 -0.10661976291E+03  0.34467148749E+03  0.43043016017E+03  0.16500000000E+03 0.  0.
<mgrwt>
<rscale>  0 0.51748299E+03</rscale>
<asrwt>0</asrwt>
<pdfrwt beam="1">  1        2 0.10997805E+00 0.51748299E+03</pdfrwt>
<pdfrwt beam="2">  1       -2 0.14407859E-01 0.51748299E+03</pdfrwt>
<totfact> 0.14990550E+03</totfact>
</mgrwt>
</event>
<event>
 4    1  0.3213443E-005  0.4774713E+03  0.7818608E-02  0.1019832E+00
         -2   -1    0    0    0  501 -0.00000000000E+00  0.00000000000E+00  0.16879848917E+03  0.16879848919E+03  0.25500000000E-02 0. -1.
          2   -1    0    0  501    0  0.00000000000E+00 -0.00000000000E+00 -0.33764940630E+03  0.33764940631E+03  0.25500000000E-02 0.  1.
    5000001    1    1    2    0    0  0.17158999979E+03 -0.17538895665E+02 -0.89045087296E+02  0.25476414281E+03  0.16500000000E+03 0.  0.
   -5000001    1    1    2    0    0 -0.17158999979E+03  0.17538895665E+02 -0.79805829834E+02  0.25168375269E+03  0.16500000000E+03 0.  0.
<mgrwt>
<rscale>  0 0.47747130E+03</rscale>
<asrwt>0</asrwt>
<pdfrwt beam="1">  1        2 0.51946063E-01 0.47747130E+03</pdfrwt>
<pdfrwt beam="2">  1       -2 0.25968998E-01 0.47747130E+03</pdfrwt>
<totfact> 0.12848639E+03</totfact>
</mgrwt>
</event>
<event>
 4    1  0.3213443E-005  0.1513364E+04  0.7818608E-02  0.8875614E-01
         -2   -1    0    0    0  501 -0.00000000000E+00  0.00000000000E+00  0.44847079179E+03  0.44847079180E+03  0.25500000000E-02 0.  1.
          2   -1    0    0  501    0  0.00000000000E+00 -0.00000000000E+00 -0.12767112979E+04  0.12767112979E+04  0.25500000000E-02 0. -1.
    5000001    1    1    2    0    0  0.64792119163E+03 -0.30326193463E+03 -0.62299548454E+03  0.96286969280E+03  0.16500000000E+03 0.  0.
   -5000001    1    1    2    0    0 -0.64792119163E+03  0.30326193463E+03 -0.20524502156E+03  0.76231239688E+03  0.16500000000E+03 0.  0.
<mgrwt>
<rscale>  0 0.15133641E+04</rscale>
<asrwt>0</asrwt>
<pdfrwt beam="1">  1        2 0.19641712E+00 0.15133641E+04</pdfrwt>
<pdfrwt beam="2">  1       -2 0.68995507E-01 0.15133641E+04</pdfrwt>
<totfact> 0.31590117E+01</totfact>
</mgrwt>
</event>
<event>
 4    1  0.3213443E-005  0.5000621E+03  0.7818608E-02  0.1013763E+00
          2   -1    0    0  501    0  0.00000000000E+00  0.00000000000E+00  0.10999322644E+04  0.10999322644E+04  0.25500000000E-02 0.  1.
         -2   -1    0    0    0  501 -0.00000000000E+00 -0.00000000000E+00 -0.56835803134E+02  0.56835803191E+02  0.25500000000E-02 0. -1.
    5000001    1    1    2    0    0 -0.17735768398E+03 -0.45707887030E+02  0.61819593426E+03  0.66553450109E+03  0.16500000000E+03 0.  0.
   -5000001    1    1    2    0    0  0.17735768398E+03  0.45707887030E+02  0.42490052697E+03  0.49123356647E+03  0.16500000000E+03 0.  0.
<mgrwt>
<rscale>  0 0.50006213E+03</rscale>
<asrwt>0</asrwt>
<pdfrwt beam="1">  1        2 0.16922033E+00 0.50006213E+03</pdfrwt>
<pdfrwt beam="2">  1       -2 0.87439707E-02 0.50006213E+03</pdfrwt>
<totfact> 0.18745230E+03</totfact>
</mgrwt>
</event>
<event>
 4    1  0.3213443E-005  0.4009446E+03  0.7818608E-02  0.1043453E+00
          2   -1    0    0  501    0  0.00000000000E+00  0.00000000000E+00  0.19607781678E+03  0.19607781680E+03  0.25500000000E-02 0.  1.
         -2   -1    0    0    0  501 -0.00000000000E+00 -0.00000000000E+00 -0.20496527492E+03  0.20496527494E+03  0.25500000000E-02 0. -1.
    5000001    1    1    2    0    0  0.13839144731E+02 -0.86232685519E+02 -0.77513337899E+02  0.20214083093E+03  0.16500000000E+03 0.  0.
   -5000001    1    1    2    0    0 -0.13839144731E+02  0.86232685519E+02  0.68625879761E+02  0.19890226080E+03  0.16500000000E+03 0.  0.
<mgrwt>
<rscale>  0 0.40094460E+03</rscale>
<asrwt>0</asrwt>
<pdfrwt beam="1">  1        2 0.30165818E-01 0.40094460E+03</pdfrwt>
<pdfrwt beam="2">  1       -2 0.31533119E-01 0.40094460E+03</pdfrwt>
<totfact> 0.16376443E+03</totfact>
</mgrwt>
</event>
<event>
 4    1  0.3213443E-005  0.6692866E+03  0.7818608E-02  0.9771247E-01
          2   -1    0    0  501    0  0.00000000000E+00  0.00000000000E+00  0.28747346198E+03  0.28747346199E+03  0.25500000000E-02 0.  1.
         -2   -1    0    0    0  501 -0.00000000000E+00 -0.00000000000E+00 -0.38955293258E+03  0.38955293259E+03  0.25500000000E-02 0. -1.
    5000001    1    1    2    0    0 -0.18766613901E+03  0.21827030178E+03 -0.69394097781E+01  0.33186391756E+03  0.16500000000E+03 0.  0.
   -5000001    1    1    2    0    0  0.18766613901E+03 -0.21827030178E+03 -0.95140060828E+02  0.34516247702E+03  0.16500000000E+03 0.  0.
<mgrwt>
<rscale>  0 0.66928658E+03</rscale>
<asrwt>0</asrwt>
<pdfrwt beam="1">  1        2 0.44226686E-01 0.66928658E+03</pdfrwt>
<pdfrwt beam="2">  1       -2 0.59931221E-01 0.66928658E+03</pdfrwt>
<totfact> 0.30190287E+02</totfact>
</mgrwt>
</event>
<event>
 4    1  0.3213443E-005  0.5368285E+03  0.7818608E-02  0.1004589E+00
         -2   -1    0    0    0  501 -0.00000000000E+00  0.00000000000E+00  0.83674639311E+02  0.83674639350E+02  0.25500000000E-02 0. -1.
          2   -1    0    0  501    0  0.00000000000E+00 -0.00000000000E+00 -0.86102808220E+03  0.86102808220E+03  0.25500000000E-02 0.  1.
    5000001    1    1    2    0    0 -0.18061534788E+03 -0.45740723377E+02 -0.56559503702E+03  0.61792949725E+03  0.16500000000E+03 0.  0.
   -5000001    1    1    2    0    0  0.18061534788E+03  0.45740723377E+02 -0.21175840586E+03  0.32677322430E+03  0.16500000000E+03 0.  0.
<mgrwt>
<rscale>  0 0.53682852E+03</rscale>
<asrwt>0</asrwt>
<pdfrwt beam="1">  1        2 0.13246585E+00 0.53682852E+03</pdfrwt>
<pdfrwt beam="2">  1       -2 0.12873022E-01 0.53682852E+03</pdfrwt>
<totfact> 0.14192498E+03</totfact>
</mgrwt>
</event>
<event>
 4    1  0.3213443E-005  0.4005602E+03  0.7818608E-02  0.1043586E+00
          2   -1    0    0  501    0  0.00000000000E+00  0.00000000000E+00  0.13330303767E+04  0.13330303767E+04  0.25500000000E-02 0.  1.
         -2   -1    0    0    0  501 -0.00000000000E+00 -0.00000000000E+00 -0.30090918829E+02  0.30090918937E+02  0.25500000000E-02 0. -1.
    5000001    1    1    2    0    0  0.70567482016E+01 -0.10957849050E+03  0.74950235939E+03  0.77526513530E+03  0.16500000000E+03 0.  0.
   -5000001    1    1    2    0    0 -0.70567482016E+01  0.10957849050E+03  0.55343709845E+03  0.58785616031E+03  0.16500000000E+03 0.  0.
<mgrwt>
<rscale>  0 0.40056015E+03</rscale>
<asrwt>0</asrwt>
<pdfrwt beam="1">  1        2 0.20508154E+00 0.40056015E+03</pdfrwt>
<pdfrwt beam="2">  1       -2 0.46293734E-02 0.40056015E+03</pdfrwt>
<totfact> 0.37129745E+03</totfact>
</mgrwt>
</event>
<event>
 4    1  0.3213443E-005  0.6437657E+03  0.7818608E-02  0.9818548E-01
          2   -1    0    0  501    0  0.00000000000E+00  0.00000000000E+00  0.15720712661E+04  0.15720712661E+04  0.25500000000E-02 0.  1.
         -2   -1    0    0    0  501 -0.00000000000E+00 -0.00000000000E+00 -0.65905779086E+02  0.65905779135E+02  0.25500000000E-02 0. -1.
    5000001    1    1    2    0    0  0.19135805357E+03 -0.19296263343E+03  0.88108997984E+03  0.93669473957E+03  0.16500000000E+03 0.  0.
   -5000001    1    1    2    0    0 -0.19135805357E+03  0.19296263343E+03  0.62507550714E+03  0.70128230563E+03  0.16500000000E+03 0.  0.
<mgrwt>
<rscale>  0 0.64376574E+03</rscale>
<asrwt>0</asrwt>
<pdfrwt beam="1">  1        2 0.24185713E+00 0.64376574E+03</pdfrwt>
<pdfrwt beam="2">  1       -2 0.10139350E-01 0.64376574E+03</pdfrwt>
<totfact> 0.79066063E+02</totfact>
</mgrwt>
</event>
<event>
 4    1  0.3213443E-005  0.6113571E+03  0.7818608E-02  0.9882120E-01
         -2   -1    0    0    0  501 -0.00000000000E+00  0.00000000000E+00  0.10019085003E+03  0.10019085006E+03  0.25500000000E-02 0. -1.
          2   -1    0    0  501    0  0.00000000000E+00 -0.00000000000E+00 -0.93261390017E+03  0.93261390017E+03  0.25500000000E-02 0.  1.
    5000001    1    1    2    0    0  0.21643763393E+03  0.91634942149E+02 -0.23925382249E+03  0.37377747870E+03  0.16500000000E+03 0.  0.
   -5000001    1    1    2    0    0 -0.21643763393E+03 -0.91634942149E+02 -0.59316922764E+03  0.65902727154E+03  0.16500000000E+03 0.  0.
<mgrwt>
<rscale>  0 0.61135711E+03</rscale>
<asrwt>0</asrwt>
<pdfrwt beam="1">  1        2 0.14347906E+00 0.61135711E+03</pdfrwt>
<pdfrwt beam="2">  1       -2 0.15413978E-01 0.61135711E+03</pdfrwt>
<totfact> 0.93922788E+02</totfact>
</mgrwt>
</event>
<event>
 4    1  0.3213443E-005  0.5435837E+03  0.7818608E-02  0.1002990E+00
         -2   -1    0    0    0  501 -0.00000000000E+00  0.00000000000E+00  0.45242132953E+02  0.45242133025E+02  0.25500000000E-02 0. -1.
          2   -1    0    0  501    0  0.00000000000E+00 -0.00000000000E+00 -0.16327882382E+04  0.16327882382E+04  0.25500000000E-02 0.  1.
    5000001    1    1    2    0    0  0.54064473344E+02 -0.20909085295E+03 -0.78769982118E+03  0.83326944043E+03  0.16500000000E+03 0.  0.
   -5000001    1    1    2    0    0 -0.54064473344E+02  0.20909085295E+03 -0.79984628407E+03  0.84476093080E+03  0.16500000000E+03 0.  0.
<mgrwt>
<rscale>  0 0.54358375E+03</rscale>
<asrwt>0</asrwt>
<pdfrwt beam="1">  1        2 0.25119814E+00 0.54358375E+03</pdfrwt>
<pdfrwt beam="2">  1       -2 0.69603294E-02 0.54358375E+03</pdfrwt>
<totfact> 0.13439615E+03</totfact>
</mgrwt>
</event>
<event>
 4    1  0.3213443E-005  0.4860933E+03  0.7818608E-02  0.1017474E+00
         -2   -1    0    0    0  501 -0.00000000000E+00  0.00000000000E+00  0.82999617252E+02  0.82999617291E+02  0.25500000000E-02 0. -1.
          2   -1    0    0  501    0  0.00000000000E+00 -0.00000000000E+00 -0.71171033836E+03  0.71171033836E+03  0.25500000000E-02 0.  1.
    5000001    1    1    2    0    0 -0.92226889748E+02  0.14408038159E+03 -0.39742539656E+03  0.46307332182E+03  0.16500000000E+03 0.  0.
   -5000001    1    1    2    0    0  0.92226889748E+02 -0.14408038159E+03 -0.23128532455E+03  0.33163663383E+03  0.16500000000E+03 0.  0.
<mgrwt>
<rscale>  0 0.48609335E+03</rscale>
<asrwt>0</asrwt>
<pdfrwt beam="1">  1        2 0.10949389E+00 0.48609335E+03</pdfrwt>
<pdfrwt beam="2">  1       -2 0.12769172E-01 0.48609335E+03</pdfrwt>
<totfact> 0.18421436E+03</totfact>
</mgrwt>
</event>
<event>
 4    1  0.3213443E-005  0.7289694E+03  0.7818608E-02  0.9668934E-01
          2   -1    0    0  501    0  0.00000000000E+00  0.00000000000E+00  0.35822657558E+03  0.35822657559E+03  0.25500000000E-02 0.  1.
         -2   -1    0    0    0  501 -0.00000000000E+00 -0.00000000000E+00 -0.37085216980E+03  0.37085216980E+03  0.25500000000E-02 0. -1.
    5000001    1    1    2    0    0 -0.43231264571E+02 -0.22487496014E+03  0.22434358693E+03  0.36054505257E+03  0.16500000000E+03 0.  0.
   -5000001    1    1    2    0    0  0.43231264571E+02  0.22487496014E+03 -0.23696918115E+03  0.36853369283E+03  0.16500000000E+03 0.  0.
<mgrwt>
<rscale>  0 0.72896942E+03</rscale>
<asrwt>0</asrwt>
<pdfrwt beam="1">  1        2 0.55111781E-01 0.72896942E+03</pdfrwt>
<pdfrwt beam="2">  1       -2 0.57054180E-01 0.72896942E+03</pdfrwt>
<totfact> 0.26165840E+02</totfact>
</mgrwt>
</event>
<event>
 4    1  0.3213443E-005  0.8540190E+03  0.7818608E-02  0.9484959E-01
         -2   -1    0    0    0  501 -0.00000000000E+00  0.00000000000E+00  0.82344737590E+03  0.82344737590E+03  0.25500000000E-02 0. -1.
          2   -1    0    0  501    0  0.00000000000E+00 -0.00000000000E+00 -0.22143141090E+03  0.22143141091E+03  0.25500000000E-02 0.  1.
    5000001    1    1    2    0    0  0.27665167408E+03 -0.19017852775E+03  0.55296284838E+03  0.66760537212E+03  0.16500000000E+03 0.  0.
   -5000001    1    1    2    0    0 -0.27665167408E+03  0.19017852775E+03  0.49053116612E+02  0.37727341470E+03  0.16500000000E+03 0.  0.
<mgrwt>
<rscale>  0 0.85401900E+03</rscale>
<asrwt>0</asrwt>
<pdfrwt beam="1">  1        2 0.34066371E-01 0.85401900E+03</pdfrwt>
<pdfrwt beam="2">  1       -2 0.12668421E+00 0.85401900E+03</pdfrwt>
<totfact> 0.71839272E+01</totfact>
</mgrwt>
</event>
<event>
 4    1  0.3213443E-005  0.7732606E+03  0.7818608E-02  0.9599549E-01
         -2   -1    0    0    0  501 -0.00000000000E+00  0.00000000000E+00  0.57351837508E+02  0.57351837565E+02  0.25500000000E-02 0. -1.
          2   -1    0    0  501    0  0.00000000000E+00 -0.00000000000E+00 -0.26064199816E+04  0.26064199816E+04  0.25500000000E-02 0.  1.
    5000001    1    1    2    0    0 -0.33690355864E+03  0.92781540923E+02 -0.13160946913E+04  0.13716569026E+04  0.16500000000E+03 0.  0.
   -5000001    1    1    2    0    0  0.33690355864E+03 -0.92781540923E+02 -0.12329734529E+04  0.12921149166E+04  0.16500000000E+03 0.  0.
<mgrwt>
<rscale>  0 0.77326056E+03</rscale>
<asrwt>0</asrwt>
<pdfrwt beam="1">  1        2 0.40098760E+00 0.77326056E+03</pdfrwt>
<pdfrwt beam="2">  1       -2 0.88233616E-02 0.77326056E+03</pdfrwt>
<totfact> 0.26353677E+02</totfact>
</mgrwt>
</event>
<event>
 4    1  0.3213443E-005  0.5908322E+03  0.7818608E-02  0.9924611E-01
          2   -1    0    0  501    0  0.00000000000E+00  0.00000000000E+00  0.39404276767E+03  0.39404276768E+03  0.25500000000E-02 0. -1.
         -2   -1    0    0    0  501 -0.00000000000E+00 -0.00000000000E+00 -0.22147512808E+03  0.22147512810E+03  0.25500000000E-02 0.  1.
    5000001    1    1    2    0    0 -0.12241297541E+03 -0.16963649326E+03 -0.46657408971E+02  0.27048731987E+03  0.16500000000E+03 0.  0.
   -5000001    1    1    2    0    0  0.12241297541E+03  0.16963649326E+03  0.21922504856E+03  0.34503057591E+03  0.16500000000E+03 0.  0.
<mgrwt>
<rscale>  0 0.59083220E+03</rscale>
<asrwt>0</asrwt>
<pdfrwt beam="1">  1        2 0.60621964E-01 0.59083220E+03</pdfrwt>
<pdfrwt beam="2">  1       -2 0.34073097E-01 0.59083220E+03</pdfrwt>
<totfact> 0.65620426E+02</totfact>
</mgrwt>
</event>
<event>
 4    1  0.3213443E-005  0.3763491E+03  0.7818608E-02  0.1052291E+00
         -2   -1    0    0    0  501 -0.00000000000E+00  0.00000000000E+00  0.78486232282E+03  0.78486232283E+03  0.25500000000E-02 0. -1.
          2   -1    0    0  501    0  0.00000000000E+00 -0.00000000000E+00 -0.45115772954E+02  0.45115773026E+02  0.25500000000E-02 0.  1.
    5000001    1    1    2    0    0  0.86918144070E+02 -0.24226980356E+02  0.38432794033E+03  0.42787226606E+03  0.16500000000E+03 0.  0.
   -5000001    1    1    2    0    0 -0.86918144070E+02  0.24226980356E+02  0.35541860954E+03  0.40210582979E+03  0.16500000000E+03 0.  0.
<mgrwt>
<rscale>  0 0.37634915E+03</rscale>
<asrwt>0</asrwt>
<pdfrwt beam="1">  1        2 0.69408885E-02 0.37634915E+03</pdfrwt>
<pdfrwt beam="2">  1       -2 0.12074804E+00 0.37634915E+03</pdfrwt>
<totfact> 0.56164690E+02</totfact>
</mgrwt>
</event>
<event>
 4    1  0.3213443E-005  0.5285280E+03  0.7818608E-02  0.1006590E+00
          2   -1    0    0  501    0  0.00000000000E+00  0.00000000000E+00  0.99894672419E+02  0.99894672451E+02  0.25500000000E-02 0.  1.
         -2   -1    0    0    0  501 -0.00000000000E+00 -0.00000000000E+00 -0.69909093529E+03  0.69909093529E+03  0.25500000000E-02 0. -1.
    5000001    1    1    2    0    0 -0.14650552073E+03 -0.11816069417E+03 -0.42773483592E+03  0.49558844530E+03  0.16500000000E+03 0.  0.
   -5000001    1    1    2    0    0  0.14650552073E+03  0.11816069417E+03 -0.17146142695E+03  0.30339716245E+03  0.16500000000E+03 0.  0.
<mgrwt>
<rscale>  0 0.52852799E+03</rscale>
<asrwt>0</asrwt>
<pdfrwt beam="1">  1        2 0.15368412E-01 0.52852799E+03</pdfrwt>
<pdfrwt beam="2">  1       -2 0.10755245E+00 0.52852799E+03</pdfrwt>
<totfact> 0.27356162E+02</totfact>
</mgrwt>
</event>
<event>
 4    1  0.3213443E-005  0.3989021E+03  0.7818608E-02  0.1044160E+00
         -2   -1    0    0    0  501 -0.00000000000E+00  0.00000000000E+00  0.57014930655E+02  0.57014930712E+02  0.25500000000E-02 0. -1.
          2   -1    0    0  501    0  0.00000000000E+00 -0.00000000000E+00 -0.69772478882E+03  0.69772478883E+03  0.25500000000E-02 0.  1.
    5000001    1    1    2    0    0  0.10605054379E+03 -0.26388629154E+02 -0.27352342829E+03  0.33761389694E+03  0.16500000000E+03 0.  0.
   -5000001    1    1    2    0    0 -0.10605054379E+03  0.26388629154E+02 -0.36718642988E+03  0.41712582259E+03  0.16500000000E+03 0.  0.
<mgrwt>
<rscale>  0 0.39890215E+03</rscale>
<asrwt>0</asrwt>
<pdfrwt beam="1">  1        2 0.10734227E+00 0.39890215E+03</pdfrwt>
<pdfrwt beam="2">  1       -2 0.87715283E-02 0.39890215E+03</pdfrwt>
<totfact> 0.34618631E+03</totfact>
</mgrwt>
</event>
<event>
 4    1  0.3213443E-005  0.7478442E+03  0.7818608E-02  0.9638739E-01
          2   -1    0    0  501    0  0.00000000000E+00  0.00000000000E+00  0.24416038070E+04  0.24416038070E+04  0.25500000000E-02 0.  1.
         -2   -1    0    0    0  501 -0.00000000000E+00 -0.00000000000E+00 -0.57264706392E+02  0.57264706448E+02  0.25500000000E-02 0. -1.
    5000001    1    1    2    0    0 -0.13871095411E+03  0.14629308728E+03  0.29587927305E+03  0.39422321138E+03  0.16500000000E+03 0.  0.
   -5000001    1    1    2    0    0  0.13871095411E+03 -0.14629308728E+03  0.20884598276E+04  0.21046453021E+04  0.16500000000E+03 0.  0.
<mgrwt>
<rscale>  0 0.74784417E+03</rscale>
<asrwt>0</asrwt>
<pdfrwt beam="1">  1        2 0.37563127E+00 0.74784417E+03</pdfrwt>
<pdfrwt beam="2">  1       -2 0.88099568E-02 0.74784417E+03</pdfrwt>
<totfact> 0.32860505E+02</totfact>
</mgrwt>
</event>
<event>
 4    1  0.3213443E-005  0.5323796E+03  0.7818608E-02  0.1005657E+00
          2   -1    0    0  501    0  0.00000000000E+00  0.00000000000E+00  0.28278588946E+04  0.28278588946E+04  0.25500000000E-02 0.  1.
         -2   -1    0    0    0  501 -0.00000000000E+00 -0.00000000000E+00 -0.25056766520E+02  0.25056766650E+02  0.25500000000E-02 0. -1.
    5000001    1    1    2    0    0  0.41715774254E+02 -0.17265044383E+03  0.81233220808E+03  0.84773639645E+03  0.16500000000E+03 0.  0.
   -5000001    1    1    2    0    0 -0.41715774254E+02  0.17265044383E+03  0.19904699200E+04  0.20051792648E+04  0.16500000000E+03 0.  0.
<mgrwt>
<rscale>  0 0.53237956E+03</rscale>
<asrwt>0</asrwt>
<pdfrwt beam="1">  1        2 0.43505517E+00 0.53237956E+03</pdfrwt>
<pdfrwt beam="2">  1       -2 0.38548876E-02 0.53237956E+03</pdfrwt>
<totfact> 0.73526110E+02</totfact>
</mgrwt>
</event>
<event>
 4    1  0.3213443E-005  0.4990610E+03  0.7818608E-02  0.1014024E+00
         -2   -1    0    0    0  501 -0.00000000000E+00  0.00000000000E+00  0.22711344621E+03  0.22711344622E+03  0.25500000000E-02 0. -1.
          2   -1    0    0  501    0  0.00000000000E+00 -0.00000000000E+00 -0.27416019223E+03  0.27416019225E+03  0.25500000000E-02 0.  1.
    5000001    1    1    2    0    0 -0.16692446384E+03 -0.56646228520E+01 -0.10842387417E+03  0.25860510643E+03  0.16500000000E+03 0.  0.
   -5000001    1    1    2    0    0  0.16692446384E+03  0.56646228520E+01  0.61377128148E+02  0.24266853204E+03  0.16500000000E+03 0.  0.
<mgrwt>
<rscale>  0 0.49906098E+03</rscale>
<asrwt>0</asrwt>
<pdfrwt beam="1">  1        2 0.42178491E-01 0.49906098E+03</pdfrwt>
<pdfrwt beam="2">  1       -2 0.34940530E-01 0.49906098E+03</pdfrwt>
<totfact> 0.93504166E+02</totfact>
</mgrwt>
</event>
<event>
 4    1  0.3213443E-005  0.4596568E+03  0.7818608E-02  0.1024881E+00
          2   -1    0    0  501    0  0.00000000000E+00  0.00000000000E+00  0.61483043833E+03  0.61483043834E+03  0.25500000000E-02 0.  1.
         -2   -1    0    0    0  501 -0.00000000000E+00 -0.00000000000E+00 -0.85911658026E+02  0.85911658063E+02  0.25500000000E-02 0. -1.
    5000001    1    1    2    0    0  0.54671118163E+01 -0.14648303786E+03  0.16673814427E+03  0.27661124064E+03  0.16500000000E+03 0.  0.
   -5000001    1    1    2    0    0 -0.54671118163E+01  0.14648303786E+03  0.36218063604E+03  0.42413085577E+03  0.16500000000E+03 0.  0.
<mgrwt>
<rscale>  0 0.45965684E+03</rscale>
<asrwt>0</asrwt>
<pdfrwt beam="1">  1        2 0.94589298E-01 0.45965684E+03</pdfrwt>
<pdfrwt beam="2">  1       -2 0.13217178E-01 0.45965684E+03</pdfrwt>
<totfact> 0.20801923E+03</totfact>
</mgrwt>
</event>
<event>
 4    1  0.3213443E-005  0.8412685E+03  0.7818608E-02  0.9502132E-01
         -2   -1    0    0    0  501 -0.00000000000E+00  0.00000000000E+00  0.22877368105E+03  0.22877368106E+03  0.25500000000E-02 0. -1.
          2   -1    0    0  501    0  0.00000000000E+00 -0.00000000000E+00 -0.77339824245E+03  0.77339824245E+03  0.25500000000E-02 0.  1.
    5000001    1    1    2    0    0 -0.24346580078E+03 -0.23704539264E+03 -0.49275079970E+03  0.62088200564E+03  0.16500000000E+03 0.  0.
   -5000001    1    1    2    0    0  0.24346580078E+03  0.23704539264E+03 -0.51873761704E+02  0.38128991788E+03  0.16500000000E+03 0.  0.
<mgrwt>
<rscale>  0 0.84126848E+03</rscale>
<asrwt>0</asrwt>
<pdfrwt beam="1">  1        2 0.11898434E+00 0.84126848E+03</pdfrwt>
<pdfrwt beam="2">  1       -2 0.35195951E-01 0.84126848E+03</pdfrwt>
<totfact> 0.27409087E+02</totfact>
</mgrwt>
</event>
<event>
 4    1  0.3213443E-005  0.4380433E+03  0.7818608E-02  0.1031349E+00
          2   -1    0    0  501    0  0.00000000000E+00  0.00000000000E+00  0.59208919300E+03  0.59208919301E+03  0.25500000000E-02 0.  1.
         -2   -1    0    0    0  501 -0.00000000000E+00 -0.00000000000E+00 -0.81018999627E+02  0.81018999667E+02  0.25500000000E-02 0. -1.
    5000001    1    1    2    0    0  0.11730458225E+03 -0.12260719927E+02  0.12849808540E+03  0.24009883011E+03  0.16500000000E+03 0.  0.
   -5000001    1    1    2    0    0 -0.11730458225E+03  0.12260719927E+02  0.38257210797E+03  0.43300936256E+03  0.16500000000E+03 0.  0.
<mgrwt>
<rscale>  0 0.43804326E+03</rscale>
<asrwt>0</asrwt>
<pdfrwt beam="1">  1        2 0.91090646E-01 0.43804326E+03</pdfrwt>
<pdfrwt beam="2">  1       -2 0.12464461E-01 0.43804326E+03</pdfrwt>
<totfact> 0.23951383E+03</totfact>
</mgrwt>
</event>
<event>
 4    1  0.3213443E-005  0.4355922E+03  0.7818608E-02  0.1032108E+00
         -2   -1    0    0    0  501 -0.00000000000E+00  0.00000000000E+00  0.43866557547E+02  0.43866557621E+02  0.25500000000E-02 0. -1.
          2   -1    0    0  501    0  0.00000000000E+00 -0.00000000000E+00 -0.10813508987E+04  0.10813508987E+04  0.25500000000E-02 0.  1.
    5000001    1    1    2    0    0 -0.10254345472E+03 -0.78137650412E+02 -0.67350714339E+03  0.70530668841E+03  0.16500000000E+03 0.  0.
   -5000001    1    1    2    0    0  0.10254345472E+03  0.78137650412E+02 -0.36397719773E+03  0.41991076789E+03  0.16500000000E+03 0.  0.
<mgrwt>
<rscale>  0 0.43559220E+03</rscale>
<asrwt>0</asrwt>
<pdfrwt beam="1">  1        2 0.16636166E+00 0.43559220E+03</pdfrwt>
<pdfrwt beam="2">  1       -2 0.67487020E-02 0.43559220E+03</pdfrwt>
<totfact> 0.28983513E+03</totfact>
</mgrwt>
</event>
<event>
 4    1  0.3213443E-005  0.4432637E+03  0.7818608E-02  0.1029750E+00
         -2   -1    0    0    0  501 -0.00000000000E+00  0.00000000000E+00  0.17902926713E+03  0.17902926715E+03  0.25500000000E-02 0. -1.
          2   -1    0    0  501    0  0.00000000000E+00 -0.00000000000E+00 -0.27437234662E+03  0.27437234664E+03  0.25500000000E-02 0.  1.
    5000001    1    1    2    0    0  0.14396257070E+03  0.32746776203E+01 -0.82505290262E+02  0.23402578533E+03  0.16500000000E+03 0.  0.
   -5000001    1    1    2    0    0 -0.14396257070E+03 -0.32746776203E+01 -0.12837789236E+02  0.21937582845E+03  0.16500000000E+03 0.  0.
<mgrwt>
<rscale>  0 0.44326371E+03</rscale>
<asrwt>0</asrwt>
<pdfrwt beam="1">  1        2 0.42211130E-01 0.44326371E+03</pdfrwt>
<pdfrwt beam="2">  1       -2 0.27542964E-01 0.44326371E+03</pdfrwt>
<totfact> 0.14499975E+03</totfact>
</mgrwt>
</event>
<event>
 4    1  0.3213443E-005  0.4838963E+03  0.7818608E-02  0.1018070E+00
         -2   -1    0    0    0  501 -0.00000000000E+00  0.00000000000E+00  0.36543694139E+02  0.36543694228E+02  0.25500000000E-02 0. -1.
          2   -1    0    0  501    0  0.00000000000E+00 -0.00000000000E+00 -0.16018878173E+04  0.16018878173E+04  0.25500000000E-02 0.  1.
    5000001    1    1    2    0    0  0.10798293982E+03 -0.10177200651E+03 -0.45621575732E+03  0.50732206125E+03  0.16500000000E+03 0.  0.
   -5000001    1    1    2    0    0 -0.10798293982E+03  0.10177200651E+03 -0.11091283658E+04  0.11311094503E+04  0.16500000000E+03 0.  0.
<mgrwt>
<rscale>  0 0.48389626E+03</rscale>
<asrwt>0</asrwt>
<pdfrwt beam="1">  1        2 0.24644422E+00 0.48389626E+03</pdfrwt>
<pdfrwt beam="2">  1       -2 0.56221081E-02 0.48389626E+03</pdfrwt>
<totfact> 0.19557353E+03</totfact>
</mgrwt>
</event>
<event>
 4    1  0.3213443E-005  0.4048022E+03  0.7818608E-02  0.1042129E+00
          2   -1    0    0  501    0  0.00000000000E+00  0.00000000000E+00  0.87885178327E+03  0.87885178327E+03  0.25500000000E-02 0.  1.
         -2   -1    0    0    0  501 -0.00000000000E+00 -0.00000000000E+00 -0.46613337350E+02  0.46613337420E+02  0.25500000000E-02 0. -1.
    5000001    1    1    2    0    0 -0.18713584145E+02 -0.79990761030E+02  0.22494329295E+03  0.29081472646E+03  0.16500000000E+03 0.  0.
   -5000001    1    1    2    0    0  0.18713584145E+02  0.79990761030E+02  0.60729515297E+03  0.63465039424E+03  0.16500000000E+03 0.  0.
<mgrwt>
<rscale>  0 0.40480225E+03</rscale>
<asrwt>0</asrwt>
<pdfrwt beam="1">  1        2 0.13520796E+00 0.40480225E+03</pdfrwt>
<pdfrwt beam="2">  1       -2 0.71712831E-02 0.40480225E+03</pdfrwt>
<totfact> 0.35366507E+03</totfact>
</mgrwt>
</event>
<event>
 4    1  0.3213443E-005  0.6721235E+03  0.7818608E-02  0.9766129E-01
          2   -1    0    0  501    0  0.00000000000E+00  0.00000000000E+00  0.25033988897E+04  0.25033988897E+04  0.25500000000E-02 0.  1.
         -2   -1    0    0    0  501 -0.00000000000E+00 -0.00000000000E+00 -0.45113671999E+02  0.45113672071E+02  0.25500000000E-02 0. -1.
    5000001    1    1    2    0    0 -0.16827769251E+03 -0.20726615599E+03  0.77356829808E+03  0.83481108821E+03  0.16500000000E+03 0.  0.
   -5000001    1    1    2    0    0  0.16827769251E+03  0.20726615599E+03  0.16847169197E+04  0.17137014736E+04  0.16500000000E+03 0.  0.
<mgrwt>
<rscale>  0 0.67212355E+03</rscale>
<asrwt>0</asrwt>
<pdfrwt beam="1">  1        2 0.38513833E+00 0.67212355E+03</pdfrwt>
<pdfrwt beam="2">  1       -2 0.69405642E-02 0.67212355E+03</pdfrwt>
<totfact> 0.44690606E+02</totfact>
</mgrwt>
</event>
<event>
 4    1  0.3213443E-005  0.7455228E+03  0.7818608E-02  0.9642401E-01
          2   -1    0    0  501    0  0.00000000000E+00  0.00000000000E+00  0.11601329848E+04  0.11601329848E+04  0.25500000000E-02 0.  1.
         -2   -1    0    0    0  501 -0.00000000000E+00 -0.00000000000E+00 -0.11977166601E+03  0.11977166603E+03  0.25500000000E-02 0. -1.
    5000001    1    1    2    0    0  0.24136708088E+03 -0.15612296898E+03  0.22735070199E+03  0.40192759407E+03  0.16500000000E+03 0.  0.
   -5000001    1    1    2    0    0 -0.24136708088E+03  0.15612296898E+03  0.81301061679E+03  0.87797705675E+03  0.16500000000E+03 0.  0.
<mgrwt>
<rscale>  0 0.74552280E+03</rscale>
<asrwt>0</asrwt>
<pdfrwt beam="1">  1        2 0.17848201E+00 0.74552280E+03</pdfrwt>
<pdfrwt beam="2">  1       -2 0.18426409E-01 0.74552280E+03</pdfrwt>
<totfact> 0.49657705E+02</totfact>
</mgrwt>
</event>
<event>
 4    1  0.3213443E-005  0.1052572E+04  0.7818608E-02  0.9252693E-01
          2   -1    0    0  501    0  0.00000000000E+00  0.00000000000E+00  0.10241705357E+04  0.10241705357E+04  0.25500000000E-02 0.  1.
         -2   -1    0    0    0  501 -0.00000000000E+00 -0.00000000000E+00 -0.27044010485E+03  0.27044010487E+03  0.25500000000E-02 0. -1.
    5000001    1    1    2    0    0  0.37979478625E+03 -0.32473944531E+03  0.38573451678E+03  0.65246908313E+03  0.16500000000E+03 0.  0.
   -5000001    1    1    2    0    0 -0.37979478625E+03  0.32473944531E+03  0.36799591404E+03  0.64214155741E+03  0.16500000000E+03 0.  0.
<mgrwt>
<rscale>  0 0.10525717E+04</rscale>
<asrwt>0</asrwt>
<pdfrwt beam="1">  1        2 0.15756470E+00 0.10525717E+04</pdfrwt>
<pdfrwt beam="2">  1       -2 0.41606169E-01 0.10525717E+04</pdfrwt>
<totfact> 0.13235767E+02</totfact>
</mgrwt>
</event>
<event>
 4    1  0.3213443E-005  0.5838805E+03  0.7818608E-02  0.9939425E-01
         -2   -1    0    0    0  501 -0.00000000000E+00  0.00000000000E+00  0.35882006092E+02  0.35882006182E+02  0.25500000000E-02 0. -1.
          2   -1    0    0  501    0  0.00000000000E+00 -0.00000000000E+00 -0.23752602980E+04  0.23752602980E+04  0.25500000000E-02 0.  1.
    5000001    1    1    2    0    0 -0.22862630887E+03 -0.30849265150E+02 -0.14552663738E+04  0.14826486047E+04  0.16500000000E+03 0.  0.
   -5000001    1    1    2    0    0  0.22862630887E+03  0.30849265150E+02 -0.88411191816E+03  0.92849369954E+03  0.16500000000E+03 0.  0.
<mgrwt>
<rscale>  0 0.58388048E+03</rscale>
<asrwt>0</asrwt>
<pdfrwt beam="1">  1        2 0.36542454E+00 0.58388048E+03</pdfrwt>
<pdfrwt beam="2">  1       -2 0.55203105E-02 0.58388048E+03</pdfrwt>
<totfact> 0.76117822E+02</totfact>
</mgrwt>
</event>
<event>
 4    1  0.3213443E-005  0.4134749E+03  0.7818608E-02  0.1039211E+00
         -2   -1    0    0    0  501 -0.00000000000E+00  0.00000000000E+00  0.26318517208E+03  0.26318517209E+03  0.25500000000E-02 0. -1.
          2   -1    0    0  501    0  0.00000000000E+00 -0.00000000000E+00 -0.16239661055E+03  0.16239661057E+03  0.25500000000E-02 0.  1.
    5000001    1    1    2    0    0  0.65280052615E+02  0.10175838348E+03  0.81257706372E+02  0.22010013340E+03  0.16500000000E+03 0.  0.
   -5000001    1    1    2    0    0 -0.65280052615E+02 -0.10175838348E+03  0.19530855160E+02  0.20548164926E+03  0.16500000000E+03 0.  0.
<mgrwt>
<rscale>  0 0.41347493E+03</rscale>
<asrwt>0</asrwt>
<pdfrwt beam="1">  1        2 0.24984094E-01 0.41347493E+03</pdfrwt>
<pdfrwt beam="2">  1       -2 0.40490027E-01 0.41347493E+03</pdfrwt>
<totfact> 0.12620453E+03</totfact>
</mgrwt>
</event>
<event>
 4    1  0.3213443E-005  0.4644596E+03  0.7818608E-02  0.1023496E+00
          2   -1    0    0  501    0  0.00000000000E+00  0.00000000000E+00  0.51084289719E+03  0.51084289720E+03  0.25500000000E-02 0.  1.
         -2   -1    0    0    0  501 -0.00000000000E+00 -0.00000000000E+00 -0.10557196826E+03  0.10557196829E+03  0.25500000000E-02 0. -1.
    5000001    1    1    2    0    0  0.10710466066E+03  0.11952492152E+03  0.16177093967E+03  0.28134045590E+03  0.16500000000E+03 0.  0.
   -5000001    1    1    2    0    0 -0.10710466066E+03 -0.11952492152E+03  0.24349998925E+03  0.33507440959E+03  0.16500000000E+03 0.  0.
<mgrwt>
<rscale>  0 0.46445964E+03</rscale>
<asrwt>0</asrwt>
<pdfrwt beam="1">  1        2 0.78591215E-01 0.46445964E+03</pdfrwt>
<pdfrwt beam="2">  1       -2 0.16241841E-01 0.46445964E+03</pdfrwt>
<totfact> 0.18309705E+03</totfact>
</mgrwt>
</event>
<event>
 4    1  0.3213443E-005  0.4027218E+03  0.7818608E-02  0.1042841E+00
          2   -1    0    0  501    0  0.00000000000E+00  0.00000000000E+00  0.38507934458E+03  0.38507934459E+03  0.25500000000E-02 0.  1.
         -2   -1    0    0    0  501 -0.00000000000E+00 -0.00000000000E+00 -0.10529314828E+03  0.10529314831E+03  0.25500000000E-02 0. -1.
    5000001    1    1    2    0    0 -0.45261627748E+02 -0.87475970181E+02  0.21316012795E+03  0.28698937342E+03  0.16500000000E+03 0.  0.
   -5000001    1    1    2    0    0  0.45261627748E+02  0.87475970181E+02  0.66626068356E+02  0.20338311948E+03  0.16500000000E+03 0.  0.
<mgrwt>
<rscale>  0 0.40272182E+03</rscale>
<asrwt>0</asrwt>
<pdfrwt beam="1">  1        2 0.59242976E-01 0.40272182E+03</pdfrwt>
<pdfrwt beam="2">  1       -2 0.16198946E-01 0.40272182E+03</pdfrwt>
<totfact> 0.25209539E+03</totfact>
</mgrwt>
</event>
<event>
 4    1  0.3213443E-005  0.4744642E+03  0.7818608E-02  0.1020668E+00
         -2   -1    0    0    0  501 -0.00000000000E+00  0.00000000000E+00  0.30992579462E+02  0.30992579567E+02  0.25500000000E-02 0. -1.
          2   -1    0    0  501    0  0.00000000000E+00 -0.00000000000E+00 -0.18158885868E+04  0.18158885868E+04  0.25500000000E-02 0.  1.
    5000001    1    1    2    0    0 -0.11694217386E+03  0.96197249947E+02 -0.11970813898E+04  0.12178498416E+04  0.16500000000E+03 0.  0.
   -5000001    1    1    2    0    0  0.11694217386E+03 -0.96197249947E+02 -0.58781461753E+03  0.62903132474E+03  0.16500000000E+03 0.  0.
<mgrwt>
<rscale>  0 0.47446421E+03</rscale>
<asrwt>0</asrwt>
<pdfrwt beam="1">  1        2 0.27936739E+00 0.47446421E+03</pdfrwt>
<pdfrwt beam="2">  1       -2 0.47680906E-02 0.47446421E+03</pdfrwt>
<totfact> 0.19356596E+03</totfact>
</mgrwt>
</event>
<event>
 4    1  0.3213443E-005  0.5898892E+03  0.7818608E-02  0.9926608E-01
          2   -1    0    0  501    0  0.00000000000E+00  0.00000000000E+00  0.23976505563E+04  0.23976505563E+04  0.25500000000E-02 0.  1.
         -2   -1    0    0    0  501 -0.00000000000E+00 -0.00000000000E+00 -0.36282318753E+02  0.36282318843E+02  0.25500000000E-02 0. -1.
    5000001    1    1    2    0    0 -0.35669123588E+02 -0.20413643235E+03  0.17158573863E+04  0.17361841894E+04  0.16500000000E+03 0.  0.
   -5000001    1    1    2    0    0  0.35669123588E+02  0.20413643235E+03  0.64551085129E+03  0.69774868579E+03  0.16500000000E+03 0.  0.
<mgrwt>
<rscale>  0 0.58988922E+03</rscale>
<asrwt>0</asrwt>
<pdfrwt beam="1">  1        2 0.36886916E+00 0.58988922E+03</pdfrwt>
<pdfrwt beam="2">  1       -2 0.55818975E-02 0.58988922E+03</pdfrwt>
<totfact> 0.72662417E+02</totfact>
</mgrwt>
</event>
<event>
 4    1  0.3213443E-005  0.4975017E+03  0.7818608E-02  0.1014433E+00
         -2   -1    0    0    0  501 -0.00000000000E+00  0.00000000000E+00  0.17316975397E+02  0.17316975585E+02  0.25500000000E-02 0. -1.
          2   -1    0    0  501    0  0.00000000000E+00 -0.00000000000E+00 -0.35731976376E+04  0.35731976376E+04  0.25500000000E-02 0.  1.
    5000001    1    1    2    0    0  0.15984501234E+03 -0.71872537414E+02 -0.22307163698E+04  0.22436658869E+04  0.16500000000E+03 0.  0.
   -5000001    1    1    2    0    0 -0.15984501234E+03  0.71872537414E+02 -0.13251642924E+04  0.13468487263E+04  0.16500000000E+03 0.  0.
<mgrwt>
<rscale>  0 0.49750166E+03</rscale>
<asrwt>0</asrwt>
<pdfrwt beam="1">  1        2 0.54972213E+00 0.49750166E+03</pdfrwt>
<pdfrwt beam="2">  1       -2 0.26641529E-02 0.49750166E+03</pdfrwt>
<totfact> 0.43715896E+02</totfact>
</mgrwt>
</event>
<event>
 4    1  0.3213443E-005  0.7521580E+03  0.7818608E-02  0.9631971E-01
         -2   -1    0    0    0  501 -0.00000000000E+00  0.00000000000E+00  0.16536183795E+03  0.16536183797E+03  0.25500000000E-02 0. -1.
          2   -1    0    0  501    0  0.00000000000E+00 -0.00000000000E+00 -0.85530869102E+03  0.85530869102E+03  0.25500000000E-02 0.  1.
    5000001    1    1    2    0    0 -0.32052093489E+03  0.74406600960E+02 -0.24038478398E+03  0.43963604986E+03  0.16500000000E+03 0.  0.
   -5000001    1    1    2    0    0  0.32052093489E+03 -0.74406600960E+02 -0.44956206909E+03  0.58103447912E+03  0.16500000000E+03 0.  0.
<mgrwt>
<rscale>  0 0.75215801E+03</rscale>
<asrwt>0</asrwt>
<pdfrwt beam="1">  1        2 0.13158595E+00 0.75215801E+03</pdfrwt>
<pdfrwt beam="2">  1       -2 0.25440283E-01 0.75215801E+03</pdfrwt>
<totfact> 0.43937428E+02</totfact>
</mgrwt>
</event>
<event>
 4    1  0.3213443E-005  0.5193565E+03  0.7818608E-02  0.1008847E+00
         -2   -1    0    0    0  501 -0.00000000000E+00  0.00000000000E+00  0.27312812625E+03  0.27312812626E+03  0.25500000000E-02 0. -1.
          2   -1    0    0  501    0  0.00000000000E+00 -0.00000000000E+00 -0.24689068226E+03  0.24689068227E+03  0.25500000000E-02 0.  1.
    5000001    1    1    2    0    0 -0.18774335936E+03  0.17231554132E+02 -0.55256679880E+02  0.25655953717E+03  0.16500000000E+03 0.  0.
   -5000001    1    1    2    0    0  0.18774335936E+03 -0.17231554132E+02  0.81494123867E+02  0.26345927136E+03  0.16500000000E+03 0.  0.
<mgrwt>
<rscale>  0 0.51935648E+03</rscale>
<asrwt>0</asrwt>
<pdfrwt beam="1">  1        2 0.37983182E-01 0.51935648E+03</pdfrwt>
<pdfrwt beam="2">  1       -2 0.42019712E-01 0.51935648E+03</pdfrwt>
<totfact> 0.73617545E+02</totfact>
</mgrwt>
</event>
<event>
 4    1  0.3213443E-005  0.4113843E+03  0.7818608E-02  0.1039907E+00
          2   -1    0    0  501    0  0.00000000000E+00  0.00000000000E+00  0.11744292270E+03  0.11744292272E+03  0.25500000000E-02 0.  1.
         -2   -1    0    0    0  501 -0.00000000000E+00 -0.00000000000E+00 -0.36025380046E+03  0.36025380047E+03  0.25500000000E-02 0. -1.
    5000001    1    1    2    0    0 -0.64022369323E+02  0.10203883178E+03 -0.14921286371E+03  0.25298273787E+03  0.16500000000E+03 0.  0.
   -5000001    1    1    2    0    0  0.64022369323E+02 -0.10203883178E+03 -0.93598014050E+02  0.22471398532E+03  0.16500000000E+03 0.  0.
<mgrwt>
<rscale>  0 0.41138429E+03</rscale>
<asrwt>0</asrwt>
<pdfrwt beam="1">  1        2 0.18068142E-01 0.41138429E+03</pdfrwt>
<pdfrwt beam="2">  1       -2 0.55423661E-01 0.41138429E+03</pdfrwt>
<totfact> 0.98101541E+02</totfact>
</mgrwt>
</event>
<event>
 4    1  0.3213443E-005  0.4033297E+03  0.7818608E-02  0.1042633E+00
          2   -1    0    0  501    0  0.00000000000E+00  0.00000000000E+00  0.75686404655E+03  0.75686404655E+03  0.25500000000E-02 0.  1.
         -2   -1    0    0    0  501 -0.00000000000E+00 -0.00000000000E+00 -0.53733192253E+02  0.53733192314E+02  0.25500000000E-02 0. -1.
    5000001    1    1    2    0    0  0.51970646669E+01  0.11577467073E+03  0.34433656775E+03  0.39902813906E+03  0.16500000000E+03 0.  0.
   -5000001    1    1    2    0    0 -0.51970646669E+01 -0.11577467073E+03  0.35879428654E+03  0.41156909981E+03  0.16500000000E+03 0.  0.
<mgrwt>
<rscale>  0 0.40332975E+03</rscale>
<asrwt>0</asrwt>
<pdfrwt beam="1">  1        2 0.11644061E+00 0.40332975E+03</pdfrwt>
<pdfrwt beam="2">  1       -2 0.82666458E-02 0.40332975E+03</pdfrwt>
<totfact> 0.34360568E+03</totfact>
</mgrwt>
</event>
<event>
 4    1  0.3213443E-005  0.7561728E+03  0.7818608E-02  0.9625716E-01
         -2   -1    0    0    0  501 -0.00000000000E+00  0.00000000000E+00  0.10022205243E+04  0.10022205243E+04  0.25500000000E-02 0. -1.
          2   -1    0    0  501    0  0.00000000000E+00 -0.00000000000E+00 -0.14263259731E+03  0.14263259733E+03  0.25500000000E-02 0.  1.
    5000001    1    1    2    0    0  0.20897922155E+03 -0.21975657273E+03  0.66316302130E+03  0.74764661380E+03  0.16500000000E+03 0.  0.
   -5000001    1    1    2    0    0 -0.20897922155E+03  0.21975657273E+03  0.19642490571E+03  0.39720650785E+03  0.16500000000E+03 0.  0.
<mgrwt>
<rscale>  0 0.75617278E+03</rscale>
<asrwt>0</asrwt>
<pdfrwt beam="1">  1        2 0.21943477E-01 0.75617278E+03</pdfrwt>
<pdfrwt beam="2">  1       -2 0.15418777E+00 0.75617278E+03</pdfrwt>
<totfact> 0.71741357E+01</totfact>
</mgrwt>
</event>
<event>
 4    1  0.3213443E-005  0.5114982E+03  0.7818608E-02  0.1010821E+00
          2   -1    0    0  501    0  0.00000000000E+00  0.00000000000E+00  0.10354982993E+04  0.10354982993E+04  0.25500000000E-02 0.  1.
         -2   -1    0    0    0  501 -0.00000000000E+00 -0.00000000000E+00 -0.63165347781E+02  0.63165347832E+02  0.25500000000E-02 0. -1.
    5000001    1    1    2    0    0  0.59017719325E+02  0.16738015418E+03  0.66176442661E+03  0.70473850720E+03  0.16500000000E+03 0.  0.
   -5000001    1    1    2    0    0 -0.59017719325E+02 -0.16738015418E+03  0.31056852492E+03  0.39392513994E+03  0.16500000000E+03 0.  0.
<mgrwt>
<rscale>  0 0.51149823E+03</rscale>
<asrwt>0</asrwt>
<pdfrwt beam="1">  1        2 0.15930741E+00 0.51149823E+03</pdfrwt>
<pdfrwt beam="2">  1       -2 0.97177468E-02 0.51149823E+03</pdfrwt>
<totfact> 0.17320431E+03</totfact>
</mgrwt>
</event>
<event>
 4    1  0.3213443E-005  0.4476435E+03  0.7818608E-02  0.1028427E+00
          2   -1    0    0  501    0  0.00000000000E+00  0.00000000000E+00  0.14927711161E+03  0.14927711163E+03  0.25500000000E-02 0.  1.
         -2   -1    0    0    0  501 -0.00000000000E+00 -0.00000000000E+00 -0.33559184487E+03  0.33559184488E+03  0.25500000000E-02 0. -1.
    5000001    1    1    2    0    0 -0.60096593400E+02 -0.11973335273E+03 -0.17154624019E+02  0.21322982301E+03  0.16500000000E+03 0.  0.
   -5000001    1    1    2    0    0  0.60096593400E+02  0.11973335273E+03 -0.16916010924E+03  0.27163913350E+03  0.16500000000E+03 0.  0.
<mgrwt>
<rscale>  0 0.44764352E+03</rscale>
<asrwt>0</asrwt>
<pdfrwt beam="1">  1        2 0.22965710E-01 0.44764352E+03</pdfrwt>
<pdfrwt beam="2">  1       -2 0.51629514E-01 0.44764352E+03</pdfrwt>
<totfact> 0.85895177E+02</totfact>
</mgrwt>
</event>
<event>
 4    1  0.3213443E-005  0.4805604E+03  0.7818608E-02  0.1018981E+00
         -2   -1    0    0    0  501 -0.00000000000E+00  0.00000000000E+00  0.47291814097E+02  0.47291814165E+02  0.25500000000E-02 0. -1.
          2   -1    0    0  501    0  0.00000000000E+00 -0.00000000000E+00 -0.12208154722E+04  0.12208154722E+04  0.25500000000E-02 0.  1.
    5000001    1    1    2    0    0  0.24781375840E+02  0.15007957257E+03 -0.36019913316E+03  0.42438945583E+03  0.16500000000E+03 0.  0.
   -5000001    1    1    2    0    0 -0.24781375840E+02 -0.15007957257E+03 -0.81332452492E+03  0.84371783051E+03  0.16500000000E+03 0.  0.
<mgrwt>
<rscale>  0 0.48056042E+03</rscale>
<asrwt>0</asrwt>
<pdfrwt beam="1">  1        2 0.18781774E+00 0.48056042E+03</pdfrwt>
<pdfrwt beam="2">  1       -2 0.72756646E-02 0.48056042E+03</pdfrwt>
<totfact> 0.21300348E+03</totfact>
</mgrwt>
</event>
<event>
 4    1  0.3213443E-005  0.4401604E+03  0.7818608E-02  0.1030698E+00
          2   -1    0    0  501    0  0.00000000000E+00  0.00000000000E+00  0.89224363142E+03  0.89224363143E+03  0.25500000000E-02 0.  1.
         -2   -1    0    0    0  501 -0.00000000000E+00 -0.00000000000E+00 -0.54284842531E+02  0.54284842590E+02  0.25500000000E-02 0. -1.
    5000001    1    1    2    0    0 -0.90258141234E+02 -0.62742405137E+02  0.21353675533E+03  0.29138649135E+03  0.16500000000E+03 0.  0.
   -5000001    1    1    2    0    0  0.90258141234E+02  0.62742405137E+02  0.62442203356E+03  0.65514198267E+03  0.16500000000E+03 0.  0.
<mgrwt>
<rscale>  0 0.44016045E+03</rscale>
<asrwt>0</asrwt>
<pdfrwt beam="1">  1        2 0.13726825E+00 0.44016045E+03</pdfrwt>
<pdfrwt beam="2">  1       -2 0.83515145E-02 0.44016045E+03</pdfrwt>
<totfact> 0.27260440E+03</totfact>
</mgrwt>
</event>
<event>
 4    1  0.3213443E-005  0.3890799E+03  0.7818608E-02  0.1047628E+00
         -2   -1    0    0    0  501 -0.00000000000E+00  0.00000000000E+00  0.46440494947E+02  0.46440495017E+02  0.25500000000E-02 0. -1.
          2   -1    0    0  501    0  0.00000000000E+00 -0.00000000000E+00 -0.81493098589E+03  0.81493098589E+03  0.25500000000E-02 0.  1.
    5000001    1    1    2    0    0 -0.13324537220E+01 -0.89038256351E+02 -0.26939667349E+03  0.32822119708E+03  0.16500000000E+03 0.  0.
   -5000001    1    1    2    0    0  0.13324537220E+01  0.89038256351E+02 -0.49909381745E+03  0.53315028383E+03  0.16500000000E+03 0.  0.
<mgrwt>
<rscale>  0 0.38907993E+03</rscale>
<asrwt>0</asrwt>
<pdfrwt beam="1">  1        2 0.12537399E+00 0.38907993E+03</pdfrwt>
<pdfrwt beam="2">  1       -2 0.71446921E-02 0.38907993E+03</pdfrwt>
<totfact> 0.39296472E+03</totfact>
</mgrwt>
</event>
<event>
 4    1  0.3213443E-005  0.4581358E+03  0.7818608E-02  0.1025323E+00
         -2   -1    0    0    0  501 -0.00000000000E+00  0.00000000000E+00  0.76687648186E+02  0.76687648228E+02  0.25500000000E-02 0. -1.
          2   -1    0    0  501    0  0.00000000000E+00 -0.00000000000E+00 -0.68423142325E+03  0.68423142325E+03  0.25500000000E-02 0.  1.
    5000001    1    1    2    0    0 -0.43510124521E+02  0.51835443007E+02 -0.54254397136E+03  0.57110332248E+03  0.16500000000E+03 0.  0.
   -5000001    1    1    2    0    0  0.43510124521E+02 -0.51835443007E+02 -0.64999803701E+02  0.18981574900E+03  0.16500000000E+03 0.  0.
<mgrwt>
<rscale>  0 0.45813578E+03</rscale>
<asrwt>0</asrwt>
<pdfrwt beam="1">  1        2 0.10526637E+00 0.45813578E+03</pdfrwt>
<pdfrwt beam="2">  1       -2 0.11798100E-01 0.45813578E+03</pdfrwt>
<totfact> 0.22021343E+03</totfact>
</mgrwt>
</event>
<event>
 4    1  0.3213443E-005  0.3880789E+03  0.7818608E-02  0.1047988E+00
          2   -1    0    0  501    0  0.00000000000E+00  0.00000000000E+00  0.58971562061E+03  0.58971562062E+03  0.25500000000E-02 0.  1.
         -2   -1    0    0    0  501 -0.00000000000E+00 -0.00000000000E+00 -0.63846549607E+02  0.63846549658E+02  0.25500000000E-02 0. -1.
    5000001    1    1    2    0    0 -0.28287978698E+02 -0.81266135302E+02  0.17035651970E+03  0.25229097941E+03  0.16500000000E+03 0.  0.
   -5000001    1    1    2    0    0  0.28287978698E+02  0.81266135302E+02  0.35551255130E+03  0.40127119086E+03  0.16500000000E+03 0.  0.
<mgrwt>
<rscale>  0 0.38807890E+03</rscale>
<asrwt>0</asrwt>
<pdfrwt beam="1">  1        2 0.90725480E-01 0.38807890E+03</pdfrwt>
<pdfrwt beam="2">  1       -2 0.98225461E-02 0.38807890E+03</pdfrwt>
<totfact> 0.35355285E+03</totfact>
</mgrwt>
</event>
<event>
 4    1  0.3213443E-005  0.5232529E+03  0.7818608E-02  0.1007882E+00
         -2   -1    0    0    0  501 -0.00000000000E+00  0.00000000000E+00  0.52945225167E+02  0.52945225229E+02  0.25500000000E-02 0. -1.
          2   -1    0    0  501    0  0.00000000000E+00 -0.00000000000E+00 -0.12928154606E+04  0.12928154607E+04  0.25500000000E-02 0.  1.
    5000001    1    1    2    0    0  0.11124048695E+03  0.94985056039E+02 -0.25779013429E+03  0.33923054129E+03  0.16500000000E+03 0.  0.
   -5000001    1    1    2    0    0 -0.11124048695E+03 -0.94985056039E+02 -0.98208010119E+03  0.10065301446E+04  0.16500000000E+03 0.  0.
<mgrwt>
<rscale>  0 0.52325292E+03</rscale>
<asrwt>0</asrwt>
<pdfrwt beam="1">  1        2 0.19889466E+00 0.52325292E+03</pdfrwt>
<pdfrwt beam="2">  1       -2 0.81454202E-02 0.52325292E+03</pdfrwt>
<totfact> 0.16179018E+03</totfact>
</mgrwt>
</event>
<event>
 4    1  0.3213443E-005  0.4040831E+03  0.7818608E-02  0.1042375E+00
          2   -1    0    0  501    0  0.00000000000E+00  0.00000000000E+00  0.10736008967E+03  0.10736008970E+03  0.25500000000E-02 0.  1.
         -2   -1    0    0    0  501 -0.00000000000E+00 -0.00000000000E+00 -0.38022306198E+03  0.38022306199E+03  0.25500000000E-02 0. -1.
    5000001    1    1    2    0    0  0.10070748309E+03  0.33404758929E+02 -0.78088097860E+02  0.21114124679E+03  0.16500000000E+03 0.  0.
   -5000001    1    1    2    0    0 -0.10070748309E+03 -0.33404758929E+02 -0.19477487445E+03  0.27644190490E+03  0.16500000000E+03 0.  0.
<mgrwt>
<rscale>  0 0.40408307E+03</rscale>
<asrwt>0</asrwt>
<pdfrwt beam="1">  1        2 0.16516937E-01 0.40408307E+03</pdfrwt>
<pdfrwt beam="2">  1       -2 0.58495855E-01 0.40408307E+03</pdfrwt>
<totfact> 0.97549415E+02</totfact>
</mgrwt>
</event>
<event>
 4    1  0.3213443E-005  0.4849483E+03  0.7818608E-02  0.1017784E+00
         -2   -1    0    0    0  501 -0.00000000000E+00  0.00000000000E+00  0.11023418451E+03  0.11023418454E+03  0.25500000000E-02 0. -1.
          2   -1    0    0  501    0  0.00000000000E+00 -0.00000000000E+00 -0.53335277090E+03  0.53335277091E+03  0.25500000000E-02 0.  1.
    5000001    1    1    2    0    0 -0.10253615434E+03  0.69641790379E+02 -0.42617455977E+02  0.21072467693E+03  0.16500000000E+03 0.  0.
   -5000001    1    1    2    0    0  0.10253615434E+03 -0.69641790379E+02 -0.38050113041E+03  0.43286227852E+03  0.16500000000E+03 0.  0.
<mgrwt>
<rscale>  0 0.48494828E+03</rscale>
<asrwt>0</asrwt>
<pdfrwt beam="1">  1        2 0.82054271E-01 0.48494828E+03</pdfrwt>
<pdfrwt beam="2">  1       -2 0.16959106E-01 0.48494828E+03</pdfrwt>
<totfact> 0.16195033E+03</totfact>
</mgrwt>
</event>
<event>
 4    1  0.3213443E-005  0.5548960E+03  0.7818608E-02  0.1000367E+00
          2   -1    0    0  501    0  0.00000000000E+00  0.00000000000E+00  0.48802081346E+03  0.48802081347E+03  0.25500000000E-02 0.  1.
         -2   -1    0    0    0  501 -0.00000000000E+00 -0.00000000000E+00 -0.15773380664E+03  0.15773380666E+03  0.25500000000E-02 0. -1.
    5000001    1    1    2    0    0  0.12013902792E+01 -0.15130680304E+03  0.35585911143E+03  0.42042347600E+03  0.16500000000E+03 0.  0.
   -5000001    1    1    2    0    0 -0.12013902792E+01  0.15130680304E+03 -0.25572104609E+02  0.22533114414E+03  0.16500000000E+03 0.  0.
<mgrwt>
<rscale>  0 0.55489596E+03</rscale>
<asrwt>0</asrwt>
<pdfrwt beam="1">  1        2 0.75080124E-01 0.55489596E+03</pdfrwt>
<pdfrwt beam="2">  1       -2 0.24266740E-01 0.55489596E+03</pdfrwt>
<totfact> 0.96112549E+02</totfact>
</mgrwt>
</event>
<event>
 4    1  0.3213443E-005  0.4498753E+03  0.7818608E-02  0.1027759E+00
          2   -1    0    0  501    0  0.00000000000E+00  0.00000000000E+00  0.41103415758E+03  0.41103415759E+03  0.25500000000E-02 0.  1.
         -2   -1    0    0    0  501 -0.00000000000E+00 -0.00000000000E+00 -0.12309667333E+03  0.12309667335E+03  0.25500000000E-02 0. -1.
    5000001    1    1    2    0    0 -0.49118191205E+02 -0.13708307832E+03  0.88692038279E+02  0.23726703253E+03  0.16500000000E+03 0.  0.
   -5000001    1    1    2    0    0  0.49118191205E+02  0.13708307832E+03  0.19924544598E+03  0.29686379842E+03  0.16500000000E+03 0.  0.
<mgrwt>
<rscale>  0 0.44987526E+03</rscale>
<asrwt>0</asrwt>
<pdfrwt beam="1">  1        2 0.63236022E-01 0.44987526E+03</pdfrwt>
<pdfrwt beam="2">  1       -2 0.18937950E-01 0.44987526E+03</pdfrwt>
<totfact> 0.18004144E+03</totfact>
</mgrwt>
</event>
<event>
 4    1  0.3213443E-005  0.4588158E+03  0.7818608E-02  0.1025125E+00
         -2   -1    0    0    0  501 -0.00000000000E+00  0.00000000000E+00  0.90430486708E+02  0.90430486744E+02  0.25500000000E-02 0. -1.
          2   -1    0    0  501    0  0.00000000000E+00 -0.00000000000E+00 -0.58197160586E+03  0.58197160586E+03  0.25500000000E-02 0.  1.
    5000001    1    1    2    0    0  0.13094889264E+03 -0.30010384374E+02 -0.12008818178E+03  0.24432438899E+03  0.16500000000E+03 0.  0.
   -5000001    1    1    2    0    0 -0.13094889264E+03  0.30010384374E+02 -0.37145293737E+03  0.42807770362E+03  0.16500000000E+03 0.  0.
<mgrwt>
<rscale>  0 0.45881576E+03</rscale>
<asrwt>0</asrwt>
<pdfrwt beam="1">  1        2 0.89534091E-01 0.45881576E+03</pdfrwt>
<pdfrwt beam="2">  1       -2 0.13912383E-01 0.45881576E+03</pdfrwt>
<totfact> 0.20393853E+03</totfact>
</mgrwt>
</event>
<event>
 4    1  0.3213443E-005  0.9698753E+03  0.7818608E-02  0.9342216E-01
         -2   -1    0    0    0  501 -0.00000000000E+00  0.00000000000E+00  0.48720115356E+03  0.48720115357E+03  0.25500000000E-02 0. -1.
          2   -1    0    0  501    0  0.00000000000E+00 -0.00000000000E+00 -0.48268469235E+03  0.48268469236E+03  0.25500000000E-02 0.  1.
    5000001    1    1    2    0    0  0.32606148014E+03  0.27851454995E+03  0.15735051656E+03  0.48566514022E+03  0.16500000000E+03 0.  0.
   -5000001    1    1    2    0    0 -0.32606148014E+03 -0.27851454995E+03 -0.15283405535E+03  0.48422070571E+03  0.16500000000E+03 0.  0.
<mgrwt>
<rscale>  0 0.96987533E+03</rscale>
<asrwt>0</asrwt>
<pdfrwt beam="1">  1        2 0.74259183E-01 0.96987533E+03</pdfrwt>
<pdfrwt beam="2">  1       -2 0.74954024E-01 0.96987533E+03</pdfrwt>
<totfact> 0.10265436E+02</totfact>
</mgrwt>
</event>
<event>
 4    1  0.3213443E-005  0.8459957E+03  0.7818608E-02  0.9495727E-01
         -2   -1    0    0    0  501 -0.00000000000E+00  0.00000000000E+00  0.18854231227E+03  0.18854231229E+03  0.25500000000E-02 0. -1.
          2   -1    0    0  501    0  0.00000000000E+00 -0.00000000000E+00 -0.94900283569E+03  0.94900283570E+03  0.25500000000E-02 0.  1.
    5000001    1    1    2    0    0  0.37624359304E+03  0.66915252927E+02 -0.48143755360E+03  0.63643067996E+03  0.16500000000E+03 0.  0.
   -5000001    1    1    2    0    0 -0.37624359304E+03 -0.66915252927E+02 -0.27902296982E+03  0.50111446802E+03  0.16500000000E+03 0.  0.
<mgrwt>
<rscale>  0 0.84599572E+03</rscale>
<asrwt>0</asrwt>
<pdfrwt beam="1">  1        2 0.14600043E+00 0.84599572E+03</pdfrwt>
<pdfrwt beam="2">  1       -2 0.29006510E-01 0.84599572E+03</pdfrwt>
<totfact> 0.29773892E+02</totfact>
</mgrwt>
</event>
<event>
 4    1  0.3213443E-005  0.6006379E+03  0.7818608E-02  0.9904084E-01
         -2   -1    0    0    0  501 -0.00000000000E+00  0.00000000000E+00  0.72902308026E+02  0.72902308070E+02  0.25500000000E-02 0. -1.
          2   -1    0    0  501    0  0.00000000000E+00 -0.00000000000E+00 -0.12371552203E+04  0.12371552203E+04  0.25500000000E-02 0.  1.
    5000001    1    1    2    0    0  0.14845937807E+03  0.19993834884E+03 -0.64938606767E+03  0.71480262671E+03  0.16500000000E+03 0.  0.
   -5000001    1    1    2    0    0 -0.14845937807E+03 -0.19993834884E+03 -0.51486684458E+03  0.59525490163E+03  0.16500000000E+03 0.  0.
<mgrwt>
<rscale>  0 0.60063790E+03</rscale>
<asrwt>0</asrwt>
<pdfrwt beam="1">  1        2 0.19033156E+00 0.60063790E+03</pdfrwt>
<pdfrwt beam="2">  1       -2 0.11215741E-01 0.60063790E+03</pdfrwt>
<totfact> 0.10369024E+03</totfact>
</mgrwt>
</event>
<event>
 4    1  0.3213443E-005  0.5766761E+03  0.7818608E-02  0.9955013E-01
          2   -1    0    0  501    0  0.00000000000E+00  0.00000000000E+00  0.46422051543E+03  0.46422051544E+03  0.25500000000E-02 0.  1.
         -2   -1    0    0    0  501 -0.00000000000E+00 -0.00000000000E+00 -0.17909340866E+03  0.17909340868E+03  0.25500000000E-02 0. -1.
    5000001    1    1    2    0    0 -0.15248355109E+03 -0.17907772771E+03  0.11538041524E+03  0.30960895681E+03  0.16500000000E+03 0.  0.
   -5000001    1    1    2    0    0  0.15248355109E+03  0.17907772771E+03  0.16974669153E+03  0.33370496730E+03  0.16500000000E+03 0.  0.
<mgrwt>
<rscale>  0 0.57667611E+03</rscale>
<asrwt>0</asrwt>
<pdfrwt beam="1">  1        2 0.71418541E-01 0.57667611E+03</pdfrwt>
<pdfrwt beam="2">  1       -2 0.27552832E-01 0.57667611E+03</pdfrwt>
<totfact> 0.80906764E+02</totfact>
</mgrwt>
</event>
<event>
 4    1  0.3213443E-005  0.5064116E+03  0.7818608E-02  0.1012119E+00
          2   -1    0    0  501    0  0.00000000000E+00  0.00000000000E+00  0.39240267436E+03  0.39240267436E+03  0.25500000000E-02 0.  1.
         -2   -1    0    0    0  501 -0.00000000000E+00 -0.00000000000E+00 -0.16338618459E+03  0.16338618461E+03  0.25500000000E-02 0. -1.
    5000001    1    1    2    0    0  0.54684121400E+01 -0.19184001943E+03  0.10631883274E+03  0.27451992784E+03  0.16500000000E+03 0.  0.
   -5000001    1    1    2    0    0 -0.54684121400E+01  0.19184001943E+03  0.12269765703E+03  0.28126893114E+03  0.16500000000E+03 0.  0.
<mgrwt>
<rscale>  0 0.50641159E+03</rscale>
<asrwt>0</asrwt>
<pdfrwt beam="1">  1        2 0.60369641E-01 0.50641159E+03</pdfrwt>
<pdfrwt beam="2">  1       -2 0.25136336E-01 0.50641159E+03</pdfrwt>
<totfact> 0.11539619E+03</totfact>
</mgrwt>
</event>
<event>
 4    1  0.3213443E-005  0.4108605E+03  0.7818608E-02  0.1040083E+00
          2   -1    0    0  501    0  0.00000000000E+00  0.00000000000E+00  0.14831207942E+04  0.14831207942E+04  0.25500000000E-02 0.  1.
         -2   -1    0    0    0  501 -0.00000000000E+00 -0.00000000000E+00 -0.28454579182E+02  0.28454579296E+02  0.25500000000E-02 0. -1.
    5000001    1    1    2    0    0 -0.24963067467E+02 -0.11512055346E+03  0.60527508801E+03  0.63832501810E+03  0.16500000000E+03 0.  0.
   -5000001    1    1    2    0    0  0.24963067467E+02  0.11512055346E+03  0.84939112705E+03  0.87325035544E+03  0.16500000000E+03 0.  0.
<mgrwt>
<rscale>  0 0.41086045E+03</rscale>
<asrwt>0</asrwt>
<pdfrwt beam="1">  1        2 0.22817246E+00 0.41086045E+03</pdfrwt>
<pdfrwt beam="2">  1       -2 0.43776270E-02 0.41086045E+03</pdfrwt>
<totfact> 0.33421361E+03</totfact>
</mgrwt>
</event>
<event>
 4    1  0.3213443E-005  0.4858199E+03  0.7818608E-02  0.1017548E+00
          2   -1    0    0  501    0  0.00000000000E+00  0.00000000000E+00  0.37087651080E+03  0.37087651081E+03  0.25500000000E-02 0.  1.
         -2   -1    0    0    0  501 -0.00000000000E+00 -0.00000000000E+00 -0.15909675180E+03  0.15909675182E+03  0.25500000000E-02 0. -1.
    5000001    1    1    2    0    0  0.68775852863E+02  0.15339438740E+03  0.41165484694E+02  0.23912246476E+03  0.16500000000E+03 0.  0.
   -5000001    1    1    2    0    0 -0.68775852863E+02 -0.15339438740E+03  0.17061427431E+03  0.29085079787E+03  0.16500000000E+03 0.  0.
<mgrwt>
<rscale>  0 0.48581992E+03</rscale>
<asrwt>0</asrwt>
<pdfrwt beam="1">  1        2 0.57057924E-01 0.48581992E+03</pdfrwt>
<pdfrwt beam="2">  1       -2 0.24476424E-01 0.48581992E+03</pdfrwt>
<totfact> 0.12881213E+03</totfact>
</mgrwt>
</event>
<event>
 4    1  0.3213443E-005  0.4897201E+03  0.7818608E-02  0.1016497E+00
         -2   -1    0    0    0  501 -0.00000000000E+00  0.00000000000E+00  0.97114411446E+02  0.97114411480E+02  0.25500000000E-02 0. -1.
          2   -1    0    0  501    0  0.00000000000E+00 -0.00000000000E+00 -0.61737959052E+03  0.61737959052E+03  0.25500000000E-02 0.  1.
    5000001    1    1    2    0    0  0.78415911902E+02 -0.14484062648E+03 -0.36934799908E+03  0.43677317539E+03  0.16500000000E+03 0.  0.
   -5000001    1    1    2    0    0 -0.78415911902E+02  0.14484062648E+03 -0.15091717999E+03  0.27772082661E+03  0.16500000000E+03 0.  0.
<mgrwt>
<rscale>  0 0.48972015E+03</rscale>
<asrwt>0</asrwt>
<pdfrwt beam="1">  1        2 0.94981473E-01 0.48972015E+03</pdfrwt>
<pdfrwt beam="2">  1       -2 0.14940679E-01 0.48972015E+03</pdfrwt>
<totfact> 0.16883567E+03</totfact>
</mgrwt>
</event>
<event>
 4    1  0.3213443E-005  0.4957942E+03  0.7818608E-02  0.1014883E+00
          2   -1    0    0  501    0  0.00000000000E+00  0.00000000000E+00  0.73290586792E+03  0.73290586793E+03  0.25500000000E-02 0.  1.
         -2   -1    0    0    0  501 -0.00000000000E+00 -0.00000000000E+00 -0.83848388430E+02  0.83848388469E+02  0.25500000000E-02 0. -1.
    5000001    1    1    2    0    0 -0.16707173411E+03  0.42978718969E+02  0.43464179681E+03  0.49588166548E+03  0.16500000000E+03 0.  0.
   -5000001    1    1    2    0    0  0.16707173411E+03 -0.42978718969E+02  0.21441568269E+03  0.32087259092E+03  0.16500000000E+03 0.  0.
<mgrwt>
<rscale>  0 0.49579422E+03</rscale>
<asrwt>0</asrwt>
<pdfrwt beam="1">  1        2 0.11275475E+00 0.49579422E+03</pdfrwt>
<pdfrwt beam="2">  1       -2 0.12899752E-01 0.49579422E+03</pdfrwt>
<totfact> 0.17459075E+03</totfact>
</mgrwt>
</event>
<event>
 4    1  0.3213443E-005  0.5659511E+03  0.7818608E-02  0.9978678E-01
         -2   -1    0    0    0  501 -0.00000000000E+00  0.00000000000E+00  0.45800919253E+02  0.45800919324E+02  0.25500000000E-02 0. -1.
          2   -1    0    0  501    0  0.00000000000E+00 -0.00000000000E+00 -0.17483309580E+04  0.17483309580E+04  0.25500000000E-02 0.  1.
    5000001    1    1    2    0    0 -0.16250672480E+03 -0.15864667630E+03 -0.96437035590E+03  0.10043965287E+04  0.16500000000E+03 0.  0.
   -5000001    1    1    2    0    0  0.16250672480E+03  0.15864667630E+03 -0.73815968285E+03  0.78973534864E+03  0.16500000000E+03 0.  0.
<mgrwt>
<rscale>  0 0.56595111E+03</rscale>
<asrwt>0</asrwt>
<pdfrwt beam="1">  1        2 0.26897394E+00 0.56595111E+03</pdfrwt>
<pdfrwt beam="2">  1       -2 0.70462966E-02 0.56595111E+03</pdfrwt>
<totfact> 0.11399171E+03</totfact>
</mgrwt>
</event>
<event>
 4    1  0.3213443E-005  0.3637393E+03  0.7818608E-02  0.1057113E+00
         -2   -1    0    0    0  501 -0.00000000000E+00  0.00000000000E+00  0.24810890974E+02  0.24810891105E+02  0.25500000000E-02 0. -1.
          2   -1    0    0  501    0  0.00000000000E+00 -0.00000000000E+00 -0.13331468949E+04  0.13331468949E+04  0.25500000000E-02 0.  1.
    5000001    1    1    2    0    0 -0.73794073677E+02 -0.19893918007E+02 -0.64222773230E+03  0.66747493842E+03  0.16500000000E+03 0.  0.
   -5000001    1    1    2    0    0  0.73794073677E+02  0.19893918007E+02 -0.66610827160E+03  0.69048284756E+03  0.16500000000E+03 0.  0.
<mgrwt>
<rscale>  0 0.36373926E+03</rscale>
<asrwt>0</asrwt>
<pdfrwt beam="1">  1        2 0.20509947E+00 0.36373926E+03</pdfrwt>
<pdfrwt beam="2">  1       -2 0.38170612E-02 0.36373926E+03</pdfrwt>
<totfact> 0.49780465E+03</totfact>
</mgrwt>
</event>
<event>
 4    1  0.3213443E-005  0.4121218E+03  0.7818608E-02  0.1039661E+00
         -2   -1    0    0    0  501 -0.00000000000E+00  0.00000000000E+00  0.75245912312E+02  0.75245912355E+02  0.25500000000E-02 0. -1.
          2   -1    0    0  501    0  0.00000000000E+00 -0.00000000000E+00 -0.56429779387E+03  0.56429779388E+03  0.25500000000E-02 0.  1.
    5000001    1    1    2    0    0 -0.49434896856E+02 -0.92400561125E+02 -0.14330618792E+03  0.24237024615E+03  0.16500000000E+03 0.  0.
   -5000001    1    1    2    0    0  0.49434896856E+02  0.92400561125E+02 -0.34574569363E+03  0.39717346008E+03  0.16500000000E+03 0.  0.
<mgrwt>
<rscale>  0 0.41212184E+03</rscale>
<asrwt>0</asrwt>
<pdfrwt beam="1">  1        2 0.86815043E-01 0.41212184E+03</pdfrwt>
<pdfrwt beam="2">  1       -2 0.11576295E-01 0.41212184E+03</pdfrwt>
<totfact> 0.28576606E+03</totfact>
</mgrwt>
</event>
<event>
 4    1  0.3213443E-005  0.6843978E+03  0.7818608E-02  0.9744292E-01
         -2   -1    0    0    0  501 -0.00000000000E+00  0.00000000000E+00  0.83595408663E+02  0.83595408702E+02  0.25500000000E-02 0. -1.
          2   -1    0    0  501    0  0.00000000000E+00 -0.00000000000E+00 -0.14007955752E+04  0.14007955752E+04  0.25500000000E-02 0.  1.
    5000001    1    1    2    0    0  0.27219922426E+02  0.28467331518E+03 -0.46345614418E+03  0.56903112228E+03  0.16500000000E+03 0.  0.
   -5000001    1    1    2    0    0 -0.27219922426E+02 -0.28467331518E+03 -0.85374402235E+03  0.91535986161E+03  0.16500000000E+03 0.  0.
<mgrwt>
<rscale>  0 0.68439777E+03</rscale>
<asrwt>0</asrwt>
<pdfrwt beam="1">  1        2 0.21550699E+00 0.68439777E+03</pdfrwt>
<pdfrwt beam="2">  1       -2 0.12860833E-01 0.68439777E+03</pdfrwt>
<totfact> 0.66468068E+02</totfact>
</mgrwt>
</event>
<event>
 4    1  0.3213443E-005  0.4185744E+03  0.7818608E-02  0.1037531E+00
         -2   -1    0    0    0  501 -0.00000000000E+00  0.00000000000E+00  0.62504736293E+02  0.62504736345E+02  0.25500000000E-02 0. -1.
          2   -1    0    0  501    0  0.00000000000E+00 -0.00000000000E+00 -0.70076508690E+03  0.70076508690E+03  0.25500000000E-02 0.  1.
    5000001    1    1    2    0    0 -0.73671894297E+02 -0.91452045599E+02 -0.22289656867E+03  0.30116258895E+03  0.16500000000E+03 0.  0.
   -5000001    1    1    2    0    0  0.73671894297E+02  0.91452045599E+02 -0.41536378193E+03  0.46210723430E+03  0.16500000000E+03 0.  0.
<mgrwt>
<rscale>  0 0.41857442E+03</rscale>
<asrwt>0</asrwt>
<pdfrwt beam="1">  1        2 0.10781001E+00 0.41857442E+03</pdfrwt>
<pdfrwt beam="2">  1       -2 0.96161137E-02 0.41857442E+03</pdfrwt>
<totfact> 0.29750475E+03</totfact>
</mgrwt>
</event>
<event>
 4    1  0.3213443E-005  0.4538305E+03  0.7818608E-02  0.1026586E+00
         -2   -1    0    0    0  501 -0.00000000000E+00  0.00000000000E+00  0.29574462372E+03  0.29574462373E+03  0.25500000000E-02 0. -1.
          2   -1    0    0  501    0  0.00000000000E+00 -0.00000000000E+00 -0.17410467615E+03  0.17410467616E+03  0.25500000000E-02 0.  1.
    5000001    1    1    2    0    0  0.12841924381E+03  0.13877007064E+02 -0.29324899809E+02  0.21158691655E+03  0.16500000000E+03 0.  0.
   -5000001    1    1    2    0    0 -0.12841924381E+03 -0.13877007064E+02  0.15096484739E+03  0.25826238335E+03  0.16500000000E+03 0.  0.
<mgrwt>
<rscale>  0 0.45383046E+03</rscale>
<asrwt>0</asrwt>
<pdfrwt beam="1">  1        2 0.26785335E-01 0.45383046E+03</pdfrwt>
<pdfrwt beam="2">  1       -2 0.45499172E-01 0.45383046E+03</pdfrwt>
<totfact> 0.92907677E+02</totfact>
</mgrwt>
</event>
<event>
 4    1  0.3213443E-005  0.3724072E+03  0.7818608E-02  0.1053776E+00
          2   -1    0    0  501    0  0.00000000000E+00  0.00000000000E+00  0.63160350649E+03  0.63160350650E+03  0.25500000000E-02 0.  1.
         -2   -1    0    0    0  501 -0.00000000000E+00 -0.00000000000E+00 -0.54894856397E+02  0.54894856456E+02  0.25500000000E-02 0. -1.
    5000001    1    1    2    0    0  0.22833819702E+02 -0.63823474559E+02  0.38679928379E+03  0.42595012052E+03  0.16500000000E+03 0.  0.
   -5000001    1    1    2    0    0 -0.22833819702E+02  0.63823474559E+02  0.18990936630E+03  0.26054824244E+03  0.16500000000E+03 0.  0.
<mgrwt>
<rscale>  0 0.37240722E+03</rscale>
<asrwt>0</asrwt>
<pdfrwt beam="1">  1        2 0.97169768E-01 0.37240722E+03</pdfrwt>
<pdfrwt beam="2">  1       -2 0.84453627E-02 0.37240722E+03</pdfrwt>
<totfact> 0.41432241E+03</totfact>
</mgrwt>
</event>
<event>
 4    1  0.3213443E-005  0.3935303E+03  0.7818608E-02  0.1046043E+00
         -2   -1    0    0    0  501 -0.00000000000E+00  0.00000000000E+00  0.13039326782E+02  0.13039327031E+02  0.25500000000E-02 0. -1.
          2   -1    0    0  501    0  0.00000000000E+00 -0.00000000000E+00 -0.29692121246E+04  0.29692121246E+04  0.25500000000E-02 0.  1.
    5000001    1    1    2    0    0 -0.89878238454E+02 -0.23814988462E+02 -0.10737856194E+04  0.10903604028E+04  0.16500000000E+03 0.  0.
   -5000001    1    1    2    0    0  0.89878238454E+02  0.23814988462E+02 -0.18823871784E+04  0.18918910489E+04  0.16500000000E+03 0.  0.
<mgrwt>
<rscale>  0 0.39353032E+03</rscale>
<asrwt>0</asrwt>
<pdfrwt beam="1">  1        2 0.45680133E+00 0.39353032E+03</pdfrwt>
<pdfrwt beam="2">  1       -2 0.20060527E-02 0.39353032E+03</pdfrwt>
<totfact> 0.16474030E+03</totfact>
</mgrwt>
</event>
<event>
 4    1  0.3213443E-005  0.4156393E+03  0.7818608E-02  0.1038495E+00
          2   -1    0    0  501    0  0.00000000000E+00  0.00000000000E+00  0.44775159747E+03  0.44775159747E+03  0.25500000000E-02 0.  1.
         -2   -1    0    0    0  501 -0.00000000000E+00 -0.00000000000E+00 -0.96457525216E+02  0.96457525250E+02  0.25500000000E-02 0. -1.
    5000001    1    1    2    0    0 -0.70610730038E+02 -0.51844412149E+02  0.29486292074E+03  0.34905996662E+03  0.16500000000E+03 0.  0.
   -5000001    1    1    2    0    0  0.70610730038E+02  0.51844412149E+02  0.56431151508E+02  0.19514915610E+03  0.16500000000E+03 0.  0.
<mgrwt>
<rscale>  0 0.41563932E+03</rscale>
<asrwt>0</asrwt>
<pdfrwt beam="1">  1        2 0.68884863E-01 0.41563932E+03</pdfrwt>
<pdfrwt beam="2">  1       -2 0.14839619E-01 0.41563932E+03</pdfrwt>
<totfact> 0.24712596E+03</totfact>
</mgrwt>
</event>
<event>
 4    1  0.3213443E-005  0.6222224E+03  0.7818608E-02  0.9860345E-01
          2   -1    0    0  501    0  0.00000000000E+00  0.00000000000E+00  0.33459924195E+04  0.33459924195E+04  0.25500000000E-02 0.  1.
         -2   -1    0    0    0  501 -0.00000000000E+00 -0.00000000000E+00 -0.28927200014E+02  0.28927200126E+02  0.25500000000E-02 0. -1.
    5000001    1    1    2    0    0  0.64535793725E+02  0.24625982165E+03  0.12844581733E+04  0.13197979267E+04  0.16500000000E+03 0.  0.
   -5000001    1    1    2    0    0 -0.64535793725E+02 -0.24625982165E+03  0.20326070461E+04  0.20551216929E+04  0.16500000000E+03 0.  0.
<mgrwt>
<rscale>  0 0.62222244E+03</rscale>
<asrwt>0</asrwt>
<pdfrwt beam="1">  1        2 0.51476826E+00 0.62222244E+03</pdfrwt>
<pdfrwt beam="2">  1       -2 0.44503368E-02 0.62222244E+03</pdfrwt>
<totfact> 0.27887965E+02</totfact>
</mgrwt>
</event>
<event>
 4    1  0.3213443E-005  0.5157871E+03  0.7818608E-02  0.1009738E+00
          2   -1    0    0  501    0  0.00000000000E+00  0.00000000000E+00  0.46648818237E+03  0.46648818238E+03  0.25500000000E-02 0.  1.
         -2   -1    0    0    0  501 -0.00000000000E+00 -0.00000000000E+00 -0.14257401662E+03  0.14257401664E+03  0.25500000000E-02 0. -1.
    5000001    1    1    2    0    0 -0.52548711029E+02  0.16894660078E+03  0.26744103713E+03  0.36063004490E+03  0.16500000000E+03 0.  0.
   -5000001    1    1    2    0    0  0.52548711029E+02 -0.16894660078E+03  0.56473128617E+02  0.24843215412E+03  0.16500000000E+03 0.  0.
<mgrwt>
<rscale>  0 0.51578714E+03</rscale>
<asrwt>0</asrwt>
<pdfrwt beam="1">  1        2 0.71767413E-01 0.51578714E+03</pdfrwt>
<pdfrwt beam="2">  1       -2 0.21934464E-01 0.51578714E+03</pdfrwt>
<totfact> 0.12105438E+03</totfact>
</mgrwt>
</event>
<event>
 4    1  0.3213443E-005  0.7500248E+03  0.7818608E-02  0.9635311E-01
         -2   -1    0    0    0  501 -0.00000000000E+00  0.00000000000E+00  0.75770439182E+03  0.75770439182E+03  0.25500000000E-02 0. -1.
          2   -1    0    0  501    0  0.00000000000E+00 -0.00000000000E+00 -0.18560574864E+03  0.18560574865E+03  0.25500000000E-02 0.  1.
    5000001    1    1    2    0    0  0.22044158631E+03 -0.66164971085E+02 -0.23144155418E+02  0.28413544007E+03  0.16500000000E+03 0.  0.
   -5000001    1    1    2    0    0 -0.22044158631E+03  0.66164971085E+02  0.59524279860E+03  0.65917470041E+03  0.16500000000E+03 0.  0.
<mgrwt>
<rscale>  0 0.75002478E+03</rscale>
<asrwt>0</asrwt>
<pdfrwt beam="1">  1        2 0.28554730E-01 0.75002478E+03</pdfrwt>
<pdfrwt beam="2">  1       -2 0.11656991E+00 0.75002478E+03</pdfrwt>
<totfact> 0.10834871E+02</totfact>
</mgrwt>
</event>
<event>
 4    1  0.3213443E-005  0.4335593E+03  0.7818608E-02  0.1032741E+00
          2   -1    0    0  501    0  0.00000000000E+00  0.00000000000E+00  0.19265469240E+03  0.19265469242E+03  0.25500000000E-02 0.  1.
         -2   -1    0    0    0  501 -0.00000000000E+00 -0.00000000000E+00 -0.24392561183E+03  0.24392561185E+03  0.25500000000E-02 0. -1.
    5000001    1    1    2    0    0  0.84016398348E+02  0.96627631801E+02  0.32844669132E+02  0.21142238933E+03  0.16500000000E+03 0.  0.
   -5000001    1    1    2    0    0 -0.84016398348E+02 -0.96627631801E+02 -0.84115588566E+02  0.22515791494E+03  0.16500000000E+03 0.  0.
<mgrwt>
<rscale>  0 0.43355929E+03</rscale>
<asrwt>0</asrwt>
<pdfrwt beam="1">  1        2 0.29639184E-01 0.43355929E+03</pdfrwt>
<pdfrwt beam="2">  1       -2 0.37527017E-01 0.43355929E+03</pdfrwt>
<totfact> 0.12055278E+03</totfact>
</mgrwt>
</event>
<event>
 4    1  0.3213443E-005  0.9134103E+03  0.7818608E-02  0.9408971E-01
          2   -1    0    0  501    0  0.00000000000E+00  0.00000000000E+00  0.15361035796E+04  0.15361035796E+04  0.25500000000E-02 0.  1.
         -2   -1    0    0    0  501 -0.00000000000E+00 -0.00000000000E+00 -0.13578483515E+03  0.13578483517E+03  0.25500000000E-02 0. -1.
    5000001    1    1    2    0    0  0.28122271648E+03 -0.30024858873E+03  0.49865832403E+03  0.66717355720E+03  0.16500000000E+03 0.  0.
   -5000001    1    1    2    0    0 -0.28122271648E+03  0.30024858873E+03  0.90166042043E+03  0.10047148576E+04  0.16500000000E+03 0.  0.
<mgrwt>
<rscale>  0 0.91341025E+03</rscale>
<asrwt>0</asrwt>
<pdfrwt beam="1">  1        2 0.23632362E+00 0.91341025E+03</pdfrwt>
<pdfrwt beam="2">  1       -2 0.20889976E-01 0.91341025E+03</pdfrwt>
<totfact> 0.24029634E+02</totfact>
</mgrwt>
</event>
<event>
 4    1  0.3213443E-005  0.4615125E+03  0.7818608E-02  0.1024343E+00
         -2   -1    0    0    0  501 -0.00000000000E+00  0.00000000000E+00  0.66053409054E+02  0.66053409104E+02  0.25500000000E-02 0. -1.
          2   -1    0    0  501    0  0.00000000000E+00 -0.00000000000E+00 -0.80614239752E+03  0.80614239752E+03  0.25500000000E-02 0.  1.
    5000001    1    1    2    0    0 -0.69440770532E+02  0.12932589187E+03 -0.49648537225E+03  0.54338746009E+03  0.16500000000E+03 0.  0.
   -5000001    1    1    2    0    0  0.69440770532E+02 -0.12932589187E+03 -0.24360361621E+03  0.32880834654E+03  0.16500000000E+03 0.  0.
<mgrwt>
<rscale>  0 0.46151253E+03</rscale>
<asrwt>0</asrwt>
<pdfrwt beam="1">  1        2 0.12402190E+00 0.46151253E+03</pdfrwt>
<pdfrwt beam="2">  1       -2 0.10162064E-01 0.46151253E+03</pdfrwt>
<totfact> 0.22800331E+03</totfact>
</mgrwt>
</event>
<event>
 4    1  0.3213443E-005  0.5406883E+03  0.7818608E-02  0.1003672E+00
         -2   -1    0    0    0  501 -0.00000000000E+00  0.00000000000E+00  0.11298013798E+03  0.11298013801E+03  0.25500000000E-02 0. -1.
          2   -1    0    0  501    0  0.00000000000E+00 -0.00000000000E+00 -0.64689209134E+03  0.64689209134E+03  0.25500000000E-02 0.  1.
    5000001    1    1    2    0    0  0.16999233863E+03 -0.36100565447E+02 -0.91085149040E+02  0.25636331718E+03  0.16500000000E+03 0.  0.
   -5000001    1    1    2    0    0 -0.16999233863E+03  0.36100565447E+02 -0.44282680432E+03  0.50350891218E+03  0.16500000000E+03 0.  0.
<mgrwt>
<rscale>  0 0.54068829E+03</rscale>
<asrwt>0</asrwt>
<pdfrwt beam="1">  1        2 0.99521857E-01 0.54068829E+03</pdfrwt>
<pdfrwt beam="2">  1       -2 0.17381560E-01 0.54068829E+03</pdfrwt>
<totfact> 0.12350304E+03</totfact>
</mgrwt>
</event>
<event>
 4    1  0.3213443E-005  0.4954123E+03  0.7818608E-02  0.1014983E+00
          2   -1    0    0  501    0  0.00000000000E+00  0.00000000000E+00  0.19269329314E+04  0.19269329314E+04  0.25500000000E-02 0.  1.
         -2   -1    0    0    0  501 -0.00000000000E+00 -0.00000000000E+00 -0.31842482084E+02  0.31842482186E+02  0.25500000000E-02 0. -1.
    5000001    1    1    2    0    0 -0.15265517868E+03 -0.84289348445E+02  0.11888593570E+04  0.12128560791E+04  0.16500000000E+03 0.  0.
   -5000001    1    1    2    0    0  0.15265517868E+03  0.84289348445E+02  0.70623109238E+03  0.74591933457E+03  0.16500000000E+03 0.  0.
<mgrwt>
<rscale>  0 0.49541226E+03</rscale>
<asrwt>0</asrwt>
<pdfrwt beam="1">  1        2 0.29645138E+00 0.49541226E+03</pdfrwt>
<pdfrwt beam="2">  1       -2 0.48988407E-02 0.49541226E+03</pdfrwt>
<totfact> 0.16168268E+03</totfact>
</mgrwt>
</event>
<event>
 4    1  0.3213443E-005  0.3585955E+03  0.7818608E-02  0.1059141E+00
         -2   -1    0    0    0  501 -0.00000000000E+00  0.00000000000E+00  0.61220116786E+02  0.61220116839E+02  0.25500000000E-02 0. -1.
          2   -1    0    0  501    0  0.00000000000E+00 -0.00000000000E+00 -0.52511633825E+03  0.52511633825E+03  0.25500000000E-02 0.  1.
    5000001    1    1    2    0    0  0.69666615870E+02 -0.53253207343E+01 -0.24240338787E+03  0.30144020777E+03  0.16500000000E+03 0.  0.
   -5000001    1    1    2    0    0 -0.69666615870E+02  0.53253207343E+01 -0.22149283359E+03  0.28489624733E+03  0.16500000000E+03 0.  0.
<mgrwt>
<rscale>  0 0.35859550E+03</rscale>
<asrwt>0</asrwt>
<pdfrwt beam="1">  1        2 0.80787126E-01 0.35859550E+03</pdfrwt>
<pdfrwt beam="2">  1       -2 0.94184798E-02 0.35859550E+03</pdfrwt>
<totfact> 0.43178566E+03</totfact>
</mgrwt>
</event>
<event>
 4    1  0.3213443E-005  0.5330014E+03  0.7818608E-02  0.1005507E+00
          2   -1    0    0  501    0  0.00000000000E+00  0.00000000000E+00  0.12835565722E+04  0.12835565722E+04  0.25500000000E-02 0.  1.
         -2   -1    0    0    0  501 -0.00000000000E+00 -0.00000000000E+00 -0.55332677910E+02  0.55332677969E+02  0.25500000000E-02 0. -1.
    5000001    1    1    2    0    0  0.19023541788E+03  0.80779578649E+02  0.53145411891E+03  0.59361884661E+03  0.16500000000E+03 0.  0.
   -5000001    1    1    2    0    0 -0.19023541788E+03 -0.80779578649E+02  0.69676977540E+03  0.74527040358E+03  0.16500000000E+03 0.  0.
<mgrwt>
<rscale>  0 0.53300140E+03</rscale>
<asrwt>0</asrwt>
<pdfrwt beam="1">  1        2 0.19747022E+00 0.53300140E+03</pdfrwt>
<pdfrwt beam="2">  1       -2 0.85127206E-02 0.53300140E+03</pdfrwt>
<totfact> 0.15260831E+03</totfact>
</mgrwt>
</event>
<event>
 4    1  0.3213443E-005  0.7227220E+03  0.7818608E-02  0.9679145E-01
         -2   -1    0    0    0  501 -0.00000000000E+00  0.00000000000E+00  0.26828519434E+03  0.26828519435E+03  0.25500000000E-02 0. -1.
          2   -1    0    0  501    0  0.00000000000E+00 -0.00000000000E+00 -0.48672751062E+03  0.48672751062E+03  0.25500000000E-02 0.  1.
    5000001    1    1    2    0    0  0.29918932021E+03  0.40083651745E+02  0.63367824165E+01  0.34407281682E+03  0.16500000000E+03 0.  0.
   -5000001    1    1    2    0    0 -0.29918932021E+03 -0.40083651745E+02 -0.22477909869E+03  0.41093988815E+03  0.16500000000E+03 0.  0.
<mgrwt>
<rscale>  0 0.72272203E+03</rscale>
<asrwt>0</asrwt>
<pdfrwt beam="1">  1        2 0.74881155E-01 0.72272203E+03</pdfrwt>
<pdfrwt beam="2">  1       -2 0.41274645E-01 0.72272203E+03</pdfrwt>
<totfact> 0.35608069E+02</totfact>
</mgrwt>
</event>
<event>
 4    1  0.3213443E-005  0.5628611E+03  0.7818608E-02  0.9985602E-01
         -2   -1    0    0    0  501 -0.00000000000E+00  0.00000000000E+00  0.76593319573E+02  0.76593319615E+02  0.25500000000E-02 0. -1.
          2   -1    0    0  501    0  0.00000000000E+00 -0.00000000000E+00 -0.10340739982E+04  0.10340739982E+04  0.25500000000E-02 0.  1.
    5000001    1    1    2    0    0  0.20480909863E+03  0.91666722038E+02 -0.39910777892E+03  0.48668426521E+03  0.16500000000E+03 0.  0.
   -5000001    1    1    2    0    0 -0.20480909863E+03 -0.91666722038E+02 -0.55837289966E+03  0.62398305256E+03  0.16500000000E+03 0.  0.
<mgrwt>
<rscale>  0 0.56286112E+03</rscale>
<asrwt>0</asrwt>
<pdfrwt beam="1">  1        2 0.15908830E+00 0.56286112E+03</pdfrwt>
<pdfrwt beam="2">  1       -2 0.11783588E-01 0.56286112E+03</pdfrwt>
<totfact> 0.12671248E+03</totfact>
</mgrwt>
</event>
<event>
 4    1  0.3213443E-005  0.8096009E+03  0.7818608E-02  0.9546223E-01
          2   -1    0    0  501    0  0.00000000000E+00  0.00000000000E+00  0.30123475465E+04  0.30123475465E+04  0.25500000000E-02 0.  1.
         -2   -1    0    0    0  501 -0.00000000000E+00 -0.00000000000E+00 -0.54397245532E+02  0.54397245592E+02  0.25500000000E-02 0. -1.
    5000001    1    1    2    0    0 -0.29300395151E+03  0.16250476361E+03  0.88752625842E+03  0.96290548508E+03  0.16500000000E+03 0.  0.
   -5000001    1    1    2    0    0  0.29300395151E+03 -0.16250476361E+03  0.20704240425E+04  0.21038393070E+04  0.16500000000E+03 0.  0.
<mgrwt>
<rscale>  0 0.80960091E+03</rscale>
<asrwt>0</asrwt>
<pdfrwt beam="1">  1        2 0.46343814E+00 0.80960091E+03</pdfrwt>
<pdfrwt beam="2">  1       -2 0.83688060E-02 0.80960091E+03</pdfrwt>
<totfact> 0.16417896E+02</totfact>
</mgrwt>
</event>
<event>
 4    1  0.3213443E-005  0.5194431E+03  0.7818608E-02  0.1008825E+00
         -2   -1    0    0    0  501 -0.00000000000E+00  0.00000000000E+00  0.36223641141E+02  0.36223641230E+02  0.25500000000E-02 0. -1.
          2   -1    0    0  501    0  0.00000000000E+00 -0.00000000000E+00 -0.18621896808E+04  0.18621896808E+04  0.25500000000E-02 0.  1.
    5000001    1    1    2    0    0 -0.14493602269E+03 -0.60765800497E+02 -0.45751543114E+03  0.51112063440E+03  0.16500000000E+03 0.  0.
   -5000001    1    1    2    0    0  0.14493602269E+03  0.60765800497E+02 -0.13684506086E+04  0.13872926877E+04  0.16500000000E+03 0.  0.
<mgrwt>
<rscale>  0 0.51944313E+03</rscale>
<asrwt>0</asrwt>
<pdfrwt beam="1">  1        2 0.28649065E+00 0.51944313E+03</pdfrwt>
<pdfrwt beam="2">  1       -2 0.55728693E-02 0.51944313E+03</pdfrwt>
<totfact> 0.14328151E+03</totfact>
</mgrwt>
</event>
<event>
 4    1  0.3213443E-005  0.5673928E+03  0.7818608E-02  0.9975465E-01
         -2   -1    0    0    0  501 -0.00000000000E+00  0.00000000000E+00  0.65558928969E+02  0.65558929019E+02  0.25500000000E-02 0. -1.
          2   -1    0    0  501    0  0.00000000000E+00 -0.00000000000E+00 -0.12276535327E+04  0.12276535327E+04  0.25500000000E-02 0.  1.
    5000001    1    1    2    0    0  0.17938743583E+03 -0.92187058696E+02 -0.83668937130E+03  0.87632893937E+03  0.16500000000E+03 0.  0.
   -5000001    1    1    2    0    0 -0.17938743583E+03  0.92187058696E+02 -0.32540523246E+03  0.41688352239E+03  0.16500000000E+03 0.  0.
<mgrwt>
<rscale>  0 0.56739281E+03</rscale>
<asrwt>0</asrwt>
<pdfrwt beam="1">  1        2 0.18886976E+00 0.56739281E+03</pdfrwt>
<pdfrwt beam="2">  1       -2 0.10085990E-01 0.56739281E+03</pdfrwt>
<totfact> 0.12498418E+03</totfact>
</mgrwt>
</event>
<event>
 4    1  0.3213443E-005  0.4267809E+03  0.7818608E-02  0.1034882E+00
         -2   -1    0    0    0  501 -0.00000000000E+00  0.00000000000E+00  0.15726901882E+02  0.15726902089E+02  0.25500000000E-02 0. -1.
          2   -1    0    0  501    0  0.00000000000E+00 -0.00000000000E+00 -0.28953878201E+04  0.28953878201E+04  0.25500000000E-02 0.  1.
    5000001    1    1    2    0    0 -0.78994406896E+02  0.62475149294E+02 -0.20562714172E+04  0.20653378420E+04  0.16500000000E+03 0.  0.
   -5000001    1    1    2    0    0  0.78994406896E+02 -0.62475149294E+02 -0.82338950110E+03  0.84577688023E+03  0.16500000000E+03 0.  0.
<mgrwt>
<rscale>  0 0.42678088E+03</rscale>
<asrwt>0</asrwt>
<pdfrwt beam="1">  1        2 0.44544386E+00 0.42678088E+03</pdfrwt>
<pdfrwt beam="2">  1       -2 0.24195257E-02 0.42678088E+03</pdfrwt>
<totfact> 0.13727588E+03</totfact>
</mgrwt>
</event>
<event>
 4    1  0.3213443E-005  0.4960143E+03  0.7818608E-02  0.1014824E+00
          2   -1    0    0  501    0  0.00000000000E+00  0.00000000000E+00  0.21248481904E+04  0.21248481904E+04  0.25500000000E-02 0.  1.
         -2   -1    0    0    0  501 -0.00000000000E+00 -0.00000000000E+00 -0.28946801206E+02  0.28946801318E+02  0.25500000000E-02 0. -1.
    5000001    1    1    2    0    0  0.61698484216E+02  0.82132921799E+02  0.37905354550E+03  0.42598017577E+03  0.16500000000E+03 0.  0.
   -5000001    1    1    2    0    0 -0.61698484216E+02 -0.82132921799E+02  0.17168478437E+04  0.17278148159E+04  0.16500000000E+03 0.  0.
<mgrwt>
<rscale>  0 0.49601435E+03</rscale>
<asrwt>0</asrwt>
<pdfrwt beam="1">  1        2 0.32689966E+00 0.49601435E+03</pdfrwt>
<pdfrwt beam="2">  1       -2 0.44533549E-02 0.49601435E+03</pdfrwt>
<totfact> 0.14647922E+03</totfact>
</mgrwt>
</event>
<event>
 4    1  0.3213443E-005  0.7795801E+03  0.7818608E-02  0.9590054E-01
         -2   -1    0    0    0  501 -0.00000000000E+00  0.00000000000E+00  0.24234274829E+03  0.24234274831E+03  0.25500000000E-02 0. -1.
          2   -1    0    0  501    0  0.00000000000E+00 -0.00000000000E+00 -0.62694798641E+03  0.62694798641E+03  0.25500000000E-02 0.  1.
    5000001    1    1    2    0    0  0.38642709327E+02 -0.28497900884E+03 -0.42083871176E+03  0.53575788915E+03  0.16500000000E+03 0.  0.
   -5000001    1    1    2    0    0 -0.38642709327E+02  0.28497900884E+03  0.36233473651E+02  0.33353284557E+03  0.16500000000E+03 0.  0.
<mgrwt>
<rscale>  0 0.77958014E+03</rscale>
<asrwt>0</asrwt>
<pdfrwt beam="1">  1        2 0.96453536E-01 0.77958014E+03</pdfrwt>
<pdfrwt beam="2">  1       -2 0.37283500E-01 0.77958014E+03</pdfrwt>
<totfact> 0.32078836E+02</totfact>
</mgrwt>
</event>
<event>
 4    1  0.3213443E-005  0.4395031E+03  0.7818608E-02  0.1030899E+00
         -2   -1    0    0    0  501 -0.00000000000E+00  0.00000000000E+00  0.26927936587E+03  0.26927936588E+03  0.25500000000E-02 0. -1.
          2   -1    0    0  501    0  0.00000000000E+00 -0.00000000000E+00 -0.17933329034E+03  0.17933329035E+03  0.25500000000E-02 0.  1.
    5000001    1    1    2    0    0  0.60977761667E+02  0.12379460231E+03 -0.92976073759E+00  0.21510289499E+03  0.16500000000E+03 0.  0.
   -5000001    1    1    2    0    0 -0.60977761667E+02 -0.12379460231E+03  0.90875836271E+02  0.23350976125E+03  0.16500000000E+03 0.  0.
<mgrwt>
<rscale>  0 0.43950315E+03</rscale>
<asrwt>0</asrwt>
<pdfrwt beam="1">  1        2 0.27589737E-01 0.43950315E+03</pdfrwt>
<pdfrwt beam="2">  1       -2 0.41427595E-01 0.43950315E+03</pdfrwt>
<totfact> 0.10798683E+03</totfact>
</mgrwt>
</event>
<event>
 4    1  0.3213443E-005  0.5015684E+03  0.7818608E-02  0.1013370E+00
         -2   -1    0    0    0  501 -0.00000000000E+00  0.00000000000E+00  0.54510263205E+02  0.54510263265E+02  0.25500000000E-02 0. -1.
          2   -1    0    0  501    0  0.00000000000E+00 -0.00000000000E+00 -0.11537776461E+04  0.11537776461E+04  0.25500000000E-02 0.  1.
    5000001    1    1    2    0    0  0.21091697470E+02 -0.18740144674E+03 -0.57414908727E+03  0.62644739313E+03  0.16500000000E+03 0.  0.
   -5000001    1    1    2    0    0 -0.21091697470E+02  0.18740144674E+03 -0.52511829564E+03  0.58184051626E+03  0.16500000000E+03 0.  0.
<mgrwt>
<rscale>  0 0.50156843E+03</rscale>
<asrwt>0</asrwt>
<pdfrwt beam="1">  1        2 0.17750424E+00 0.50156843E+03</pdfrwt>
<pdfrwt beam="2">  1       -2 0.83861952E-02 0.50156843E+03</pdfrwt>
<totfact> 0.18607200E+03</totfact>
</mgrwt>
</event>
<event>
 4    1  0.3213443E-005  0.4612138E+03  0.7818608E-02  0.1024430E+00
         -2   -1    0    0    0  501 -0.00000000000E+00  0.00000000000E+00  0.56775857221E+02  0.56775857278E+02  0.25500000000E-02 0. -1.
          2   -1    0    0  501    0  0.00000000000E+00 -0.00000000000E+00 -0.93665782269E+03  0.93665782269E+03  0.25500000000E-02 0.  1.
    5000001    1    1    2    0    0  0.13832013857E+03 -0.77777419374E+02 -0.49981794377E+03  0.54974972907E+03  0.16500000000E+03 0.  0.
   -5000001    1    1    2    0    0 -0.13832013857E+03  0.77777419374E+02 -0.38006402170E+03  0.44368395090E+03  0.16500000000E+03 0.  0.
<mgrwt>
<rscale>  0 0.46121384E+03</rscale>
<asrwt>0</asrwt>
<pdfrwt beam="1">  1        2 0.14410119E+00 0.46121384E+03</pdfrwt>
<pdfrwt beam="2">  1       -2 0.87347479E-02 0.46121384E+03</pdfrwt>
<totfact> 0.23740932E+03</totfact>
</mgrwt>
</event>
<event>
 4    1  0.3213443E-005  0.4212213E+03  0.7818608E-02  0.1036670E+00
          2   -1    0    0  501    0  0.00000000000E+00  0.00000000000E+00  0.22644364228E+03  0.22644364229E+03  0.25500000000E-02 0.  1.
         -2   -1    0    0    0  501 -0.00000000000E+00 -0.00000000000E+00 -0.19588472266E+03  0.19588472268E+03  0.25500000000E-02 0. -1.
    5000001    1    1    2    0    0  0.54386456124E+02  0.88116889229E+02 -0.64989535154E+02  0.20535606262E+03  0.16500000000E+03 0.  0.
   -5000001    1    1    2    0    0 -0.54386456124E+02 -0.88116889229E+02  0.95548454768E+02  0.21697230235E+03  0.16500000000E+03 0.  0.
<mgrwt>
<rscale>  0 0.42122132E+03</rscale>
<asrwt>0</asrwt>
<pdfrwt beam="1">  1        2 0.34837483E-01 0.42122132E+03</pdfrwt>
<pdfrwt beam="2">  1       -2 0.30136111E-01 0.42122132E+03</pdfrwt>
<totfact> 0.15187595E+03</totfact>
</mgrwt>
</event>
<event>
 4    1  0.3213443E-005  0.5518629E+03  0.7818608E-02  0.1001064E+00
         -2   -1    0    0    0  501 -0.00000000000E+00  0.00000000000E+00  0.72865354496E+02  0.72865354541E+02  0.25500000000E-02 0. -1.
          2   -1    0    0  501    0  0.00000000000E+00 -0.00000000000E+00 -0.10449159499E+04  0.10449159499E+04  0.25500000000E-02 0.  1.
    5000001    1    1    2    0    0  0.10641896075E+03  0.82563739641E+01 -0.87836032917E+03  0.90007501398E+03  0.16500000000E+03 0.  0.
   -5000001    1    1    2    0    0 -0.10641896075E+03 -0.82563739641E+01 -0.93690266210E+02  0.21770629045E+03  0.16500000000E+03 0.  0.
<mgrwt>
<rscale>  0 0.55186292E+03</rscale>
<asrwt>0</asrwt>
<pdfrwt beam="1">  1        2 0.16075629E+00 0.55186292E+03</pdfrwt>
<pdfrwt beam="2">  1       -2 0.11210055E-01 0.55186292E+03</pdfrwt>
<totfact> 0.13542601E+03</totfact>
</mgrwt>
</event>
<event>
 4    1  0.3213443E-005  0.6775798E+03  0.7818608E-02  0.9756361E-01
          2   -1    0    0  501    0  0.00000000000E+00  0.00000000000E+00  0.79287076494E+02  0.79287076535E+02  0.25500000000E-02 0.  1.
         -2   -1    0    0    0  501 -0.00000000000E+00 -0.00000000000E+00 -0.14476332865E+04  0.14476332865E+04  0.25500000000E-02 0. -1.
    5000001    1    1    2    0    0  0.90612813706E+02 -0.27286185698E+03 -0.84174576166E+03  0.90466855935E+03  0.16500000000E+03 0.  0.
   -5000001    1    1    2    0    0 -0.90612813706E+02  0.27286185698E+03 -0.52660044837E+03  0.62225180371E+03  0.16500000000E+03 0.  0.
<mgrwt>
<rscale>  0 0.67757984E+03</rscale>
<asrwt>0</asrwt>
<pdfrwt beam="1">  1        2 0.12198013E-01 0.67757984E+03</pdfrwt>
<pdfrwt beam="2">  1       -2 0.22271279E+00 0.67757984E+03</pdfrwt>
<totfact> 0.50461276E+01</totfact>
</mgrwt>
</event>
<event>
 4    1  0.3213443E-005  0.9905998E+03  0.7818608E-02  0.9318915E-01
          2   -1    0    0  501    0  0.00000000000E+00  0.00000000000E+00  0.41855863417E+03  0.41855863418E+03  0.25500000000E-02 0.  1.
         -2   -1    0    0    0  501 -0.00000000000E+00 -0.00000000000E+00 -0.58611139440E+03  0.58611139441E+03  0.25500000000E-02 0. -1.
    5000001    1    1    2    0    0 -0.23276700347E+03  0.35716506180E+03 -0.27714018629E+03  0.53458305448E+03  0.16500000000E+03 0.  0.
   -5000001    1    1    2    0    0  0.23276700347E+03 -0.35716506180E+03  0.10958742606E+03  0.47008697411E+03  0.16500000000E+03 0.  0.
<mgrwt>
<rscale>  0 0.99059979E+03</rscale>
<asrwt>0</asrwt>
<pdfrwt beam="1">  1        2 0.64393636E-01 0.99059979E+03</pdfrwt>
<pdfrwt beam="2">  1       -2 0.90170983E-01 0.99059979E+03</pdfrwt>
<totfact> 0.79432464E+01</totfact>
</mgrwt>
</event>
<event>
 4    1  0.3213443E-005  0.8405444E+03  0.7818608E-02  0.9503117E-01
          2   -1    0    0  501    0  0.00000000000E+00  0.00000000000E+00  0.11528617847E+04  0.11528617847E+04  0.25500000000E-02 0.  1.
         -2   -1    0    0    0  501 -0.00000000000E+00 -0.00000000000E+00 -0.15320893708E+03  0.15320893710E+03  0.25500000000E-02 0. -1.
    5000001    1    1    2    0    0  0.30339348256E+03 -0.57840273247E+02  0.86094151074E+03  0.92942906527E+03  0.16500000000E+03 0.  0.
   -5000001    1    1    2    0    0 -0.30339348256E+03  0.57840273247E+02  0.13871133692E+03  0.37664165656E+03  0.16500000000E+03 0.  0.
<mgrwt>
<rscale>  0 0.84054442E+03</rscale>
<asrwt>0</asrwt>
<pdfrwt beam="1">  1        2 0.17736335E+00 0.84054442E+03</pdfrwt>
<pdfrwt beam="2">  1       -2 0.23570605E-01 0.84054442E+03</pdfrwt>
<totfact> 0.32364096E+02</totfact>
</mgrwt>
</event>
<event>
 4    1  0.3213443E-005  0.3635078E+03  0.7818608E-02  0.1057203E+00
          2   -1    0    0  501    0  0.00000000000E+00  0.00000000000E+00  0.88083094652E+02  0.88083094689E+02  0.25500000000E-02 0.  1.
         -2   -1    0    0    0  501 -0.00000000000E+00 -0.00000000000E+00 -0.37503773194E+03  0.37503773195E+03  0.25500000000E-02 0. -1.
    5000001    1    1    2    0    0  0.71195825413E+02  0.26592371582E+02 -0.13610505322E+03  0.22699247850E+03  0.16500000000E+03 0.  0.
   -5000001    1    1    2    0    0 -0.71195825413E+02 -0.26592371582E+02 -0.15084958408E+03  0.23612834815E+03  0.16500000000E+03 0.  0.
<mgrwt>
<rscale>  0 0.36350782E+03</rscale>
<asrwt>0</asrwt>
<pdfrwt beam="1">  1        2 0.13551246E-01 0.36350782E+03</pdfrwt>
<pdfrwt beam="2">  1       -2 0.57698112E-01 0.36350782E+03</pdfrwt>
<totfact> 0.12709322E+03</totfact>
</mgrwt>
</event>
<event>
 4    1  0.3213443E-005  0.4495462E+03  0.7818608E-02  0.1027857E+00
          2   -1    0    0  501    0  0.00000000000E+00  0.00000000000E+00  0.48094130757E+03  0.48094130758E+03  0.25500000000E-02 0.  1.
         -2   -1    0    0    0  501 -0.00000000000E+00 -0.00000000000E+00 -0.10505014483E+03  0.10505014486E+03  0.25500000000E-02 0. -1.
    5000001    1    1    2    0    0 -0.13036077513E+03  0.78095078159E+02  0.20661735596E+03  0.30497295734E+03  0.16500000000E+03 0.  0.
   -5000001    1    1    2    0    0  0.13036077513E+03 -0.78095078159E+02  0.16927380678E+03  0.28101849510E+03  0.16500000000E+03 0.  0.
<mgrwt>
<rscale>  0 0.44954623E+03</rscale>
<asrwt>0</asrwt>
<pdfrwt beam="1">  1        2 0.73990971E-01 0.44954623E+03</pdfrwt>
<pdfrwt beam="2">  1       -2 0.16161561E-01 0.44954623E+03</pdfrwt>
<totfact> 0.19773935E+03</totfact>
</mgrwt>
</event>
<event>
 4    1  0.3213443E-005  0.6687254E+03  0.7818608E-02  0.9772263E-01
         -2   -1    0    0    0  501 -0.00000000000E+00  0.00000000000E+00  0.30071122702E+03  0.30071122703E+03  0.25500000000E-02 0.  1.
          2   -1    0    0  501    0  0.00000000000E+00 -0.00000000000E+00 -0.37177998375E+03  0.37177998376E+03  0.25500000000E-02 0. -1.
    5000001    1    1    2    0    0  0.11146972144E+03  0.26725516222E+03 -0.85018828005E+01  0.33338881586E+03  0.16500000000E+03 0.  0.
   -5000001    1    1    2    0    0 -0.11146972144E+03 -0.26725516222E+03 -0.62566873935E+02  0.33910239492E+03  0.16500000000E+03 0.  0.
<mgrwt>
<rscale>  0 0.66872540E+03</rscale>
<asrwt>0</asrwt>
<pdfrwt beam="1">  1        2 0.57196921E-01 0.66872540E+03</pdfrwt>
<pdfrwt beam="2">  1       -2 0.46263266E-01 0.66872540E+03</pdfrwt>
<totfact> 0.38597860E+02</totfact>
</mgrwt>
</event>
<event>
 4    1  0.3213443E-005  0.3795385E+03  0.7818608E-02  0.1051104E+00
          2   -1    0    0  501    0  0.00000000000E+00  0.00000000000E+00  0.31130424182E+04  0.31130424182E+04  0.25500000000E-02 0.  1.
         -2   -1    0    0    0  501 -0.00000000000E+00 -0.00000000000E+00 -0.11568220876E+02  0.11568221157E+02  0.25500000000E-02 0. -1.
    5000001    1    1    2    0    0  0.56968839922E+02 -0.72258153001E+02  0.16981622313E+04  0.17086388306E+04  0.16500000000E+03 0.  0.
   -5000001    1    1    2    0    0 -0.56968839922E+02  0.72258153001E+02  0.14033119659E+04  0.14159718087E+04  0.16500000000E+03 0.  0.
<mgrwt>
<rscale>  0 0.37953847E+03</rscale>
<asrwt>0</asrwt>
<pdfrwt beam="1">  1        2 0.47892951E+00 0.37953847E+03</pdfrwt>
<pdfrwt beam="2">  1       -2 0.17797267E-02 0.37953847E+03</pdfrwt>
<totfact> 0.16133487E+03</totfact>
</mgrwt>
</event>
<event>
 4    1  0.3213443E-005  0.3892299E+03  0.7818608E-02  0.1047574E+00
          2   -1    0    0  501    0  0.00000000000E+00  0.00000000000E+00  0.10022283038E+04  0.10022283038E+04  0.25500000000E-02 0.  1.
         -2   -1    0    0    0  501 -0.00000000000E+00 -0.00000000000E+00 -0.37790776936E+02  0.37790777022E+02  0.25500000000E-02 0. -1.
    5000001    1    1    2    0    0  0.13049671771E+02  0.72935762659E+02  0.29027998094E+03  0.34201957070E+03  0.16500000000E+03 0.  0.
   -5000001    1    1    2    0    0 -0.13049671771E+02 -0.72935762659E+02  0.67415754594E+03  0.69799951014E+03  0.16500000000E+03 0.  0.
<mgrwt>
<rscale>  0 0.38922994E+03</rscale>
<asrwt>0</asrwt>
<pdfrwt beam="1">  1        2 0.15418896E+00 0.38922994E+03</pdfrwt>
<pdfrwt beam="2">  1       -2 0.58139660E-02 0.38922994E+03</pdfrwt>
<totfact> 0.40840546E+03</totfact>
</mgrwt>
</event>
<event>
 4    1  0.3213443E-005  0.4678776E+03  0.7818608E-02  0.1022521E+00
          2   -1    0    0  501    0  0.00000000000E+00  0.00000000000E+00  0.83827099251E+03  0.83827099251E+03  0.25500000000E-02 0.  1.
         -2   -1    0    0    0  501 -0.00000000000E+00 -0.00000000000E+00 -0.65286006103E+02  0.65286006152E+02  0.25500000000E-02 0. -1.
    5000001    1    1    2    0    0  0.59838194630E+02  0.14423436693E+03  0.49433140143E+03  0.54403372743E+03  0.16500000000E+03 0.  0.
   -5000001    1    1    2    0    0 -0.59838194630E+02 -0.14423436693E+03  0.27865358498E+03  0.35952327124E+03  0.16500000000E+03 0.  0.
<mgrwt>
<rscale>  0 0.46787761E+03</rscale>
<asrwt>0</asrwt>
<pdfrwt beam="1">  1        2 0.12896477E+00 0.46787761E+03</pdfrwt>
<pdfrwt beam="2">  1       -2 0.10044001E-01 0.46787761E+03</pdfrwt>
<totfact> 0.22069647E+03</totfact>
</mgrwt>
</event>
<event>
 4    1  0.3213443E-005  0.1619456E+04  0.7818608E-02  0.8808684E-01
          2   -1    0    0  501    0  0.00000000000E+00  0.00000000000E+00  0.54583314485E+03  0.54583314485E+03  0.25500000000E-02 0.  1.
         -2   -1    0    0    0  501 -0.00000000000E+00 -0.00000000000E+00 -0.12012092657E+04  0.12012092657E+04  0.25500000000E-02 0. -1.
    5000001    1    1    2    0    0 -0.63533974386E+03  0.43105521214E+03 -0.54064774193E+03  0.95340975813E+03  0.16500000000E+03 0.  0.
   -5000001    1    1    2    0    0  0.63533974386E+03 -0.43105521214E+03 -0.11472837890E+03  0.79363265241E+03  0.16500000000E+03 0.  0.
<mgrwt>
<rscale>  0 0.16194565E+04</rscale>
<asrwt>0</asrwt>
<pdfrwt beam="1">  1        2 0.83974330E-01 0.16194565E+04</pdfrwt>
<pdfrwt beam="2">  1       -2 0.18480143E+00 0.16194565E+04</pdfrwt>
<totfact> 0.89308929E+00</totfact>
</mgrwt>
</event>
<event>
 4    1  0.3213443E-005  0.4170638E+03  0.7818608E-02  0.1038026E+00
         -2   -1    0    0    0  501 -0.00000000000E+00  0.00000000000E+00  0.89617611266E+02  0.89617611302E+02  0.25500000000E-02 0. -1.
          2   -1    0    0  501    0  0.00000000000E+00 -0.00000000000E+00 -0.48523445662E+03  0.48523445663E+03  0.25500000000E-02 0.  1.
    5000001    1    1    2    0    0 -0.79372702033E+02 -0.43919609400E+02 -0.74283524535E+02  0.20241541427E+03  0.16500000000E+03 0.  0.
   -5000001    1    1    2    0    0  0.79372702033E+02  0.43919609400E+02 -0.32133332082E+03  0.37243665365E+03  0.16500000000E+03 0.  0.
<mgrwt>
<rscale>  0 0.41706380E+03</rscale>
<asrwt>0</asrwt>
<pdfrwt beam="1">  1        2 0.74651454E-01 0.41706380E+03</pdfrwt>
<pdfrwt beam="2">  1       -2 0.13787325E-01 0.41706380E+03</pdfrwt>
<totfact> 0.25511143E+03</totfact>
</mgrwt>
</event>
<event>
 4    1  0.3213443E-005  0.8066630E+03  0.7818608E-02  0.9550422E-01
         -2   -1    0    0    0  501 -0.00000000000E+00  0.00000000000E+00  0.26758935329E+03  0.26758935331E+03  0.25500000000E-02 0. -1.
          2   -1    0    0  501    0  0.00000000000E+00 -0.00000000000E+00 -0.60793264148E+03  0.60793264149E+03  0.25500000000E-02 0.  1.
    5000001    1    1    2    0    0  0.73771194700E+02 -0.35302499845E+03 -0.90543705385E+02  0.40680708116E+03  0.16500000000E+03 0.  0.
   -5000001    1    1    2    0    0 -0.73771194700E+02  0.35302499845E+03 -0.24979958280E+03  0.46871491364E+03  0.16500000000E+03 0.  0.
<mgrwt>
<rscale>  0 0.80666301E+03</rscale>
<asrwt>0</asrwt>
<pdfrwt beam="1">  1        2 0.93528099E-01 0.80666301E+03</pdfrwt>
<pdfrwt beam="2">  1       -2 0.41167593E-01 0.80666301E+03</pdfrwt>
<totfact> 0.27441835E+02</totfact>
</mgrwt>
</event>
<event>
 4    1  0.3213443E-005  0.4715725E+03  0.7818608E-02  0.1021477E+00
         -2   -1    0    0    0  501 -0.00000000000E+00  0.00000000000E+00  0.29832829515E+02  0.29832829624E+02  0.25500000000E-02 0. -1.
          2   -1    0    0  501    0  0.00000000000E+00 -0.00000000000E+00 -0.18635563285E+04  0.18635563285E+04  0.25500000000E-02 0.  1.
    5000001    1    1    2    0    0 -0.61448115728E+02 -0.15063847841E+03 -0.74174203317E+03  0.77709334438E+03  0.16500000000E+03 0.  0.
   -5000001    1    1    2    0    0  0.61448115728E+02  0.15063847841E+03 -0.10919814658E+04  0.11162958137E+04  0.16500000000E+03 0.  0.
<mgrwt>
<rscale>  0 0.47157251E+03</rscale>
<asrwt>0</asrwt>
<pdfrwt beam="1">  1        2 0.28670088E+00 0.47157251E+03</pdfrwt>
<pdfrwt beam="2">  1       -2 0.45896676E-02 0.47157251E+03</pdfrwt>
<totfact> 0.19355538E+03</totfact>
</mgrwt>
</event>
<event>
 4    1  0.3213443E-005  0.4705518E+03  0.7818608E-02  0.1021765E+00
          2   -1    0    0  501    0  0.00000000000E+00  0.00000000000E+00  0.71284598106E+03  0.71284598106E+03  0.25500000000E-02 0.  1.
         -2   -1    0    0    0  501 -0.00000000000E+00 -0.00000000000E+00 -0.77653174641E+02  0.77653174683E+02  0.25500000000E-02 0. -1.
    5000001    1    1    2    0    0 -0.69974646414E+02 -0.14721649503E+03  0.38396162963E+03  0.44857628178E+03  0.16500000000E+03 0.  0.
   -5000001    1    1    2    0    0  0.69974646414E+02  0.14721649503E+03  0.25123117679E+03  0.34192287396E+03  0.16500000000E+03 0.  0.
<mgrwt>
<rscale>  0 0.47055182E+03</rscale>
<asrwt>0</asrwt>
<pdfrwt beam="1">  1        2 0.10966861E+00 0.47055182E+03</pdfrwt>
<pdfrwt beam="2">  1       -2 0.11946642E-01 0.47055182E+03</pdfrwt>
<totfact> 0.20508607E+03</totfact>
</mgrwt>
</event>
<event>
 4    1  0.3213443E-005  0.4198669E+03  0.7818608E-02  0.1037110E+00
         -2   -1    0    0    0  501 -0.00000000000E+00  0.00000000000E+00  0.45563221821E+02  0.45563221892E+02  0.25500000000E-02 0. -1.
          2   -1    0    0  501    0  0.00000000000E+00 -0.00000000000E+00 -0.96727244853E+03  0.96727244854E+03  0.25500000000E-02 0.  1.
    5000001    1    1    2    0    0 -0.62959204677E+02 -0.76733196946E+02 -0.66261112899E+03  0.69002199474E+03  0.16500000000E+03 0.  0.
   -5000001    1    1    2    0    0  0.62959204677E+02  0.76733196946E+02 -0.25909809772E+03  0.32281367569E+03  0.16500000000E+03 0.  0.
<mgrwt>
<rscale>  0 0.41986688E+03</rscale>
<asrwt>0</asrwt>
<pdfrwt beam="1">  1        2 0.14881113E+00 0.41986688E+03</pdfrwt>
<pdfrwt beam="2">  1       -2 0.70097272E-02 0.41986688E+03</pdfrwt>
<totfact> 0.32122149E+03</totfact>
</mgrwt>
</event>
<event>
 4    1  0.3213443E-005  0.5726334E+03  0.7818608E-02  0.9963868E-01
          2   -1    0    0  501    0  0.00000000000E+00  0.00000000000E+00  0.23842070143E+04  0.23842070143E+04  0.25500000000E-02 0.  1.
         -2   -1    0    0    0  501 -0.00000000000E+00 -0.00000000000E+00 -0.34383448054E+02  0.34383448149E+02  0.25500000000E-02 0. -1.
    5000001    1    1    2    0    0 -0.15570490411E+03 -0.13692397628E+03  0.16329381927E+04  0.16542987438E+04  0.16500000000E+03 0.  0.
   -5000001    1    1    2    0    0  0.15570490411E+03  0.13692397628E+03  0.71688537354E+03  0.76429171868E+03  0.16500000000E+03 0.  0.
<mgrwt>
<rscale>  0 0.57263342E+03</rscale>
<asrwt>0</asrwt>
<pdfrwt beam="1">  1        2 0.36680114E+00 0.57263342E+03</pdfrwt>
<pdfrwt beam="2">  1       -2 0.52897603E-02 0.57263342E+03</pdfrwt>
<totfact> 0.80494651E+02</totfact>
</mgrwt>
</event>
<event>
 4    1  0.3213443E-005  0.4584473E+03  0.7818608E-02  0.1025233E+00
         -2   -1    0    0    0  501 -0.00000000000E+00  0.00000000000E+00  0.10548370898E+03  0.10548370901E+03  0.25500000000E-02 0. -1.
          2   -1    0    0  501    0  0.00000000000E+00 -0.00000000000E+00 -0.49811936255E+03  0.49811936256E+03  0.25500000000E-02 0.  1.
    5000001    1    1    2    0    0  0.84135987304E+02  0.13457067440E+03 -0.21134968798E+03  0.31157955866E+03  0.16500000000E+03 0.  0.
   -5000001    1    1    2    0    0 -0.84135987304E+02 -0.13457067440E+03 -0.18128596559E+03  0.29202351290E+03  0.16500000000E+03 0.  0.
<mgrwt>
<rscale>  0 0.45844728E+03</rscale>
<asrwt>0</asrwt>
<pdfrwt beam="1">  1        2 0.76633747E-01 0.45844728E+03</pdfrwt>
<pdfrwt beam="2">  1       -2 0.16228263E-01 0.45844728E+03</pdfrwt>
<totfact> 0.18870970E+03</totfact>
</mgrwt>
</event>
<event>
 4    1  0.3213443E-005  0.5077223E+03  0.7818608E-02  0.1011783E+00
         -2   -1    0    0    0  501 -0.00000000000E+00  0.00000000000E+00  0.33853765796E+02  0.33853765892E+02  0.25500000000E-02 0. -1.
          2   -1    0    0  501    0  0.00000000000E+00 -0.00000000000E+00 -0.19036431892E+04  0.19036431893E+04  0.25500000000E-02 0.  1.
    5000001    1    1    2    0    0  0.86591204925E+02  0.17236945408E+03 -0.92210932174E+03  0.95640988426E+03  0.16500000000E+03 0.  0.
   -5000001    1    1    2    0    0 -0.86591204925E+02 -0.17236945408E+03 -0.94768010172E+03  0.98108707089E+03  0.16500000000E+03 0.  0.
<mgrwt>
<rscale>  0 0.50772233E+03</rscale>
<asrwt>0</asrwt>
<pdfrwt beam="1">  1        2 0.29286810E+00 0.50772233E+03</pdfrwt>
<pdfrwt beam="2">  1       -2 0.52082732E-02 0.50772233E+03</pdfrwt>
<totfact> 0.15127618E+03</totfact>
</mgrwt>
</event>
<event>
 4    1  0.3213443E-005  0.5033737E+03  0.7818608E-02  0.1012902E+00
          2   -1    0    0  501    0  0.00000000000E+00  0.00000000000E+00  0.29572905113E+03  0.29572905114E+03  0.25500000000E-02 0.  1.
         -2   -1    0    0    0  501 -0.00000000000E+00 -0.00000000000E+00 -0.21420376353E+03  0.21420376355E+03  0.25500000000E-02 0. -1.
    5000001    1    1    2    0    0  0.83992042398E+02  0.13690194376E+03  0.14369604227E+03  0.27142283978E+03  0.16500000000E+03 0.  0.
   -5000001    1    1    2    0    0 -0.83992042398E+02 -0.13690194376E+03 -0.62170754681E+02  0.23850997490E+03  0.16500000000E+03 0.  0.
<mgrwt>
<rscale>  0 0.50337372E+03</rscale>
<asrwt>0</asrwt>
<pdfrwt beam="1">  1        2 0.45496777E-01 0.50337372E+03</pdfrwt>
<pdfrwt beam="2">  1       -2 0.32954425E-01 0.50337372E+03</pdfrwt>
<totfact> 0.96042900E+02</totfact>
</mgrwt>
</event>
<event>
 4    1  0.3213443E-005  0.8748565E+03  0.7818608E-02  0.9457570E-01
          2   -1    0    0  501    0  0.00000000000E+00  0.00000000000E+00  0.20505312639E+04  0.20505312639E+04  0.25500000000E-02 0.  1.
         -2   -1    0    0    0  501 -0.00000000000E+00 -0.00000000000E+00 -0.93314100776E+02  0.93314100811E+02  0.25500000000E-02 0. -1.
    5000001    1    1    2    0    0  0.30775904305E+03 -0.26285371417E+03  0.10218083428E+04  0.11113617741E+04  0.16500000000E+03 0.  0.
   -5000001    1    1    2    0    0 -0.30775904305E+03  0.26285371417E+03  0.93540882034E+03  0.10324835906E+04  0.16500000000E+03 0.  0.
<mgrwt>
<rscale>  0 0.87485652E+03</rscale>
<asrwt>0</asrwt>
<pdfrwt beam="1">  1        2 0.31546632E+00 0.87485652E+03</pdfrwt>
<pdfrwt beam="2">  1       -2 0.14356017E-01 0.87485652E+03</pdfrwt>
<totfact> 0.23975976E+02</totfact>
</mgrwt>
</event>
<event>
 4    1  0.3213443E-005  0.6232538E+03  0.7818608E-02  0.9858303E-01
         -2   -1    0    0    0  501 -0.00000000000E+00  0.00000000000E+00  0.11473910924E+03  0.11473910927E+03  0.25500000000E-02 0. -1.
          2   -1    0    0  501    0  0.00000000000E+00 -0.00000000000E+00 -0.84636651438E+03  0.84636651439E+03  0.25500000000E-02 0.  1.
    5000001    1    1    2    0    0 -0.20811036367E+03 -0.11773481010E+03 -0.53969911636E+03  0.61292050477E+03  0.16500000000E+03 0.  0.
   -5000001    1    1    2    0    0  0.20811036367E+03  0.11773481010E+03 -0.19192828878E+03  0.34818511888E+03  0.16500000000E+03 0.  0.
<mgrwt>
<rscale>  0 0.62325385E+03</rscale>
<asrwt>0</asrwt>
<pdfrwt beam="1">  1        2 0.13021023E+00 0.62325385E+03</pdfrwt>
<pdfrwt beam="2">  1       -2 0.17652171E-01 0.62325385E+03</pdfrwt>
<totfact> 0.85188509E+02</totfact>
</mgrwt>
</event>
<event>
 4    1  0.3213443E-005  0.6200743E+03  0.7818608E-02  0.9864612E-01
         -2   -1    0    0    0  501 -0.00000000000E+00  0.00000000000E+00  0.50758780314E+02  0.50758780378E+02  0.25500000000E-02 0. -1.
          2   -1    0    0  501    0  0.00000000000E+00 -0.00000000000E+00 -0.18937224365E+04  0.18937224365E+04  0.25500000000E-02 0.  1.
    5000001    1    1    2    0    0 -0.92675172227E+02  0.24062229175E+03 -0.76752727943E+03  0.82632372561E+03  0.16500000000E+03 0.  0.
   -5000001    1    1    2    0    0  0.92675172227E+02 -0.24062229175E+03 -0.10754363767E+04  0.11181574912E+04  0.16500000000E+03 0.  0.
<mgrwt>
<rscale>  0 0.62007432E+03</rscale>
<asrwt>0</asrwt>
<pdfrwt beam="1">  1        2 0.29134186E+00 0.62007432E+03</pdfrwt>
<pdfrwt beam="2">  1       -2 0.78090446E-02 0.62007432E+03</pdfrwt>
<totfact> 0.80547227E+02</totfact>
</mgrwt>
</event>
<event>
 4    1  0.3213443E-005  0.7432230E+03  0.7818608E-02  0.9646043E-01
          2   -1    0    0  501    0  0.00000000000E+00  0.00000000000E+00  0.16046639037E+04  0.16046639037E+04  0.25500000000E-02 0.  1.
         -2   -1    0    0    0  501 -0.00000000000E+00 -0.00000000000E+00 -0.86058585804E+02  0.86058585841E+02  0.25500000000E-02 0. -1.
    5000001    1    1    2    0    0 -0.51255570188E+02  0.31836594831E+03  0.94807558978E+03  0.10149169101E+04  0.16500000000E+03 0.  0.
   -5000001    1    1    2    0    0  0.51255570188E+02 -0.31836594831E+03  0.57052972814E+03  0.67580557944E+03  0.16500000000E+03 0.  0.
<mgrwt>
<rscale>  0 0.74322300E+03</rscale>
<asrwt>0</asrwt>
<pdfrwt beam="1">  1        2 0.24687137E+00 0.74322300E+03</pdfrwt>
<pdfrwt beam="2">  1       -2 0.13239783E-01 0.74322300E+03</pdfrwt>
<totfact> 0.48620864E+02</totfact>
</mgrwt>
</event>
<event>
 4    1  0.3213443E-005  0.9765923E+03  0.7818608E-02  0.9334597E-01
         -2   -1    0    0    0  501 -0.00000000000E+00  0.00000000000E+00  0.53419638561E+03  0.53419638562E+03  0.25500000000E-02 0. -1.
          2   -1    0    0  501    0  0.00000000000E+00 -0.00000000000E+00 -0.44633987369E+03  0.44633987370E+03  0.25500000000E-02 0.  1.
    5000001    1    1    2    0    0  0.33344753905E+03  0.12882522992E+03 -0.24607195522E+03  0.46428397378E+03  0.16500000000E+03 0.  0.
   -5000001    1    1    2    0    0 -0.33344753905E+03 -0.12882522992E+03  0.33392846714E+03  0.51625228554E+03  0.16500000000E+03 0.  0.
<mgrwt>
<rscale>  0 0.97659234E+03</rscale>
<asrwt>0</asrwt>
<pdfrwt beam="1">  1        2 0.68667673E-01 0.97659234E+03</pdfrwt>
<pdfrwt beam="2">  1       -2 0.82184059E-01 0.97659234E+03</pdfrwt>
<totfact> 0.91341481E+01</totfact>
</mgrwt>
</event>
<event>
 4    1  0.3213443E-005  0.4631185E+03  0.7818608E-02  0.1023881E+00
         -2   -1    0    0    0  501 -0.00000000000E+00  0.00000000000E+00  0.13951416333E+04  0.13951416333E+04  0.25500000000E-02 0. -1.
          2   -1    0    0  501    0  0.00000000000E+00 -0.00000000000E+00 -0.38433149757E+02  0.38433149841E+02  0.25500000000E-02 0.  1.
    5000001    1    1    2    0    0 -0.58821542159E+02  0.76406697499E+02  0.10831022749E+04  0.10998333943E+04  0.16500000000E+03 0.  0.
   -5000001    1    1    2    0    0  0.58821542159E+02 -0.76406697499E+02  0.27360620866E+03  0.33374138889E+03  0.16500000000E+03 0.  0.
<mgrwt>
<rscale>  0 0.46311850E+03</rscale>
<asrwt>0</asrwt>
<pdfrwt beam="1">  1        2 0.59127918E-02 0.46311850E+03</pdfrwt>
<pdfrwt beam="2">  1       -2 0.21463719E+00 0.46311850E+03</pdfrwt>
<totfact> 0.14597379E+02</totfact>
</mgrwt>
</event>
<event>
 4    1  0.3213443E-005  0.6177751E+03  0.7818608E-02  0.9869200E-01
          2   -1    0    0  501    0  0.00000000000E+00  0.00000000000E+00  0.31447015429E+03  0.31447015430E+03  0.25500000000E-02 0.  1.
         -2   -1    0    0    0  501 -0.00000000000E+00 -0.00000000000E+00 -0.30340403829E+03  0.30340403830E+03  0.25500000000E-02 0. -1.
    5000001    1    1    2    0    0 -0.32133548567E+02 -0.25907344039E+03  0.11441821097E+02  0.30904292214E+03  0.16500000000E+03 0.  0.
   -5000001    1    1    2    0    0  0.32133548567E+02  0.25907344039E+03 -0.37570509137E+00  0.30883127046E+03  0.16500000000E+03 0.  0.
<mgrwt>
<rscale>  0 0.61777509E+03</rscale>
<asrwt>0</asrwt>
<pdfrwt beam="1">  1        2 0.48380023E-01 0.61777509E+03</pdfrwt>
<pdfrwt beam="2">  1       -2 0.46677545E-01 0.61777509E+03</pdfrwt>
<totfact> 0.45721247E+02</totfact>
</mgrwt>
</event>
<event>
 4    1  0.3213443E-005  0.5860354E+03  0.7818608E-02  0.9934809E-01
          2   -1    0    0  501    0  0.00000000000E+00  0.00000000000E+00  0.46773898759E+03  0.46773898760E+03  0.25500000000E-02 0.  1.
         -2   -1    0    0    0  501 -0.00000000000E+00 -0.00000000000E+00 -0.18356256142E+03  0.18356256144E+03  0.25500000000E-02 0. -1.
    5000001    1    1    2    0    0 -0.18879220028E+03  0.86546966391E+01  0.31033115513E+03  0.39905867301E+03  0.16500000000E+03 0.  0.
   -5000001    1    1    2    0    0  0.18879220028E+03 -0.86546966391E+01 -0.26154728963E+02  0.25224287603E+03  0.16500000000E+03 0.  0.
<mgrwt>
<rscale>  0 0.58603538E+03</rscale>
<asrwt>0</asrwt>
<pdfrwt beam="1">  1        2 0.71959843E-01 0.58603538E+03</pdfrwt>
<pdfrwt beam="2">  1       -2 0.28240394E-01 0.58603538E+03</pdfrwt>
<totfact> 0.76674352E+02</totfact>
</mgrwt>
</event>
<event>
 4    1  0.3213443E-005  0.3683139E+03  0.7818608E-02  0.1055340E+00
          2   -1    0    0  501    0  0.00000000000E+00  0.00000000000E+00  0.14814944116E+03  0.14814944118E+03  0.25500000000E-02 0.  1.
         -2   -1    0    0    0  501 -0.00000000000E+00 -0.00000000000E+00 -0.22891597825E+03  0.22891597826E+03  0.25500000000E-02 0. -1.
    5000001    1    1    2    0    0 -0.15096070755E+02  0.79818819302E+02 -0.50086828059E+02  0.19061118963E+03  0.16500000000E+03 0.  0.
   -5000001    1    1    2    0    0  0.15096070755E+02 -0.79818819302E+02 -0.30679709031E+02  0.18645422981E+03  0.16500000000E+03 0.  0.
<mgrwt>
<rscale>  0 0.36831386E+03</rscale>
<asrwt>0</asrwt>
<pdfrwt beam="1">  1        2 0.22792222E-01 0.36831386E+03</pdfrwt>
<pdfrwt beam="2">  1       -2 0.35217843E-01 0.36831386E+03</pdfrwt>
<totfact> 0.18247509E+03</totfact>
</mgrwt>
</event>
<event>
 4    1  0.3213443E-005  0.4672661E+03  0.7818608E-02  0.1022695E+00
         -2   -1    0    0    0  501 -0.00000000000E+00  0.00000000000E+00  0.53631646463E+02  0.53631646523E+02  0.25500000000E-02 0. -1.
          2   -1    0    0  501    0  0.00000000000E+00 -0.00000000000E+00 -0.10177650154E+04  0.10177650154E+04  0.25500000000E-02 0.  1.
    5000001    1    1    2    0    0  0.38372085194E+01  0.15889839798E+03 -0.37709300650E+03  0.44123413354E+03  0.16500000000E+03 0.  0.
   -5000001    1    1    2    0    0 -0.38372085194E+01 -0.15889839798E+03 -0.58704036246E+03  0.63016252841E+03  0.16500000000E+03 0.  0.
<mgrwt>
<rscale>  0 0.46726615E+03</rscale>
<asrwt>0</asrwt>
<pdfrwt beam="1">  1        2 0.15657922E+00 0.46726615E+03</pdfrwt>
<pdfrwt beam="2">  1       -2 0.82510233E-02 0.46726615E+03</pdfrwt>
<totfact> 0.23091668E+03</totfact>
</mgrwt>
</event>
<event>
 4    1  0.3213443E-005  0.4364927E+03  0.7818608E-02  0.1031828E+00
          2   -1    0    0  501    0  0.00000000000E+00  0.00000000000E+00  0.24433682265E+04  0.24433682265E+04  0.25500000000E-02 0.  1.
         -2   -1    0    0    0  501 -0.00000000000E+00 -0.00000000000E+00 -0.19494185946E+02  0.19494186113E+02  0.25500000000E-02 0. -1.
    5000001    1    1    2    0    0 -0.14101048125E+02  0.14157491822E+03  0.12842340161E+04  0.13025837037E+04  0.16500000000E+03 0.  0.
   -5000001    1    1    2    0    0  0.14101048125E+02 -0.14157491822E+03  0.11396400244E+04  0.11602787089E+04  0.16500000000E+03 0.  0.
<mgrwt>
<rscale>  0 0.43649273E+03</rscale>
<asrwt>0</asrwt>
<pdfrwt beam="1">  1        2 0.37590260E+00 0.43649273E+03</pdfrwt>
<pdfrwt beam="2">  1       -2 0.29991072E-02 0.43649273E+03</pdfrwt>
<totfact> 0.17982416E+03</totfact>
</mgrwt>
</event>
<event>
 4    1  0.3213443E-005  0.7174599E+03  0.7818608E-02  0.9687831E-01
         -2   -1    0    0    0  501 -0.00000000000E+00  0.00000000000E+00  0.89136025719E+02  0.89136025756E+02  0.25500000000E-02 0. -1.
          2   -1    0    0  501    0  0.00000000000E+00 -0.00000000000E+00 -0.14437166823E+04  0.14437166823E+04  0.25500000000E-02 0.  1.
    5000001    1    1    2    0    0 -0.18121159233E+03  0.24244349466E+03 -0.88928533142E+03  0.95376616105E+03  0.16500000000E+03 0.  0.
   -5000001    1    1    2    0    0  0.18121159233E+03 -0.24244349466E+03 -0.46529532517E+03  0.57908654700E+03  0.16500000000E+03 0.  0.
<mgrwt>
<rscale>  0 0.71745987E+03</rscale>
<asrwt>0</asrwt>
<pdfrwt beam="1">  1        2 0.22211024E+00 0.71745987E+03</pdfrwt>
<pdfrwt beam="2">  1       -2 0.13713236E-01 0.71745987E+03</pdfrwt>
<totfact> 0.56397641E+02</totfact>
</mgrwt>
</event>
<event>
 4    1  0.3213443E-005  0.5370246E+03  0.7818608E-02  0.1004543E+00
         -2   -1    0    0    0  501 -0.00000000000E+00  0.00000000000E+00  0.12329018731E+03  0.12329018734E+03  0.25500000000E-02 0. -1.
          2   -1    0    0  501    0  0.00000000000E+00 -0.00000000000E+00 -0.58478984329E+03  0.58478984330E+03  0.25500000000E-02 0.  1.
    5000001    1    1    2    0    0 -0.22147899634E+02  0.19847275274E+03 -0.13759174861E+03  0.29332311931E+03  0.16500000000E+03 0.  0.
   -5000001    1    1    2    0    0  0.22147899634E+02 -0.19847275274E+03 -0.32390790737E+03  0.41475691133E+03  0.16500000000E+03 0.  0.
<mgrwt>
<rscale>  0 0.53702458E+03</rscale>
<asrwt>0</asrwt>
<pdfrwt beam="1">  1        2 0.89967666E-01 0.53702458E+03</pdfrwt>
<pdfrwt beam="2">  1       -2 0.18967722E-01 0.53702458E+03</pdfrwt>
<totfact> 0.12001568E+03</totfact>
</mgrwt>
</event>
<event>
 4    1  0.3213443E-005  0.6116620E+03  0.7818608E-02  0.9881502E-01
          2   -1    0    0  501    0  0.00000000000E+00  0.00000000000E+00  0.13013199932E+04  0.13013199932E+04  0.25500000000E-02 0.  1.
         -2   -1    0    0    0  501 -0.00000000000E+00 -0.00000000000E+00 -0.71875164164E+02  0.71875164209E+02  0.25500000000E-02 0. -1.
    5000001    1    1    2    0    0  0.13806798146E+03  0.11646483308E+03  0.20270862230E+03  0.31771466822E+03  0.16500000000E+03 0.  0.
   -5000001    1    1    2    0    0 -0.13806798146E+03 -0.11646483308E+03  0.10267362067E+04  0.10554804892E+04  0.16500000000E+03 0.  0.
<mgrwt>
<rscale>  0 0.61166196E+03</rscale>
<asrwt>0</asrwt>
<pdfrwt beam="1">  1        2 0.20020308E+00 0.61166196E+03</pdfrwt>
<pdfrwt beam="2">  1       -2 0.11057717E-01 0.61166196E+03</pdfrwt>
<totfact> 0.97419303E+02</totfact>
</mgrwt>
</event>
<event>
 4    1  0.3213443E-005  0.7882769E+03  0.7818608E-02  0.9577143E-01
          2   -1    0    0  501    0  0.00000000000E+00  0.00000000000E+00  0.36901271903E+04  0.36901271903E+04  0.25500000000E-02 0.  1.
         -2   -1    0    0    0  501 -0.00000000000E+00 -0.00000000000E+00 -0.42097497880E+02  0.42097497957E+02  0.25500000000E-02 0. -1.
    5000001    1    1    2    0    0 -0.24624320222E+03 -0.90183979594E+02  0.67055113427E+03  0.73866953943E+03  0.16500000000E+03 0.  0.
   -5000001    1    1    2    0    0  0.24624320222E+03  0.90183979594E+02  0.29774785582E+04  0.29935551489E+04  0.16500000000E+03 0.  0.
<mgrwt>
<rscale>  0 0.78827691E+03</rscale>
<asrwt>0</asrwt>
<pdfrwt beam="1">  1        2 0.56771193E+00 0.78827691E+03</pdfrwt>
<pdfrwt beam="2">  1       -2 0.64765375E-02 0.78827691E+03</pdfrwt>
<totfact> 0.88197569E+01</totfact>
</mgrwt>
</event>
<event>
 4    1  0.3213443E-005  0.3432853E+03  0.7818608E-02  0.1065405E+00
          2   -1    0    0  501    0  0.00000000000E+00  0.00000000000E+00  0.58642630106E+03  0.58642630106E+03  0.25500000000E-02 0.  1.
         -2   -1    0    0    0  501 -0.00000000000E+00 -0.00000000000E+00 -0.50238551136E+02  0.50238551201E+02  0.25500000000E-02 0. -1.
    5000001    1    1    2    0    0 -0.27662675027E+02 -0.38352804306E+02  0.26769374031E+03  0.31799543989E+03  0.16500000000E+03 0.  0.
   -5000001    1    1    2    0    0  0.27662675027E+02  0.38352804306E+02  0.26849400961E+03  0.31866941238E+03  0.16500000000E+03 0.  0.
<mgrwt>
<rscale>  0 0.34328535E+03</rscale>
<asrwt>0</asrwt>
<pdfrwt beam="1">  1        2 0.90219435E-01 0.34328535E+03</pdfrwt>
<pdfrwt beam="2">  1       -2 0.77290075E-02 0.34328535E+03</pdfrwt>
<totfact> 0.51913146E+03</totfact>
</mgrwt>
</event>
<event>
 4    1  0.3213443E-005  0.4169028E+03  0.7818608E-02  0.1038079E+00
          2   -1    0    0  501    0  0.00000000000E+00  0.00000000000E+00  0.90222532682E+03  0.90222532683E+03  0.25500000000E-02 0.  1.
         -2   -1    0    0    0  501 -0.00000000000E+00 -0.00000000000E+00 -0.48160911532E+02  0.48160911600E+02  0.25500000000E-02 0. -1.
    5000001    1    1    2    0    0 -0.45568681568E+02  0.11847443548E+03  0.45140379423E+03  0.49709464093E+03  0.16500000000E+03 0.  0.
   -5000001    1    1    2    0    0  0.45568681568E+02 -0.11847443548E+03  0.40266062107E+03  0.45329159750E+03  0.16500000000E+03 0.  0.
<mgrwt>
<rscale>  0 0.41690284E+03</rscale>
<asrwt>0</asrwt>
<pdfrwt beam="1">  1        2 0.13880389E+00 0.41690284E+03</pdfrwt>
<pdfrwt beam="2">  1       -2 0.74093716E-02 0.41690284E+03</pdfrwt>
<totfact> 0.32430946E+03</totfact>
</mgrwt>
</event>
<event>
 4    1  0.3213443E-005  0.9377835E+03  0.7818608E-02  0.9379545E-01
         -2   -1    0    0    0  501 -0.00000000000E+00  0.00000000000E+00  0.12613239692E+03  0.12613239695E+03  0.25500000000E-02 0. -1.
          2   -1    0    0  501    0  0.00000000000E+00 -0.00000000000E+00 -0.17430848166E+04  0.17430848166E+04  0.25500000000E-02 0.  1.
    5000001    1    1    2    0    0 -0.20715379015E+03  0.19576158418E+03 -0.14737465776E+04  0.15100957803E+04  0.16500000000E+03 0.  0.
   -5000001    1    1    2    0    0  0.20715379015E+03 -0.19576158418E+03 -0.14320584203E+03  0.35912143323E+03  0.16500000000E+03 0.  0.
<mgrwt>
<rscale>  0 0.93778348E+03</rscale>
<asrwt>0</asrwt>
<pdfrwt beam="1">  1        2 0.26816688E+00 0.93778348E+03</pdfrwt>
<pdfrwt beam="2">  1       -2 0.19404985E-01 0.93778348E+03</pdfrwt>
<totfact> 0.20979825E+02</totfact>
</mgrwt>
</event>
<event>
 4    1  0.3213443E-005  0.3775052E+03  0.7818608E-02  0.1051860E+00
         -2   -1    0    0    0  501 -0.00000000000E+00  0.00000000000E+00  0.28761352829E+03  0.28761352830E+03  0.25500000000E-02 0. -1.
          2   -1    0    0  501    0  0.00000000000E+00 -0.00000000000E+00 -0.12387295085E+03  0.12387295088E+03  0.25500000000E-02 0.  1.
    5000001    1    1    2    0    0  0.78527359689E+02 -0.37370450953E+02  0.11345140041E+03  0.21831013966E+03  0.16500000000E+03 0.  0.
   -5000001    1    1    2    0    0 -0.78527359689E+02  0.37370450953E+02  0.50289177024E+02  0.19317633952E+03  0.16500000000E+03 0.  0.
<mgrwt>
<rscale>  0 0.37750516E+03</rscale>
<asrwt>0</asrwt>
<pdfrwt beam="1">  1        2 0.19057377E-01 0.37750516E+03</pdfrwt>
<pdfrwt beam="2">  1       -2 0.44248235E-01 0.37750516E+03</pdfrwt>
<totfact> 0.14473191E+03</totfact>
</mgrwt>
</event>
<event>
 4    1  0.3213443E-005  0.1184291E+04  0.7818608E-02  0.9126718E-01
         -2   -1    0    0    0  501 -0.00000000000E+00  0.00000000000E+00  0.11843223982E+03  0.11843223985E+03  0.25500000000E-02 0.  1.
          2   -1    0    0  501    0  0.00000000000E+00 -0.00000000000E+00 -0.29606510405E+04  0.29606510405E+04  0.25500000000E-02 0. -1.
    5000001    1    1    2    0    0  0.25222464430E+03  0.46235470924E+03 -0.86334932828E+03  0.10246883482E+04  0.16500000000E+03 0.  0.
   -5000001    1    1    2    0    0 -0.25222464430E+03 -0.46235470924E+03 -0.19788694724E+04  0.20543949322E+04  0.16500000000E+03 0.  0.
<mgrwt>
<rscale>  0 0.11842914E+04</rscale>
<asrwt>0</asrwt>
<pdfrwt beam="1">  1        2 0.45548472E+00 0.11842914E+04</pdfrwt>
<pdfrwt beam="2">  1       -2 0.18220347E-01 0.11842914E+04</pdfrwt>
<totfact> 0.46446626E+01</totfact>
</mgrwt>
</event>
