<event>
 4    1  0.6919593E-004  0.2926520E+03  0.7818608E-02  0.1088973E+00
         -2   -1    0    0    0  501 -0.00000000000E+00  0.00000000000E+00  0.67509715755E+02  0.67509715803E+02  0.25500000000E-02 0. -1.
          2   -1    0    0  501    0  0.00000000000E+00 -0.00000000000E+00 -0.31715886880E+03  0.31715886881E+03  0.25500000000E-02 0.  1.
    5000001    1    1    2    0    0  0.11902178197E+03 -0.26274169315E+02 -0.91943278362E+02  0.17099439463E+03  0.77000000000E+02 0.  0.
   -5000001    1    1    2    0    0 -0.11902178197E+03  0.26274169315E+02 -0.15770587469E+03  0.21367418999E+03  0.77000000000E+02 0.  0.
<mgrwt>
<rscale>  0 0.29265205E+03</rscale>
<asrwt>0</asrwt>
<pdfrwt beam="1">  1        2 0.45308409E-01 0.29265205E+03</pdfrwt>
<pdfrwt beam="2">  1       -2 0.96442453E-02 0.29265205E+03</pdfrwt>
<totfact> 0.78098755E+03</totfact>
</mgrwt>
</event>
<event>
 4    1  0.6919593E-004  0.2666372E+03  0.7818608E-02  0.1103220E+00
          2   -1    0    0  501    0  0.00000000000E+00  0.00000000000E+00  0.10709401712E+04  0.10709401712E+04  0.25500000000E-02 0.  1.
         -2   -1    0    0    0  501 -0.00000000000E+00 -0.00000000000E+00 -0.16596496941E+02  0.16596497137E+02  0.25500000000E-02 0. -1.
    5000001    1    1    2    0    0 -0.49556556321E+02  0.66242529664E+01  0.92146167923E+03  0.92602395180E+03  0.77000000000E+02 0.  0.
   -5000001    1    1    2    0    0  0.49556556321E+02 -0.66242529664E+01  0.13288199499E+03  0.16151271651E+03  0.77000000000E+02 0.  0.
<mgrwt>
<rscale>  0 0.26663725E+03</rscale>
<asrwt>0</asrwt>
<pdfrwt beam="1">  1        2 0.15299155E+00 0.26663725E+03</pdfrwt>
<pdfrwt beam="2">  1       -2 0.23709267E-02 0.26663725E+03</pdfrwt>
<totfact> 0.15847484E+04</totfact>
</mgrwt>
</event>
<event>
 4    1  0.6919593E-004  0.3232457E+03  0.7818608E-02  0.1074165E+00
          2   -1    0    0  501    0  0.00000000000E+00  0.00000000000E+00  0.14402180885E+03  0.14402180887E+03  0.25500000000E-02 0.  1.
         -2   -1    0    0    0  501 -0.00000000000E+00 -0.00000000000E+00 -0.18137495399E+03  0.18137495401E+03  0.25500000000E-02 0. -1.
    5000001    1    1    2    0    0 -0.12302439902E+03  0.65831183640E+02  0.84134984978E+01  0.15958864136E+03  0.77000000000E+02 0.  0.
   -5000001    1    1    2    0    0  0.12302439902E+03 -0.65831183640E+02 -0.45766643637E+02  0.16580812153E+03  0.77000000000E+02 0.  0.
<mgrwt>
<rscale>  0 0.32324572E+03</rscale>
<asrwt>0</asrwt>
<pdfrwt beam="1">  1        2 0.20574544E-01 0.32324572E+03</pdfrwt>
<pdfrwt beam="2">  1       -2 0.25910708E-01 0.32324572E+03</pdfrwt>
<totfact> 0.35887426E+03</totfact>
</mgrwt>
</event>
<event>
 4    1  0.6919593E-004  0.3163860E+03  0.7818608E-02  0.1077325E+00
         -2   -1    0    0    0  501 -0.00000000000E+00  0.00000000000E+00  0.27570245011E+02  0.27570245129E+02  0.25500000000E-02 0. -1.
          2   -1    0    0  501    0  0.00000000000E+00 -0.00000000000E+00 -0.90768209558E+03  0.90768209559E+03  0.25500000000E-02 0.  1.
    5000001    1    1    2    0    0 -0.43739326003E+02 -0.12323755971E+03 -0.30800974605E+03  0.34336515319E+03  0.77000000000E+02 0.  0.
   -5000001    1    1    2    0    0  0.43739326003E+02  0.12323755971E+03 -0.57210210452E+03  0.59188718753E+03  0.77000000000E+02 0.  0.
<mgrwt>
<rscale>  0 0.31638595E+03</rscale>
<asrwt>0</asrwt>
<pdfrwt beam="1">  1        2 0.12966885E+00 0.31638595E+03</pdfrwt>
<pdfrwt beam="2">  1       -2 0.39386070E-02 0.31638595E+03</pdfrwt>
<totfact> 0.93519782E+03</totfact>
</mgrwt>
</event>
<event>
 4    1  0.6919593E-004  0.2168291E+03  0.7818608E-02  0.1136269E+00
         -2   -1    0    0    0  501 -0.00000000000E+00  0.00000000000E+00  0.64825185988E+01  0.64825191003E+01  0.25500000000E-02 0. -1.
          2   -1    0    0  501    0  0.00000000000E+00 -0.00000000000E+00 -0.18131396344E+04  0.18131396344E+04  0.25500000000E-02 0.  1.
    5000001    1    1    2    0    0 -0.28584695189E+02 -0.67320898492E+02 -0.72032911072E+03  0.72811552375E+03  0.77000000000E+02 0.  0.
   -5000001    1    1    2    0    0  0.28584695189E+02  0.67320898492E+02 -0.10863280051E+04  0.10915066298E+04  0.77000000000E+02 0.  0.
<mgrwt>
<rscale>  0 0.21682907E+03</rscale>
<asrwt>0</asrwt>
<pdfrwt beam="1">  1        2 0.25901962E+00 0.21682907E+03</pdfrwt>
<pdfrwt beam="2">  1       -2 0.92607528E-03 0.21682907E+03</pdfrwt>
<totfact> 0.25697509E+04</totfact>
</mgrwt>
</event>
<event>
 4    1  0.6919593E-004  0.2047210E+03  0.7818608E-02  0.1145816E+00
         -2   -1    0    0    0  501 -0.00000000000E+00  0.00000000000E+00  0.91321681417E+01  0.91321684978E+01  0.25500000000E-02 0. -1.
          2   -1    0    0  501    0  0.00000000000E+00 -0.00000000000E+00 -0.11473367931E+04  0.11473367931E+04  0.25500000000E-02 0.  1.
    5000001    1    1    2    0    0 -0.27865898276E+02 -0.61032251107E+02 -0.60792403667E+03  0.61644308604E+03  0.77000000000E+02 0.  0.
   -5000001    1    1    2    0    0  0.27865898276E+02  0.61032251107E+02 -0.53028058825E+03  0.54002587552E+03  0.77000000000E+02 0.  0.
<mgrwt>
<rscale>  0 0.20472101E+03</rscale>
<asrwt>0</asrwt>
<pdfrwt beam="1">  1        2 0.16390516E+00 0.20472101E+03</pdfrwt>
<pdfrwt beam="2">  1       -2 0.13045962E-02 0.20472101E+03</pdfrwt>
<totfact> 0.33928105E+04</totfact>
</mgrwt>
</event>
<event>
 4    1  0.6919593E-004  0.9112761E+03  0.7818608E-02  0.9411594E-01
         -2   -1    0    0    0  501 -0.00000000000E+00  0.00000000000E+00  0.95748259920E+02  0.95748259954E+02  0.25500000000E-02 0. -1.
          2   -1    0    0  501    0  0.00000000000E+00 -0.00000000000E+00 -0.21682488463E+04  0.21682488463E+04  0.25500000000E-02 0.  1.
    5000001    1    1    2    0    0 -0.20048122467E+03  0.36395516445E+03 -0.14594855456E+04  0.15194351388E+04  0.77000000000E+02 0.  0.
   -5000001    1    1    2    0    0  0.20048122467E+03 -0.36395516445E+03 -0.61301504077E+03  0.74456196746E+03  0.77000000000E+02 0.  0.
<mgrwt>
<rscale>  0 0.91127615E+03</rscale>
<asrwt>0</asrwt>
<pdfrwt beam="1">  1        2 0.30974981E+00 0.91127615E+03</pdfrwt>
<pdfrwt beam="2">  1       -2 0.13678324E-01 0.91127615E+03</pdfrwt>
<totfact> 0.27193848E+02</totfact>
</mgrwt>
</event>
<event>
 4    1  0.6919593E-004  0.5752924E+03  0.7818608E-02  0.9958035E-01
          2   -1    0    0  501    0  0.00000000000E+00  0.00000000000E+00  0.97329045021E+03  0.97329045021E+03  0.25500000000E-02 0.  1.
         -2   -1    0    0    0  501 -0.00000000000E+00 -0.00000000000E+00 -0.85010953904E+02  0.85010953942E+02  0.25500000000E-02 0. -1.
    5000001    1    1    2    0    0  0.92579713923E+02 -0.23066611058E+03  0.66969379876E+03  0.71846826102E+03  0.77000000000E+02 0.  0.
   -5000001    1    1    2    0    0 -0.92579713923E+02  0.23066611058E+03  0.21858569754E+03  0.33983314313E+03  0.77000000000E+02 0.  0.
<mgrwt>
<rscale>  0 0.57529245E+03</rscale>
<asrwt>0</asrwt>
<pdfrwt beam="1">  1        2 0.13904149E+00 0.57529245E+03</pdfrwt>
<pdfrwt beam="2">  1       -2 0.12144423E-01 0.57529245E+03</pdfrwt>
<totfact> 0.14618349E+03</totfact>
</mgrwt>
</event>
<event>
 4    1  0.6919593E-004  0.3474350E+03  0.7818608E-02  0.1063673E+00
          2   -1    0    0  501    0  0.00000000000E+00  0.00000000000E+00  0.12943367961E+04  0.12943367961E+04  0.25500000000E-02 0.  1.
         -2   -1    0    0    0  501 -0.00000000000E+00 -0.00000000000E+00 -0.23315238094E+02  0.23315238234E+02  0.25500000000E-02 0. -1.
    5000001    1    1    2    0    0 -0.15439426734E+03  0.13614186982E+02  0.69250391975E+03  0.71380222383E+03  0.77000000000E+02 0.  0.
   -5000001    1    1    2    0    0  0.15439426734E+03 -0.13614186982E+02  0.57851763827E+03  0.60384981052E+03  0.77000000000E+02 0.  0.
<mgrwt>
<rscale>  0 0.34743500E+03</rscale>
<asrwt>0</asrwt>
<pdfrwt beam="1">  1        2 0.18490530E+00 0.34743500E+03</pdfrwt>
<pdfrwt beam="2">  1       -2 0.33307475E-02 0.34743500E+03</pdfrwt>
<totfact> 0.72526047E+03</totfact>
</mgrwt>
</event>
<event>
 4    1  0.6919593E-004  0.3005509E+03  0.7818608E-02  0.1084966E+00
          2   -1    0    0  501    0  0.00000000000E+00  0.00000000000E+00  0.32003898047E+03  0.32003898048E+03  0.25500000000E-02 0.  1.
         -2   -1    0    0    0  501 -0.00000000000E+00 -0.00000000000E+00 -0.70562368762E+02  0.70562368808E+02  0.25500000000E-02 0. -1.
    5000001    1    1    2    0    0  0.22677649794E+02  0.12642356552E+03  0.14099729365E+03  0.20568527058E+03  0.77000000000E+02 0.  0.
   -5000001    1    1    2    0    0 -0.22677649794E+02 -0.12642356552E+03  0.10847931805E+03  0.18491607870E+03  0.77000000000E+02 0.  0.
<mgrwt>
<rscale>  0 0.30055088E+03</rscale>
<asrwt>0</asrwt>
<pdfrwt beam="1">  1        2 0.45719853E-01 0.30055088E+03</pdfrwt>
<pdfrwt beam="2">  1       -2 0.10080339E-01 0.30055088E+03</pdfrwt>
<totfact> 0.72156684E+03</totfact>
</mgrwt>
</event>
<event>
 4    1  0.6919593E-004  0.2981424E+03  0.7818608E-02  0.1086173E+00
         -2   -1    0    0    0  501 -0.00000000000E+00  0.00000000000E+00  0.18346482797E+02  0.18346482975E+02  0.25500000000E-02 0. -1.
          2   -1    0    0  501    0  0.00000000000E+00 -0.00000000000E+00 -0.12112520681E+04  0.12112520681E+04  0.25500000000E-02 0.  1.
    5000001    1    1    2    0    0  0.21087786760E+02  0.12548121468E+03 -0.63830587029E+03  0.65540339794E+03  0.77000000000E+02 0.  0.
   -5000001    1    1    2    0    0 -0.21087786760E+02 -0.12548121468E+03 -0.55459971498E+03  0.57419515310E+03  0.77000000000E+02 0.  0.
<mgrwt>
<rscale>  0 0.29814235E+03</rscale>
<asrwt>0</asrwt>
<pdfrwt beam="1">  1        2 0.17303596E+00 0.29814235E+03</pdfrwt>
<pdfrwt beam="2">  1       -2 0.26209269E-02 0.29814235E+03</pdfrwt>
<totfact> 0.11460721E+04</totfact>
</mgrwt>
</event>
<event>
 4    1  0.6919593E-004  0.1887373E+03  0.7818608E-02  0.1159605E+00
          2   -1    0    0  501    0  0.00000000000E+00  0.00000000000E+00  0.46570510249E+03  0.46570510250E+03  0.25500000000E-02 0.  1.
         -2   -1    0    0    0  501 -0.00000000000E+00 -0.00000000000E+00 -0.19122498587E+02  0.19122498757E+02  0.25500000000E-02 0. -1.
    5000001    1    1    2    0    0  0.41046872044E+02  0.99958283065E+00  0.31557508928E+03  0.32741790092E+03  0.77000000000E+02 0.  0.
   -5000001    1    1    2    0    0 -0.41046872044E+02 -0.99958283065E+00  0.13100751462E+03  0.15740970033E+03  0.77000000000E+02 0.  0.
<mgrwt>
<rscale>  0 0.18873733E+03</rscale>
<asrwt>0</asrwt>
<pdfrwt beam="1">  1        2 0.66529291E-01 0.18873733E+03</pdfrwt>
<pdfrwt beam="2">  1       -2 0.27317859E-02 0.18873733E+03</pdfrwt>
<totfact> 0.34273996E+04</totfact>
</mgrwt>
</event>
<event>
 4    1  0.6919593E-004  0.3642819E+03  0.7818608E-02  0.1056901E+00
          2   -1    0    0  501    0  0.00000000000E+00  0.00000000000E+00  0.79832096584E+03  0.79832096584E+03  0.25500000000E-02 0.  1.
         -2   -1    0    0    0  501 -0.00000000000E+00 -0.00000000000E+00 -0.41556378493E+02  0.41556378571E+02  0.25500000000E-02 0. -1.
    5000001    1    1    2    0    0 -0.31236344146E+02  0.16162548537E+03  0.40641384339E+03  0.44519627000E+03  0.77000000000E+02 0.  0.
   -5000001    1    1    2    0    0  0.31236344146E+02 -0.16162548537E+03  0.35035074395E+03  0.39468107442E+03  0.77000000000E+02 0.  0.
<mgrwt>
<rscale>  0 0.36428191E+03</rscale>
<asrwt>0</asrwt>
<pdfrwt beam="1">  1        2 0.11404587E+00 0.36428191E+03</pdfrwt>
<pdfrwt beam="2">  1       -2 0.59366248E-02 0.36428191E+03</pdfrwt>
<totfact> 0.59122807E+03</totfact>
</mgrwt>
</event>
<event>
 4    1  0.6919593E-004  0.2948276E+03  0.7818608E-02  0.1087855E+00
          2   -1    0    0  501    0  0.00000000000E+00  0.00000000000E+00  0.14072166420E+03  0.14072166423E+03  0.25500000000E-02 0.  1.
         -2   -1    0    0    0  501 -0.00000000000E+00 -0.00000000000E+00 -0.15442421886E+03  0.15442421889E+03  0.25500000000E-02 0. -1.
    5000001    1    1    2    0    0 -0.12269804464E+03  0.19295067769E+01 -0.34144234276E+02  0.14884005472E+03  0.77000000000E+02 0.  0.
   -5000001    1    1    2    0    0  0.12269804464E+03 -0.19295067769E+01  0.20441679613E+02  0.14630582839E+03  0.77000000000E+02 0.  0.
<mgrwt>
<rscale>  0 0.29482763E+03</rscale>
<asrwt>0</asrwt>
<pdfrwt beam="1">  1        2 0.20103095E-01 0.29482763E+03</pdfrwt>
<pdfrwt beam="2">  1       -2 0.22060603E-01 0.29482763E+03</pdfrwt>
<totfact> 0.48764752E+03</totfact>
</mgrwt>
</event>
<event>
 4    1  0.6919593E-004  0.4476062E+03  0.7818608E-02  0.1028438E+00
         -2   -1    0    0    0  501 -0.00000000000E+00  0.00000000000E+00  0.75468700228E+02  0.75468700271E+02  0.25500000000E-02 0. -1.
          2   -1    0    0  501    0  0.00000000000E+00 -0.00000000000E+00 -0.66369012469E+03  0.66369012469E+03  0.25500000000E-02 0.  1.
    5000001    1    1    2    0    0 -0.15862254148E+02  0.19545190956E+03 -0.16937269764E+03  0.27031309765E+03  0.77000000000E+02 0.  0.
   -5000001    1    1    2    0    0  0.15862254148E+02 -0.19545190956E+03 -0.41884872683E+03  0.46884572731E+03  0.77000000000E+02 0.  0.
<mgrwt>
<rscale>  0 0.44760622E+03</rscale>
<asrwt>0</asrwt>
<pdfrwt beam="1">  1        2 0.94812872E-01 0.44760622E+03</pdfrwt>
<pdfrwt beam="2">  1       -2 0.10781243E-01 0.44760622E+03</pdfrwt>
<totfact> 0.28951079E+03</totfact>
</mgrwt>
</event>
<event>
 4    1  0.6919593E-004  0.2806421E+03  0.7818608E-02  0.1095339E+00
          2   -1    0    0  501    0  0.00000000000E+00  0.00000000000E+00  0.27497987084E+03  0.27497987085E+03  0.25500000000E-02 0.  1.
         -2   -1    0    0    0  501 -0.00000000000E+00 -0.00000000000E+00 -0.71605235202E+02  0.71605235247E+02  0.25500000000E-02 0. -1.
    5000001    1    1    2    0    0  0.11429655185E+03 -0.24859961054E+02  0.90691288500E+02  0.16684013078E+03  0.77000000000E+02 0.  0.
   -5000001    1    1    2    0    0 -0.11429655185E+03  0.24859961054E+02  0.11268334714E+03  0.17974497532E+03  0.77000000000E+02 0.  0.
<mgrwt>
<rscale>  0 0.28064211E+03</rscale>
<asrwt>0</asrwt>
<pdfrwt beam="1">  1        2 0.39282838E-01 0.28064211E+03</pdfrwt>
<pdfrwt beam="2">  1       -2 0.10229319E-01 0.28064211E+03</pdfrwt>
<totfact> 0.82810937E+03</totfact>
</mgrwt>
</event>
<event>
 4    1  0.6919593E-004  0.5325567E+03  0.7818608E-02  0.1005614E+00
          2   -1    0    0  501    0  0.00000000000E+00  0.00000000000E+00  0.11208082783E+04  0.11208082783E+04  0.25500000000E-02 0.  1.
         -2   -1    0    0    0  501 -0.00000000000E+00 -0.00000000000E+00 -0.63261623619E+02  0.63261623670E+02  0.25500000000E-02 0. -1.
    5000001    1    1    2    0    0  0.35458888850E+01 -0.24473130491E+03  0.68707291892E+03  0.73341951218E+03  0.77000000000E+02 0.  0.
   -5000001    1    1    2    0    0 -0.35458888850E+01  0.24473130491E+03  0.37047373577E+03  0.45065038980E+03  0.77000000000E+02 0.  0.
<mgrwt>
<rscale>  0 0.53255667E+03</rscale>
<asrwt>0</asrwt>
<pdfrwt beam="1">  1        2 0.16011547E+00 0.53255667E+03</pdfrwt>
<pdfrwt beam="2">  1       -2 0.90373749E-02 0.53255667E+03</pdfrwt>
<totfact> 0.19317915E+03</totfact>
</mgrwt>
</event>
<event>
 4    1  0.6919593E-004  0.2413390E+03  0.7818608E-02  0.1118904E+00
          2   -1    0    0  501    0  0.00000000000E+00  0.00000000000E+00  0.75601456420E+03  0.75601456420E+03  0.25500000000E-02 0.  1.
         -2   -1    0    0    0  501 -0.00000000000E+00 -0.00000000000E+00 -0.19260385305E+02  0.19260385473E+02  0.25500000000E-02 0. -1.
    5000001    1    1    2    0    0 -0.60098112004E+02  0.66793555389E+02  0.44432613939E+03  0.45981287526E+03  0.77000000000E+02 0.  0.
   -5000001    1    1    2    0    0  0.60098112004E+02 -0.66793555389E+02  0.29242803950E+03  0.31546207442E+03  0.77000000000E+02 0.  0.
<mgrwt>
<rscale>  0 0.24133903E+03</rscale>
<asrwt>0</asrwt>
<pdfrwt beam="1">  1        2 0.10800208E+00 0.24133903E+03</pdfrwt>
<pdfrwt beam="2">  1       -2 0.27514836E-02 0.24133903E+03</pdfrwt>
<totfact> 0.19886709E+04</totfact>
</mgrwt>
</event>
<event>
 4    1  0.6919593E-004  0.1650463E+03  0.7818608E-02  0.1183115E+00
          2   -1    0    0  501    0  0.00000000000E+00  0.00000000000E+00  0.49621608051E+03  0.49621608051E+03  0.25500000000E-02 0.  1.
         -2   -1    0    0    0  501 -0.00000000000E+00 -0.00000000000E+00 -0.13723996554E+02  0.13723996791E+02  0.25500000000E-02 0. -1.
    5000001    1    1    2    0    0 -0.16200753983E+02  0.24660801551E+02  0.25123305916E+03  0.26441949546E+03  0.77000000000E+02 0.  0.
   -5000001    1    1    2    0    0  0.16200753983E+02 -0.24660801551E+02  0.23125902479E+03  0.24552058185E+03  0.77000000000E+02 0.  0.
<mgrwt>
<rscale>  0 0.16504627E+03</rscale>
<asrwt>0</asrwt>
<pdfrwt beam="1">  1        2 0.70888009E-01 0.16504627E+03</pdfrwt>
<pdfrwt beam="2">  1       -2 0.19605710E-02 0.16504627E+03</pdfrwt>
<totfact> 0.51350896E+04</totfact>
</mgrwt>
</event>
<event>
 4    1  0.6919593E-004  0.1605360E+03  0.7818608E-02  0.1188093E+00
          2   -1    0    0  501    0  0.00000000000E+00  0.00000000000E+00  0.10188510138E+04  0.10188510138E+04  0.25500000000E-02 0.  1.
         -2   -1    0    0    0  501 -0.00000000000E+00 -0.00000000000E+00 -0.63237390805E+01  0.63237395946E+01  0.25500000000E-02 0. -1.
    5000001    1    1    2    0    0 -0.18778635593E+02  0.11301359430E+02  0.54327481504E+03  0.54914195117E+03  0.77000000000E+02 0.  0.
   -5000001    1    1    2    0    0  0.18778635593E+02 -0.11301359430E+02  0.46925245965E+03  0.47603280219E+03  0.77000000000E+02 0.  0.
<mgrwt>
<rscale>  0 0.16053596E+03</rscale>
<asrwt>0</asrwt>
<pdfrwt beam="1">  1        2 0.14555018E+00 0.16053596E+03</pdfrwt>
<pdfrwt beam="2">  1       -2 0.90339113E-03 0.16053596E+03</pdfrwt>
<totfact> 0.66652033E+04</totfact>
</mgrwt>
</event>
<event>
 4    1  0.6919593E-004  0.2317695E+03  0.7818608E-02  0.1125400E+00
          2   -1    0    0  501    0  0.00000000000E+00  0.00000000000E+00  0.19572210075E+04  0.19572210075E+04  0.25500000000E-02 0. -1.
         -2   -1    0    0    0  501 -0.00000000000E+00 -0.00000000000E+00 -0.68614013187E+01  0.68614017926E+01  0.25500000000E-02 0.  1.
    5000001    1    1    2    0    0  0.79577605508E+02 -0.19885293912E+02  0.12106765231E+04  0.12158925379E+04  0.77000000000E+02 0.  0.
   -5000001    1    1    2    0    0 -0.79577605508E+02  0.19885293912E+02  0.73968308306E+03  0.74818987134E+03  0.77000000000E+02 0.  0.
<mgrwt>
<rscale>  0 0.23176953E+03</rscale>
<asrwt>0</asrwt>
<pdfrwt beam="1">  1        2 0.27960324E+00 0.23176953E+03</pdfrwt>
<pdfrwt beam="2">  1       -2 0.98019940E-03 0.23176953E+03</pdfrwt>
<totfact> 0.20212248E+04</totfact>
</mgrwt>
</event>
<event>
 4    1  0.6919593E-004  0.3729093E+03  0.7818608E-02  0.1053586E+00
         -2   -1    0    0    0  501 -0.00000000000E+00  0.00000000000E+00  0.34928954612E+02  0.34928954705E+02  0.25500000000E-02 0. -1.
          2   -1    0    0  501    0  0.00000000000E+00 -0.00000000000E+00 -0.99531583466E+03  0.99531583466E+03  0.25500000000E-02 0.  1.
    5000001    1    1    2    0    0  0.11084789207E+03  0.11838530362E+03 -0.34112101372E+03  0.38548006601E+03  0.77000000000E+02 0.  0.
   -5000001    1    1    2    0    0 -0.11084789207E+03 -0.11838530362E+03 -0.61926586633E+03  0.64476472336E+03  0.77000000000E+02 0.  0.
<mgrwt>
<rscale>  0 0.37290933E+03</rscale>
<asrwt>0</asrwt>
<pdfrwt beam="1">  1        2 0.14218796E+00 0.37290933E+03</pdfrwt>
<pdfrwt beam="2">  1       -2 0.49898513E-02 0.37290933E+03</pdfrwt>
<totfact> 0.57897834E+03</totfact>
</mgrwt>
</event>
<event>
 4    1  0.6919593E-004  0.3448470E+03  0.7818608E-02  0.1064750E+00
         -2   -1    0    0    0  501 -0.00000000000E+00  0.00000000000E+00  0.57761295360E+02  0.57761295416E+02  0.25500000000E-02 0. -1.
          2   -1    0    0  501    0  0.00000000000E+00 -0.00000000000E+00 -0.51470223559E+03  0.51470223559E+03  0.25500000000E-02 0.  1.
    5000001    1    1    2    0    0 -0.14881526437E+03 -0.16024822730E+02 -0.29054149366E+03  0.33577691611E+03  0.77000000000E+02 0.  0.
   -5000001    1    1    2    0    0  0.14881526437E+03  0.16024822730E+02 -0.16639944656E+03  0.23668661490E+03  0.77000000000E+02 0.  0.
<mgrwt>
<rscale>  0 0.34484703E+03</rscale>
<asrwt>0</asrwt>
<pdfrwt beam="1">  1        2 0.73528888E-01 0.34484703E+03</pdfrwt>
<pdfrwt beam="2">  1       -2 0.82516139E-02 0.34484703E+03</pdfrwt>
<totfact> 0.59213683E+03</totfact>
</mgrwt>
</event>
<event>
 4    1  0.6919593E-004  0.4468995E+03  0.7818608E-02  0.1028651E+00
          2   -1    0    0  501    0  0.00000000000E+00  0.00000000000E+00  0.25447773468E+04  0.25447773468E+04  0.25500000000E-02 0.  1.
         -2   -1    0    0    0  501 -0.00000000000E+00 -0.00000000000E+00 -0.19620495610E+02  0.19620495776E+02  0.25500000000E-02 0. -1.
    5000001    1    1    2    0    0  0.10493244011E+03 -0.78565745808E+02  0.22022668044E+04  0.22075079776E+04  0.77000000000E+02 0.  0.
   -5000001    1    1    2    0    0 -0.10493244011E+03  0.78565745808E+02  0.32289004671E+03  0.35688986490E+03  0.77000000000E+02 0.  0.
<mgrwt>
<rscale>  0 0.44689951E+03</rscale>
<asrwt>0</asrwt>
<pdfrwt beam="1">  1        2 0.36353984E+00 0.44689951E+03</pdfrwt>
<pdfrwt beam="2">  1       -2 0.28029263E-02 0.44689951E+03</pdfrwt>
<totfact> 0.22037833E+03</totfact>
</mgrwt>
</event>
<event>
 4    1  0.6919593E-004  0.1893093E+03  0.7818608E-02  0.1159086E+00
          2   -1    0    0  501    0  0.00000000000E+00  0.00000000000E+00  0.80003725672E+03  0.80003725672E+03  0.25500000000E-02 0.  1.
         -2   -1    0    0    0  501 -0.00000000000E+00 -0.00000000000E+00 -0.11198862513E+02  0.11198862803E+02  0.25500000000E-02 0. -1.
    5000001    1    1    2    0    0 -0.55566573266E+01 -0.43299076892E+02  0.53813909475E+03  0.54536994032E+03  0.77000000000E+02 0.  0.
   -5000001    1    1    2    0    0  0.55566573266E+01  0.43299076892E+02  0.25069929945E+03  0.26586617921E+03  0.77000000000E+02 0.  0.
<mgrwt>
<rscale>  0 0.18930935E+03</rscale>
<asrwt>0</asrwt>
<pdfrwt beam="1">  1        2 0.11429103E+00 0.18930935E+03</pdfrwt>
<pdfrwt beam="2">  1       -2 0.15998376E-02 0.18930935E+03</pdfrwt>
<totfact> 0.40428184E+04</totfact>
</mgrwt>
</event>
<event>
 4    1  0.6919593E-004  0.2122032E+03  0.7818608E-02  0.1139833E+00
          2   -1    0    0  501    0  0.00000000000E+00  0.00000000000E+00  0.32163166970E+03  0.32163166971E+03  0.25500000000E-02 0.  1.
         -2   -1    0    0    0  501 -0.00000000000E+00 -0.00000000000E+00 -0.35001382075E+02  0.35001382168E+02  0.25500000000E-02 0. -1.
    5000001    1    1    2    0    0 -0.31413236969E+02 -0.63199854198E+02  0.17464597825E+03  0.20349749567E+03  0.77000000000E+02 0.  0.
   -5000001    1    1    2    0    0  0.31413236969E+02  0.63199854198E+02  0.11198430938E+03  0.15313555621E+03  0.77000000000E+02 0.  0.
<mgrwt>
<rscale>  0 0.21220323E+03</rscale>
<asrwt>0</asrwt>
<pdfrwt beam="1">  1        2 0.45947379E-01 0.21220323E+03</pdfrwt>
<pdfrwt beam="2">  1       -2 0.50001977E-02 0.21220323E+03</pdfrwt>
<totfact> 0.20890208E+04</totfact>
</mgrwt>
</event>
<event>
 4    1  0.6919593E-004  0.2824601E+03  0.7818608E-02  0.1094353E+00
         -2   -1    0    0    0  501 -0.00000000000E+00  0.00000000000E+00  0.18691557317E+03  0.18691557319E+03  0.25500000000E-02 0. -1.
          2   -1    0    0  501    0  0.00000000000E+00 -0.00000000000E+00 -0.10671085941E+03  0.10671085944E+03  0.25500000000E-02 0.  1.
    5000001    1    1    2    0    0 -0.71084722010E+02  0.94108522235E+02  0.29325767978E+02  0.14386956707E+03  0.77000000000E+02 0.  0.
   -5000001    1    1    2    0    0  0.71084722010E+02 -0.94108522235E+02  0.50878945784E+02  0.14975686557E+03  0.77000000000E+02 0.  0.
<mgrwt>
<rscale>  0 0.28246006E+03</rscale>
<asrwt>0</asrwt>
<pdfrwt beam="1">  1        2 0.15244408E-01 0.28246006E+03</pdfrwt>
<pdfrwt beam="2">  1       -2 0.26702225E-01 0.28246006E+03</pdfrwt>
<totfact> 0.48046207E+03</totfact>
</mgrwt>
</event>
<event>
 4    1  0.6919593E-004  0.3694491E+03  0.7818608E-02  0.1054904E+00
          2   -1    0    0  501    0  0.00000000000E+00  0.00000000000E+00  0.59057747754E+02  0.59057747809E+02  0.25500000000E-02 0.  1.
         -2   -1    0    0    0  501 -0.00000000000E+00 -0.00000000000E+00 -0.57779307452E+03  0.57779307453E+03  0.25500000000E-02 0. -1.
    5000001    1    1    2    0    0  0.82895534622E+02  0.10558834278E+03 -0.43323589017E+03  0.46004663277E+03  0.77000000000E+02 0.  0.
   -5000001    1    1    2    0    0 -0.82895534622E+02 -0.10558834278E+03 -0.85499436599E+02  0.17680418957E+03  0.77000000000E+02 0.  0.
<mgrwt>
<rscale>  0 0.36944909E+03</rscale>
<asrwt>0</asrwt>
<pdfrwt beam="1">  1        2 0.84368214E-02 0.36944909E+03</pdfrwt>
<pdfrwt beam="2">  1       -2 0.82541865E-01 0.36944909E+03</pdfrwt>
<totfact> 0.10628618E+03</totfact>
</mgrwt>
</event>
<event>
 4    1  0.6919593E-004  0.2607176E+03  0.7818608E-02  0.1106713E+00
         -2   -1    0    0    0  501 -0.00000000000E+00  0.00000000000E+00  0.13815104310E+02  0.13815104545E+02  0.25500000000E-02 0. -1.
          2   -1    0    0  501    0  0.00000000000E+00 -0.00000000000E+00 -0.12300610056E+04  0.12300610056E+04  0.25500000000E-02 0.  1.
    5000001    1    1    2    0    0 -0.10300984650E+03  0.43257347261E+01 -0.50865299033E+03  0.52467762010E+03  0.77000000000E+02 0.  0.
   -5000001    1    1    2    0    0  0.10300984650E+03 -0.43257347261E+01 -0.70759291099E+03  0.71919849008E+03  0.77000000000E+02 0.  0.
<mgrwt>
<rscale>  0 0.26071763E+03</rscale>
<asrwt>0</asrwt>
<pdfrwt beam="1">  1        2 0.17572293E+00 0.26071763E+03</pdfrwt>
<pdfrwt beam="2">  1       -2 0.19735871E-02 0.26071763E+03</pdfrwt>
<totfact> 0.16945864E+04</totfact>
</mgrwt>
</event>
<event>
 4    1  0.6919593E-004  0.4068492E+03  0.7818608E-02  0.1041434E+00
         -2   -1    0    0    0  501 -0.00000000000E+00  0.00000000000E+00  0.28914051768E+02  0.28914051881E+02  0.25500000000E-02 0. -1.
          2   -1    0    0  501    0  0.00000000000E+00 -0.00000000000E+00 -0.14311923490E+04  0.14311923490E+04  0.25500000000E-02 0.  1.
    5000001    1    1    2    0    0  0.14096958052E+03  0.11974081971E+03 -0.82763064718E+03  0.85153495212E+03  0.77000000000E+02 0.  0.
   -5000001    1    1    2    0    0 -0.14096958052E+03 -0.11974081971E+03 -0.57464765009E+03  0.60857144879E+03  0.77000000000E+02 0.  0.
<mgrwt>
<rscale>  0 0.40684921E+03</rscale>
<asrwt>0</asrwt>
<pdfrwt beam="1">  1        2 0.20445601E+00 0.40684921E+03</pdfrwt>
<pdfrwt beam="2">  1       -2 0.41305797E-02 0.40684921E+03</pdfrwt>
<totfact> 0.44440778E+03</totfact>
</mgrwt>
</event>
<event>
 4    1  0.6919593E-004  0.2746198E+03  0.7818608E-02  0.1098664E+00
         -2   -1    0    0    0  501 -0.00000000000E+00  0.00000000000E+00  0.66809093709E+03  0.66809093710E+03  0.25500000000E-02 0. -1.
          2   -1    0    0  501    0  0.00000000000E+00 -0.00000000000E+00 -0.28220732137E+02  0.28220732252E+02  0.25500000000E-02 0.  1.
    5000001    1    1    2    0    0 -0.39015454693E+02 -0.99586870521E+02  0.41765290972E+03  0.43795285532E+03  0.77000000000E+02 0.  0.
   -5000001    1    1    2    0    0  0.39015454693E+02  0.99586870521E+02  0.22221729523E+03  0.25835881403E+03  0.77000000000E+02 0.  0.
<mgrwt>
<rscale>  0 0.27461985E+03</rscale>
<asrwt>0</asrwt>
<pdfrwt beam="1">  1        2 0.40315329E-02 0.27461985E+03</pdfrwt>
<pdfrwt beam="2">  1       -2 0.95441570E-01 0.27461985E+03</pdfrwt>
<totfact> 0.20024372E+03</totfact>
</mgrwt>
</event>
<event>
 4    1  0.6919593E-004  0.2195474E+03  0.7818608E-02  0.1134221E+00
         -2   -1    0    0    0  501 -0.00000000000E+00  0.00000000000E+00  0.49915469933E+03  0.49915469933E+03  0.25500000000E-02 0. -1.
          2   -1    0    0  501    0  0.00000000000E+00 -0.00000000000E+00 -0.24141343925E+02  0.24141344059E+02  0.25500000000E-02 0.  1.
    5000001    1    1    2    0    0 -0.33780809531E+02  0.61544233058E+02  0.15519991444E+03  0.18693541440E+03  0.77000000000E+02 0.  0.
   -5000001    1    1    2    0    0  0.33780809531E+02 -0.61544233058E+02  0.31981344096E+03  0.33636062899E+03  0.77000000000E+02 0.  0.
<mgrwt>
<rscale>  0 0.21954740E+03</rscale>
<asrwt>0</asrwt>
<pdfrwt beam="1">  1        2 0.34487639E-02 0.21954740E+03</pdfrwt>
<pdfrwt beam="2">  1       -2 0.71307804E-01 0.21954740E+03</pdfrwt>
<totfact> 0.46685880E+03</totfact>
</mgrwt>
</event>
<event>
 4    1  0.6919593E-004  0.4057344E+03  0.7818608E-02  0.1041812E+00
         -2   -1    0    0    0  501 -0.00000000000E+00  0.00000000000E+00  0.17757148970E+03  0.17757148972E+03  0.25500000000E-02 0. -1.
          2   -1    0    0  501    0  0.00000000000E+00 -0.00000000000E+00 -0.23176636713E+03  0.23176636714E+03  0.25500000000E-02 0.  1.
    5000001    1    1    2    0    0  0.18167386744E+03 -0.33981097044E+02 -0.60036912611E+02  0.20902999771E+03  0.77000000000E+02 0.  0.
   -5000001    1    1    2    0    0 -0.18167386744E+03  0.33981097044E+02  0.58420351800E+01  0.20030785916E+03  0.77000000000E+02 0.  0.
<mgrwt>
<rscale>  0 0.40573439E+03</rscale>
<asrwt>0</asrwt>
<pdfrwt beam="1">  1        2 0.33109481E-01 0.40573439E+03</pdfrwt>
<pdfrwt beam="2">  1       -2 0.25367356E-01 0.40573439E+03</pdfrwt>
<totfact> 0.21944524E+03</totfact>
</mgrwt>
</event>
<event>
 4    1  0.6919593E-004  0.4821531E+03  0.7818608E-02  0.1018545E+00
         -2   -1    0    0    0  501 -0.00000000000E+00  0.00000000000E+00  0.91076383670E+02  0.91076383705E+02  0.25500000000E-02 0. -1.
          2   -1    0    0  501    0  0.00000000000E+00 -0.00000000000E+00 -0.63812277747E+03  0.63812277748E+03  0.25500000000E-02 0.  1.
    5000001    1    1    2    0    0  0.13283021517E+03 -0.18229108894E+03 -0.21867967835E+03  0.32345588399E+03  0.77000000000E+02 0.  0.
   -5000001    1    1    2    0    0 -0.13283021517E+03  0.18229108894E+03 -0.32836671546E+03  0.40574327719E+03  0.77000000000E+02 0.  0.
<mgrwt>
<rscale>  0 0.48215315E+03</rscale>
<asrwt>0</asrwt>
<pdfrwt beam="1">  1        2 0.91160394E-01 0.48215315E+03</pdfrwt>
<pdfrwt beam="2">  1       -2 0.13010912E-01 0.48215315E+03</pdfrwt>
<totfact> 0.22322628E+03</totfact>
</mgrwt>
</event>
<event>
 4    1  0.6919593E-004  0.2156297E+03  0.7818608E-02  0.1137184E+00
         -2   -1    0    0    0  501 -0.00000000000E+00  0.00000000000E+00  0.94668336796E+01  0.94668340230E+01  0.25500000000E-02 0. -1.
          2   -1    0    0  501    0  0.00000000000E+00 -0.00000000000E+00 -0.12278697890E+04  0.12278697890E+04  0.25500000000E-02 0.  1.
    5000001    1    1    2    0    0 -0.16376222696E+02 -0.72889030844E+02 -0.67048204709E+03  0.67901116850E+03  0.77000000000E+02 0.  0.
   -5000001    1    1    2    0    0  0.16376222696E+02  0.72889030844E+02 -0.54792090821E+03  0.55832545450E+03  0.77000000000E+02 0.  0.
<mgrwt>
<rscale>  0 0.21562968E+03</rscale>
<asrwt>0</asrwt>
<pdfrwt beam="1">  1        2 0.17540987E+00 0.21562968E+03</pdfrwt>
<pdfrwt beam="2">  1       -2 0.13524056E-02 0.21562968E+03</pdfrwt>
<totfact> 0.29229808E+04</totfact>
</mgrwt>
</event>
<event>
 4    1  0.6919593E-004  0.1737190E+03  0.7818608E-02  0.1174024E+00
         -2   -1    0    0    0  501 -0.00000000000E+00  0.00000000000E+00  0.54894343935E+01  0.54894349857E+01  0.25500000000E-02 0. -1.
          2   -1    0    0  501    0  0.00000000000E+00 -0.00000000000E+00 -0.13743806114E+04  0.13743806114E+04  0.25500000000E-02 0.  1.
    5000001    1    1    2    0    0  0.32775640031E+02  0.46495695788E+01 -0.50336493758E+03  0.51029513173E+03  0.77000000000E+02 0.  0.
   -5000001    1    1    2    0    0 -0.32775640031E+02 -0.46495695788E+01 -0.86552623943E+03  0.86957491467E+03  0.77000000000E+02 0.  0.
<mgrwt>
<rscale>  0 0.17371900E+03</rscale>
<asrwt>0</asrwt>
<pdfrwt beam="1">  1        2 0.19633987E+00 0.17371900E+03</pdfrwt>
<pdfrwt beam="2">  1       -2 0.78420584E-03 0.17371900E+03</pdfrwt>
<totfact> 0.52994774E+04</totfact>
</mgrwt>
</event>
<event>
 4    1  0.6919593E-004  0.2202481E+03  0.7818608E-02  0.1133698E+00
         -2   -1    0    0    0  501 -0.00000000000E+00  0.00000000000E+00  0.41982474308E+01  0.41982482052E+01  0.25500000000E-02 0. -1.
          2   -1    0    0  501    0  0.00000000000E+00 -0.00000000000E+00 -0.28886577099E+04  0.28886577099E+04  0.25500000000E-02 0.  1.
    5000001    1    1    2    0    0  0.62443493823E+02 -0.45462601407E+02 -0.12420571252E+04  0.12468363727E+04  0.77000000000E+02 0.  0.
   -5000001    1    1    2    0    0 -0.62443493823E+02  0.45462601407E+02 -0.16424023373E+04  0.16460195855E+04  0.77000000000E+02 0.  0.
<mgrwt>
<rscale>  0 0.22024805E+03</rscale>
<asrwt>0</asrwt>
<pdfrwt beam="1">  1        2 0.41266411E+00 0.22024805E+03</pdfrwt>
<pdfrwt beam="2">  1       -2 0.59975154E-03 0.22024805E+03</pdfrwt>
<totfact> 0.14158461E+04</totfact>
</mgrwt>
</event>
<event>
 4    1  0.6919593E-004  0.2022703E+03  0.7818608E-02  0.1147838E+00
         -2   -1    0    0    0  501 -0.00000000000E+00  0.00000000000E+00  0.97868486292E+01  0.97868489614E+01  0.25500000000E-02 0. -1.
          2   -1    0    0  501    0  0.00000000000E+00 -0.00000000000E+00 -0.10451085770E+04  0.10451085770E+04  0.25500000000E-02 0.  1.
    5000001    1    1    2    0    0 -0.23406849329E+02  0.61235380931E+02 -0.51092700115E+03  0.52083879750E+03  0.77000000000E+02 0.  0.
   -5000001    1    1    2    0    0  0.23406849329E+02 -0.61235380931E+02 -0.52439472719E+03  0.53405662843E+03  0.77000000000E+02 0.  0.
<mgrwt>
<rscale>  0 0.20227031E+03</rscale>
<asrwt>0</asrwt>
<pdfrwt beam="1">  1        2 0.14930115E+00 0.20227031E+03</pdfrwt>
<pdfrwt beam="2">  1       -2 0.13981219E-02 0.20227031E+03</pdfrwt>
<totfact> 0.34972700E+04</totfact>
</mgrwt>
</event>
<event>
 4    1  0.6919593E-004  0.1872955E+03  0.7818608E-02  0.1160923E+00
          2   -1    0    0  501    0  0.00000000000E+00  0.00000000000E+00  0.41320406986E+04  0.41320406986E+04  0.25500000000E-02 0.  1.
         -2   -1    0    0    0  501 -0.00000000000E+00 -0.00000000000E+00 -0.21224142172E+01  0.21224157490E+01  0.25500000000E-02 0. -1.
    5000001    1    1    2    0    0 -0.52369313451E+01 -0.35429158597E+02  0.29362824696E+04  0.29375102369E+04  0.77000000000E+02 0.  0.
   -5000001    1    1    2    0    0  0.52369313451E+01  0.35429158597E+02  0.11936358147E+04  0.11966528774E+04  0.77000000000E+02 0.  0.
<mgrwt>
<rscale>  0 0.18729554E+03</rscale>
<asrwt>0</asrwt>
<pdfrwt beam="1">  1        2 0.59028448E+00 0.18729554E+03</pdfrwt>
<pdfrwt beam="2">  1       -2 0.30320576E-03 0.18729554E+03</pdfrwt>
<totfact> 0.70974083E+03</totfact>
</mgrwt>
</event>
<event>
 4    1  0.6919593E-004  0.1983256E+03  0.7818608E-02  0.1151159E+00
          2   -1    0    0  501    0  0.00000000000E+00  0.00000000000E+00  0.56314791131E+01  0.56314796905E+01  0.25500000000E-02 0.  1.
         -2   -1    0    0    0  501 -0.00000000000E+00 -0.00000000000E+00 -0.17461238238E+04  0.17461238238E+04  0.25500000000E-02 0. -1.
    5000001    1    1    2    0    0  0.38828523003E+02  0.33278364965E+02 -0.11873836083E+04  0.11909760438E+04  0.77000000000E+02 0.  0.
   -5000001    1    1    2    0    0 -0.38828523003E+02 -0.33278364965E+02 -0.55310873638E+03  0.56077925963E+03  0.77000000000E+02 0.  0.
<mgrwt>
<rscale>  0 0.19832559E+03</rscale>
<asrwt>0</asrwt>
<pdfrwt beam="1">  1        2 0.80449817E-03 0.19832559E+03</pdfrwt>
<pdfrwt beam="2">  1       -2 0.24944591E+00 0.19832559E+03</pdfrwt>
<totfact> 0.13984650E+03</totfact>
</mgrwt>
</event>
<event>
 4    1  0.6919593E-004  0.2603580E+03  0.7818608E-02  0.1106928E+00
          2   -1    0    0  501    0  0.00000000000E+00  0.00000000000E+00  0.42345017833E+03  0.42345017834E+03  0.25500000000E-02 0.  1.
         -2   -1    0    0    0  501 -0.00000000000E+00 -0.00000000000E+00 -0.40020231483E+02  0.40020231564E+02  0.25500000000E-02 0. -1.
    5000001    1    1    2    0    0  0.98236553475E+01  0.10429317573E+03  0.20352346779E+03  0.24150439467E+03  0.77000000000E+02 0.  0.
   -5000001    1    1    2    0    0 -0.98236553475E+01 -0.10429317573E+03  0.17990647906E+03  0.22196601523E+03  0.77000000000E+02 0.  0.
<mgrwt>
<rscale>  0 0.26035802E+03</rscale>
<asrwt>0</asrwt>
<pdfrwt beam="1">  1        2 0.60492882E-01 0.26035802E+03</pdfrwt>
<pdfrwt beam="2">  1       -2 0.57171760E-02 0.26035802E+03</pdfrwt>
<totfact> 0.12832116E+04</totfact>
</mgrwt>
</event>
<event>
 4    1  0.6919593E-004  0.2009640E+03  0.7818608E-02  0.1148928E+00
          2   -1    0    0  501    0  0.00000000000E+00  0.00000000000E+00  0.53298025656E+03  0.53298025657E+03  0.25500000000E-02 0.  1.
         -2   -1    0    0    0  501 -0.00000000000E+00 -0.00000000000E+00 -0.18943718120E+02  0.18943718291E+02  0.25500000000E-02 0. -1.
    5000001    1    1    2    0    0 -0.52403954069E+02 -0.29894056363E+02  0.19392321996E+03  0.21719816815E+03  0.77000000000E+02 0.  0.
   -5000001    1    1    2    0    0  0.52403954069E+02  0.29894056363E+02  0.32011331848E+03  0.33472580671E+03  0.77000000000E+02 0.  0.
<mgrwt>
<rscale>  0 0.20096395E+03</rscale>
<asrwt>0</asrwt>
<pdfrwt beam="1">  1        2 0.76140045E-01 0.20096395E+03</pdfrwt>
<pdfrwt beam="2">  1       -2 0.27062452E-02 0.20096395E+03</pdfrwt>
<totfact> 0.30125977E+04</totfact>
</mgrwt>
</event>
<event>
 4    1  0.6919593E-004  0.2795116E+03  0.7818608E-02  0.1095956E+00
         -2   -1    0    0    0  501 -0.00000000000E+00  0.00000000000E+00  0.18442618687E+02  0.18442618863E+02  0.25500000000E-02 0. -1.
          2   -1    0    0  501    0  0.00000000000E+00 -0.00000000000E+00 -0.10590512719E+04  0.10590512719E+04  0.25500000000E-02 0.  1.
    5000001    1    1    2    0    0 -0.11057016343E+03 -0.35689302982E+02 -0.55946381106E+03  0.57656590541E+03  0.77000000000E+02 0.  0.
   -5000001    1    1    2    0    0  0.11057016343E+03  0.35689302982E+02 -0.48114484214E+03  0.50092798535E+03  0.77000000000E+02 0.  0.
<mgrwt>
<rscale>  0 0.27951157E+03</rscale>
<asrwt>0</asrwt>
<pdfrwt beam="1">  1        2 0.15129300E+00 0.27951157E+03</pdfrwt>
<pdfrwt beam="2">  1       -2 0.26346605E-02 0.27951157E+03</pdfrwt>
<totfact> 0.13796294E+04</totfact>
</mgrwt>
</event>
<event>
 4    1  0.6919593E-004  0.2214577E+03  0.7818608E-02  0.1132801E+00
          2   -1    0    0  501    0  0.00000000000E+00  0.00000000000E+00  0.64822998392E+03  0.64822998393E+03  0.25500000000E-02 0.  1.
         -2   -1    0    0    0  501 -0.00000000000E+00 -0.00000000000E+00 -0.18914401591E+02  0.18914401763E+02  0.25500000000E-02 0. -1.
    5000001    1    1    2    0    0 -0.44974220125E+02 -0.60312231034E+02  0.39272994464E+03  0.40721745432E+03  0.77000000000E+02 0.  0.
   -5000001    1    1    2    0    0  0.44974220125E+02  0.60312231034E+02  0.23658563769E+03  0.25992693137E+03  0.77000000000E+02 0.  0.
<mgrwt>
<rscale>  0 0.22145774E+03</rscale>
<asrwt>0</asrwt>
<pdfrwt beam="1">  1        2 0.92604267E-01 0.22145774E+03</pdfrwt>
<pdfrwt beam="2">  1       -2 0.27020579E-02 0.22145774E+03</pdfrwt>
<totfact> 0.24371324E+04</totfact>
</mgrwt>
</event>
<event>
 4    1  0.6919593E-004  0.2038564E+03  0.7818608E-02  0.1146526E+00
         -2   -1    0    0    0  501 -0.00000000000E+00  0.00000000000E+00  0.29138866649E+02  0.29138866761E+02  0.25500000000E-02 0. -1.
          2   -1    0    0  501    0  0.00000000000E+00 -0.00000000000E+00 -0.35654644963E+03  0.35654644964E+03  0.25500000000E-02 0.  1.
    5000001    1    1    2    0    0  0.61361407738E+02 -0.17456621035E+02 -0.12632152995E+03  0.16110892249E+03  0.77000000000E+02 0.  0.
   -5000001    1    1    2    0    0 -0.61361407738E+02  0.17456621035E+02 -0.20108605302E+03  0.22457639390E+03  0.77000000000E+02 0.  0.
<mgrwt>
<rscale>  0 0.20385641E+03</rscale>
<asrwt>0</asrwt>
<pdfrwt beam="1">  1        2 0.50935204E-01 0.20385641E+03</pdfrwt>
<pdfrwt beam="2">  1       -2 0.41626955E-02 0.20385641E+03</pdfrwt>
<totfact> 0.24585547E+04</totfact>
</mgrwt>
</event>
<event>
 4    1  0.6919593E-004  0.2007498E+03  0.7818608E-02  0.1149108E+00
          2   -1    0    0  501    0  0.00000000000E+00  0.00000000000E+00  0.11139906619E+04  0.11139906619E+04  0.25500000000E-02 0.  1.
         -2   -1    0    0    0  501 -0.00000000000E+00 -0.00000000000E+00 -0.90441721474E+01  0.90441725069E+01  0.25500000000E-02 0. -1.
    5000001    1    1    2    0    0  0.33489895311E+01  0.55679093309E+02  0.73242454771E+03  0.73857030488E+03  0.77000000000E+02 0.  0.
   -5000001    1    1    2    0    0 -0.33489895311E+01 -0.55679093309E+02  0.37252194201E+03  0.38446452950E+03  0.77000000000E+02 0.  0.
<mgrwt>
<rscale>  0 0.20074983E+03</rscale>
<asrwt>0</asrwt>
<pdfrwt beam="1">  1        2 0.15914155E+00 0.20074983E+03</pdfrwt>
<pdfrwt beam="2">  1       -2 0.12920244E-02 0.20074983E+03</pdfrwt>
<totfact> 0.35845513E+04</totfact>
</mgrwt>
</event>
<event>
 4    1  0.6919593E-004  0.1733101E+03  0.7818608E-02  0.1174439E+00
          2   -1    0    0  501    0  0.00000000000E+00  0.00000000000E+00  0.27835504742E+02  0.27835504859E+02  0.25500000000E-02 0.  1.
         -2   -1    0    0    0  501 -0.00000000000E+00 -0.00000000000E+00 -0.26976680883E+03  0.26976680884E+03  0.25500000000E-02 0. -1.
    5000001    1    1    2    0    0 -0.61931401592E+00  0.37981255088E+02 -0.10085675428E+03  0.13245393226E+03  0.77000000000E+02 0.  0.
   -5000001    1    1    2    0    0  0.61931401592E+00 -0.37981255088E+02 -0.14107454981E+03  0.16514838144E+03  0.77000000000E+02 0.  0.
<mgrwt>
<rscale>  0 0.17331007E+03</rscale>
<asrwt>0</asrwt>
<pdfrwt beam="1">  1        2 0.39765008E-02 0.17331007E+03</pdfrwt>
<pdfrwt beam="2">  1       -2 0.38538114E-01 0.17331007E+03</pdfrwt>
<totfact> 0.13056582E+04</totfact>
</mgrwt>
</event>
<event>
 4    1  0.6919593E-004  0.3063909E+03  0.7818608E-02  0.1082089E+00
         -2   -1    0    0    0  501 -0.00000000000E+00  0.00000000000E+00  0.45886975058E+02  0.45886975129E+02  0.25500000000E-02 0. -1.
          2   -1    0    0  501    0  0.00000000000E+00 -0.00000000000E+00 -0.51144906331E+03  0.51144906332E+03  0.25500000000E-02 0.  1.
    5000001    1    1    2    0    0 -0.22203229243E+02  0.13036234112E+03 -0.21959748178E+03  0.26765533318E+03  0.77000000000E+02 0.  0.
   -5000001    1    1    2    0    0  0.22203229243E+02 -0.13036234112E+03 -0.24596460647E+03  0.28968070527E+03  0.77000000000E+02 0.  0.
<mgrwt>
<rscale>  0 0.30639093E+03</rscale>
<asrwt>0</asrwt>
<pdfrwt beam="1">  1        2 0.73064148E-01 0.30639093E+03</pdfrwt>
<pdfrwt beam="2">  1       -2 0.65552825E-02 0.30639093E+03</pdfrwt>
<totfact> 0.85089257E+03</totfact>
</mgrwt>
</event>
<event>
 4    1  0.6919593E-004  0.2197491E+03  0.7818608E-02  0.1134070E+00
         -2   -1    0    0    0  501 -0.00000000000E+00  0.00000000000E+00  0.11510972447E+02  0.11510972729E+02  0.25500000000E-02 0. -1.
          2   -1    0    0  501    0  0.00000000000E+00 -0.00000000000E+00 -0.10487750719E+04  0.10487750719E+04  0.25500000000E-02 0.  1.
    5000001    1    1    2    0    0  0.29473609687E+02  0.57541146720E+02 -0.73244710573E+03  0.73931552123E+03  0.77000000000E+02 0.  0.
   -5000001    1    1    2    0    0 -0.29473609687E+02 -0.57541146720E+02 -0.30481699375E+03  0.32097052343E+03  0.77000000000E+02 0.  0.
<mgrwt>
<rscale>  0 0.21974914E+03</rscale>
<asrwt>0</asrwt>
<pdfrwt beam="1">  1        2 0.14982495E+00 0.21974914E+03</pdfrwt>
<pdfrwt beam="2">  1       -2 0.16444253E-02 0.21974914E+03</pdfrwt>
<totfact> 0.27638025E+04</totfact>
</mgrwt>
</event>
<event>
 4    1  0.6919593E-004  0.2178140E+03  0.7818608E-02  0.1135523E+00
         -2   -1    0    0    0  501 -0.00000000000E+00  0.00000000000E+00  0.34649081498E+01  0.34649090881E+01  0.25500000000E-02 0. -1.
          2   -1    0    0  501    0  0.00000000000E+00 -0.00000000000E+00 -0.34231007589E+04  0.34231007589E+04  0.25500000000E-02 0.  1.
    5000001    1    1    2    0    0  0.37873129984E+02  0.67033166767E+02 -0.17409327574E+04  0.17443347400E+04  0.77000000000E+02 0.  0.
   -5000001    1    1    2    0    0 -0.37873129984E+02 -0.67033166767E+02 -0.16787030933E+04  0.16822309280E+04  0.77000000000E+02 0.  0.
<mgrwt>
<rscale>  0 0.21781397E+03</rscale>
<asrwt>0</asrwt>
<pdfrwt beam="1">  1        2 0.48901223E+00 0.21781397E+03</pdfrwt>
<pdfrwt beam="2">  1       -2 0.49498914E-03 0.21781397E+03</pdfrwt>
<totfact> 0.95881491E+03</totfact>
</mgrwt>
</event>
<event>
 4    1  0.6919593E-004  0.5929402E+03  0.7818608E-02  0.9920162E-01
          2   -1    0    0  501    0  0.00000000000E+00  0.00000000000E+00  0.14968481413E+04  0.14968481413E+04  0.25500000000E-02 0.  1.
         -2   -1    0    0    0  501 -0.00000000000E+00 -0.00000000000E+00 -0.58719725609E+02  0.58719725664E+02  0.25500000000E-02 0. -1.
    5000001    1    1    2    0    0 -0.20410310421E+03  0.19574734566E+03  0.83610831299E+03  0.88599165433E+03  0.77000000000E+02 0.  0.
   -5000001    1    1    2    0    0  0.20410310421E+03 -0.19574734566E+03  0.60202010269E+03  0.66957621263E+03  0.77000000000E+02 0.  0.
<mgrwt>
<rscale>  0 0.59294017E+03</rscale>
<asrwt>0</asrwt>
<pdfrwt beam="1">  1        2 0.21383546E+00 0.59294017E+03</pdfrwt>
<pdfrwt beam="2">  1       -2 0.83885320E-02 0.59294017E+03</pdfrwt>
<totfact> 0.13575673E+03</totfact>
</mgrwt>
</event>
<event>
 4    1  0.6919593E-004  0.1747527E+03  0.7818608E-02  0.1172980E+00
          2   -1    0    0  501    0  0.00000000000E+00  0.00000000000E+00  0.59197036048E+02  0.59197036103E+02  0.25500000000E-02 0.  1.
         -2   -1    0    0    0  501 -0.00000000000E+00 -0.00000000000E+00 -0.12896973854E+03  0.12896973857E+03  0.25500000000E-02 0. -1.
    5000001    1    1    2    0    0  0.98978113244E+01  0.29712911866E+02 -0.58976414976E+01  0.83334302516E+02  0.77000000000E+02 0.  0.
   -5000001    1    1    2    0    0 -0.98978113244E+01 -0.29712911866E+02 -0.63875060994E+02  0.10483247215E+03  0.77000000000E+02 0.  0.
<mgrwt>
<rscale>  0 0.17475270E+03</rscale>
<asrwt>0</asrwt>
<pdfrwt beam="1">  1        2 0.84567195E-02 0.17475270E+03</pdfrwt>
<pdfrwt beam="2">  1       -2 0.18424248E-01 0.17475270E+03</pdfrwt>
<totfact> 0.18208132E+04</totfact>
</mgrwt>
</event>
<event>
 4    1  0.6919593E-004  0.3053374E+03  0.7818608E-02  0.1082603E+00
         -2   -1    0    0    0  501 -0.00000000000E+00  0.00000000000E+00  0.30667435440E+02  0.30667435546E+02  0.25500000000E-02 0. -1.
          2   -1    0    0  501    0  0.00000000000E+00 -0.00000000000E+00 -0.76001564659E+03  0.76001564660E+03  0.25500000000E-02 0.  1.
    5000001    1    1    2    0    0 -0.13058879262E+03  0.94404615144E+00 -0.31803314850E+03  0.35231861649E+03  0.77000000000E+02 0.  0.
   -5000001    1    1    2    0    0  0.13058879262E+03 -0.94404615144E+00 -0.41131506266E+03  0.43836446566E+03  0.77000000000E+02 0.  0.
<mgrwt>
<rscale>  0 0.30533739E+03</rscale>
<asrwt>0</asrwt>
<pdfrwt beam="1">  1        2 0.10857365E+00 0.30533739E+03</pdfrwt>
<pdfrwt beam="2">  1       -2 0.43810627E-02 0.30533739E+03</pdfrwt>
<totfact> 0.99519033E+03</totfact>
</mgrwt>
</event>
<event>
 4    1  0.6919593E-004  0.5206074E+03  0.7818608E-02  0.1008536E+00
          2   -1    0    0  501    0  0.00000000000E+00  0.00000000000E+00  0.94456868387E+03  0.94456868388E+03  0.25500000000E-02 0.  1.
         -2   -1    0    0    0  501 -0.00000000000E+00 -0.00000000000E+00 -0.71734337150E+02  0.71734337195E+02  0.25500000000E-02 0. -1.
    5000001    1    1    2    0    0 -0.10736753491E+03  0.51013396983E+02  0.86276777293E+03  0.87431538030E+03  0.77000000000E+02 0.  0.
   -5000001    1    1    2    0    0  0.10736753491E+03 -0.51013396983E+02  0.10066573798E+02  0.14198764078E+03  0.77000000000E+02 0.  0.
<mgrwt>
<rscale>  0 0.52060737E+03</rscale>
<asrwt>0</asrwt>
<pdfrwt beam="1">  1        2 0.13493837E+00 0.52060737E+03</pdfrwt>
<pdfrwt beam="2">  1       -2 0.10247764E-01 0.52060737E+03</pdfrwt>
<totfact> 0.20108505E+03</totfact>
</mgrwt>
</event>
<event>
 4    1  0.6919593E-004  0.2369762E+03  0.7818608E-02  0.1121824E+00
         -2   -1    0    0    0  501 -0.00000000000E+00  0.00000000000E+00  0.14299615569E+04  0.14299615569E+04  0.25500000000E-02 0. -1.
          2   -1    0    0  501    0  0.00000000000E+00 -0.00000000000E+00 -0.98180495308E+01  0.98180498620E+01  0.25500000000E-02 0.  1.
    5000001    1    1    2    0    0 -0.16592037038E+02 -0.86149102461E+02  0.83361336880E+03  0.84174652490E+03  0.77000000000E+02 0.  0.
   -5000001    1    1    2    0    0  0.16592037038E+02  0.86149102461E+02  0.58653013858E+03  0.59803308187E+03  0.77000000000E+02 0.  0.
<mgrwt>
<rscale>  0 0.23697623E+03</rscale>
<asrwt>0</asrwt>
<pdfrwt beam="1">  1        2 0.14025780E-02 0.23697623E+03</pdfrwt>
<pdfrwt beam="2">  1       -2 0.20428030E+00 0.23697623E+03</pdfrwt>
<totfact> 0.12106280E+03</totfact>
</mgrwt>
</event>
<event>
 4    1  0.6919593E-004  0.2570864E+03  0.7818608E-02  0.1108907E+00
          2   -1    0    0  501    0  0.00000000000E+00  0.00000000000E+00  0.86738755975E+03  0.86738755975E+03  0.25500000000E-02 0.  1.
         -2   -1    0    0    0  501 -0.00000000000E+00 -0.00000000000E+00 -0.19049566931E+02  0.19049567102E+02  0.25500000000E-02 0. -1.
    5000001    1    1    2    0    0 -0.43953091705E+02 -0.92613918306E+02  0.39235273276E+03  0.41276976517E+03  0.77000000000E+02 0.  0.
   -5000001    1    1    2    0    0  0.43953091705E+02  0.92613918306E+02  0.45598526006E+03  0.47366736168E+03  0.77000000000E+02 0.  0.
<mgrwt>
<rscale>  0 0.25708642E+03</rscale>
<asrwt>0</asrwt>
<pdfrwt beam="1">  1        2 0.12391251E+00 0.25708642E+03</pdfrwt>
<pdfrwt beam="2">  1       -2 0.27213666E-02 0.25708642E+03</pdfrwt>
<totfact> 0.17099594E+04</totfact>
</mgrwt>
</event>
<event>
 4    1  0.6919593E-004  0.3419756E+03  0.7818608E-02  0.1065958E+00
         -2   -1    0    0    0  501 -0.00000000000E+00  0.00000000000E+00  0.10616813098E+02  0.10616813405E+02  0.25500000000E-02 0. -1.
          2   -1    0    0  501    0  0.00000000000E+00 -0.00000000000E+00 -0.27538229263E+04  0.27538229263E+04  0.25500000000E-02 0.  1.
    5000001    1    1    2    0    0 -0.10231576281E+03  0.95475103627E+02 -0.87830890187E+03  0.89271470126E+03  0.77000000000E+02 0.  0.
   -5000001    1    1    2    0    0  0.10231576281E+03 -0.95475103627E+02 -0.18648972113E+04  0.18717250384E+04  0.77000000000E+02 0.  0.
<mgrwt>
<rscale>  0 0.34197558E+03</rscale>
<asrwt>0</asrwt>
<pdfrwt beam="1">  1        2 0.39340282E+00 0.34197558E+03</pdfrwt>
<pdfrwt beam="2">  1       -2 0.15166894E-02 0.34197558E+03</pdfrwt>
<totfact> 0.43184010E+03</totfact>
</mgrwt>
</event>
<event>
 4    1  0.6919593E-004  0.3853536E+03  0.7818608E-02  0.1048973E+00
         -2   -1    0    0    0  501 -0.00000000000E+00  0.00000000000E+00  0.49256423745E+02  0.49256423811E+02  0.25500000000E-02 0. -1.
          2   -1    0    0  501    0  0.00000000000E+00 -0.00000000000E+00 -0.75369548196E+03  0.75369548196E+03  0.25500000000E-02 0.  1.
    5000001    1    1    2    0    0 -0.83699925973E+01  0.16735028661E+03 -0.46859182058E+03  0.50357071949E+03  0.77000000000E+02 0.  0.
   -5000001    1    1    2    0    0  0.83699925973E+01 -0.16735028661E+03 -0.23584723763E+03  0.29938118629E+03  0.77000000000E+02 0.  0.
<mgrwt>
<rscale>  0 0.38535357E+03</rscale>
<asrwt>0</asrwt>
<pdfrwt beam="1">  1        2 0.10767078E+00 0.38535357E+03</pdfrwt>
<pdfrwt beam="2">  1       -2 0.70366324E-02 0.38535357E+03</pdfrwt>
<totfact> 0.48809884E+03</totfact>
</mgrwt>
</event>
<event>
 4    1  0.6919593E-004  0.2886124E+03  0.7818608E-02  0.1091076E+00
         -2   -1    0    0    0  501 -0.00000000000E+00  0.00000000000E+00  0.55964014675E+02  0.55964014733E+02  0.25500000000E-02 0. -1.
          2   -1    0    0  501    0  0.00000000000E+00 -0.00000000000E+00 -0.37210123516E+03  0.37210123517E+03  0.25500000000E-02 0.  1.
    5000001    1    1    2    0    0  0.10522265096E+02  0.11301531783E+03 -0.22459893598E+03  0.26316698533E+03  0.77000000000E+02 0.  0.
   -5000001    1    1    2    0    0 -0.10522265096E+02 -0.11301531783E+03 -0.91538284510E+02  0.16489826457E+03  0.77000000000E+02 0.  0.
<mgrwt>
<rscale>  0 0.28861240E+03</rscale>
<asrwt>0</asrwt>
<pdfrwt beam="1">  1        2 0.53157318E-01 0.28861240E+03</pdfrwt>
<pdfrwt beam="2">  1       -2 0.79948594E-02 0.28861240E+03</pdfrwt>
<totfact> 0.88289663E+03</totfact>
</mgrwt>
</event>
<event>
 4    1  0.6919593E-004  0.2167540E+03  0.7818608E-02  0.1136326E+00
         -2   -1    0    0    0  501 -0.00000000000E+00  0.00000000000E+00  0.98853517786E+01  0.98853521075E+01  0.25500000000E-02 0. -1.
          2   -1    0    0  501    0  0.00000000000E+00 -0.00000000000E+00 -0.11881798791E+04  0.11881798791E+04  0.25500000000E-02 0.  1.
    5000001    1    1    2    0    0  0.24339930918E+02 -0.72220703865E+02 -0.57320985551E+03  0.58335820965E+03  0.77000000000E+02 0.  0.
   -5000001    1    1    2    0    0 -0.24339930918E+02  0.72220703865E+02 -0.60508467185E+03  0.61470702161E+03  0.77000000000E+02 0.  0.
<mgrwt>
<rscale>  0 0.21675402E+03</rscale>
<asrwt>0</asrwt>
<pdfrwt beam="1">  1        2 0.16973989E+00 0.21675402E+03</pdfrwt>
<pdfrwt beam="2">  1       -2 0.14121939E-02 0.21675402E+03</pdfrwt>
<totfact> 0.28839073E+04</totfact>
</mgrwt>
</event>
<event>
 4    1  0.6919593E-004  0.4227518E+03  0.7818608E-02  0.1036174E+00
         -2   -1    0    0    0  501 -0.00000000000E+00  0.00000000000E+00  0.22269016429E+03  0.22269016430E+03  0.25500000000E-02 0. -1.
          2   -1    0    0  501    0  0.00000000000E+00 -0.00000000000E+00 -0.20063647029E+03  0.20063647031E+03  0.25500000000E-02 0.  1.
    5000001    1    1    2    0    0  0.87508595136E+02  0.16683428987E+03 -0.46141360753E+02  0.20868507295E+03  0.77000000000E+02 0.  0.
   -5000001    1    1    2    0    0 -0.87508595136E+02 -0.16683428987E+03  0.68195054749E+02  0.21464156166E+03  0.77000000000E+02 0.  0.
<mgrwt>
<rscale>  0 0.42275179E+03</rscale>
<asrwt>0</asrwt>
<pdfrwt beam="1">  1        2 0.28662353E-01 0.42275179E+03</pdfrwt>
<pdfrwt beam="2">  1       -2 0.31812881E-01 0.42275179E+03</pdfrwt>
<totfact> 0.17076048E+03</totfact>
</mgrwt>
</event>
<event>
 4    1  0.6919593E-004  0.2109684E+03  0.7818608E-02  0.1140801E+00
         -2   -1    0    0    0  501 -0.00000000000E+00  0.00000000000E+00  0.10956417464E+02  0.10956417760E+02  0.25500000000E-02 0. -1.
          2   -1    0    0  501    0  0.00000000000E+00 -0.00000000000E+00 -0.10155619858E+04  0.10155619858E+04  0.25500000000E-02 0.  1.
    5000001    1    1    2    0    0 -0.48812470236E+02  0.32801390067E+02 -0.70523013204E+03  0.71185470959E+03  0.77000000000E+02 0.  0.
   -5000001    1    1    2    0    0  0.48812470236E+02 -0.32801390067E+02 -0.29937543627E+03  0.31466369393E+03  0.77000000000E+02 0.  0.
<mgrwt>
<rscale>  0 0.21096845E+03</rscale>
<asrwt>0</asrwt>
<pdfrwt beam="1">  1        2 0.14508022E+00 0.21096845E+03</pdfrwt>
<pdfrwt beam="2">  1       -2 0.15652032E-02 0.21096845E+03</pdfrwt>
<totfact> 0.30956303E+04</totfact>
</mgrwt>
</event>
<event>
 4    1  0.6919593E-004  0.3504058E+03  0.7818608E-02  0.1062449E+00
         -2   -1    0    0    0  501 -0.00000000000E+00  0.00000000000E+00  0.14718454698E+02  0.14718454919E+02  0.25500000000E-02 0. -1.
          2   -1    0    0  501    0  0.00000000000E+00 -0.00000000000E+00 -0.20855490552E+04  0.20855490552E+04  0.25500000000E-02 0.  1.
    5000001    1    1    2    0    0 -0.14902938979E+03  0.49379809640E+02 -0.11007822116E+04  0.11145844974E+04  0.77000000000E+02 0.  0.
   -5000001    1    1    2    0    0  0.14902938979E+03 -0.49379809640E+02 -0.97004838890E+03  0.98568301265E+03  0.77000000000E+02 0.  0.
<mgrwt>
<rscale>  0 0.35040582E+03</rscale>
<asrwt>0</asrwt>
<pdfrwt beam="1">  1        2 0.29793539E+00 0.35040582E+03</pdfrwt>
<pdfrwt beam="2">  1       -2 0.21026377E-02 0.35040582E+03</pdfrwt>
<totfact> 0.57649477E+03</totfact>
</mgrwt>
</event>
<event>
 4    1  0.6919593E-004  0.2837958E+03  0.7818608E-02  0.1093634E+00
         -2   -1    0    0    0  501 -0.00000000000E+00  0.00000000000E+00  0.96764170035E+02  0.96764170069E+02  0.25500000000E-02 0. -1.
          2   -1    0    0  501    0  0.00000000000E+00 -0.00000000000E+00 -0.20808331456E+03  0.20808331458E+03  0.25500000000E-02 0.  1.
    5000001    1    1    2    0    0 -0.25286338858E+02  0.44183827176E+02  0.60104844477E+02  0.11015081410E+03  0.77000000000E+02 0.  0.
   -5000001    1    1    2    0    0  0.25286338858E+02 -0.44183827176E+02 -0.17142398900E+03  0.19469667055E+03  0.77000000000E+02 0.  0.
<mgrwt>
<rscale>  0 0.28379577E+03</rscale>
<asrwt>0</asrwt>
<pdfrwt beam="1">  1        2 0.29726188E-01 0.28379577E+03</pdfrwt>
<pdfrwt beam="2">  1       -2 0.13823453E-01 0.28379577E+03</pdfrwt>
<totfact> 0.69008285E+03</totfact>
</mgrwt>
</event>
<event>
 4    1  0.6919593E-004  0.3837220E+03  0.7818608E-02  0.1049567E+00
          2   -1    0    0  501    0  0.00000000000E+00  0.00000000000E+00  0.45408355820E+03  0.45408355821E+03  0.25500000000E-02 0.  1.
         -2   -1    0    0    0  501 -0.00000000000E+00 -0.00000000000E+00 -0.81065773630E+02  0.81065773670E+02  0.25500000000E-02 0. -1.
    5000001    1    1    2    0    0 -0.14244249725E+03 -0.75464453659E+01  0.32965248716E+03  0.36735075358E+03  0.77000000000E+02 0.  0.
   -5000001    1    1    2    0    0  0.14244249725E+03  0.75464453659E+01  0.43365297407E+02  0.16779857830E+03  0.77000000000E+02 0.  0.
<mgrwt>
<rscale>  0 0.38372196E+03</rscale>
<asrwt>0</asrwt>
<pdfrwt beam="1">  1        2 0.64869083E-01 0.38372196E+03</pdfrwt>
<pdfrwt beam="2">  1       -2 0.11580824E-01 0.38372196E+03</pdfrwt>
<totfact> 0.39699551E+03</totfact>
</mgrwt>
</event>
<event>
 4    1  0.6919593E-004  0.1768384E+03  0.7818608E-02  0.1170898E+00
         -2   -1    0    0    0  501 -0.00000000000E+00  0.00000000000E+00  0.33912642904E+01  0.33912652491E+01  0.25500000000E-02 0. -1.
          2   -1    0    0  501    0  0.00000000000E+00 -0.00000000000E+00 -0.23053211197E+04  0.23053211197E+04  0.25500000000E-02 0.  1.
    5000001    1    1    2    0    0  0.84725799323E+01 -0.38517460181E+02 -0.13894108984E+04  0.13921016572E+04  0.77000000000E+02 0.  0.
   -5000001    1    1    2    0    0 -0.84725799323E+01  0.38517460181E+02 -0.91251895697E+03  0.91661072772E+03  0.77000000000E+02 0.  0.
<mgrwt>
<rscale>  0 0.17683839E+03</rscale>
<asrwt>0</asrwt>
<pdfrwt beam="1">  1        2 0.32933059E+00 0.17683839E+03</pdfrwt>
<pdfrwt beam="2">  1       -2 0.48446787E-03 0.17683839E+03</pdfrwt>
<totfact> 0.37261056E+04</totfact>
</mgrwt>
</event>
<event>
 4    1  0.6919593E-004  0.2276522E+03  0.7818608E-02  0.1128303E+00
          2   -1    0    0  501    0  0.00000000000E+00  0.00000000000E+00  0.25079948792E+03  0.25079948793E+03  0.25500000000E-02 0.  1.
         -2   -1    0    0    0  501 -0.00000000000E+00 -0.00000000000E+00 -0.51660332686E+02  0.51660332748E+02  0.25500000000E-02 0. -1.
    5000001    1    1    2    0    0 -0.62443529286E+02 -0.49675177166E+02  0.13371671854E+03  0.17371234382E+03  0.77000000000E+02 0.  0.
   -5000001    1    1    2    0    0  0.62443529286E+02  0.49675177166E+02  0.65422436690E+02  0.12874747686E+03  0.77000000000E+02 0.  0.
<mgrwt>
<rscale>  0 0.22765223E+03</rscale>
<asrwt>0</asrwt>
<pdfrwt beam="1">  1        2 0.35828498E-01 0.22765223E+03</pdfrwt>
<pdfrwt beam="2">  1       -2 0.73800475E-02 0.22765223E+03</pdfrwt>
<totfact> 0.15110731E+04</totfact>
</mgrwt>
</event>
<event>
 4    1  0.6919593E-004  0.3704932E+03  0.7818608E-02  0.1054505E+00
          2   -1    0    0  501    0  0.00000000000E+00  0.00000000000E+00  0.16093909426E+04  0.16093909426E+04  0.25500000000E-02 0. -1.
         -2   -1    0    0    0  501 -0.00000000000E+00 -0.00000000000E+00 -0.21322541265E+02  0.21322541417E+02  0.25500000000E-02 0.  1.
    5000001    1    1    2    0    0  0.14072739259E+03 -0.88857282905E+02  0.67862768337E+03  0.70296824138E+03  0.77000000000E+02 0.  0.
   -5000001    1    1    2    0    0 -0.14072739259E+03  0.88857282905E+02  0.90944071794E+03  0.92774524261E+03  0.77000000000E+02 0.  0.
<mgrwt>
<rscale>  0 0.37049321E+03</rscale>
<asrwt>0</asrwt>
<pdfrwt beam="1">  1        2 0.22991302E+00 0.37049321E+03</pdfrwt>
<pdfrwt beam="2">  1       -2 0.30460769E-02 0.37049321E+03</pdfrwt>
<totfact> 0.57084894E+03</totfact>
</mgrwt>
</event>
<event>
 4    1  0.6919593E-004  0.1803088E+03  0.7818608E-02  0.1167505E+00
         -2   -1    0    0    0  501 -0.00000000000E+00  0.00000000000E+00  0.36081990548E+02  0.36081990638E+02  0.25500000000E-02 0. -1.
          2   -1    0    0  501    0  0.00000000000E+00 -0.00000000000E+00 -0.22525966043E+03  0.22525966045E+03  0.25500000000E-02 0.  1.
    5000001    1    1    2    0    0 -0.46081328449E+02 -0.79987132485E+01 -0.99471589238E+02  0.13420531029E+03  0.77000000000E+02 0.  0.
   -5000001    1    1    2    0    0  0.46081328449E+02  0.79987132485E+01 -0.89706080649E+02  0.12713634079E+03  0.77000000000E+02 0.  0.
<mgrwt>
<rscale>  0 0.18030881E+03</rscale>
<asrwt>0</asrwt>
<pdfrwt beam="1">  1        2 0.32179951E-01 0.18030881E+03</pdfrwt>
<pdfrwt beam="2">  1       -2 0.51545702E-02 0.18030881E+03</pdfrwt>
<totfact> 0.28872394E+04</totfact>
</mgrwt>
</event>
<event>
 4    1  0.6919593E-004  0.2591954E+03  0.7818608E-02  0.1107628E+00
          2   -1    0    0  501    0  0.00000000000E+00  0.00000000000E+00  0.56531451632E+03  0.56531451633E+03  0.25500000000E-02 0.  1.
         -2   -1    0    0    0  501 -0.00000000000E+00 -0.00000000000E+00 -0.29710133660E+02  0.29710133769E+02  0.25500000000E-02 0. -1.
    5000001    1    1    2    0    0  0.69446465900E+02  0.34972501724E+02  0.42719247685E+03  0.44098560042E+03  0.77000000000E+02 0.  0.
   -5000001    1    1    2    0    0 -0.69446465900E+02 -0.34972501724E+02  0.10841190581E+03  0.15403904968E+03  0.77000000000E+02 0.  0.
<mgrwt>
<rscale>  0 0.25919545E+03</rscale>
<asrwt>0</asrwt>
<pdfrwt beam="1">  1        2 0.80759214E-01 0.25919545E+03</pdfrwt>
<pdfrwt beam="2">  1       -2 0.42443050E-02 0.25919545E+03</pdfrwt>
<totfact> 0.14659836E+04</totfact>
</mgrwt>
</event>
<event>
 4    1  0.6919593E-004  0.2659990E+03  0.7818608E-02  0.1103592E+00
          2   -1    0    0  501    0  0.00000000000E+00  0.00000000000E+00  0.16938994618E+04  0.16938994618E+04  0.25500000000E-02 0.  1.
         -2   -1    0    0    0  501 -0.00000000000E+00 -0.00000000000E+00 -0.10442689522E+02  0.10442689834E+02  0.25500000000E-02 0. -1.
    5000001    1    1    2    0    0 -0.49099453141E+02  0.92604374812E+02  0.10199326728E+04  0.10281916084E+04  0.77000000000E+02 0.  0.
   -5000001    1    1    2    0    0  0.49099453141E+02 -0.92604374812E+02  0.66352409943E+03  0.67615054319E+03  0.77000000000E+02 0.  0.
<mgrwt>
<rscale>  0 0.26599900E+03</rscale>
<asrwt>0</asrwt>
<pdfrwt beam="1">  1        2 0.24198563E+00 0.26599900E+03</pdfrwt>
<pdfrwt beam="2">  1       -2 0.14918129E-02 0.26599900E+03</pdfrwt>
<totfact> 0.14822103E+04</totfact>
</mgrwt>
</event>
<event>
 4    1  0.6919593E-004  0.4071575E+03  0.7818608E-02  0.1041329E+00
         -2   -1    0    0    0  501 -0.00000000000E+00  0.00000000000E+00  0.25872781869E+03  0.25872781870E+03  0.25500000000E-02 0. -1.
          2   -1    0    0  501    0  0.00000000000E+00 -0.00000000000E+00 -0.16018496237E+03  0.16018496240E+03  0.25500000000E-02 0.  1.
    5000001    1    1    2    0    0 -0.15531811657E+03 -0.29884326217E+01 -0.60498409185E+02  0.18363470690E+03  0.77000000000E+02 0.  0.
   -5000001    1    1    2    0    0  0.15531811657E+03  0.29884326217E+01  0.15904126550E+03  0.23527807419E+03  0.77000000000E+02 0.  0.
<mgrwt>
<rscale>  0 0.40715749E+03</rscale>
<asrwt>0</asrwt>
<pdfrwt beam="1">  1        2 0.22883566E-01 0.40715749E+03</pdfrwt>
<pdfrwt beam="2">  1       -2 0.36961117E-01 0.40715749E+03</pdfrwt>
<totfact> 0.16615181E+03</totfact>
</mgrwt>
</event>
<event>
 4    1  0.6919593E-004  0.3330561E+03  0.7818608E-02  0.1069793E+00
         -2   -1    0    0    0  501 -0.00000000000E+00  0.00000000000E+00  0.28460299295E+02  0.28460299409E+02  0.25500000000E-02 0. -1.
          2   -1    0    0  501    0  0.00000000000E+00 -0.00000000000E+00 -0.97439585653E+03  0.97439585654E+03  0.25500000000E-02 0.  1.
    5000001    1    1    2    0    0  0.12244995338E+02 -0.14686099757E+03 -0.44528797238E+03  0.47531933567E+03  0.77000000000E+02 0.  0.
   -5000001    1    1    2    0    0 -0.12244995338E+02  0.14686099757E+03 -0.50064758486E+03  0.52753682027E+03  0.77000000000E+02 0.  0.
<mgrwt>
<rscale>  0 0.33305614E+03</rscale>
<asrwt>0</asrwt>
<pdfrwt beam="1">  1        2 0.13919939E+00 0.33305614E+03</pdfrwt>
<pdfrwt beam="2">  1       -2 0.40657577E-02 0.33305614E+03</pdfrwt>
<totfact> 0.81222845E+03</totfact>
</mgrwt>
</event>
<event>
 4    1  0.6919593E-004  0.3888059E+03  0.7818608E-02  0.1047726E+00
         -2   -1    0    0    0  501 -0.00000000000E+00  0.00000000000E+00  0.30636365747E+02  0.30636365853E+02  0.25500000000E-02 0. -1.
          2   -1    0    0  501    0  0.00000000000E+00 -0.00000000000E+00 -0.12335831296E+04  0.12335831296E+04  0.25500000000E-02 0.  1.
    5000001    1    1    2    0    0  0.16565973401E+03  0.63632003378E+02 -0.66412994389E+03  0.69172954375E+03  0.77000000000E+02 0.  0.
   -5000001    1    1    2    0    0 -0.16565973401E+03 -0.63632003378E+02 -0.53881681995E+03  0.57248995169E+03  0.77000000000E+02 0.  0.
<mgrwt>
<rscale>  0 0.38880588E+03</rscale>
<asrwt>0</asrwt>
<pdfrwt beam="1">  1        2 0.17622613E+00 0.38880588E+03</pdfrwt>
<pdfrwt beam="2">  1       -2 0.43766245E-02 0.38880588E+03</pdfrwt>
<totfact> 0.51797988E+03</totfact>
</mgrwt>
</event>
<event>
 4    1  0.6919593E-004  0.4147573E+03  0.7818608E-02  0.1038786E+00
         -2   -1    0    0    0  501 -0.00000000000E+00  0.00000000000E+00  0.16324944593E+02  0.16324944792E+02  0.25500000000E-02 0. -1.
          2   -1    0    0  501    0  0.00000000000E+00 -0.00000000000E+00 -0.26343671471E+04  0.26343671471E+04  0.25500000000E-02 0.  1.
    5000001    1    1    2    0    0  0.35993525872E+02 -0.17532434501E+03 -0.17628566219E+04  0.17735914494E+04  0.77000000000E+02 0.  0.
   -5000001    1    1    2    0    0 -0.35993525872E+02  0.17532434501E+03 -0.85518558064E+03  0.87710064257E+03  0.77000000000E+02 0.  0.
<mgrwt>
<rscale>  0 0.41475727E+03</rscale>
<asrwt>0</asrwt>
<pdfrwt beam="1">  1        2 0.37633789E+00 0.41475727E+03</pdfrwt>
<pdfrwt beam="2">  1       -2 0.23321366E-02 0.41475727E+03</pdfrwt>
<totfact> 0.26180579E+03</totfact>
</mgrwt>
</event>
<event>
 4    1  0.6919593E-004  0.2310182E+03  0.7818608E-02  0.1125925E+00
         -2   -1    0    0    0  501 -0.00000000000E+00  0.00000000000E+00  0.16711993153E+02  0.16711993348E+02  0.25500000000E-02 0. -1.
          2   -1    0    0  501    0  0.00000000000E+00 -0.00000000000E+00 -0.79836997495E+03  0.79836997496E+03  0.25500000000E-02 0.  1.
    5000001    1    1    2    0    0  0.30950143612E+02 -0.80201794458E+02 -0.37386623182E+03  0.39127381527E+03  0.77000000000E+02 0.  0.
   -5000001    1    1    2    0    0 -0.30950143612E+02  0.80201794458E+02 -0.40779174998E+03  0.42380815303E+03  0.77000000000E+02 0.  0.
<mgrwt>
<rscale>  0 0.23101821E+03</rscale>
<asrwt>0</asrwt>
<pdfrwt beam="1">  1        2 0.11405283E+00 0.23101821E+03</pdfrwt>
<pdfrwt beam="2">  1       -2 0.23874281E-02 0.23101821E+03</pdfrwt>
<totfact> 0.22888226E+04</totfact>
</mgrwt>
</event>
<event>
 4    1  0.6919593E-004  0.1796529E+03  0.7818608E-02  0.1168139E+00
          2   -1    0    0  501    0  0.00000000000E+00  0.00000000000E+00  0.31252121042E+03  0.31252121043E+03  0.25500000000E-02 0.  1.
         -2   -1    0    0    0  501 -0.00000000000E+00 -0.00000000000E+00 -0.25818374856E+02  0.25818374982E+02  0.25500000000E-02 0. -1.
    5000001    1    1    2    0    0  0.12392090581E+02  0.43172857431E+02  0.16418123983E+03  0.18682060657E+03  0.77000000000E+02 0.  0.
   -5000001    1    1    2    0    0 -0.12392090581E+02 -0.43172857431E+02  0.12252159573E+03  0.15151897884E+03  0.77000000000E+02 0.  0.
<mgrwt>
<rscale>  0 0.17965289E+03</rscale>
<asrwt>0</asrwt>
<pdfrwt beam="1">  1        2 0.44645885E-01 0.17965289E+03</pdfrwt>
<pdfrwt beam="2">  1       -2 0.36883394E-02 0.17965289E+03</pdfrwt>
<totfact> 0.33550637E+04</totfact>
</mgrwt>
</event>
<event>
 4    1  0.6919593E-004  0.2172642E+03  0.7818608E-02  0.1135939E+00
         -2   -1    0    0    0  501 -0.00000000000E+00  0.00000000000E+00  0.79273334144E+01  0.79273338246E+01  0.25500000000E-02 0. -1.
          2   -1    0    0  501    0  0.00000000000E+00 -0.00000000000E+00 -0.14886390540E+04  0.14886390540E+04  0.25500000000E-02 0.  1.
    5000001    1    1    2    0    0  0.67998419162E+02 -0.35305017637E+02 -0.73135058315E+03  0.73937331894E+03  0.77000000000E+02 0.  0.
   -5000001    1    1    2    0    0 -0.67998419162E+02  0.35305017637E+02 -0.74936113741E+03  0.75719306886E+03  0.77000000000E+02 0.  0.
<mgrwt>
<rscale>  0 0.21726425E+03</rscale>
<asrwt>0</asrwt>
<pdfrwt beam="1">  1        2 0.21266254E+00 0.21726425E+03</pdfrwt>
<pdfrwt beam="2">  1       -2 0.11324772E-02 0.21726425E+03</pdfrwt>
<totfact> 0.27750114E+04</totfact>
</mgrwt>
</event>
<event>
 4    1  0.6919593E-004  0.3334361E+03  0.7818608E-02  0.1069627E+00
         -2   -1    0    0    0  501 -0.00000000000E+00  0.00000000000E+00  0.11570716841E+03  0.11570716843E+03  0.25500000000E-02 0. -1.
          2   -1    0    0  501    0  0.00000000000E+00 -0.00000000000E+00 -0.24021774278E+03  0.24021774279E+03  0.25500000000E-02 0.  1.
    5000001    1    1    2    0    0  0.14808778331E+02 -0.14185554518E+03 -0.20589083166E+02  0.16338667620E+03  0.77000000000E+02 0.  0.
   -5000001    1    1    2    0    0 -0.14808778331E+02  0.14185554518E+03 -0.10392149121E+03  0.19253823503E+03  0.77000000000E+02 0.  0.
<mgrwt>
<rscale>  0 0.33343614E+03</rscale>
<asrwt>0</asrwt>
<pdfrwt beam="1">  1        2 0.34316820E-01 0.33343614E+03</pdfrwt>
<pdfrwt beam="2">  1       -2 0.16529596E-01 0.33343614E+03</pdfrwt>
<totfact> 0.44058770E+03</totfact>
</mgrwt>
</event>
<event>
 4    1  0.6919593E-004  0.6116269E+03  0.7818608E-02  0.9881573E-01
         -2   -1    0    0    0  501 -0.00000000000E+00  0.00000000000E+00  0.71599991781E+03  0.71599991781E+03  0.25500000000E-02 0. -1.
          2   -1    0    0  501    0  0.00000000000E+00 -0.00000000000E+00 -0.13061716292E+03  0.13061716294E+03  0.25500000000E-02 0.  1.
    5000001    1    1    2    0    0  0.77712304956E+02 -0.21600462340E+03  0.55126620464E+03  0.60209685936E+03  0.77000000000E+02 0.  0.
   -5000001    1    1    2    0    0 -0.77712304956E+02  0.21600462340E+03  0.34116550254E+02  0.24452022140E+03  0.77000000000E+02 0.  0.
<mgrwt>
<rscale>  0 0.61162694E+03</rscale>
<asrwt>0</asrwt>
<pdfrwt beam="1">  1        2 0.18659595E-01 0.61162694E+03</pdfrwt>
<pdfrwt beam="2">  1       -2 0.10228570E+00 0.61162694E+03</pdfrwt>
<totfact> 0.24423045E+02</totfact>
</mgrwt>
</event>
<event>
 4    1  0.6919593E-004  0.1886842E+03  0.7818608E-02  0.1159653E+00
         -2   -1    0    0    0  501 -0.00000000000E+00  0.00000000000E+00  0.11309558428E+02  0.11309558715E+02  0.25500000000E-02 0. -1.
          2   -1    0    0  501    0  0.00000000000E+00 -0.00000000000E+00 -0.78698347674E+03  0.78698347675E+03  0.25500000000E-02 0.  1.
    5000001    1    1    2    0    0 -0.40972196405E+02 -0.35552949846E+02 -0.41050361156E+03  0.42117092519E+03  0.77000000000E+02 0.  0.
   -5000001    1    1    2    0    0  0.40972196405E+02  0.35552949846E+02 -0.36517030676E+03  0.37712211027E+03  0.77000000000E+02 0.  0.
<mgrwt>
<rscale>  0 0.18868424E+03</rscale>
<asrwt>0</asrwt>
<pdfrwt beam="1">  1        2 0.11242618E+00 0.18868424E+03</pdfrwt>
<pdfrwt beam="2">  1       -2 0.16156517E-02 0.18868424E+03</pdfrwt>
<totfact> 0.40651736E+04</totfact>
</mgrwt>
</event>
<event>
 4    1  0.6919593E-004  0.1966312E+03  0.7818608E-02  0.1152613E+00
          2   -1    0    0  501    0  0.00000000000E+00  0.00000000000E+00  0.24641431364E+03  0.24641431365E+03  0.25500000000E-02 0.  1.
         -2   -1    0    0    0  501 -0.00000000000E+00 -0.00000000000E+00 -0.39226424363E+02  0.39226424446E+02  0.25500000000E-02 0. -1.
    5000001    1    1    2    0    0  0.47368902998E+02  0.14119062450E+02  0.15584559109E+03  0.18072080444E+03  0.77000000000E+02 0.  0.
   -5000001    1    1    2    0    0 -0.47368902998E+02 -0.14119062450E+02  0.51342298189E+02  0.10491993366E+03  0.77000000000E+02 0.  0.
<mgrwt>
<rscale>  0 0.19663115E+03</rscale>
<asrwt>0</asrwt>
<pdfrwt beam="1">  1        2 0.35202045E-01 0.19663115E+03</pdfrwt>
<pdfrwt beam="2">  1       -2 0.56037750E-02 0.19663115E+03</pdfrwt>
<totfact> 0.23255829E+04</totfact>
</mgrwt>
</event>
<event>
 4    1  0.6919593E-004  0.3711660E+03  0.7818608E-02  0.1054248E+00
          2   -1    0    0  501    0  0.00000000000E+00  0.00000000000E+00  0.41429233323E+03  0.41429233324E+03  0.25500000000E-02 0.  1.
         -2   -1    0    0    0  501 -0.00000000000E+00 -0.00000000000E+00 -0.83132238433E+02  0.83132238472E+02  0.25500000000E-02 0. -1.
    5000001    1    1    2    0    0 -0.15908845694E+03  0.45831617281E+02  0.21007632538E+03  0.27833565485E+03  0.77000000000E+02 0.  0.
   -5000001    1    1    2    0    0  0.15908845694E+03 -0.45831617281E+02  0.12108376941E+03  0.21908891686E+03  0.77000000000E+02 0.  0.
<mgrwt>
<rscale>  0 0.37116600E+03</rscale>
<asrwt>0</asrwt>
<pdfrwt beam="1">  1        2 0.59184620E-01 0.37116600E+03</pdfrwt>
<pdfrwt beam="2">  1       -2 0.11876034E-01 0.37116600E+03</pdfrwt>
<totfact> 0.42127481E+03</totfact>
</mgrwt>
</event>
<event>
 4    1  0.6919593E-004  0.5292693E+03  0.7818608E-02  0.1006409E+00
          2   -1    0    0  501    0  0.00000000000E+00  0.00000000000E+00  0.14362631784E+04  0.14362631784E+04  0.25500000000E-02 0.  1.
         -2   -1    0    0    0  501 -0.00000000000E+00 -0.00000000000E+00 -0.48759510241E+02  0.48759510308E+02  0.25500000000E-02 0. -1.
    5000001    1    1    2    0    0  0.22810346575E+03 -0.89154223372E+02  0.87390991009E+03  0.91083873302E+03  0.77000000000E+02 0.  0.
   -5000001    1    1    2    0    0 -0.22810346575E+03  0.89154223372E+02  0.51359375806E+03  0.57418395567E+03  0.77000000000E+02 0.  0.
<mgrwt>
<rscale>  0 0.52926927E+03</rscale>
<asrwt>0</asrwt>
<pdfrwt beam="1">  1        2 0.20518042E+00 0.52926927E+03</pdfrwt>
<pdfrwt beam="2">  1       -2 0.69656453E-02 0.52926927E+03</pdfrwt>
<totfact> 0.19649608E+03</totfact>
</mgrwt>
</event>
<event>
 4    1  0.6919593E-004  0.3143988E+03  0.7818608E-02  0.1078256E+00
         -2   -1    0    0    0  501 -0.00000000000E+00  0.00000000000E+00  0.10110160528E+02  0.10110160850E+02  0.25500000000E-02 0. -1.
          2   -1    0    0  501    0  0.00000000000E+00 -0.00000000000E+00 -0.24442388901E+04  0.24442388901E+04  0.25500000000E-02 0.  1.
    5000001    1    1    2    0    0  0.79233915648E+02  0.16169256959E+02 -0.20808436132E+04  0.20838374699E+04  0.77000000000E+02 0.  0.
   -5000001    1    1    2    0    0 -0.79233915648E+02 -0.16169256959E+02 -0.35328511631E+03  0.37051158101E+03  0.77000000000E+02 0.  0.
<mgrwt>
<rscale>  0 0.31439878E+03</rscale>
<asrwt>0</asrwt>
<pdfrwt beam="1">  1        2 0.34917661E+00 0.31439878E+03</pdfrwt>
<pdfrwt beam="2">  1       -2 0.14443102E-02 0.31439878E+03</pdfrwt>
<totfact> 0.66674798E+03</totfact>
</mgrwt>
</event>
<event>
 4    1  0.6919593E-004  0.2627470E+03  0.7818608E-02  0.1105504E+00
          2   -1    0    0  501    0  0.00000000000E+00  0.00000000000E+00  0.74582909365E+03  0.74582909366E+03  0.25500000000E-02 0.  1.
         -2   -1    0    0    0  501 -0.00000000000E+00 -0.00000000000E+00 -0.23140693121E+02  0.23140693262E+02  0.25500000000E-02 0. -1.
    5000001    1    1    2    0    0  0.44359503897E+02  0.55562341687E+02  0.59317998823E+03  0.60236736120E+03  0.77000000000E+02 0.  0.
   -5000001    1    1    2    0    0 -0.44359503897E+02 -0.55562341687E+02  0.12950841231E+03  0.16660242573E+03  0.77000000000E+02 0.  0.
<mgrwt>
<rscale>  0 0.26274704E+03</rscale>
<asrwt>0</asrwt>
<pdfrwt beam="1">  1        2 0.10654701E+00 0.26274704E+03</pdfrwt>
<pdfrwt beam="2">  1       -2 0.33058135E-02 0.26274704E+03</pdfrwt>
<totfact> 0.15455300E+04</totfact>
</mgrwt>
</event>
<event>
 4    1  0.6919593E-004  0.2148441E+03  0.7818608E-02  0.1137786E+00
          2   -1    0    0  501    0  0.00000000000E+00  0.00000000000E+00  0.11812094833E+04  0.11812094833E+04  0.25500000000E-02 0.  1.
         -2   -1    0    0    0  501 -0.00000000000E+00 -0.00000000000E+00 -0.97692215474E+01  0.97692218802E+01  0.25500000000E-02 0. -1.
    5000001    1    1    2    0    0  0.70183893383E+01  0.59107893375E+02  0.83777955821E+03  0.84341365237E+03  0.77000000000E+02 0.  0.
   -5000001    1    1    2    0    0 -0.70183893383E+01 -0.59107893375E+02  0.33366070352E+03  0.34756505279E+03  0.77000000000E+02 0.  0.
<mgrwt>
<rscale>  0 0.21484410E+03</rscale>
<asrwt>0</asrwt>
<pdfrwt beam="1">  1        2 0.16874404E+00 0.21484410E+03</pdfrwt>
<pdfrwt beam="2">  1       -2 0.13956045E-02 0.21484410E+03</pdfrwt>
<totfact> 0.29578435E+04</totfact>
</mgrwt>
</event>
<event>
 4    1  0.6919593E-004  0.3716842E+03  0.7818608E-02  0.1054051E+00
         -2   -1    0    0    0  501 -0.00000000000E+00  0.00000000000E+00  0.35656318199E+02  0.35656318291E+02  0.25500000000E-02 0. -1.
          2   -1    0    0  501    0  0.00000000000E+00 -0.00000000000E+00 -0.96861606579E+03  0.96861606579E+03  0.25500000000E-02 0.  1.
    5000001    1    1    2    0    0 -0.91690242151E+02  0.11913651377E+03 -0.67590587252E+03  0.69669100606E+03  0.77000000000E+02 0.  0.
   -5000001    1    1    2    0    0  0.91690242151E+02 -0.11913651377E+03 -0.25705387507E+03  0.30758137802E+03  0.77000000000E+02 0.  0.
<mgrwt>
<rscale>  0 0.37168418E+03</rscale>
<asrwt>0</asrwt>
<pdfrwt beam="1">  1        2 0.13837371E+00 0.37168418E+03</pdfrwt>
<pdfrwt beam="2">  1       -2 0.50937603E-02 0.37168418E+03</pdfrwt>
<totfact> 0.58214685E+03</totfact>
</mgrwt>
</event>
<event>
 4    1  0.6919593E-004  0.1965452E+03  0.7818608E-02  0.1152687E+00
          2   -1    0    0  501    0  0.00000000000E+00  0.00000000000E+00  0.61217255519E+01  0.61217260830E+01  0.25500000000E-02 0.  1.
         -2   -1    0    0    0  501 -0.00000000000E+00 -0.00000000000E+00 -0.15775784611E+04  0.15775784611E+04  0.25500000000E-02 0. -1.
    5000001    1    1    2    0    0 -0.98433688983E+01  0.59962555000E+02 -0.73731319348E+03  0.74380921290E+03  0.77000000000E+02 0.  0.
   -5000001    1    1    2    0    0  0.98433688983E+01 -0.59962555000E+02 -0.83414354205E+03  0.83989097427E+03  0.77000000000E+02 0.  0.
<mgrwt>
<rscale>  0 0.19654519E+03</rscale>
<asrwt>0</asrwt>
<pdfrwt beam="1">  1        2 0.87453327E-03 0.19654519E+03</pdfrwt>
<pdfrwt beam="2">  1       -2 0.22536809E+00 0.19654519E+03</pdfrwt>
<totfact> 0.17250702E+03</totfact>
</mgrwt>
</event>
<event>
 4    1  0.6919593E-004  0.1696597E+03  0.7818608E-02  0.1178203E+00
          2   -1    0    0  501    0  0.00000000000E+00  0.00000000000E+00  0.46815865016E+03  0.46815865016E+03  0.25500000000E-02 0.  1.
         -2   -1    0    0    0  501 -0.00000000000E+00 -0.00000000000E+00 -0.15371086172E+02  0.15371086384E+02  0.25500000000E-02 0. -1.
    5000001    1    1    2    0    0  0.62128911035E+01 -0.33151239695E+02  0.19396108067E+03  0.21139419464E+03  0.77000000000E+02 0.  0.
   -5000001    1    1    2    0    0 -0.62128911035E+01  0.33151239695E+02  0.25882648331E+03  0.27213554191E+03  0.77000000000E+02 0.  0.
<mgrwt>
<rscale>  0 0.16965974E+03</rscale>
<asrwt>0</asrwt>
<pdfrwt beam="1">  1        2 0.66879796E-01 0.16965974E+03</pdfrwt>
<pdfrwt beam="2">  1       -2 0.21958698E-02 0.16965974E+03</pdfrwt>
<totfact> 0.46494757E+04</totfact>
</mgrwt>
</event>
<event>
 4    1  0.6919593E-004  0.2033345E+03  0.7818608E-02  0.1146956E+00
          2   -1    0    0  501    0  0.00000000000E+00  0.00000000000E+00  0.18660342234E+02  0.18660342409E+02  0.25500000000E-02 0.  1.
         -2   -1    0    0    0  501 -0.00000000000E+00 -0.00000000000E+00 -0.55391403818E+03  0.55391403819E+03  0.25500000000E-02 0. -1.
    5000001    1    1    2    0    0  0.52659769133E+02  0.28232504049E+02 -0.18615461893E+03  0.21012536191E+03  0.77000000000E+02 0.  0.
   -5000001    1    1    2    0    0 -0.52659769133E+02 -0.28232504049E+02 -0.34909907702E+03  0.36244901869E+03  0.77000000000E+02 0.  0.
<mgrwt>
<rscale>  0 0.20333446E+03</rscale>
<asrwt>0</asrwt>
<pdfrwt beam="1">  1        2 0.26657635E-02 0.20333446E+03</pdfrwt>
<pdfrwt beam="2">  1       -2 0.79130567E-01 0.20333446E+03</pdfrwt>
<totfact> 0.52546650E+03</totfact>
</mgrwt>
</event>
<event>
 4    1  0.6919593E-004  0.1623085E+03  0.7818608E-02  0.1186115E+00
          2   -1    0    0  501    0  0.00000000000E+00  0.00000000000E+00  0.46793050424E+03  0.46793050425E+03  0.25500000000E-02 0.  1.
         -2   -1    0    0    0  501 -0.00000000000E+00 -0.00000000000E+00 -0.14074758245E+02  0.14074758476E+02  0.25500000000E-02 0. -1.
    5000001    1    1    2    0    0 -0.62203902750E+01 -0.89593423592E+01  0.29581216800E+03  0.30586402503E+03  0.77000000000E+02 0.  0.
   -5000001    1    1    2    0    0  0.62203902750E+01  0.89593423592E+01  0.15804357800E+03  0.17614123770E+03  0.77000000000E+02 0.  0.
<mgrwt>
<rscale>  0 0.16230846E+03</rscale>
<asrwt>0</asrwt>
<pdfrwt beam="1">  1        2 0.66847194E-01 0.16230846E+03</pdfrwt>
<pdfrwt beam="2">  1       -2 0.20106804E-02 0.16230846E+03</pdfrwt>
<totfact> 0.52667824E+04</totfact>
</mgrwt>
</event>
<event>
 4    1  0.6919593E-004  0.1906996E+03  0.7818608E-02  0.1157832E+00
         -2   -1    0    0    0  501 -0.00000000000E+00  0.00000000000E+00  0.58334004598E+01  0.58334010172E+01  0.25500000000E-02 0. -1.
          2   -1    0    0  501    0  0.00000000000E+00 -0.00000000000E+00 -0.15585388961E+04  0.15585388961E+04  0.25500000000E-02 0.  1.
    5000001    1    1    2    0    0  0.14854368461E+02  0.54063033608E+02 -0.81222119616E+03  0.81778709660E+03  0.77000000000E+02 0.  0.
   -5000001    1    1    2    0    0 -0.14854368461E+02 -0.54063033608E+02 -0.74048429945E+03  0.74658520049E+03  0.77000000000E+02 0.  0.
<mgrwt>
<rscale>  0 0.19069957E+03</rscale>
<asrwt>0</asrwt>
<pdfrwt beam="1">  1        2 0.22264815E+00 0.19069957E+03</pdfrwt>
<pdfrwt beam="2">  1       -2 0.83334396E-03 0.19069957E+03</pdfrwt>
<totfact> 0.39550366E+04</totfact>
</mgrwt>
</event>
<event>
 4    1  0.6919593E-004  0.3266551E+03  0.7818608E-02  0.1072627E+00
          2   -1    0    0  501    0  0.00000000000E+00  0.00000000000E+00  0.56036501293E+03  0.56036501294E+03  0.25500000000E-02 0.  1.
         -2   -1    0    0    0  501 -0.00000000000E+00 -0.00000000000E+00 -0.47604481818E+02  0.47604481887E+02  0.25500000000E-02 0. -1.
    5000001    1    1    2    0    0 -0.13703827529E+03 -0.14374146829E+02  0.17828134160E+03  0.23811623581E+03  0.77000000000E+02 0.  0.
   -5000001    1    1    2    0    0  0.13703827529E+03  0.14374146829E+02  0.33447918951E+03  0.36985325902E+03  0.77000000000E+02 0.  0.
<mgrwt>
<rscale>  0 0.32665508E+03</rscale>
<asrwt>0</asrwt>
<pdfrwt beam="1">  1        2 0.80052150E-01 0.32665508E+03</pdfrwt>
<pdfrwt beam="2">  1       -2 0.68006398E-02 0.32665508E+03</pdfrwt>
<totfact> 0.72688752E+03</totfact>
</mgrwt>
</event>
<event>
 4    1  0.6919593E-004  0.2368629E+03  0.7818608E-02  0.1121900E+00
          2   -1    0    0  501    0  0.00000000000E+00  0.00000000000E+00  0.57730327997E+03  0.57730327997E+03  0.25500000000E-02 0.  1.
         -2   -1    0    0    0  501 -0.00000000000E+00 -0.00000000000E+00 -0.24295734986E+02  0.24295735119E+02  0.25500000000E-02 0. -1.
    5000001    1    1    2    0    0 -0.21744682668E+02  0.87045002079E+02  0.25902776483E+03  0.28473504625E+03  0.77000000000E+02 0.  0.
   -5000001    1    1    2    0    0  0.21744682668E+02 -0.87045002079E+02  0.29397978015E+03  0.31686396884E+03  0.77000000000E+02 0.  0.
<mgrwt>
<rscale>  0 0.23686289E+03</rscale>
<asrwt>0</asrwt>
<pdfrwt beam="1">  1        2 0.82471895E-01 0.23686289E+03</pdfrwt>
<pdfrwt beam="2">  1       -2 0.34708194E-02 0.23686289E+03</pdfrwt>
<totfact> 0.19263430E+04</totfact>
</mgrwt>
</event>
<event>
 4    1  0.6919593E-004  0.2852184E+03  0.7818608E-02  0.1092872E+00
         -2   -1    0    0    0  501 -0.00000000000E+00  0.00000000000E+00  0.12476590974E+02  0.12476591234E+02  0.25500000000E-02 0. -1.
          2   -1    0    0  501    0  0.00000000000E+00 -0.00000000000E+00 -0.16300431886E+04  0.16300431886E+04  0.25500000000E-02 0.  1.
    5000001    1    1    2    0    0 -0.45389033135E+02  0.85190451950E+02 -0.39789259736E+03  0.41661144543E+03  0.77000000000E+02 0.  0.
   -5000001    1    1    2    0    0  0.45389033135E+02 -0.85190451950E+02 -0.12196740003E+04  0.12259083344E+04  0.77000000000E+02 0.  0.
<mgrwt>
<rscale>  0 0.28521839E+03</rscale>
<asrwt>0</asrwt>
<pdfrwt beam="1">  1        2 0.23286318E+00 0.28521839E+03</pdfrwt>
<pdfrwt beam="2">  1       -2 0.17823712E-02 0.28521839E+03</pdfrwt>
<totfact> 0.12305077E+04</totfact>
</mgrwt>
</event>
<event>
 4    1  0.6919593E-004  0.2771888E+03  0.7818608E-02  0.1097234E+00
         -2   -1    0    0    0  501 -0.00000000000E+00  0.00000000000E+00  0.23487417431E+03  0.23487417432E+03  0.25500000000E-02 0. -1.
          2   -1    0    0  501    0  0.00000000000E+00 -0.00000000000E+00 -0.81781665417E+02  0.81781665457E+02  0.25500000000E-02 0.  1.
    5000001    1    1    2    0    0 -0.91814203263E+02  0.41292695473E+02  0.12486482893E+02  0.12735716264E+03  0.77000000000E+02 0.  0.
   -5000001    1    1    2    0    0  0.91814203263E+02 -0.41292695473E+02  0.14060602600E+03  0.18929867714E+03  0.77000000000E+02 0.  0.
<mgrwt>
<rscale>  0 0.27718875E+03</rscale>
<asrwt>0</asrwt>
<pdfrwt beam="1">  1        2 0.11683095E-01 0.27718875E+03</pdfrwt>
<pdfrwt beam="2">  1       -2 0.33553454E-01 0.27718875E+03</pdfrwt>
<totfact> 0.43669203E+03</totfact>
</mgrwt>
</event>
<event>
 4    1  0.6919593E-004  0.2625545E+03  0.7818608E-02  0.1105618E+00
         -2   -1    0    0    0  501 -0.00000000000E+00  0.00000000000E+00  0.17081223071E+02  0.17081223262E+02  0.25500000000E-02 0. -1.
          2   -1    0    0  501    0  0.00000000000E+00 -0.00000000000E+00 -0.10089273525E+04  0.10089273525E+04  0.25500000000E-02 0.  1.
    5000001    1    1    2    0    0  0.81010044805E+02  0.68491789830E+02 -0.46802661155E+03  0.48603668766E+03  0.77000000000E+02 0.  0.
   -5000001    1    1    2    0    0 -0.81010044805E+02 -0.68491789830E+02 -0.52381951793E+03  0.53997188815E+03  0.77000000000E+02 0.  0.
<mgrwt>
<rscale>  0 0.26255448E+03</rscale>
<asrwt>0</asrwt>
<pdfrwt beam="1">  1        2 0.14413244E+00 0.26255448E+03</pdfrwt>
<pdfrwt beam="2">  1       -2 0.24401754E-02 0.26255448E+03</pdfrwt>
<totfact> 0.16483859E+04</totfact>
</mgrwt>
</event>
<event>
 4    1  0.6919593E-004  0.1931065E+03  0.7818608E-02  0.1155689E+00
          2   -1    0    0  501    0  0.00000000000E+00  0.00000000000E+00  0.47172028787E+03  0.47172028787E+03  0.25500000000E-02 0.  1.
         -2   -1    0    0    0  501 -0.00000000000E+00 -0.00000000000E+00 -0.19762831158E+02  0.19762831323E+02  0.25500000000E-02 0. -1.
    5000001    1    1    2    0    0 -0.62444614192E+01 -0.57900112361E+02  0.22967762862E+03  0.24914298987E+03  0.77000000000E+02 0.  0.
   -5000001    1    1    2    0    0  0.62444614192E+01  0.57900112361E+02  0.22227982809E+03  0.24234012933E+03  0.77000000000E+02 0.  0.
<mgrwt>
<rscale>  0 0.19310648E+03</rscale>
<asrwt>0</asrwt>
<pdfrwt beam="1">  1        2 0.67388599E-01 0.19310648E+03</pdfrwt>
<pdfrwt beam="2">  1       -2 0.28232622E-02 0.19310648E+03</pdfrwt>
<totfact> 0.32259541E+04</totfact>
</mgrwt>
</event>
<event>
 4    1  0.6919593E-004  0.1848117E+03  0.7818608E-02  0.1163226E+00
          2   -1    0    0  501    0  0.00000000000E+00  0.00000000000E+00  0.39954916470E+03  0.39954916471E+03  0.25500000000E-02 0.  1.
         -2   -1    0    0    0  501 -0.00000000000E+00 -0.00000000000E+00 -0.21371185269E+02  0.21371185421E+02  0.25500000000E-02 0. -1.
    5000001    1    1    2    0    0 -0.33258582917E+02 -0.38577252239E+02  0.19805620857E+03  0.21851681739E+03  0.77000000000E+02 0.  0.
   -5000001    1    1    2    0    0  0.33258582917E+02  0.38577252239E+02  0.18012177086E+03  0.20240353274E+03  0.77000000000E+02 0.  0.
<mgrwt>
<rscale>  0 0.18481168E+03</rscale>
<asrwt>0</asrwt>
<pdfrwt beam="1">  1        2 0.57078449E-01 0.18481168E+03</pdfrwt>
<pdfrwt beam="2">  1       -2 0.30530267E-02 0.18481168E+03</pdfrwt>
<totfact> 0.34246816E+04</totfact>
</mgrwt>
</event>
<event>
 4    1  0.6919593E-004  0.7331927E+03  0.7818608E-02  0.9662094E-01
         -2   -1    0    0    0  501 -0.00000000000E+00  0.00000000000E+00  0.67606944815E+03  0.67606944815E+03  0.25500000000E-02 0. -1.
          2   -1    0    0  501    0  0.00000000000E+00 -0.00000000000E+00 -0.19878559914E+03  0.19878559916E+03  0.25500000000E-02 0.  1.
    5000001    1    1    2    0    0 -0.27438301265E+03  0.52768633027E+02  0.50649979282E+03  0.58355942833E+03  0.77000000000E+02 0.  0.
   -5000001    1    1    2    0    0  0.27438301265E+03 -0.52768633027E+02 -0.29215943818E+02  0.29129561898E+03  0.77000000000E+02 0.  0.
<mgrwt>
<rscale>  0 0.73319266E+03</rscale>
<asrwt>0</asrwt>
<pdfrwt beam="1">  1        2 0.28397943E-01 0.73319266E+03</pdfrwt>
<pdfrwt beam="2">  1       -2 0.96581350E-01 0.73319266E+03</pdfrwt>
<totfact> 0.17139044E+02</totfact>
</mgrwt>
</event>
<event>
 4    1  0.6919593E-004  0.2069016E+03  0.7818608E-02  0.1144043E+00
         -2   -1    0    0    0  501 -0.00000000000E+00  0.00000000000E+00  0.87059064710E+02  0.87059064748E+02  0.25500000000E-02 0. -1.
          2   -1    0    0  501    0  0.00000000000E+00 -0.00000000000E+00 -0.12292878990E+03  0.12292878992E+03  0.25500000000E-02 0.  1.
    5000001    1    1    2    0    0  0.58450092193E+02  0.48718796668E+01  0.19118867291E+02  0.98664479806E+02  0.77000000000E+02 0.  0.
   -5000001    1    1    2    0    0 -0.58450092193E+02 -0.48718796668E+01 -0.54988592477E+02  0.11132337487E+03  0.77000000000E+02 0.  0.
<mgrwt>
<rscale>  0 0.20690158E+03</rscale>
<asrwt>0</asrwt>
<pdfrwt beam="1">  1        2 0.17561256E-01 0.20690158E+03</pdfrwt>
<pdfrwt beam="2">  1       -2 0.12437009E-01 0.20690158E+03</pdfrwt>
<totfact> 0.14579387E+04</totfact>
</mgrwt>
</event>
<event>
 4    1  0.6919593E-004  0.4387905E+03  0.7818608E-02  0.1031119E+00
         -2   -1    0    0    0  501 -0.00000000000E+00  0.00000000000E+00  0.26659630986E+02  0.26659631108E+02  0.25500000000E-02 0. -1.
          2   -1    0    0  501    0  0.00000000000E+00 -0.00000000000E+00 -0.18055113550E+04  0.18055113550E+04  0.25500000000E-02 0.  1.
    5000001    1    1    2    0    0  0.57493462484E+02 -0.72705875213E+02 -0.16549634080E+04  0.16593446069E+04  0.77000000000E+02 0.  0.
   -5000001    1    1    2    0    0 -0.57493462484E+02  0.72705875213E+02 -0.12388831603E+03  0.17282637926E+03  0.77000000000E+02 0.  0.
<mgrwt>
<rscale>  0 0.43879046E+03</rscale>
<asrwt>0</asrwt>
<pdfrwt beam="1">  1        2 0.25793012E+00 0.43879046E+03</pdfrwt>
<pdfrwt beam="2">  1       -2 0.38085199E-02 0.43879046E+03</pdfrwt>
<totfact> 0.32474512E+03</totfact>
</mgrwt>
</event>
<event>
 4    1  0.6919593E-004  0.1665415E+03  0.7818608E-02  0.1181503E+00
          2   -1    0    0  501    0  0.00000000000E+00  0.00000000000E+00  0.36572642334E+04  0.36572642334E+04  0.25500000000E-02 0.  1.
         -2   -1    0    0    0  501 -0.00000000000E+00 -0.00000000000E+00 -0.18959573620E+01  0.18959590769E+01  0.25500000000E-02 0. -1.
    5000001    1    1    2    0    0 -0.19710598236E+02 -0.24628477868E+02  0.17583761768E+04  0.17603439575E+04  0.77000000000E+02 0.  0.
   -5000001    1    1    2    0    0  0.19710598236E+02  0.24628477868E+02  0.18969920992E+04  0.18988162350E+04  0.77000000000E+02 0.  0.
<mgrwt>
<rscale>  0 0.16654153E+03</rscale>
<asrwt>0</asrwt>
<pdfrwt beam="1">  1        2 0.52246819E+00 0.16654153E+03</pdfrwt>
<pdfrwt beam="2">  1       -2 0.27085020E-03 0.16654153E+03</pdfrwt>
<totfact> 0.16516894E+04</totfact>
</mgrwt>
</event>
<event>
 4    1  0.6919593E-004  0.3414495E+03  0.7818608E-02  0.1066180E+00
          2   -1    0    0  501    0  0.00000000000E+00  0.00000000000E+00  0.28409291193E+04  0.28409291193E+04  0.25500000000E-02 0.  1.
         -2   -1    0    0    0  501 -0.00000000000E+00 -0.00000000000E+00 -0.10259651261E+02  0.10259651577E+02  0.25500000000E-02 0. -1.
    5000001    1    1    2    0    0 -0.13527691547E+03 -0.70046264570E+02  0.13868709934E+04  0.13973354914E+04  0.77000000000E+02 0.  0.
   -5000001    1    1    2    0    0  0.13527691547E+03  0.70046264570E+02  0.14437984746E+04  0.14538532795E+04  0.77000000000E+02 0.  0.
<mgrwt>
<rscale>  0 0.34144951E+03</rscale>
<asrwt>0</asrwt>
<pdfrwt beam="1">  1        2 0.40584714E+00 0.34144951E+03</pdfrwt>
<pdfrwt beam="2">  1       -2 0.14656640E-02 0.34144951E+03</pdfrwt>
<totfact> 0.40921765E+03</totfact>
</mgrwt>
</event>
<event>
 4    1  0.6919593E-004  0.1662182E+03  0.7818608E-02  0.1181850E+00
         -2   -1    0    0    0  501 -0.00000000000E+00  0.00000000000E+00  0.34192063958E+01  0.34192073467E+01  0.25500000000E-02 0. -1.
          2   -1    0    0  501    0  0.00000000000E+00 -0.00000000000E+00 -0.20200954981E+04  0.20200954981E+04  0.25500000000E-02 0.  1.
    5000001    1    1    2    0    0  0.24157157145E+02 -0.15791446246E+02 -0.86165146190E+03  0.86556639249E+03  0.77000000000E+02 0.  0.
   -5000001    1    1    2    0    0 -0.24157157145E+02  0.15791446246E+02 -0.11550248298E+04  0.11579483130E+04  0.77000000000E+02 0.  0.
<mgrwt>
<rscale>  0 0.16621822E+03</rscale>
<asrwt>0</asrwt>
<pdfrwt beam="1">  1        2 0.28858431E+00 0.16621822E+03</pdfrwt>
<pdfrwt beam="2">  1       -2 0.48845942E-03 0.16621822E+03</pdfrwt>
<totfact> 0.50300960E+04</totfact>
</mgrwt>
</event>
<event>
 4    1  0.6919593E-004  0.3176093E+03  0.7818608E-02  0.1076755E+00
          2   -1    0    0  501    0  0.00000000000E+00  0.00000000000E+00  0.15861179544E+03  0.15861179546E+03  0.25500000000E-02 0.  1.
         -2   -1    0    0    0  501 -0.00000000000E+00 -0.00000000000E+00 -0.15899774951E+03  0.15899774953E+03  0.25500000000E-02 0. -1.
    5000001    1    1    2    0    0  0.11400136982E+03 -0.64086705858E+02  0.46567086785E+02  0.15874795041E+03  0.77000000000E+02 0.  0.
   -5000001    1    1    2    0    0 -0.11400136982E+03  0.64086705858E+02 -0.46953040853E+02  0.15886159458E+03  0.77000000000E+02 0.  0.
<mgrwt>
<rscale>  0 0.31760931E+03</rscale>
<asrwt>0</asrwt>
<pdfrwt beam="1">  1        2 0.22658828E-01 0.31760931E+03</pdfrwt>
<pdfrwt beam="2">  1       -2 0.22713964E-01 0.31760931E+03</pdfrwt>
<totfact> 0.40527903E+03</totfact>
</mgrwt>
</event>
<event>
 4    1  0.6919593E-004  0.2410867E+03  0.7818608E-02  0.1119071E+00
          2   -1    0    0  501    0  0.00000000000E+00  0.00000000000E+00  0.54725873710E+03  0.54725873711E+03  0.25500000000E-02 0.  1.
         -2   -1    0    0    0  501 -0.00000000000E+00 -0.00000000000E+00 -0.26551788580E+02  0.26551788702E+02  0.25500000000E-02 0. -1.
    5000001    1    1    2    0    0 -0.88236079720E+02 -0.14004673304E+02  0.20109128428E+03  0.23312752144E+03  0.77000000000E+02 0.  0.
   -5000001    1    1    2    0    0  0.88236079720E+02  0.14004673304E+02  0.31961566424E+03  0.34068300437E+03  0.77000000000E+02 0.  0.
<mgrwt>
<rscale>  0 0.24108669E+03</rscale>
<asrwt>0</asrwt>
<pdfrwt beam="1">  1        2 0.78179814E-01 0.24108669E+03</pdfrwt>
<pdfrwt beam="2">  1       -2 0.37931130E-02 0.24108669E+03</pdfrwt>
<totfact> 0.17931158E+04</totfact>
</mgrwt>
</event>
<event>
 4    1  0.6919593E-004  0.3374817E+03  0.7818608E-02  0.1067874E+00
         -2   -1    0    0    0  501 -0.00000000000E+00  0.00000000000E+00  0.40749038789E+02  0.40749038868E+02  0.25500000000E-02 0. -1.
          2   -1    0    0  501    0  0.00000000000E+00 -0.00000000000E+00 -0.69875185237E+03  0.69875185237E+03  0.25500000000E-02 0.  1.
    5000001    1    1    2    0    0 -0.51441010972E+02  0.12642406918E+03 -0.19189178801E+03  0.24775124861E+03  0.77000000000E+02 0.  0.
   -5000001    1    1    2    0    0  0.51441010972E+02 -0.12642406918E+03 -0.46611102556E+03  0.49174964263E+03  0.77000000000E+02 0.  0.
<mgrwt>
<rscale>  0 0.33748165E+03</rscale>
<asrwt>0</asrwt>
<pdfrwt beam="1">  1        2 0.99821686E-01 0.33748165E+03</pdfrwt>
<pdfrwt beam="2">  1       -2 0.58212917E-02 0.33748165E+03</pdfrwt>
<totfact> 0.71592522E+03</totfact>
</mgrwt>
</event>
<event>
 4    1  0.6919593E-004  0.4536085E+03  0.7818608E-02  0.1026651E+00
          2   -1    0    0  501    0  0.00000000000E+00  0.00000000000E+00  0.86263087192E+03  0.86263087192E+03  0.25500000000E-02 0.  1.
         -2   -1    0    0    0  501 -0.00000000000E+00 -0.00000000000E+00 -0.59631727224E+02  0.59631727279E+02  0.25500000000E-02 0. -1.
    5000001    1    1    2    0    0 -0.12666077445E+03  0.32084560452E+02  0.58629935694E+02  0.16260024650E+03  0.77000000000E+02 0.  0.
   -5000001    1    1    2    0    0  0.12666077445E+03 -0.32084560452E+02  0.74436920900E+03  0.75966235270E+03  0.77000000000E+02 0.  0.
<mgrwt>
<rscale>  0 0.45360850E+03</rscale>
<asrwt>0</asrwt>
<pdfrwt beam="1">  1        2 0.12323298E+00 0.45360850E+03</pdfrwt>
<pdfrwt beam="2">  1       -2 0.85188185E-02 0.45360850E+03</pdfrwt>
<totfact> 0.30506323E+03</totfact>
</mgrwt>
</event>
<event>
 4    1  0.6919593E-004  0.2717588E+03  0.7818608E-02  0.1100277E+00
          2   -1    0    0  501    0  0.00000000000E+00  0.00000000000E+00  0.13141700489E+04  0.13141700489E+04  0.25500000000E-02 0.  1.
         -2   -1    0    0    0  501 -0.00000000000E+00 -0.00000000000E+00 -0.14049334992E+02  0.14049335223E+02  0.25500000000E-02 0. -1.
    5000001    1    1    2    0    0  0.47437295414E+02 -0.82893893071E+02  0.93557199149E+03  0.94358128731E+03  0.77000000000E+02 0.  0.
   -5000001    1    1    2    0    0 -0.47437295414E+02  0.82893893071E+02  0.36454872245E+03  0.38463809684E+03  0.77000000000E+02 0.  0.
<mgrwt>
<rscale>  0 0.27175883E+03</rscale>
<asrwt>0</asrwt>
<pdfrwt beam="1">  1        2 0.18773857E+00 0.27175883E+03</pdfrwt>
<pdfrwt beam="2">  1       -2 0.20070479E-02 0.27175883E+03</pdfrwt>
<totfact> 0.14941444E+04</totfact>
</mgrwt>
</event>
<event>
 4    1  0.6919593E-004  0.5515667E+03  0.7818608E-02  0.1001132E+00
          2   -1    0    0  501    0  0.00000000000E+00  0.00000000000E+00  0.74282208332E+03  0.74282208333E+03  0.25500000000E-02 0.  1.
         -2   -1    0    0    0  501 -0.00000000000E+00 -0.00000000000E+00 -0.10238852661E+03  0.10238852665E+03  0.25500000000E-02 0. -1.
    5000001    1    1    2    0    0 -0.60096295798E+02 -0.22525854239E+03  0.51267854208E+03  0.56843756315E+03  0.77000000000E+02 0.  0.
   -5000001    1    1    2    0    0  0.60096295798E+02  0.22525854239E+03  0.12775501463E+03  0.27677304682E+03  0.77000000000E+02 0.  0.
<mgrwt>
<rscale>  0 0.55156671E+03</rscale>
<asrwt>0</asrwt>
<pdfrwt beam="1">  1        2 0.10611744E+00 0.55156671E+03</pdfrwt>
<pdfrwt beam="2">  1       -2 0.14626933E-01 0.55156671E+03</pdfrwt>
<totfact> 0.15283999E+03</totfact>
</mgrwt>
</event>
<event>
 4    1  0.6919593E-004  0.2328513E+03  0.7818608E-02  0.1124649E+00
          2   -1    0    0  501    0  0.00000000000E+00  0.00000000000E+00  0.75985230909E+03  0.75985230909E+03  0.25500000000E-02 0.  1.
         -2   -1    0    0    0  501 -0.00000000000E+00 -0.00000000000E+00 -0.17838898370E+02  0.17838898552E+02  0.25500000000E-02 0. -1.
    5000001    1    1    2    0    0  0.64936026612E+02  0.54765353821E+02  0.43863349040E+03  0.45336990464E+03  0.77000000000E+02 0.  0.
   -5000001    1    1    2    0    0 -0.64936026612E+02 -0.54765353821E+02  0.30337992031E+03  0.32432130300E+03  0.77000000000E+02 0.  0.
<mgrwt>
<rscale>  0 0.23285127E+03</rscale>
<asrwt>0</asrwt>
<pdfrwt beam="1">  1        2 0.10855033E+00 0.23285127E+03</pdfrwt>
<pdfrwt beam="2">  1       -2 0.25484141E-02 0.23285127E+03</pdfrwt>
<totfact> 0.22092617E+04</totfact>
</mgrwt>
</event>
<event>
 4    1  0.6919593E-004  0.2114195E+03  0.7818608E-02  0.1140447E+00
         -2   -1    0    0    0  501 -0.00000000000E+00  0.00000000000E+00  0.90075560034E+01  0.90075563644E+01  0.25500000000E-02 0. -1.
          2   -1    0    0  501    0  0.00000000000E+00 -0.00000000000E+00 -0.12405752601E+04  0.12405752601E+04  0.25500000000E-02 0.  1.
    5000001    1    1    2    0    0  0.70528595848E+02 -0.24441094595E+01 -0.51951530541E+03  0.52991075575E+03  0.77000000000E+02 0.  0.
   -5000001    1    1    2    0    0 -0.70528595848E+02  0.24441094595E+01 -0.71205239873E+03  0.71967206076E+03  0.77000000000E+02 0.  0.
<mgrwt>
<rscale>  0 0.21141950E+03</rscale>
<asrwt>0</asrwt>
<pdfrwt beam="1">  1        2 0.17722493E+00 0.21141950E+03</pdfrwt>
<pdfrwt beam="2">  1       -2 0.12867945E-02 0.21141950E+03</pdfrwt>
<totfact> 0.30894123E+04</totfact>
</mgrwt>
</event>
<event>
 4    1  0.6919593E-004  0.3946686E+03  0.7818608E-02  0.1045642E+00
         -2   -1    0    0    0  501 -0.00000000000E+00  0.00000000000E+00  0.30117892608E+02  0.30117892716E+02  0.25500000000E-02 0. -1.
          2   -1    0    0  501    0  0.00000000000E+00 -0.00000000000E+00 -0.12929468459E+04  0.12929468459E+04  0.25500000000E-02 0.  1.
    5000001    1    1    2    0    0 -0.10164272667E+03  0.13484220796E+03 -0.85625074904E+03  0.87613241588E+03  0.77000000000E+02 0.  0.
   -5000001    1    1    2    0    0  0.10164272667E+03 -0.13484220796E+03 -0.40657820429E+03  0.44693232277E+03  0.77000000000E+02 0.  0.
<mgrwt>
<rscale>  0 0.39466864E+03</rscale>
<asrwt>0</asrwt>
<pdfrwt beam="1">  1        2 0.18470666E+00 0.39466864E+03</pdfrwt>
<pdfrwt beam="2">  1       -2 0.43025569E-02 0.39466864E+03</pdfrwt>
<totfact> 0.49386111E+03</totfact>
</mgrwt>
</event>
<event>
 4    1  0.6919593E-004  0.2151162E+03  0.7818608E-02  0.1137577E+00
         -2   -1    0    0    0  501 -0.00000000000E+00  0.00000000000E+00  0.42434948936E+01  0.42434956597E+01  0.25500000000E-02 0. -1.
          2   -1    0    0  501    0  0.00000000000E+00 -0.00000000000E+00 -0.27262306054E+04  0.27262306054E+04  0.25500000000E-02 0.  1.
    5000001    1    1    2    0    0 -0.60415447599E+02  0.32561279850E+02 -0.17479710775E+04  0.17510117507E+04  0.77000000000E+02 0.  0.
   -5000001    1    1    2    0    0  0.60415447599E+02 -0.32561279850E+02 -0.97401603303E+03  0.97946235040E+03  0.77000000000E+02 0.  0.
<mgrwt>
<rscale>  0 0.21511622E+03</rscale>
<asrwt>0</asrwt>
<pdfrwt beam="1">  1        2 0.38946039E+00 0.21511622E+03</pdfrwt>
<pdfrwt beam="2">  1       -2 0.60621536E-03 0.21511622E+03</pdfrwt>
<totfact> 0.16877699E+04</totfact>
</mgrwt>
</event>
<event>
 4    1  0.6919593E-004  0.2117814E+03  0.7818608E-02  0.1140163E+00
          2   -1    0    0  501    0  0.00000000000E+00  0.00000000000E+00  0.28446090007E+04  0.28446090007E+04  0.25500000000E-02 0.  1.
         -2   -1    0    0    0  501 -0.00000000000E+00 -0.00000000000E+00 -0.39417870435E+01  0.39417878683E+01  0.25500000000E-02 0. -1.
    5000001    1    1    2    0    0 -0.69732266697E+02  0.20471193966E+02  0.14004502624E+04  0.14044470785E+04  0.77000000000E+02 0.  0.
   -5000001    1    1    2    0    0  0.69732266697E+02 -0.20471193966E+02  0.14402169512E+04  0.14441037101E+04  0.77000000000E+02 0.  0.
<mgrwt>
<rscale>  0 0.21178144E+03</rscale>
<asrwt>0</asrwt>
<pdfrwt beam="1">  1        2 0.40637021E+00 0.21178144E+03</pdfrwt>
<pdfrwt beam="2">  1       -2 0.56311596E-03 0.21178144E+03</pdfrwt>
<totfact> 0.16318914E+04</totfact>
</mgrwt>
</event>
<event>
 4    1  0.6919593E-004  0.2506261E+03  0.7818608E-02  0.1112910E+00
          2   -1    0    0  501    0  0.00000000000E+00  0.00000000000E+00  0.12136072688E+04  0.12136072688E+04  0.25500000000E-02 0.  1.
         -2   -1    0    0    0  501 -0.00000000000E+00 -0.00000000000E+00 -0.12939407198E+02  0.12939407450E+02  0.25500000000E-02 0. -1.
    5000001    1    1    2    0    0  0.91679899045E+02 -0.10519954679E+02  0.42672106460E+03  0.44332351653E+03  0.77000000000E+02 0.  0.
   -5000001    1    1    2    0    0 -0.91679899045E+02  0.10519954679E+02  0.77394679698E+03  0.78322315970E+03  0.77000000000E+02 0.  0.
<mgrwt>
<rscale>  0 0.25062609E+03</rscale>
<asrwt>0</asrwt>
<pdfrwt beam="1">  1        2 0.17337235E+00 0.25062609E+03</pdfrwt>
<pdfrwt beam="2">  1       -2 0.18484880E-02 0.25062609E+03</pdfrwt>
<totfact> 0.19007327E+04</totfact>
</mgrwt>
</event>
<event>
 4    1  0.6919593E-004  0.3559197E+03  0.7818608E-02  0.1060211E+00
          2   -1    0    0  501    0  0.00000000000E+00  0.00000000000E+00  0.92702182695E+02  0.92702182730E+02  0.25500000000E-02 0.  1.
         -2   -1    0    0    0  501 -0.00000000000E+00 -0.00000000000E+00 -0.34162852539E+03  0.34162852539E+03  0.25500000000E-02 0. -1.
    5000001    1    1    2    0    0  0.12913901891E+03  0.92243800041E+02 -0.15320920094E+03  0.23364045905E+03  0.77000000000E+02 0.  0.
   -5000001    1    1    2    0    0 -0.12913901891E+03 -0.92243800041E+02 -0.95717141746E+02  0.20069024908E+03  0.77000000000E+02 0.  0.
<mgrwt>
<rscale>  0 0.35591971E+03</rscale>
<asrwt>0</asrwt>
<pdfrwt beam="1">  1        2 0.13243169E-01 0.35591971E+03</pdfrwt>
<pdfrwt beam="2">  1       -2 0.48804075E-01 0.35591971E+03</pdfrwt>
<totfact> 0.18371031E+03</totfact>
</mgrwt>
</event>
<event>
 4    1  0.6919593E-004  0.5140871E+03  0.7818608E-02  0.1010166E+00
         -2   -1    0    0    0  501 -0.00000000000E+00  0.00000000000E+00  0.38793159836E+02  0.38793159920E+02  0.25500000000E-02 0. -1.
          2   -1    0    0  501    0  0.00000000000E+00 -0.00000000000E+00 -0.17031713031E+04  0.17031713031E+04  0.25500000000E-02 0.  1.
    5000001    1    1    2    0    0  0.17021114370E+03 -0.16548773438E+03 -0.62374021426E+03  0.67181759322E+03  0.77000000000E+02 0.  0.
   -5000001    1    1    2    0    0 -0.17021114370E+03  0.16548773438E+03 -0.10406379291E+04  0.10701468699E+04  0.77000000000E+02 0.  0.
<mgrwt>
<rscale>  0 0.51408714E+03</rscale>
<asrwt>0</asrwt>
<pdfrwt beam="1">  1        2 0.24331014E+00 0.51408714E+03</pdfrwt>
<pdfrwt beam="2">  1       -2 0.55418811E-02 0.51408714E+03</pdfrwt>
<totfact> 0.20497834E+03</totfact>
</mgrwt>
</event>
<event>
 4    1  0.6919593E-004  0.1730854E+03  0.7818608E-02  0.1174668E+00
         -2   -1    0    0    0  501 -0.00000000000E+00  0.00000000000E+00  0.12204682422E+02  0.12204682688E+02  0.25500000000E-02 0. -1.
          2   -1    0    0  501    0  0.00000000000E+00 -0.00000000000E+00 -0.61366929623E+03  0.61366929623E+03  0.25500000000E-02 0.  1.
    5000001    1    1    2    0    0  0.23994977599E+02  0.14225404558E+01 -0.41409534875E+03  0.42187882197E+03  0.77000000000E+02 0.  0.
   -5000001    1    1    2    0    0 -0.23994977599E+02 -0.14225404558E+01 -0.18736926505E+03  0.20399515695E+03  0.77000000000E+02 0.  0.
<mgrwt>
<rscale>  0 0.17308540E+03</rscale>
<asrwt>0</asrwt>
<pdfrwt beam="1">  1        2 0.87667023E-01 0.17308540E+03</pdfrwt>
<pdfrwt beam="2">  1       -2 0.17435265E-02 0.17308540E+03</pdfrwt>
<totfact> 0.48333672E+04</totfact>
</mgrwt>
</event>
<event>
 4    1  0.6919593E-004  0.2983546E+03  0.7818608E-02  0.1086066E+00
         -2   -1    0    0    0  501 -0.00000000000E+00  0.00000000000E+00  0.53391793419E+02  0.53391793480E+02  0.25500000000E-02 0. -1.
          2   -1    0    0  501    0  0.00000000000E+00 -0.00000000000E+00 -0.41680324331E+03  0.41680324331E+03  0.25500000000E-02 0.  1.
    5000001    1    1    2    0    0  0.27424401872E+02 -0.12471113195E+03 -0.17467396982E+03  0.22966270917E+03  0.77000000000E+02 0.  0.
   -5000001    1    1    2    0    0 -0.27424401872E+02  0.12471113195E+03 -0.18873748007E+03  0.24053232762E+03  0.77000000000E+02 0.  0.
<mgrwt>
<rscale>  0 0.29835464E+03</rscale>
<asrwt>0</asrwt>
<pdfrwt beam="1">  1        2 0.59543319E-01 0.29835464E+03</pdfrwt>
<pdfrwt beam="2">  1       -2 0.76273993E-02 0.29835464E+03</pdfrwt>
<totfact> 0.84132562E+03</totfact>
</mgrwt>
</event>
<event>
 4    1  0.6919593E-004  0.1588596E+03  0.7818608E-02  0.1189990E+00
          2   -1    0    0  501    0  0.00000000000E+00  0.00000000000E+00  0.35828037478E+02  0.35828037569E+02  0.25500000000E-02 0.  1.
         -2   -1    0    0    0  501 -0.00000000000E+00 -0.00000000000E+00 -0.17609381461E+03  0.17609381463E+03  0.25500000000E-02 0. -1.
    5000001    1    1    2    0    0  0.55564542858E+01  0.16874326894E+02 -0.59420893840E+02  0.98870924528E+02  0.77000000000E+02 0.  0.
   -5000001    1    1    2    0    0 -0.55564542858E+01 -0.16874326894E+02 -0.80844883293E+02  0.11305092767E+03  0.77000000000E+02 0.  0.
<mgrwt>
<rscale>  0 0.15885963E+03</rscale>
<asrwt>0</asrwt>
<pdfrwt beam="1">  1        2 0.51182912E-02 0.15885963E+03</pdfrwt>
<pdfrwt beam="2">  1       -2 0.25156259E-01 0.15885963E+03</pdfrwt>
<totfact> 0.20142606E+04</totfact>
</mgrwt>
</event>
<event>
 4    1  0.6919593E-004  0.2078526E+03  0.7818608E-02  0.1143278E+00
          2   -1    0    0  501    0  0.00000000000E+00  0.00000000000E+00  0.95961916221E+03  0.95961916221E+03  0.25500000000E-02 0.  1.
         -2   -1    0    0    0  501 -0.00000000000E+00 -0.00000000000E+00 -0.11255166746E+02  0.11255167035E+02  0.25500000000E-02 0. -1.
    5000001    1    1    2    0    0 -0.56334876609E+02  0.94224991047E+01  0.28680238962E+03  0.30240207093E+03  0.77000000000E+02 0.  0.
   -5000001    1    1    2    0    0  0.56334876609E+02 -0.94224991047E+01  0.66156160584E+03  0.66847225832E+03  0.77000000000E+02 0.  0.
<mgrwt>
<rscale>  0 0.20785258E+03</rscale>
<asrwt>0</asrwt>
<pdfrwt beam="1">  1        2 0.13708852E+00 0.20785258E+03</pdfrwt>
<pdfrwt beam="2">  1       -2 0.16078802E-02 0.20785258E+03</pdfrwt>
<totfact> 0.32081342E+04</totfact>
</mgrwt>
</event>
<event>
 4    1  0.6919593E-004  0.3535537E+03  0.7818608E-02  0.1061166E+00
          2   -1    0    0  501    0  0.00000000000E+00  0.00000000000E+00  0.12302376087E+04  0.12302376087E+04  0.25500000000E-02 0.  1.
         -2   -1    0    0    0  501 -0.00000000000E+00 -0.00000000000E+00 -0.25401638980E+02  0.25401639108E+02  0.25500000000E-02 0. -1.
    5000001    1    1    2    0    0 -0.58269158810E+02  0.13765760381E+03  0.40867041579E+03  0.44191109909E+03  0.77000000000E+02 0.  0.
   -5000001    1    1    2    0    0  0.58269158810E+02 -0.13765760381E+03  0.79616555388E+03  0.81372814867E+03  0.77000000000E+02 0.  0.
<mgrwt>
<rscale>  0 0.35355368E+03</rscale>
<asrwt>0</asrwt>
<pdfrwt beam="1">  1        2 0.17574824E+00 0.35355368E+03</pdfrwt>
<pdfrwt beam="2">  1       -2 0.36288054E-02 0.35355368E+03</pdfrwt>
<totfact> 0.69027294E+03</totfact>
</mgrwt>
</event>
<event>
 4    1  0.6919593E-004  0.2861430E+03  0.7818608E-02  0.1092380E+00
          2   -1    0    0  501    0  0.00000000000E+00  0.00000000000E+00  0.20769381274E+04  0.20769381274E+04  0.25500000000E-02 0.  1.
         -2   -1    0    0    0  501 -0.00000000000E+00 -0.00000000000E+00 -0.98555948641E+01  0.98555951940E+01  0.25500000000E-02 0. -1.
    5000001    1    1    2    0    0  0.50961379506E+02  0.99742427201E+02  0.13592662932E+04  0.13660451932E+04  0.77000000000E+02 0.  0.
   -5000001    1    1    2    0    0 -0.50961379506E+02 -0.99742427201E+02  0.70781623935E+03  0.72074852943E+03  0.77000000000E+02 0.  0.
<mgrwt>
<rscale>  0 0.28614305E+03</rscale>
<asrwt>0</asrwt>
<pdfrwt beam="1">  1        2 0.29670542E+00 0.28614305E+03</pdfrwt>
<pdfrwt beam="2">  1       -2 0.14079423E-02 0.28614305E+03</pdfrwt>
<totfact> 0.10494897E+04</totfact>
</mgrwt>
</event>
<event>
 4    1  0.6919593E-004  0.2299090E+03  0.7818608E-02  0.1126704E+00
         -2   -1    0    0    0  501 -0.00000000000E+00  0.00000000000E+00  0.11674763172E+02  0.11674763450E+02  0.25500000000E-02 0. -1.
          2   -1    0    0  501    0  0.00000000000E+00 -0.00000000000E+00 -0.11318890683E+04  0.11318890683E+04  0.25500000000E-02 0.  1.
    5000001    1    1    2    0    0 -0.26348491606E+01 -0.79067990919E+02 -0.40071850552E+03  0.41564769973E+03  0.77000000000E+02 0.  0.
   -5000001    1    1    2    0    0  0.26348491606E+01  0.79067990919E+02 -0.71949579963E+03  0.72791613206E+03  0.77000000000E+02 0.  0.
<mgrwt>
<rscale>  0 0.22990900E+03</rscale>
<asrwt>0</asrwt>
<pdfrwt beam="1">  1        2 0.16169837E+00 0.22990900E+03</pdfrwt>
<pdfrwt beam="2">  1       -2 0.16678240E-02 0.22990900E+03</pdfrwt>
<totfact> 0.24377357E+04</totfact>
</mgrwt>
</event>
<event>
 4    1  0.6919593E-004  0.3855842E+03  0.7818608E-02  0.1048889E+00
          2   -1    0    0  501    0  0.00000000000E+00  0.00000000000E+00  0.87130879673E+03  0.87130879673E+03  0.25500000000E-02 0.  1.
         -2   -1    0    0    0  501 -0.00000000000E+00 -0.00000000000E+00 -0.42658587603E+02  0.42658587679E+02  0.25500000000E-02 0. -1.
    5000001    1    1    2    0    0  0.35724281278E+02  0.17293755737E+03  0.43209156572E+03  0.47309168687E+03  0.77000000000E+02 0.  0.
   -5000001    1    1    2    0    0 -0.35724281278E+02 -0.17293755737E+03  0.39655864341E+03  0.44087569754E+03  0.77000000000E+02 0.  0.
<mgrwt>
<rscale>  0 0.38558425E+03</rscale>
<asrwt>0</asrwt>
<pdfrwt beam="1">  1        2 0.12447269E+00 0.38558425E+03</pdfrwt>
<pdfrwt beam="2">  1       -2 0.60940838E-02 0.38558425E+03</pdfrwt>
<totfact> 0.50842124E+03</totfact>
</mgrwt>
</event>
<event>
 4    1  0.6919593E-004  0.2555845E+03  0.7818608E-02  0.1109826E+00
          2   -1    0    0  501    0  0.00000000000E+00  0.00000000000E+00  0.36948975772E+03  0.36948975772E+03  0.25500000000E-02 0. -1.
         -2   -1    0    0    0  501 -0.00000000000E+00 -0.00000000000E+00 -0.44198407764E+02  0.44198407837E+02  0.25500000000E-02 0.  1.
    5000001    1    1    2    0    0 -0.77709964073E+02  0.54772572926E+02  0.22240204967E+03  0.25383172567E+03  0.77000000000E+02 0.  0.
   -5000001    1    1    2    0    0  0.77709964073E+02 -0.54772572926E+02  0.10288930028E+03  0.15985643989E+03  0.77000000000E+02 0.  0.
<mgrwt>
<rscale>  0 0.25558450E+03</rscale>
<asrwt>0</asrwt>
<pdfrwt beam="1">  1        2 0.52784252E-01 0.25558450E+03</pdfrwt>
<pdfrwt beam="2">  1       -2 0.63140581E-02 0.25558450E+03</pdfrwt>
<totfact> 0.12756817E+04</totfact>
</mgrwt>
</event>
<event>
 4    1  0.6919593E-004  0.2427692E+03  0.7818608E-02  0.1117962E+00
          2   -1    0    0  501    0  0.00000000000E+00  0.00000000000E+00  0.15387806261E+04  0.15387806261E+04  0.25500000000E-02 0.  1.
         -2   -1    0    0    0  501 -0.00000000000E+00 -0.00000000000E+00 -0.95752555281E+01  0.95752558677E+01  0.25500000000E-02 0. -1.
    5000001    1    1    2    0    0  0.41307908002E+02 -0.84252599248E+02  0.76850425455E+03  0.77803125451E+03  0.77000000000E+02 0.  0.
   -5000001    1    1    2    0    0 -0.41307908002E+02  0.84252599248E+02  0.76070111603E+03  0.77032462746E+03  0.77000000000E+02 0.  0.
<mgrwt>
<rscale>  0 0.24276917E+03</rscale>
<asrwt>0</asrwt>
<pdfrwt beam="1">  1        2 0.21982554E+00 0.24276917E+03</pdfrwt>
<pdfrwt beam="2">  1       -2 0.13678953E-02 0.24276917E+03</pdfrwt>
<totfact> 0.20016483E+04</totfact>
</mgrwt>
</event>
<event>
 4    1  0.6919593E-004  0.3134706E+03  0.7818608E-02  0.1078694E+00
          2   -1    0    0  501    0  0.00000000000E+00  0.00000000000E+00  0.29819977137E+03  0.29819977138E+03  0.25500000000E-02 0.  1.
         -2   -1    0    0    0  501 -0.00000000000E+00 -0.00000000000E+00 -0.82380858876E+02  0.82380858916E+02  0.25500000000E-02 0. -1.
    5000001    1    1    2    0    0 -0.62734326974E+02 -0.11564942370E+03  0.15212904337E+03  0.21536627132E+03  0.77000000000E+02 0.  0.
   -5000001    1    1    2    0    0  0.62734326974E+02  0.11564942370E+03  0.63689869119E+02  0.16521435898E+03  0.77000000000E+02 0.  0.
<mgrwt>
<rscale>  0 0.31347059E+03</rscale>
<asrwt>0</asrwt>
<pdfrwt beam="1">  1        2 0.42599968E-01 0.31347059E+03</pdfrwt>
<pdfrwt beam="2">  1       -2 0.11768694E-01 0.31347059E+03</pdfrwt>
<totfact> 0.60823100E+03</totfact>
</mgrwt>
</event>
<event>
 4    1  0.6919593E-004  0.2144814E+03  0.7818608E-02  0.1138066E+00
          2   -1    0    0  501    0  0.00000000000E+00  0.00000000000E+00  0.52178296021E+03  0.52178296022E+03  0.25500000000E-02 0.  1.
         -2   -1    0    0    0  501 -0.00000000000E+00 -0.00000000000E+00 -0.22040908637E+02  0.22040908785E+02  0.25500000000E-02 0. -1.
    5000001    1    1    2    0    0 -0.53401895202E+02  0.43298912691E+02  0.17616549088E+03  0.20418089634E+03  0.77000000000E+02 0.  0.
   -5000001    1    1    2    0    0  0.53401895202E+02 -0.43298912691E+02  0.32357656070E+03  0.33964297267E+03  0.77000000000E+02 0.  0.
<mgrwt>
<rscale>  0 0.21448143E+03</rscale>
<asrwt>0</asrwt>
<pdfrwt beam="1">  1        2 0.74540425E-01 0.21448143E+03</pdfrwt>
<pdfrwt beam="2">  1       -2 0.31487011E-02 0.21448143E+03</pdfrwt>
<totfact> 0.24770796E+04</totfact>
</mgrwt>
</event>
<event>
 4    1  0.6919593E-004  0.2761222E+03  0.7818608E-02  0.1097826E+00
          2   -1    0    0  501    0  0.00000000000E+00  0.00000000000E+00  0.15466068221E+03  0.15466068223E+03  0.25500000000E-02 0.  1.
         -2   -1    0    0    0  501 -0.00000000000E+00 -0.00000000000E+00 -0.12324312455E+03  0.12324312458E+03  0.25500000000E-02 0. -1.
    5000001    1    1    2    0    0 -0.22342634202E+01  0.10632117564E+03 -0.27259560652E+02  0.13409425033E+03  0.77000000000E+02 0.  0.
   -5000001    1    1    2    0    0  0.22342634202E+01 -0.10632117564E+03  0.58677118304E+02  0.14380955648E+03  0.77000000000E+02 0.  0.
<mgrwt>
<rscale>  0 0.27612219E+03</rscale>
<asrwt>0</asrwt>
<pdfrwt beam="1">  1        2 0.22094383E-01 0.27612219E+03</pdfrwt>
<pdfrwt beam="2">  1       -2 0.17606161E-01 0.27612219E+03</pdfrwt>
<totfact> 0.64231766E+03</totfact>
</mgrwt>
</event>
<event>
 4    1  0.6919593E-004  0.2568099E+03  0.7818608E-02  0.1109075E+00
          2   -1    0    0  501    0  0.00000000000E+00  0.00000000000E+00  0.52668325225E+02  0.52668325287E+02  0.25500000000E-02 0.  1.
         -2   -1    0    0    0  501 -0.00000000000E+00 -0.00000000000E+00 -0.31305034600E+03  0.31305034601E+03  0.25500000000E-02 0. -1.
    5000001    1    1    2    0    0  0.36744421328E+02 -0.94999384073E+02 -0.14949781387E+03  0.19660526907E+03  0.77000000000E+02 0.  0.
   -5000001    1    1    2    0    0 -0.36744421328E+02  0.94999384073E+02 -0.11088420691E+03  0.16911340223E+03  0.77000000000E+02 0.  0.
<mgrwt>
<rscale>  0 0.25680995E+03</rscale>
<asrwt>0</asrwt>
<pdfrwt beam="1">  1        2 0.75240467E-02 0.25680995E+03</pdfrwt>
<pdfrwt beam="2">  1       -2 0.44721477E-01 0.25680995E+03</pdfrwt>
<totfact> 0.43740921E+03</totfact>
</mgrwt>
</event>
<event>
 4    1  0.6919593E-004  0.3983032E+03  0.7818608E-02  0.1044369E+00
         -2   -1    0    0    0  501 -0.00000000000E+00  0.00000000000E+00  0.45032058719E+03  0.45032058719E+03  0.25500000000E-02 0. -1.
          2   -1    0    0  501    0  0.00000000000E+00 -0.00000000000E+00 -0.88073590969E+02  0.88073591006E+02  0.25500000000E-02 0.  1.
    5000001    1    1    2    0    0 -0.14802581201E+03  0.19898987999E+02  0.36642817761E+02  0.17198635654E+03  0.77000000000E+02 0.  0.
   -5000001    1    1    2    0    0  0.14802581201E+03 -0.19898987999E+02  0.32560417846E+03  0.36640782166E+03  0.77000000000E+02 0.  0.
<mgrwt>
<rscale>  0 0.39830316E+03</rscale>
<asrwt>0</asrwt>
<pdfrwt beam="1">  1        2 0.12581941E-01 0.39830316E+03</pdfrwt>
<pdfrwt beam="2">  1       -2 0.64331513E-01 0.39830316E+03</pdfrwt>
<totfact> 0.11098984E+03</totfact>
</mgrwt>
</event>
<event>
 4    1  0.6919593E-004  0.3579608E+03  0.7818608E-02  0.1059394E+00
          2   -1    0    0  501    0  0.00000000000E+00  0.00000000000E+00  0.22351401615E+03  0.22351401616E+03  0.25500000000E-02 0.  1.
         -2   -1    0    0    0  501 -0.00000000000E+00 -0.00000000000E+00 -0.14331977358E+03  0.14331977360E+03  0.25500000000E-02 0. -1.
    5000001    1    1    2    0    0 -0.12971882279E+03 -0.88627553952E+02  0.78757050230E+02  0.19186841654E+03  0.77000000000E+02 0.  0.
   -5000001    1    1    2    0    0  0.12971882279E+03  0.88627553952E+02  0.14371923434E+01  0.17496537322E+03  0.77000000000E+02 0.  0.
<mgrwt>
<rscale>  0 0.35796077E+03</rscale>
<asrwt>0</asrwt>
<pdfrwt beam="1">  1        2 0.31930573E-01 0.35796077E+03</pdfrwt>
<pdfrwt beam="2">  1       -2 0.20474254E-01 0.35796077E+03</pdfrwt>
<totfact> 0.33188678E+03</totfact>
</mgrwt>
</event>
<event>
 4    1  0.6919593E-004  0.2343672E+03  0.7818608E-02  0.1123603E+00
         -2   -1    0    0    0  501 -0.00000000000E+00  0.00000000000E+00  0.12301697800E+02  0.12301698064E+02  0.25500000000E-02 0. -1.
          2   -1    0    0  501    0  0.00000000000E+00 -0.00000000000E+00 -0.11162680851E+04  0.11162680851E+04  0.25500000000E-02 0.  1.
    5000001    1    1    2    0    0  0.79616374075E+02  0.36474744618E+02 -0.49627870729E+03  0.50979479139E+03  0.77000000000E+02 0.  0.
   -5000001    1    1    2    0    0 -0.79616374075E+02 -0.36474744618E+02 -0.60768767997E+03  0.61877499174E+03  0.77000000000E+02 0.  0.
<mgrwt>
<rscale>  0 0.23436717E+03</rscale>
<asrwt>0</asrwt>
<pdfrwt beam="1">  1        2 0.15946680E+00 0.23436717E+03</pdfrwt>
<pdfrwt beam="2">  1       -2 0.17573861E-02 0.23436717E+03</pdfrwt>
<totfact> 0.23063026E+04</totfact>
</mgrwt>
</event>
<event>
 4    1  0.6919593E-004  0.3667229E+03  0.7818608E-02  0.1055953E+00
          2   -1    0    0  501    0  0.00000000000E+00  0.00000000000E+00  0.84126697683E+02  0.84126697721E+02  0.25500000000E-02 0.  1.
         -2   -1    0    0    0  501 -0.00000000000E+00 -0.00000000000E+00 -0.39965230730E+03  0.39965230731E+03  0.25500000000E-02 0. -1.
    5000001    1    1    2    0    0  0.11322767174E+03 -0.10442604736E+03 -0.24085243320E+03  0.29608140704E+03  0.77000000000E+02 0.  0.
   -5000001    1    1    2    0    0 -0.11322767174E+03  0.10442604736E+03 -0.74673176413E+02  0.18769759799E+03  0.77000000000E+02 0.  0.
<mgrwt>
<rscale>  0 0.36672294E+03</rscale>
<asrwt>0</asrwt>
<pdfrwt beam="1">  1        2 0.12018100E-01 0.36672294E+03</pdfrwt>
<pdfrwt beam="2">  1       -2 0.57093186E-01 0.36672294E+03</pdfrwt>
<totfact> 0.15050549E+03</totfact>
</mgrwt>
</event>
<event>
 4    1  0.6919593E-004  0.2242645E+03  0.7818608E-02  0.1130743E+00
         -2   -1    0    0    0  501 -0.00000000000E+00  0.00000000000E+00  0.82387947885E+01  0.82387951831E+01  0.25500000000E-02 0. -1.
          2   -1    0    0  501    0  0.00000000000E+00 -0.00000000000E+00 -0.15261511161E+04  0.15261511161E+04  0.25500000000E-02 0.  1.
    5000001    1    1    2    0    0 -0.24975919305E+02 -0.25902699623E+01 -0.22836270082E+03  0.24229946176E+03  0.77000000000E+02 0.  0.
   -5000001    1    1    2    0    0  0.24975919305E+02  0.25902699623E+01 -0.12895496205E+04  0.12920904496E+04  0.77000000000E+02 0.  0.
<mgrwt>
<rscale>  0 0.22426454E+03</rscale>
<asrwt>0</asrwt>
<pdfrwt beam="1">  1        2 0.21802141E+00 0.22426454E+03</pdfrwt>
<pdfrwt beam="2">  1       -2 0.11769717E-02 0.22426454E+03</pdfrwt>
<totfact> 0.25174597E+04</totfact>
</mgrwt>
</event>
<event>
 4    1  0.6919593E-004  0.2044429E+03  0.7818608E-02  0.1146044E+00
         -2   -1    0    0    0  501 -0.00000000000E+00  0.00000000000E+00  0.54239768736E+02  0.54239768796E+02  0.25500000000E-02 0. -1.
          2   -1    0    0  501    0  0.00000000000E+00 -0.00000000000E+00 -0.19264881257E+03  0.19264881258E+03  0.25500000000E-02 0.  1.
    5000001    1    1    2    0    0  0.27402371429E+01 -0.44230832703E+02 -0.81469938428E+01  0.89214623072E+02  0.77000000000E+02 0.  0.
   -5000001    1    1    2    0    0 -0.27402371429E+01  0.44230832703E+02 -0.13026204999E+03  0.15767395831E+03  0.77000000000E+02 0.  0.
<mgrwt>
<rscale>  0 0.20444292E+03</rscale>
<asrwt>0</asrwt>
<pdfrwt beam="1">  1        2 0.27521259E-01 0.20444292E+03</pdfrwt>
<pdfrwt beam="2">  1       -2 0.77485385E-02 0.20444292E+03</pdfrwt>
<totfact> 0.18539723E+04</totfact>
</mgrwt>
</event>
<event>
 4    1  0.6919593E-004  0.1667185E+03  0.7818608E-02  0.1181314E+00
          2   -1    0    0  501    0  0.00000000000E+00  0.00000000000E+00  0.18725645681E+03  0.18725645683E+03  0.25500000000E-02 0.  1.
         -2   -1    0    0    0  501 -0.00000000000E+00 -0.00000000000E+00 -0.37108267409E+02  0.37108267497E+02  0.25500000000E-02 0. -1.
    5000001    1    1    2    0    0 -0.88182710504E+01 -0.28595484712E+02  0.60070175424E+02  0.10214151764E+03  0.77000000000E+02 0.  0.
   -5000001    1    1    2    0    0  0.88182710504E+01  0.28595484712E+02  0.90078013977E+02  0.12222320668E+03  0.77000000000E+02 0.  0.
<mgrwt>
<rscale>  0 0.16671848E+03</rscale>
<asrwt>0</asrwt>
<pdfrwt beam="1">  1        2 0.26750923E-01 0.16671848E+03</pdfrwt>
<pdfrwt beam="2">  1       -2 0.53011810E-02 0.16671848E+03</pdfrwt>
<totfact> 0.33607264E+04</totfact>
</mgrwt>
</event>
<event>
 4    1  0.6919593E-004  0.1782220E+03  0.7818608E-02  0.1169535E+00
          2   -1    0    0  501    0  0.00000000000E+00  0.00000000000E+00  0.46910528060E+03  0.46910528061E+03  0.25500000000E-02 0.  1.
         -2   -1    0    0    0  501 -0.00000000000E+00 -0.00000000000E+00 -0.16927480305E+02  0.16927480497E+02  0.25500000000E-02 0. -1.
    5000001    1    1    2    0    0  0.15778855893E+02  0.35882628183E+02  0.16663799048E+03  0.18770656667E+03  0.77000000000E+02 0.  0.
   -5000001    1    1    2    0    0 -0.15778855893E+02 -0.35882628183E+02  0.28553980982E+03  0.29832619444E+03  0.77000000000E+02 0.  0.
<mgrwt>
<rscale>  0 0.17822200E+03</rscale>
<asrwt>0</asrwt>
<pdfrwt beam="1">  1        2 0.67015033E-01 0.17822200E+03</pdfrwt>
<pdfrwt beam="2">  1       -2 0.24182117E-02 0.17822200E+03</pdfrwt>
<totfact> 0.40472080E+04</totfact>
</mgrwt>
</event>
<event>
 4    1  0.6919593E-004  0.2918680E+03  0.7818608E-02  0.1089378E+00
          2   -1    0    0  501    0  0.00000000000E+00  0.00000000000E+00  0.41039144077E+03  0.41039144078E+03  0.25500000000E-02 0.  1.
         -2   -1    0    0    0  501 -0.00000000000E+00 -0.00000000000E+00 -0.51893709465E+02  0.51893709528E+02  0.25500000000E-02 0. -1.
    5000001    1    1    2    0    0 -0.89793858780E+02  0.76596324873E+02  0.23930711997E+03  0.27771717939E+03  0.77000000000E+02 0.  0.
   -5000001    1    1    2    0    0  0.89793858780E+02 -0.76596324873E+02  0.11919061134E+03  0.18456797092E+03  0.77000000000E+02 0.  0.
<mgrwt>
<rscale>  0 0.29186801E+03</rscale>
<asrwt>0</asrwt>
<pdfrwt beam="1">  1        2 0.58627347E-01 0.29186801E+03</pdfrwt>
<pdfrwt beam="2">  1       -2 0.74133873E-02 0.29186801E+03</pdfrwt>
<totfact> 0.89369628E+03</totfact>
</mgrwt>
</event>
<event>
 4    1  0.6919593E-004  0.2365940E+03  0.7818608E-02  0.1122083E+00
         -2   -1    0    0    0  501 -0.00000000000E+00  0.00000000000E+00  0.10838472217E+02  0.10838472517E+02  0.25500000000E-02 0. -1.
          2   -1    0    0  501    0  0.00000000000E+00 -0.00000000000E+00 -0.12911576859E+04  0.12911576859E+04  0.25500000000E-02 0.  1.
    5000001    1    1    2    0    0 -0.10508610380E+02 -0.88390465814E+02 -0.70570674055E+03  0.71545391815E+03  0.77000000000E+02 0.  0.
   -5000001    1    1    2    0    0  0.10508610380E+02  0.88390465814E+02 -0.57461247309E+03  0.58654224023E+03  0.77000000000E+02 0.  0.
<mgrwt>
<rscale>  0 0.23659397E+03</rscale>
<asrwt>0</asrwt>
<pdfrwt beam="1">  1        2 0.18445100E+00 0.23659397E+03</pdfrwt>
<pdfrwt beam="2">  1       -2 0.15483540E-02 0.23659397E+03</pdfrwt>
<totfact> 0.22337173E+04</totfact>
</mgrwt>
</event>
<event>
 4    1  0.6919593E-004  0.2431461E+03  0.7818608E-02  0.1117715E+00
          2   -1    0    0  501    0  0.00000000000E+00  0.00000000000E+00  0.40817750673E+03  0.40817750674E+03  0.25500000000E-02 0.  1.
         -2   -1    0    0    0  501 -0.00000000000E+00 -0.00000000000E+00 -0.36209753728E+02  0.36209753818E+02  0.25500000000E-02 0. -1.
    5000001    1    1    2    0    0  0.13694879072E+02  0.74040056839E+02  0.82894927776E+02  0.13590455762E+03  0.77000000000E+02 0.  0.
   -5000001    1    1    2    0    0 -0.13694879072E+02 -0.74040056839E+02  0.28907282523E+03  0.30848270295E+03  0.77000000000E+02 0.  0.
<mgrwt>
<rscale>  0 0.24314610E+03</rscale>
<asrwt>0</asrwt>
<pdfrwt beam="1">  1        2 0.58311069E-01 0.24314610E+03</pdfrwt>
<pdfrwt beam="2">  1       -2 0.51728223E-02 0.24314610E+03</pdfrwt>
<totfact> 0.15496012E+04</totfact>
</mgrwt>
</event>
<event>
 4    1  0.6919593E-004  0.2718115E+03  0.7818608E-02  0.1100247E+00
         -2   -1    0    0    0  501 -0.00000000000E+00  0.00000000000E+00  0.96935020475E+02  0.96935020509E+02  0.25500000000E-02 0. -1.
          2   -1    0    0  501    0  0.00000000000E+00 -0.00000000000E+00 -0.19054378975E+03  0.19054378977E+03  0.25500000000E-02 0.  1.
    5000001    1    1    2    0    0 -0.10801099535E+03 -0.22900002276E+01 -0.15613007622E+02  0.13358287774E+03  0.77000000000E+02 0.  0.
   -5000001    1    1    2    0    0  0.10801099535E+03  0.22900002276E+01 -0.77995761657E+02  0.15389593254E+03  0.77000000000E+02 0.  0.
<mgrwt>
<rscale>  0 0.27181145E+03</rscale>
<asrwt>0</asrwt>
<pdfrwt beam="1">  1        2 0.27220541E-01 0.27181145E+03</pdfrwt>
<pdfrwt beam="2">  1       -2 0.13847860E-01 0.27181145E+03</pdfrwt>
<totfact> 0.75696069E+03</totfact>
</mgrwt>
</event>
<event>
 4    1  0.6919593E-004  0.2989608E+03  0.7818608E-02  0.1085761E+00
          2   -1    0    0  501    0  0.00000000000E+00  0.00000000000E+00  0.92570926594E+02  0.92570926629E+02  0.25500000000E-02 0.  1.
         -2   -1    0    0    0  501 -0.00000000000E+00 -0.00000000000E+00 -0.24137589919E+03  0.24137589920E+03  0.25500000000E-02 0. -1.
    5000001    1    1    2    0    0 -0.75762680695E+02 -0.39209212941E+02  0.32377460561E+02  0.11939282272E+03  0.77000000000E+02 0.  0.
   -5000001    1    1    2    0    0  0.75762680695E+02  0.39209212941E+02 -0.18118243316E+03  0.21455400311E+03  0.77000000000E+02 0.  0.
<mgrwt>
<rscale>  0 0.29896080E+03</rscale>
<asrwt>0</asrwt>
<pdfrwt beam="1">  1        2 0.13224418E-01 0.29896080E+03</pdfrwt>
<pdfrwt beam="2">  1       -2 0.34482271E-01 0.29896080E+03</pdfrwt>
<totfact> 0.35797259E+03</totfact>
</mgrwt>
</event>
<event>
 4    1  0.6919593E-004  0.2581213E+03  0.7818608E-02  0.1108277E+00
          2   -1    0    0  501    0  0.00000000000E+00  0.00000000000E+00  0.54256392374E+03  0.54256392375E+03  0.25500000000E-02 0.  1.
         -2   -1    0    0    0  501 -0.00000000000E+00 -0.00000000000E+00 -0.30699877038E+02  0.30699877144E+02  0.25500000000E-02 0. -1.
    5000001    1    1    2    0    0  0.78993384453E+02 -0.24866594304E+02  0.39408154636E+03  0.40998483811E+03  0.77000000000E+02 0.  0.
   -5000001    1    1    2    0    0 -0.78993384453E+02  0.24866594304E+02  0.11778250034E+03  0.16327896278E+03  0.77000000000E+02 0.  0.
<mgrwt>
<rscale>  0 0.25812126E+03</rscale>
<asrwt>0</asrwt>
<pdfrwt beam="1">  1        2 0.77509131E-01 0.25812126E+03</pdfrwt>
<pdfrwt beam="2">  1       -2 0.43856968E-02 0.25812126E+03</pdfrwt>
<totfact> 0.14608687E+04</totfact>
</mgrwt>
</event>
<event>
 4    1  0.6919593E-004  0.2174859E+03  0.7818608E-02  0.1135771E+00
         -2   -1    0    0    0  501 -0.00000000000E+00  0.00000000000E+00  0.40099347793E+02  0.40099347874E+02  0.25500000000E-02 0. -1.
          2   -1    0    0  501    0  0.00000000000E+00 -0.00000000000E+00 -0.29489332287E+03  0.29489332288E+03  0.25500000000E-02 0.  1.
    5000001    1    1    2    0    0 -0.34739377153E+02  0.66130844711E+02 -0.10001968391E+03  0.14667327676E+03  0.77000000000E+02 0.  0.
   -5000001    1    1    2    0    0  0.34739377153E+02 -0.66130844711E+02 -0.15477429118E+03  0.18831939400E+03  0.77000000000E+02 0.  0.
<mgrwt>
<rscale>  0 0.21748591E+03</rscale>
<asrwt>0</asrwt>
<pdfrwt beam="1">  1        2 0.42127616E-01 0.21748591E+03</pdfrwt>
<pdfrwt beam="2">  1       -2 0.57284784E-02 0.21748591E+03</pdfrwt>
<totfact> 0.18679106E+04</totfact>
</mgrwt>
</event>
<event>
 4    1  0.6919593E-004  0.8849946E+03  0.7818608E-02  0.9444536E-01
         -2   -1    0    0    0  501 -0.00000000000E+00  0.00000000000E+00  0.65635868452E+03  0.65635868452E+03  0.25500000000E-02 0. -1.
          2   -1    0    0  501    0  0.00000000000E+00 -0.00000000000E+00 -0.29831839118E+03  0.29831839119E+03  0.25500000000E-02 0.  1.
    5000001    1    1    2    0    0  0.34000288012E+03  0.55097844188E+02  0.46693832874E+03  0.58531883087E+03  0.77000000000E+02 0.  0.
   -5000001    1    1    2    0    0 -0.34000288012E+03 -0.55097844188E+02 -0.10889803540E+03  0.36935824485E+03  0.77000000000E+02 0.  0.
<mgrwt>
<rscale>  0 0.88499461E+03</rscale>
<asrwt>0</asrwt>
<pdfrwt beam="1">  1        2 0.42616912E-01 0.88499461E+03</pdfrwt>
<pdfrwt beam="2">  1       -2 0.93765528E-01 0.88499461E+03</pdfrwt>
<totfact> 0.11581242E+02</totfact>
</mgrwt>
</event>
<event>
 4    1  0.6919593E-004  0.4685005E+03  0.7818608E-02  0.1022344E+00
          2   -1    0    0  501    0  0.00000000000E+00  0.00000000000E+00  0.34123346396E+03  0.34123346397E+03  0.25500000000E-02 0.  1.
         -2   -1    0    0    0  501 -0.00000000000E+00 -0.00000000000E+00 -0.16080833646E+03  0.16080833648E+03  0.25500000000E-02 0. -1.
    5000001    1    1    2    0    0  0.13119617303E+03 -0.13888874212E+03  0.20974040767E+03  0.29397713706E+03  0.77000000000E+02 0.  0.
   -5000001    1    1    2    0    0 -0.13119617303E+03  0.13888874212E+03 -0.29315280162E+02  0.20806466340E+03  0.77000000000E+02 0.  0.
<mgrwt>
<rscale>  0 0.46850053E+03</rscale>
<asrwt>0</asrwt>
<pdfrwt beam="1">  1        2 0.48747638E-01 0.46850053E+03</pdfrwt>
<pdfrwt beam="2">  1       -2 0.22972619E-01 0.46850053E+03</pdfrwt>
<totfact> 0.17145149E+03</totfact>
</mgrwt>
</event>
<event>
 4    1  0.6919593E-004  0.2129139E+03  0.7818608E-02  0.1139279E+00
         -2   -1    0    0    0  501 -0.00000000000E+00  0.00000000000E+00  0.45671556316E+02  0.45671556387E+02  0.25500000000E-02 0.  1.
          2   -1    0    0  501    0  0.00000000000E+00 -0.00000000000E+00 -0.24814318496E+03  0.24814318497E+03  0.25500000000E-02 0. -1.
    5000001    1    1    2    0    0  0.28971200377E+02 -0.66033330004E+02 -0.81508796702E+02  0.13331322163E+03  0.77000000000E+02 0.  0.
   -5000001    1    1    2    0    0 -0.28971200377E+02  0.66033330004E+02 -0.12096283194E+03  0.16050151972E+03  0.77000000000E+02 0.  0.
<mgrwt>
<rscale>  0 0.21291393E+03</rscale>
<asrwt>0</asrwt>
<pdfrwt beam="1">  1        2 0.35449026E-01 0.21291393E+03</pdfrwt>
<pdfrwt beam="2">  1       -2 0.65245082E-02 0.21291393E+03</pdfrwt>
<totfact> 0.18402431E+04</totfact>
</mgrwt>
</event>
<event>
 4    1  0.6919593E-004  0.2514540E+03  0.7818608E-02  0.1112389E+00
          2   -1    0    0  501    0  0.00000000000E+00  0.00000000000E+00  0.45653984441E+02  0.45653984512E+02  0.25500000000E-02 0.  1.
         -2   -1    0    0    0  501 -0.00000000000E+00 -0.00000000000E+00 -0.34624102173E+03  0.34624102174E+03  0.25500000000E-02 0. -1.
    5000001    1    1    2    0    0  0.86494464037E+02 -0.16313947972E+02 -0.78350763992E+02  0.14076675540E+03  0.77000000000E+02 0.  0.
   -5000001    1    1    2    0    0 -0.86494464037E+02  0.16313947972E+02 -0.22223627330E+03  0.25112825085E+03  0.77000000000E+02 0.  0.
<mgrwt>
<rscale>  0 0.25145403E+03</rscale>
<asrwt>0</asrwt>
<pdfrwt beam="1">  1        2 0.65219980E-02 0.25145403E+03</pdfrwt>
<pdfrwt beam="2">  1       -2 0.49463002E-01 0.25145403E+03</pdfrwt>
<totfact> 0.43065288E+03</totfact>
</mgrwt>
</event>
<event>
 4    1  0.6919593E-004  0.1647281E+03  0.7818608E-02  0.1183460E+00
          2   -1    0    0  501    0  0.00000000000E+00  0.00000000000E+00  0.18994602994E+02  0.18994603165E+02  0.25500000000E-02 0.  1.
         -2   -1    0    0    0  501 -0.00000000000E+00 -0.00000000000E+00 -0.35714544230E+03  0.35714544231E+03  0.25500000000E-02 0. -1.
    5000001    1    1    2    0    0  0.18813622053E+02 -0.19901017216E+02 -0.14569614454E+03  0.16705199608E+03  0.77000000000E+02 0.  0.
   -5000001    1    1    2    0    0 -0.18813622053E+02  0.19901017216E+02 -0.19245469477E+03  0.20908804939E+03  0.77000000000E+02 0.  0.
<mgrwt>
<rscale>  0 0.16472809E+03</rscale>
<asrwt>0</asrwt>
<pdfrwt beam="1">  1        2 0.27135149E-02 0.16472809E+03</pdfrwt>
<pdfrwt beam="2">  1       -2 0.51020774E-01 0.16472809E+03</pdfrwt>
<totfact> 0.12614580E+04</totfact>
</mgrwt>
</event>
<event>
 4    1  0.6919593E-004  0.3487333E+03  0.7818608E-02  0.1063136E+00
         -2   -1    0    0    0  501 -0.00000000000E+00  0.00000000000E+00  0.62306659228E+02  0.62306659280E+02  0.25500000000E-02 0. -1.
          2   -1    0    0  501    0  0.00000000000E+00 -0.00000000000E+00 -0.48796918751E+03  0.48796918752E+03  0.25500000000E-02 0.  1.
    5000001    1    1    2    0    0  0.33335795311E+02 -0.14946805923E+03 -0.16236831849E+03  0.23610261928E+03  0.77000000000E+02 0.  0.
   -5000001    1    1    2    0    0 -0.33335795311E+02  0.14946805923E+03 -0.26329420979E+03  0.31417322752E+03  0.77000000000E+02 0.  0.
<mgrwt>
<rscale>  0 0.34873331E+03</rscale>
<asrwt>0</asrwt>
<pdfrwt beam="1">  1        2 0.69709882E-01 0.34873331E+03</pdfrwt>
<pdfrwt beam="2">  1       -2 0.89009516E-02 0.34873331E+03</pdfrwt>
<totfact> 0.55775124E+03</totfact>
</mgrwt>
</event>
<event>
 4    1  0.6919593E-004  0.1634533E+03  0.7818608E-02  0.1184852E+00
         -2   -1    0    0    0  501 -0.00000000000E+00  0.00000000000E+00  0.12875500930E+02  0.12875501182E+02  0.25500000000E-02 0. -1.
          2   -1    0    0  501    0  0.00000000000E+00 -0.00000000000E+00 -0.51875638389E+03  0.51875638390E+03  0.25500000000E-02 0.  1.
    5000001    1    1    2    0    0 -0.10718064021E+02  0.24155326872E+02 -0.22951078040E+03  0.24352115931E+03  0.77000000000E+02 0.  0.
   -5000001    1    1    2    0    0  0.10718064021E+02 -0.24155326872E+02 -0.27637010257E+03  0.28811072577E+03  0.77000000000E+02 0.  0.
<mgrwt>
<rscale>  0 0.16345334E+03</rscale>
<asrwt>0</asrwt>
<pdfrwt beam="1">  1        2 0.74108042E-01 0.16345334E+03</pdfrwt>
<pdfrwt beam="2">  1       -2 0.18393576E-02 0.16345334E+03</pdfrwt>
<totfact> 0.53621563E+04</totfact>
</mgrwt>
</event>
<event>
 4    1  0.6919593E-004  0.2225609E+03  0.7818608E-02  0.1131988E+00
         -2   -1    0    0    0  501 -0.00000000000E+00  0.00000000000E+00  0.18179210928E+02  0.18179211107E+02  0.25500000000E-02 0. -1.
          2   -1    0    0  501    0  0.00000000000E+00 -0.00000000000E+00 -0.68118147058E+03  0.68118147058E+03  0.25500000000E-02 0.  1.
    5000001    1    1    2    0    0 -0.72185480688E+02 -0.31283692739E+02 -0.38264772726E+03  0.39816792466E+03  0.77000000000E+02 0.  0.
   -5000001    1    1    2    0    0  0.72185480688E+02  0.31283692739E+02 -0.28035453239E+03  0.30119275703E+03  0.77000000000E+02 0.  0.
<mgrwt>
<rscale>  0 0.22256093E+03</rscale>
<asrwt>0</asrwt>
<pdfrwt beam="1">  1        2 0.97311623E-01 0.22256093E+03</pdfrwt>
<pdfrwt beam="2">  1       -2 0.25970306E-02 0.22256093E+03</pdfrwt>
<totfact> 0.24400367E+04</totfact>
</mgrwt>
</event>
<event>
 4    1  0.6919593E-004  0.2255921E+03  0.7818608E-02  0.1129781E+00
          2   -1    0    0  501    0  0.00000000000E+00  0.00000000000E+00  0.44824020922E+03  0.44824020923E+03  0.25500000000E-02 0.  1.
         -2   -1    0    0    0  501 -0.00000000000E+00 -0.00000000000E+00 -0.28384228264E+02  0.28384228378E+02  0.25500000000E-02 0. -1.
    5000001    1    1    2    0    0 -0.19977047032E+01 -0.81147890524E+02  0.24017689663E+03  0.26495832245E+03  0.77000000000E+02 0.  0.
   -5000001    1    1    2    0    0  0.19977047032E+01  0.81147890524E+02  0.17967908432E+03  0.21166611515E+03  0.77000000000E+02 0.  0.
<mgrwt>
<rscale>  0 0.22559213E+03</rscale>
<asrwt>0</asrwt>
<pdfrwt beam="1">  1        2 0.64034308E-01 0.22559213E+03</pdfrwt>
<pdfrwt beam="2">  1       -2 0.40548902E-02 0.22559213E+03</pdfrwt>
<totfact> 0.20129850E+04</totfact>
</mgrwt>
</event>
<event>
 4    1  0.6919593E-004  0.1700384E+03  0.7818608E-02  0.1177808E+00
          2   -1    0    0  501    0  0.00000000000E+00  0.00000000000E+00  0.46677820039E+03  0.46677820039E+03  0.25500000000E-02 0.  1.
         -2   -1    0    0    0  501 -0.00000000000E+00 -0.00000000000E+00 -0.15485441821E+02  0.15485442031E+02  0.25500000000E-02 0. -1.
    5000001    1    1    2    0    0  0.31913476809E+02 -0.13874031425E+02  0.25229884457E+03  0.26607267000E+03  0.77000000000E+02 0.  0.
   -5000001    1    1    2    0    0 -0.31913476809E+02  0.13874031425E+02  0.19899391399E+03  0.21619097242E+03  0.77000000000E+02 0.  0.
<mgrwt>
<rscale>  0 0.17003843E+03</rscale>
<asrwt>0</asrwt>
<pdfrwt beam="1">  1        2 0.66682586E-01 0.17003843E+03</pdfrwt>
<pdfrwt beam="2">  1       -2 0.22122064E-02 0.17003843E+03</pdfrwt>
<totfact> 0.46151191E+04</totfact>
</mgrwt>
</event>
<event>
 4    1  0.6919593E-004  0.2329337E+03  0.7818608E-02  0.1124592E+00
         -2   -1    0    0    0  501 -0.00000000000E+00  0.00000000000E+00  0.11258924706E+02  0.11258924995E+02  0.25500000000E-02 0. -1.
          2   -1    0    0  501    0  0.00000000000E+00 -0.00000000000E+00 -0.12047799098E+04  0.12047799098E+04  0.25500000000E-02 0.  1.
    5000001    1    1    2    0    0 -0.73019911685E+02  0.40769153677E+02 -0.72898494991E+03  0.73779542462E+03  0.77000000000E+02 0.  0.
   -5000001    1    1    2    0    0  0.73019911685E+02 -0.40769153677E+02 -0.46453603516E+03  0.47824341015E+03  0.77000000000E+02 0.  0.
<mgrwt>
<rscale>  0 0.23293369E+03</rscale>
<asrwt>0</asrwt>
<pdfrwt beam="1">  1        2 0.17211133E+00 0.23293369E+03</pdfrwt>
<pdfrwt beam="2">  1       -2 0.16084186E-02 0.23293369E+03</pdfrwt>
<totfact> 0.23469859E+04</totfact>
</mgrwt>
</event>
<event>
 4    1  0.6919593E-004  0.1854443E+03  0.7818608E-02  0.1162636E+00
          2   -1    0    0  501    0  0.00000000000E+00  0.00000000000E+00  0.38678623098E+03  0.38678623099E+03  0.25500000000E-02 0.  1.
         -2   -1    0    0    0  501 -0.00000000000E+00 -0.00000000000E+00 -0.22227776585E+02  0.22227776731E+02  0.25500000000E-02 0. -1.
    5000001    1    1    2    0    0 -0.48334521550E+02  0.17862381435E+02  0.19026434917E+03  0.21162422643E+03  0.77000000000E+02 0.  0.
   -5000001    1    1    2    0    0  0.48334521550E+02 -0.17862381435E+02  0.17429410522E+03  0.19738978129E+03  0.77000000000E+02 0.  0.
<mgrwt>
<rscale>  0 0.18544431E+03</rscale>
<asrwt>0</asrwt>
<pdfrwt beam="1">  1        2 0.55255178E-01 0.18544431E+03</pdfrwt>
<pdfrwt beam="2">  1       -2 0.31753966E-02 0.18544431E+03</pdfrwt>
<totfact> 0.33466922E+04</totfact>
</mgrwt>
</event>
<event>
 4    1  0.6919593E-004  0.1906502E+03  0.7818608E-02  0.1157876E+00
          2   -1    0    0  501    0  0.00000000000E+00  0.00000000000E+00  0.76608579075E+03  0.76608579075E+03  0.25500000000E-02 0.  1.
         -2   -1    0    0    0  501 -0.00000000000E+00 -0.00000000000E+00 -0.11861425879E+02  0.11861426153E+02  0.25500000000E-02 0. -1.
    5000001    1    1    2    0    0  0.35989189898E+02 -0.22570687389E+02  0.52721745050E+03  0.53450154146E+03  0.77000000000E+02 0.  0.
   -5000001    1    1    2    0    0 -0.35989189898E+02  0.22570687389E+02  0.22700691437E+03  0.24344567544E+03  0.77000000000E+02 0.  0.
<mgrwt>
<rscale>  0 0.19065015E+03</rscale>
<asrwt>0</asrwt>
<pdfrwt beam="1">  1        2 0.10944081E+00 0.19065015E+03</pdfrwt>
<pdfrwt beam="2">  1       -2 0.16944897E-02 0.19065015E+03</pdfrwt>
<totfact> 0.39222092E+04</totfact>
</mgrwt>
</event>
<event>
 4    1  0.6919593E-004  0.2224660E+03  0.7818608E-02  0.1132058E+00
         -2   -1    0    0    0  501 -0.00000000000E+00  0.00000000000E+00  0.24423071005E+03  0.24423071006E+03  0.25500000000E-02 0. -1.
          2   -1    0    0  501    0  0.00000000000E+00 -0.00000000000E+00 -0.50660194112E+02  0.50660194176E+02  0.25500000000E-02 0.  1.
    5000001    1    1    2    0    0  0.11054763130E+02 -0.38429511909E+02  0.18904942362E+03  0.20800894150E+03  0.77000000000E+02 0.  0.
   -5000001    1    1    2    0    0 -0.11054763130E+02  0.38429511909E+02  0.45210923181E+01  0.86881962738E+02  0.77000000000E+02 0.  0.
<mgrwt>
<rscale>  0 0.22246595E+03</rscale>
<asrwt>0</asrwt>
<pdfrwt beam="1">  1        2 0.72371709E-02 0.22246595E+03</pdfrwt>
<pdfrwt beam="2">  1       -2 0.34890100E-01 0.22246595E+03</pdfrwt>
<totfact> 0.73205759E+03</totfact>
</mgrwt>
</event>
<event>
 4    1  0.6919593E-004  0.6334478E+03  0.7818608E-02  0.9838344E-01
          2   -1    0    0  501    0  0.00000000000E+00  0.00000000000E+00  0.22354645418E+04  0.22354645418E+04  0.25500000000E-02 0.  1.
         -2   -1    0    0    0  501 -0.00000000000E+00 -0.00000000000E+00 -0.44873903278E+02  0.44873903350E+02  0.25500000000E-02 0. -1.
    5000001    1    1    2    0    0  0.13868123471E+03 -0.19006567920E+03  0.38412394694E+03  0.45698758613E+03  0.77000000000E+02 0.  0.
   -5000001    1    1    2    0    0 -0.13868123471E+03  0.19006567920E+03  0.18064666916E+04  0.18233508590E+04  0.77000000000E+02 0.  0.
<mgrwt>
<rscale>  0 0.63344777E+03</rscale>
<asrwt>0</asrwt>
<pdfrwt beam="1">  1        2 0.31935204E+00 0.63344777E+03</pdfrwt>
<pdfrwt beam="2">  1       -2 0.64105583E-02 0.63344777E+03</pdfrwt>
<totfact> 0.87618353E+02</totfact>
</mgrwt>
</event>
<event>
 4    1  0.6919593E-004  0.2135814E+03  0.7818608E-02  0.1138761E+00
         -2   -1    0    0    0  501 -0.00000000000E+00  0.00000000000E+00  0.77042078853E+01  0.77042083073E+01  0.25500000000E-02 0. -1.
          2   -1    0    0  501    0  0.00000000000E+00 -0.00000000000E+00 -0.14802628921E+04  0.14802628921E+04  0.25500000000E-02 0.  1.
    5000001    1    1    2    0    0  0.40715765732E+02 -0.26521667761E+02 -0.11250512281E+04  0.11287295683E+04  0.77000000000E+02 0.  0.
   -5000001    1    1    2    0    0 -0.40715765732E+02  0.26521667761E+02 -0.34750745604E+03  0.35923753206E+03  0.77000000000E+02 0.  0.
<mgrwt>
<rscale>  0 0.21358140E+03</rscale>
<asrwt>0</asrwt>
<pdfrwt beam="1">  1        2 0.21146595E+00 0.21358140E+03</pdfrwt>
<pdfrwt beam="2">  1       -2 0.11006021E-02 0.21358140E+03</pdfrwt>
<totfact> 0.29174357E+04</totfact>
</mgrwt>
</event>
<event>
 4    1  0.6919593E-004  0.7868915E+03  0.7818608E-02  0.9579187E-01
          2   -1    0    0  501    0  0.00000000000E+00  0.00000000000E+00  0.22665345306E+04  0.22665345306E+04  0.25500000000E-02 0.  1.
         -2   -1    0    0    0  501 -0.00000000000E+00 -0.00000000000E+00 -0.68297905854E+02  0.68297905902E+02  0.25500000000E-02 0. -1.
    5000001    1    1    2    0    0  0.11229842483E+03 -0.26659939027E+03  0.34156593653E+03  0.45418328911E+03  0.77000000000E+02 0.  0.
   -5000001    1    1    2    0    0 -0.11229842483E+03  0.26659939027E+03  0.18566706882E+04  0.18806491474E+04  0.77000000000E+02 0.  0.
<mgrwt>
<rscale>  0 0.78689151E+03</rscale>
<asrwt>0</asrwt>
<pdfrwt beam="1">  1        2 0.32379053E+00 0.78689151E+03</pdfrwt>
<pdfrwt beam="2">  1       -2 0.97568472E-02 0.78689151E+03</pdfrwt>
<totfact> 0.42715875E+02</totfact>
</mgrwt>
</event>
<event>
 4    1  0.6919593E-004  0.2783433E+03  0.7818608E-02  0.1096597E+00
          2   -1    0    0  501    0  0.00000000000E+00  0.00000000000E+00  0.12645666451E+04  0.12645666451E+04  0.25500000000E-02 0.  1.
         -2   -1    0    0    0  501 -0.00000000000E+00 -0.00000000000E+00 -0.15316514133E+02  0.15316514346E+02  0.25500000000E-02 0. -1.
    5000001    1    1    2    0    0 -0.10318502331E+03 -0.19926071661E+02  0.84968212043E+03  0.85961206549E+03  0.77000000000E+02 0.  0.
   -5000001    1    1    2    0    0  0.10318502331E+03  0.19926071661E+02  0.39956801055E+03  0.42027109396E+03  0.77000000000E+02 0.  0.
<mgrwt>
<rscale>  0 0.27834333E+03</rscale>
<asrwt>0</asrwt>
<pdfrwt beam="1">  1        2 0.18065238E+00 0.27834333E+03</pdfrwt>
<pdfrwt beam="2">  1       -2 0.21880734E-02 0.27834333E+03</pdfrwt>
<totfact> 0.13986206E+04</totfact>
</mgrwt>
</event>
<event>
 4    1  0.6919593E-004  0.2512279E+03  0.7818608E-02  0.1112531E+00
          2   -1    0    0  501    0  0.00000000000E+00  0.00000000000E+00  0.20435685606E+02  0.20435685766E+02  0.25500000000E-02 0.  1.
         -2   -1    0    0    0  501 -0.00000000000E+00 -0.00000000000E+00 -0.77212295594E+03  0.77212295595E+03  0.25500000000E-02 0. -1.
    5000001    1    1    2    0    0  0.95663711191E+02  0.10220250060E+02 -0.45272244738E+03  0.46919357787E+03  0.77000000000E+02 0.  0.
   -5000001    1    1    2    0    0 -0.95663711191E+02 -0.10220250060E+02 -0.29896482295E+03  0.32336506384E+03  0.77000000000E+02 0.  0.
<mgrwt>
<rscale>  0 0.25122788E+03</rscale>
<asrwt>0</asrwt>
<pdfrwt beam="1">  1        2 0.29193841E-02 0.25122788E+03</pdfrwt>
<pdfrwt beam="2">  1       -2 0.11030326E+00 0.25122788E+03</pdfrwt>
<totfact> 0.22014482E+03</totfact>
</mgrwt>
</event>
<event>
 4    1  0.6919593E-004  0.5409189E+03  0.7818608E-02  0.1003618E+00
         -2   -1    0    0    0  501 -0.00000000000E+00  0.00000000000E+00  0.74653210247E+02  0.74653210290E+02  0.25500000000E-02 0. -1.
          2   -1    0    0  501    0  0.00000000000E+00 -0.00000000000E+00 -0.97984150932E+03  0.97984150932E+03  0.25500000000E-02 0.  1.
    5000001    1    1    2    0    0  0.20356957587E+03  0.36210150888E+02 -0.14765888920E+03  0.26548803138E+03  0.77000000000E+02 0.  0.
   -5000001    1    1    2    0    0 -0.20356957587E+03 -0.36210150888E+02 -0.75752940987E+03  0.78900668823E+03  0.77000000000E+02 0.  0.
<mgrwt>
<rscale>  0 0.54091890E+03</rscale>
<asrwt>0</asrwt>
<pdfrwt beam="1">  1        2 0.13997735E+00 0.54091890E+03</pdfrwt>
<pdfrwt beam="2">  1       -2 0.10664745E-01 0.54091890E+03</pdfrwt>
<totfact> 0.17921338E+03</totfact>
</mgrwt>
</event>
<event>
 4    1  0.6919593E-004  0.2997337E+03  0.7818608E-02  0.1085374E+00
          2   -1    0    0  501    0  0.00000000000E+00  0.00000000000E+00  0.46961036684E+03  0.46961036684E+03  0.25500000000E-02 0.  1.
         -2   -1    0    0    0  501 -0.00000000000E+00 -0.00000000000E+00 -0.47827036535E+02  0.47827036603E+02  0.25500000000E-02 0. -1.
    5000001    1    1    2    0    0  0.62338534415E+02  0.37833291424E+02  0.28083666769E+02  0.10970480004E+03  0.77000000000E+02 0.  0.
   -5000001    1    1    2    0    0 -0.62338534415E+02 -0.37833291424E+02  0.39369966353E+03  0.40773260341E+03  0.77000000000E+02 0.  0.
<mgrwt>
<rscale>  0 0.29973370E+03</rscale>
<asrwt>0</asrwt>
<pdfrwt beam="1">  1        2 0.67087195E-01 0.29973370E+03</pdfrwt>
<pdfrwt beam="2">  1       -2 0.68324339E-02 0.29973370E+03</pdfrwt>
<totfact> 0.87644647E+03</totfact>
</mgrwt>
</event>
<event>
 4    1  0.6919593E-004  0.2106106E+03  0.7818608E-02  0.1141083E+00
         -2   -1    0    0    0  501 -0.00000000000E+00  0.00000000000E+00  0.72713642404E+01  0.72713646876E+01  0.25500000000E-02 0. -1.
          2   -1    0    0  501    0  0.00000000000E+00 -0.00000000000E+00 -0.15250522770E+04  0.15250522770E+04  0.25500000000E-02 0.  1.
    5000001    1    1    2    0    0  0.59986903189E+02 -0.10622675477E+02 -0.10358367499E+04  0.10404797173E+04  0.77000000000E+02 0.  0.
   -5000001    1    1    2    0    0 -0.59986903189E+02  0.10622675477E+02 -0.48194416288E+03  0.49184392435E+03  0.77000000000E+02 0.  0.
<mgrwt>
<rscale>  0 0.21061064E+03</rscale>
<asrwt>0</asrwt>
<pdfrwt beam="1">  1        2 0.21786441E+00 0.21061064E+03</pdfrwt>
<pdfrwt beam="2">  1       -2 0.10387673E-02 0.21061064E+03</pdfrwt>
<totfact> 0.30099376E+04</totfact>
</mgrwt>
</event>
<event>
 4    1  0.6919593E-004  0.3111638E+03  0.7818608E-02  0.1079789E+00
          2   -1    0    0  501    0  0.00000000000E+00  0.00000000000E+00  0.14779094470E+04  0.14779094470E+04  0.25500000000E-02 0.  1.
         -2   -1    0    0    0  501 -0.00000000000E+00 -0.00000000000E+00 -0.16378353519E+02  0.16378353718E+02  0.25500000000E-02 0. -1.
    5000001    1    1    2    0    0 -0.10473724707E+03  0.83287150778E+02  0.63838194970E+03  0.65678547038E+03  0.77000000000E+02 0.  0.
   -5000001    1    1    2    0    0  0.10473724707E+03 -0.83287150778E+02  0.82314914378E+03  0.83750233034E+03  0.77000000000E+02 0.  0.
<mgrwt>
<rscale>  0 0.31116377E+03</rscale>
<asrwt>0</asrwt>
<pdfrwt beam="1">  1        2 0.21112978E+00 0.31116377E+03</pdfrwt>
<pdfrwt beam="2">  1       -2 0.23397664E-02 0.31116377E+03</pdfrwt>
<totfact> 0.98411072E+03</totfact>
</mgrwt>
</event>
<event>
 4    1  0.6919593E-004  0.2024742E+03  0.7818608E-02  0.1147668E+00
         -2   -1    0    0    0  501 -0.00000000000E+00  0.00000000000E+00  0.33494989582E+02  0.33494989679E+02  0.25500000000E-02 0. -1.
          2   -1    0    0  501    0  0.00000000000E+00 -0.00000000000E+00 -0.30598458483E+03  0.30598458484E+03  0.25500000000E-02 0.  1.
    5000001    1    1    2    0    0  0.34694509039E+02 -0.39828706178E+02 -0.70663847052E+02  0.11710001739E+03  0.77000000000E+02 0.  0.
   -5000001    1    1    2    0    0 -0.34694509039E+02  0.39828706178E+02 -0.20182574820E+03  0.22237955713E+03  0.77000000000E+02 0.  0.
<mgrwt>
<rscale>  0 0.20247420E+03</rscale>
<asrwt>0</asrwt>
<pdfrwt beam="1">  1        2 0.43712082E-01 0.20247420E+03</pdfrwt>
<pdfrwt beam="2">  1       -2 0.47849987E-02 0.20247420E+03</pdfrwt>
<totfact> 0.23467836E+04</totfact>
</mgrwt>
</event>
<event>
 4    1  0.6919593E-004  0.3000242E+03  0.7818608E-02  0.1085229E+00
         -2   -1    0    0    0  501 -0.00000000000E+00  0.00000000000E+00  0.17003394445E+02  0.17003394637E+02  0.25500000000E-02 0. -1.
          2   -1    0    0  501    0  0.00000000000E+00 -0.00000000000E+00 -0.13234783705E+04  0.13234783705E+04  0.25500000000E-02 0.  1.
    5000001    1    1    2    0    0  0.50610149790E+02 -0.85947614736E+02 -0.28954157158E+03  0.31577159691E+03  0.77000000000E+02 0.  0.
   -5000001    1    1    2    0    0 -0.50610149790E+02  0.85947614736E+02 -0.10169334045E+04  0.10247101682E+04  0.77000000000E+02 0.  0.
<mgrwt>
<rscale>  0 0.30002417E+03</rscale>
<asrwt>0</asrwt>
<pdfrwt beam="1">  1        2 0.18906827E+00 0.30002417E+03</pdfrwt>
<pdfrwt beam="2">  1       -2 0.24290572E-02 0.30002417E+03</pdfrwt>
<totfact> 0.11178784E+04</totfact>
</mgrwt>
</event>
<event>
 4    1  0.6919593E-004  0.1932344E+03  0.7818608E-02  0.1155576E+00
          2   -1    0    0  501    0  0.00000000000E+00  0.00000000000E+00  0.58530487259E+03  0.58530487259E+03  0.25500000000E-02 0.  1.
         -2   -1    0    0    0  501 -0.00000000000E+00 -0.00000000000E+00 -0.15948757281E+02  0.15948757484E+02  0.25500000000E-02 0. -1.
    5000001    1    1    2    0    0 -0.39037961277E+02 -0.41886161925E+02  0.31980831667E+03  0.33389335482E+03  0.77000000000E+02 0.  0.
   -5000001    1    1    2    0    0  0.39037961277E+02  0.41886161925E+02  0.24954779864E+03  0.26736027526E+03  0.77000000000E+02 0.  0.
<mgrwt>
<rscale>  0 0.19323442E+03</rscale>
<asrwt>0</asrwt>
<pdfrwt beam="1">  1        2 0.83614988E-01 0.19323442E+03</pdfrwt>
<pdfrwt beam="2">  1       -2 0.22783937E-02 0.19323442E+03</pdfrwt>
<totfact> 0.34840697E+04</totfact>
</mgrwt>
</event>
<event>
 4    1  0.6919593E-004  0.2518645E+03  0.7818608E-02  0.1112132E+00
         -2   -1    0    0    0  501 -0.00000000000E+00  0.00000000000E+00  0.14060421873E+03  0.14060421875E+03  0.25500000000E-02 0. -1.
          2   -1    0    0  501    0  0.00000000000E+00 -0.00000000000E+00 -0.11279130443E+03  0.11279130446E+03  0.25500000000E-02 0.  1.
    5000001    1    1    2    0    0 -0.63613265774E+02 -0.60247513074E+02 -0.33853391071E+02  0.12145559889E+03  0.77000000000E+02 0.  0.
   -5000001    1    1    2    0    0  0.63613265774E+02  0.60247513074E+02  0.61666305362E+02  0.13193992433E+03  0.77000000000E+02 0.  0.
<mgrwt>
<rscale>  0 0.25186451E+03</rscale>
<asrwt>0</asrwt>
<pdfrwt beam="1">  1        2 0.16113043E-01 0.25186451E+03</pdfrwt>
<pdfrwt beam="2">  1       -2 0.20086317E-01 0.25186451E+03</pdfrwt>
<totfact> 0.73620774E+03</totfact>
</mgrwt>
</event>
<event>
 4    1  0.6919593E-004  0.2118579E+03  0.7818608E-02  0.1140103E+00
         -2   -1    0    0    0  501 -0.00000000000E+00  0.00000000000E+00  0.72949145958E+02  0.72949146002E+02  0.25500000000E-02 0. -1.
          2   -1    0    0  501    0  0.00000000000E+00 -0.00000000000E+00 -0.15381864229E+03  0.15381864231E+03  0.25500000000E-02 0.  1.
    5000001    1    1    2    0    0  0.40154681373E+02  0.60505707304E+02 -0.35818513192E+02  0.11173766124E+03  0.77000000000E+02 0.  0.
   -5000001    1    1    2    0    0 -0.40154681373E+02 -0.60505707304E+02 -0.45050983143E+02  0.11503012707E+03  0.77000000000E+02 0.  0.
<mgrwt>
<rscale>  0 0.21185786E+03</rscale>
<asrwt>0</asrwt>
<pdfrwt beam="1">  1        2 0.21974092E-01 0.21185786E+03</pdfrwt>
<pdfrwt beam="2">  1       -2 0.10421307E-01 0.21185786E+03</pdfrwt>
<totfact> 0.15001361E+04</totfact>
</mgrwt>
</event>
<event>
 4    1  0.6919593E-004  0.2222032E+03  0.7818608E-02  0.1132251E+00
         -2   -1    0    0    0  501 -0.00000000000E+00  0.00000000000E+00  0.87518829635E+01  0.87518833350E+01  0.25500000000E-02 0. -1.
          2   -1    0    0  501    0  0.00000000000E+00 -0.00000000000E+00 -0.14103898072E+04  0.14103898072E+04  0.25500000000E-02 0.  1.
    5000001    1    1    2    0    0 -0.45425013844E+01  0.65264488634E+02 -0.40575146693E+03  0.41814272768E+03  0.77000000000E+02 0.  0.
   -5000001    1    1    2    0    0  0.45425013844E+01 -0.65264488634E+02 -0.99588645726E+03  0.10009989628E+04  0.77000000000E+02 0.  0.
<mgrwt>
<rscale>  0 0.22220321E+03</rscale>
<asrwt>0</asrwt>
<pdfrwt beam="1">  1        2 0.20148411E+00 0.22220321E+03</pdfrwt>
<pdfrwt beam="2">  1       -2 0.12502699E-02 0.22220321E+03</pdfrwt>
<totfact> 0.26367433E+04</totfact>
</mgrwt>
</event>
<event>
 4    1  0.6919593E-004  0.3033960E+03  0.7818608E-02  0.1083555E+00
          2   -1    0    0  501    0  0.00000000000E+00  0.00000000000E+00  0.22478676278E+03  0.22478676280E+03  0.25500000000E-02 0.  1.
         -2   -1    0    0    0  501 -0.00000000000E+00 -0.00000000000E+00 -0.10237384896E+03  0.10237384900E+03  0.25500000000E-02 0. -1.
    5000001    1    1    2    0    0 -0.31557949394E+02  0.11724829649E+03  0.11337147660E+03  0.18309876817E+03  0.77000000000E+02 0.  0.
   -5000001    1    1    2    0    0  0.31557949394E+02 -0.11724829649E+03  0.90414372185E+01  0.14406184362E+03  0.77000000000E+02 0.  0.
<mgrwt>
<rscale>  0 0.30339602E+03</rscale>
<asrwt>0</asrwt>
<pdfrwt beam="1">  1        2 0.32112395E-01 0.30339602E+03</pdfrwt>
<pdfrwt beam="2">  1       -2 0.14624836E-01 0.30339602E+03</pdfrwt>
<totfact> 0.57922127E+03</totfact>
</mgrwt>
</event>
<event>
 4    1  0.6919593E-004  0.2368704E+03  0.7818608E-02  0.1121895E+00
         -2   -1    0    0    0  501 -0.00000000000E+00  0.00000000000E+00  0.38025579432E+02  0.38025579518E+02  0.25500000000E-02 0. -1.
          2   -1    0    0  501    0  0.00000000000E+00 -0.00000000000E+00 -0.36888058625E+03  0.36888058626E+03  0.25500000000E-02 0.  1.
    5000001    1    1    2    0    0 -0.75032130489E+02  0.42817246419E+02 -0.20870763008E+03  0.23864411171E+03  0.77000000000E+02 0.  0.
   -5000001    1    1    2    0    0  0.75032130489E+02 -0.42817246419E+02 -0.12214737673E+03  0.16826205407E+03  0.77000000000E+02 0.  0.
<mgrwt>
<rscale>  0 0.23687041E+03</rscale>
<asrwt>0</asrwt>
<pdfrwt beam="1">  1        2 0.52697224E-01 0.23687041E+03</pdfrwt>
<pdfrwt beam="2">  1       -2 0.54322259E-02 0.23687041E+03</pdfrwt>
<totfact> 0.16019278E+04</totfact>
</mgrwt>
</event>
<event>
 4    1  0.6919593E-004  0.2465636E+03  0.7818608E-02  0.1115496E+00
         -2   -1    0    0    0  501 -0.00000000000E+00  0.00000000000E+00  0.23419413446E+03  0.23419413448E+03  0.25500000000E-02 0. -1.
          2   -1    0    0  501    0  0.00000000000E+00 -0.00000000000E+00 -0.64896618054E+02  0.64896618104E+02  0.25500000000E-02 0.  1.
    5000001    1    1    2    0    0  0.12579866777E+02 -0.94665748157E+02  0.99483080601E+02  0.15794220541E+03  0.77000000000E+02 0.  0.
   -5000001    1    1    2    0    0 -0.12579866777E+02  0.94665748157E+02  0.69814435806E+02  0.14114854717E+03  0.77000000000E+02 0.  0.
<mgrwt>
<rscale>  0 0.24656364E+03</rscale>
<asrwt>0</asrwt>
<pdfrwt beam="1">  1        2 0.92709455E-02 0.24656364E+03</pdfrwt>
<pdfrwt beam="2">  1       -2 0.33456305E-01 0.24656364E+03</pdfrwt>
<totfact> 0.58152849E+03</totfact>
</mgrwt>
</event>
<event>
 4    1  0.6919593E-004  0.3482974E+03  0.7818608E-02  0.1063316E+00
          2   -1    0    0  501    0  0.00000000000E+00  0.00000000000E+00  0.91662230658E+03  0.91662230659E+03  0.25500000000E-02 0.  1.
         -2   -1    0    0    0  501 -0.00000000000E+00 -0.00000000000E+00 -0.33086441969E+02  0.33086442068E+02  0.25500000000E-02 0. -1.
    5000001    1    1    2    0    0 -0.47930242727E+02  0.13204214277E+03  0.62803160548E+03  0.64813974814E+03  0.77000000000E+02 0.  0.
   -5000001    1    1    2    0    0  0.47930242727E+02 -0.13204214277E+03  0.25550425913E+03  0.30156900051E+03  0.77000000000E+02 0.  0.
<mgrwt>
<rscale>  0 0.34829741E+03</rscale>
<asrwt>0</asrwt>
<pdfrwt beam="1">  1        2 0.13094606E+00 0.34829741E+03</pdfrwt>
<pdfrwt beam="2">  1       -2 0.47266341E-02 0.34829741E+03</pdfrwt>
<totfact> 0.70179967E+03</totfact>
</mgrwt>
</event>
<event>
 4    1  0.6919593E-004  0.2094333E+03  0.7818608E-02  0.1142016E+00
         -2   -1    0    0    0  501 -0.00000000000E+00  0.00000000000E+00  0.10631752196E+02  0.10631752502E+02  0.25500000000E-02 0. -1.
          2   -1    0    0  501    0  0.00000000000E+00 -0.00000000000E+00 -0.10313984894E+04  0.10313984894E+04  0.25500000000E-02 0.  1.
    5000001    1    1    2    0    0 -0.45421151969E+02 -0.42601079350E+02 -0.67974263848E+03  0.68691847230E+03  0.77000000000E+02 0.  0.
   -5000001    1    1    2    0    0  0.45421151969E+02  0.42601079350E+02 -0.34102409876E+03  0.35511176965E+03  0.77000000000E+02 0.  0.
<mgrwt>
<rscale>  0 0.20943327E+03</rscale>
<asrwt>0</asrwt>
<pdfrwt beam="1">  1        2 0.14734258E+00 0.20943327E+03</pdfrwt>
<pdfrwt beam="2">  1       -2 0.15188224E-02 0.20943327E+03</pdfrwt>
<totfact> 0.31651088E+04</totfact>
</mgrwt>
</event>
<event>
 4    1  0.6919593E-004  0.2110756E+03  0.7818608E-02  0.1140717E+00
          2   -1    0    0  501    0  0.00000000000E+00  0.00000000000E+00  0.87221393508E+03  0.87221393508E+03  0.25500000000E-02 0.  1.
         -2   -1    0    0    0  501 -0.00000000000E+00 -0.00000000000E+00 -0.12770063714E+02  0.12770063969E+02  0.25500000000E-02 0. -1.
    5000001    1    1    2    0    0  0.36341991482E+02  0.58068298392E+02  0.52501422728E+03  0.53503421056E+03  0.77000000000E+02 0.  0.
   -5000001    1    1    2    0    0 -0.36341991482E+02 -0.58068298392E+02  0.33442964408E+03  0.34994978849E+03  0.77000000000E+02 0.  0.
<mgrwt>
<rscale>  0 0.21107560E+03</rscale>
<asrwt>0</asrwt>
<pdfrwt beam="1">  1        2 0.12460200E+00 0.21107560E+03</pdfrwt>
<pdfrwt beam="2">  1       -2 0.18242947E-02 0.21107560E+03</pdfrwt>
<totfact> 0.30229378E+04</totfact>
</mgrwt>
</event>
<event>
 4    1  0.6919593E-004  0.1719163E+03  0.7818608E-02  0.1175864E+00
          2   -1    0    0  501    0  0.00000000000E+00  0.00000000000E+00  0.26911280838E+04  0.26911280838E+04  0.25500000000E-02 0.  1.
         -2   -1    0    0    0  501 -0.00000000000E+00 -0.00000000000E+00 -0.27456164151E+01  0.27456175993E+01  0.25500000000E-02 0. -1.
    5000001    1    1    2    0    0  0.25392256380E+02 -0.27522342652E+02  0.12253069971E+04  0.12282949496E+04  0.77000000000E+02 0.  0.
   -5000001    1    1    2    0    0 -0.25392256380E+02  0.27522342652E+02  0.14630754703E+04  0.14655787518E+04  0.77000000000E+02 0.  0.
<mgrwt>
<rscale>  0 0.17191634E+03</rscale>
<asrwt>0</asrwt>
<pdfrwt beam="1">  1        2 0.38444655E+00 0.17191634E+03</pdfrwt>
<pdfrwt beam="2">  1       -2 0.39223132E-03 0.17191634E+03</pdfrwt>
<totfact> 0.32473674E+04</totfact>
</mgrwt>
</event>
<event>
 4    1  0.6919593E-004  0.1991349E+03  0.7818608E-02  0.1150471E+00
          2   -1    0    0  501    0  0.00000000000E+00  0.00000000000E+00  0.42757756635E+04  0.42757756635E+04  0.25500000000E-02 0.  1.
         -2   -1    0    0    0  501 -0.00000000000E+00 -0.00000000000E+00 -0.23185663700E+01  0.23185677722E+01  0.25500000000E-02 0. -1.
    5000001    1    1    2    0    0 -0.12246285121E+02 -0.57260580801E+02  0.26432664716E+04  0.26450359894E+04  0.77000000000E+02 0.  0.
   -5000001    1    1    2    0    0  0.12246285121E+02  0.57260580801E+02  0.16301906256E+04  0.16330582419E+04  0.77000000000E+02 0.  0.
<mgrwt>
<rscale>  0 0.19913486E+03</rscale>
<asrwt>0</asrwt>
<pdfrwt beam="1">  1        2 0.61082808E+00 0.19913486E+03</pdfrwt>
<pdfrwt beam="2">  1       -2 0.33122225E-03 0.19913486E+03</pdfrwt>
<totfact> 0.49874944E+03</totfact>
</mgrwt>
</event>
<event>
 4    1  0.6919593E-004  0.2331677E+03  0.7818608E-02  0.1124430E+00
         -2   -1    0    0    0  501 -0.00000000000E+00  0.00000000000E+00  0.44406185617E+03  0.44406185618E+03  0.25500000000E-02 0. -1.
          2   -1    0    0  501    0  0.00000000000E+00 -0.00000000000E+00 -0.30607890721E+02  0.30607890827E+02  0.25500000000E-02 0.  1.
    5000001    1    1    2    0    0  0.53406549626E+01  0.31568869663E+02  0.40870940279E+02  0.92868454744E+02  0.77000000000E+02 0.  0.
   -5000001    1    1    2    0    0 -0.53406549626E+01 -0.31568869663E+02  0.37258302517E+03  0.38180129226E+03  0.77000000000E+02 0.  0.
<mgrwt>
<rscale>  0 0.23316772E+03</rscale>
<asrwt>0</asrwt>
<pdfrwt beam="1">  1        2 0.43725561E-02 0.23316772E+03</pdfrwt>
<pdfrwt beam="2">  1       -2 0.63437404E-01 0.23316772E+03</pdfrwt>
<totfact> 0.43671846E+03</totfact>
</mgrwt>
</event>
<event>
 4    1  0.6919593E-004  0.5114689E+03  0.7818608E-02  0.1010828E+00
          2   -1    0    0  501    0  0.00000000000E+00  0.00000000000E+00  0.12371234090E+04  0.12371234090E+04  0.25500000000E-02 0.  1.
         -2   -1    0    0    0  501 -0.00000000000E+00 -0.00000000000E+00 -0.52864658184E+02  0.52864658246E+02  0.25500000000E-02 0. -1.
    5000001    1    1    2    0    0  0.81147865162E+02  0.12586973584E+03  0.10775510826E+04  0.10906298648E+04  0.77000000000E+02 0.  0.
   -5000001    1    1    2    0    0 -0.81147865162E+02 -0.12586973584E+03  0.10670766821E+03  0.19935820243E+03  0.77000000000E+02 0.  0.
<mgrwt>
<rscale>  0 0.51146889E+03</rscale>
<asrwt>0</asrwt>
<pdfrwt beam="1">  1        2 0.17673194E+00 0.51146889E+03</pdfrwt>
<pdfrwt beam="2">  1       -2 0.75520928E-02 0.51146889E+03</pdfrwt>
<totfact> 0.22126260E+03</totfact>
</mgrwt>
</event>
<event>
 4    1  0.6919593E-004  0.3106989E+03  0.7818608E-02  0.1080011E+00
          2   -1    0    0  501    0  0.00000000000E+00  0.00000000000E+00  0.15050584789E+04  0.15050584789E+04  0.25500000000E-02 0.  1.
         -2   -1    0    0    0  501 -0.00000000000E+00 -0.00000000000E+00 -0.16034895392E+02  0.16034895594E+02  0.25500000000E-02 0. -1.
    5000001    1    1    2    0    0  0.12853243681E+03 -0.23182748098E+02  0.91027554594E+03  0.92281558107E+03  0.77000000000E+02 0.  0.
   -5000001    1    1    2    0    0 -0.12853243681E+03  0.23182748098E+02  0.57874803756E+03  0.59827779342E+03  0.77000000000E+02 0.  0.
<mgrwt>
<rscale>  0 0.31069892E+03</rscale>
<asrwt>0</asrwt>
<pdfrwt beam="1">  1        2 0.21500828E+00 0.31069892E+03</pdfrwt>
<pdfrwt beam="2">  1       -2 0.22907002E-02 0.31069892E+03</pdfrwt>
<totfact> 0.98372005E+03</totfact>
</mgrwt>
</event>
<event>
 4    1  0.6919593E-004  0.2836998E+03  0.7818608E-02  0.1093685E+00
          2   -1    0    0  501    0  0.00000000000E+00  0.00000000000E+00  0.75797429761E+03  0.75797429761E+03  0.25500000000E-02 0.  1.
         -2   -1    0    0    0  501 -0.00000000000E+00 -0.00000000000E+00 -0.26546269705E+02  0.26546269827E+02  0.25500000000E-02 0. -1.
    5000001    1    1    2    0    0  0.99252218161E+02 -0.56757078197E+02  0.27316782987E+03  0.30597717564E+03  0.77000000000E+02 0.  0.
   -5000001    1    1    2    0    0 -0.99252218161E+02  0.56757078197E+02  0.45826019803E+03  0.47854339180E+03  0.77000000000E+02 0.  0.
<mgrwt>
<rscale>  0 0.28369977E+03</rscale>
<asrwt>0</asrwt>
<pdfrwt beam="1">  1        2 0.10828204E+00 0.28369977E+03</pdfrwt>
<pdfrwt beam="2">  1       -2 0.37923242E-02 0.28369977E+03</pdfrwt>
<totfact> 0.12380265E+04</totfact>
</mgrwt>
</event>
<event>
 4    1  0.6919593E-004  0.1773073E+03  0.7818608E-02  0.1170435E+00
         -2   -1    0    0    0  501 -0.00000000000E+00  0.00000000000E+00  0.81085386454E+03  0.81085386454E+03  0.25500000000E-02 0. -1.
          2   -1    0    0  501    0  0.00000000000E+00 -0.00000000000E+00 -0.96928314231E+01  0.96928317586E+01  0.25500000000E-02 0.  1.
    5000001    1    1    2    0    0 -0.22655719665E+02  0.34886224040E+02  0.46605066025E+03  0.47419673995E+03  0.77000000000E+02 0.  0.
   -5000001    1    1    2    0    0  0.22655719665E+02 -0.34886224040E+02  0.33511037286E+03  0.34634995635E+03  0.77000000000E+02 0.  0.
<mgrwt>
<rscale>  0 0.17730730E+03</rscale>
<asrwt>0</asrwt>
<pdfrwt beam="1">  1        2 0.13846903E-02 0.17730730E+03</pdfrwt>
<pdfrwt beam="2">  1       -2 0.11583626E+00 0.17730730E+03</pdfrwt>
<totfact> 0.53479483E+03</totfact>
</mgrwt>
</event>
<event>
 4    1  0.6919593E-004  0.2478287E+03  0.7818608E-02  0.1114685E+00
         -2   -1    0    0    0  501 -0.00000000000E+00  0.00000000000E+00  0.19399674563E+03  0.19399674564E+03  0.25500000000E-02 0. -1.
          2   -1    0    0  501    0  0.00000000000E+00 -0.00000000000E+00 -0.79149588298E+02  0.79149588339E+02  0.25500000000E-02 0.  1.
    5000001    1    1    2    0    0 -0.85627808121E+02 -0.32591527184E+02  0.92820412785E+02  0.15145612631E+03  0.77000000000E+02 0.  0.
   -5000001    1    1    2    0    0  0.85627808121E+02  0.32591527184E+02  0.22026744544E+02  0.12169020767E+03  0.77000000000E+02 0.  0.
<mgrwt>
<rscale>  0 0.24782867E+03</rscale>
<asrwt>0</asrwt>
<pdfrwt beam="1">  1        2 0.11307084E-01 0.24782867E+03</pdfrwt>
<pdfrwt beam="2">  1       -2 0.27713821E-01 0.24782867E+03</pdfrwt>
<totfact> 0.64077349E+03</totfact>
</mgrwt>
</event>
<event>
 4    1  0.6919593E-004  0.1984268E+03  0.7818608E-02  0.1151073E+00
         -2   -1    0    0    0  501 -0.00000000000E+00  0.00000000000E+00  0.18070789428E+03  0.18070789429E+03  0.25500000000E-02 0. -1.
          2   -1    0    0  501    0  0.00000000000E+00 -0.00000000000E+00 -0.54470800599E+02  0.54470800659E+02  0.25500000000E-02 0.  1.
    5000001    1    1    2    0    0 -0.11862530827E+02  0.60828807929E+02  0.73275521862E+02  0.12304131670E+03  0.77000000000E+02 0.  0.
   -5000001    1    1    2    0    0  0.11862530827E+02 -0.60828807929E+02  0.52961571815E+02  0.11213737825E+03  0.77000000000E+02 0.  0.
<mgrwt>
<rscale>  0 0.19842685E+03</rscale>
<asrwt>0</asrwt>
<pdfrwt beam="1">  1        2 0.77815430E-02 0.19842685E+03</pdfrwt>
<pdfrwt beam="2">  1       -2 0.25815413E-01 0.19842685E+03</pdfrwt>
<totfact> 0.11430563E+04</totfact>
</mgrwt>
</event>
<event>
 4    1  0.6919593E-004  0.3466193E+03  0.7818608E-02  0.1064011E+00
         -2   -1    0    0    0  501 -0.00000000000E+00  0.00000000000E+00  0.13122833992E+02  0.13122834240E+02  0.25500000000E-02 0. -1.
          2   -1    0    0  501    0  0.00000000000E+00 -0.00000000000E+00 -0.22888521722E+04  0.22888521722E+04  0.25500000000E-02 0.  1.
    5000001    1    1    2    0    0  0.13686715372E+03  0.31152664178E+02 -0.69712966551E+03  0.71527748237E+03  0.77000000000E+02 0.  0.
   -5000001    1    1    2    0    0 -0.13686715372E+03 -0.31152664178E+02 -0.15785996727E+04  0.15866975241E+04  0.77000000000E+02 0.  0.
<mgrwt>
<rscale>  0 0.34661926E+03</rscale>
<asrwt>0</asrwt>
<pdfrwt beam="1">  1        2 0.32697863E+00 0.34661926E+03</pdfrwt>
<pdfrwt beam="2">  1       -2 0.18746920E-02 0.34661926E+03</pdfrwt>
<totfact> 0.54229771E+03</totfact>
</mgrwt>
</event>
<event>
 4    1  0.6919593E-004  0.3293576E+03  0.7818608E-02  0.1071421E+00
         -2   -1    0    0    0  501 -0.00000000000E+00  0.00000000000E+00  0.17227781680E+02  0.17227781869E+02  0.25500000000E-02 0. -1.
          2   -1    0    0  501    0  0.00000000000E+00 -0.00000000000E+00 -0.15741495765E+04  0.15741495765E+04  0.25500000000E-02 0.  1.
    5000001    1    1    2    0    0  0.14105084712E+03 -0.35928724422E+02 -0.78799144862E+03  0.80501288052E+03  0.77000000000E+02 0.  0.
   -5000001    1    1    2    0    0 -0.14105084712E+03  0.35928724422E+02 -0.76893034619E+03  0.78636447784E+03  0.77000000000E+02 0.  0.
<mgrwt>
<rscale>  0 0.32935759E+03</rscale>
<asrwt>0</asrwt>
<pdfrwt beam="1">  1        2 0.22487842E+00 0.32935759E+03</pdfrwt>
<pdfrwt beam="2">  1       -2 0.24611127E-02 0.32935759E+03</pdfrwt>
<totfact> 0.81684826E+03</totfact>
</mgrwt>
</event>
<event>
 4    1  0.6919593E-004  0.2234386E+03  0.7818608E-02  0.1131345E+00
          2   -1    0    0  501    0  0.00000000000E+00  0.00000000000E+00  0.15512683495E+03  0.15512683497E+03  0.25500000000E-02 0.  1.
         -2   -1    0    0    0  501 -0.00000000000E+00 -0.00000000000E+00 -0.80458057094E+02  0.80458057134E+02  0.25500000000E-02 0. -1.
    5000001    1    1    2    0    0  0.50699546102E+02 -0.63101134687E+02  0.37419893640E+02  0.11781954682E+03  0.77000000000E+02 0.  0.
   -5000001    1    1    2    0    0 -0.50699546102E+02  0.63101134687E+02  0.37248884216E+02  0.11776534528E+03  0.77000000000E+02 0.  0.
<mgrwt>
<rscale>  0 0.22343862E+03</rscale>
<asrwt>0</asrwt>
<pdfrwt beam="1">  1        2 0.22160976E-01 0.22343862E+03</pdfrwt>
<pdfrwt beam="2">  1       -2 0.11494008E-01 0.22343862E+03</pdfrwt>
<totfact> 0.12752512E+04</totfact>
</mgrwt>
</event>
<event>
 4    1  0.6919593E-004  0.2365954E+03  0.7818608E-02  0.1122082E+00
          2   -1    0    0  501    0  0.00000000000E+00  0.00000000000E+00  0.20367236142E+04  0.20367236142E+04  0.25500000000E-02 0.  1.
         -2   -1    0    0    0  501 -0.00000000000E+00 -0.00000000000E+00 -0.68710095665E+01  0.68710100397E+01  0.25500000000E-02 0. -1.
    5000001    1    1    2    0    0  0.68343723066E+02 -0.29181880864E+02  0.57936110461E+03  0.58916104435E+03  0.77000000000E+02 0.  0.
   -5000001    1    1    2    0    0 -0.68343723066E+02  0.29181880864E+02  0.14504915000E+04  0.14544335799E+04  0.77000000000E+02 0.  0.
<mgrwt>
<rscale>  0 0.23659542E+03</rscale>
<asrwt>0</asrwt>
<pdfrwt beam="1">  1        2 0.29096085E+00 0.23659542E+03</pdfrwt>
<pdfrwt beam="2">  1       -2 0.98157169E-03 0.23659542E+03</pdfrwt>
<totfact> 0.18472128E+04</totfact>
</mgrwt>
</event>
<event>
 4    1  0.6919593E-004  0.3670722E+03  0.7818608E-02  0.1055818E+00
         -2   -1    0    0    0  501 -0.00000000000E+00  0.00000000000E+00  0.31686749796E+02  0.31686749898E+02  0.25500000000E-02 0. -1.
          2   -1    0    0  501    0  0.00000000000E+00 -0.00000000000E+00 -0.10630786404E+04  0.10630786404E+04  0.25500000000E-02 0.  1.
    5000001    1    1    2    0    0  0.10700245738E+03 -0.77009924333E+02 -0.21189160548E+03  0.26116490347E+03  0.77000000000E+02 0.  0.
   -5000001    1    1    2    0    0 -0.10700245738E+03  0.77009924333E+02 -0.81950028509E+03  0.83360048680E+03  0.77000000000E+02 0.  0.
<mgrwt>
<rscale>  0 0.36707224E+03</rscale>
<asrwt>0</asrwt>
<pdfrwt beam="1">  1        2 0.15186836E+00 0.36707224E+03</pdfrwt>
<pdfrwt beam="2">  1       -2 0.45266792E-02 0.36707224E+03</pdfrwt>
<totfact> 0.61276112E+03</totfact>
</mgrwt>
</event>
<event>
 4    1  0.6919593E-004  0.3556406E+03  0.7818608E-02  0.1060323E+00
          2   -1    0    0  501    0  0.00000000000E+00  0.00000000000E+00  0.29907258365E+04  0.29907258365E+04  0.25500000000E-02 0.  1.
         -2   -1    0    0    0  501 -0.00000000000E+00 -0.00000000000E+00 -0.10572701424E+02  0.10572701732E+02  0.25500000000E-02 0. -1.
    5000001    1    1    2    0    0 -0.87648760874E+02  0.41699895489E+02  0.25665167226E+04  0.25695054532E+04  0.77000000000E+02 0.  0.
   -5000001    1    1    2    0    0  0.87648760874E+02 -0.41699895489E+02  0.41363641243E+03  0.43179308500E+03  0.77000000000E+02 0.  0.
<mgrwt>
<rscale>  0 0.35564056E+03</rscale>
<asrwt>0</asrwt>
<pdfrwt beam="1">  1        2 0.42724655E+00 0.35564056E+03</pdfrwt>
<pdfrwt beam="2">  1       -2 0.15103859E-02 0.35564056E+03</pdfrwt>
<totfact> 0.32603523E+03</totfact>
</mgrwt>
</event>
<event>
 4    1  0.6919593E-004  0.1943588E+03  0.7818608E-02  0.1154588E+00
         -2   -1    0    0    0  501 -0.00000000000E+00  0.00000000000E+00  0.44204797376E+02  0.44204797450E+02  0.25500000000E-02 0. -1.
          2   -1    0    0  501    0  0.00000000000E+00 -0.00000000000E+00 -0.21363814662E+03  0.21363814664E+03  0.25500000000E-02 0.  1.
    5000001    1    1    2    0    0  0.23012742779E+02  0.54467697067E+02 -0.79008348236E+02  0.12517042560E+03  0.77000000000E+02 0.  0.
   -5000001    1    1    2    0    0 -0.23012742779E+02 -0.54467697067E+02 -0.90425001012E+02  0.13267251849E+03  0.77000000000E+02 0.  0.
<mgrwt>
<rscale>  0 0.19435875E+03</rscale>
<asrwt>0</asrwt>
<pdfrwt beam="1">  1        2 0.30519735E-01 0.19435875E+03</pdfrwt>
<pdfrwt beam="2">  1       -2 0.63149712E-02 0.19435875E+03</pdfrwt>
<totfact> 0.22603841E+04</totfact>
</mgrwt>
</event>
<event>
 4    1  0.6919593E-004  0.3031426E+03  0.7818608E-02  0.1083680E+00
         -2   -1    0    0    0  501 -0.00000000000E+00  0.00000000000E+00  0.11154921437E+02  0.11154921729E+02  0.25500000000E-02 0. -1.
          2   -1    0    0  501    0  0.00000000000E+00 -0.00000000000E+00 -0.20595261647E+04  0.20595261647E+04  0.25500000000E-02 0.  1.
    5000001    1    1    2    0    0  0.75729633425E+02 -0.26294576499E+02 -0.32030778497E+03  0.33904639689E+03  0.77000000000E+02 0.  0.
   -5000001    1    1    2    0    0 -0.75729633425E+02  0.26294576499E+02 -0.17280634583E+04  0.17316346895E+04  0.77000000000E+02 0.  0.
<mgrwt>
<rscale>  0 0.30314256E+03</rscale>
<asrwt>0</asrwt>
<pdfrwt beam="1">  1        2 0.29421778E+00 0.30314256E+03</pdfrwt>
<pdfrwt beam="2">  1       -2 0.15935615E-02 0.30314256E+03</pdfrwt>
<totfact> 0.89326472E+03</totfact>
</mgrwt>
</event>
<event>
 4    1  0.6919593E-004  0.3114319E+03  0.7818608E-02  0.1079662E+00
          2   -1    0    0  501    0  0.00000000000E+00  0.00000000000E+00  0.88597148591E+03  0.88597148592E+03  0.25500000000E-02 0.  1.
         -2   -1    0    0    0  501 -0.00000000000E+00 -0.00000000000E+00 -0.27368220987E+02  0.27368221106E+02  0.25500000000E-02 0. -1.
    5000001    1    1    2    0    0  0.10226949362E+03  0.72063851929E+02  0.58073333382E+03  0.59902625410E+03  0.77000000000E+02 0.  0.
   -5000001    1    1    2    0    0 -0.10226949362E+03 -0.72063851929E+02  0.27786993110E+03  0.31431345293E+03  0.77000000000E+02 0.  0.
<mgrwt>
<rscale>  0 0.31143194E+03</rscale>
<asrwt>0</asrwt>
<pdfrwt beam="1">  1        2 0.12656734E+00 0.31143194E+03</pdfrwt>
<pdfrwt beam="2">  1       -2 0.39097463E-02 0.31143194E+03</pdfrwt>
<totfact> 0.97543774E+03</totfact>
</mgrwt>
</event>
<event>
 4    1  0.6919593E-004  0.2446084E+03  0.7818608E-02  0.1116760E+00
         -2   -1    0    0    0  501 -0.00000000000E+00  0.00000000000E+00  0.15428979784E+02  0.15428979995E+02  0.25500000000E-02 0. -1.
          2   -1    0    0  501    0  0.00000000000E+00 -0.00000000000E+00 -0.96949506637E+03  0.96949506637E+03  0.25500000000E-02 0.  1.
    5000001    1    1    2    0    0 -0.75601640052E+02 -0.19720156565E+02 -0.69479472059E+03  0.70340116314E+03  0.77000000000E+02 0.  0.
   -5000001    1    1    2    0    0  0.75601640052E+02  0.19720156565E+02 -0.25927136600E+03  0.28152288322E+03  0.77000000000E+02 0.  0.
<mgrwt>
<rscale>  0 0.24460842E+03</rscale>
<asrwt>0</asrwt>
<pdfrwt beam="1">  1        2 0.13849926E+00 0.24460842E+03</pdfrwt>
<pdfrwt beam="2">  1       -2 0.22041406E-02 0.24460842E+03</pdfrwt>
<totfact> 0.20142730E+04</totfact>
</mgrwt>
</event>
<event>
 4    1  0.6919593E-004  0.3431670E+03  0.7818608E-02  0.1065455E+00
          2   -1    0    0  501    0  0.00000000000E+00  0.00000000000E+00  0.11382084172E+04  0.11382084172E+04  0.25500000000E-02 0.  1.
         -2   -1    0    0    0  501 -0.00000000000E+00 -0.00000000000E+00 -0.25866005752E+02  0.25866005878E+02  0.25500000000E-02 0. -1.
    5000001    1    1    2    0    0 -0.15296042092E+03 -0.26802989372E+01  0.59139590810E+03  0.61569651168E+03  0.77000000000E+02 0.  0.
   -5000001    1    1    2    0    0  0.15296042092E+03  0.26802989372E+01  0.52094650333E+03  0.54837791139E+03  0.77000000000E+02 0.  0.
<mgrwt>
<rscale>  0 0.34316705E+03</rscale>
<asrwt>0</asrwt>
<pdfrwt beam="1">  1        2 0.16260122E+00 0.34316705E+03</pdfrwt>
<pdfrwt beam="2">  1       -2 0.36951434E-02 0.34316705E+03</pdfrwt>
<totfact> 0.75450224E+03</totfact>
</mgrwt>
</event>
<event>
 4    1  0.6919593E-004  0.3080322E+03  0.7818608E-02  0.1081293E+00
          2   -1    0    0  501    0  0.00000000000E+00  0.00000000000E+00  0.57730671285E+02  0.57730671341E+02  0.25500000000E-02 0.  1.
         -2   -1    0    0    0  501 -0.00000000000E+00 -0.00000000000E+00 -0.41089008646E+03  0.41089008647E+03  0.25500000000E-02 0. -1.
    5000001    1    1    2    0    0  0.11841277237E+03 -0.59063440281E+02 -0.20212212876E+03  0.25355951880E+03  0.77000000000E+02 0.  0.
   -5000001    1    1    2    0    0 -0.11841277237E+03  0.59063440281E+02 -0.15103728641E+03  0.21506123901E+03  0.77000000000E+02 0.  0.
<mgrwt>
<rscale>  0 0.30803221E+03</rscale>
<asrwt>0</asrwt>
<pdfrwt beam="1">  1        2 0.82472390E-02 0.30803221E+03</pdfrwt>
<pdfrwt beam="2">  1       -2 0.58698582E-01 0.30803221E+03</pdfrwt>
<totfact> 0.22679615E+03</totfact>
</mgrwt>
</event>
<event>
 4    1  0.6919593E-004  0.1874407E+03  0.7818608E-02  0.1160790E+00
         -2   -1    0    0    0  501 -0.00000000000E+00  0.00000000000E+00  0.11296623942E+02  0.11296624230E+02  0.25500000000E-02 0. -1.
          2   -1    0    0  501    0  0.00000000000E+00 -0.00000000000E+00 -0.77753333286E+03  0.77753333287E+03  0.25500000000E-02 0.  1.
    5000001    1    1    2    0    0 -0.44100055222E+02 -0.24189625821E+02 -0.45893413854E+03  0.46805928726E+03  0.77000000000E+02 0.  0.
   -5000001    1    1    2    0    0  0.44100055222E+02  0.24189625821E+02 -0.30730257038E+03  0.32077066984E+03  0.77000000000E+02 0.  0.
<mgrwt>
<rscale>  0 0.18744068E+03</rscale>
<asrwt>0</asrwt>
<pdfrwt beam="1">  1        2 0.11107616E+00 0.18744068E+03</pdfrwt>
<pdfrwt beam="2">  1       -2 0.16138039E-02 0.18744068E+03</pdfrwt>
<totfact> 0.41298416E+04</totfact>
</mgrwt>
</event>
<event>
 4    1  0.6919593E-004  0.3008802E+03  0.7818608E-02  0.1084801E+00
          2   -1    0    0  501    0  0.00000000000E+00  0.00000000000E+00  0.17097850384E+03  0.17097850386E+03  0.25500000000E-02 0.  1.
         -2   -1    0    0    0  501 -0.00000000000E+00 -0.00000000000E+00 -0.13236880479E+03  0.13236880482E+03  0.25500000000E-02 0. -1.
    5000001    1    1    2    0    0 -0.12411018762E+03 -0.35792240917E+02  0.14933745602E+02  0.15111730522E+03  0.77000000000E+02 0.  0.
   -5000001    1    1    2    0    0  0.12411018762E+03  0.35792240917E+02  0.23675953447E+02  0.15223000345E+03  0.77000000000E+02 0.  0.
<mgrwt>
<rscale>  0 0.30088018E+03</rscale>
<asrwt>0</asrwt>
<pdfrwt beam="1">  1        2 0.24425501E-01 0.30088018E+03</pdfrwt>
<pdfrwt beam="2">  1       -2 0.18909829E-01 0.30088018E+03</pdfrwt>
<totfact> 0.50984954E+03</totfact>
</mgrwt>
</event>
<event>
 4    1  0.6919593E-004  0.2498190E+03  0.7818608E-02  0.1113419E+00
          2   -1    0    0  501    0  0.00000000000E+00  0.00000000000E+00  0.13709094430E+02  0.13709094667E+02  0.25500000000E-02 0.  1.
         -2   -1    0    0    0  501 -0.00000000000E+00 -0.00000000000E+00 -0.11381044721E+04  0.11381044721E+04  0.25500000000E-02 0. -1.
    5000001    1    1    2    0    0  0.45736778156E+02  0.74175407476E+02 -0.35194567722E+03  0.37065968713E+03  0.77000000000E+02 0.  0.
   -5000001    1    1    2    0    0 -0.45736778156E+02 -0.74175407476E+02 -0.77244970046E+03  0.78115387965E+03  0.77000000000E+02 0.  0.
<mgrwt>
<rscale>  0 0.24981899E+03</rscale>
<asrwt>0</asrwt>
<pdfrwt beam="1">  1        2 0.19584428E-02 0.24981899E+03</pdfrwt>
<pdfrwt beam="2">  1       -2 0.16258629E+00 0.24981899E+03</pdfrwt>
<totfact> 0.14419015E+03</totfact>
</mgrwt>
</event>
<event>
 4    1  0.6919593E-004  0.1851615E+03  0.7818608E-02  0.1162899E+00
         -2   -1    0    0    0  501 -0.00000000000E+00  0.00000000000E+00  0.29455398960E+02  0.29455399070E+02  0.25500000000E-02 0. -1.
          2   -1    0    0  501    0  0.00000000000E+00 -0.00000000000E+00 -0.29098907830E+03  0.29098907831E+03  0.25500000000E-02 0.  1.
    5000001    1    1    2    0    0 -0.22469094671E+01 -0.51352714515E+02 -0.13115197053E+03  0.16053656675E+03  0.77000000000E+02 0.  0.
   -5000001    1    1    2    0    0  0.22469094671E+01  0.51352714515E+02 -0.13038170881E+03  0.15990791063E+03  0.77000000000E+02 0.  0.
<mgrwt>
<rscale>  0 0.18516154E+03</rscale>
<asrwt>0</asrwt>
<pdfrwt beam="1">  1        2 0.41569867E-01 0.18516154E+03</pdfrwt>
<pdfrwt beam="2">  1       -2 0.42079143E-02 0.18516154E+03</pdfrwt>
<totfact> 0.29820502E+04</totfact>
</mgrwt>
</event>
<event>
 4    1  0.6919593E-004  0.2466328E+03  0.7818608E-02  0.1115451E+00
         -2   -1    0    0    0  501 -0.00000000000E+00  0.00000000000E+00  0.61486956630E+02  0.61486956683E+02  0.25500000000E-02 0. -1.
          2   -1    0    0  501    0  0.00000000000E+00 -0.00000000000E+00 -0.24731974250E+03  0.24731974251E+03  0.25500000000E-02 0.  1.
    5000001    1    1    2    0    0 -0.12735605254E+02  0.60224396933E+02 -0.15374632323E+00  0.98580917347E+02  0.77000000000E+02 0.  0.
   -5000001    1    1    2    0    0  0.12735605254E+02 -0.60224396933E+02 -0.18567903954E+03  0.21022578185E+03  0.77000000000E+02 0.  0.
<mgrwt>
<rscale>  0 0.24663283E+03</rscale>
<asrwt>0</asrwt>
<pdfrwt beam="1">  1        2 0.35331391E-01 0.24663283E+03</pdfrwt>
<pdfrwt beam="2">  1       -2 0.87838510E-02 0.24663283E+03</pdfrwt>
<totfact> 0.11746433E+04</totfact>
</mgrwt>
</event>
<event>
 4    1  0.6919593E-004  0.3378764E+03  0.7818608E-02  0.1067704E+00
         -2   -1    0    0    0  501 -0.00000000000E+00  0.00000000000E+00  0.18457728755E+02  0.18457728931E+02  0.25500000000E-02 0. -1.
          2   -1    0    0  501    0  0.00000000000E+00 -0.00000000000E+00 -0.15462417733E+04  0.15462417733E+04  0.25500000000E-02 0.  1.
    5000001    1    1    2    0    0  0.65819331953E+02  0.10922016389E+03 -0.11329171753E+04  0.11426686111E+04  0.77000000000E+02 0.  0.
   -5000001    1    1    2    0    0 -0.65819331953E+02 -0.10922016389E+03 -0.39486686926E+03  0.42203089117E+03  0.77000000000E+02 0.  0.
<mgrwt>
<rscale>  0 0.33787638E+03</rscale>
<asrwt>0</asrwt>
<pdfrwt beam="1">  1        2 0.22089160E+00 0.33787638E+03</pdfrwt>
<pdfrwt beam="2">  1       -2 0.26368194E-02 0.33787638E+03</pdfrwt>
<totfact> 0.76170143E+03</totfact>
</mgrwt>
</event>
<event>
 4    1  0.6919593E-004  0.4142092E+03  0.7818608E-02  0.1038968E+00
         -2   -1    0    0    0  501 -0.00000000000E+00  0.00000000000E+00  0.32262831174E+03  0.32262831175E+03  0.25500000000E-02 0. -1.
          2   -1    0    0  501    0  0.00000000000E+00 -0.00000000000E+00 -0.13294655400E+03  0.13294655403E+03  0.25500000000E-02 0.  1.
    5000001    1    1    2    0    0 -0.17849513650E+03  0.63653381317E+02  0.59183220541E+02  0.21294111933E+03  0.77000000000E+02 0.  0.
   -5000001    1    1    2    0    0  0.17849513650E+03 -0.63653381317E+02  0.13049853720E+03  0.24263374645E+03  0.77000000000E+02 0.  0.
<mgrwt>
<rscale>  0 0.41420923E+03</rscale>
<asrwt>0</asrwt>
<pdfrwt beam="1">  1        2 0.18992365E-01 0.41420923E+03</pdfrwt>
<pdfrwt beam="2">  1       -2 0.46089758E-01 0.41420923E+03</pdfrwt>
<totfact> 0.13432720E+03</totfact>
</mgrwt>
</event>
<event>
 4    1  0.6919593E-004  0.2201876E+03  0.7818608E-02  0.1133743E+00
         -2   -1    0    0    0  501 -0.00000000000E+00  0.00000000000E+00  0.95378902778E+01  0.95378906187E+01  0.25500000000E-02 0. -1.
          2   -1    0    0  501    0  0.00000000000E+00 -0.00000000000E+00 -0.12707883297E+04  0.12707883297E+04  0.25500000000E-02 0.  1.
    5000001    1    1    2    0    0 -0.74891227037E+02 -0.18667079728E+02 -0.54158533476E+03  0.55244984441E+03  0.77000000000E+02 0.  0.
   -5000001    1    1    2    0    0  0.74891227037E+02  0.18667079728E+02 -0.71966510464E+03  0.72787637590E+03  0.77000000000E+02 0.  0.
<mgrwt>
<rscale>  0 0.22018756E+03</rscale>
<asrwt>0</asrwt>
<pdfrwt beam="1">  1        2 0.18154108E+00 0.22018756E+03</pdfrwt>
<pdfrwt beam="2">  1       -2 0.13625566E-02 0.22018756E+03</pdfrwt>
<totfact> 0.27472274E+04</totfact>
</mgrwt>
</event>
<event>
 4    1  0.6919593E-004  0.2478144E+03  0.7818608E-02  0.1114694E+00
          2   -1    0    0  501    0  0.00000000000E+00  0.00000000000E+00  0.25614998101E+04  0.25614998101E+04  0.25500000000E-02 0.  1.
         -2   -1    0    0    0  501 -0.00000000000E+00 -0.00000000000E+00 -0.59937527360E+01  0.59937532784E+01  0.25500000000E-02 0. -1.
    5000001    1    1    2    0    0 -0.20037849912E+02 -0.90769129557E+02  0.98775999772E+03  0.99510771447E+03  0.77000000000E+02 0.  0.
   -5000001    1    1    2    0    0  0.20037849912E+02  0.90769129557E+02  0.15677460596E+04  0.15723858489E+04  0.77000000000E+02 0.  0.
<mgrwt>
<rscale>  0 0.24781442E+03</rscale>
<asrwt>0</asrwt>
<pdfrwt beam="1">  1        2 0.36592819E+00 0.24781442E+03</pdfrwt>
<pdfrwt beam="2">  1       -2 0.85625127E-03 0.24781442E+03</pdfrwt>
<totfact> 0.12455708E+04</totfact>
</mgrwt>
</event>
<event>
 4    1  0.6919593E-004  0.5104237E+03  0.7818608E-02  0.1011093E+00
         -2   -1    0    0    0  501 -0.00000000000E+00  0.00000000000E+00  0.12392502029E+04  0.12392502029E+04  0.25500000000E-02 0. -1.
          2   -1    0    0  501    0  0.00000000000E+00 -0.00000000000E+00 -0.52558463018E+02  0.52558463080E+02  0.25500000000E-02 0.  1.
    5000001    1    1    2    0    0 -0.20018034188E+03  0.13638012793E+03  0.65174107517E+03  0.69954780940E+03  0.77000000000E+02 0.  0.
   -5000001    1    1    2    0    0  0.20018034188E+03 -0.13638012793E+03  0.53495066476E+03  0.59226085663E+03  0.77000000000E+02 0.  0.
<mgrwt>
<rscale>  0 0.51042369E+03</rscale>
<asrwt>0</asrwt>
<pdfrwt beam="1">  1        2 0.75083513E-02 0.51042369E+03</pdfrwt>
<pdfrwt beam="2">  1       -2 0.17703576E+00 0.51042369E+03</pdfrwt>
<totfact> 0.18710659E+02</totfact>
</mgrwt>
</event>
<event>
 4    1  0.6919593E-004  0.1889721E+03  0.7818608E-02  0.1159392E+00
          2   -1    0    0  501    0  0.00000000000E+00  0.00000000000E+00  0.22397780348E+04  0.22397780348E+04  0.25500000000E-02 0.  1.
         -2   -1    0    0    0  501 -0.00000000000E+00 -0.00000000000E+00 -0.39859345916E+01  0.39859354073E+01  0.25500000000E-02 0. -1.
    5000001    1    1    2    0    0 -0.41004646994E+00  0.44228636046E+02  0.73456893035E+03  0.73991678844E+03  0.77000000000E+02 0.  0.
   -5000001    1    1    2    0    0  0.41004646994E+00 -0.44228636046E+02  0.15012231699E+04  0.15038471818E+04  0.77000000000E+02 0.  0.
<mgrwt>
<rscale>  0 0.18897206E+03</rscale>
<asrwt>0</asrwt>
<pdfrwt beam="1">  1        2 0.31996759E+00 0.18897206E+03</pdfrwt>
<pdfrwt beam="2">  1       -2 0.56942054E-03 0.18897206E+03</pdfrwt>
<totfact> 0.31939352E+04</totfact>
</mgrwt>
</event>
<event>
 4    1  0.6919593E-004  0.2654401E+03  0.7818608E-02  0.1103918E+00
          2   -1    0    0  501    0  0.00000000000E+00  0.00000000000E+00  0.19341785413E+04  0.19341785413E+04  0.25500000000E-02 0.  1.
         -2   -1    0    0    0  501 -0.00000000000E+00 -0.00000000000E+00 -0.91070216481E+01  0.91070220051E+01  0.25500000000E-02 0. -1.
    5000001    1    1    2    0    0  0.93252171781E+00 -0.10479110583E+03  0.76834840000E+03  0.77927550278E+03  0.77000000000E+02 0.  0.
   -5000001    1    1    2    0    0 -0.93252171781E+00  0.10479110583E+03  0.11567231196E+04  0.11640100605E+04  0.77000000000E+02 0.  0.
<mgrwt>
<rscale>  0 0.26544006E+03</rscale>
<asrwt>0</asrwt>
<pdfrwt beam="1">  1        2 0.27631137E+00 0.26544006E+03</pdfrwt>
<pdfrwt beam="2">  1       -2 0.13010024E-02 0.26544006E+03</pdfrwt>
<totfact> 0.13805829E+04</totfact>
</mgrwt>
</event>
<event>
 4    1  0.6919593E-004  0.3660137E+03  0.7818608E-02  0.1056228E+00
          2   -1    0    0  501    0  0.00000000000E+00  0.00000000000E+00  0.22021334188E+03  0.22021334189E+03  0.25500000000E-02 0.  1.
         -2   -1    0    0    0  501 -0.00000000000E+00 -0.00000000000E+00 -0.15208664637E+03  0.15208664639E+03  0.25500000000E-02 0. -1.
    5000001    1    1    2    0    0 -0.66669964443E+02 -0.14941680417E+03  0.54331127779E+01  0.18091098430E+03  0.77000000000E+02 0.  0.
   -5000001    1    1    2    0    0  0.66669964443E+02  0.14941680417E+03  0.62693582734E+02  0.19138900398E+03  0.77000000000E+02 0.  0.
<mgrwt>
<rscale>  0 0.36601371E+03</rscale>
<asrwt>0</asrwt>
<pdfrwt beam="1">  1        2 0.31459049E-01 0.36601371E+03</pdfrwt>
<pdfrwt beam="2">  1       -2 0.21726664E-01 0.36601371E+03</pdfrwt>
<totfact> 0.30451543E+03</totfact>
</mgrwt>
</event>
<event>
 4    1  0.6919593E-004  0.2202359E+03  0.7818608E-02  0.1133707E+00
         -2   -1    0    0    0  501 -0.00000000000E+00  0.00000000000E+00  0.10839945553E+02  0.10839945853E+02  0.25500000000E-02 0. -1.
          2   -1    0    0  501    0  0.00000000000E+00 -0.00000000000E+00 -0.11186365195E+04  0.11186365195E+04  0.25500000000E-02 0.  1.
    5000001    1    1    2    0    0 -0.56692396652E+01 -0.57603816037E+02 -0.82752206186E+03  0.83310989837E+03  0.77000000000E+02 0.  0.
   -5000001    1    1    2    0    0  0.56692396652E+01  0.57603816037E+02 -0.28027451211E+03  0.29636656700E+03  0.77000000000E+02 0.  0.
<mgrwt>
<rscale>  0 0.22023587E+03</rscale>
<asrwt>0</asrwt>
<pdfrwt beam="1">  1        2 0.15980514E+00 0.22023587E+03</pdfrwt>
<pdfrwt beam="2">  1       -2 0.15485644E-02 0.22023587E+03</pdfrwt>
<totfact> 0.27556909E+04</totfact>
</mgrwt>
</event>
<event>
 4    1  0.6919593E-004  0.2958048E+03  0.7818608E-02  0.1087357E+00
         -2   -1    0    0    0  501 -0.00000000000E+00  0.00000000000E+00  0.28709873631E+03  0.28709873632E+03  0.25500000000E-02 0. -1.
          2   -1    0    0  501    0  0.00000000000E+00 -0.00000000000E+00 -0.76193716594E+02  0.76193716636E+02  0.25500000000E-02 0.  1.
    5000001    1    1    2    0    0 -0.91837000166E+02 -0.63379127218E+02  0.17806066449E+03  0.22379800849E+03  0.77000000000E+02 0.  0.
   -5000001    1    1    2    0    0  0.91837000166E+02  0.63379127218E+02  0.32844355227E+02  0.13949444447E+03  0.77000000000E+02 0.  0.
<mgrwt>
<rscale>  0 0.29580480E+03</rscale>
<asrwt>0</asrwt>
<pdfrwt beam="1">  1        2 0.10884817E-01 0.29580480E+03</pdfrwt>
<pdfrwt beam="2">  1       -2 0.41014105E-01 0.29580480E+03</pdfrwt>
<totfact> 0.32686198E+03</totfact>
</mgrwt>
</event>
<event>
 4    1  0.6919593E-004  0.2471401E+03  0.7818608E-02  0.1115126E+00
         -2   -1    0    0    0  501 -0.00000000000E+00  0.00000000000E+00  0.19681095947E+02  0.19681096112E+02  0.25500000000E-02 0. -1.
          2   -1    0    0  501    0  0.00000000000E+00 -0.00000000000E+00 -0.77584869635E+03  0.77584869635E+03  0.25500000000E-02 0.  1.
    5000001    1    1    2    0    0  0.59244590335E+02 -0.64710896478E+02 -0.50856543891E+03  0.52179040549E+03  0.77000000000E+02 0.  0.
   -5000001    1    1    2    0    0 -0.59244590335E+02  0.64710896478E+02 -0.24760216149E+03  0.27373938698E+03  0.77000000000E+02 0.  0.
<mgrwt>
<rscale>  0 0.24714006E+03</rscale>
<asrwt>0</asrwt>
<pdfrwt beam="1">  1        2 0.11083551E+00 0.24714006E+03</pdfrwt>
<pdfrwt beam="2">  1       -2 0.28115856E-02 0.24714006E+03</pdfrwt>
<totfact> 0.18686894E+04</totfact>
</mgrwt>
</event>
<event>
 4    1  0.6919593E-004  0.4808707E+03  0.7818608E-02  0.1018896E+00
          2   -1    0    0  501    0  0.00000000000E+00  0.00000000000E+00  0.52239962227E+03  0.52239962228E+03  0.25500000000E-02 0.  1.
         -2   -1    0    0    0  501 -0.00000000000E+00 -0.00000000000E+00 -0.11066078799E+03  0.11066078801E+03  0.25500000000E-02 0. -1.
    5000001    1    1    2    0    0  0.68204100079E+02 -0.12001231258E+03  0.44438780346E+03  0.47166118592E+03  0.77000000000E+02 0.  0.
   -5000001    1    1    2    0    0 -0.68204100079E+02  0.12001231258E+03 -0.32648969178E+02  0.16139922437E+03  0.77000000000E+02 0.  0.
<mgrwt>
<rscale>  0 0.48087068E+03</rscale>
<asrwt>0</asrwt>
<pdfrwt beam="1">  1        2 0.74628516E-01 0.48087068E+03</pdfrwt>
<pdfrwt beam="2">  1       -2 0.15808684E-01 0.48087068E+03</pdfrwt>
<totfact> 0.20343113E+03</totfact>
</mgrwt>
</event>
<event>
 4    1  0.6919593E-004  0.2133484E+03  0.7818608E-02  0.1138942E+00
          2   -1    0    0  501    0  0.00000000000E+00  0.00000000000E+00  0.25495018358E+02  0.25495018485E+02  0.25500000000E-02 0.  1.
         -2   -1    0    0    0  501 -0.00000000000E+00 -0.00000000000E+00 -0.44633750445E+03  0.44633750445E+03  0.25500000000E-02 0. -1.
    5000001    1    1    2    0    0 -0.51185506551E+02  0.38438831997E+02 -0.12907665875E+03  0.16336243056E+03  0.77000000000E+02 0.  0.
   -5000001    1    1    2    0    0  0.51185506551E+02 -0.38438831997E+02 -0.29176582734E+03  0.30847009237E+03  0.77000000000E+02 0.  0.
<mgrwt>
<rscale>  0 0.21334838E+03</rscale>
<asrwt>0</asrwt>
<pdfrwt beam="1">  1        2 0.36421458E-02 0.21334838E+03</pdfrwt>
<pdfrwt beam="2">  1       -2 0.63762496E-01 0.21334838E+03</pdfrwt>
<totfact> 0.54886466E+03</totfact>
</mgrwt>
</event>
<event>
 4    1  0.6919593E-004  0.3452614E+03  0.7818608E-02  0.1064577E+00
         -2   -1    0    0    0  501 -0.00000000000E+00  0.00000000000E+00  0.16654737497E+04  0.16654737497E+04  0.25500000000E-02 0. -1.
          2   -1    0    0  501    0  0.00000000000E+00 -0.00000000000E+00 -0.17893623840E+02  0.17893624022E+02  0.25500000000E-02 0.  1.
    5000001    1    1    2    0    0  0.72121478672E+02 -0.10862568861E+03  0.41963248311E+03  0.44611822289E+03  0.77000000000E+02 0.  0.
   -5000001    1    1    2    0    0 -0.72121478672E+02  0.10862568861E+03  0.12279476428E+04  0.12372491509E+04  0.77000000000E+02 0.  0.
<mgrwt>
<rscale>  0 0.34526141E+03</rscale>
<asrwt>0</asrwt>
<pdfrwt beam="1">  1        2 0.25562332E-02 0.34526141E+03</pdfrwt>
<pdfrwt beam="2">  1       -2 0.23792471E+00 0.34526141E+03</pdfrwt>
<totfact> 0.33015429E+02</totfact>
</mgrwt>
</event>
<event>
 4    1  0.6919593E-004  0.2191815E+03  0.7818608E-02  0.1134495E+00
         -2   -1    0    0    0  501 -0.00000000000E+00  0.00000000000E+00  0.10137781487E+02  0.10137781807E+02  0.25500000000E-02 0. -1.
          2   -1    0    0  501    0  0.00000000000E+00 -0.00000000000E+00 -0.11846906639E+04  0.11846906639E+04  0.25500000000E-02 0.  1.
    5000001    1    1    2    0    0 -0.12994088624E+02  0.76722773945E+02 -0.61502193789E+03  0.62468889414E+03  0.77000000000E+02 0.  0.
   -5000001    1    1    2    0    0  0.12994088624E+02 -0.76722773945E+02 -0.55953094453E+03  0.57013955157E+03  0.77000000000E+02 0.  0.
<mgrwt>
<rscale>  0 0.21918153E+03</rscale>
<asrwt>0</asrwt>
<pdfrwt beam="1">  1        2 0.16924144E+00 0.21918153E+03</pdfrwt>
<pdfrwt beam="2">  1       -2 0.14482553E-02 0.21918153E+03</pdfrwt>
<totfact> 0.27940764E+04</totfact>
</mgrwt>
</event>
<event>
 4    1  0.6919593E-004  0.2500544E+03  0.7818608E-02  0.1113270E+00
         -2   -1    0    0    0  501 -0.00000000000E+00  0.00000000000E+00  0.24524248877E+02  0.24524249010E+02  0.25500000000E-02 0. -1.
          2   -1    0    0  501    0  0.00000000000E+00 -0.00000000000E+00 -0.63740193044E+03  0.63740193045E+03  0.25500000000E-02 0.  1.
    5000001    1    1    2    0    0  0.32908276841E+02 -0.89275016925E+02 -0.37391830896E+03  0.39344235297E+03  0.77000000000E+02 0.  0.
   -5000001    1    1    2    0    0 -0.32908276841E+02  0.89275016925E+02 -0.23895937260E+03  0.26848382649E+03  0.77000000000E+02 0.  0.
<mgrwt>
<rscale>  0 0.25005442E+03</rscale>
<asrwt>0</asrwt>
<pdfrwt beam="1">  1        2 0.91057409E-01 0.25005442E+03</pdfrwt>
<pdfrwt beam="2">  1       -2 0.35034645E-02 0.25005442E+03</pdfrwt>
<totfact> 0.17016831E+04</totfact>
</mgrwt>
</event>
<event>
 4    1  0.6919593E-004  0.2407807E+03  0.7818608E-02  0.1119274E+00
          2   -1    0    0  501    0  0.00000000000E+00  0.00000000000E+00  0.46492047837E+03  0.46492047837E+03  0.25500000000E-02 0.  1.
         -2   -1    0    0    0  501 -0.00000000000E+00 -0.00000000000E+00 -0.31174882811E+02  0.31174882915E+02  0.25500000000E-02 0. -1.
    5000001    1    1    2    0    0 -0.67386538895E+02 -0.43723102667E+02  0.31156397376E+03  0.33083797406E+03  0.77000000000E+02 0.  0.
   -5000001    1    1    2    0    0  0.67386538895E+02  0.43723102667E+02  0.12218162179E+03  0.16525738723E+03  0.77000000000E+02 0.  0.
<mgrwt>
<rscale>  0 0.24078074E+03</rscale>
<asrwt>0</asrwt>
<pdfrwt beam="1">  1        2 0.66417208E-01 0.24078074E+03</pdfrwt>
<pdfrwt beam="2">  1       -2 0.44535549E-02 0.24078074E+03</pdfrwt>
<totfact> 0.16866804E+04</totfact>
</mgrwt>
</event>
<event>
 4    1  0.6919593E-004  0.3555241E+03  0.7818608E-02  0.1060370E+00
         -2   -1    0    0    0  501 -0.00000000000E+00  0.00000000000E+00  0.20119954229E+02  0.20119954391E+02  0.25500000000E-02 0. -1.
          2   -1    0    0  501    0  0.00000000000E+00 -0.00000000000E+00 -0.15705473205E+04  0.15705473205E+04  0.25500000000E-02 0.  1.
    5000001    1    1    2    0    0 -0.25564529573E+02 -0.15773695792E+03 -0.72306590651E+03  0.74450506931E+03  0.77000000000E+02 0.  0.
   -5000001    1    1    2    0    0  0.25564529573E+02  0.15773695792E+03 -0.82736145978E+03  0.84616220560E+03  0.77000000000E+02 0.  0.
<mgrwt>
<rscale>  0 0.35552407E+03</rscale>
<asrwt>0</asrwt>
<pdfrwt beam="1">  1        2 0.22436382E+00 0.35552407E+03</pdfrwt>
<pdfrwt beam="2">  1       -2 0.28742802E-02 0.35552407E+03</pdfrwt>
<totfact> 0.65131562E+03</totfact>
</mgrwt>
</event>
<event>
 4    1  0.6919593E-004  0.4267382E+03  0.7818608E-02  0.1034895E+00
         -2   -1    0    0    0  501 -0.00000000000E+00  0.00000000000E+00  0.72581589690E+02  0.72581589734E+02  0.25500000000E-02 0. -1.
          2   -1    0    0  501    0  0.00000000000E+00 -0.00000000000E+00 -0.62724406377E+03  0.62724406378E+03  0.25500000000E-02 0.  1.
    5000001    1    1    2    0    0 -0.70922705246E+02  0.18136604610E+03 -0.21023982120E+03  0.29673802456E+03  0.77000000000E+02 0.  0.
   -5000001    1    1    2    0    0  0.70922705246E+02 -0.18136604610E+03 -0.34442265288E+03  0.40308762895E+03  0.77000000000E+02 0.  0.
<mgrwt>
<rscale>  0 0.42673819E+03</rscale>
<asrwt>0</asrwt>
<pdfrwt beam="1">  1        2 0.89606292E-01 0.42673819E+03</pdfrwt>
<pdfrwt beam="2">  1       -2 0.10368799E-01 0.42673819E+03</pdfrwt>
<totfact> 0.32948379E+03</totfact>
</mgrwt>
</event>
<event>
 4    1  0.6919593E-004  0.2491200E+03  0.7818608E-02  0.1113862E+00
         -2   -1    0    0    0  501 -0.00000000000E+00  0.00000000000E+00  0.47641335510E+01  0.47641342335E+01  0.25500000000E-02 0. -1.
          2   -1    0    0  501    0  0.00000000000E+00 -0.00000000000E+00 -0.32566668929E+04  0.32566668929E+04  0.25500000000E-02 0.  1.
    5000001    1    1    2    0    0  0.67908943853E+02  0.62256588988E+02 -0.20598987489E+04  0.20633951060E+04  0.77000000000E+02 0.  0.
   -5000001    1    1    2    0    0 -0.67908943853E+02 -0.62256588988E+02 -0.11920040104E+04  0.11980359211E+04  0.77000000000E+02 0.  0.
<mgrwt>
<rscale>  0 0.24912003E+03</rscale>
<asrwt>0</asrwt>
<pdfrwt beam="1">  1        2 0.46523670E+00 0.24912003E+03</pdfrwt>
<pdfrwt beam="2">  1       -2 0.68059264E-03 0.24912003E+03</pdfrwt>
<totfact> 0.75139203E+03</totfact>
</mgrwt>
</event>
<event>
 4    1  0.6919593E-004  0.5400355E+03  0.7818608E-02  0.1003827E+00
         -2   -1    0    0    0  501 -0.00000000000E+00  0.00000000000E+00  0.16847890983E+04  0.16847890983E+04  0.25500000000E-02 0. -1.
          2   -1    0    0  501    0  0.00000000000E+00 -0.00000000000E+00 -0.43275201697E+02  0.43275201772E+02  0.25500000000E-02 0.  1.
    5000001    1    1    2    0    0  0.23585983707E+03 -0.41331902098E+02  0.11349742789E+04  0.11625118506E+04  0.77000000000E+02 0.  0.
   -5000001    1    1    2    0    0 -0.23585983707E+03  0.41331902098E+02  0.50653961769E+03  0.56555244953E+03  0.77000000000E+02 0.  0.
<mgrwt>
<rscale>  0 0.54003551E+03</rscale>
<asrwt>0</asrwt>
<pdfrwt beam="1">  1        2 0.61821719E-02 0.54003551E+03</pdfrwt>
<pdfrwt beam="2">  1       -2 0.24068415E+00 0.54003551E+03</pdfrwt>
<totfact> 0.94914585E+01</totfact>
</mgrwt>
</event>
<event>
 4    1  0.6919593E-004  0.2214990E+03  0.7818608E-02  0.1132770E+00
          2   -1    0    0  501    0  0.00000000000E+00  0.00000000000E+00  0.64802226019E+03  0.64802226019E+03  0.25500000000E-02 0.  1.
         -2   -1    0    0    0  501 -0.00000000000E+00 -0.00000000000E+00 -0.18927512253E+02  0.18927512425E+02  0.25500000000E-02 0. -1.
    5000001    1    1    2    0    0 -0.53481363201E+02 -0.38759152129E+02  0.44832587102E+03  0.45966032536E+03  0.77000000000E+02 0.  0.
   -5000001    1    1    2    0    0  0.53481363201E+02  0.38759152129E+02  0.18076887691E+03  0.20728944726E+03  0.77000000000E+02 0.  0.
<mgrwt>
<rscale>  0 0.22149898E+03</rscale>
<asrwt>0</asrwt>
<pdfrwt beam="1">  1        2 0.92574594E-01 0.22149898E+03</pdfrwt>
<pdfrwt beam="2">  1       -2 0.27039308E-02 0.22149898E+03</pdfrwt>
<totfact> 0.24355709E+04</totfact>
</mgrwt>
</event>
<event>
 4    1  0.6919593E-004  0.2342290E+03  0.7818608E-02  0.1123698E+00
         -2   -1    0    0    0  501 -0.00000000000E+00  0.00000000000E+00  0.10529916281E+02  0.10529916590E+02  0.25500000000E-02 0. -1.
          2   -1    0    0  501    0  0.00000000000E+00 -0.00000000000E+00 -0.13025564107E+04  0.13025564107E+04  0.25500000000E-02 0.  1.
    5000001    1    1    2    0    0 -0.74738335521E+02 -0.20997224880E+02 -0.88120505931E+03  0.88796287017E+03  0.77000000000E+02 0.  0.
   -5000001    1    1    2    0    0  0.74738335521E+02  0.20997224880E+02 -0.41082143508E+03  0.42512345709E+03  0.77000000000E+02 0.  0.
<mgrwt>
<rscale>  0 0.23422903E+03</rscale>
<asrwt>0</asrwt>
<pdfrwt beam="1">  1        2 0.18607938E+00 0.23422903E+03</pdfrwt>
<pdfrwt beam="2">  1       -2 0.15042746E-02 0.23422903E+03</pdfrwt>
<totfact> 0.22968089E+04</totfact>
</mgrwt>
</event>
<event>
 4    1  0.6919593E-004  0.3254901E+03  0.7818608E-02  0.1073150E+00
          2   -1    0    0  501    0  0.00000000000E+00  0.00000000000E+00  0.15745839963E+03  0.15745839965E+03  0.25500000000E-02 0.  1.
         -2   -1    0    0    0  501 -0.00000000000E+00 -0.00000000000E+00 -0.16820919530E+03  0.16820919532E+03  0.25500000000E-02 0. -1.
    5000001    1    1    2    0    0  0.11498786716E+03  0.84266391306E+02  0.99272684801E+01  0.16232863258E+03  0.77000000000E+02 0.  0.
   -5000001    1    1    2    0    0 -0.11498786716E+03 -0.84266391306E+02 -0.20678064147E+02  0.16333896239E+03  0.77000000000E+02 0.  0.
<mgrwt>
<rscale>  0 0.32549010E+03</rscale>
<asrwt>0</asrwt>
<pdfrwt beam="1">  1        2 0.22494057E-01 0.32549010E+03</pdfrwt>
<pdfrwt beam="2">  1       -2 0.24029885E-01 0.32549010E+03</pdfrwt>
<totfact> 0.37047671E+03</totfact>
</mgrwt>
</event>
<event>
 4    1  0.6919593E-004  0.1634417E+04  0.7818608E-02  0.8799679E-01
         -2   -1    0    0    0  501 -0.00000000000E+00  0.00000000000E+00  0.16038190454E+04  0.16038190454E+04  0.25500000000E-02 0. -1.
          2   -1    0    0  501    0  0.00000000000E+00 -0.00000000000E+00 -0.41639944035E+03  0.41639944035E+03  0.25500000000E-02 0.  1.
    5000001    1    1    2    0    0 -0.71429195518E+03 -0.32670180249E+03  0.85577920857E+03  0.11641452310E+04  0.77000000000E+02 0.  0.
   -5000001    1    1    2    0    0  0.71429195518E+03  0.32670180249E+03  0.33164039649E+03  0.85607325479E+03  0.77000000000E+02 0.  0.
<mgrwt>
<rscale>  0 0.16344165E+04</rscale>
<asrwt>0</asrwt>
<pdfrwt beam="1">  1        2 0.59485634E-01 0.16344165E+04</pdfrwt>
<pdfrwt beam="2">  1       -2 0.22911701E+00 0.16344165E+04</pdfrwt>
<totfact> 0.68590129E+00</totfact>
</mgrwt>
</event>
<event>
 4    1  0.6919593E-004  0.3835337E+03  0.7818608E-02  0.1049635E+00
         -2   -1    0    0    0  501 -0.00000000000E+00  0.00000000000E+00  0.28856585288E+03  0.28856585290E+03  0.25500000000E-02 0. -1.
          2   -1    0    0  501    0  0.00000000000E+00 -0.00000000000E+00 -0.12743895002E+03  0.12743895004E+03  0.25500000000E-02 0.  1.
    5000001    1    1    2    0    0  0.55387042665E+02  0.16262731068E+03  0.12012262040E+03  0.22332445143E+03  0.77000000000E+02 0.  0.
   -5000001    1    1    2    0    0 -0.55387042665E+02 -0.16262731068E+03  0.41004282464E+02  0.19268035151E+03  0.77000000000E+02 0.  0.
<mgrwt>
<rscale>  0 0.38353372E+03</rscale>
<asrwt>0</asrwt>
<pdfrwt beam="1">  1        2 0.18205564E-01 0.38353372E+03</pdfrwt>
<pdfrwt beam="2">  1       -2 0.41223694E-01 0.38353372E+03</pdfrwt>
<totfact> 0.17540744E+03</totfact>
</mgrwt>
</event>
<event>
 4    1  0.6919593E-004  0.2468800E+03  0.7818608E-02  0.1115293E+00
          2   -1    0    0  501    0  0.00000000000E+00  0.00000000000E+00  0.11498031749E+04  0.11498031749E+04  0.25500000000E-02 0.  1.
         -2   -1    0    0    0  501 -0.00000000000E+00 -0.00000000000E+00 -0.13252207310E+02  0.13252207555E+02  0.25500000000E-02 0. -1.
    5000001    1    1    2    0    0 -0.17724769222E+02 -0.86677664791E+02  0.38696287426E+03  0.40434694394E+03  0.77000000000E+02 0.  0.
   -5000001    1    1    2    0    0  0.17724769222E+02  0.86677664791E+02  0.74958809335E+03  0.75870843854E+03  0.77000000000E+02 0.  0.
<mgrwt>
<rscale>  0 0.24687997E+03</rscale>
<asrwt>0</asrwt>
<pdfrwt beam="1">  1        2 0.16425763E+00 0.24687997E+03</pdfrwt>
<pdfrwt beam="2">  1       -2 0.18931721E-02 0.24687997E+03</pdfrwt>
<totfact> 0.19867839E+04</totfact>
</mgrwt>
</event>
<event>
 4    1  0.6919593E-004  0.2587628E+03  0.7818608E-02  0.1107889E+00
         -2   -1    0    0    0  501 -0.00000000000E+00  0.00000000000E+00  0.99689888932E+01  0.99689892194E+01  0.25500000000E-02 0. -1.
          2   -1    0    0  501    0  0.00000000000E+00 -0.00000000000E+00 -0.16791621019E+04  0.16791621019E+04  0.25500000000E-02 0.  1.
    5000001    1    1    2    0    0 -0.16665880286E+02 -0.96985837315E+02 -0.61549995146E+03  0.62805508871E+03  0.77000000000E+02 0.  0.
   -5000001    1    1    2    0    0  0.16665880286E+02  0.96985837315E+02 -0.10536931615E+04  0.10610760024E+04  0.77000000000E+02 0.  0.
<mgrwt>
<rscale>  0 0.25876282E+03</rscale>
<asrwt>0</asrwt>
<pdfrwt beam="1">  1        2 0.23988012E+00 0.25876282E+03</pdfrwt>
<pdfrwt beam="2">  1       -2 0.14241424E-02 0.25876282E+03</pdfrwt>
<totfact> 0.16115721E+04</totfact>
</mgrwt>
</event>
<event>
 4    1  0.6919593E-004  0.4474423E+03  0.7818608E-02  0.1028488E+00
          2   -1    0    0  501    0  0.00000000000E+00  0.00000000000E+00  0.62816622558E+03  0.62816622559E+03  0.25500000000E-02 0.  1.
         -2   -1    0    0    0  501 -0.00000000000E+00 -0.00000000000E+00 -0.79678187054E+02  0.79678187095E+02  0.25500000000E-02 0. -1.
    5000001    1    1    2    0    0  0.19331690275E+03 -0.46798748663E+02  0.16740947322E+03  0.27113922528E+03  0.77000000000E+02 0.  0.
   -5000001    1    1    2    0    0 -0.19331690275E+03  0.46798748663E+02  0.38107856531E+03  0.43670518740E+03  0.77000000000E+02 0.  0.
<mgrwt>
<rscale>  0 0.44744227E+03</rscale>
<asrwt>0</asrwt>
<pdfrwt beam="1">  1        2 0.89738033E-01 0.44744227E+03</pdfrwt>
<pdfrwt beam="2">  1       -2 0.11382598E-01 0.44744227E+03</pdfrwt>
<totfact> 0.28294105E+03</totfact>
</mgrwt>
</event>
<event>
 4    1  0.6919593E-004  0.4091438E+03  0.7818608E-02  0.1040659E+00
         -2   -1    0    0    0  501 -0.00000000000E+00  0.00000000000E+00  0.50396465969E+02  0.50396466033E+02  0.25500000000E-02 0. -1.
          2   -1    0    0  501    0  0.00000000000E+00 -0.00000000000E+00 -0.83040860784E+03  0.83040860784E+03  0.25500000000E-02 0.  1.
    5000001    1    1    2    0    0  0.82487652456E+01 -0.55378944380E+02 -0.77981041337E+03  0.78560050306E+03  0.77000000000E+02 0.  0.
   -5000001    1    1    2    0    0 -0.82487652456E+01  0.55378944380E+02 -0.20172849491E+00  0.95204570810E+02  0.77000000000E+02 0.  0.
<mgrwt>
<rscale>  0 0.40914378E+03</rscale>
<asrwt>0</asrwt>
<pdfrwt beam="1">  1        2 0.11862979E+00 0.40914378E+03</pdfrwt>
<pdfrwt beam="2">  1       -2 0.71994957E-02 0.40914378E+03</pdfrwt>
<totfact> 0.41748210E+03</totfact>
</mgrwt>
</event>
<event>
 4    1  0.6919593E-004  0.2437848E+03  0.7818608E-02  0.1117297E+00
         -2   -1    0    0    0  501 -0.00000000000E+00  0.00000000000E+00  0.26065767916E+02  0.26065768041E+02  0.25500000000E-02 0. -1.
          2   -1    0    0  501    0  0.00000000000E+00 -0.00000000000E+00 -0.57001040871E+03  0.57001040872E+03  0.25500000000E-02 0.  1.
    5000001    1    1    2    0    0  0.77157196322E+02 -0.54319588180E+02 -0.25976926641E+03  0.28690228716E+03  0.77000000000E+02 0.  0.
   -5000001    1    1    2    0    0 -0.77157196322E+02  0.54319588180E+02 -0.28417537438E+03  0.30917388960E+03  0.77000000000E+02 0.  0.
<mgrwt>
<rscale>  0 0.24378482E+03</rscale>
<asrwt>0</asrwt>
<pdfrwt beam="1">  1        2 0.81430050E-01 0.24378482E+03</pdfrwt>
<pdfrwt beam="2">  1       -2 0.37236815E-02 0.24378482E+03</pdfrwt>
<totfact> 0.17620939E+04</totfact>
</mgrwt>
</event>
<event>
 4    1  0.6919593E-004  0.3400975E+03  0.7818608E-02  0.1066754E+00
          2   -1    0    0  501    0  0.00000000000E+00  0.00000000000E+00  0.27450264516E+03  0.27450264517E+03  0.25500000000E-02 0.  1.
         -2   -1    0    0    0  501 -0.00000000000E+00 -0.00000000000E+00 -0.10534170363E+03  0.10534170366E+03  0.25500000000E-02 0. -1.
    5000001    1    1    2    0    0  0.41559990526E+02  0.13940624128E+03  0.13230938616E+03  0.21117790270E+03  0.77000000000E+02 0.  0.
   -5000001    1    1    2    0    0 -0.41559990526E+02 -0.13940624128E+03  0.36851555368E+02  0.16866644614E+03  0.77000000000E+02 0.  0.
<mgrwt>
<rscale>  0 0.34009749E+03</rscale>
<asrwt>0</asrwt>
<pdfrwt beam="1">  1        2 0.39214663E-01 0.34009749E+03</pdfrwt>
<pdfrwt beam="2">  1       -2 0.15048815E-01 0.34009749E+03</pdfrwt>
<totfact> 0.44578547E+03</totfact>
</mgrwt>
</event>
<event>
 4    1  0.6919593E-004  0.2982646E+03  0.7818608E-02  0.1086111E+00
          2   -1    0    0  501    0  0.00000000000E+00  0.00000000000E+00  0.71474420352E+03  0.71474420352E+03  0.25500000000E-02 0.  1.
         -2   -1    0    0    0  501 -0.00000000000E+00 -0.00000000000E+00 -0.31116642258E+02  0.31116642362E+02  0.25500000000E-02 0. -1.
    5000001    1    1    2    0    0  0.50127457096E+02  0.11036750081E+03  0.24123552021E+03  0.28074423129E+03  0.77000000000E+02 0.  0.
   -5000001    1    1    2    0    0 -0.50127457096E+02 -0.11036750081E+03  0.44239204105E+03  0.46511661459E+03  0.77000000000E+02 0.  0.
<mgrwt>
<rscale>  0 0.29826458E+03</rscale>
<asrwt>0</asrwt>
<pdfrwt beam="1">  1        2 0.10210632E+00 0.29826458E+03</pdfrwt>
<pdfrwt beam="2">  1       -2 0.44452345E-02 0.29826458E+03</pdfrwt>
<totfact> 0.10477611E+04</totfact>
</mgrwt>
</event>
<event>
 4    1  0.6919593E-004  0.1888981E+03  0.7818608E-02  0.1159459E+00
          2   -1    0    0  501    0  0.00000000000E+00  0.00000000000E+00  0.21294249161E+03  0.21294249163E+03  0.25500000000E-02 0.  1.
         -2   -1    0    0    0  501 -0.00000000000E+00 -0.00000000000E+00 -0.41892180435E+02  0.41892180513E+02  0.25500000000E-02 0. -1.
    5000001    1    1    2    0    0 -0.23103858370E+02 -0.40596978388E+02  0.12391346091E+03  0.15318436186E+03  0.77000000000E+02 0.  0.
   -5000001    1    1    2    0    0  0.23103858370E+02  0.40596978388E+02  0.47136850268E+02  0.10165031028E+03  0.77000000000E+02 0.  0.
<mgrwt>
<rscale>  0 0.18889812E+03</rscale>
<asrwt>0</asrwt>
<pdfrwt beam="1">  1        2 0.30420356E-01 0.18889812E+03</pdfrwt>
<pdfrwt beam="2">  1       -2 0.59845972E-02 0.18889812E+03</pdfrwt>
<totfact> 0.24566901E+04</totfact>
</mgrwt>
</event>
<event>
 4    1  0.6919593E-004  0.4664881E+03  0.7818608E-02  0.1022916E+00
          2   -1    0    0  501    0  0.00000000000E+00  0.00000000000E+00  0.54043339335E+03  0.54043339336E+03  0.25500000000E-02 0.  1.
         -2   -1    0    0    0  501 -0.00000000000E+00 -0.00000000000E+00 -0.10066509099E+03  0.10066509102E+03  0.25500000000E-02 0. -1.
    5000001    1    1    2    0    0  0.14535497574E+03 -0.16249330531E+03  0.17771205699E+03  0.29162084707E+03  0.77000000000E+02 0.  0.
   -5000001    1    1    2    0    0 -0.14535497574E+03  0.16249330531E+03  0.26205624537E+03  0.34947763731E+03  0.77000000000E+02 0.  0.
<mgrwt>
<rscale>  0 0.46648806E+03</rscale>
<asrwt>0</asrwt>
<pdfrwt beam="1">  1        2 0.77204772E-01 0.46648806E+03</pdfrwt>
<pdfrwt beam="2">  1       -2 0.14380727E-01 0.46648806E+03</pdfrwt>
<totfact> 0.22929765E+03</totfact>
</mgrwt>
</event>
<event>
 4    1  0.6919593E-004  0.1830221E+03  0.7818608E-02  0.1164910E+00
         -2   -1    0    0    0  501 -0.00000000000E+00  0.00000000000E+00  0.89280815572E+03  0.89280815573E+03  0.25500000000E-02 0. -1.
          2   -1    0    0  501    0  0.00000000000E+00 -0.00000000000E+00 -0.93797036120E+01  0.93797039587E+01  0.25500000000E-02 0.  1.
    5000001    1    1    2    0    0  0.48418018358E+02 -0.97598381199E+01  0.42992782508E+03  0.43955260631E+03  0.77000000000E+02 0.  0.
   -5000001    1    1    2    0    0 -0.48418018358E+02  0.97598381199E+01  0.45350062704E+03  0.46263525337E+03  0.77000000000E+02 0.  0.
<mgrwt>
<rscale>  0 0.18302214E+03</rscale>
<asrwt>0</asrwt>
<pdfrwt beam="1">  1        2 0.13399572E-02 0.18302214E+03</pdfrwt>
<pdfrwt beam="2">  1       -2 0.12754407E+00 0.18302214E+03</pdfrwt>
<totfact> 0.44439467E+03</totfact>
</mgrwt>
</event>
<event>
 4    1  0.6919593E-004  0.3056526E+03  0.7818608E-02  0.1082449E+00
         -2   -1    0    0    0  501 -0.00000000000E+00  0.00000000000E+00  0.23444755275E+02  0.23444755413E+02  0.25500000000E-02 0. -1.
          2   -1    0    0  501    0  0.00000000000E+00 -0.00000000000E+00 -0.99620901789E+03  0.99620901789E+03  0.25500000000E-02 0.  1.
    5000001    1    1    2    0    0 -0.36691642474E+02 -0.12486430268E+03 -0.56019016793E+03  0.58024080773E+03  0.77000000000E+02 0.  0.
   -5000001    1    1    2    0    0  0.36691642474E+02  0.12486430268E+03 -0.41257409468E+03  0.43941296557E+03  0.77000000000E+02 0.  0.
<mgrwt>
<rscale>  0 0.30565259E+03</rscale>
<asrwt>0</asrwt>
<pdfrwt beam="1">  1        2 0.14231555E+00 0.30565259E+03</pdfrwt>
<pdfrwt beam="2">  1       -2 0.33492514E-02 0.30565259E+03</pdfrwt>
<totfact> 0.10528498E+04</totfact>
</mgrwt>
</event>
<event>
 4    1  0.6919593E-004  0.2964508E+03  0.7818608E-02  0.1087028E+00
          2   -1    0    0  501    0  0.00000000000E+00  0.00000000000E+00  0.81933859075E+02  0.81933859115E+02  0.25500000000E-02 0.  1.
         -2   -1    0    0    0  501 -0.00000000000E+00 -0.00000000000E+00 -0.26815242439E+03  0.26815242440E+03  0.25500000000E-02 0. -1.
    5000001    1    1    2    0    0 -0.10706934210E+02  0.12613408718E+03 -0.88195075479E+02  0.17242916728E+03  0.77000000000E+02 0.  0.
   -5000001    1    1    2    0    0  0.10706934210E+02 -0.12613408718E+03 -0.98023489834E+02  0.17765711624E+03  0.77000000000E+02 0.  0.
<mgrwt>
<rscale>  0 0.29645076E+03</rscale>
<asrwt>0</asrwt>
<pdfrwt beam="1">  1        2 0.11704837E-01 0.29645076E+03</pdfrwt>
<pdfrwt beam="2">  1       -2 0.38307489E-01 0.29645076E+03</pdfrwt>
<totfact> 0.34061364E+03</totfact>
</mgrwt>
</event>
<event>
 4    1  0.6919593E-004  0.3771219E+03  0.7818608E-02  0.1052003E+00
         -2   -1    0    0    0  501 -0.00000000000E+00  0.00000000000E+00  0.14829935086E+03  0.14829935088E+03  0.25500000000E-02 0. -1.
          2   -1    0    0  501    0  0.00000000000E+00 -0.00000000000E+00 -0.23975313842E+03  0.23975313843E+03  0.25500000000E-02 0.  1.
    5000001    1    1    2    0    0  0.68485829637E+01  0.13636625673E+03  0.62113279524E+02  0.16861114600E+03  0.77000000000E+02 0.  0.
   -5000001    1    1    2    0    0 -0.68485829637E+01 -0.13636625673E+03 -0.15356706708E+03  0.21944134331E+03  0.77000000000E+02 0.  0.
<mgrwt>
<rscale>  0 0.37712192E+03</rscale>
<asrwt>0</asrwt>
<pdfrwt beam="1">  1        2 0.34250448E-01 0.37712192E+03</pdfrwt>
<pdfrwt beam="2">  1       -2 0.21185622E-01 0.37712192E+03</pdfrwt>
<totfact> 0.28990685E+03</totfact>
</mgrwt>
</event>
<event>
 4    1  0.6919593E-004  0.2024523E+03  0.7818608E-02  0.1147686E+00
          2   -1    0    0  501    0  0.00000000000E+00  0.00000000000E+00  0.22702853432E+03  0.22702853433E+03  0.25500000000E-02 0.  1.
         -2   -1    0    0    0  501 -0.00000000000E+00 -0.00000000000E+00 -0.45134122943E+02  0.45134123015E+02  0.25500000000E-02 0. -1.
    5000001    1    1    2    0    0 -0.56390133725E+02 -0.33230342575E+02  0.83151142840E+02  0.13087098764E+03  0.77000000000E+02 0.  0.
   -5000001    1    1    2    0    0  0.56390133725E+02  0.33230342575E+02  0.98743268537E+02  0.14129166971E+03  0.77000000000E+02 0.  0.
<mgrwt>
<rscale>  0 0.20245230E+03</rscale>
<asrwt>0</asrwt>
<pdfrwt beam="1">  1        2 0.32432649E-01 0.20245230E+03</pdfrwt>
<pdfrwt beam="2">  1       -2 0.64477317E-02 0.20245230E+03</pdfrwt>
<totfact> 0.20558477E+04</totfact>
</mgrwt>
</event>
<event>
 4    1  0.6919593E-004  0.3200840E+03  0.7818608E-02  0.1075611E+00
         -2   -1    0    0    0  501 -0.00000000000E+00  0.00000000000E+00  0.27753960738E+03  0.27753960739E+03  0.25500000000E-02 0. -1.
          2   -1    0    0  501    0  0.00000000000E+00 -0.00000000000E+00 -0.92287514100E+02  0.92287514135E+02  0.25500000000E-02 0.  1.
    5000001    1    1    2    0    0 -0.30336350613E+02  0.12118001521E+03  0.18828666774E+02  0.14794731815E+03  0.77000000000E+02 0.  0.
   -5000001    1    1    2    0    0  0.30336350613E+02 -0.12118001521E+03  0.16642342651E+03  0.22187980337E+03  0.77000000000E+02 0.  0.
<mgrwt>
<rscale>  0 0.32008399E+03</rscale>
<asrwt>0</asrwt>
<pdfrwt beam="1">  1        2 0.13183930E-01 0.32008399E+03</pdfrwt>
<pdfrwt beam="2">  1       -2 0.39648516E-01 0.32008399E+03</pdfrwt>
<totfact> 0.27657691E+03</totfact>
</mgrwt>
</event>
<event>
 4    1  0.6919593E-004  0.2926658E+03  0.7818608E-02  0.1088965E+00
          2   -1    0    0  501    0  0.00000000000E+00  0.00000000000E+00  0.60326003919E+03  0.60326003919E+03  0.25500000000E-02 0.  1.
         -2   -1    0    0    0  501 -0.00000000000E+00 -0.00000000000E+00 -0.35495993219E+02  0.35495993311E+02  0.25500000000E-02 0. -1.
    5000001    1    1    2    0    0  0.68398087157E+02  0.93559556003E+02  0.18499986689E+03  0.23148572223E+03  0.77000000000E+02 0.  0.
   -5000001    1    1    2    0    0 -0.68398087157E+02 -0.93559556003E+02  0.38276417908E+03  0.40727031028E+03  0.77000000000E+02 0.  0.
<mgrwt>
<rscale>  0 0.29266578E+03</rscale>
<asrwt>0</asrwt>
<pdfrwt beam="1">  1        2 0.86180006E-01 0.29266578E+03</pdfrwt>
<pdfrwt beam="2">  1       -2 0.50708562E-02 0.29266578E+03</pdfrwt>
<totfact> 0.10454663E+04</totfact>
</mgrwt>
</event>
<event>
 4    1  0.6919593E-004  0.2227916E+03  0.7818608E-02  0.1131819E+00
          2   -1    0    0  501    0  0.00000000000E+00  0.00000000000E+00  0.12505727917E+03  0.12505727919E+03  0.25500000000E-02 0.  1.
         -2   -1    0    0    0  501 -0.00000000000E+00 -0.00000000000E+00 -0.99226703913E+02  0.99226703946E+02  0.25500000000E-02 0. -1.
    5000001    1    1    2    0    0 -0.59357292175E+02 -0.17250581015E+02 -0.38997098178E+02  0.10616329095E+03  0.77000000000E+02 0.  0.
   -5000001    1    1    2    0    0  0.59357292175E+02  0.17250581015E+02  0.64827673429E+02  0.11812069218E+03  0.77000000000E+02 0.  0.
<mgrwt>
<rscale>  0 0.22279158E+03</rscale>
<asrwt>0</asrwt>
<pdfrwt beam="1">  1        2 0.17865326E-01 0.22279158E+03</pdfrwt>
<pdfrwt beam="2">  1       -2 0.14175243E-01 0.22279158E+03</pdfrwt>
<totfact> 0.11611532E+04</totfact>
</mgrwt>
</event>
<event>
 4    1  0.6919593E-004  0.3429558E+03  0.7818608E-02  0.1065544E+00
         -2   -1    0    0    0  501 -0.00000000000E+00  0.00000000000E+00  0.49962438998E+02  0.49962439063E+02  0.25500000000E-02 0. -1.
          2   -1    0    0  501    0  0.00000000000E+00 -0.00000000000E+00 -0.58853541847E+03  0.58853541848E+03  0.25500000000E-02 0.  1.
    5000001    1    1    2    0    0  0.10350766580E+03  0.10496533856E+03 -0.19153517479E+03  0.25366569015E+03  0.77000000000E+02 0.  0.
   -5000001    1    1    2    0    0 -0.10350766580E+03 -0.10496533856E+03 -0.34703780468E+03  0.38483216739E+03  0.77000000000E+02 0.  0.
<mgrwt>
<rscale>  0 0.34295577E+03</rscale>
<asrwt>0</asrwt>
<pdfrwt beam="1">  1        2 0.84076484E-01 0.34295577E+03</pdfrwt>
<pdfrwt beam="2">  1       -2 0.71374916E-02 0.34295577E+03</pdfrwt>
<totfact> 0.63841696E+03</totfact>
</mgrwt>
</event>
<event>
 4    1  0.6919593E-004  0.4243713E+03  0.7818608E-02  0.1035653E+00
         -2   -1    0    0    0  501 -0.00000000000E+00  0.00000000000E+00  0.10155120338E+03  0.10155120341E+03  0.25500000000E-02 0. -1.
          2   -1    0    0  501    0  0.00000000000E+00 -0.00000000000E+00 -0.44335017854E+03  0.44335017855E+03  0.25500000000E-02 0.  1.
    5000001    1    1    2    0    0  0.16323520345E+03  0.11135300087E+03 -0.17984365619E+03  0.27806107804E+03  0.77000000000E+02 0.  0.
   -5000001    1    1    2    0    0 -0.16323520345E+03 -0.11135300087E+03 -0.16195531898E+03  0.26684030392E+03  0.77000000000E+02 0.  0.
<mgrwt>
<rscale>  0 0.42437127E+03</rscale>
<asrwt>0</asrwt>
<pdfrwt beam="1">  1        2 0.63335739E-01 0.42437127E+03</pdfrwt>
<pdfrwt beam="2">  1       -2 0.14507315E-01 0.42437127E+03</pdfrwt>
<totfact> 0.28200499E+03</totfact>
</mgrwt>
</event>
<event>
 4    1  0.6919593E-004  0.5949356E+03  0.7818608E-02  0.9915969E-01
         -2   -1    0    0    0  501 -0.00000000000E+00  0.00000000000E+00  0.67872631945E+02  0.67872631993E+02  0.25500000000E-02 0. -1.
          2   -1    0    0  501    0  0.00000000000E+00 -0.00000000000E+00 -0.13037225410E+04  0.13037225410E+04  0.25500000000E-02 0.  1.
    5000001    1    1    2    0    0  0.24699562100E+03  0.14653067362E+03 -0.63854620028E+03  0.70437797027E+03  0.77000000000E+02 0.  0.
   -5000001    1    1    2    0    0 -0.24699562100E+03 -0.14653067362E+03 -0.59730370882E+03  0.66721720277E+03  0.77000000000E+02 0.  0.
<mgrwt>
<rscale>  0 0.59493556E+03</rscale>
<asrwt>0</asrwt>
<pdfrwt beam="1">  1        2 0.18624606E+00 0.59493556E+03</pdfrwt>
<pdfrwt beam="2">  1       -2 0.96960911E-02 0.59493556E+03</pdfrwt>
<totfact> 0.13621097E+03</totfact>
</mgrwt>
</event>
<event>
 4    1  0.6919593E-004  0.2897929E+03  0.7818608E-02  0.1090457E+00
         -2   -1    0    0    0  501 -0.00000000000E+00  0.00000000000E+00  0.17139734838E+02  0.17139735027E+02  0.25500000000E-02 0.  1.
          2   -1    0    0  501    0  0.00000000000E+00 -0.00000000000E+00 -0.12249302165E+04  0.12249302165E+04  0.25500000000E-02 0. -1.
    5000001    1    1    2    0    0  0.75925195021E+02 -0.90500544988E+02 -0.46103398803E+03  0.48211650252E+03  0.77000000000E+02 0.  0.
   -5000001    1    1    2    0    0 -0.75925195021E+02  0.90500544988E+02 -0.74675649365E+03  0.75995344903E+03  0.77000000000E+02 0.  0.
<mgrwt>
<rscale>  0 0.28979289E+03</rscale>
<asrwt>0</asrwt>
<pdfrwt beam="1">  1        2 0.17498998E+00 0.28979289E+03</pdfrwt>
<pdfrwt beam="2">  1       -2 0.24485343E-02 0.28979289E+03</pdfrwt>
<totfact> 0.12453264E+04</totfact>
</mgrwt>
</event>
<event>
 4    1  0.6919593E-004  0.2341062E+03  0.7818608E-02  0.1123783E+00
         -2   -1    0    0    0  501 -0.00000000000E+00  0.00000000000E+00  0.22155342629E+03  0.22155342630E+03  0.25500000000E-02 0. -1.
          2   -1    0    0  501    0  0.00000000000E+00 -0.00000000000E+00 -0.61842529704E+02  0.61842529756E+02  0.25500000000E-02 0.  1.
    5000001    1    1    2    0    0  0.58985025440E+02 -0.64529779319E+02  0.66101045231E+02  0.13394653346E+03  0.77000000000E+02 0.  0.
   -5000001    1    1    2    0    0 -0.58985025440E+02  0.64529779319E+02  0.93609851353E+02  0.14944942260E+03  0.77000000000E+02 0.  0.
<mgrwt>
<rscale>  0 0.23410617E+03</rscale>
<asrwt>0</asrwt>
<pdfrwt beam="1">  1        2 0.88346472E-02 0.23410617E+03</pdfrwt>
<pdfrwt beam="2">  1       -2 0.31650489E-01 0.23410617E+03</pdfrwt>
<totfact> 0.68233864E+03</totfact>
</mgrwt>
</event>
<event>
 4    1  0.6919593E-004  0.3553327E+03  0.7818608E-02  0.1060447E+00
         -2   -1    0    0    0  501 -0.00000000000E+00  0.00000000000E+00  0.19254689365E+02  0.19254689533E+02  0.25500000000E-02 0. -1.
          2   -1    0    0  501    0  0.00000000000E+00 -0.00000000000E+00 -0.16393581058E+04  0.16393581058E+04  0.25500000000E-02 0.  1.
    5000001    1    1    2    0    0 -0.11324366921E+03 -0.10798846455E+03 -0.96839139817E+03  0.98396978467E+03  0.77000000000E+02 0.  0.
   -5000001    1    1    2    0    0  0.11324366921E+03  0.10798846455E+03 -0.65171201830E+03  0.67464301070E+03  0.77000000000E+02 0.  0.
<mgrwt>
<rscale>  0 0.35533270E+03</rscale>
<asrwt>0</asrwt>
<pdfrwt beam="1">  1        2 0.23419393E+00 0.35533270E+03</pdfrwt>
<pdfrwt beam="2">  1       -2 0.27506710E-02 0.35533270E+03</pdfrwt>
<totfact> 0.64228580E+03</totfact>
</mgrwt>
</event>
<event>
 4    1  0.6919593E-004  0.3841079E+03  0.7818608E-02  0.1049426E+00
         -2   -1    0    0    0  501 -0.00000000000E+00  0.00000000000E+00  0.16998519010E+02  0.16998519201E+02  0.25500000000E-02 0. -1.
          2   -1    0    0  501    0  0.00000000000E+00 -0.00000000000E+00 -0.21698784593E+04  0.21698784593E+04  0.25500000000E-02 0.  1.
    5000001    1    1    2    0    0 -0.94173070264E+02 -0.11168585410E+03 -0.16346660742E+04  0.16429864489E+04  0.77000000000E+02 0.  0.
   -5000001    1    1    2    0    0  0.94173070264E+02  0.11168585410E+03 -0.51821386610E+03  0.54389052960E+03  0.77000000000E+02 0.  0.
<mgrwt>
<rscale>  0 0.38410790E+03</rscale>
<asrwt>0</asrwt>
<pdfrwt beam="1">  1        2 0.30998246E+00 0.38410790E+03</pdfrwt>
<pdfrwt beam="2">  1       -2 0.24283612E-02 0.38410790E+03</pdfrwt>
<totfact> 0.42253406E+03</totfact>
</mgrwt>
</event>
<event>
 4    1  0.6919593E-004  0.7579253E+03  0.7818608E-02  0.9622998E-01
          2   -1    0    0  501    0  0.00000000000E+00  0.00000000000E+00  0.76380800115E+03  0.76380800116E+03  0.25500000000E-02 0.  1.
         -2   -1    0    0    0  501 -0.00000000000E+00 -0.00000000000E+00 -0.18802196063E+03  0.18802196065E+03  0.25500000000E-02 0. -1.
    5000001    1    1    2    0    0  0.31335680399E+03 -0.18830387457E+03  0.36764447194E+03  0.52415865302E+03  0.77000000000E+02 0.  0.
   -5000001    1    1    2    0    0 -0.31335680399E+03  0.18830387457E+03  0.20814156858E+03  0.42767130879E+03  0.77000000000E+02 0.  0.
<mgrwt>
<rscale>  0 0.75792527E+03</rscale>
<asrwt>0</asrwt>
<pdfrwt beam="1">  1        2 0.10911543E+00 0.75792527E+03</pdfrwt>
<pdfrwt beam="2">  1       -2 0.26860281E-01 0.75792527E+03</pdfrwt>
<totfact> 0.50896546E+02</totfact>
</mgrwt>
</event>
<event>
 4    1  0.6919593E-004  0.2685664E+03  0.7818608E-02  0.1102103E+00
         -2   -1    0    0    0  501 -0.00000000000E+00  0.00000000000E+00  0.30852332554E+02  0.30852332659E+02  0.25500000000E-02 0. -1.
          2   -1    0    0  501    0  0.00000000000E+00 -0.00000000000E+00 -0.58446097378E+03  0.58446097379E+03  0.25500000000E-02 0.  1.
    5000001    1    1    2    0    0 -0.10009816845E+03 -0.22559312734E+02 -0.18589579069E+03  0.22586458535E+03  0.77000000000E+02 0.  0.
   -5000001    1    1    2    0    0  0.10009816845E+03  0.22559312734E+02 -0.36771285054E+03  0.38944872110E+03  0.77000000000E+02 0.  0.
<mgrwt>
<rscale>  0 0.26856645E+03</rscale>
<asrwt>0</asrwt>
<pdfrwt beam="1">  1        2 0.83494418E-01 0.26856645E+03</pdfrwt>
<pdfrwt beam="2">  1       -2 0.44074764E-02 0.26856645E+03</pdfrwt>
<totfact> 0.13359400E+04</totfact>
</mgrwt>
</event>
<event>
 4    1  0.6919593E-004  0.1995896E+03  0.7818608E-02  0.1150086E+00
          2   -1    0    0  501    0  0.00000000000E+00  0.00000000000E+00  0.10378598504E+03  0.10378598507E+03  0.25500000000E-02 0.  1.
         -2   -1    0    0    0  501 -0.00000000000E+00 -0.00000000000E+00 -0.95957082399E+02  0.95957082433E+02  0.25500000000E-02 0. -1.
    5000001    1    1    2    0    0  0.18036265654E+02  0.60864424165E+02  0.43788304862E+01  0.99889735029E+02  0.77000000000E+02 0.  0.
   -5000001    1    1    2    0    0 -0.18036265654E+02 -0.60864424165E+02  0.34500721499E+01  0.99853332471E+02  0.77000000000E+02 0.  0.
<mgrwt>
<rscale>  0 0.19958958E+03</rscale>
<asrwt>0</asrwt>
<pdfrwt beam="1">  1        2 0.14826569E-01 0.19958958E+03</pdfrwt>
<pdfrwt beam="2">  1       -2 0.13708155E-01 0.19958958E+03</pdfrwt>
<totfact> 0.15138908E+04</totfact>
</mgrwt>
</event>
<event>
 4    1  0.6919593E-004  0.2645891E+03  0.7818608E-02  0.1104417E+00
         -2   -1    0    0    0  501 -0.00000000000E+00  0.00000000000E+00  0.22714418451E+02  0.22714418594E+02  0.25500000000E-02 0. -1.
          2   -1    0    0  501    0  0.00000000000E+00 -0.00000000000E+00 -0.77051698735E+03  0.77051698735E+03  0.25500000000E-02 0.  1.
    5000001    1    1    2    0    0  0.74665062414E+02  0.18918161602E+02 -0.14875203747E+03  0.18436088803E+03  0.77000000000E+02 0.  0.
   -5000001    1    1    2    0    0 -0.74665062414E+02 -0.18918161602E+02 -0.59905053143E+03  0.60887051792E+03  0.77000000000E+02 0.  0.
<mgrwt>
<rscale>  0 0.26458908E+03</rscale>
<asrwt>0</asrwt>
<pdfrwt beam="1">  1        2 0.11007384E+00 0.26458908E+03</pdfrwt>
<pdfrwt beam="2">  1       -2 0.32449174E-02 0.26458908E+03</pdfrwt>
<totfact> 0.15278669E+04</totfact>
</mgrwt>
</event>
<event>
 4    1  0.6919593E-004  0.1605140E+03  0.7818608E-02  0.1188118E+00
          2   -1    0    0  501    0  0.00000000000E+00  0.00000000000E+00  0.11721822914E+04  0.11721822915E+04  0.25500000000E-02 0.  1.
         -2   -1    0    0    0  501 -0.00000000000E+00 -0.00000000000E+00 -0.54950385075E+01  0.54950390991E+01  0.25500000000E-02 0. -1.
    5000001    1    1    2    0    0  0.56173385367E+01  0.45900246712E+01  0.74062834537E+03  0.74465560414E+03  0.77000000000E+02 0.  0.
   -5000001    1    1    2    0    0 -0.56173385367E+01 -0.45900246712E+01  0.42605890758E+03  0.43302172641E+03  0.77000000000E+02 0.  0.
<mgrwt>
<rscale>  0 0.16051401E+03</rscale>
<asrwt>0</asrwt>
<pdfrwt beam="1">  1        2 0.16745473E+00 0.16051401E+03</pdfrwt>
<pdfrwt beam="2">  1       -2 0.78500501E-03 0.16051401E+03</pdfrwt>
<totfact> 0.67005157E+04</totfact>
</mgrwt>
</event>
<event>
 4    1  0.6919593E-004  0.2073847E+03  0.7818608E-02  0.1143654E+00
         -2   -1    0    0    0  501 -0.00000000000E+00  0.00000000000E+00  0.15307223750E+02  0.15307223962E+02  0.25500000000E-02 0. -1.
          2   -1    0    0  501    0  0.00000000000E+00 -0.00000000000E+00 -0.70242050500E+03  0.70242050501E+03  0.25500000000E-02 0.  1.
    5000001    1    1    2    0    0 -0.41695301329E+02 -0.36812136636E+02 -0.48748296589E+03  0.49665105817E+03  0.77000000000E+02 0.  0.
   -5000001    1    1    2    0    0  0.41695301329E+02  0.36812136636E+02 -0.19963031537E+03  0.22107667079E+03  0.77000000000E+02 0.  0.
<mgrwt>
<rscale>  0 0.20738474E+03</rscale>
<asrwt>0</asrwt>
<pdfrwt beam="1">  1        2 0.10034577E+00 0.20738474E+03</pdfrwt>
<pdfrwt beam="2">  1       -2 0.21867467E-02 0.20738474E+03</pdfrwt>
<totfact> 0.30163130E+04</totfact>
</mgrwt>
</event>
<event>
 4    1  0.6919593E-004  0.2977639E+03  0.7818608E-02  0.1086364E+00
          2   -1    0    0  501    0  0.00000000000E+00  0.00000000000E+00  0.59003805366E+03  0.59003805366E+03  0.25500000000E-02 0.  1.
         -2   -1    0    0    0  501 -0.00000000000E+00 -0.00000000000E+00 -0.37566797008E+02  0.37566797095E+02  0.25500000000E-02 0. -1.
    5000001    1    1    2    0    0 -0.12509746615E+03 -0.23612234510E+02  0.28776590450E+03  0.32395235675E+03  0.77000000000E+02 0.  0.
   -5000001    1    1    2    0    0  0.12509746615E+03  0.23612234510E+02  0.26470535215E+03  0.30365249400E+03  0.77000000000E+02 0.  0.
<mgrwt>
<rscale>  0 0.29776393E+03</rscale>
<asrwt>0</asrwt>
<pdfrwt beam="1">  1        2 0.84291147E-01 0.29776393E+03</pdfrwt>
<pdfrwt beam="2">  1       -2 0.53666855E-02 0.29776393E+03</pdfrwt>
<totfact> 0.98405917E+03</totfact>
</mgrwt>
</event>
<event>
 4    1  0.6919593E-004  0.3987799E+03  0.7818608E-02  0.1044203E+00
          2   -1    0    0  501    0  0.00000000000E+00  0.00000000000E+00  0.30540141339E+04  0.30540141339E+04  0.25500000000E-02 0.  1.
         -2   -1    0    0    0  501 -0.00000000000E+00 -0.00000000000E+00 -0.13017738016E+02  0.13017738266E+02  0.25500000000E-02 0. -1.
    5000001    1    1    2    0    0 -0.15251186966E+03 -0.79607099315E+02  0.20207230132E+04  0.20294944338E+04  0.77000000000E+02 0.  0.
   -5000001    1    1    2    0    0  0.15251186966E+03  0.79607099315E+02  0.10202733826E+04  0.10375374384E+04  0.77000000000E+02 0.  0.
<mgrwt>
<rscale>  0 0.39877992E+03</rscale>
<asrwt>0</asrwt>
<pdfrwt beam="1">  1        2 0.43628800E+00 0.39877992E+03</pdfrwt>
<pdfrwt beam="2">  1       -2 0.18596758E-02 0.39877992E+03</pdfrwt>
<totfact> 0.22086048E+03</totfact>
</mgrwt>
</event>
<event>
 4    1  0.6919593E-004  0.2078148E+03  0.7818608E-02  0.1143308E+00
         -2   -1    0    0    0  501 -0.00000000000E+00  0.00000000000E+00  0.32258706216E+02  0.32258706317E+02  0.25500000000E-02 0. -1.
          2   -1    0    0  501    0  0.00000000000E+00 -0.00000000000E+00 -0.33469238897E+03  0.33469238898E+03  0.25500000000E-02 0.  1.
    5000001    1    1    2    0    0 -0.69732918279E+02  0.96844070847E+00 -0.14763026070E+03  0.18051956028E+03  0.77000000000E+02 0.  0.
   -5000001    1    1    2    0    0  0.69732918279E+02 -0.96844070847E+00 -0.15480342206E+03  0.18643153502E+03  0.77000000000E+02 0.  0.
<mgrwt>
<rscale>  0 0.20781476E+03</rscale>
<asrwt>0</asrwt>
<pdfrwt beam="1">  1        2 0.47813196E-01 0.20781476E+03</pdfrwt>
<pdfrwt beam="2">  1       -2 0.46083868E-02 0.20781476E+03</pdfrwt>
<totfact> 0.22610090E+04</totfact>
</mgrwt>
</event>
<event>
 4    1  0.6919593E-004  0.2235262E+03  0.7818608E-02  0.1131281E+00
         -2   -1    0    0    0  501 -0.00000000000E+00  0.00000000000E+00  0.12264691875E+02  0.12264692140E+02  0.25500000000E-02 0. -1.
          2   -1    0    0  501    0  0.00000000000E+00 -0.00000000000E+00 -0.10184508527E+04  0.10184508527E+04  0.25500000000E-02 0.  1.
    5000001    1    1    2    0    0 -0.65137308087E+02  0.13530302793E+02 -0.28997711954E+03  0.30731363109E+03  0.77000000000E+02 0.  0.
   -5000001    1    1    2    0    0  0.65137308087E+02 -0.13530302793E+02 -0.71620904130E+03  0.72340191376E+03  0.77000000000E+02 0.  0.
<mgrwt>
<rscale>  0 0.22352616E+03</rscale>
<asrwt>0</asrwt>
<pdfrwt beam="1">  1        2 0.14549293E+00 0.22352616E+03</pdfrwt>
<pdfrwt beam="2">  1       -2 0.17520995E-02 0.22352616E+03</pdfrwt>
<totfact> 0.26256547E+04</totfact>
</mgrwt>
</event>
<event>
 4    1  0.6919593E-004  0.3023640E+03  0.7818608E-02  0.1084065E+00
         -2   -1    0    0    0  501 -0.00000000000E+00  0.00000000000E+00  0.11610171203E+02  0.11610171483E+02  0.25500000000E-02 0. -1.
          2   -1    0    0  501    0  0.00000000000E+00 -0.00000000000E+00 -0.19686178842E+04  0.19686178842E+04  0.25500000000E-02 0.  1.
    5000001    1    1    2    0    0 -0.36414506505E+02 -0.11823642997E+03 -0.71481429329E+03  0.72951651355E+03  0.77000000000E+02 0.  0.
   -5000001    1    1    2    0    0  0.36414506505E+02  0.11823642997E+03 -0.12421934198E+04  0.12507115422E+04  0.77000000000E+02 0.  0.
<mgrwt>
<rscale>  0 0.30236396E+03</rscale>
<asrwt>0</asrwt>
<pdfrwt beam="1">  1        2 0.28123091E+00 0.30236396E+03</pdfrwt>
<pdfrwt beam="2">  1       -2 0.16585972E-02 0.30236396E+03</pdfrwt>
<totfact> 0.93310568E+03</totfact>
</mgrwt>
</event>
<event>
 4    1  0.6919593E-004  0.2328510E+03  0.7818608E-02  0.1124649E+00
          2   -1    0    0  501    0  0.00000000000E+00  0.00000000000E+00  0.21990419371E+03  0.21990419372E+03  0.25500000000E-02 0.  1.
         -2   -1    0    0    0  501 -0.00000000000E+00 -0.00000000000E+00 -0.61640007773E+02  0.61640007826E+02  0.25500000000E-02 0. -1.
    5000001    1    1    2    0    0 -0.25851591243E+02 -0.80868226206E+02  0.54413951190E+02  0.12687731422E+03  0.77000000000E+02 0.  0.
   -5000001    1    1    2    0    0  0.25851591243E+02  0.80868226206E+02  0.10385023474E+03  0.15466688733E+03  0.77000000000E+02 0.  0.
<mgrwt>
<rscale>  0 0.23285099E+03</rscale>
<asrwt>0</asrwt>
<pdfrwt beam="1">  1        2 0.31414884E-01 0.23285099E+03</pdfrwt>
<pdfrwt beam="2">  1       -2 0.88057155E-02 0.23285099E+03</pdfrwt>
<totfact> 0.13252082E+04</totfact>
</mgrwt>
</event>
<event>
 4    1  0.6919593E-004  0.1850793E+03  0.7818608E-02  0.1162976E+00
          2   -1    0    0  501    0  0.00000000000E+00  0.00000000000E+00  0.11958287169E+04  0.11958287169E+04  0.25500000000E-02 0.  1.
         -2   -1    0    0    0  501 -0.00000000000E+00 -0.00000000000E+00 -0.71612185162E+01  0.71612189702E+01  0.25500000000E-02 0. -1.
    5000001    1    1    2    0    0 -0.28389950455E+02  0.35553976062E+02  0.74876755300E+03  0.75409012918E+03  0.77000000000E+02 0.  0.
   -5000001    1    1    2    0    0  0.28389950455E+02 -0.35553976062E+02  0.43989994539E+03  0.44889980670E+03  0.77000000000E+02 0.  0.
<mgrwt>
<rscale>  0 0.18507935E+03</rscale>
<asrwt>0</asrwt>
<pdfrwt beam="1">  1        2 0.17083274E+00 0.18507935E+03</pdfrwt>
<pdfrwt beam="2">  1       -2 0.10230308E-02 0.18507935E+03</pdfrwt>
<totfact> 0.45046653E+04</totfact>
</mgrwt>
</event>
<event>
 4    1  0.6919593E-004  0.2589755E+03  0.7818608E-02  0.1107760E+00
         -2   -1    0    0    0  501 -0.00000000000E+00  0.00000000000E+00  0.14588427415E+02  0.14588427637E+02  0.25500000000E-02 0.  1.
          2   -1    0    0  501    0  0.00000000000E+00 -0.00000000000E+00 -0.11493413381E+04  0.11493413381E+04  0.25500000000E-02 0. -1.
    5000001    1    1    2    0    0 -0.18242832288E+02  0.98497216914E+02 -0.43997258434E+03  0.45775471340E+03  0.77000000000E+02 0.  0.
   -5000001    1    1    2    0    0  0.18242832288E+02 -0.98497216914E+02 -0.69478032633E+03  0.70617505233E+03  0.77000000000E+02 0.  0.
<mgrwt>
<rscale>  0 0.25897554E+03</rscale>
<asrwt>0</asrwt>
<pdfrwt beam="1">  1        2 0.16419156E+00 0.25897554E+03</pdfrwt>
<pdfrwt beam="2">  1       -2 0.20840618E-02 0.25897554E+03</pdfrwt>
<totfact> 0.17300490E+04</totfact>
</mgrwt>
</event>
<event>
 4    1  0.6919593E-004  0.2235071E+03  0.7818608E-02  0.1131295E+00
         -2   -1    0    0    0  501 -0.00000000000E+00  0.00000000000E+00  0.22500355901E+03  0.22500355902E+03  0.25500000000E-02 0. -1.
          2   -1    0    0  501    0  0.00000000000E+00 -0.00000000000E+00 -0.55505160073E+02  0.55505160132E+02  0.25500000000E-02 0.  1.
    5000001    1    1    2    0    0 -0.72465534737E+02 -0.34127036442E+02  0.99806987367E+02  0.14935308188E+03  0.77000000000E+02 0.  0.
   -5000001    1    1    2    0    0  0.72465534737E+02  0.34127036442E+02  0.69691411565E+02  0.13115563727E+03  0.77000000000E+02 0.  0.
<mgrwt>
<rscale>  0 0.22350712E+03</rscale>
<asrwt>0</asrwt>
<pdfrwt beam="1">  1        2 0.79293088E-02 0.22350712E+03</pdfrwt>
<pdfrwt beam="2">  1       -2 0.32143365E-01 0.22350712E+03</pdfrwt>
<totfact> 0.75830812E+03</totfact>
</mgrwt>
</event>
<event>
 4    1  0.6919593E-004  0.2708034E+03  0.7818608E-02  0.1100821E+00
          2   -1    0    0  501    0  0.00000000000E+00  0.00000000000E+00  0.25412930268E+04  0.25412930268E+04  0.25500000000E-02 0.  1.
         -2   -1    0    0    0  501 -0.00000000000E+00 -0.00000000000E+00 -0.72142901115E+01  0.72142905621E+01  0.25500000000E-02 0. -1.
    5000001    1    1    2    0    0 -0.78238692760E+02 -0.68106439347E+02  0.88536387305E+03  0.89473905013E+03  0.77000000000E+02 0.  0.
   -5000001    1    1    2    0    0  0.78238692760E+02  0.68106439347E+02  0.16487148636E+04  0.16537682672E+04  0.77000000000E+02 0.  0.
<mgrwt>
<rscale>  0 0.27080344E+03</rscale>
<asrwt>0</asrwt>
<pdfrwt beam="1">  1        2 0.36304312E+00 0.27080344E+03</pdfrwt>
<pdfrwt beam="2">  1       -2 0.10306093E-02 0.27080344E+03</pdfrwt>
<totfact> 0.97549694E+03</totfact>
</mgrwt>
</event>
<event>
 4    1  0.6919593E-004  0.2338400E+03  0.7818608E-02  0.1123966E+00
          2   -1    0    0  501    0  0.00000000000E+00  0.00000000000E+00  0.13572481945E+04  0.13572481945E+04  0.25500000000E-02 0.  1.
         -2   -1    0    0    0  501 -0.00000000000E+00 -0.00000000000E+00 -0.10072063358E+02  0.10072063681E+02  0.25500000000E-02 0. -1.
    5000001    1    1    2    0    0  0.34169355034E+02  0.80310994113E+02  0.60850492257E+03  0.61953582737E+03  0.77000000000E+02 0.  0.
   -5000001    1    1    2    0    0 -0.34169355034E+02 -0.80310994113E+02  0.73867120853E+03  0.74778443077E+03  0.77000000000E+02 0.  0.
<mgrwt>
<rscale>  0 0.23384003E+03</rscale>
<asrwt>0</asrwt>
<pdfrwt beam="1">  1        2 0.19389266E+00 0.23384003E+03</pdfrwt>
<pdfrwt beam="2">  1       -2 0.14388658E-02 0.23384003E+03</pdfrwt>
<totfact> 0.22949985E+04</totfact>
</mgrwt>
</event>
<event>
 4    1  0.6919593E-004  0.3097983E+03  0.7818608E-02  0.1080443E+00
         -2   -1    0    0    0  501 -0.00000000000E+00  0.00000000000E+00  0.13738116471E+02  0.13738116707E+02  0.25500000000E-02 0. -1.
          2   -1    0    0  501    0  0.00000000000E+00 -0.00000000000E+00 -0.17465090207E+04  0.17465090207E+04  0.25500000000E-02 0.  1.
    5000001    1    1    2    0    0 -0.35303012286E+02 -0.12594946633E+03 -0.10419900319E+04  0.10529870832E+04  0.77000000000E+02 0.  0.
   -5000001    1    1    2    0    0  0.35303012286E+02  0.12594946633E+03 -0.69078087225E+03  0.70726005416E+03  0.77000000000E+02 0.  0.
<mgrwt>
<rscale>  0 0.30979829E+03</rscale>
<asrwt>0</asrwt>
<pdfrwt beam="1">  1        2 0.24950115E+00 0.30979829E+03</pdfrwt>
<pdfrwt beam="2">  1       -2 0.19625892E-02 0.30979829E+03</pdfrwt>
<totfact> 0.93649797E+03</totfact>
</mgrwt>
</event>
<event>
 4    1  0.6919593E-004  0.3067069E+03  0.7818608E-02  0.1081935E+00
          2   -1    0    0  501    0  0.00000000000E+00  0.00000000000E+00  0.45053012752E+04  0.45053012752E+04  0.25500000000E-02 0.  1.
         -2   -1    0    0    0  501 -0.00000000000E+00 -0.00000000000E+00 -0.52199133480E+01  0.52199139708E+01  0.25500000000E-02 0. -1.
    5000001    1    1    2    0    0 -0.52173507056E+02 -0.94544003093E+02  0.33822952299E+04  0.33848944836E+04  0.77000000000E+02 0.  0.
   -5000001    1    1    2    0    0  0.52173507056E+02  0.94544003093E+02  0.11177861320E+04  0.11256267055E+04  0.77000000000E+02 0.  0.
<mgrwt>
<rscale>  0 0.30670692E+03</rscale>
<asrwt>0</asrwt>
<pdfrwt beam="1">  1        2 0.64361337E+00 0.30670692E+03</pdfrwt>
<pdfrwt beam="2">  1       -2 0.74570322E-03 0.30670692E+03</pdfrwt>
<totfact> 0.10370601E+03</totfact>
</mgrwt>
</event>
<event>
 4    1  0.6919593E-004  0.2091401E+03  0.7818608E-02  0.1142249E+00
         -2   -1    0    0    0  501 -0.00000000000E+00  0.00000000000E+00  0.12046598100E+03  0.12046598103E+03  0.25500000000E-02 0. -1.
          2   -1    0    0  501    0  0.00000000000E+00 -0.00000000000E+00 -0.90771622357E+02  0.90771622393E+02  0.25500000000E-02 0.  1.
    5000001    1    1    2    0    0 -0.57350384649E+02 -0.14185855202E+02 -0.24473813427E+02  0.10009132156E+03  0.77000000000E+02 0.  0.
   -5000001    1    1    2    0    0  0.57350384649E+02  0.14185855202E+02  0.54168172074E+02  0.11114628187E+03  0.77000000000E+02 0.  0.
<mgrwt>
<rscale>  0 0.20914007E+03</rscale>
<asrwt>0</asrwt>
<pdfrwt beam="1">  1        2 0.12967375E-01 0.20914007E+03</pdfrwt>
<pdfrwt beam="2">  1       -2 0.17209426E-01 0.20914007E+03</pdfrwt>
<totfact> 0.12242077E+04</totfact>
</mgrwt>
</event>
<event>
 4    1  0.6919593E-004  0.1921784E+03  0.7818608E-02  0.1156511E+00
         -2   -1    0    0    0  501 -0.00000000000E+00  0.00000000000E+00  0.12543859705E+02  0.12543859964E+02  0.25500000000E-02 0. -1.
          2   -1    0    0  501    0  0.00000000000E+00 -0.00000000000E+00 -0.73606805039E+03  0.73606805039E+03  0.25500000000E-02 0.  1.
    5000001    1    1    2    0    0  0.39924361405E+02 -0.22383267389E+02 -0.22630689331E+03  0.24339017082E+03  0.77000000000E+02 0.  0.
   -5000001    1    1    2    0    0 -0.39924361405E+02  0.22383267389E+02 -0.49721729737E+03  0.50522173954E+03  0.77000000000E+02 0.  0.
<mgrwt>
<rscale>  0 0.19217840E+03</rscale>
<asrwt>0</asrwt>
<pdfrwt beam="1">  1        2 0.10515255E+00 0.19217840E+03</pdfrwt>
<pdfrwt beam="2">  1       -2 0.17919805E-02 0.19217840E+03</pdfrwt>
<totfact> 0.37954422E+04</totfact>
</mgrwt>
</event>
<event>
 4    1  0.6919593E-004  0.3828067E+03  0.7818608E-02  0.1049901E+00
         -2   -1    0    0    0  501 -0.00000000000E+00  0.00000000000E+00  0.17743222584E+03  0.17743222586E+03  0.25500000000E-02 0. -1.
          2   -1    0    0  501    0  0.00000000000E+00 -0.00000000000E+00 -0.20647453031E+03  0.20647453033E+03  0.25500000000E-02 0.  1.
    5000001    1    1    2    0    0  0.70220856974E+02 -0.13322388138E+03  0.75327964512E+02  0.18515634897E+03  0.77000000000E+02 0.  0.
   -5000001    1    1    2    0    0 -0.70220856974E+02  0.13322388138E+03 -0.10437026898E+03  0.19875040722E+03  0.77000000000E+02 0.  0.
<mgrwt>
<rscale>  0 0.38280666E+03</rscale>
<asrwt>0</asrwt>
<pdfrwt beam="1">  1        2 0.29496361E-01 0.38280666E+03</pdfrwt>
<pdfrwt beam="2">  1       -2 0.25347461E-01 0.38280666E+03</pdfrwt>
<totfact> 0.24949914E+03</totfact>
</mgrwt>
</event>
<event>
 4    1  0.6919593E-004  0.3316083E+03  0.7818608E-02  0.1070427E+00
          2   -1    0    0  501    0  0.00000000000E+00  0.00000000000E+00  0.64469581483E+03  0.64469581484E+03  0.25500000000E-02 0.  1.
         -2   -1    0    0    0  501 -0.00000000000E+00 -0.00000000000E+00 -0.42641839031E+02  0.42641839107E+02  0.25500000000E-02 0. -1.
    5000001    1    1    2    0    0  0.68900039449E+02  0.12172707268E+03  0.39366058436E+03  0.42480860554E+03  0.77000000000E+02 0.  0.
   -5000001    1    1    2    0    0 -0.68900039449E+02 -0.12172707268E+03  0.20839339144E+03  0.26252904840E+03  0.77000000000E+02 0.  0.
<mgrwt>
<rscale>  0 0.33160829E+03</rscale>
<asrwt>0</asrwt>
<pdfrwt beam="1">  1        2 0.92099407E-01 0.33160829E+03</pdfrwt>
<pdfrwt beam="2">  1       -2 0.60916910E-02 0.33160829E+03</pdfrwt>
<totfact> 0.73384655E+03</totfact>
</mgrwt>
</event>
<event>
 4    1  0.6919593E-004  0.3872788E+03  0.7818608E-02  0.1048276E+00
         -2   -1    0    0    0  501 -0.00000000000E+00  0.00000000000E+00  0.61734471827E+02  0.61734471879E+02  0.25500000000E-02 0. -1.
          2   -1    0    0  501    0  0.00000000000E+00 -0.00000000000E+00 -0.60737878543E+03  0.60737878544E+03  0.25500000000E-02 0.  1.
    5000001    1    1    2    0    0  0.17585739344E+03 -0.13765626981E+02 -0.30954986896E+03  0.36450711473E+03  0.77000000000E+02 0.  0.
   -5000001    1    1    2    0    0 -0.17585739344E+03  0.13765626981E+02 -0.23609444464E+03  0.30460614259E+03  0.77000000000E+02 0.  0.
<mgrwt>
<rscale>  0 0.38727876E+03</rscale>
<asrwt>0</asrwt>
<pdfrwt beam="1">  1        2 0.86768394E-01 0.38727876E+03</pdfrwt>
<pdfrwt beam="2">  1       -2 0.88192106E-02 0.38727876E+03</pdfrwt>
<totfact> 0.44253705E+03</totfact>
</mgrwt>
</event>
<event>
 4    1  0.6919593E-004  0.2649756E+03  0.7818608E-02  0.1104190E+00
          2   -1    0    0  501    0  0.00000000000E+00  0.00000000000E+00  0.22244694930E+04  0.22244694930E+04  0.25500000000E-02 0.  1.
         -2   -1    0    0    0  501 -0.00000000000E+00 -0.00000000000E+00 -0.78908795331E+01  0.78908799452E+01  0.25500000000E-02 0. -1.
    5000001    1    1    2    0    0 -0.31978894628E+02 -0.72281713040E+02  0.17260457767E+04  0.17295694028E+04  0.77000000000E+02 0.  0.
   -5000001    1    1    2    0    0  0.31978894628E+02  0.72281713040E+02  0.49053283673E+03  0.50279097014E+03  0.77000000000E+02 0.  0.
<mgrwt>
<rscale>  0 0.26497563E+03</rscale>
<asrwt>0</asrwt>
<pdfrwt beam="1">  1        2 0.31778192E+00 0.26497563E+03</pdfrwt>
<pdfrwt beam="2">  1       -2 0.11272666E-02 0.26497563E+03</pdfrwt>
<totfact> 0.12278892E+04</totfact>
</mgrwt>
</event>
<event>
 4    1  0.6919593E-004  0.2133667E+03  0.7818608E-02  0.1138927E+00
          2   -1    0    0  501    0  0.00000000000E+00  0.00000000000E+00  0.59078734891E+03  0.59078734892E+03  0.25500000000E-02 0.  1.
         -2   -1    0    0    0  501 -0.00000000000E+00 -0.00000000000E+00 -0.19264700763E+02  0.19264700931E+02  0.25500000000E-02 0. -1.
    5000001    1    1    2    0    0 -0.17139966052E+02  0.64864468417E+02  0.37394086506E+03  0.38763636086E+03  0.77000000000E+02 0.  0.
   -5000001    1    1    2    0    0  0.17139966052E+02 -0.64864468417E+02  0.19758178309E+03  0.22241568899E+03  0.77000000000E+02 0.  0.
<mgrwt>
<rscale>  0 0.21336674E+03</rscale>
<asrwt>0</asrwt>
<pdfrwt beam="1">  1        2 0.84398185E-01 0.21336674E+03</pdfrwt>
<pdfrwt beam="2">  1       -2 0.27521004E-02 0.21336674E+03</pdfrwt>
<totfact> 0.26305327E+04</totfact>
</mgrwt>
</event>
<event>
 4    1  0.6919593E-004  0.4740103E+03  0.7818608E-02  0.1020794E+00
         -2   -1    0    0    0  501 -0.00000000000E+00  0.00000000000E+00  0.27529177826E+02  0.27529177944E+02  0.25500000000E-02 0. -1.
          2   -1    0    0  501    0  0.00000000000E+00 -0.00000000000E+00 -0.20404328557E+04  0.20404328557E+04  0.25500000000E-02 0.  1.
    5000001    1    1    2    0    0 -0.10673484686E+03  0.14786036281E+03 -0.43783651209E+03  0.48050476141E+03  0.77000000000E+02 0.  0.
   -5000001    1    1    2    0    0  0.10673484686E+03 -0.14786036281E+03 -0.15750671658E+04  0.15874572723E+04  0.77000000000E+02 0.  0.
<mgrwt>
<rscale>  0 0.47401029E+03</rscale>
<asrwt>0</asrwt>
<pdfrwt beam="1">  1        2 0.29149031E+00 0.47401029E+03</pdfrwt>
<pdfrwt beam="2">  1       -2 0.39327410E-02 0.47401029E+03</pdfrwt>
<totfact> 0.23597771E+03</totfact>
</mgrwt>
</event>
<event>
 4    1  0.6919593E-004  0.2558280E+03  0.7818608E-02  0.1109676E+00
         -2   -1    0    0    0  501 -0.00000000000E+00  0.00000000000E+00  0.80361330470E+03  0.80361330470E+03  0.25500000000E-02 0. -1.
          2   -1    0    0  501    0  0.00000000000E+00 -0.00000000000E+00 -0.20360525571E+02  0.20360525731E+02  0.25500000000E-02 0.  1.
    5000001    1    1    2    0    0 -0.33828736085E+02 -0.78981118255E+02  0.56951871496E+03  0.58108774476E+03  0.77000000000E+02 0.  0.
   -5000001    1    1    2    0    0  0.33828736085E+02  0.78981118255E+02  0.21373406417E+03  0.24288608567E+03  0.77000000000E+02 0.  0.
<mgrwt>
<rscale>  0 0.25582798E+03</rscale>
<asrwt>0</asrwt>
<pdfrwt beam="1">  1        2 0.29086464E-02 0.25582798E+03</pdfrwt>
<pdfrwt beam="2">  1       -2 0.11480190E+00 0.25582798E+03</pdfrwt>
<totfact> 0.20130511E+03</totfact>
</mgrwt>
</event>
<event>
 4    1  0.6919593E-004  0.2569202E+03  0.7818608E-02  0.1109008E+00
         -2   -1    0    0    0  501 -0.00000000000E+00  0.00000000000E+00  0.86376492718E+02  0.86376492755E+02  0.25500000000E-02 0. -1.
          2   -1    0    0  501    0  0.00000000000E+00 -0.00000000000E+00 -0.19104736613E+03  0.19104736615E+03  0.25500000000E-02 0.  1.
    5000001    1    1    2    0    0  0.38592588592E+02 -0.88931142849E+02 -0.15323692278E+02  0.12474755151E+03  0.77000000000E+02 0.  0.
   -5000001    1    1    2    0    0 -0.38592588592E+02  0.88931142849E+02 -0.89347181137E+02  0.15267630740E+03  0.77000000000E+02 0.  0.
<mgrwt>
<rscale>  0 0.25692023E+03</rscale>
<asrwt>0</asrwt>
<pdfrwt beam="1">  1        2 0.27292481E-01 0.25692023E+03</pdfrwt>
<pdfrwt beam="2">  1       -2 0.12339499E-01 0.25692023E+03</pdfrwt>
<totfact> 0.90829841E+03</totfact>
</mgrwt>
</event>
<event>
 4    1  0.6919593E-004  0.2395185E+03  0.7818608E-02  0.1120114E+00
          2   -1    0    0  501    0  0.00000000000E+00  0.00000000000E+00  0.71002388188E+02  0.71002388234E+02  0.25500000000E-02 0.  1.
         -2   -1    0    0    0  501 -0.00000000000E+00 -0.00000000000E+00 -0.20199706213E+03  0.20199706215E+03  0.25500000000E-02 0. -1.
    5000001    1    1    2    0    0  0.73644873591E+02  0.39220052932E+02 -0.10892139186E+03  0.15733610381E+03  0.77000000000E+02 0.  0.
   -5000001    1    1    2    0    0 -0.73644873591E+02 -0.39220052932E+02 -0.22073282087E+02  0.11566334657E+03  0.77000000000E+02 0.  0.
<mgrwt>
<rscale>  0 0.23951847E+03</rscale>
<asrwt>0</asrwt>
<pdfrwt beam="1">  1        2 0.10143198E-01 0.23951847E+03</pdfrwt>
<pdfrwt beam="2">  1       -2 0.28856723E-01 0.23951847E+03</pdfrwt>
<totfact> 0.68005259E+03</totfact>
</mgrwt>
</event>
<event>
 4    1  0.6919593E-004  0.2239156E+03  0.7818608E-02  0.1130997E+00
          2   -1    0    0  501    0  0.00000000000E+00  0.00000000000E+00  0.16172700622E+04  0.16172700622E+04  0.25500000000E-02 0.  1.
         -2   -1    0    0    0  501 -0.00000000000E+00 -0.00000000000E+00 -0.77504334810E+01  0.77504339005E+01  0.25500000000E-02 0. -1.
    5000001    1    1    2    0    0 -0.42896140558E+02  0.68983178779E+02  0.78585383683E+03  0.79378461228E+03  0.77000000000E+02 0.  0.
   -5000001    1    1    2    0    0  0.42896140558E+02 -0.68983178779E+02  0.82366579190E+03  0.83123588384E+03  0.77000000000E+02 0.  0.
<mgrwt>
<rscale>  0 0.22391556E+03</rscale>
<asrwt>0</asrwt>
<pdfrwt beam="1">  1        2 0.23103860E+00 0.22391556E+03</pdfrwt>
<pdfrwt beam="2">  1       -2 0.11072047E-02 0.22391556E+03</pdfrwt>
<totfact> 0.24783158E+04</totfact>
</mgrwt>
</event>
<event>
 4    1  0.6919593E-004  0.2425140E+03  0.7818608E-02  0.1118129E+00
         -2   -1    0    0    0  501 -0.00000000000E+00  0.00000000000E+00  0.68692725834E+02  0.68692725881E+02  0.25500000000E-02 0. -1.
          2   -1    0    0  501    0  0.00000000000E+00 -0.00000000000E+00 -0.21404385721E+03  0.21404385722E+03  0.25500000000E-02 0.  1.
    5000001    1    1    2    0    0 -0.82287276697E+02 -0.44547861554E+02 -0.77696625027E+02  0.14394955163E+03  0.77000000000E+02 0.  0.
   -5000001    1    1    2    0    0  0.82287276697E+02  0.44547861554E+02 -0.67654506346E+02  0.13878703147E+03  0.77000000000E+02 0.  0.
<mgrwt>
<rscale>  0 0.24251397E+03</rscale>
<asrwt>0</asrwt>
<pdfrwt beam="1">  1        2 0.30577694E-01 0.24251397E+03</pdfrwt>
<pdfrwt beam="2">  1       -2 0.98132466E-02 0.24251397E+03</pdfrwt>
<totfact> 0.11531750E+04</totfact>
</mgrwt>
</event>
<event>
 4    1  0.6919593E-004  0.2001346E+03  0.7818608E-02  0.1149625E+00
          2   -1    0    0  501    0  0.00000000000E+00  0.00000000000E+00  0.22320536554E+04  0.22320536554E+04  0.25500000000E-02 0.  1.
         -2   -1    0    0    0  501 -0.00000000000E+00 -0.00000000000E+00 -0.44862112311E+01  0.44862119558E+01  0.25500000000E-02 0. -1.
    5000001    1    1    2    0    0 -0.15225483254E+02  0.53768722870E+02  0.76724973707E+03  0.77312615396E+03  0.77000000000E+02 0.  0.
   -5000001    1    1    2    0    0  0.15225483254E+02 -0.53768722870E+02  0.14603177071E+04  0.14634137134E+04  0.77000000000E+02 0.  0.
<mgrwt>
<rscale>  0 0.20013460E+03</rscale>
<asrwt>0</asrwt>
<pdfrwt beam="1">  1        2 0.31886518E+00 0.20013460E+03</pdfrwt>
<pdfrwt beam="2">  1       -2 0.64088662E-03 0.20013460E+03</pdfrwt>
<totfact> 0.27273447E+04</totfact>
</mgrwt>
</event>
<event>
 4    1  0.6919593E-004  0.2451164E+03  0.7818608E-02  0.1116431E+00
          2   -1    0    0  501    0  0.00000000000E+00  0.00000000000E+00  0.49256187195E+03  0.49256187196E+03  0.25500000000E-02 0.  1.
         -2   -1    0    0    0  501 -0.00000000000E+00 -0.00000000000E+00 -0.30494660385E+02  0.30494660492E+02  0.25500000000E-02 0. -1.
    5000001    1    1    2    0    0  0.93664457128E+02 -0.10315148635E+02  0.19995795229E+03  0.23407608914E+03  0.77000000000E+02 0.  0.
   -5000001    1    1    2    0    0 -0.93664457128E+02  0.10315148635E+02  0.26210925927E+03  0.28898044331E+03  0.77000000000E+02 0.  0.
<mgrwt>
<rscale>  0 0.24511636E+03</rscale>
<asrwt>0</asrwt>
<pdfrwt beam="1">  1        2 0.70365975E-01 0.24511636E+03</pdfrwt>
<pdfrwt beam="2">  1       -2 0.43563805E-02 0.24511636E+03</pdfrwt>
<totfact> 0.16383594E+04</totfact>
</mgrwt>
</event>
<event>
 4    1  0.6919593E-004  0.1737341E+03  0.7818608E-02  0.1174009E+00
         -2   -1    0    0    0  501 -0.00000000000E+00  0.00000000000E+00  0.65263602553E+01  0.65263607535E+01  0.25500000000E-02 0. -1.
          2   -1    0    0  501    0  0.00000000000E+00 -0.00000000000E+00 -0.11562160515E+04  0.11562160515E+04  0.25500000000E-02 0.  1.
    5000001    1    1    2    0    0 -0.27926686928E+02 -0.23833895825E+02 -0.46509174972E+03  0.47285017722E+03  0.77000000000E+02 0.  0.
   -5000001    1    1    2    0    0  0.27926686928E+02  0.23833895825E+02 -0.68459794151E+03  0.68989223503E+03  0.77000000000E+02 0.  0.
<mgrwt>
<rscale>  0 0.17373408E+03</rscale>
<asrwt>0</asrwt>
<pdfrwt beam="1">  1        2 0.16517359E+00 0.17373408E+03</pdfrwt>
<pdfrwt beam="2">  1       -2 0.93233795E-03 0.17373408E+03</pdfrwt>
<totfact> 0.53796822E+04</totfact>
</mgrwt>
</event>
<event>
 4    1  0.6919593E-004  0.2156712E+03  0.7818608E-02  0.1137152E+00
          2   -1    0    0  501    0  0.00000000000E+00  0.00000000000E+00  0.23809287113E+03  0.23809287114E+03  0.25500000000E-02 0.  1.
         -2   -1    0    0    0  501 -0.00000000000E+00 -0.00000000000E+00 -0.48840238078E+02  0.48840238144E+02  0.25500000000E-02 0. -1.
    5000001    1    1    2    0    0 -0.70404982838E+02  0.27102506790E+02  0.98413934315E+02  0.14596475585E+03  0.77000000000E+02 0.  0.
   -5000001    1    1    2    0    0  0.70404982838E+02 -0.27102506790E+02  0.90838698735E+02  0.14096835344E+03  0.77000000000E+02 0.  0.
<mgrwt>
<rscale>  0 0.21567116E+03</rscale>
<asrwt>0</asrwt>
<pdfrwt beam="1">  1        2 0.34013268E-01 0.21567116E+03</pdfrwt>
<pdfrwt beam="2">  1       -2 0.69771768E-02 0.21567116E+03</pdfrwt>
<totfact> 0.17371937E+04</totfact>
</mgrwt>
</event>
<event>
 4    1  0.6919593E-004  0.2808408E+03  0.7818608E-02  0.1095231E+00
          2   -1    0    0  501    0  0.00000000000E+00  0.00000000000E+00  0.20749469016E+03  0.20749469018E+03  0.25500000000E-02 0.  1.
         -2   -1    0    0    0  501 -0.00000000000E+00 -0.00000000000E+00 -0.95028429643E+02  0.95028429678E+02  0.25500000000E-02 0. -1.
    5000001    1    1    2    0    0  0.10495104971E+02  0.11663616473E+03  0.65546587833E+02  0.15472393909E+03  0.77000000000E+02 0.  0.
   -5000001    1    1    2    0    0 -0.10495104971E+02 -0.11663616473E+03  0.46919672686E+02  0.14779918077E+03  0.77000000000E+02 0.  0.
<mgrwt>
<rscale>  0 0.28084084E+03</rscale>
<asrwt>0</asrwt>
<pdfrwt beam="1">  1        2 0.29642098E-01 0.28084084E+03</pdfrwt>
<pdfrwt beam="2">  1       -2 0.13575490E-01 0.28084084E+03</pdfrwt>
<totfact> 0.71278301E+03</totfact>
</mgrwt>
</event>
<event>
 4    1  0.6919593E-004  0.2919540E+03  0.7818608E-02  0.1089333E+00
         -2   -1    0    0    0  501 -0.00000000000E+00  0.00000000000E+00  0.73282390899E+03  0.73282390900E+03  0.25500000000E-02 0. -1.
          2   -1    0    0  501    0  0.00000000000E+00 -0.00000000000E+00 -0.29078324779E+02  0.29078324891E+02  0.25500000000E-02 0.  1.
    5000001    1    1    2    0    0  0.67858454268E+02  0.96445275109E+02  0.45205914193E+03  0.47349015693E+03  0.77000000000E+02 0.  0.
   -5000001    1    1    2    0    0 -0.67858454268E+02 -0.96445275109E+02  0.25168644228E+03  0.28841207696E+03  0.77000000000E+02 0.  0.
<mgrwt>
<rscale>  0 0.29195405E+03</rscale>
<asrwt>0</asrwt>
<pdfrwt beam="1">  1        2 0.41540461E-02 0.29195405E+03</pdfrwt>
<pdfrwt beam="2">  1       -2 0.10468914E+00 0.29195405E+03</pdfrwt>
<totfact> 0.15541594E+03</totfact>
</mgrwt>
</event>
<event>
 4    1  0.6919593E-004  0.1945824E+03  0.7818608E-02  0.1154392E+00
         -2   -1    0    0    0  501 -0.00000000000E+00  0.00000000000E+00  0.90584204230E+01  0.90584207819E+01  0.25500000000E-02 0. -1.
          2   -1    0    0  501    0  0.00000000000E+00 -0.00000000000E+00 -0.10449482271E+04  0.10449482271E+04  0.25500000000E-02 0.  1.
    5000001    1    1    2    0    0 -0.12070596876E+02 -0.41004938040E+02 -0.29398448574E+03  0.30689246017E+03  0.77000000000E+02 0.  0.
   -5000001    1    1    2    0    0  0.12070596876E+02  0.41004938040E+02 -0.74190532096E+03  0.74711418774E+03  0.77000000000E+02 0.  0.
<mgrwt>
<rscale>  0 0.19458243E+03</rscale>
<asrwt>0</asrwt>
<pdfrwt beam="1">  1        2 0.14927824E+00 0.19458243E+03</pdfrwt>
<pdfrwt beam="2">  1       -2 0.12940608E-02 0.19458243E+03</pdfrwt>
<totfact> 0.39019593E+04</totfact>
</mgrwt>
</event>
<event>
 4    1  0.6919593E-004  0.4993927E+03  0.7818608E-02  0.1013938E+00
          2   -1    0    0  501    0  0.00000000000E+00  0.00000000000E+00  0.59336973412E+03  0.59336973413E+03  0.25500000000E-02 0.  1.
         -2   -1    0    0    0  501 -0.00000000000E+00 -0.00000000000E+00 -0.10507491864E+03  0.10507491867E+03  0.25500000000E-02 0. -1.
    5000001    1    1    2    0    0 -0.19171555238E+03 -0.13900739324E+03  0.21830688634E+03  0.33115676805E+03  0.77000000000E+02 0.  0.
   -5000001    1    1    2    0    0  0.19171555238E+03  0.13900739324E+03  0.26998792914E+03  0.36728788475E+03  0.77000000000E+02 0.  0.
<mgrwt>
<rscale>  0 0.49939274E+03</rscale>
<asrwt>0</asrwt>
<pdfrwt beam="1">  1        2 0.84767102E-01 0.49939274E+03</pdfrwt>
<pdfrwt beam="2">  1       -2 0.15010703E-01 0.49939274E+03</pdfrwt>
<totfact> 0.19169897E+03</totfact>
</mgrwt>
</event>
<event>
 4    1  0.6919593E-004  0.5172929E+03  0.7818608E-02  0.1009361E+00
         -2   -1    0    0    0  501 -0.00000000000E+00  0.00000000000E+00  0.74253656628E+02  0.74253656672E+02  0.25500000000E-02 0. -1.
          2   -1    0    0  501    0  0.00000000000E+00 -0.00000000000E+00 -0.90093862751E+03  0.90093862752E+03  0.25500000000E-02 0.  1.
    5000001    1    1    2    0    0  0.18697700493E+03 -0.10458484344E+03 -0.18191284955E+03  0.29140980540E+03  0.77000000000E+02 0.  0.
   -5000001    1    1    2    0    0 -0.18697700493E+03  0.10458484344E+03 -0.64477212133E+03  0.68378247879E+03  0.77000000000E+02 0.  0.
<mgrwt>
<rscale>  0 0.51729291E+03</rscale>
<asrwt>0</asrwt>
<pdfrwt beam="1">  1        2 0.12870551E+00 0.51729291E+03</pdfrwt>
<pdfrwt beam="2">  1       -2 0.10607666E-01 0.51729291E+03</pdfrwt>
<totfact> 0.20263192E+03</totfact>
</mgrwt>
</event>
<event>
 4    1  0.6919593E-004  0.5010835E+03  0.7818608E-02  0.1013496E+00
          2   -1    0    0  501    0  0.00000000000E+00  0.00000000000E+00  0.70995638719E+03  0.70995638719E+03  0.25500000000E-02 0.  1.
         -2   -1    0    0    0  501 -0.00000000000E+00 -0.00000000000E+00 -0.88415527760E+02  0.88415527797E+02  0.25500000000E-02 0. -1.
    5000001    1    1    2    0    0 -0.39890319548E+02  0.19332727344E+03  0.52379230518E+03  0.56502570845E+03  0.77000000000E+02 0.  0.
   -5000001    1    1    2    0    0  0.39890319548E+02 -0.19332727344E+03  0.97748554249E+02  0.23334620654E+03  0.77000000000E+02 0.  0.
<mgrwt>
<rscale>  0 0.50108350E+03</rscale>
<asrwt>0</asrwt>
<pdfrwt beam="1">  1        2 0.10142235E+00 0.50108350E+03</pdfrwt>
<pdfrwt beam="2">  1       -2 0.12630789E-01 0.50108350E+03</pdfrwt>
<totfact> 0.20623456E+03</totfact>
</mgrwt>
</event>
<event>
 4    1  0.6919593E-004  0.1838663E+03  0.7818608E-02  0.1164113E+00
         -2   -1    0    0    0  501 -0.00000000000E+00  0.00000000000E+00  0.31616011876E+01  0.31616022159E+01  0.25500000000E-02 0. -1.
          2   -1    0    0  501    0  0.00000000000E+00 -0.00000000000E+00 -0.26732348024E+04  0.26732348024E+04  0.25500000000E-02 0.  1.
    5000001    1    1    2    0    0  0.35798079765E+02 -0.31145877039E+02 -0.10953512295E+04  0.10990791073E+04  0.77000000000E+02 0.  0.
   -5000001    1    1    2    0    0 -0.35798079765E+02  0.31145877039E+02 -0.15747219717E+04  0.15773172973E+04  0.77000000000E+02 0.  0.
<mgrwt>
<rscale>  0 0.18386630E+03</rscale>
<asrwt>0</asrwt>
<pdfrwt beam="1">  1        2 0.38188924E+00 0.18386630E+03</pdfrwt>
<pdfrwt beam="2">  1       -2 0.45165910E-03 0.18386630E+03</pdfrwt>
<totfact> 0.27201363E+04</totfact>
</mgrwt>
</event>
<event>
 4    1  0.6919593E-004  0.2303116E+03  0.7818608E-02  0.1126421E+00
          2   -1    0    0  501    0  0.00000000000E+00  0.00000000000E+00  0.63621037226E+03  0.63621037227E+03  0.25500000000E-02 0. -1.
         -2   -1    0    0    0  501 -0.00000000000E+00 -0.00000000000E+00 -0.20843513471E+02  0.20843513627E+02  0.25500000000E-02 0.  1.
    5000001    1    1    2    0    0  0.33193495313E+02 -0.78897657296E+02  0.31419593607E+03  0.33462626122E+03  0.77000000000E+02 0.  0.
   -5000001    1    1    2    0    0 -0.33193495313E+02  0.78897657296E+02  0.30117092272E+03  0.32242762467E+03  0.77000000000E+02 0.  0.
<mgrwt>
<rscale>  0 0.23031161E+03</rscale>
<asrwt>0</asrwt>
<pdfrwt beam="1">  1        2 0.90887184E-01 0.23031161E+03</pdfrwt>
<pdfrwt beam="2">  1       -2 0.29776452E-02 0.23031161E+03</pdfrwt>
<totfact> 0.21623410E+04</totfact>
</mgrwt>
</event>
<event>
 4    1  0.6919593E-004  0.4239431E+03  0.7818608E-02  0.1035791E+00
          2   -1    0    0  501    0  0.00000000000E+00  0.00000000000E+00  0.35204922304E+03  0.35204922305E+03  0.25500000000E-02 0.  1.
         -2   -1    0    0    0  501 -0.00000000000E+00 -0.00000000000E+00 -0.12762972092E+03  0.12762972095E+03  0.25500000000E-02 0. -1.
    5000001    1    1    2    0    0  0.14284510748E+03 -0.67950298682E+02 -0.21576598484E+02  0.17724705194E+03  0.77000000000E+02 0.  0.
   -5000001    1    1    2    0    0 -0.14284510748E+03  0.67950298682E+02  0.24599610060E+03  0.30243189205E+03  0.77000000000E+02 0.  0.
<mgrwt>
<rscale>  0 0.42394313E+03</rscale>
<asrwt>0</asrwt>
<pdfrwt beam="1">  1        2 0.50292745E-01 0.42394313E+03</pdfrwt>
<pdfrwt beam="2">  1       -2 0.18232818E-01 0.42394313E+03</pdfrwt>
<totfact> 0.24720306E+03</totfact>
</mgrwt>
</event>
<event>
 4    1  0.6919593E-004  0.2341759E+03  0.7818608E-02  0.1123735E+00
          2   -1    0    0  501    0  0.00000000000E+00  0.00000000000E+00  0.85202657284E+03  0.85202657284E+03  0.25500000000E-02 0.  1.
         -2   -1    0    0    0  501 -0.00000000000E+00 -0.00000000000E+00 -0.16090565590E+02  0.16090565792E+02  0.25500000000E-02 0. -1.
    5000001    1    1    2    0    0  0.64397089517E+02 -0.28601925840E+02  0.22126249816E+03  0.24464494352E+03  0.77000000000E+02 0.  0.
   -5000001    1    1    2    0    0 -0.64397089517E+02  0.28601925840E+02  0.61467350909E+03  0.62347219511E+03  0.77000000000E+02 0.  0.
<mgrwt>
<rscale>  0 0.23417591E+03</rscale>
<asrwt>0</asrwt>
<pdfrwt beam="1">  1        2 0.12171808E+00 0.23417591E+03</pdfrwt>
<pdfrwt beam="2">  1       -2 0.22986523E-02 0.23417591E+03</pdfrwt>
<totfact> 0.22335473E+04</totfact>
</mgrwt>
</event>
<event>
 4    1  0.6919593E-004  0.3720768E+03  0.7818608E-02  0.1053902E+00
          2   -1    0    0  501    0  0.00000000000E+00  0.00000000000E+00  0.52096559693E+03  0.52096559694E+03  0.25500000000E-02 0.  1.
         -2   -1    0    0    0  501 -0.00000000000E+00 -0.00000000000E+00 -0.66434880460E+02  0.66434880509E+02  0.25500000000E-02 0. -1.
    5000001    1    1    2    0    0  0.13132271235E+03 -0.16395611053E+02  0.60438341120E+02  0.16460942840E+03  0.77000000000E+02 0.  0.
   -5000001    1    1    2    0    0 -0.13132271235E+03  0.16395611053E+02  0.39409237535E+03  0.42279104905E+03  0.77000000000E+02 0.  0.
<mgrwt>
<rscale>  0 0.37207680E+03</rscale>
<asrwt>0</asrwt>
<pdfrwt beam="1">  1        2 0.74423656E-01 0.37207680E+03</pdfrwt>
<pdfrwt beam="2">  1       -2 0.94906973E-02 0.37207680E+03</pdfrwt>
<totfact> 0.46882472E+03</totfact>
</mgrwt>
</event>
<event>
 4    1  0.6919593E-004  0.1798256E+03  0.7818608E-02  0.1167972E+00
          2   -1    0    0  501    0  0.00000000000E+00  0.00000000000E+00  0.82368775833E+02  0.82368775873E+02  0.25500000000E-02 0.  1.
         -2   -1    0    0    0  501 -0.00000000000E+00 -0.00000000000E+00 -0.98147822239E+02  0.98147822272E+02  0.25500000000E-02 0. -1.
    5000001    1    1    2    0    0 -0.88869748968E+01  0.42610780205E+02 -0.24096496616E+02  0.91674958749E+02  0.77000000000E+02 0.  0.
   -5000001    1    1    2    0    0  0.88869748968E+01 -0.42610780205E+02  0.83174502104E+01  0.88841639396E+02  0.77000000000E+02 0.  0.
<mgrwt>
<rscale>  0 0.17982565E+03</rscale>
<asrwt>0</asrwt>
<pdfrwt beam="1">  1        2 0.11766968E-01 0.17982565E+03</pdfrwt>
<pdfrwt beam="2">  1       -2 0.14021117E-01 0.17982565E+03</pdfrwt>
<totfact> 0.19080834E+04</totfact>
</mgrwt>
</event>
<event>
 4    1  0.6919593E-004  0.3846555E+03  0.7818608E-02  0.1049226E+00
          2   -1    0    0  501    0  0.00000000000E+00  0.00000000000E+00  0.70422408603E+02  0.70422408649E+02  0.25500000000E-02 0.  1.
         -2   -1    0    0    0  501 -0.00000000000E+00 -0.00000000000E+00 -0.52525854612E+03  0.52525854612E+03  0.25500000000E-02 0. -1.
    5000001    1    1    2    0    0 -0.13507337699E+03 -0.11166113975E+03 -0.19853144314E+03  0.27578390311E+03  0.77000000000E+02 0.  0.
   -5000001    1    1    2    0    0  0.13507337699E+03  0.11166113975E+03 -0.25630469438E+03  0.31989705166E+03  0.77000000000E+02 0.  0.
<mgrwt>
<rscale>  0 0.38465554E+03</rscale>
<asrwt>0</asrwt>
<pdfrwt beam="1">  1        2 0.10060344E-01 0.38465554E+03</pdfrwt>
<pdfrwt beam="2">  1       -2 0.75036933E-01 0.38465554E+03</pdfrwt>
<totfact> 0.10508843E+03</totfact>
</mgrwt>
</event>
<event>
 4    1  0.6919593E-004  0.3319242E+03  0.7818608E-02  0.1070289E+00
         -2   -1    0    0    0  501 -0.00000000000E+00  0.00000000000E+00  0.22828097297E+03  0.22828097298E+03  0.25500000000E-02 0. -1.
          2   -1    0    0  501    0  0.00000000000E+00 -0.00000000000E+00 -0.12065575249E+03  0.12065575252E+03  0.25500000000E-02 0.  1.
    5000001    1    1    2    0    0 -0.41519838089E+02 -0.80945976315E+02  0.17522345339E+03  0.21191603681E+03  0.77000000000E+02 0.  0.
   -5000001    1    1    2    0    0  0.41519838089E+02  0.80945976315E+02 -0.67598232922E+02  0.13702068870E+03  0.77000000000E+02 0.  0.
<mgrwt>
<rscale>  0 0.33192416E+03</rscale>
<asrwt>0</asrwt>
<pdfrwt beam="1">  1        2 0.17236536E-01 0.33192416E+03</pdfrwt>
<pdfrwt beam="2">  1       -2 0.32611567E-01 0.33192416E+03</pdfrwt>
<totfact> 0.29050666E+03</totfact>
</mgrwt>
</event>
<event>
 4    1  0.6919593E-004  0.2068129E+03  0.7818608E-02  0.1144115E+00
         -2   -1    0    0    0  501 -0.00000000000E+00  0.00000000000E+00  0.33699671134E+02  0.33699671230E+02  0.25500000000E-02 0. -1.
          2   -1    0    0  501    0  0.00000000000E+00 -0.00000000000E+00 -0.31729973894E+03  0.31729973895E+03  0.25500000000E-02 0.  1.
    5000001    1    1    2    0    0  0.67185341308E+02 -0.15538260503E+02 -0.14677403885E+03  0.17951859543E+03  0.77000000000E+02 0.  0.
   -5000001    1    1    2    0    0 -0.67185341308E+02  0.15538260503E+02 -0.13682602896E+03  0.17148081475E+03  0.77000000000E+02 0.  0.
<mgrwt>
<rscale>  0 0.20681293E+03</rscale>
<asrwt>0</asrwt>
<pdfrwt beam="1">  1        2 0.45328532E-01 0.20681293E+03</pdfrwt>
<pdfrwt beam="2">  1       -2 0.48142389E-02 0.20681293E+03</pdfrwt>
<totfact> 0.22403086E+04</totfact>
</mgrwt>
</event>
<event>
 4    1  0.6919593E-004  0.2293218E+03  0.7818608E-02  0.1127118E+00
         -2   -1    0    0    0  501 -0.00000000000E+00  0.00000000000E+00  0.77728567706E+01  0.77728571889E+01  0.25500000000E-02 0. -1.
          2   -1    0    0  501    0  0.00000000000E+00 -0.00000000000E+00 -0.16914148754E+04  0.16914148754E+04  0.25500000000E-02 0.  1.
    5000001    1    1    2    0    0 -0.75628836249E+02  0.21288064412E+02 -0.10813734012E+04  0.10869546151E+04  0.77000000000E+02 0.  0.
   -5000001    1    1    2    0    0  0.75628836249E+02 -0.21288064412E+02 -0.60226861743E+03  0.61223311745E+03  0.77000000000E+02 0.  0.
<mgrwt>
<rscale>  0 0.22932183E+03</rscale>
<asrwt>0</asrwt>
<pdfrwt beam="1">  1        2 0.24163046E+00 0.22932183E+03</pdfrwt>
<pdfrwt beam="2">  1       -2 0.11104092E-02 0.22932183E+03</pdfrwt>
<totfact> 0.22717100E+04</totfact>
</mgrwt>
</event>
<event>
 4    1  0.6919593E-004  0.3440723E+03  0.7818608E-02  0.1065075E+00
         -2   -1    0    0    0  501 -0.00000000000E+00  0.00000000000E+00  0.59796552673E+02  0.59796552727E+02  0.25500000000E-02 0. -1.
          2   -1    0    0  501    0  0.00000000000E+00 -0.00000000000E+00 -0.49495208842E+03  0.49495208843E+03  0.25500000000E-02 0.  1.
    5000001    1    1    2    0    0  0.67288944507E+02 -0.13770814769E+03 -0.23897301031E+03  0.29415716148E+03  0.77000000000E+02 0.  0.
   -5000001    1    1    2    0    0 -0.67288944507E+02  0.13770814769E+03 -0.19618252543E+03  0.26059147967E+03  0.77000000000E+02 0.  0.
<mgrwt>
<rscale>  0 0.34407225E+03</rscale>
<asrwt>0</asrwt>
<pdfrwt beam="1">  1        2 0.70707439E-01 0.34407225E+03</pdfrwt>
<pdfrwt beam="2">  1       -2 0.85423650E-02 0.34407225E+03</pdfrwt>
<totfact> 0.58568541E+03</totfact>
</mgrwt>
</event>
<event>
 4    1  0.6919593E-004  0.2944328E+03  0.7818608E-02  0.1088057E+00
         -2   -1    0    0    0  501 -0.00000000000E+00  0.00000000000E+00  0.13156969158E+02  0.13156969405E+02  0.25500000000E-02 0. -1.
          2   -1    0    0  501    0  0.00000000000E+00 -0.00000000000E+00 -0.16472390662E+04  0.16472390662E+04  0.25500000000E-02 0.  1.
    5000001    1    1    2    0    0  0.92660628599E+02  0.71537494010E+02 -0.56232996898E+03  0.57952359672E+03  0.77000000000E+02 0.  0.
   -5000001    1    1    2    0    0 -0.92660628599E+02 -0.71537494010E+02 -0.10717521280E+04  0.10808724388E+04  0.77000000000E+02 0.  0.
<mgrwt>
<rscale>  0 0.29443284E+03</rscale>
<asrwt>0</asrwt>
<pdfrwt beam="1">  1        2 0.23531973E+00 0.29443284E+03</pdfrwt>
<pdfrwt beam="2">  1       -2 0.18795681E-02 0.29443284E+03</pdfrwt>
<totfact> 0.11166979E+04</totfact>
</mgrwt>
</event>
<event>
 4    1  0.6919593E-004  0.4062079E+03  0.7818608E-02  0.1041651E+00
          2   -1    0    0  501    0  0.00000000000E+00  0.00000000000E+00  0.54750880474E+02  0.54750880534E+02  0.25500000000E-02 0.  1.
         -2   -1    0    0    0  501 -0.00000000000E+00 -0.00000000000E+00 -0.75343479726E+03  0.75343479727E+03  0.25500000000E-02 0. -1.
    5000001    1    1    2    0    0 -0.13154768618E+03 -0.10196328732E+03 -0.52302853726E+03  0.55424647630E+03  0.77000000000E+02 0.  0.
   -5000001    1    1    2    0    0  0.13154768618E+03  0.10196328732E+03 -0.17565537953E+03  0.25393920150E+03  0.77000000000E+02 0.  0.
<mgrwt>
<rscale>  0 0.40620792E+03</rscale>
<asrwt>0</asrwt>
<pdfrwt beam="1">  1        2 0.78215548E-02 0.40620792E+03</pdfrwt>
<pdfrwt beam="2">  1       -2 0.10763354E+00 0.40620792E+03</pdfrwt>
<totfact> 0.63559164E+02</totfact>
</mgrwt>
</event>
<event>
 4    1  0.6919593E-004  0.2080406E+03  0.7818608E-02  0.1143127E+00
          2   -1    0    0  501    0  0.00000000000E+00  0.00000000000E+00  0.10211186412E+04  0.10211186412E+04  0.25500000000E-02 0.  1.
         -2   -1    0    0    0  501 -0.00000000000E+00 -0.00000000000E+00 -0.10596443553E+02  0.10596443860E+02  0.25500000000E-02 0. -1.
    5000001    1    1    2    0    0 -0.71018654883E+01  0.56347611076E+02  0.70766307925E+03  0.71410189994E+03  0.77000000000E+02 0.  0.
   -5000001    1    1    2    0    0  0.71018654883E+01 -0.56347611076E+02  0.30285911842E+03  0.31761318514E+03  0.77000000000E+02 0.  0.
<mgrwt>
<rscale>  0 0.20804063E+03</rscale>
<asrwt>0</asrwt>
<pdfrwt beam="1">  1        2 0.14587410E+00 0.20804063E+03</pdfrwt>
<pdfrwt beam="2">  1       -2 0.15137776E-02 0.20804063E+03</pdfrwt>
<totfact> 0.32227617E+04</totfact>
</mgrwt>
</event>
<event>
 4    1  0.6919593E-004  0.1675625E+03  0.7818608E-02  0.1180414E+00
         -2   -1    0    0    0  501 -0.00000000000E+00  0.00000000000E+00  0.41751690947E+01  0.41751698734E+01  0.25500000000E-02 0. -1.
          2   -1    0    0  501    0  0.00000000000E+00 -0.00000000000E+00 -0.16812000913E+04  0.16812000913E+04  0.25500000000E-02 0.  1.
    5000001    1    1    2    0    0 -0.26586252769E+02 -0.95124140909E+01 -0.66634971066E+03  0.67137787554E+03  0.77000000000E+02 0.  0.
   -5000001    1    1    2    0    0  0.26586252769E+02  0.95124140909E+01 -0.10106752116E+04  0.10139973857E+04  0.77000000000E+02 0.  0.
<mgrwt>
<rscale>  0 0.16756247E+03</rscale>
<asrwt>0</asrwt>
<pdfrwt beam="1">  1        2 0.24017101E+00 0.16756247E+03</pdfrwt>
<pdfrwt beam="2">  1       -2 0.59645386E-03 0.16756247E+03</pdfrwt>
<totfact> 0.55083893E+04</totfact>
</mgrwt>
</event>
<event>
 4    1  0.6919593E-004  0.4327602E+03  0.7818608E-02  0.1032992E+00
         -2   -1    0    0    0  501 -0.00000000000E+00  0.00000000000E+00  0.19102192092E+02  0.19102192262E+02  0.25500000000E-02 0. -1.
          2   -1    0    0  501    0  0.00000000000E+00 -0.00000000000E+00 -0.24510458411E+04  0.24510458411E+04  0.25500000000E-02 0.  1.
    5000001    1    1    2    0    0  0.15161604013E+03 -0.62549184766E+02 -0.18911341227E+04  0.18997939610E+04  0.77000000000E+02 0.  0.
   -5000001    1    1    2    0    0 -0.15161604013E+03  0.62549184766E+02 -0.54080952635E+03  0.57035407242E+03  0.77000000000E+02 0.  0.
<mgrwt>
<rscale>  0 0.43276020E+03</rscale>
<asrwt>0</asrwt>
<pdfrwt beam="1">  1        2 0.35014921E+00 0.43276020E+03</pdfrwt>
<pdfrwt beam="2">  1       -2 0.27288862E-02 0.43276020E+03</pdfrwt>
<totfact> 0.25621044E+03</totfact>
</mgrwt>
</event>
<event>
 4    1  0.6919593E-004  0.1895724E+03  0.7818608E-02  0.1158848E+00
         -2   -1    0    0    0  501 -0.00000000000E+00  0.00000000000E+00  0.23260458000E+02  0.23260458139E+02  0.25500000000E-02 0. -1.
          2   -1    0    0  501    0  0.00000000000E+00 -0.00000000000E+00 -0.38625313468E+03  0.38625313469E+03  0.25500000000E-02 0.  1.
    5000001    1    1    2    0    0  0.49743392070E+02  0.14124929485E+02 -0.22368968394E+03  0.24215696023E+03  0.77000000000E+02 0.  0.
   -5000001    1    1    2    0    0 -0.49743392070E+02 -0.14124929485E+02 -0.13930299275E+03  0.16735663260E+03  0.77000000000E+02 0.  0.
<mgrwt>
<rscale>  0 0.18957241E+03</rscale>
<asrwt>0</asrwt>
<pdfrwt beam="1">  1        2 0.55179015E-01 0.18957241E+03</pdfrwt>
<pdfrwt beam="2">  1       -2 0.33229228E-02 0.18957241E+03</pdfrwt>
<totfact> 0.31394672E+04</totfact>
</mgrwt>
</event>
<event>
 4    1  0.6919593E-004  0.2532913E+03  0.7818608E-02  0.1111242E+00
          2   -1    0    0  501    0  0.00000000000E+00  0.00000000000E+00  0.13848169263E+04  0.13848169263E+04  0.25500000000E-02 0.  1.
         -2   -1    0    0    0  501 -0.00000000000E+00 -0.00000000000E+00 -0.11582125110E+02  0.11582125391E+02  0.25500000000E-02 0. -1.
    5000001    1    1    2    0    0 -0.44532300672E+02  0.11556770009E+02  0.19372053729E+03  0.21347911210E+03  0.77000000000E+02 0.  0.
   -5000001    1    1    2    0    0  0.44532300672E+02 -0.11556770009E+02  0.11795142639E+04  0.11829199396E+04  0.77000000000E+02 0.  0.
<mgrwt>
<rscale>  0 0.25329132E+03</rscale>
<asrwt>0</asrwt>
<pdfrwt beam="1">  1        2 0.19783097E+00 0.25329132E+03</pdfrwt>
<pdfrwt beam="2">  1       -2 0.16545895E-02 0.25329132E+03</pdfrwt>
<totfact> 0.18178969E+04</totfact>
</mgrwt>
</event>
<event>
 4    1  0.6919593E-004  0.1961172E+03  0.7818608E-02  0.1153057E+00
         -2   -1    0    0    0  501 -0.00000000000E+00  0.00000000000E+00  0.19960300259E+02  0.19960300422E+02  0.25500000000E-02 0. -1.
          2   -1    0    0  501    0  0.00000000000E+00 -0.00000000000E+00 -0.48173054693E+03  0.48173054694E+03  0.25500000000E-02 0.  1.
    5000001    1    1    2    0    0  0.33987513562E+02  0.29631025324E+02 -0.33490140696E+03  0.34658491185E+03  0.77000000000E+02 0.  0.
   -5000001    1    1    2    0    0 -0.33987513562E+02 -0.29631025324E+02 -0.12686883972E+03  0.15510593551E+03  0.77000000000E+02 0.  0.
<mgrwt>
<rscale>  0 0.19611717E+03</rscale>
<asrwt>0</asrwt>
<pdfrwt beam="1">  1        2 0.68818642E-01 0.19611717E+03</pdfrwt>
<pdfrwt beam="2">  1       -2 0.28514718E-02 0.19611717E+03</pdfrwt>
<totfact> 0.31108885E+04</totfact>
</mgrwt>
</event>
<event>
 4    1  0.6919593E-004  0.2177136E+03  0.7818608E-02  0.1135599E+00
         -2   -1    0    0    0  501 -0.00000000000E+00  0.00000000000E+00  0.51174536348E+03  0.51174536348E+03  0.25500000000E-02 0. -1.
          2   -1    0    0  501    0  0.00000000000E+00 -0.00000000000E+00 -0.23155660211E+02  0.23155660352E+02  0.25500000000E-02 0.  1.
    5000001    1    1    2    0    0  0.15998224742E+02 -0.74348692499E+02  0.27306585122E+03  0.29373054042E+03  0.77000000000E+02 0.  0.
   -5000001    1    1    2    0    0 -0.15998224742E+02  0.74348692499E+02  0.21552385205E+03  0.24117048342E+03  0.77000000000E+02 0.  0.
<mgrwt>
<rscale>  0 0.21771359E+03</rscale>
<asrwt>0</asrwt>
<pdfrwt beam="1">  1        2 0.33079518E-02 0.21771359E+03</pdfrwt>
<pdfrwt beam="2">  1       -2 0.73106474E-01 0.21771359E+03</pdfrwt>
<totfact> 0.46786066E+03</totfact>
</mgrwt>
</event>
<event>
 4    1  0.6919593E-004  0.3088727E+03  0.7818608E-02  0.1080887E+00
         -2   -1    0    0    0  501 -0.00000000000E+00  0.00000000000E+00  0.43937162861E+02  0.43937162935E+02  0.25500000000E-02 0. -1.
          2   -1    0    0  501    0  0.00000000000E+00 -0.00000000000E+00 -0.54283393570E+03  0.54283393571E+03  0.25500000000E-02 0.  1.
    5000001    1    1    2    0    0  0.61208620428E+02  0.10762458115E+03 -0.15272982041E+03  0.21115147105E+03  0.77000000000E+02 0.  0.
   -5000001    1    1    2    0    0 -0.61208620428E+02 -0.10762458115E+03 -0.34616695243E+03  0.37561962760E+03  0.77000000000E+02 0.  0.
<mgrwt>
<rscale>  0 0.30887268E+03</rscale>
<asrwt>0</asrwt>
<pdfrwt beam="1">  1        2 0.77547701E-01 0.30887268E+03</pdfrwt>
<pdfrwt beam="2">  1       -2 0.62767379E-02 0.30887268E+03</pdfrwt>
<totfact> 0.85146964E+03</totfact>
</mgrwt>
</event>
<event>
 4    1  0.6919593E-004  0.2726282E+03  0.7818608E-02  0.1099785E+00
          2   -1    0    0  501    0  0.00000000000E+00  0.00000000000E+00  0.37870555340E+03  0.37870555341E+03  0.25500000000E-02 0.  1.
         -2   -1    0    0    0  501 -0.00000000000E+00 -0.00000000000E+00 -0.49065913329E+02  0.49065913395E+02  0.25500000000E-02 0. -1.
    5000001    1    1    2    0    0 -0.83477315058E+02  0.27203562512E+02  0.27514685169E+03  0.29890347261E+03  0.77000000000E+02 0.  0.
   -5000001    1    1    2    0    0  0.83477315058E+02 -0.27203562512E+02  0.54492788384E+02  0.12886799420E+03  0.77000000000E+02 0.  0.
<mgrwt>
<rscale>  0 0.27262820E+03</rscale>
<asrwt>0</asrwt>
<pdfrwt beam="1">  1        2 0.54100796E-01 0.27262820E+03</pdfrwt>
<pdfrwt beam="2">  1       -2 0.70094158E-02 0.27262820E+03</pdfrwt>
<totfact> 0.10605692E+04</totfact>
</mgrwt>
</event>
<event>
 4    1  0.6919593E-004  0.3389434E+03  0.7818608E-02  0.1067247E+00
          2   -1    0    0  501    0  0.00000000000E+00  0.00000000000E+00  0.10356369700E+04  0.10356369700E+04  0.25500000000E-02 0.  1.
         -2   -1    0    0    0  501 -0.00000000000E+00 -0.00000000000E+00 -0.27732354694E+02  0.27732354811E+02  0.25500000000E-02 0. -1.
    5000001    1    1    2    0    0 -0.92778362267E+02  0.11909528455E+03  0.50512845677E+03  0.53279946429E+03  0.77000000000E+02 0.  0.
   -5000001    1    1    2    0    0  0.92778362267E+02 -0.11909528455E+03  0.50277615855E+03  0.53056986054E+03  0.77000000000E+02 0.  0.
<mgrwt>
<rscale>  0 0.33894337E+03</rscale>
<asrwt>0</asrwt>
<pdfrwt beam="1">  1        2 0.14794812E+00 0.33894337E+03</pdfrwt>
<pdfrwt beam="2">  1       -2 0.39617654E-02 0.33894337E+03</pdfrwt>
<totfact> 0.77716947E+03</totfact>
</mgrwt>
</event>
<event>
 4    1  0.6919593E-004  0.2283249E+03  0.7818608E-02  0.1127824E+00
         -2   -1    0    0    0  501 -0.00000000000E+00  0.00000000000E+00  0.43800562863E+02  0.43800562937E+02  0.25500000000E-02 0. -1.
          2   -1    0    0  501    0  0.00000000000E+00 -0.00000000000E+00 -0.29755469616E+03  0.29755469617E+03  0.25500000000E-02 0.  1.
    5000001    1    1    2    0    0 -0.47534961829E+02 -0.65188748400E+02 -0.90411598957E+02  0.14357020144E+03  0.77000000000E+02 0.  0.
   -5000001    1    1    2    0    0  0.47534961829E+02  0.65188748400E+02 -0.16334253434E+03  0.19778505767E+03  0.77000000000E+02 0.  0.
<mgrwt>
<rscale>  0 0.22832488E+03</rscale>
<asrwt>0</asrwt>
<pdfrwt beam="1">  1        2 0.42507813E-01 0.22832488E+03</pdfrwt>
<pdfrwt beam="2">  1       -2 0.62572234E-02 0.22832488E+03</pdfrwt>
<totfact> 0.16216421E+04</totfact>
</mgrwt>
</event>
<event>
 4    1  0.6919593E-004  0.2328505E+03  0.7818608E-02  0.1124649E+00
          2   -1    0    0  501    0  0.00000000000E+00  0.00000000000E+00  0.76647534660E+03  0.76647534660E+03  0.25500000000E-02 0. -1.
         -2   -1    0    0    0  501 -0.00000000000E+00 -0.00000000000E+00 -0.17684641913E+02  0.17684642097E+02  0.25500000000E-02 0.  1.
    5000001    1    1    2    0    0 -0.59281585054E+02 -0.61325224319E+02  0.43746609308E+03  0.45230594962E+03  0.77000000000E+02 0.  0.
   -5000001    1    1    2    0    0  0.59281585054E+02  0.61325224319E+02  0.31132461160E+03  0.33185403908E+03  0.77000000000E+02 0.  0.
<mgrwt>
<rscale>  0 0.23285053E+03</rscale>
<asrwt>0</asrwt>
<pdfrwt beam="1">  1        2 0.10949651E+00 0.23285053E+03</pdfrwt>
<pdfrwt beam="2">  1       -2 0.25263767E-02 0.23285053E+03</pdfrwt>
<totfact> 0.22143341E+04</totfact>
</mgrwt>
</event>
<event>
 4    1  0.6919593E-004  0.3306687E+03  0.7818608E-02  0.1070841E+00
         -2   -1    0    0    0  501 -0.00000000000E+00  0.00000000000E+00  0.21056116820E+03  0.21056116821E+03  0.25500000000E-02 0.  1.
          2   -1    0    0  501    0  0.00000000000E+00 -0.00000000000E+00 -0.12982191311E+03  0.12982191313E+03  0.25500000000E-02 0. -1.
    5000001    1    1    2    0    0 -0.22145063872E+01 -0.14620691748E+03  0.45525457437E+02  0.17141450940E+03  0.77000000000E+02 0.  0.
   -5000001    1    1    2    0    0  0.22145063872E+01  0.14620691748E+03  0.35213797657E+02  0.16896857194E+03  0.77000000000E+02 0.  0.
<mgrwt>
<rscale>  0 0.33066874E+03</rscale>
<asrwt>0</asrwt>
<pdfrwt beam="1">  1        2 0.18545988E-01 0.33066874E+03</pdfrwt>
<pdfrwt beam="2">  1       -2 0.30080167E-01 0.33066874E+03</pdfrwt>
<totfact> 0.30934784E+03</totfact>
</mgrwt>
</event>
<event>
 4    1  0.6919593E-004  0.3345897E+03  0.7818608E-02  0.1069124E+00
         -2   -1    0    0    0  501 -0.00000000000E+00  0.00000000000E+00  0.13290863099E+03  0.13290863101E+03  0.25500000000E-02 0.  1.
          2   -1    0    0  501    0  0.00000000000E+00 -0.00000000000E+00 -0.21057744183E+03  0.21057744184E+03  0.25500000000E-02 0. -1.
    5000001    1    1    2    0    0  0.12617870244E+03  0.76843867724E+02 -0.23180536226E+02  0.16820339537E+03  0.77000000000E+02 0.  0.
   -5000001    1    1    2    0    0 -0.12617870244E+03 -0.76843867724E+02 -0.54488274611E+02  0.17528267748E+03  0.77000000000E+02 0.  0.
<mgrwt>
<rscale>  0 0.33458966E+03</rscale>
<asrwt>0</asrwt>
<pdfrwt beam="1">  1        2 0.30082492E-01 0.33458966E+03</pdfrwt>
<pdfrwt beam="2">  1       -2 0.18986947E-01 0.33458966E+03</pdfrwt>
<totfact> 0.40279454E+03</totfact>
</mgrwt>
</event>
<event>
 4    1  0.6919593E-004  0.3428780E+03  0.7818608E-02  0.1065577E+00
         -2   -1    0    0    0  501 -0.00000000000E+00  0.00000000000E+00  0.19296235510E+03  0.19296235512E+03  0.25500000000E-02 0. -1.
          2   -1    0    0  501    0  0.00000000000E+00 -0.00000000000E+00 -0.15231635977E+03  0.15231635979E+03  0.25500000000E-02 0.  1.
    5000001    1    1    2    0    0 -0.10009470721E+03  0.17002328978E+02 -0.95172222197E+02  0.15904333208E+03  0.77000000000E+02 0.  0.
   -5000001    1    1    2    0    0  0.10009470721E+03 -0.17002328978E+02  0.13581821753E+03  0.18623538283E+03  0.77000000000E+02 0.  0.
<mgrwt>
<rscale>  0 0.34287796E+03</rscale>
<asrwt>0</asrwt>
<pdfrwt beam="1">  1        2 0.21759480E-01 0.34287796E+03</pdfrwt>
<pdfrwt beam="2">  1       -2 0.27566051E-01 0.34287796E+03</pdfrwt>
<totfact> 0.30172387E+03</totfact>
</mgrwt>
</event>
<event>
 4    1  0.6919593E-004  0.2973747E+03  0.7818608E-02  0.1086560E+00
          2   -1    0    0  501    0  0.00000000000E+00  0.00000000000E+00  0.29601895640E+02  0.29601895750E+02  0.25500000000E-02 0.  1.
         -2   -1    0    0    0  501 -0.00000000000E+00 -0.00000000000E+00 -0.74684179020E+03  0.74684179021E+03  0.25500000000E-02 0. -1.
    5000001    1    1    2    0    0  0.28157418326E+02  0.99170105316E+02 -0.55315886092E+03  0.56792717439E+03  0.77000000000E+02 0.  0.
   -5000001    1    1    2    0    0 -0.28157418326E+02 -0.99170105316E+02 -0.16408103364E+03  0.20851651157E+03  0.77000000000E+02 0.  0.
<mgrwt>
<rscale>  0 0.29737473E+03</rscale>
<asrwt>0</asrwt>
<pdfrwt beam="1">  1        2 0.42288427E-02 0.29737473E+03</pdfrwt>
<pdfrwt beam="2">  1       -2 0.10669167E+00 0.29737473E+03</pdfrwt>
<totfact> 0.14517531E+03</totfact>
</mgrwt>
</event>
<event>
 4    1  0.6919593E-004  0.2255890E+03  0.7818608E-02  0.1129783E+00
         -2   -1    0    0    0  501 -0.00000000000E+00  0.00000000000E+00  0.82703416606E+01  0.82703420537E+01  0.25500000000E-02 0. -1.
          2   -1    0    0  501    0  0.00000000000E+00 -0.00000000000E+00 -0.15383408484E+04  0.15383408484E+04  0.25500000000E-02 0.  1.
    5000001    1    1    2    0    0 -0.69448740271E+02 -0.26990589315E+02 -0.52342166296E+03  0.53427601172E+03  0.77000000000E+02 0.  0.
   -5000001    1    1    2    0    0  0.69448740271E+02  0.26990589315E+02 -0.10066488438E+04  0.10123351787E+04  0.77000000000E+02 0.  0.
<mgrwt>
<rscale>  0 0.22558905E+03</rscale>
<asrwt>0</asrwt>
<pdfrwt beam="1">  1        2 0.21976280E+00 0.22558905E+03</pdfrwt>
<pdfrwt beam="2">  1       -2 0.11814784E-02 0.22558905E+03</pdfrwt>
<totfact> 0.24694531E+04</totfact>
</mgrwt>
</event>
<event>
 4    1  0.6919593E-004  0.3159657E+03  0.7818608E-02  0.1077521E+00
         -2   -1    0    0    0  501 -0.00000000000E+00  0.00000000000E+00  0.79963346744E+02  0.79963346785E+02  0.25500000000E-02 0. -1.
          2   -1    0    0  501    0  0.00000000000E+00 -0.00000000000E+00 -0.31212533505E+03  0.31212533506E+03  0.25500000000E-02 0.  1.
    5000001    1    1    2    0    0 -0.81542473488E+02  0.90843106510E+02 -0.19580903293E+03  0.24325258962E+03  0.77000000000E+02 0.  0.
   -5000001    1    1    2    0    0  0.81542473488E+02 -0.90843106510E+02 -0.36352955379E+02  0.14883609222E+03  0.77000000000E+02 0.  0.
<mgrwt>
<rscale>  0 0.31596573E+03</rscale>
<asrwt>0</asrwt>
<pdfrwt beam="1">  1        2 0.44589333E-01 0.31596573E+03</pdfrwt>
<pdfrwt beam="2">  1       -2 0.11423335E-01 0.31596573E+03</pdfrwt>
<totfact> 0.60765027E+03</totfact>
</mgrwt>
</event>
<event>
 4    1  0.6919593E-004  0.2022753E+03  0.7818608E-02  0.1147833E+00
         -2   -1    0    0    0  501 -0.00000000000E+00  0.00000000000E+00  0.18250532185E+03  0.18250532186E+03  0.25500000000E-02 0. -1.
          2   -1    0    0  501    0  0.00000000000E+00 -0.00000000000E+00 -0.56046731842E+02  0.56046731900E+02  0.25500000000E-02 0.  1.
    5000001    1    1    2    0    0 -0.18630558813E+02  0.56122350056E+02  0.96648874657E+02  0.13699204674E+03  0.77000000000E+02 0.  0.
   -5000001    1    1    2    0    0  0.18630558813E+02 -0.56122350056E+02  0.29809715346E+02  0.10156000702E+03  0.77000000000E+02 0.  0.
<mgrwt>
<rscale>  0 0.20227533E+03</rscale>
<asrwt>0</asrwt>
<pdfrwt beam="1">  1        2 0.80066760E-02 0.20227533E+03</pdfrwt>
<pdfrwt beam="2">  1       -2 0.26072189E-01 0.20227533E+03</pdfrwt>
<totfact> 0.10848429E+04</totfact>
</mgrwt>
</event>
<event>
 4    1  0.6919593E-004  0.1781666E+03  0.7818608E-02  0.1169589E+00
          2   -1    0    0  501    0  0.00000000000E+00  0.00000000000E+00  0.21871407350E+02  0.21871407499E+02  0.25500000000E-02 0.  1.
         -2   -1    0    0    0  501 -0.00000000000E+00 -0.00000000000E+00 -0.36284072880E+03  0.36284072880E+03  0.25500000000E-02 0. -1.
    5000001    1    1    2    0    0  0.12508065484E+02  0.32165087946E+02 -0.10881103909E+03  0.13769490482E+03  0.77000000000E+02 0.  0.
   -5000001    1    1    2    0    0 -0.12508065484E+02 -0.32165087946E+02 -0.23215828236E+03  0.24701723149E+03  0.77000000000E+02 0.  0.
<mgrwt>
<rscale>  0 0.17816663E+03</rscale>
<asrwt>0</asrwt>
<pdfrwt beam="1">  1        2 0.31244870E-02 0.17816663E+03</pdfrwt>
<pdfrwt beam="2">  1       -2 0.51834386E-01 0.17816663E+03</pdfrwt>
<totfact> 0.10170788E+04</totfact>
</mgrwt>
</event>
<event>
 4    1  0.6919593E-004  0.1964101E+03  0.7818608E-02  0.1152804E+00
          2   -1    0    0  501    0  0.00000000000E+00  0.00000000000E+00  0.80646915856E+03  0.80646915856E+03  0.25500000000E-02 0.  1.
         -2   -1    0    0    0  501 -0.00000000000E+00 -0.00000000000E+00 -0.11958592328E+02  0.11958592600E+02  0.25500000000E-02 0. -1.
    5000001    1    1    2    0    0 -0.53607046859E+02 -0.27135782596E+02  0.43998815025E+03  0.45069794600E+03  0.77000000000E+02 0.  0.
   -5000001    1    1    2    0    0  0.53607046859E+02  0.27135782596E+02  0.35452241598E+03  0.36772980516E+03  0.77000000000E+02 0.  0.
<mgrwt>
<rscale>  0 0.19641014E+03</rscale>
<asrwt>0</asrwt>
<pdfrwt beam="1">  1        2 0.11520990E+00 0.19641014E+03</pdfrwt>
<pdfrwt beam="2">  1       -2 0.17083701E-02 0.19641014E+03</pdfrwt>
<totfact> 0.36494854E+04</totfact>
</mgrwt>
</event>
<event>
 4    1  0.6919593E-004  0.2817629E+03  0.7818608E-02  0.1094730E+00
          2   -1    0    0  501    0  0.00000000000E+00  0.00000000000E+00  0.14917208714E+03  0.14917208716E+03  0.25500000000E-02 0.  1.
         -2   -1    0    0    0  501 -0.00000000000E+00 -0.00000000000E+00 -0.13305157085E+03  0.13305157087E+03  0.25500000000E-02 0. -1.
    5000001    1    1    2    0    0  0.77175424604E+02  0.74042462580E+02 -0.41823274008E+02  0.13826249917E+03  0.77000000000E+02 0.  0.
   -5000001    1    1    2    0    0 -0.77175424604E+02 -0.74042462580E+02  0.57943790304E+02  0.14396115887E+03  0.77000000000E+02 0.  0.
<mgrwt>
<rscale>  0 0.28176288E+03</rscale>
<asrwt>0</asrwt>
<pdfrwt beam="1">  1        2 0.21310298E-01 0.28176288E+03</pdfrwt>
<pdfrwt beam="2">  1       -2 0.19007367E-01 0.28176288E+03</pdfrwt>
<totfact> 0.58837807E+03</totfact>
</mgrwt>
</event>
<event>
 4    1  0.6919593E-004  0.2231324E+03  0.7818608E-02  0.1131569E+00
         -2   -1    0    0    0  501 -0.00000000000E+00  0.00000000000E+00  0.33660058363E+02  0.33660058459E+02  0.25500000000E-02 0. -1.
          2   -1    0    0  501    0  0.00000000000E+00 -0.00000000000E+00 -0.36978589320E+03  0.36978589321E+03  0.25500000000E-02 0.  1.
    5000001    1    1    2    0    0  0.44167647865E+02  0.66520745118E+02 -0.18962592772E+03  0.21968792209E+03  0.77000000000E+02 0.  0.
   -5000001    1    1    2    0    0 -0.44167647865E+02 -0.66520745118E+02 -0.14649990712E+03  0.18375802958E+03  0.77000000000E+02 0.  0.
<mgrwt>
<rscale>  0 0.22313238E+03</rscale>
<asrwt>0</asrwt>
<pdfrwt beam="1">  1        2 0.52826554E-01 0.22313238E+03</pdfrwt>
<pdfrwt beam="2">  1       -2 0.48085800E-02 0.22313238E+03</pdfrwt>
<totfact> 0.19151199E+04</totfact>
</mgrwt>
</event>
<event>
 4    1  0.6919593E-004  0.2585026E+03  0.7818608E-02  0.1108046E+00
          2   -1    0    0  501    0  0.00000000000E+00  0.00000000000E+00  0.28318551942E+04  0.28318551942E+04  0.25500000000E-02 0.  1.
         -2   -1    0    0    0  501 -0.00000000000E+00 -0.00000000000E+00 -0.58992756032E+01  0.58992761544E+01  0.25500000000E-02 0. -1.
    5000001    1    1    2    0    0 -0.95947160787E+02  0.36182553327E+01  0.97968055022E+03  0.98738134979E+03  0.77000000000E+02 0.  0.
   -5000001    1    1    2    0    0  0.95947160787E+02 -0.36182553327E+01  0.18462753683E+04  0.18503731205E+04  0.77000000000E+02 0.  0.
<mgrwt>
<rscale>  0 0.25850257E+03</rscale>
<asrwt>0</asrwt>
<pdfrwt beam="1">  1        2 0.40455227E+00 0.25850257E+03</pdfrwt>
<pdfrwt beam="2">  1       -2 0.84275052E-03 0.25850257E+03</pdfrwt>
<totfact> 0.92933279E+03</totfact>
</mgrwt>
</event>
<event>
 4    1  0.6919593E-004  0.2128732E+03  0.7818608E-02  0.1139311E+00
          2   -1    0    0  501    0  0.00000000000E+00  0.00000000000E+00  0.11107578299E+04  0.11107578300E+04  0.25500000000E-02 0.  1.
         -2   -1    0    0    0  501 -0.00000000000E+00 -0.00000000000E+00 -0.10199122212E+02  0.10199122531E+02  0.25500000000E-02 0. -1.
    5000001    1    1    2    0    0 -0.81180420560E+01  0.57748337257E+02  0.31484367127E+03  0.32932705689E+03  0.77000000000E+02 0.  0.
   -5000001    1    1    2    0    0  0.81180420560E+01 -0.57748337257E+02  0.78571503647E+03  0.79162989559E+03  0.77000000000E+02 0.  0.
<mgrwt>
<rscale>  0 0.21287325E+03</rscale>
<asrwt>0</asrwt>
<pdfrwt beam="1">  1        2 0.15867963E+00 0.21287325E+03</pdfrwt>
<pdfrwt beam="2">  1       -2 0.14570180E-02 0.21287325E+03</pdfrwt>
<totfact> 0.30352749E+04</totfact>
</mgrwt>
</event>
<event>
 4    1  0.6919593E-004  0.1827504E+03  0.7818608E-02  0.1165167E+00
          2   -1    0    0  501    0  0.00000000000E+00  0.00000000000E+00  0.14711630587E+03  0.14711630589E+03  0.25500000000E-02 0.  1.
         -2   -1    0    0    0  501 -0.00000000000E+00 -0.00000000000E+00 -0.56753945731E+02  0.56753945789E+02  0.25500000000E-02 0. -1.
    5000001    1    1    2    0    0  0.59582108377E+01  0.46387095364E+02  0.28146661693E+02  0.94384837009E+02  0.77000000000E+02 0.  0.
   -5000001    1    1    2    0    0 -0.59582108377E+01 -0.46387095364E+02  0.62215698444E+02  0.10948541467E+03  0.77000000000E+02 0.  0.
<mgrwt>
<rscale>  0 0.18275044E+03</rscale>
<asrwt>0</asrwt>
<pdfrwt beam="1">  1        2 0.21016615E-01 0.18275044E+03</pdfrwt>
<pdfrwt beam="2">  1       -2 0.81077066E-02 0.18275044E+03</pdfrwt>
<totfact> 0.23136440E+04</totfact>
</mgrwt>
</event>
<event>
 4    1  0.6919593E-004  0.2436876E+03  0.7818608E-02  0.1117360E+00
         -2   -1    0    0    0  501 -0.00000000000E+00  0.00000000000E+00  0.18669176284E+03  0.18669176286E+03  0.25500000000E-02 0. -1.
          2   -1    0    0  501    0  0.00000000000E+00 -0.00000000000E+00 -0.79520973968E+02  0.79520974009E+02  0.25500000000E-02 0.  1.
    5000001    1    1    2    0    0 -0.25130320801E+02  0.33935043185E+02 -0.38683558189E+02  0.95961126784E+02  0.77000000000E+02 0.  0.
   -5000001    1    1    2    0    0  0.25130320801E+02 -0.33935043185E+02  0.14585434707E+03  0.17025161009E+03  0.77000000000E+02 0.  0.
<mgrwt>
<rscale>  0 0.24368759E+03</rscale>
<asrwt>0</asrwt>
<pdfrwt beam="1">  1        2 0.11360139E-01 0.24368759E+03</pdfrwt>
<pdfrwt beam="2">  1       -2 0.26670252E-01 0.24368759E+03</pdfrwt>
<totfact> 0.68174680E+03</totfact>
</mgrwt>
</event>
<event>
 4    1  0.6919593E-004  0.2969850E+03  0.7818608E-02  0.1086758E+00
         -2   -1    0    0    0  501 -0.00000000000E+00  0.00000000000E+00  0.15458655406E+02  0.15458655617E+02  0.25500000000E-02 0. -1.
          2   -1    0    0  501    0  0.00000000000E+00 -0.00000000000E+00 -0.14263869644E+04  0.14263869644E+04  0.25500000000E-02 0.  1.
    5000001    1    1    2    0    0  0.27090301262E+02 -0.12182386542E+03 -0.59201146671E+03  0.60990287368E+03  0.77000000000E+02 0.  0.
   -5000001    1    1    2    0    0 -0.27090301262E+02  0.12182386542E+03 -0.81891684233E+03  0.83194274639E+03  0.77000000000E+02 0.  0.
<mgrwt>
<rscale>  0 0.29698501E+03</rscale>
<asrwt>0</asrwt>
<pdfrwt beam="1">  1        2 0.20376948E+00 0.29698501E+03</pdfrwt>
<pdfrwt beam="2">  1       -2 0.22083803E-02 0.29698501E+03</pdfrwt>
<totfact> 0.11378731E+04</totfact>
</mgrwt>
</event>
<event>
 4    1  0.6919593E-004  0.2332792E+03  0.7818608E-02  0.1124353E+00
         -2   -1    0    0    0  501 -0.00000000000E+00  0.00000000000E+00  0.39839616594E+02  0.39839616675E+02  0.25500000000E-02 0. -1.
          2   -1    0    0  501    0  0.00000000000E+00 -0.00000000000E+00 -0.34148919426E+03  0.34148919427E+03  0.25500000000E-02 0.  1.
    5000001    1    1    2    0    0  0.34113333972E+02 -0.78947738451E+02 -0.17814507066E+03  0.21227607298E+03  0.77000000000E+02 0.  0.
   -5000001    1    1    2    0    0 -0.34113333972E+02  0.78947738451E+02 -0.12350450701E+03  0.16905273797E+03  0.77000000000E+02 0.  0.
<mgrwt>
<rscale>  0 0.23327922E+03</rscale>
<asrwt>0</asrwt>
<pdfrwt beam="1">  1        2 0.48784169E-01 0.23327922E+03</pdfrwt>
<pdfrwt beam="2">  1       -2 0.56913740E-02 0.23327922E+03</pdfrwt>
<totfact> 0.16195376E+04</totfact>
</mgrwt>
</event>
<event>
 4    1  0.6919593E-004  0.2754605E+03  0.7818608E-02  0.1098194E+00
         -2   -1    0    0    0  501 -0.00000000000E+00  0.00000000000E+00  0.10626211464E+03  0.10626211467E+03  0.25500000000E-02 0. -1.
          2   -1    0    0  501    0  0.00000000000E+00 -0.00000000000E+00 -0.17851723670E+03  0.17851723672E+03  0.25500000000E-02 0.  1.
    5000001    1    1    2    0    0 -0.28541683725E+02  0.83122395109E+02  0.39254601286E+02  0.12326347391E+03  0.77000000000E+02 0.  0.
   -5000001    1    1    2    0    0  0.28541683725E+02 -0.83122395109E+02 -0.11150972335E+03  0.16151587748E+03  0.77000000000E+02 0.  0.
<mgrwt>
<rscale>  0 0.27546048E+03</rscale>
<asrwt>0</asrwt>
<pdfrwt beam="1">  1        2 0.25502462E-01 0.27546048E+03</pdfrwt>
<pdfrwt beam="2">  1       -2 0.15180302E-01 0.27546048E+03</pdfrwt>
<totfact> 0.70002295E+03</totfact>
</mgrwt>
</event>
<event>
 4    1  0.6919593E-004  0.1775499E+03  0.7818608E-02  0.1170196E+00
         -2   -1    0    0    0  501 -0.00000000000E+00  0.00000000000E+00  0.23848589948E+04  0.23848589948E+04  0.25500000000E-02 0. -1.
          2   -1    0    0  501    0  0.00000000000E+00 -0.00000000000E+00 -0.33045942695E+01  0.33045952534E+01  0.25500000000E-02 0.  1.
    5000001    1    1    2    0    0  0.18015306175E+02 -0.34688742227E+02  0.14677865129E+04  0.14703244906E+04  0.77000000000E+02 0.  0.
   -5000001    1    1    2    0    0 -0.18015306175E+02  0.34688742227E+02  0.91376788762E+03  0.91783909948E+03  0.77000000000E+02 0.  0.
<mgrwt>
<rscale>  0 0.17754991E+03</rscale>
<asrwt>0</asrwt>
<pdfrwt beam="1">  1        2 0.47208653E-03 0.17754991E+03</pdfrwt>
<pdfrwt beam="2">  1       -2 0.34069301E+00 0.17754991E+03</pdfrwt>
<totfact> 0.86564354E+02</totfact>
</mgrwt>
</event>
<event>
 4    1  0.6919593E-004  0.2636277E+03  0.7818608E-02  0.1104983E+00
          2   -1    0    0  501    0  0.00000000000E+00  0.00000000000E+00  0.16269159939E+03  0.16269159941E+03  0.25500000000E-02 0.  1.
         -2   -1    0    0    0  501 -0.00000000000E+00 -0.00000000000E+00 -0.10679648697E+03  0.10679648700E+03  0.25500000000E-02 0. -1.
    5000001    1    1    2    0    0 -0.10479575906E+03 -0.16527880792E+02  0.42059116024E+02  0.13767095264E+03  0.77000000000E+02 0.  0.
   -5000001    1    1    2    0    0  0.10479575906E+03  0.16527880792E+02  0.13835996402E+02  0.13181713377E+03  0.77000000000E+02 0.  0.
<mgrwt>
<rscale>  0 0.26362770E+03</rscale>
<asrwt>0</asrwt>
<pdfrwt beam="1">  1        2 0.23241657E-01 0.26362770E+03</pdfrwt>
<pdfrwt beam="2">  1       -2 0.15256641E-01 0.26362770E+03</pdfrwt>
<totfact> 0.76888319E+03</totfact>
</mgrwt>
</event>
<event>
 4    1  0.6919593E-004  0.2784817E+03  0.7818608E-02  0.1096521E+00
         -2   -1    0    0    0  501 -0.00000000000E+00  0.00000000000E+00  0.19817595520E+03  0.19817595521E+03  0.25500000000E-02 0. -1.
          2   -1    0    0  501    0  0.00000000000E+00 -0.00000000000E+00 -0.97832291571E+02  0.97832291604E+02  0.25500000000E-02 0.  1.
    5000001    1    1    2    0    0  0.99744254442E+02  0.59130618049E+02  0.46243055835E+02  0.14667230992E+03  0.77000000000E+02 0.  0.
   -5000001    1    1    2    0    0 -0.99744254442E+02 -0.59130618049E+02  0.54100607790E+02  0.14933593689E+03  0.77000000000E+02 0.  0.
<mgrwt>
<rscale>  0 0.27848165E+03</rscale>
<asrwt>0</asrwt>
<pdfrwt beam="1">  1        2 0.13976041E-01 0.27848165E+03</pdfrwt>
<pdfrwt beam="2">  1       -2 0.28310851E-01 0.27848165E+03</pdfrwt>
<totfact> 0.47953824E+03</totfact>
</mgrwt>
</event>
<event>
 4    1  0.6919593E-004  0.2415623E+03  0.7818608E-02  0.1118756E+00
          2   -1    0    0  501    0  0.00000000000E+00  0.00000000000E+00  0.45735988832E+02  0.45735988903E+02  0.25500000000E-02 0. -1.
         -2   -1    0    0    0  501 -0.00000000000E+00 -0.00000000000E+00 -0.31896307135E+03  0.31896307136E+03  0.25500000000E-02 0.  1.
    5000001    1    1    2    0    0  0.60454516412E+02  0.10244836178E+02 -0.30937569657E+02  0.10317867240E+03  0.77000000000E+02 0.  0.
   -5000001    1    1    2    0    0 -0.60454516412E+02 -0.10244836178E+02 -0.24228951286E+03  0.26152038785E+03  0.77000000000E+02 0.  0.
<mgrwt>
<rscale>  0 0.24156234E+03</rscale>
<asrwt>0</asrwt>
<pdfrwt beam="1">  1        2 0.65337129E-02 0.24156234E+03</pdfrwt>
<pdfrwt beam="2">  1       -2 0.45566152E-01 0.24156234E+03</pdfrwt>
<totfact> 0.50421177E+03</totfact>
</mgrwt>
</event>
<event>
 4    1  0.6919593E-004  0.4116548E+03  0.7818608E-02  0.1039817E+00
         -2   -1    0    0    0  501 -0.00000000000E+00  0.00000000000E+00  0.95137790649E+02  0.95137790683E+02  0.25500000000E-02 0. -1.
          2   -1    0    0  501    0  0.00000000000E+00 -0.00000000000E+00 -0.44530054233E+03  0.44530054234E+03  0.25500000000E-02 0.  1.
    5000001    1    1    2    0    0  0.65357407873E+02  0.15617770285E+03 -0.29082657515E+03  0.34521321302E+03  0.77000000000E+02 0.  0.
   -5000001    1    1    2    0    0 -0.65357407873E+02 -0.15617770285E+03 -0.59336176531E+02  0.19522512000E+03  0.77000000000E+02 0.  0.
<mgrwt>
<rscale>  0 0.41165476E+03</rscale>
<asrwt>0</asrwt>
<pdfrwt beam="1">  1        2 0.63614362E-01 0.41165476E+03</pdfrwt>
<pdfrwt beam="2">  1       -2 0.13591113E-01 0.41165476E+03</pdfrwt>
<totfact> 0.31255990E+03</totfact>
</mgrwt>
</event>
<event>
 4    1  0.6919593E-004  0.2685123E+03  0.7818608E-02  0.1102134E+00
         -2   -1    0    0    0  501 -0.00000000000E+00  0.00000000000E+00  0.58065470478E+02  0.58065470534E+02  0.25500000000E-02 0. -1.
          2   -1    0    0  501    0  0.00000000000E+00 -0.00000000000E+00 -0.31042061913E+03  0.31042061914E+03  0.25500000000E-02 0.  1.
    5000001    1    1    2    0    0  0.80676432742E+02 -0.50364506525E+02 -0.50382893121E+02  0.13233558190E+03  0.77000000000E+02 0.  0.
   -5000001    1    1    2    0    0 -0.80676432742E+02  0.50364506525E+02 -0.20197225553E+03  0.23615050777E+03  0.77000000000E+02 0.  0.
<mgrwt>
<rscale>  0 0.26851234E+03</rscale>
<asrwt>0</asrwt>
<pdfrwt beam="1">  1        2 0.44345802E-01 0.26851234E+03</pdfrwt>
<pdfrwt beam="2">  1       -2 0.82950674E-02 0.26851234E+03</pdfrwt>
<totfact> 0.10099700E+04</totfact>
</mgrwt>
</event>
<event>
 4    1  0.6919593E-004  0.4205870E+03  0.7818608E-02  0.1036875E+00
          2   -1    0    0  501    0  0.00000000000E+00  0.00000000000E+00  0.17417727320E+04  0.17417727320E+04  0.25500000000E-02 0.  1.
         -2   -1    0    0    0  501 -0.00000000000E+00 -0.00000000000E+00 -0.25389858901E+02  0.25389859029E+02  0.25500000000E-02 0. -1.
    5000001    1    1    2    0    0 -0.14790214143E+02  0.17483713739E+03  0.49413319273E+03  0.52998432732E+03  0.77000000000E+02 0.  0.
   -5000001    1    1    2    0    0  0.14790214143E+02 -0.17483713739E+03  0.12222496804E+04  0.12371782637E+04  0.77000000000E+02 0.  0.
<mgrwt>
<rscale>  0 0.42058704E+03</rscale>
<asrwt>0</asrwt>
<pdfrwt beam="1">  1        2 0.24882475E+00 0.42058704E+03</pdfrwt>
<pdfrwt beam="2">  1       -2 0.36271217E-02 0.42058704E+03</pdfrwt>
<totfact> 0.37644213E+03</totfact>
</mgrwt>
</event>
<event>
 4    1  0.6919593E-004  0.2690652E+03  0.7818608E-02  0.1101816E+00
          2   -1    0    0  501    0  0.00000000000E+00  0.00000000000E+00  0.77131351995E+03  0.77131351995E+03  0.25500000000E-02 0.  1.
         -2   -1    0    0    0  501 -0.00000000000E+00 -0.00000000000E+00 -0.23465198961E+02  0.23465199099E+02  0.25500000000E-02 0. -1.
    5000001    1    1    2    0    0  0.65680301893E+02 -0.76848689186E+02  0.24347216473E+03  0.27464034315E+03  0.77000000000E+02 0.  0.
   -5000001    1    1    2    0    0 -0.65680301893E+02  0.76848689186E+02  0.50437615626E+03  0.52013837590E+03  0.77000000000E+02 0.  0.
<mgrwt>
<rscale>  0 0.26906524E+03</rscale>
<asrwt>0</asrwt>
<pdfrwt beam="1">  1        2 0.11018765E+00 0.26906524E+03</pdfrwt>
<pdfrwt beam="2">  1       -2 0.33521711E-02 0.26906524E+03</pdfrwt>
<totfact> 0.14547421E+04</totfact>
</mgrwt>
</event>
<event>
 4    1  0.6919593E-004  0.1939671E+03  0.7818608E-02  0.1154931E+00
          2   -1    0    0  501    0  0.00000000000E+00  0.00000000000E+00  0.23674432428E+04  0.23674432428E+04  0.25500000000E-02 0.  1.
         -2   -1    0    0    0  501 -0.00000000000E+00 -0.00000000000E+00 -0.39729821963E+01  0.39729830147E+01  0.25500000000E-02 0. -1.
    5000001    1    1    2    0    0  0.13290108511E+02 -0.52325416045E+02  0.89184162479E+03  0.89678596101E+03  0.77000000000E+02 0.  0.
   -5000001    1    1    2    0    0 -0.13290108511E+02  0.52325416045E+02  0.14716286358E+04  0.14746302648E+04  0.77000000000E+02 0.  0.
<mgrwt>
<rscale>  0 0.19396712E+03</rscale>
<asrwt>0</asrwt>
<pdfrwt beam="1">  1        2 0.33820518E+00 0.19396712E+03</pdfrwt>
<pdfrwt beam="2">  1       -2 0.56757061E-03 0.19396712E+03</pdfrwt>
<totfact> 0.27853367E+04</totfact>
</mgrwt>
</event>
<event>
 4    1  0.6919593E-004  0.4221790E+03  0.7818608E-02  0.1036359E+00
          2   -1    0    0  501    0  0.00000000000E+00  0.00000000000E+00  0.56563209653E+02  0.56563209710E+02  0.25500000000E-02 0.  1.
         -2   -1    0    0    0  501 -0.00000000000E+00 -0.00000000000E+00 -0.78776950149E+03  0.78776950149E+03  0.25500000000E-02 0. -1.
    5000001    1    1    2    0    0  0.15296128448E+02 -0.18991577999E+03 -0.26911154386E+03  0.33860300954E+03  0.77000000000E+02 0.  0.
   -5000001    1    1    2    0    0 -0.15296128448E+02  0.18991577999E+03 -0.46209474798E+03  0.50572970166E+03  0.77000000000E+02 0.  0.
<mgrwt>
<rscale>  0 0.42217897E+03</rscale>
<asrwt>0</asrwt>
<pdfrwt beam="1">  1        2 0.80804590E-02 0.42217897E+03</pdfrwt>
<pdfrwt beam="2">  1       -2 0.11253849E+00 0.42217897E+03</pdfrwt>
<totfact> 0.54789253E+02</totfact>
</mgrwt>
</event>
<event>
 4    1  0.6919593E-004  0.2580883E+03  0.7818608E-02  0.1108297E+00
         -2   -1    0    0    0  501 -0.00000000000E+00  0.00000000000E+00  0.38251695164E+02  0.38251695249E+02  0.25500000000E-02 0. -1.
          2   -1    0    0  501    0  0.00000000000E+00 -0.00000000000E+00 -0.43533749582E+03  0.43533749583E+03  0.25500000000E-02 0.  1.
    5000001    1    1    2    0    0 -0.75385943005E+02 -0.55222069796E+02 -0.28041877009E+03  0.30544427318E+03  0.77000000000E+02 0.  0.
   -5000001    1    1    2    0    0  0.75385943005E+02  0.55222069796E+02 -0.11666703056E+03  0.16814491790E+03  0.77000000000E+02 0.  0.
<mgrwt>
<rscale>  0 0.25808834E+03</rscale>
<asrwt>0</asrwt>
<pdfrwt beam="1">  1        2 0.62191068E-01 0.25808834E+03</pdfrwt>
<pdfrwt beam="2">  1       -2 0.54645282E-02 0.25808834E+03</pdfrwt>
<totfact> 0.13336071E+04</totfact>
</mgrwt>
</event>
<event>
 4    1  0.6919593E-004  0.6766177E+03  0.7818608E-02  0.9758076E-01
         -2   -1    0    0    0  501 -0.00000000000E+00  0.00000000000E+00  0.84298736912E+02  0.84298736951E+02  0.25500000000E-02 0. -1.
          2   -1    0    0  501    0  0.00000000000E+00 -0.00000000000E+00 -0.13577057315E+04  0.13577057315E+04  0.25500000000E-02 0.  1.
    5000001    1    1    2    0    0 -0.12549488907E+03 -0.14667207277E+03 -0.67781262782E+02  0.21859772117E+03  0.77000000000E+02 0.  0.
   -5000001    1    1    2    0    0  0.12549488907E+03  0.14667207277E+03 -0.12056257318E+04  0.12234067473E+04  0.77000000000E+02 0.  0.
<mgrwt>
<rscale>  0 0.67661770E+03</rscale>
<asrwt>0</asrwt>
<pdfrwt beam="1">  1        2 0.19395795E+00 0.67661770E+03</pdfrwt>
<pdfrwt beam="2">  1       -2 0.12042678E-01 0.67661770E+03</pdfrwt>
<totfact> 0.89137577E+02</totfact>
</mgrwt>
</event>
<event>
 4    1  0.6919593E-004  0.2360577E+03  0.7818608E-02  0.1122447E+00
          2   -1    0    0  501    0  0.00000000000E+00  0.00000000000E+00  0.69027840040E+02  0.69027840087E+02  0.25500000000E-02 0.  1.
         -2   -1    0    0    0  501 -0.00000000000E+00 -0.00000000000E+00 -0.20181432120E+03  0.20181432122E+03  0.25500000000E-02 0. -1.
    5000001    1    1    2    0    0 -0.11183002226E+02  0.88455317418E+02 -0.74699017170E+02  0.13949317505E+03  0.77000000000E+02 0.  0.
   -5000001    1    1    2    0    0  0.11183002226E+02 -0.88455317418E+02 -0.58087463991E+02  0.13134898626E+03  0.77000000000E+02 0.  0.
<mgrwt>
<rscale>  0 0.23605768E+03</rscale>
<asrwt>0</asrwt>
<pdfrwt beam="1">  1        2 0.98611201E-02 0.23605768E+03</pdfrwt>
<pdfrwt beam="2">  1       -2 0.28830617E-01 0.23605768E+03</pdfrwt>
<totfact> 0.70488794E+03</totfact>
</mgrwt>
</event>
<event>
 4    1  0.6919593E-004  0.3150697E+03  0.7818608E-02  0.1077941E+00
          2   -1    0    0  501    0  0.00000000000E+00  0.00000000000E+00  0.19662523371E+04  0.19662523371E+04  0.25500000000E-02 0.  1.
         -2   -1    0    0    0  501 -0.00000000000E+00 -0.00000000000E+00 -0.12621588861E+02  0.12621589119E+02  0.25500000000E-02 0. -1.
    5000001    1    1    2    0    0 -0.71127648250E+02  0.88653765526E+02  0.14620859640E+04  0.14685172790E+04  0.77000000000E+02 0.  0.
   -5000001    1    1    2    0    0  0.71127648250E+02 -0.88653765526E+02  0.49154478423E+03  0.51035664725E+03  0.77000000000E+02 0.  0.
<mgrwt>
<rscale>  0 0.31506970E+03</rscale>
<asrwt>0</asrwt>
<pdfrwt beam="1">  1        2 0.28089311E+00 0.31506970E+03</pdfrwt>
<pdfrwt beam="2">  1       -2 0.18030846E-02 0.31506970E+03</pdfrwt>
<totfact> 0.82774869E+03</totfact>
</mgrwt>
</event>
<event>
 4    1  0.6919593E-004  0.1793506E+03  0.7818608E-02  0.1168433E+00
          2   -1    0    0  501    0  0.00000000000E+00  0.00000000000E+00  0.11696844634E+04  0.11696844634E+04  0.25500000000E-02 0.  1.
         -2   -1    0    0    0  501 -0.00000000000E+00 -0.00000000000E+00 -0.68750694037E+01  0.68750698766E+01  0.25500000000E-02 0. -1.
    5000001    1    1    2    0    0 -0.26214353865E+02  0.37349574633E+02  0.61762164701E+03  0.62407345876E+03  0.77000000000E+02 0.  0.
   -5000001    1    1    2    0    0  0.26214353865E+02 -0.37349574633E+02  0.54518774702E+03  0.55248607455E+03  0.77000000000E+02 0.  0.
<mgrwt>
<rscale>  0 0.17935063E+03</rscale>
<asrwt>0</asrwt>
<pdfrwt beam="1">  1        2 0.16709779E+00 0.17935063E+03</pdfrwt>
<pdfrwt beam="2">  1       -2 0.98215277E-03 0.17935063E+03</pdfrwt>
<totfact> 0.49218831E+04</totfact>
</mgrwt>
</event>
<event>
 4    1  0.6919593E-004  0.1652755E+03  0.7818608E-02  0.1182866E+00
         -2   -1    0    0    0  501 -0.00000000000E+00  0.00000000000E+00  0.27389168266E+01  0.27389180136E+01  0.25500000000E-02 0. -1.
          2   -1    0    0  501    0  0.00000000000E+00 -0.00000000000E+00 -0.24933212094E+04  0.24933212094E+04  0.25500000000E-02 0.  1.
    5000001    1    1    2    0    0 -0.28433788769E+02  0.49800145514E+01 -0.11219311039E+04  0.11249407464E+04  0.77000000000E+02 0.  0.
   -5000001    1    1    2    0    0  0.28433788769E+02 -0.49800145514E+01 -0.13686511887E+04  0.13711193811E+04  0.77000000000E+02 0.  0.
<mgrwt>
<rscale>  0 0.16527554E+03</rscale>
<asrwt>0</asrwt>
<pdfrwt beam="1">  1        2 0.35618729E+00 0.16527554E+03</pdfrwt>
<pdfrwt beam="2">  1       -2 0.39127552E-03 0.16527554E+03</pdfrwt>
<totfact> 0.40741385E+04</totfact>
</mgrwt>
</event>
<event>
 4    1  0.6919593E-004  0.6988415E+03  0.7818608E-02  0.9719215E-01
         -2   -1    0    0    0  501 -0.00000000000E+00  0.00000000000E+00  0.69384205601E+02  0.69384205648E+02  0.25500000000E-02 0. -1.
          2   -1    0    0  501    0  0.00000000000E+00 -0.00000000000E+00 -0.17596926076E+04  0.17596926077E+04  0.25500000000E-02 0.  1.
    5000001    1    1    2    0    0  0.18492101122E+03 -0.60105966995E+02 -0.15777984556E+04  0.15915984022E+04  0.77000000000E+02 0.  0.
   -5000001    1    1    2    0    0 -0.18492101122E+03  0.60105966995E+02 -0.11250994650E+03  0.23747841106E+03  0.77000000000E+02 0.  0.
<mgrwt>
<rscale>  0 0.69884154E+03</rscale>
<asrwt>0</asrwt>
<pdfrwt beam="1">  1        2 0.25138463E+00 0.69884154E+03</pdfrwt>
<pdfrwt beam="2">  1       -2 0.99120304E-02 0.69884154E+03</pdfrwt>
<totfact> 0.75643147E+02</totfact>
</mgrwt>
</event>
<event>
 4    1  0.6919593E-004  0.1924650E+03  0.7818608E-02  0.1156257E+00
          2   -1    0    0  501    0  0.00000000000E+00  0.00000000000E+00  0.30943291078E+04  0.30943291078E+04  0.25500000000E-02 0.  1.
         -2   -1    0    0    0  501 -0.00000000000E+00 -0.00000000000E+00 -0.29927938528E+01  0.29927949392E+01  0.25500000000E-02 0. -1.
    5000001    1    1    2    0    0 -0.13032346858E+02  0.45826563538E+02  0.10212824234E+04  0.10252885957E+04  0.77000000000E+02 0.  0.
   -5000001    1    1    2    0    0  0.13032346858E+02 -0.45826563538E+02  0.20700538905E+04  0.20720333071E+04  0.77000000000E+02 0.  0.
<mgrwt>
<rscale>  0 0.19246497E+03</rscale>
<asrwt>0</asrwt>
<pdfrwt beam="1">  1        2 0.44204706E+00 0.19246497E+03</pdfrwt>
<pdfrwt beam="2">  1       -2 0.42754201E-03 0.19246497E+03</pdfrwt>
<totfact> 0.17873819E+04</totfact>
</mgrwt>
</event>
<event>
 4    1  0.6919593E-004  0.2443572E+03  0.7818608E-02  0.1116924E+00
         -2   -1    0    0    0  501 -0.00000000000E+00  0.00000000000E+00  0.20477067999E+02  0.20477068158E+02  0.25500000000E-02 0. -1.
          2   -1    0    0  501    0  0.00000000000E+00 -0.00000000000E+00 -0.72899142515E+03  0.72899142515E+03  0.25500000000E-02 0.  1.
    5000001    1    1    2    0    0  0.87953430524E+02 -0.25409457390E+02 -0.27806202012E+03  0.30270271472E+03  0.77000000000E+02 0.  0.
   -5000001    1    1    2    0    0 -0.87953430524E+02  0.25409457390E+02 -0.43045233703E+03  0.44676577859E+03  0.77000000000E+02 0.  0.
<mgrwt>
<rscale>  0 0.24435717E+03</rscale>
<asrwt>0</asrwt>
<pdfrwt beam="1">  1        2 0.10414162E+00 0.24435717E+03</pdfrwt>
<pdfrwt beam="2">  1       -2 0.29252959E-02 0.24435717E+03</pdfrwt>
<totfact> 0.18986865E+04</totfact>
</mgrwt>
</event>
<event>
 4    1  0.6919593E-004  0.2768611E+03  0.7818608E-02  0.1097416E+00
         -2   -1    0    0    0  501 -0.00000000000E+00  0.00000000000E+00  0.26234390775E+02  0.26234390899E+02  0.25500000000E-02 0. -1.
          2   -1    0    0  501    0  0.00000000000E+00 -0.00000000000E+00 -0.73045425074E+03  0.73045425074E+03  0.25500000000E-02 0.  1.
    5000001    1    1    2    0    0  0.39612961048E+02  0.10139543752E+03 -0.25044011885E+03  0.28372429322E+03  0.77000000000E+02 0.  0.
   -5000001    1    1    2    0    0 -0.39612961048E+02 -0.10139543752E+03 -0.45377974112E+03  0.47296434842E+03  0.77000000000E+02 0.  0.
<mgrwt>
<rscale>  0 0.27686114E+03</rscale>
<asrwt>0</asrwt>
<pdfrwt beam="1">  1        2 0.10435059E+00 0.27686114E+03</pdfrwt>
<pdfrwt beam="2">  1       -2 0.37477706E-02 0.27686114E+03</pdfrwt>
<totfact> 0.13165634E+04</totfact>
</mgrwt>
</event>
<event>
 4    1  0.6919593E-004  0.2571868E+03  0.7818608E-02  0.1108845E+00
          2   -1    0    0  501    0  0.00000000000E+00  0.00000000000E+00  0.10721429078E+04  0.10721429078E+04  0.25500000000E-02 0.  1.
         -2   -1    0    0    0  501 -0.00000000000E+00 -0.00000000000E+00 -0.15423559596E+02  0.15423559807E+02  0.25500000000E-02 0. -1.
    5000001    1    1    2    0    0  0.43176906333E+02  0.82751132753E+02  0.71245473175E+03  0.72265672349E+03  0.77000000000E+02 0.  0.
   -5000001    1    1    2    0    0 -0.43176906333E+02 -0.82751132753E+02  0.34426461649E+03  0.36490974415E+03  0.77000000000E+02 0.  0.
<mgrwt>
<rscale>  0 0.25718678E+03</rscale>
<asrwt>0</asrwt>
<pdfrwt beam="1">  1        2 0.15316335E+00 0.25718678E+03</pdfrwt>
<pdfrwt beam="2">  1       -2 0.22033646E-02 0.25718678E+03</pdfrwt>
<totfact> 0.17602052E+04</totfact>
</mgrwt>
</event>
<event>
 4    1  0.6919593E-004  0.1837426E+03  0.7818608E-02  0.1164229E+00
         -2   -1    0    0    0  501 -0.00000000000E+00  0.00000000000E+00  0.80054982584E+01  0.80054986646E+01  0.25500000000E-02 0. -1.
          2   -1    0    0  501    0  0.00000000000E+00 -0.00000000000E+00 -0.10543176558E+04  0.10543176558E+04  0.25500000000E-02 0.  1.
    5000001    1    1    2    0    0 -0.28941830097E+01 -0.34546629547E+02 -0.73237368315E+03  0.73722592038E+03  0.77000000000E+02 0.  0.
   -5000001    1    1    2    0    0  0.28941830097E+01  0.34546629547E+02 -0.31393847438E+03  0.32509723408E+03  0.77000000000E+02 0.  0.
<mgrwt>
<rscale>  0 0.18374263E+03</rscale>
<asrwt>0</asrwt>
<pdfrwt beam="1">  1        2 0.15061672E+00 0.18374263E+03</pdfrwt>
<pdfrwt beam="2">  1       -2 0.11436433E-02 0.18374263E+03</pdfrwt>
<totfact> 0.45872215E+04</totfact>
</mgrwt>
</event>
<event>
 4    1  0.6919593E-004  0.2555627E+03  0.7818608E-02  0.1109839E+00
         -2   -1    0    0    0  501 -0.00000000000E+00  0.00000000000E+00  0.41813809405E+02  0.41813809483E+02  0.25500000000E-02 0. -1.
          2   -1    0    0  501    0  0.00000000000E+00 -0.00000000000E+00 -0.39049463940E+03  0.39049463940E+03  0.25500000000E-02 0.  1.
    5000001    1    1    2    0    0  0.53599657746E+01 -0.10181751824E+03 -0.17116121073E+03  0.21359001922E+03  0.77000000000E+02 0.  0.
   -5000001    1    1    2    0    0 -0.53599657746E+01  0.10181751824E+03 -0.17751961926E+03  0.21871842967E+03  0.77000000000E+02 0.  0.
<mgrwt>
<rscale>  0 0.25556266E+03</rscale>
<asrwt>0</asrwt>
<pdfrwt beam="1">  1        2 0.55784947E-01 0.25556266E+03</pdfrwt>
<pdfrwt beam="2">  1       -2 0.59734016E-02 0.25556266E+03</pdfrwt>
<totfact> 0.13086108E+04</totfact>
</mgrwt>
</event>
<event>
 4    1  0.6919593E-004  0.3514097E+03  0.7818608E-02  0.1062038E+00
          2   -1    0    0  501    0  0.00000000000E+00  0.00000000000E+00  0.32754834918E+03  0.32754834919E+03  0.25500000000E-02 0.  1.
         -2   -1    0    0    0  501 -0.00000000000E+00 -0.00000000000E+00 -0.94252329796E+02  0.94252329830E+02  0.25500000000E-02 0. -1.
    5000001    1    1    2    0    0  0.11593281061E+03  0.59256631811E+02  0.22394950532E+03  0.27024830420E+03  0.77000000000E+02 0.  0.
   -5000001    1    1    2    0    0 -0.11593281061E+03 -0.59256631811E+02  0.93465140612E+01  0.15155237482E+03  0.77000000000E+02 0.  0.
<mgrwt>
<rscale>  0 0.35140970E+03</rscale>
<asrwt>0</asrwt>
<pdfrwt beam="1">  1        2 0.46792621E-01 0.35140970E+03</pdfrwt>
<pdfrwt beam="2">  1       -2 0.13464619E-01 0.35140970E+03</pdfrwt>
<totfact> 0.44265648E+03</totfact>
</mgrwt>
</event>
<event>
 4    1  0.6919593E-004  0.2309029E+03  0.7818608E-02  0.1126006E+00
         -2   -1    0    0    0  501 -0.00000000000E+00  0.00000000000E+00  0.28425168810E+02  0.28425168925E+02  0.25500000000E-02 0. -1.
          2   -1    0    0  501    0  0.00000000000E+00 -0.00000000000E+00 -0.46891679017E+03  0.46891679018E+03  0.25500000000E-02 0.  1.
    5000001    1    1    2    0    0 -0.16835285504E+01  0.75189053482E+02 -0.13030115105E+03  0.16900774537E+03  0.77000000000E+02 0.  0.
   -5000001    1    1    2    0    0  0.16835285504E+01 -0.75189053482E+02 -0.31019047031E+03  0.32833421373E+03  0.77000000000E+02 0.  0.
<mgrwt>
<rscale>  0 0.23090291E+03</rscale>
<asrwt>0</asrwt>
<pdfrwt beam="1">  1        2 0.66988108E-01 0.23090291E+03</pdfrwt>
<pdfrwt beam="2">  1       -2 0.40607387E-02 0.23090291E+03</pdfrwt>
<totfact> 0.19152356E+04</totfact>
</mgrwt>
</event>
<event>
 4    1  0.6919593E-004  0.2118925E+03  0.7818608E-02  0.1140076E+00
          2   -1    0    0  501    0  0.00000000000E+00  0.00000000000E+00  0.21272361598E+04  0.21272361598E+04  0.25500000000E-02 0.  1.
         -2   -1    0    0    0  501 -0.00000000000E+00 -0.00000000000E+00 -0.52766159325E+01  0.52766165486E+01  0.25500000000E-02 0. -1.
    5000001    1    1    2    0    0  0.16705722112E+01 -0.52534760993E+02  0.55447153457E+03  0.56225472392E+03  0.77000000000E+02 0.  0.
   -5000001    1    1    2    0    0 -0.16705722112E+01  0.52534760993E+02  0.15674880093E+04  0.15702580524E+04  0.77000000000E+02 0.  0.
<mgrwt>
<rscale>  0 0.21189251E+03</rscale>
<asrwt>0</asrwt>
<pdfrwt beam="1">  1        2 0.30389128E+00 0.21189251E+03</pdfrwt>
<pdfrwt beam="2">  1       -2 0.75380133E-03 0.21189251E+03</pdfrwt>
<totfact> 0.24341466E+04</totfact>
</mgrwt>
</event>
<event>
 4    1  0.6919593E-004  0.2530153E+03  0.7818608E-02  0.1111414E+00
         -2   -1    0    0    0  501 -0.00000000000E+00  0.00000000000E+00  0.25162717097E+03  0.25162717098E+03  0.25500000000E-02 0. -1.
          2   -1    0    0  501    0  0.00000000000E+00 -0.00000000000E+00 -0.63602790946E+02  0.63602790997E+02  0.25500000000E-02 0.  1.
    5000001    1    1    2    0    0 -0.75595751200E+02 -0.22050656848E+02  0.16463588079E+02  0.11135977191E+03  0.77000000000E+02 0.  0.
   -5000001    1    1    2    0    0  0.75595751200E+02  0.22050656848E+02  0.17156079194E+03  0.20387019007E+03  0.77000000000E+02 0.  0.
<mgrwt>
<rscale>  0 0.25301534E+03</rscale>
<asrwt>0</asrwt>
<pdfrwt beam="1">  1        2 0.90861128E-02 0.25301534E+03</pdfrwt>
<pdfrwt beam="2">  1       -2 0.35946739E-01 0.25301534E+03</pdfrwt>
<totfact> 0.52246083E+03</totfact>
</mgrwt>
</event>
<event>
 4    1  0.6919593E-004  0.1188218E+04  0.7818608E-02  0.9123232E-01
         -2   -1    0    0    0  501 -0.00000000000E+00  0.00000000000E+00  0.25364247162E+03  0.25364247163E+03  0.25500000000E-02 0. -1.
          2   -1    0    0  501    0  0.00000000000E+00 -0.00000000000E+00 -0.13915863842E+04  0.13915863842E+04  0.25500000000E-02 0.  1.
    5000001    1    1    2    0    0  0.18477537007E+03 -0.52509157762E+03 -0.83593174632E+03  0.10072606350E+04  0.77000000000E+02 0.  0.
   -5000001    1    1    2    0    0 -0.18477537007E+03  0.52509157762E+03 -0.30201216628E+03  0.63796822088E+03  0.77000000000E+02 0.  0.
<mgrwt>
<rscale>  0 0.11882178E+04</rscale>
<asrwt>0</asrwt>
<pdfrwt beam="1">  1        2 0.19879805E+00 0.11882178E+04</pdfrwt>
<pdfrwt beam="2">  1       -2 0.36234639E-01 0.11882178E+04</pdfrwt>
<totfact> 0.11822191E+02</totfact>
</mgrwt>
</event>
<event>
 4    1  0.6919593E-004  0.1694101E+03  0.7818608E-02  0.1178464E+00
         -2   -1    0    0    0  501 -0.00000000000E+00  0.00000000000E+00  0.37527553284E+03  0.37527553284E+03  0.25500000000E-02 0. -1.
          2   -1    0    0  501    0  0.00000000000E+00 -0.00000000000E+00 -0.19119133180E+02  0.19119133350E+02  0.25500000000E-02 0.  1.
    5000001    1    1    2    0    0  0.85983817526E+01 -0.25138213184E+02  0.12397521074E+03  0.14833986250E+03  0.77000000000E+02 0.  0.
   -5000001    1    1    2    0    0 -0.85983817526E+01  0.25138213184E+02  0.23218118892E+03  0.24605480369E+03  0.77000000000E+02 0.  0.
<mgrwt>
<rscale>  0 0.16941007E+03</rscale>
<asrwt>0</asrwt>
<pdfrwt beam="1">  1        2 0.27313049E-02 0.16941007E+03</pdfrwt>
<pdfrwt beam="2">  1       -2 0.53610788E-01 0.16941007E+03</pdfrwt>
<totfact> 0.11352434E+04</totfact>
</mgrwt>
</event>
<event>
 4    1  0.6919593E-004  0.2534938E+03  0.7818608E-02  0.1111117E+00
          2   -1    0    0  501    0  0.00000000000E+00  0.00000000000E+00  0.42913630186E+03  0.42913630187E+03  0.25500000000E-02 0.  1.
         -2   -1    0    0    0  501 -0.00000000000E+00 -0.00000000000E+00 -0.37435144907E+02  0.37435144994E+02  0.25500000000E-02 0. -1.
    5000001    1    1    2    0    0  0.91227376765E+02  0.36015786980E+02  0.23766858674E+03  0.26839323446E+03  0.77000000000E+02 0.  0.
   -5000001    1    1    2    0    0 -0.91227376765E+02 -0.36015786980E+02  0.15403257022E+03  0.19817821240E+03  0.77000000000E+02 0.  0.
<mgrwt>
<rscale>  0 0.25349382E+03</rscale>
<asrwt>0</asrwt>
<pdfrwt beam="1">  1        2 0.61305187E-01 0.25349382E+03</pdfrwt>
<pdfrwt beam="2">  1       -2 0.53478778E-02 0.25349382E+03</pdfrwt>
<totfact> 0.13985425E+04</totfact>
</mgrwt>
</event>
<event>
 4    1  0.6919593E-004  0.1957405E+03  0.7818608E-02  0.1153383E+00
          2   -1    0    0  501    0  0.00000000000E+00  0.00000000000E+00  0.56732158059E+02  0.56732158116E+02  0.25500000000E-02 0.  1.
         -2   -1    0    0    0  501 -0.00000000000E+00 -0.00000000000E+00 -0.16883874408E+03  0.16883874410E+03  0.25500000000E-02 0. -1.
    5000001    1    1    2    0    0  0.28124730752E+02 -0.31153867824E+02 -0.59800246631E+01  0.87899514534E+02  0.77000000000E+02 0.  0.
   -5000001    1    1    2    0    0 -0.28124730752E+02  0.31153867824E+02 -0.10612656135E+03  0.13767138768E+03  0.77000000000E+02 0.  0.
<mgrwt>
<rscale>  0 0.19574050E+03</rscale>
<asrwt>0</asrwt>
<pdfrwt beam="1">  1        2 0.81045941E-02 0.19574050E+03</pdfrwt>
<pdfrwt beam="2">  1       -2 0.24119820E-01 0.19574050E+03</pdfrwt>
<totfact> 0.12220777E+04</totfact>
</mgrwt>
</event>
<event>
 4    1  0.6919593E-004  0.3246684E+03  0.7818608E-02  0.1073521E+00
          2   -1    0    0  501    0  0.00000000000E+00  0.00000000000E+00  0.92182486527E+02  0.92182486562E+02  0.25500000000E-02 0.  1.
         -2   -1    0    0    0  501 -0.00000000000E+00 -0.00000000000E+00 -0.28587206815E+03  0.28587206816E+03  0.25500000000E-02 0. -1.
    5000001    1    1    2    0    0  0.10978730708E+03 -0.67927114508E+02 -0.25480619198E+02  0.15246510301E+03  0.77000000000E+02 0.  0.
   -5000001    1    1    2    0    0 -0.10978730708E+03  0.67927114508E+02 -0.16820896242E+03  0.22558945171E+03  0.77000000000E+02 0.  0.
<mgrwt>
<rscale>  0 0.32466843E+03</rscale>
<asrwt>0</asrwt>
<pdfrwt beam="1">  1        2 0.13168927E-01 0.32466843E+03</pdfrwt>
<pdfrwt beam="2">  1       -2 0.40838866E-01 0.32466843E+03</pdfrwt>
<totfact> 0.26176781E+03</totfact>
</mgrwt>
</event>
<event>
 4    1  0.6919593E-004  0.2034918E+03  0.7818608E-02  0.1146826E+00
          2   -1    0    0  501    0  0.00000000000E+00  0.00000000000E+00  0.62837966329E+02  0.62837966381E+02  0.25500000000E-02 0.  1.
         -2   -1    0    0    0  501 -0.00000000000E+00 -0.00000000000E+00 -0.16474472472E+03  0.16474472474E+03  0.25500000000E-02 0. -1.
    5000001    1    1    2    0    0  0.55553052025E+02  0.21579505381E+01 -0.10129542160E+02  0.95511287103E+02  0.77000000000E+02 0.  0.
   -5000001    1    1    2    0    0 -0.55553052025E+02 -0.21579505381E+01 -0.91777216227E+02  0.13207140401E+03  0.77000000000E+02 0.  0.
<mgrwt>
<rscale>  0 0.20349175E+03</rscale>
<asrwt>0</asrwt>
<pdfrwt beam="1">  1        2 0.89768524E-02 0.20349175E+03</pdfrwt>
<pdfrwt beam="2">  1       -2 0.23534961E-01 0.20349175E+03</pdfrwt>
<totfact> 0.11248230E+04</totfact>
</mgrwt>
</event>
<event>
 4    1  0.6919593E-004  0.3298600E+03  0.7818608E-02  0.1071199E+00
          2   -1    0    0  501    0  0.00000000000E+00  0.00000000000E+00  0.70309174446E+03  0.70309174446E+03  0.25500000000E-02 0.  1.
         -2   -1    0    0    0  501 -0.00000000000E+00 -0.00000000000E+00 -0.38688989412E+02  0.38688989496E+02  0.25500000000E-02 0. -1.
    5000001    1    1    2    0    0 -0.14486724122E+03  0.99942054028E+01  0.30149038461E+03  0.34338295492E+03  0.77000000000E+02 0.  0.
   -5000001    1    1    2    0    0  0.14486724122E+03 -0.99942054028E+01  0.36291237044E+03  0.39839777903E+03  0.77000000000E+02 0.  0.
<mgrwt>
<rscale>  0 0.32986003E+03</rscale>
<asrwt>0</asrwt>
<pdfrwt beam="1">  1        2 0.10044167E+00 0.32986003E+03</pdfrwt>
<pdfrwt beam="2">  1       -2 0.55269989E-02 0.32986003E+03</pdfrwt>
<totfact> 0.76913703E+03</totfact>
</mgrwt>
</event>
<event>
 4    1  0.6919593E-004  0.3609836E+03  0.7818608E-02  0.1058195E+00
         -2   -1    0    0    0  501 -0.00000000000E+00  0.00000000000E+00  0.15877452397E+03  0.15877452399E+03  0.25500000000E-02 0. -1.
          2   -1    0    0  501    0  0.00000000000E+00 -0.00000000000E+00 -0.20517958826E+03  0.20517958828E+03  0.25500000000E-02 0.  1.
    5000001    1    1    2    0    0  0.10977197633E+03  0.77138104579E+02  0.70557973137E+02  0.17002235600E+03  0.77000000000E+02 0.  0.
   -5000001    1    1    2    0    0 -0.10977197633E+03 -0.77138104579E+02 -0.11696303743E+03  0.19393175627E+03  0.77000000000E+02 0.  0.
<mgrwt>
<rscale>  0 0.36098361E+03</rscale>
<asrwt>0</asrwt>
<pdfrwt beam="1">  1        2 0.29311370E-01 0.36098361E+03</pdfrwt>
<pdfrwt beam="2">  1       -2 0.22682075E-01 0.36098361E+03</pdfrwt>
<totfact> 0.30537262E+03</totfact>
</mgrwt>
</event>
<event>
 4    1  0.6919593E-004  0.2568251E+03  0.7818608E-02  0.1109066E+00
          2   -1    0    0  501    0  0.00000000000E+00  0.00000000000E+00  0.68915792556E+03  0.68915792557E+03  0.25500000000E-02 0.  1.
         -2   -1    0    0    0  501 -0.00000000000E+00 -0.00000000000E+00 -0.23927435580E+02  0.23927435716E+02  0.25500000000E-02 0. -1.
    5000001    1    1    2    0    0 -0.96188946564E+02  0.23449966723E+02  0.25614346552E+03  0.28520289148E+03  0.77000000000E+02 0.  0.
   -5000001    1    1    2    0    0  0.96188946564E+02 -0.23449966723E+02  0.40908702447E+03  0.42788246981E+03  0.77000000000E+02 0.  0.
<mgrwt>
<rscale>  0 0.25682509E+03</rscale>
<asrwt>0</asrwt>
<pdfrwt beam="1">  1        2 0.98451127E-01 0.25682509E+03</pdfrwt>
<pdfrwt beam="2">  1       -2 0.34182053E-02 0.25682509E+03</pdfrwt>
<totfact> 0.16139419E+04</totfact>
</mgrwt>
</event>
<event>
 4    1  0.6919593E-004  0.2551963E+03  0.7818608E-02  0.1110064E+00
          2   -1    0    0  501    0  0.00000000000E+00  0.00000000000E+00  0.14631749095E+03  0.14631749097E+03  0.25500000000E-02 0.  1.
         -2   -1    0    0    0  501 -0.00000000000E+00 -0.00000000000E+00 -0.11127371712E+03  0.11127371715E+03  0.25500000000E-02 0. -1.
    5000001    1    1    2    0    0 -0.44382405184E+02 -0.77155100725E+02  0.67275262043E+02  0.13556425908E+03  0.77000000000E+02 0.  0.
   -5000001    1    1    2    0    0  0.44382405184E+02  0.77155100725E+02 -0.32231488214E+02  0.12202694903E+03  0.77000000000E+02 0.  0.
<mgrwt>
<rscale>  0 0.25519633E+03</rscale>
<asrwt>0</asrwt>
<pdfrwt beam="1">  1        2 0.20902499E-01 0.25519633E+03</pdfrwt>
<pdfrwt beam="2">  1       -2 0.15896245E-01 0.25519633E+03</pdfrwt>
<totfact> 0.80868832E+03</totfact>
</mgrwt>
</event>
<event>
 4    1  0.6919593E-004  0.1799774E+03  0.7818608E-02  0.1167825E+00
          2   -1    0    0  501    0  0.00000000000E+00  0.00000000000E+00  0.85465360899E+03  0.85465360899E+03  0.25500000000E-02 0.  1.
         -2   -1    0    0    0  501 -0.00000000000E+00 -0.00000000000E+00 -0.94751475833E+01  0.94751479264E+01  0.25500000000E-02 0. -1.
    5000001    1    1    2    0    0 -0.45444160078E+02  0.95091199859E+01  0.44014799611E+03  0.44923808112E+03  0.77000000000E+02 0.  0.
   -5000001    1    1    2    0    0  0.45444160078E+02 -0.95091199859E+01  0.40503046530E+03  0.41489067580E+03  0.77000000000E+02 0.  0.
<mgrwt>
<rscale>  0 0.17997743E+03</rscale>
<asrwt>0</asrwt>
<pdfrwt beam="1">  1        2 0.12209342E+00 0.17997743E+03</pdfrwt>
<pdfrwt beam="2">  1       -2 0.13535920E-02 0.17997743E+03</pdfrwt>
<totfact> 0.47265827E+04</totfact>
</mgrwt>
</event>
<event>
 4    1  0.6919593E-004  0.2969953E+03  0.7818608E-02  0.1086752E+00
          2   -1    0    0  501    0  0.00000000000E+00  0.00000000000E+00  0.93642105889E+03  0.93642105890E+03  0.25500000000E-02 0.  1.
         -2   -1    0    0    0  501 -0.00000000000E+00 -0.00000000000E+00 -0.23548753045E+02  0.23548753183E+02  0.25500000000E-02 0. -1.
    5000001    1    1    2    0    0  0.62946039215E+02  0.10831383569E+03  0.38953064097E+03  0.41636187519E+03  0.77000000000E+02 0.  0.
   -5000001    1    1    2    0    0 -0.62946039215E+02 -0.10831383569E+03  0.52334166487E+03  0.54360793689E+03  0.77000000000E+02 0.  0.
<mgrwt>
<rscale>  0 0.29699527E+03</rscale>
<asrwt>0</asrwt>
<pdfrwt beam="1">  1        2 0.13377444E+00 0.29699527E+03</pdfrwt>
<pdfrwt beam="2">  1       -2 0.33641075E-02 0.29699527E+03</pdfrwt>
<totfact> 0.11354681E+04</totfact>
</mgrwt>
</event>
<event>
 4    1  0.6919593E-004  0.4390018E+03  0.7818608E-02  0.1031054E+00
          2   -1    0    0  501    0  0.00000000000E+00  0.00000000000E+00  0.97477243578E+03  0.97477243579E+03  0.25500000000E-02 0.  1.
         -2   -1    0    0    0  501 -0.00000000000E+00 -0.00000000000E+00 -0.49427581618E+02  0.49427581684E+02  0.25500000000E-02 0. -1.
    5000001    1    1    2    0    0 -0.19247454969E+03  0.50541607964E+02  0.34255614984E+03  0.40357728158E+03  0.77000000000E+02 0.  0.
   -5000001    1    1    2    0    0  0.19247454969E+03 -0.50541607964E+02  0.58278870433E+03  0.62062273589E+03  0.77000000000E+02 0.  0.
<mgrwt>
<rscale>  0 0.43900180E+03</rscale>
<asrwt>0</asrwt>
<pdfrwt beam="1">  1        2 0.13925319E+00 0.43900180E+03</pdfrwt>
<pdfrwt beam="2">  1       -2 0.70610837E-02 0.43900180E+03</pdfrwt>
<totfact> 0.34851508E+03</totfact>
</mgrwt>
</event>
<event>
 4    1  0.6919593E-004  0.4648118E+03  0.7818608E-02  0.1023395E+00
         -2   -1    0    0    0  501 -0.00000000000E+00  0.00000000000E+00  0.69322881274E+02  0.69322881321E+02  0.25500000000E-02 0. -1.
          2   -1    0    0  501    0  0.00000000000E+00 -0.00000000000E+00 -0.77914403340E+03  0.77914403340E+03  0.25500000000E-02 0.  1.
    5000001    1    1    2    0    0 -0.10165267238E+03  0.81399166699E+02 -0.32871651880E+02  0.15481807271E+03  0.77000000000E+02 0.  0.
   -5000001    1    1    2    0    0  0.10165267238E+03 -0.81399166699E+02 -0.67694950025E+03  0.69364884201E+03  0.77000000000E+02 0.  0.
<mgrwt>
<rscale>  0 0.46481183E+03</rscale>
<asrwt>0</asrwt>
<pdfrwt beam="1">  1        2 0.11130629E+00 0.46481183E+03</pdfrwt>
<pdfrwt beam="2">  1       -2 0.99032692E-02 0.46481183E+03</pdfrwt>
<totfact> 0.27305944E+03</totfact>
</mgrwt>
</event>
<event>
 4    1  0.6919593E-004  0.2862171E+03  0.7818608E-02  0.1092341E+00
         -2   -1    0    0    0  501 -0.00000000000E+00  0.00000000000E+00  0.52762271649E+02  0.52762271710E+02  0.25500000000E-02 0. -1.
          2   -1    0    0  501    0  0.00000000000E+00 -0.00000000000E+00 -0.38815717088E+03  0.38815717089E+03  0.25500000000E-02 0.  1.
    5000001    1    1    2    0    0 -0.11859447819E+03  0.17503081136E+02 -0.14702673720E+03  0.20473609735E+03  0.77000000000E+02 0.  0.
   -5000001    1    1    2    0    0  0.11859447819E+03 -0.17503081136E+02 -0.18836816202E+03  0.23618334524E+03  0.77000000000E+02 0.  0.
<mgrwt>
<rscale>  0 0.28621708E+03</rscale>
<asrwt>0</asrwt>
<pdfrwt beam="1">  1        2 0.55451023E-01 0.28621708E+03</pdfrwt>
<pdfrwt beam="2">  1       -2 0.75374676E-02 0.28621708E+03</pdfrwt>
<totfact> 0.92440673E+03</totfact>
</mgrwt>
</event>
<event>
 4    1  0.6919593E-004  0.2018287E+03  0.7818608E-02  0.1148205E+00
         -2   -1    0    0    0  501 -0.00000000000E+00  0.00000000000E+00  0.63784241631E+01  0.63784246728E+01  0.25500000000E-02 0. -1.
          2   -1    0    0  501    0  0.00000000000E+00 -0.00000000000E+00 -0.15965870046E+04  0.15965870046E+04  0.25500000000E-02 0.  1.
    5000001    1    1    2    0    0 -0.57054299367E+02  0.44494692166E+01 -0.54650959651E+03  0.55486640728E+03  0.77000000000E+02 0.  0.
   -5000001    1    1    2    0    0  0.57054299367E+02 -0.44494692166E+01 -0.10436989839E+04  0.10480990220E+04  0.77000000000E+02 0.  0.
<mgrwt>
<rscale>  0 0.20182873E+03</rscale>
<asrwt>0</asrwt>
<pdfrwt beam="1">  1        2 0.22808360E+00 0.20182873E+03</pdfrwt>
<pdfrwt beam="2">  1       -2 0.91120451E-03 0.20182873E+03</pdfrwt>
<totfact> 0.33429261E+04</totfact>
</mgrwt>
</event>
<event>
 4    1  0.6919593E-004  0.2659812E+03  0.7818608E-02  0.1103602E+00
          2   -1    0    0  501    0  0.00000000000E+00  0.00000000000E+00  0.36710845784E+02  0.36710845872E+02  0.25500000000E-02 0.  1.
         -2   -1    0    0    0  501 -0.00000000000E+00 -0.00000000000E+00 -0.48177876036E+03  0.48177876036E+03  0.25500000000E-02 0. -1.
    5000001    1    1    2    0    0 -0.45715505034E+02 -0.89620268274E+02 -0.14369244873E+03  0.19156779402E+03  0.77000000000E+02 0.  0.
   -5000001    1    1    2    0    0  0.45715505034E+02  0.89620268274E+02 -0.30137546585E+03  0.32692181221E+03  0.77000000000E+02 0.  0.
<mgrwt>
<rscale>  0 0.26598125E+03</rscale>
<asrwt>0</asrwt>
<pdfrwt beam="1">  1        2 0.52444068E-02 0.26598125E+03</pdfrwt>
<pdfrwt beam="2">  1       -2 0.68825534E-01 0.26598125E+03</pdfrwt>
<totfact> 0.29062437E+03</totfact>
</mgrwt>
</event>
<event>
 4    1  0.6919593E-004  0.2149549E+03  0.7818608E-02  0.1137701E+00
         -2   -1    0    0    0  501 -0.00000000000E+00  0.00000000000E+00  0.52920799335E+01  0.52920805479E+01  0.25500000000E-02 0. -1.
          2   -1    0    0  501    0  0.00000000000E+00 -0.00000000000E+00 -0.21827722715E+04  0.21827722715E+04  0.25500000000E-02 0.  1.
    5000001    1    1    2    0    0  0.16577884360E+02 -0.65559629944E+02 -0.75897329573E+03  0.76586053232E+03  0.77000000000E+02 0.  0.
   -5000001    1    1    2    0    0 -0.16577884360E+02  0.65559629944E+02 -0.14185068959E+04  0.14222038198E+04  0.77000000000E+02 0.  0.
<mgrwt>
<rscale>  0 0.21495493E+03</rscale>
<asrwt>0</asrwt>
<pdfrwt beam="1">  1        2 0.31182403E+00 0.21495493E+03</pdfrwt>
<pdfrwt beam="2">  1       -2 0.75601286E-03 0.21495493E+03</pdfrwt>
<totfact> 0.22797113E+04</totfact>
</mgrwt>
</event>
<event>
 4    1  0.6919593E-004  0.3473114E+03  0.7818608E-02  0.1063724E+00
         -2   -1    0    0    0  501 -0.00000000000E+00  0.00000000000E+00  0.72071099894E+02  0.72071099939E+02  0.25500000000E-02 0. -1.
          2   -1    0    0  501    0  0.00000000000E+00 -0.00000000000E+00 -0.41842430074E+03  0.41842430074E+03  0.25500000000E-02 0.  1.
    5000001    1    1    2    0    0  0.11800794683E+03  0.10076864227E+03 -0.15604770501E+03  0.23315248448E+03  0.77000000000E+02 0.  0.
   -5000001    1    1    2    0    0 -0.11800794683E+03 -0.10076864227E+03 -0.19030549583E+03  0.25734291621E+03  0.77000000000E+02 0.  0.
<mgrwt>
<rscale>  0 0.34731139E+03</rscale>
<asrwt>0</asrwt>
<pdfrwt beam="1">  1        2 0.59774899E-01 0.34731139E+03</pdfrwt>
<pdfrwt beam="2">  1       -2 0.10295872E-01 0.34731139E+03</pdfrwt>
<totfact> 0.52389270E+03</totfact>
</mgrwt>
</event>
<event>
 4    1  0.6919593E-004  0.2312327E+03  0.7818608E-02  0.1125775E+00
         -2   -1    0    0    0  501 -0.00000000000E+00  0.00000000000E+00  0.98494442338E+01  0.98494445639E+01  0.25500000000E-02 0. -1.
          2   -1    0    0  501    0  0.00000000000E+00 -0.00000000000E+00 -0.13571471082E+04  0.13571471082E+04  0.25500000000E-02 0.  1.
    5000001    1    1    2    0    0 -0.57594173007E+02 -0.11920169303E+01 -0.29420501470E+03  0.30952237455E+03  0.77000000000E+02 0.  0.
   -5000001    1    1    2    0    0  0.57594173007E+02  0.11920169303E+01 -0.10530926493E+04  0.10574741782E+04  0.77000000000E+02 0.  0.
<mgrwt>
<rscale>  0 0.23123274E+03</rscale>
<asrwt>0</asrwt>
<pdfrwt beam="1">  1        2 0.19387804E+00 0.23123274E+03</pdfrwt>
<pdfrwt beam="2">  1       -2 0.14070643E-02 0.23123274E+03</pdfrwt>
<totfact> 0.23698583E+04</totfact>
</mgrwt>
</event>
<event>
 4    1  0.6919593E-004  0.1902461E+03  0.7818608E-02  0.1158240E+00
         -2   -1    0    0    0  501 -0.00000000000E+00  0.00000000000E+00  0.73715326982E+01  0.73715331392E+01  0.25500000000E-02 0. -1.
          2   -1    0    0  501    0  0.00000000000E+00 -0.00000000000E+00 -0.12274785034E+04  0.12274785034E+04  0.25500000000E-02 0.  1.
    5000001    1    1    2    0    0 -0.10447534493E+02 -0.48613438793E+02 -0.77515234138E+03  0.78055273348E+03  0.77000000000E+02 0.  0.
   -5000001    1    1    2    0    0  0.10447534493E+02  0.48613438793E+02 -0.44495462937E+03  0.45429730310E+03  0.77000000000E+02 0.  0.
<mgrwt>
<rscale>  0 0.19024614E+03</rscale>
<asrwt>0</asrwt>
<pdfrwt beam="1">  1        2 0.17535394E+00 0.19024614E+03</pdfrwt>
<pdfrwt beam="2">  1       -2 0.10530769E-02 0.19024614E+03</pdfrwt>
<totfact> 0.41646049E+04</totfact>
</mgrwt>
</event>
<event>
 4    1  0.6919593E-004  0.2681668E+03  0.7818608E-02  0.1102333E+00
         -2   -1    0    0    0  501 -0.00000000000E+00  0.00000000000E+00  0.76357984119E+02  0.76357984161E+02  0.25500000000E-02 0. -1.
          2   -1    0    0  501    0  0.00000000000E+00 -0.00000000000E+00 -0.23544825138E+03  0.23544825139E+03  0.25500000000E-02 0.  1.
    5000001    1    1    2    0    0 -0.21813195655E+02 -0.10164439746E+03 -0.12052143310E+03  0.17681010966E+03  0.77000000000E+02 0.  0.
   -5000001    1    1    2    0    0  0.21813195655E+02  0.10164439746E+03 -0.38568834161E+02  0.13499612590E+03  0.77000000000E+02 0.  0.
<mgrwt>
<rscale>  0 0.26816677E+03</rscale>
<asrwt>0</asrwt>
<pdfrwt beam="1">  1        2 0.33635464E-01 0.26816677E+03</pdfrwt>
<pdfrwt beam="2">  1       -2 0.10908284E-01 0.26816677E+03</pdfrwt>
<totfact> 0.88255553E+03</totfact>
</mgrwt>
</event>
<event>
 4    1  0.6919593E-004  0.3629028E+03  0.7818608E-02  0.1057440E+00
         -2   -1    0    0    0  501 -0.00000000000E+00  0.00000000000E+00  0.70449537478E+02  0.70449537524E+02  0.25500000000E-02 0. -1.
          2   -1    0    0  501    0  0.00000000000E+00 -0.00000000000E+00 -0.46735027407E+03  0.46735027408E+03  0.25500000000E-02 0.  1.
    5000001    1    1    2    0    0 -0.72123813867E+02  0.13673309321E+03 -0.11596841608E+03  0.20802753864E+03  0.77000000000E+02 0.  0.
   -5000001    1    1    2    0    0  0.72123813867E+02 -0.13673309321E+03 -0.28093232051E+03  0.32977227296E+03  0.77000000000E+02 0.  0.
<mgrwt>
<rscale>  0 0.36290280E+03</rscale>
<asrwt>0</asrwt>
<pdfrwt beam="1">  1        2 0.66764323E-01 0.36290280E+03</pdfrwt>
<pdfrwt beam="2">  1       -2 0.10064220E-01 0.36290280E+03</pdfrwt>
<totfact> 0.48160742E+03</totfact>
</mgrwt>
</event>
<event>
 4    1  0.6919593E-004  0.1794233E+03  0.7818608E-02  0.1168362E+00
         -2   -1    0    0    0  501 -0.00000000000E+00  0.00000000000E+00  0.68077342291E+01  0.68077347067E+01  0.25500000000E-02 0. -1.
          2   -1    0    0  501    0  0.00000000000E+00 -0.00000000000E+00 -0.11822116077E+04  0.11822116077E+04  0.25500000000E-02 0.  1.
    5000001    1    1    2    0    0 -0.67467637070E+01  0.39495140964E+02 -0.73791444644E+03  0.74300209639E+03  0.77000000000E+02 0.  0.
   -5000001    1    1    2    0    0  0.67467637070E+01 -0.39495140964E+02 -0.43748942706E+03  0.44601724604E+03  0.77000000000E+02 0.  0.
<mgrwt>
<rscale>  0 0.17942333E+03</rscale>
<asrwt>0</asrwt>
<pdfrwt beam="1">  1        2 0.16888724E+00 0.17942333E+03</pdfrwt>
<pdfrwt beam="2">  1       -2 0.97253425E-03 0.17942333E+03</pdfrwt>
<totfact> 0.49151907E+04</totfact>
</mgrwt>
</event>
<event>
 4    1  0.6919593E-004  0.3479538E+03  0.7818608E-02  0.1063458E+00
          2   -1    0    0  501    0  0.00000000000E+00  0.00000000000E+00  0.79212913845E+03  0.79212913846E+03  0.25500000000E-02 0.  1.
         -2   -1    0    0    0  501 -0.00000000000E+00 -0.00000000000E+00 -0.38210888275E+02  0.38210888360E+02  0.25500000000E-02 0. -1.
    5000001    1    1    2    0    0 -0.55646891964E+02 -0.12663757351E+03  0.20478909033E+03  0.25884594477E+03  0.77000000000E+02 0.  0.
   -5000001    1    1    2    0    0  0.55646891964E+02  0.12663757351E+03  0.54912915985E+03  0.57149408204E+03  0.77000000000E+02 0.  0.
<mgrwt>
<rscale>  0 0.34795378E+03</rscale>
<asrwt>0</asrwt>
<pdfrwt beam="1">  1        2 0.11316130E+00 0.34795378E+03</pdfrwt>
<pdfrwt beam="2">  1       -2 0.54586988E-02 0.34795378E+03</pdfrwt>
<totfact> 0.67872111E+03</totfact>
</mgrwt>
</event>
<event>
 4    1  0.6919593E-004  0.5616827E+03  0.7818608E-02  0.9988254E-01
          2   -1    0    0  501    0  0.00000000000E+00  0.00000000000E+00  0.90546193895E+02  0.90546193931E+02  0.25500000000E-02 0.  1.
         -2   -1    0    0    0  501 -0.00000000000E+00 -0.00000000000E+00 -0.87106778104E+03  0.87106778104E+03  0.25500000000E-02 0. -1.
    5000001    1    1    2    0    0 -0.27086024395E+02 -0.26092540296E+03 -0.50024618662E+03  0.57007978903E+03  0.77000000000E+02 0.  0.
   -5000001    1    1    2    0    0  0.27086024395E+02  0.26092540296E+03 -0.28027540052E+03  0.39153418595E+03  0.77000000000E+02 0.  0.
<mgrwt>
<rscale>  0 0.56168273E+03</rscale>
<asrwt>0</asrwt>
<pdfrwt beam="1">  1        2 0.12935171E-01 0.56168273E+03</pdfrwt>
<pdfrwt beam="2">  1       -2 0.12443825E+00 0.56168273E+03</pdfrwt>
<totfact> 0.23645217E+02</totfact>
</mgrwt>
</event>
<event>
 4    1  0.6919593E-004  0.3505344E+03  0.7818608E-02  0.1062396E+00
          2   -1    0    0  501    0  0.00000000000E+00  0.00000000000E+00  0.18575162041E+04  0.18575162041E+04  0.25500000000E-02 0.  1.
         -2   -1    0    0    0  501 -0.00000000000E+00 -0.00000000000E+00 -0.16537457156E+02  0.16537457353E+02  0.25500000000E-02 0. -1.
    5000001    1    1    2    0    0  0.42065469287E+02  0.15142248963E+03  0.97157939716E+03  0.98721517363E+03  0.77000000000E+02 0.  0.
   -5000001    1    1    2    0    0 -0.42065469287E+02 -0.15142248963E+03  0.86939934982E+03  0.88683848785E+03  0.77000000000E+02 0.  0.
<mgrwt>
<rscale>  0 0.35053442E+03</rscale>
<asrwt>0</asrwt>
<pdfrwt beam="1">  1        2 0.26535953E+00 0.35053442E+03</pdfrwt>
<pdfrwt beam="2">  1       -2 0.23624933E-02 0.35053442E+03</pdfrwt>
<totfact> 0.62788765E+03</totfact>
</mgrwt>
</event>
<event>
 4    1  0.6919593E-004  0.2685193E+03  0.7818608E-02  0.1102130E+00
         -2   -1    0    0    0  501 -0.00000000000E+00  0.00000000000E+00  0.17673233513E+02  0.17673233697E+02  0.25500000000E-02 0. -1.
          2   -1    0    0  501    0  0.00000000000E+00 -0.00000000000E+00 -0.10199408997E+04  0.10199408997E+04  0.25500000000E-02 0.  1.
    5000001    1    1    2    0    0 -0.76892440332E+02 -0.53181110004E+02 -0.27727729152E+03  0.30257622880E+03  0.77000000000E+02 0.  0.
   -5000001    1    1    2    0    0  0.76892440332E+02  0.53181110004E+02 -0.72499037466E+03  0.73503790459E+03  0.77000000000E+02 0.  0.
<mgrwt>
<rscale>  0 0.26851930E+03</rscale>
<asrwt>0</asrwt>
<pdfrwt beam="1">  1        2 0.14570581E+00 0.26851930E+03</pdfrwt>
<pdfrwt beam="2">  1       -2 0.25247483E-02 0.26851930E+03</pdfrwt>
<totfact> 0.15457573E+04</totfact>
</mgrwt>
</event>
<event>
 4    1  0.6919593E-004  0.5296065E+03  0.7818608E-02  0.1006328E+00
          2   -1    0    0  501    0  0.00000000000E+00  0.00000000000E+00  0.12909729353E+04  0.12909729353E+04  0.25500000000E-02 0.  1.
         -2   -1    0    0    0  501 -0.00000000000E+00 -0.00000000000E+00 -0.54316210495E+02  0.54316210555E+02  0.25500000000E-02 0. -1.
    5000001    1    1    2    0    0 -0.15922656288E+03  0.15392318381E+03  0.93094767545E+03  0.96001980150E+03  0.77000000000E+02 0.  0.
   -5000001    1    1    2    0    0  0.15922656288E+03 -0.15392318381E+03  0.30570904934E+03  0.38526934434E+03  0.77000000000E+02 0.  0.
<mgrwt>
<rscale>  0 0.52960649E+03</rscale>
<asrwt>0</asrwt>
<pdfrwt beam="1">  1        2 0.18442469E+00 0.52960649E+03</pdfrwt>
<pdfrwt beam="2">  1       -2 0.77594593E-02 0.52960649E+03</pdfrwt>
<totfact> 0.19802617E+03</totfact>
</mgrwt>
</event>
<event>
 4    1  0.6919593E-004  0.2473376E+03  0.7818608E-02  0.1114999E+00
         -2   -1    0    0    0  501 -0.00000000000E+00  0.00000000000E+00  0.14617614939E+03  0.14617614941E+03  0.25500000000E-02 0. -1.
          2   -1    0    0  501    0  0.00000000000E+00 -0.00000000000E+00 -0.10462695976E+03  0.10462695980E+03  0.25500000000E-02 0.  1.
    5000001    1    1    2    0    0 -0.56816260745E+02  0.73009963603E+02 -0.80208994233E+01  0.12063116139E+03  0.77000000000E+02 0.  0.
   -5000001    1    1    2    0    0  0.56816260745E+02 -0.73009963603E+02  0.49570089046E+02  0.13017194782E+03  0.77000000000E+02 0.  0.
<mgrwt>
<rscale>  0 0.24733755E+03</rscale>
<asrwt>0</asrwt>
<pdfrwt beam="1">  1        2 0.14946709E-01 0.24733755E+03</pdfrwt>
<pdfrwt beam="2">  1       -2 0.20882307E-01 0.24733755E+03</pdfrwt>
<totfact> 0.75193094E+03</totfact>
</mgrwt>
</event>
<event>
 4    1  0.6919593E-004  0.1661757E+03  0.7818608E-02  0.1181896E+00
         -2   -1    0    0    0  501 -0.00000000000E+00  0.00000000000E+00  0.41321165950E+01  0.41321173818E+01  0.25500000000E-02 0. -1.
          2   -1    0    0  501    0  0.00000000000E+00 -0.00000000000E+00 -0.16707150697E+04  0.16707150697E+04  0.25500000000E-02 0.  1.
    5000001    1    1    2    0    0 -0.22230636819E+01  0.29213454980E+02 -0.72463586335E+03  0.72930412204E+03  0.77000000000E+02 0.  0.
   -5000001    1    1    2    0    0  0.22230636819E+01 -0.29213454980E+02 -0.94194708974E+03  0.94554306503E+03  0.77000000000E+02 0.  0.
<mgrwt>
<rscale>  0 0.16617569E+03</rscale>
<asrwt>0</asrwt>
<pdfrwt beam="1">  1        2 0.23867315E+00 0.16617569E+03</pdfrwt>
<pdfrwt beam="2">  1       -2 0.59030350E-03 0.16617569E+03</pdfrwt>
<totfact> 0.56525844E+04</totfact>
</mgrwt>
</event>
<event>
 4    1  0.6919593E-004  0.1766430E+03  0.7818608E-02  0.1171092E+00
         -2   -1    0    0    0  501 -0.00000000000E+00  0.00000000000E+00  0.18791987565E+01  0.18792004867E+01  0.25500000000E-02 0. -1.
          2   -1    0    0  501    0  0.00000000000E+00 -0.00000000000E+00 -0.41510711179E+04  0.41510711179E+04  0.25500000000E-02 0.  1.
    5000001    1    1    2    0    0 -0.28432752232E+02 -0.10994839541E+02 -0.27963247070E+04  0.27975507458E+04  0.77000000000E+02 0.  0.
   -5000001    1    1    2    0    0  0.28432752232E+02  0.10994839541E+02 -0.13528672121E+04  0.13553995726E+04  0.77000000000E+02 0.  0.
<mgrwt>
<rscale>  0 0.17664304E+03</rscale>
<asrwt>0</asrwt>
<pdfrwt beam="1">  1        2 0.59300428E+00 0.17664304E+03</pdfrwt>
<pdfrwt beam="2">  1       -2 0.26845975E-03 0.17664304E+03</pdfrwt>
<totfact> 0.81952895E+03</totfact>
</mgrwt>
</event>
<event>
 4    1  0.6919593E-004  0.2966072E+03  0.7818608E-02  0.1086949E+00
         -2   -1    0    0    0  501 -0.00000000000E+00  0.00000000000E+00  0.10769764931E+02  0.10769765233E+02  0.25500000000E-02 0. -1.
          2   -1    0    0  501    0  0.00000000000E+00 -0.00000000000E+00 -0.20421943968E+04  0.20421943968E+04  0.25500000000E-02 0.  1.
    5000001    1    1    2    0    0 -0.57091882043E+02 -0.47576810078E+02 -0.17263684928E+04  0.17296821121E+04  0.77000000000E+02 0.  0.
   -5000001    1    1    2    0    0  0.57091882043E+02  0.47576810078E+02 -0.30505613909E+03  0.32328205000E+03  0.77000000000E+02 0.  0.
<mgrwt>
<rscale>  0 0.29660717E+03</rscale>
<asrwt>0</asrwt>
<pdfrwt beam="1">  1        2 0.29174181E+00 0.29660717E+03</pdfrwt>
<pdfrwt beam="2">  1       -2 0.15385392E-02 0.29660717E+03</pdfrwt>
<totfact> 0.95884245E+03</totfact>
</mgrwt>
</event>
<event>
 4    1  0.6919593E-004  0.1718754E+03  0.7818608E-02  0.1175906E+00
         -2   -1    0    0    0  501 -0.00000000000E+00  0.00000000000E+00  0.80029901813E+02  0.80029901853E+02  0.25500000000E-02 0. -1.
          2   -1    0    0  501    0  0.00000000000E+00 -0.00000000000E+00 -0.92281562044E+02  0.92281562080E+02  0.25500000000E-02 0.  1.
    5000001    1    1    2    0    0  0.13506061780E+02 -0.30752232181E+02  0.12035622335E+02  0.84864419481E+02  0.77000000000E+02 0.  0.
   -5000001    1    1    2    0    0 -0.13506061780E+02  0.30752232181E+02 -0.24287282566E+02  0.87447044452E+02  0.77000000000E+02 0.  0.
<mgrwt>
<rscale>  0 0.17187535E+03</rscale>
<asrwt>0</asrwt>
<pdfrwt beam="1">  1        2 0.13183080E-01 0.17187535E+03</pdfrwt>
<pdfrwt beam="2">  1       -2 0.11432843E-01 0.17187535E+03</pdfrwt>
<totfact> 0.23035950E+04</totfact>
</mgrwt>
</event>
<event>
 4    1  0.6919593E-004  0.1743884E+03  0.7818608E-02  0.1173347E+00
          2   -1    0    0  501    0  0.00000000000E+00  0.00000000000E+00  0.22650568191E+03  0.22650568192E+03  0.25500000000E-02 0.  1.
         -2   -1    0    0    0  501 -0.00000000000E+00 -0.00000000000E+00 -0.33565717427E+02  0.33565717523E+02  0.25500000000E-02 0. -1.
    5000001    1    1    2    0    0 -0.35050295824E+02  0.20064111872E+02  0.86720952883E+02  0.12280315750E+03  0.77000000000E+02 0.  0.
   -5000001    1    1    2    0    0  0.35050295824E+02 -0.20064111872E+02  0.10621901160E+03  0.13726824195E+03  0.77000000000E+02 0.  0.
<mgrwt>
<rscale>  0 0.17438837E+03</rscale>
<asrwt>0</asrwt>
<pdfrwt beam="1">  1        2 0.32357954E-01 0.17438837E+03</pdfrwt>
<pdfrwt beam="2">  1       -2 0.47951026E-02 0.17438837E+03</pdfrwt>
<totfact> 0.31908944E+04</totfact>
</mgrwt>
</event>
<event>
 4    1  0.6919593E-004  0.2202672E+03  0.7818608E-02  0.1133684E+00
         -2   -1    0    0    0  501 -0.00000000000E+00  0.00000000000E+00  0.14952637244E+03  0.14952637246E+03  0.25500000000E-02 0. -1.
          2   -1    0    0  501    0  0.00000000000E+00 -0.00000000000E+00 -0.81118848089E+02  0.81118848129E+02  0.25500000000E-02 0.  1.
    5000001    1    1    2    0    0  0.57059171485E+02  0.50262763852E+02  0.12787426770E+02  0.10897069681E+03  0.77000000000E+02 0.  0.
   -5000001    1    1    2    0    0 -0.57059171485E+02 -0.50262763852E+02  0.55620097576E+02  0.12167452377E+03  0.77000000000E+02 0.  0.
<mgrwt>
<rscale>  0 0.22026718E+03</rscale>
<asrwt>0</asrwt>
<pdfrwt beam="1">  1        2 0.11588407E-01 0.22026718E+03</pdfrwt>
<pdfrwt beam="2">  1       -2 0.21360910E-01 0.22026718E+03</pdfrwt>
<totfact> 0.97557939E+03</totfact>
</mgrwt>
</event>
<event>
 4    1  0.6919593E-004  0.1627181E+03  0.7818608E-02  0.1185662E+00
         -2   -1    0    0    0  501 -0.00000000000E+00  0.00000000000E+00  0.14854492353E+02  0.14854492572E+02  0.25500000000E-02 0. -1.
          2   -1    0    0  501    0  0.00000000000E+00 -0.00000000000E+00 -0.44560896324E+03  0.44560896325E+03  0.25500000000E-02 0.  1.
    5000001    1    1    2    0    0 -0.11688992672E+02 -0.22848928896E+02 -0.19947249921E+03  0.21535316121E+03  0.77000000000E+02 0.  0.
   -5000001    1    1    2    0    0  0.11688992672E+02  0.22848928896E+02 -0.23128197167E+03  0.24511029461E+03  0.77000000000E+02 0.  0.
<mgrwt>
<rscale>  0 0.16271810E+03</rscale>
<asrwt>0</asrwt>
<pdfrwt beam="1">  1        2 0.63658415E-01 0.16271810E+03</pdfrwt>
<pdfrwt beam="2">  1       -2 0.21220706E-02 0.16271810E+03</pdfrwt>
<totfact> 0.51337652E+04</totfact>
</mgrwt>
</event>
<event>
 4    1  0.6919593E-004  0.2405941E+03  0.7818608E-02  0.1119398E+00
         -2   -1    0    0    0  501 -0.00000000000E+00  0.00000000000E+00  0.45374129324E+02  0.45374129395E+02  0.25500000000E-02 0. -1.
          2   -1    0    0  501    0  0.00000000000E+00 -0.00000000000E+00 -0.31893448246E+03  0.31893448247E+03  0.25500000000E-02 0.  1.
    5000001    1    1    2    0    0  0.75021163582E+02 -0.51744320233E+02 -0.16007752185E+03  0.19964834751E+03  0.77000000000E+02 0.  0.
   -5000001    1    1    2    0    0 -0.75021163582E+02  0.51744320233E+02 -0.11348283129E+03  0.16466026436E+03  0.77000000000E+02 0.  0.
<mgrwt>
<rscale>  0 0.24059405E+03</rscale>
<asrwt>0</asrwt>
<pdfrwt beam="1">  1        2 0.45562068E-01 0.24059405E+03</pdfrwt>
<pdfrwt beam="2">  1       -2 0.64820187E-02 0.24059405E+03</pdfrwt>
<totfact> 0.14303918E+04</totfact>
</mgrwt>
</event>
<event>
 4    1  0.6919593E-004  0.2008270E+03  0.7818608E-02  0.1149043E+00
          2   -1    0    0  501    0  0.00000000000E+00  0.00000000000E+00  0.63985754315E+02  0.63985754365E+02  0.25500000000E-02 0.  1.
         -2   -1    0    0    0  501 -0.00000000000E+00 -0.00000000000E+00 -0.15757990850E+03  0.15757990852E+03  0.25500000000E-02 0. -1.
    5000001    1    1    2    0    0  0.12804589974E+02  0.57225094196E+02 -0.17292169262E+02  0.98319316759E+02  0.77000000000E+02 0.  0.
   -5000001    1    1    2    0    0 -0.12804589974E+02 -0.57225094196E+02 -0.76301984921E+02  0.12324634612E+03  0.77000000000E+02 0.  0.
<mgrwt>
<rscale>  0 0.20082698E+03</rscale>
<asrwt>0</asrwt>
<pdfrwt beam="1">  1        2 0.91408221E-02 0.20082698E+03</pdfrwt>
<pdfrwt beam="2">  1       -2 0.22511415E-01 0.20082698E+03</pdfrwt>
<totfact> 0.11868384E+04</totfact>
</mgrwt>
</event>
<event>
 4    1  0.6919593E-004  0.3767136E+03  0.7818608E-02  0.1052155E+00
         -2   -1    0    0    0  501 -0.00000000000E+00  0.00000000000E+00  0.26351545398E+02  0.26351545522E+02  0.25500000000E-02 0. -1.
          2   -1    0    0  501    0  0.00000000000E+00 -0.00000000000E+00 -0.13463451892E+04  0.13463451892E+04  0.25500000000E-02 0.  1.
    5000001    1    1    2    0    0  0.70102714069E+02  0.68078951689E+02 -0.11753202542E+04  0.11818865572E+04  0.77000000000E+02 0.  0.
   -5000001    1    1    2    0    0 -0.70102714069E+02 -0.68078951689E+02 -0.14467338959E+03  0.19081017750E+03  0.77000000000E+02 0.  0.
<mgrwt>
<rscale>  0 0.37671356E+03</rscale>
<asrwt>0</asrwt>
<pdfrwt beam="1">  1        2 0.19233498E+00 0.37671356E+03</pdfrwt>
<pdfrwt beam="2">  1       -2 0.37645074E-02 0.37671356E+03</pdfrwt>
<totfact> 0.56644873E+03</totfact>
</mgrwt>
</event>
<event>
 4    1  0.6919593E-004  0.2476435E+03  0.7818608E-02  0.1114803E+00
          2   -1    0    0  501    0  0.00000000000E+00  0.00000000000E+00  0.11758501130E+04  0.11758501130E+04  0.25500000000E-02 0.  1.
         -2   -1    0    0    0  501 -0.00000000000E+00 -0.00000000000E+00 -0.13038928108E+02  0.13038928358E+02  0.25500000000E-02 0. -1.
    5000001    1    1    2    0    0 -0.20505981775E-01 -0.96198005538E+02  0.63996139838E+03  0.65171592593E+03  0.77000000000E+02 0.  0.
   -5000001    1    1    2    0    0  0.20505981775E-01  0.96198005538E+02  0.52284978654E+03  0.53717311546E+03  0.77000000000E+02 0.  0.
<mgrwt>
<rscale>  0 0.24764350E+03</rscale>
<asrwt>0</asrwt>
<pdfrwt beam="1">  1        2 0.16797851E+00 0.24764350E+03</pdfrwt>
<pdfrwt beam="2">  1       -2 0.18627049E-02 0.24764350E+03</pdfrwt>
<totfact> 0.19691166E+04</totfact>
</mgrwt>
</event>
<event>
 4    1  0.6919593E-004  0.1982242E+03  0.7818608E-02  0.1151246E+00
         -2   -1    0    0    0  501 -0.00000000000E+00  0.00000000000E+00  0.49247942228E+01  0.49247948829E+01  0.25500000000E-02 0. -1.
          2   -1    0    0  501    0  0.00000000000E+00 -0.00000000000E+00 -0.19946427514E+04  0.19946427514E+04  0.25500000000E-02 0.  1.
    5000001    1    1    2    0    0  0.10204169103E+02 -0.59985081990E+02 -0.11345870666E+04  0.11388235802E+04  0.77000000000E+02 0.  0.
   -5000001    1    1    2    0    0 -0.10204169103E+02  0.59985081990E+02 -0.85513089062E+03  0.86074396612E+03  0.77000000000E+02 0.  0.
<mgrwt>
<rscale>  0 0.19822417E+03</rscale>
<asrwt>0</asrwt>
<pdfrwt beam="1">  1        2 0.28494845E+00 0.19822417E+03</pdfrwt>
<pdfrwt beam="2">  1       -2 0.70354336E-03 0.19822417E+03</pdfrwt>
<totfact> 0.31046700E+04</totfact>
</mgrwt>
</event>
<event>
 4    1  0.6919593E-004  0.2218988E+03  0.7818608E-02  0.1132475E+00
          2   -1    0    0  501    0  0.00000000000E+00  0.00000000000E+00  0.14656541576E+04  0.14656541576E+04  0.25500000000E-02 0.  1.
         -2   -1    0    0    0  501 -0.00000000000E+00 -0.00000000000E+00 -0.83988235420E+01  0.83988239291E+01  0.25500000000E-02 0. -1.
    5000001    1    1    2    0    0  0.36981135161E+02 -0.70627037683E+02  0.69542102895E+03  0.70419826066E+03  0.77000000000E+02 0.  0.
   -5000001    1    1    2    0    0 -0.36981135161E+02  0.70627037683E+02  0.76183430511E+03  0.76985472087E+03  0.77000000000E+02 0.  0.
<mgrwt>
<rscale>  0 0.22189881E+03</rscale>
<asrwt>0</asrwt>
<pdfrwt beam="1">  1        2 0.20937903E+00 0.22189881E+03</pdfrwt>
<pdfrwt beam="2">  1       -2 0.11998327E-02 0.22189881E+03</pdfrwt>
<totfact> 0.26240056E+04</totfact>
</mgrwt>
</event>
<event>
 4    1  0.6919593E-004  0.1747815E+03  0.7818608E-02  0.1172951E+00
         -2   -1    0    0    0  501 -0.00000000000E+00  0.00000000000E+00  0.48610537502E+03  0.48610537503E+03  0.25500000000E-02 0. -1.
          2   -1    0    0  501    0  0.00000000000E+00 -0.00000000000E+00 -0.15710883378E+02  0.15710883585E+02  0.25500000000E-02 0.  1.
    5000001    1    1    2    0    0  0.26600033494E+02 -0.31078658272E+02  0.25211001632E+03  0.26676188841E+03  0.77000000000E+02 0.  0.
   -5000001    1    1    2    0    0 -0.26600033494E+02  0.31078658272E+02  0.21828447532E+03  0.23505437020E+03  0.77000000000E+02 0.  0.
<mgrwt>
<rscale>  0 0.17478152E+03</rscale>
<asrwt>0</asrwt>
<pdfrwt beam="1">  1        2 0.22444119E-02 0.17478152E+03</pdfrwt>
<pdfrwt beam="2">  1       -2 0.69443625E-01 0.17478152E+03</pdfrwt>
<totfact> 0.87079649E+03</totfact>
</mgrwt>
</event>
<event>
 4    1  0.6919593E-004  0.5259049E+03  0.7818608E-02  0.1007230E+00
         -2   -1    0    0    0  501 -0.00000000000E+00  0.00000000000E+00  0.28334222080E+03  0.28334222081E+03  0.25500000000E-02 0. -1.
          2   -1    0    0  501    0  0.00000000000E+00 -0.00000000000E+00 -0.24402994076E+03  0.24402994078E+03  0.25500000000E-02 0.  1.
    5000001    1    1    2    0    0  0.95659729266E+02 -0.23058497879E+03 -0.10340008445E+02  0.26145005646E+03  0.77000000000E+02 0.  0.
   -5000001    1    1    2    0    0 -0.95659729266E+02  0.23058497879E+03  0.49652288480E+02  0.26592210513E+03  0.77000000000E+02 0.  0.
<mgrwt>
<rscale>  0 0.52590488E+03</rscale>
<asrwt>0</asrwt>
<pdfrwt beam="1">  1        2 0.34861420E-01 0.52590488E+03</pdfrwt>
<pdfrwt beam="2">  1       -2 0.40477460E-01 0.52590488E+03</pdfrwt>
<totfact> 0.87094524E+02</totfact>
</mgrwt>
</event>
<event>
 4    1  0.6919593E-004  0.2870777E+03  0.7818608E-02  0.1091885E+00
         -2   -1    0    0    0  501 -0.00000000000E+00  0.00000000000E+00  0.75363019041E+01  0.75363023355E+01  0.25500000000E-02 0. -1.
          2   -1    0    0  501    0  0.00000000000E+00 -0.00000000000E+00 -0.27338875780E+04  0.27338875780E+04  0.25500000000E-02 0.  1.
    5000001    1    1    2    0    0  0.85619784257E+02  0.80552174202E+02 -0.10839467035E+04  0.10930182324E+04  0.77000000000E+02 0.  0.
   -5000001    1    1    2    0    0 -0.85619784257E+02 -0.80552174202E+02 -0.16424045725E+04  0.16484056479E+04  0.77000000000E+02 0.  0.
<mgrwt>
<rscale>  0 0.28707771E+03</rscale>
<asrwt>0</asrwt>
<pdfrwt beam="1">  1        2 0.39055474E+00 0.28707771E+03</pdfrwt>
<pdfrwt beam="2">  1       -2 0.10766163E-02 0.28707771E+03</pdfrwt>
<totfact> 0.73144435E+03</totfact>
</mgrwt>
</event>
<event>
 4    1  0.6919593E-004  0.3763226E+03  0.7818608E-02  0.1052301E+00
          2   -1    0    0  501    0  0.00000000000E+00  0.00000000000E+00  0.68825386396E+03  0.68825386396E+03  0.25500000000E-02 0.  1.
         -2   -1    0    0    0  501 -0.00000000000E+00 -0.00000000000E+00 -0.51441298821E+02  0.51441298884E+02  0.25500000000E-02 0. -1.
    5000001    1    1    2    0    0 -0.24472178555E+02  0.16595771032E+03  0.39021950654E+03  0.43167245965E+03  0.77000000000E+02 0.  0.
   -5000001    1    1    2    0    0  0.24472178555E+02 -0.16595771032E+03  0.24659305860E+03  0.30802270320E+03  0.77000000000E+02 0.  0.
<mgrwt>
<rscale>  0 0.37632259E+03</rscale>
<asrwt>0</asrwt>
<pdfrwt beam="1">  1        2 0.98321966E-01 0.37632259E+03</pdfrwt>
<pdfrwt beam="2">  1       -2 0.73487581E-02 0.37632259E+03</pdfrwt>
<totfact> 0.50893985E+03</totfact>
</mgrwt>
</event>
<event>
 4    1  0.6919593E-004  0.3949930E+03  0.7818608E-02  0.1045527E+00
         -2   -1    0    0    0  501 -0.00000000000E+00  0.00000000000E+00  0.65436544913E+02  0.65436544963E+02  0.25500000000E-02 0. -1.
          2   -1    0    0  501    0  0.00000000000E+00 -0.00000000000E+00 -0.59607172754E+03  0.59607172755E+03  0.25500000000E-02 0.  1.
    5000001    1    1    2    0    0  0.10757924453E+03 -0.55091112175E+02 -0.37729002647E+02  0.14819177486E+03  0.77000000000E+02 0.  0.
   -5000001    1    1    2    0    0 -0.10757924453E+03  0.55091112175E+02 -0.49290617998E+03  0.51331649765E+03  0.77000000000E+02 0.  0.
<mgrwt>
<rscale>  0 0.39499303E+03</rscale>
<asrwt>0</asrwt>
<pdfrwt beam="1">  1        2 0.85153101E-01 0.39499303E+03</pdfrwt>
<pdfrwt beam="2">  1       -2 0.93480782E-02 0.39499303E+03</pdfrwt>
<totfact> 0.41238822E+03</totfact>
</mgrwt>
</event>
<event>
 4    1  0.6919593E-004  0.2092347E+03  0.7818608E-02  0.1142173E+00
          2   -1    0    0  501    0  0.00000000000E+00  0.00000000000E+00  0.28990407658E+04  0.28990407658E+04  0.25500000000E-02 0.  1.
         -2   -1    0    0    0  501 -0.00000000000E+00 -0.00000000000E+00 -0.37753156185E+01  0.37753164797E+01  0.25500000000E-02 0. -1.
    5000001    1    1    2    0    0  0.41705105461E+02  0.52172774228E+02  0.17743175927E+04  0.17772431555E+04  0.77000000000E+02 0.  0.
   -5000001    1    1    2    0    0 -0.41705105461E+02 -0.52172774228E+02  0.11209478575E+04  0.11255729268E+04  0.77000000000E+02 0.  0.
<mgrwt>
<rscale>  0 0.20923475E+03</rscale>
<asrwt>0</asrwt>
<pdfrwt beam="1">  1        2 0.41414974E+00 0.20923475E+03</pdfrwt>
<pdfrwt beam="2">  1       -2 0.53932949E-03 0.20923475E+03</pdfrwt>
<totfact> 0.16268218E+04</totfact>
</mgrwt>
</event>
<event>
 4    1  0.6919593E-004  0.2082663E+03  0.7818608E-02  0.1142946E+00
         -2   -1    0    0    0  501 -0.00000000000E+00  0.00000000000E+00  0.36508638910E+01  0.36508647816E+01  0.25500000000E-02 0. -1.
          2   -1    0    0  501    0  0.00000000000E+00 -0.00000000000E+00 -0.29701762917E+04  0.29701762917E+04  0.25500000000E-02 0.  1.
    5000001    1    1    2    0    0 -0.31694401737E+02 -0.53628676623E+02 -0.10240789018E+04  0.10288572142E+04  0.77000000000E+02 0.  0.
   -5000001    1    1    2    0    0  0.31694401737E+02  0.53628676623E+02 -0.19424465260E+04  0.19449699423E+04  0.77000000000E+02 0.  0.
<mgrwt>
<rscale>  0 0.20826628E+03</rscale>
<asrwt>0</asrwt>
<pdfrwt beam="1">  1        2 0.42430935E+00 0.20826628E+03</pdfrwt>
<pdfrwt beam="2">  1       -2 0.52155395E-03 0.20826628E+03</pdfrwt>
<totfact> 0.15672512E+04</totfact>
</mgrwt>
</event>
<event>
 4    1  0.6919593E-004  0.4561805E+03  0.7818608E-02  0.1025895E+00
          2   -1    0    0  501    0  0.00000000000E+00  0.00000000000E+00  0.21016292617E+04  0.21016292617E+04  0.25500000000E-02 0.  1.
         -2   -1    0    0    0  501 -0.00000000000E+00 -0.00000000000E+00 -0.24754684578E+02  0.24754684710E+02  0.25500000000E-02 0. -1.
    5000001    1    1    2    0    0 -0.25667292147E+01  0.21396596993E+03  0.11202616567E+04  0.11431111949E+04  0.77000000000E+02 0.  0.
   -5000001    1    1    2    0    0  0.25667292147E+01 -0.21396596993E+03  0.95661292042E+03  0.98327275153E+03  0.77000000000E+02 0.  0.
<mgrwt>
<rscale>  0 0.45618053E+03</rscale>
<asrwt>0</asrwt>
<pdfrwt beam="1">  1        2 0.30023283E+00 0.45618053E+03</pdfrwt>
<pdfrwt beam="2">  1       -2 0.35363826E-02 0.45618053E+03</pdfrwt>
<totfact> 0.25879747E+03</totfact>
</mgrwt>
</event>
<event>
 4    1  0.6919593E-004  0.2721008E+03  0.7818608E-02  0.1100083E+00
          2   -1    0    0  501    0  0.00000000000E+00  0.00000000000E+00  0.25025407886E+04  0.25025407886E+04  0.25500000000E-02 0.  1.
         -2   -1    0    0    0  501 -0.00000000000E+00 -0.00000000000E+00 -0.73963657600E+01  0.73963661996E+01  0.25500000000E-02 0. -1.
    5000001    1    1    2    0    0  0.41685267152E+02  0.89664972583E+02  0.75918631136E+03  0.76946106085E+03  0.77000000000E+02 0.  0.
   -5000001    1    1    2    0    0 -0.41685267152E+02 -0.89664972583E+02  0.17359581115E+04  0.17404760939E+04  0.77000000000E+02 0.  0.
<mgrwt>
<rscale>  0 0.27210077E+03</rscale>
<asrwt>0</asrwt>
<pdfrwt beam="1">  1        2 0.35750653E+00 0.27210077E+03</pdfrwt>
<pdfrwt beam="2">  1       -2 0.10566216E-02 0.27210077E+03</pdfrwt>
<totfact> 0.98374321E+03</totfact>
</mgrwt>
</event>
<event>
 4    1  0.6919593E-004  0.2607601E+03  0.7818608E-02  0.1106687E+00
         -2   -1    0    0    0  501 -0.00000000000E+00  0.00000000000E+00  0.13144329816E+02  0.13144330063E+02  0.25500000000E-02 0. -1.
          2   -1    0    0  501    0  0.00000000000E+00 -0.00000000000E+00 -0.12932538598E+04  0.12932538598E+04  0.25500000000E-02 0.  1.
    5000001    1    1    2    0    0 -0.35502288435E+02  0.83314036457E+02 -0.90837153915E+03  0.91611652877E+03  0.77000000000E+02 0.  0.
   -5000001    1    1    2    0    0  0.35502288435E+02 -0.83314036457E+02 -0.37173799084E+03  0.39028166109E+03  0.77000000000E+02 0.  0.
<mgrwt>
<rscale>  0 0.26076008E+03</rscale>
<asrwt>0</asrwt>
<pdfrwt beam="1">  1        2 0.18475047E+00 0.26076008E+03</pdfrwt>
<pdfrwt beam="2">  1       -2 0.18777622E-02 0.26076008E+03</pdfrwt>
<totfact> 0.16873997E+04</totfact>
</mgrwt>
</event>
<event>
 4    1  0.6919593E-004  0.2563527E+03  0.7818608E-02  0.1109355E+00
         -2   -1    0    0    0  501 -0.00000000000E+00  0.00000000000E+00  0.13237410927E+02  0.13237411173E+02  0.25500000000E-02 0. -1.
          2   -1    0    0  501    0  0.00000000000E+00 -0.00000000000E+00 -0.12411168649E+04  0.12411168649E+04  0.25500000000E-02 0.  1.
    5000001    1    1    2    0    0  0.94251711774E+02 -0.40209191351E+02 -0.61442569909E+03  0.62765285305E+03  0.77000000000E+02 0.  0.
   -5000001    1    1    2    0    0 -0.94251711774E+02  0.40209191351E+02 -0.61345375493E+03  0.62670142307E+03  0.77000000000E+02 0.  0.
<mgrwt>
<rscale>  0 0.25635268E+03</rscale>
<asrwt>0</asrwt>
<pdfrwt beam="1">  1        2 0.17730234E+00 0.25635268E+03</pdfrwt>
<pdfrwt beam="2">  1       -2 0.18910595E-02 0.25635268E+03</pdfrwt>
<totfact> 0.17786141E+04</totfact>
</mgrwt>
</event>
<event>
 4    1  0.6919593E-004  0.2002368E+03  0.7818608E-02  0.1149539E+00
          2   -1    0    0  501    0  0.00000000000E+00  0.00000000000E+00  0.10704883955E+03  0.10704883958E+03  0.25500000000E-02 0.  1.
         -2   -1    0    0    0  501 -0.00000000000E+00 -0.00000000000E+00 -0.93636628046E+02  0.93636628080E+02  0.25500000000E-02 0. -1.
    5000001    1    1    2    0    0 -0.47169111328E+02  0.41887711392E+02 -0.40504616259E+01  0.99623850902E+02  0.77000000000E+02 0.  0.
   -5000001    1    1    2    0    0  0.47169111328E+02 -0.41887711392E+02  0.17462673130E+02  0.10106161676E+03  0.77000000000E+02 0.  0.
<mgrwt>
<rscale>  0 0.20023678E+03</rscale>
<asrwt>0</asrwt>
<pdfrwt beam="1">  1        2 0.15292691E-01 0.20023678E+03</pdfrwt>
<pdfrwt beam="2">  1       -2 0.13376661E-01 0.20023678E+03</pdfrwt>
<totfact> 0.15193013E+04</totfact>
</mgrwt>
</event>
<event>
 4    1  0.6919593E-004  0.2980646E+03  0.7818608E-02  0.1086212E+00
          2   -1    0    0  501    0  0.00000000000E+00  0.00000000000E+00  0.29421982724E+03  0.29421982725E+03  0.25500000000E-02 0.  1.
         -2   -1    0    0    0  501 -0.00000000000E+00 -0.00000000000E+00 -0.75489911883E+02  0.75489911926E+02  0.25500000000E-02 0. -1.
    5000001    1    1    2    0    0 -0.70755313014E+02  0.78141189491E+02  0.19854445822E+03  0.23761578589E+03  0.77000000000E+02 0.  0.
   -5000001    1    1    2    0    0  0.70755313014E+02 -0.78141189491E+02  0.20185457137E+02  0.13209395329E+03  0.77000000000E+02 0.  0.
<mgrwt>
<rscale>  0 0.29806462E+03</rscale>
<asrwt>0</asrwt>
<pdfrwt beam="1">  1        2 0.42031405E-01 0.29806462E+03</pdfrwt>
<pdfrwt beam="2">  1       -2 0.10784273E-01 0.29806462E+03</pdfrwt>
<totfact> 0.70908865E+03</totfact>
</mgrwt>
</event>
<event>
 4    1  0.6919593E-004  0.1941745E+03  0.7818608E-02  0.1154749E+00
          2   -1    0    0  501    0  0.00000000000E+00  0.00000000000E+00  0.11880049713E+04  0.11880049713E+04  0.25500000000E-02 0.  1.
         -2   -1    0    0    0  501 -0.00000000000E+00 -0.00000000000E+00 -0.79342553242E+01  0.79342557339E+01  0.25500000000E-02 0. -1.
    5000001    1    1    2    0    0 -0.40093660592E+02  0.30885507006E+02  0.40165172557E+03  0.41208557949E+03  0.77000000000E+02 0.  0.
   -5000001    1    1    2    0    0  0.40093660592E+02 -0.30885507006E+02  0.77841899043E+03  0.78385364758E+03  0.77000000000E+02 0.  0.
<mgrwt>
<rscale>  0 0.19417451E+03</rscale>
<asrwt>0</asrwt>
<pdfrwt beam="1">  1        2 0.16971507E+00 0.19417451E+03</pdfrwt>
<pdfrwt beam="2">  1       -2 0.11334646E-02 0.19417451E+03</pdfrwt>
<totfact> 0.39375853E+04</totfact>
</mgrwt>
</event>
<event>
 4    1  0.6919593E-004  0.4292969E+03  0.7818608E-02  0.1034082E+00
         -2   -1    0    0    0  501 -0.00000000000E+00  0.00000000000E+00  0.14156965922E+02  0.14156966151E+02  0.25500000000E-02 0. -1.
          2   -1    0    0  501    0  0.00000000000E+00 -0.00000000000E+00 -0.32545073161E+04  0.32545073161E+04  0.25500000000E-02 0.  1.
    5000001    1    1    2    0    0  0.94552130217E+02 -0.16772512951E+03 -0.20422629015E+04  0.20527636452E+04  0.77000000000E+02 0.  0.
   -5000001    1    1    2    0    0 -0.94552130217E+02  0.16772512951E+03 -0.11980874487E+04  0.12159006371E+04  0.77000000000E+02 0.  0.
<mgrwt>
<rscale>  0 0.42929686E+03</rscale>
<asrwt>0</asrwt>
<pdfrwt beam="1">  1        2 0.46492914E+00 0.42929686E+03</pdfrwt>
<pdfrwt beam="2">  1       -2 0.20224258E-02 0.42929686E+03</pdfrwt>
<totfact> 0.15073438E+03</totfact>
</mgrwt>
</event>
<event>
 4    1  0.6919593E-004  0.2153120E+03  0.7818608E-02  0.1137427E+00
         -2   -1    0    0    0  501 -0.00000000000E+00  0.00000000000E+00  0.29988028587E+02  0.29988028695E+02  0.25500000000E-02 0. -1.
          2   -1    0    0  501    0  0.00000000000E+00 -0.00000000000E+00 -0.38648148354E+03  0.38648148355E+03  0.25500000000E-02 0.  1.
    5000001    1    1    2    0    0 -0.74226328296E+02 -0.11903415975E+02 -0.17226030072E+03  0.20311043874E+03  0.77000000000E+02 0.  0.
   -5000001    1    1    2    0    0  0.74226328296E+02  0.11903415975E+02 -0.18423315423E+03  0.21335907350E+03  0.77000000000E+02 0.  0.
<mgrwt>
<rscale>  0 0.21531203E+03</rscale>
<asrwt>0</asrwt>
<pdfrwt beam="1">  1        2 0.55211637E-01 0.21531203E+03</pdfrwt>
<pdfrwt beam="2">  1       -2 0.42840043E-02 0.21531203E+03</pdfrwt>
<totfact> 0.21683530E+04</totfact>
</mgrwt>
</event>
<event>
 4    1  0.6919593E-004  0.2470529E+03  0.7818608E-02  0.1115182E+00
          2   -1    0    0  501    0  0.00000000000E+00  0.00000000000E+00  0.16929875716E+02  0.16929875908E+02  0.25500000000E-02 0.  1.
         -2   -1    0    0    0  501 -0.00000000000E+00 -0.00000000000E+00 -0.90129350162E+03  0.90129350163E+03  0.25500000000E-02 0. -1.
    5000001    1    1    2    0    0  0.84626781494E+02  0.40975199076E+02 -0.52438139193E+03  0.53828013458E+03  0.77000000000E+02 0.  0.
   -5000001    1    1    2    0    0 -0.84626781494E+02 -0.40975199076E+02 -0.35998223398E+03  0.37994324295E+03  0.77000000000E+02 0.  0.
<mgrwt>
<rscale>  0 0.24705293E+03</rscale>
<asrwt>0</asrwt>
<pdfrwt beam="1">  1        2 0.24185543E-02 0.24705293E+03</pdfrwt>
<pdfrwt beam="2">  1       -2 0.12875618E+00 0.24705293E+03</pdfrwt>
<totfact> 0.19568444E+03</totfact>
</mgrwt>
</event>
<event>
 4    1  0.6919593E-004  0.2385505E+03  0.7818608E-02  0.1120762E+00
         -2   -1    0    0    0  501 -0.00000000000E+00  0.00000000000E+00  0.36413432197E+02  0.36413432286E+02  0.25500000000E-02 0. -1.
          2   -1    0    0  501    0  0.00000000000E+00 -0.00000000000E+00 -0.39069609327E+03  0.39069609328E+03  0.25500000000E-02 0.  1.
    5000001    1    1    2    0    0 -0.75169399863E+02  0.37730701023E+02 -0.11451337617E+03  0.16160556240E+03  0.77000000000E+02 0.  0.
   -5000001    1    1    2    0    0  0.75169399863E+02 -0.37730701023E+02 -0.23976928490E+03  0.26550396317E+03  0.77000000000E+02 0.  0.
<mgrwt>
<rscale>  0 0.23855050E+03</rscale>
<asrwt>0</asrwt>
<pdfrwt beam="1">  1        2 0.55813725E-01 0.23855050E+03</pdfrwt>
<pdfrwt beam="2">  1       -2 0.52019191E-02 0.23855050E+03</pdfrwt>
<totfact> 0.16090281E+04</totfact>
</mgrwt>
</event>
<event>
 4    1  0.6919593E-004  0.2977593E+03  0.7818608E-02  0.1086366E+00
         -2   -1    0    0    0  501 -0.00000000000E+00  0.00000000000E+00  0.14527694523E+02  0.14527694747E+02  0.25500000000E-02 0.  1.
          2   -1    0    0  501    0  0.00000000000E+00 -0.00000000000E+00 -0.15257169933E+04  0.15257169933E+04  0.25500000000E-02 0. -1.
    5000001    1    1    2    0    0 -0.10498547448E+03  0.65505867073E+02 -0.59842522203E+03  0.61591778253E+03  0.77000000000E+02 0.  0.
   -5000001    1    1    2    0    0  0.10498547448E+03 -0.65505867073E+02 -0.91276407670E+03  0.92432690547E+03  0.77000000000E+02 0.  0.
<mgrwt>
<rscale>  0 0.29775930E+03</rscale>
<asrwt>0</asrwt>
<pdfrwt beam="1">  1        2 0.21795947E+00 0.29775930E+03</pdfrwt>
<pdfrwt beam="2">  1       -2 0.20753859E-02 0.29775930E+03</pdfrwt>
<totfact> 0.11102669E+04</totfact>
</mgrwt>
</event>
<event>
 4    1  0.6919593E-004  0.5987003E+03  0.7818608E-02  0.9908106E-01
         -2   -1    0    0    0  501 -0.00000000000E+00  0.00000000000E+00  0.19762474936E+03  0.19762474938E+03  0.25500000000E-02 0. -1.
          2   -1    0    0  501    0  0.00000000000E+00 -0.00000000000E+00 -0.45343776249E+03  0.45343776250E+03  0.25500000000E-02 0.  1.
    5000001    1    1    2    0    0 -0.25512922048E+03 -0.13337524825E+03 -0.15869618061E+03  0.33762901790E+03  0.77000000000E+02 0.  0.
   -5000001    1    1    2    0    0  0.25512922048E+03  0.13337524825E+03 -0.97116832518E+02  0.31343349398E+03  0.77000000000E+02 0.  0.
<mgrwt>
<rscale>  0 0.59870034E+03</rscale>
<asrwt>0</asrwt>
<pdfrwt beam="1">  1        2 0.64776823E-01 0.59870034E+03</pdfrwt>
<pdfrwt beam="2">  1       -2 0.28232107E-01 0.59870034E+03</pdfrwt>
<totfact> 0.86412811E+02</totfact>
</mgrwt>
</event>
<event>
 4    1  0.6919593E-004  0.2839271E+03  0.7818608E-02  0.1093563E+00
          2   -1    0    0  501    0  0.00000000000E+00  0.00000000000E+00  0.37092040490E+02  0.37092040578E+02  0.25500000000E-02 0.  1.
         -2   -1    0    0    0  501 -0.00000000000E+00 -0.00000000000E+00 -0.54334171577E+03  0.54334171578E+03  0.25500000000E-02 0. -1.
    5000001    1    1    2    0    0 -0.73948614319E+02  0.77796518384E+02 -0.35942787610E+03  0.38293353725E+03  0.77000000000E+02 0.  0.
   -5000001    1    1    2    0    0  0.73948614319E+02 -0.77796518384E+02 -0.14682179918E+03  0.19750021911E+03  0.77000000000E+02 0.  0.
<mgrwt>
<rscale>  0 0.28392712E+03</rscale>
<asrwt>0</asrwt>
<pdfrwt beam="1">  1        2 0.52988632E-02 0.28392712E+03</pdfrwt>
<pdfrwt beam="2">  1       -2 0.77620241E-01 0.28392712E+03</pdfrwt>
<totfact> 0.22152863E+03</totfact>
</mgrwt>
</event>
<event>
 4    1  0.6919593E-004  0.4155093E+03  0.7818608E-02  0.1038538E+00
          2   -1    0    0  501    0  0.00000000000E+00  0.00000000000E+00  0.45743711519E+03  0.45743711520E+03  0.25500000000E-02 0.  1.
         -2   -1    0    0    0  501 -0.00000000000E+00 -0.00000000000E+00 -0.94356110459E+02  0.94356110494E+02  0.25500000000E-02 0. -1.
    5000001    1    1    2    0    0 -0.17554020285E+03 -0.66506817606E+02  0.12221820384E+03  0.23686242621E+03  0.77000000000E+02 0.  0.
   -5000001    1    1    2    0    0  0.17554020285E+03  0.66506817606E+02  0.24086280089E+03  0.31493079947E+03  0.77000000000E+02 0.  0.
<mgrwt>
<rscale>  0 0.41550926E+03</rscale>
<asrwt>0</asrwt>
<pdfrwt beam="1">  1        2 0.65348159E-01 0.41550926E+03</pdfrwt>
<pdfrwt beam="2">  1       -2 0.13479444E-01 0.41550926E+03</pdfrwt>
<totfact> 0.30758038E+03</totfact>
</mgrwt>
</event>
<event>
 4    1  0.6919593E-004  0.1792797E+03  0.7818608E-02  0.1168502E+00
          2   -1    0    0  501    0  0.00000000000E+00  0.00000000000E+00  0.23257352972E+02  0.23257353112E+02  0.25500000000E-02 0.  1.
         -2   -1    0    0    0  501 -0.00000000000E+00 -0.00000000000E+00 -0.34549513223E+03  0.34549513224E+03  0.25500000000E-02 0. -1.
    5000001    1    1    2    0    0 -0.29707466229E+02 -0.76212610510E+01 -0.23134433037E+03  0.24574339536E+03  0.77000000000E+02 0.  0.
   -5000001    1    1    2    0    0  0.29707466229E+02  0.76212610510E+01 -0.90893448894E+02  0.12300909000E+03  0.77000000000E+02 0.  0.
<mgrwt>
<rscale>  0 0.17927970E+03</rscale>
<asrwt>0</asrwt>
<pdfrwt beam="1">  1        2 0.33224792E-02 0.17927970E+03</pdfrwt>
<pdfrwt beam="2">  1       -2 0.49356444E-01 0.17927970E+03</pdfrwt>
<totfact> 0.10326725E+04</totfact>
</mgrwt>
</event>
<event>
 4    1  0.6919593E-004  0.3500790E+03  0.7818608E-02  0.1062583E+00
         -2   -1    0    0    0  501 -0.00000000000E+00  0.00000000000E+00  0.34179476813E+02  0.34179476908E+02  0.25500000000E-02 0. -1.
          2   -1    0    0  501    0  0.00000000000E+00 -0.00000000000E+00 -0.89641002920E+03  0.89641002921E+03  0.25500000000E-02 0.  1.
    5000001    1    1    2    0    0  0.14543243763E+03 -0.57802239642E+02 -0.39185504844E+03  0.42891849087E+03  0.77000000000E+02 0.  0.
   -5000001    1    1    2    0    0 -0.14543243763E+03  0.57802239642E+02 -0.47037550395E+03  0.50167101525E+03  0.77000000000E+02 0.  0.
<mgrwt>
<rscale>  0 0.35007900E+03</rscale>
<asrwt>0</asrwt>
<pdfrwt beam="1">  1        2 0.12805856E+00 0.35007900E+03</pdfrwt>
<pdfrwt beam="2">  1       -2 0.48827830E-02 0.35007900E+03</pdfrwt>
<totfact> 0.68774393E+03</totfact>
</mgrwt>
</event>
<event>
 4    1  0.6919593E-004  0.3341412E+03  0.7818608E-02  0.1069319E+00
         -2   -1    0    0    0  501 -0.00000000000E+00  0.00000000000E+00  0.51023826826E+03  0.51023826827E+03  0.25500000000E-02 0. -1.
          2   -1    0    0  501    0  0.00000000000E+00 -0.00000000000E+00 -0.54704995539E+02  0.54704995598E+02  0.25500000000E-02 0.  1.
    5000001    1    1    2    0    0  0.90971958455E+02 -0.97710668325E+02  0.33681965519E+03  0.37040484885E+03  0.77000000000E+02 0.  0.
   -5000001    1    1    2    0    0 -0.90971958455E+02  0.97710668325E+02  0.11871361754E+03  0.19453841502E+03  0.77000000000E+02 0.  0.
<mgrwt>
<rscale>  0 0.33414118E+03</rscale>
<asrwt>0</asrwt>
<pdfrwt beam="1">  1        2 0.78149993E-02 0.33414118E+03</pdfrwt>
<pdfrwt beam="2">  1       -2 0.72891182E-01 0.33414118E+03</pdfrwt>
<totfact> 0.15388927E+03</totfact>
</mgrwt>
</event>
<event>
 4    1  0.6919593E-004  0.3620586E+03  0.7818608E-02  0.1057772E+00
          2   -1    0    0  501    0  0.00000000000E+00  0.00000000000E+00  0.12245536307E+04  0.12245536307E+04  0.25500000000E-02 0.  1.
         -2   -1    0    0    0  501 -0.00000000000E+00 -0.00000000000E+00 -0.26762081110E+02  0.26762081231E+02  0.25500000000E-02 0. -1.
    5000001    1    1    2    0    0  0.80421849103E+02 -0.10741905548E+03  0.92377189165E+03  0.93663762208E+03  0.77000000000E+02 0.  0.
   -5000001    1    1    2    0    0 -0.80421849103E+02  0.10741905548E+03  0.27401965792E+03  0.31467808983E+03  0.77000000000E+02 0.  0.
<mgrwt>
<rscale>  0 0.36205858E+03</rscale>
<asrwt>0</asrwt>
<pdfrwt beam="1">  1        2 0.17493628E+00 0.36205858E+03</pdfrwt>
<pdfrwt beam="2">  1       -2 0.38231533E-02 0.36205858E+03</pdfrwt>
<totfact> 0.64273418E+03</totfact>
</mgrwt>
</event>
<event>
 4    1  0.6919593E-004  0.1627832E+03  0.7818608E-02  0.1185590E+00
          2   -1    0    0  501    0  0.00000000000E+00  0.00000000000E+00  0.32653467897E+04  0.32653467897E+04  0.25500000000E-02 0.  1.
         -2   -1    0    0    0  501 -0.00000000000E+00 -0.00000000000E+00 -0.20287561321E+01  0.20287577347E+01  0.25500000000E-02 0. -1.
    5000001    1    1    2    0    0 -0.19878838063E+02  0.11443419961E+02  0.13703574212E+04  0.13727106694E+04  0.77000000000E+02 0.  0.
   -5000001    1    1    2    0    0  0.19878838063E+02 -0.11443419961E+02  0.18929606124E+04  0.18946648780E+04  0.77000000000E+02 0.  0.
<mgrwt>
<rscale>  0 0.16278323E+03</rscale>
<asrwt>0</asrwt>
<pdfrwt beam="1">  1        2 0.46647420E+00 0.16278323E+03</pdfrwt>
<pdfrwt beam="2">  1       -2 0.28982485E-03 0.16278323E+03</pdfrwt>
<totfact> 0.24999869E+04</totfact>
</mgrwt>
</event>
<event>
 4    1  0.6919593E-004  0.2862568E+03  0.7818608E-02  0.1092320E+00
         -2   -1    0    0    0  501 -0.00000000000E+00  0.00000000000E+00  0.23330191019E+02  0.23330191158E+02  0.25500000000E-02 0. -1.
          2   -1    0    0  501    0  0.00000000000E+00 -0.00000000000E+00 -0.87807879032E+03  0.87807879032E+03  0.25500000000E-02 0.  1.
    5000001    1    1    2    0    0  0.90069326939E+02 -0.79740791649E+02 -0.45652013344E+03  0.47834162452E+03  0.77000000000E+02 0.  0.
   -5000001    1    1    2    0    0 -0.90069326939E+02  0.79740791649E+02 -0.39822846586E+03  0.42306735696E+03  0.77000000000E+02 0.  0.
<mgrwt>
<rscale>  0 0.28625685E+03</rscale>
<asrwt>0</asrwt>
<pdfrwt beam="1">  1        2 0.12543981E+00 0.28625685E+03</pdfrwt>
<pdfrwt beam="2">  1       -2 0.33328850E-02 0.28625685E+03</pdfrwt>
<totfact> 0.12505588E+04</totfact>
</mgrwt>
</event>
<event>
 4    1  0.6919593E-004  0.2852951E+03  0.7818608E-02  0.1092832E+00
          2   -1    0    0  501    0  0.00000000000E+00  0.00000000000E+00  0.36326878928E+03  0.36326878929E+03  0.25500000000E-02 0.  1.
         -2   -1    0    0    0  501 -0.00000000000E+00 -0.00000000000E+00 -0.56014510192E+02  0.56014510250E+02  0.25500000000E-02 0. -1.
    5000001    1    1    2    0    0  0.68315175126E+01  0.74795633715E+02  0.15932306566E+02  0.10873773424E+03  0.77000000000E+02 0.  0.
   -5000001    1    1    2    0    0 -0.68315175126E+01 -0.74795633715E+02  0.29132197252E+03  0.31054556530E+03  0.77000000000E+02 0.  0.
<mgrwt>
<rscale>  0 0.28529510E+03</rscale>
<asrwt>0</asrwt>
<pdfrwt beam="1">  1        2 0.51895541E-01 0.28529510E+03</pdfrwt>
<pdfrwt beam="2">  1       -2 0.80020730E-02 0.28529510E+03</pdfrwt>
<totfact> 0.90442462E+03</totfact>
</mgrwt>
</event>
<event>
 4    1  0.6919593E-004  0.2835373E+03  0.7818608E-02  0.1093772E+00
         -2   -1    0    0    0  501 -0.00000000000E+00  0.00000000000E+00  0.10675133265E+03  0.10675133268E+03  0.25500000000E-02 0. -1.
          2   -1    0    0  501    0  0.00000000000E+00 -0.00000000000E+00 -0.18827259353E+03  0.18827259355E+03  0.25500000000E-02 0.  1.
    5000001    1    1    2    0    0 -0.99187946243E+02  0.65624121486E+02 -0.35602349329E+02  0.14608662252E+03  0.77000000000E+02 0.  0.
   -5000001    1    1    2    0    0  0.99187946243E+02 -0.65624121486E+02 -0.45918911551E+02  0.14893730372E+03  0.77000000000E+02 0.  0.
<mgrwt>
<rscale>  0 0.28353730E+03</rscale>
<asrwt>0</asrwt>
<pdfrwt beam="1">  1        2 0.26896085E-01 0.28353730E+03</pdfrwt>
<pdfrwt beam="2">  1       -2 0.15250191E-01 0.28353730E+03</pdfrwt>
<totfact> 0.65551747E+03</totfact>
</mgrwt>
</event>
<event>
 4    1  0.6919593E-004  0.4432793E+03  0.7818608E-02  0.1029745E+00
         -2   -1    0    0    0  501 -0.00000000000E+00  0.00000000000E+00  0.63510737139E+02  0.63510737190E+02  0.25500000000E-02 0. -1.
          2   -1    0    0  501    0  0.00000000000E+00 -0.00000000000E+00 -0.77347778879E+03  0.77347778879E+03  0.25500000000E-02 0.  1.
    5000001    1    1    2    0    0  0.20242353043E+03  0.41549799183E+02 -0.39692790156E+03  0.45407315547E+03  0.77000000000E+02 0.  0.
   -5000001    1    1    2    0    0 -0.20242353043E+03 -0.41549799183E+02 -0.31303915009E+03  0.38291537051E+03  0.77000000000E+02 0.  0.
<mgrwt>
<rscale>  0 0.44327935E+03</rscale>
<asrwt>0</asrwt>
<pdfrwt beam="1">  1        2 0.11049682E+00 0.44327935E+03</pdfrwt>
<pdfrwt beam="2">  1       -2 0.90729629E-02 0.44327935E+03</pdfrwt>
<totfact> 0.31698565E+03</totfact>
</mgrwt>
</event>
<event>
 4    1  0.6919593E-004  0.2410386E+03  0.7818608E-02  0.1119103E+00
         -2   -1    0    0    0  501 -0.00000000000E+00  0.00000000000E+00  0.11567571738E+03  0.11567571741E+03  0.25500000000E-02 0. -1.
          2   -1    0    0  501    0  0.00000000000E+00 -0.00000000000E+00 -0.12556570744E+03  0.12556570747E+03  0.25500000000E-02 0.  1.
    5000001    1    1    2    0    0  0.62734615729E+02  0.62133447656E+02 -0.33247862136E+02  0.12178102342E+03  0.77000000000E+02 0.  0.
   -5000001    1    1    2    0    0 -0.62734615729E+02 -0.62133447656E+02  0.23357872071E+02  0.11946040146E+03  0.77000000000E+02 0.  0.
<mgrwt>
<rscale>  0 0.24103861E+03</rscale>
<asrwt>0</asrwt>
<pdfrwt beam="1">  1        2 0.17937958E-01 0.24103861E+03</pdfrwt>
<pdfrwt beam="2">  1       -2 0.16525103E-01 0.24103861E+03</pdfrwt>
<totfact> 0.90108825E+03</totfact>
</mgrwt>
</event>
<event>
 4    1  0.6919593E-004  0.2438781E+03  0.7818608E-02  0.1117236E+00
         -2   -1    0    0    0  501 -0.00000000000E+00  0.00000000000E+00  0.54498599464E+01  0.54498605429E+01  0.25500000000E-02 0. -1.
          2   -1    0    0  501    0  0.00000000000E+00 -0.00000000000E+00 -0.27283506481E+04  0.27283506481E+04  0.25500000000E-02 0.  1.
    5000001    1    1    2    0    0  0.36201242302E+01  0.68826330414E+02 -0.63584747290E+03  0.64419032735E+03  0.77000000000E+02 0.  0.
   -5000001    1    1    2    0    0 -0.36201242302E+01 -0.68826330414E+02 -0.20870533152E+04  0.20896101813E+04  0.77000000000E+02 0.  0.
<mgrwt>
<rscale>  0 0.24387808E+03</rscale>
<asrwt>0</asrwt>
<pdfrwt beam="1">  1        2 0.38976350E+00 0.24387808E+03</pdfrwt>
<pdfrwt beam="2">  1       -2 0.77855321E-03 0.24387808E+03</pdfrwt>
<totfact> 0.11770475E+04</totfact>
</mgrwt>
</event>
<event>
 4    1  0.6919593E-004  0.2137192E+03  0.7818608E-02  0.1138654E+00
         -2   -1    0    0    0  501 -0.00000000000E+00  0.00000000000E+00  0.71316716875E+01  0.71316721434E+01  0.25500000000E-02 0. -1.
          2   -1    0    0  501    0  0.00000000000E+00 -0.00000000000E+00 -0.16011630866E+04  0.16011630866E+04  0.25500000000E-02 0.  1.
    5000001    1    1    2    0    0  0.55583898633E+02 -0.47517186548E+02 -0.88685277108E+03  0.89318771285E+03  0.77000000000E+02 0.  0.
   -5000001    1    1    2    0    0 -0.55583898633E+02  0.47517186548E+02 -0.70717864388E+03  0.71510704595E+03  0.77000000000E+02 0.  0.
<mgrwt>
<rscale>  0 0.21371916E+03</rscale>
<asrwt>0</asrwt>
<pdfrwt beam="1">  1        2 0.22873736E+00 0.21371916E+03</pdfrwt>
<pdfrwt beam="2">  1       -2 0.10188113E-02 0.21371916E+03</pdfrwt>
<totfact> 0.28401575E+04</totfact>
</mgrwt>
</event>
<event>
 4    1  0.6919593E-004  0.3009585E+03  0.7818608E-02  0.1084762E+00
         -2   -1    0    0    0  501 -0.00000000000E+00  0.00000000000E+00  0.99674065906E+03  0.99674065907E+03  0.25500000000E-02 0. -1.
          2   -1    0    0  501    0  0.00000000000E+00 -0.00000000000E+00 -0.22718047264E+02  0.22718047408E+02  0.25500000000E-02 0.  1.
    5000001    1    1    2    0    0  0.43080854678E+02 -0.11769841530E+03  0.37956563723E+03  0.40707241367E+03  0.77000000000E+02 0.  0.
   -5000001    1    1    2    0    0 -0.43080854678E+02  0.11769841530E+03  0.59445697457E+03  0.61238629280E+03  0.77000000000E+02 0.  0.
<mgrwt>
<rscale>  0 0.30095848E+03</rscale>
<asrwt>0</asrwt>
<pdfrwt beam="1">  1        2 0.32454349E-02 0.30095848E+03</pdfrwt>
<pdfrwt beam="2">  1       -2 0.14239154E+00 0.30095848E+03</pdfrwt>
<totfact> 0.10236782E+03</totfact>
</mgrwt>
</event>
<event>
 4    1  0.6919593E-004  0.2581668E+03  0.7818608E-02  0.1108250E+00
          2   -1    0    0  501    0  0.00000000000E+00  0.00000000000E+00  0.15357279952E+03  0.15357279954E+03  0.25500000000E-02 0.  1.
         -2   -1    0    0    0  501 -0.00000000000E+00 -0.00000000000E+00 -0.10849918081E+03  0.10849918084E+03  0.25500000000E-02 0. -1.
    5000001    1    1    2    0    0 -0.36222711211E+02  0.32919850695E+02  0.11522916274E+03  0.14697809811E+03  0.77000000000E+02 0.  0.
   -5000001    1    1    2    0    0  0.36222711211E+02 -0.32919850695E+02 -0.70155544032E+02  0.11509388227E+03  0.77000000000E+02 0.  0.
<mgrwt>
<rscale>  0 0.25816679E+03</rscale>
<asrwt>0</asrwt>
<pdfrwt beam="1">  1        2 0.21938971E-01 0.25816679E+03</pdfrwt>
<pdfrwt beam="2">  1       -2 0.15499883E-01 0.25816679E+03</pdfrwt>
<totfact> 0.79863943E+03</totfact>
</mgrwt>
</event>
<event>
 4    1  0.6919593E-004  0.2527837E+03  0.7818608E-02  0.1111558E+00
         -2   -1    0    0    0  501 -0.00000000000E+00  0.00000000000E+00  0.13450984062E+02  0.13450984304E+02  0.25500000000E-02 0. -1.
          2   -1    0    0  501    0  0.00000000000E+00 -0.00000000000E+00 -0.11876381831E+04  0.11876381831E+04  0.25500000000E-02 0.  1.
    5000001    1    1    2    0    0  0.90391984105E+02 -0.35845359063E+01 -0.79214179492E+03  0.80100011420E+03  0.77000000000E+02 0.  0.
   -5000001    1    1    2    0    0 -0.90391984105E+02  0.35845359063E+01 -0.38204540409E+03  0.40008905318E+03  0.77000000000E+02 0.  0.
<mgrwt>
<rscale>  0 0.25278372E+03</rscale>
<asrwt>0</asrwt>
<pdfrwt beam="1">  1        2 0.16966253E+00 0.25278372E+03</pdfrwt>
<pdfrwt beam="2">  1       -2 0.19215699E-02 0.25278372E+03</pdfrwt>
<totfact> 0.18554068E+04</totfact>
</mgrwt>
</event>
<event>
 4    1  0.6919593E-004  0.2931103E+03  0.7818608E-02  0.1088736E+00
          2   -1    0    0  501    0  0.00000000000E+00  0.00000000000E+00  0.57209152244E+03  0.57209152245E+03  0.25500000000E-02 0.  1.
         -2   -1    0    0    0  501 -0.00000000000E+00 -0.00000000000E+00 -0.37543666366E+02  0.37543666453E+02  0.25500000000E-02 0. -1.
    5000001    1    1    2    0    0 -0.53590397250E+02 -0.10804203686E+03  0.33319017533E+03  0.36261509254E+03  0.77000000000E+02 0.  0.
   -5000001    1    1    2    0    0  0.53590397250E+02  0.10804203686E+03  0.20135768075E+03  0.24702009636E+03  0.77000000000E+02 0.  0.
<mgrwt>
<rscale>  0 0.29311031E+03</rscale>
<asrwt>0</asrwt>
<pdfrwt beam="1">  1        2 0.81727353E-01 0.29311031E+03</pdfrwt>
<pdfrwt beam="2">  1       -2 0.53633814E-02 0.29311031E+03</pdfrwt>
<totfact> 0.10196249E+04</totfact>
</mgrwt>
</event>
<event>
 4    1  0.6919593E-004  0.2497181E+03  0.7818608E-02  0.1113483E+00
         -2   -1    0    0    0  501 -0.00000000000E+00  0.00000000000E+00  0.72524413656E+01  0.72524418139E+01  0.25500000000E-02 0. -1.
          2   -1    0    0  501    0  0.00000000000E+00 -0.00000000000E+00 -0.21495911061E+04  0.21495911061E+04  0.25500000000E-02 0.  1.
    5000001    1    1    2    0    0  0.80276599945E+02 -0.49914584865E+02 -0.83861024832E+03  0.84742666165E+03  0.77000000000E+02 0.  0.
   -5000001    1    1    2    0    0 -0.80276599945E+02  0.49914584865E+02 -0.13037284164E+04  0.13094168862E+04  0.77000000000E+02 0.  0.
<mgrwt>
<rscale>  0 0.24971811E+03</rscale>
<asrwt>0</asrwt>
<pdfrwt beam="1">  1        2 0.30708404E+00 0.24971811E+03</pdfrwt>
<pdfrwt beam="2">  1       -2 0.10360645E-02 0.24971811E+03</pdfrwt>
<totfact> 0.15079161E+04</totfact>
</mgrwt>
</event>
<event>
 4    1  0.6919593E-004  0.2057462E+03  0.7818608E-02  0.1144979E+00
         -2   -1    0    0    0  501 -0.00000000000E+00  0.00000000000E+00  0.17266306670E+02  0.17266306859E+02  0.25500000000E-02 0. -1.
          2   -1    0    0  501    0  0.00000000000E+00 -0.00000000000E+00 -0.61292077039E+03  0.61292077039E+03  0.25500000000E-02 0.  1.
    5000001    1    1    2    0    0  0.63022630539E+02 -0.20741224559E+02 -0.34643317150E+03  0.36103599914E+03  0.77000000000E+02 0.  0.
   -5000001    1    1    2    0    0 -0.63022630539E+02  0.20741224559E+02 -0.24922129221E+03  0.26915107811E+03  0.77000000000E+02 0.  0.
<mgrwt>
<rscale>  0 0.20574623E+03</rscale>
<asrwt>0</asrwt>
<pdfrwt beam="1">  1        2 0.87560096E-01 0.20574623E+03</pdfrwt>
<pdfrwt beam="2">  1       -2 0.24666156E-02 0.20574623E+03</pdfrwt>
<totfact> 0.29573476E+04</totfact>
</mgrwt>
</event>
<event>
 4    1  0.6919593E-004  0.1634113E+03  0.7818608E-02  0.1184898E+00
          2   -1    0    0  501    0  0.00000000000E+00  0.00000000000E+00  0.26904976327E+03  0.26904976328E+03  0.25500000000E-02 0.  1.
         -2   -1    0    0    0  501 -0.00000000000E+00 -0.00000000000E+00 -0.24812560798E+02  0.24812560929E+02  0.25500000000E-02 0. -1.
    5000001    1    1    2    0    0  0.19329460354E+02  0.19027081863E+02  0.11611224402E+03  0.14193911051E+03  0.77000000000E+02 0.  0.
   -5000001    1    1    2    0    0 -0.19329460354E+02 -0.19027081863E+02  0.12812495845E+03  0.15192321370E+03  0.77000000000E+02 0.  0.
<mgrwt>
<rscale>  0 0.16341130E+03</rscale>
<asrwt>0</asrwt>
<pdfrwt beam="1">  1        2 0.38435680E-01 0.16341130E+03</pdfrwt>
<pdfrwt beam="2">  1       -2 0.35446516E-02 0.16341130E+03</pdfrwt>
<totfact> 0.41381852E+04</totfact>
</mgrwt>
</event>
<event>
 4    1  0.6919593E-004  0.1787021E+03  0.7818608E-02  0.1169065E+00
         -2   -1    0    0    0  501 -0.00000000000E+00  0.00000000000E+00  0.43875340618E+02  0.43875340692E+02  0.25500000000E-02 0. -1.
          2   -1    0    0  501    0  0.00000000000E+00 -0.00000000000E+00 -0.18196116275E+03  0.18196116277E+03  0.25500000000E-02 0.  1.
    5000001    1    1    2    0    0 -0.28831807190E+02 -0.24132688348E+02 -0.37048359538E+02  0.93355453495E+02  0.77000000000E+02 0.  0.
   -5000001    1    1    2    0    0  0.28831807190E+02  0.24132688348E+02 -0.10103746260E+03  0.13248104997E+03  0.77000000000E+02 0.  0.
<mgrwt>
<rscale>  0 0.17870208E+03</rscale>
<asrwt>0</asrwt>
<pdfrwt beam="1">  1        2 0.25994451E-01 0.17870208E+03</pdfrwt>
<pdfrwt beam="2">  1       -2 0.62679059E-02 0.17870208E+03</pdfrwt>
<totfact> 0.27067737E+04</totfact>
</mgrwt>
</event>
<event>
 4    1  0.6919593E-004  0.2811760E+03  0.7818608E-02  0.1095048E+00
          2   -1    0    0  501    0  0.00000000000E+00  0.00000000000E+00  0.83288548606E+03  0.83288548606E+03  0.25500000000E-02 0.  1.
         -2   -1    0    0    0  501 -0.00000000000E+00 -0.00000000000E+00 -0.23730728467E+02  0.23730728604E+02  0.25500000000E-02 0. -1.
    5000001    1    1    2    0    0 -0.10017373857E+03  0.42599888586E+02  0.26879386683E+03  0.30004778162E+03  0.77000000000E+02 0.  0.
   -5000001    1    1    2    0    0  0.10017373857E+03 -0.42599888586E+02  0.54036089076E+03  0.55656843305E+03  0.77000000000E+02 0.  0.
<mgrwt>
<rscale>  0 0.28117595E+03</rscale>
<asrwt>0</asrwt>
<pdfrwt beam="1">  1        2 0.11898363E+00 0.28117595E+03</pdfrwt>
<pdfrwt beam="2">  1       -2 0.33901043E-02 0.28117595E+03</pdfrwt>
<totfact> 0.13029795E+04</totfact>
</mgrwt>
</event>
<event>
 4    1  0.6919593E-004  0.2773898E+03  0.7818608E-02  0.1097123E+00
         -2   -1    0    0    0  501 -0.00000000000E+00  0.00000000000E+00  0.23343005373E+03  0.23343005374E+03  0.25500000000E-02 0. -1.
          2   -1    0    0  501    0  0.00000000000E+00 -0.00000000000E+00 -0.82407014327E+02  0.82407014367E+02  0.25500000000E-02 0.  1.
    5000001    1    1    2    0    0 -0.10543109841E+03  0.39013805532E+02  0.46050924557E+02  0.14383143323E+03  0.77000000000E+02 0.  0.
   -5000001    1    1    2    0    0  0.10543109841E+03 -0.39013805532E+02  0.10497211484E+03  0.17200563487E+03  0.77000000000E+02 0.  0.
<mgrwt>
<rscale>  0 0.27738979E+03</rscale>
<asrwt>0</asrwt>
<pdfrwt beam="1">  1        2 0.11772431E-01 0.27738979E+03</pdfrwt>
<pdfrwt beam="2">  1       -2 0.33347151E-01 0.27738979E+03</pdfrwt>
<totfact> 0.43762543E+03</totfact>
</mgrwt>
</event>
<event>
 4    1  0.6919593E-004  0.1819464E+03  0.7818608E-02  0.1165932E+00
          2   -1    0    0  501    0  0.00000000000E+00  0.00000000000E+00  0.26552181046E+04  0.26552181046E+04  0.25500000000E-02 0.  1.
         -2   -1    0    0    0  501 -0.00000000000E+00 -0.00000000000E+00 -0.31169289079E+01  0.31169299510E+01  0.25500000000E-02 0. -1.
    5000001    1    1    2    0    0 -0.14895893842E+02 -0.60759959531E+01  0.65837595889E+03  0.66305860119E+03  0.77000000000E+02 0.  0.
   -5000001    1    1    2    0    0  0.14895893842E+02  0.60759959531E+01  0.19937252168E+04  0.19952764333E+04  0.77000000000E+02 0.  0.
<mgrwt>
<rscale>  0 0.18194645E+03</rscale>
<asrwt>0</asrwt>
<pdfrwt beam="1">  1        2 0.37931569E+00 0.18194645E+03</pdfrwt>
<pdfrwt beam="2">  1       -2 0.44527702E-03 0.18194645E+03</pdfrwt>
<totfact> 0.28328303E+04</totfact>
</mgrwt>
</event>
<event>
 4    1  0.6919593E-004  0.3239943E+03  0.7818608E-02  0.1073826E+00
         -2   -1    0    0    0  501 -0.00000000000E+00  0.00000000000E+00  0.68465470051E+03  0.68465470052E+03  0.25500000000E-02 0. -1.
          2   -1    0    0  501    0  0.00000000000E+00 -0.00000000000E+00 -0.38330375848E+02  0.38330375933E+02  0.25500000000E-02 0.  1.
    5000001    1    1    2    0    0 -0.87416693652E+02  0.92954894176E+02  0.46485258203E+03  0.48815900453E+03  0.77000000000E+02 0.  0.
   -5000001    1    1    2    0    0  0.87416693652E+02 -0.92954894176E+02  0.18147174264E+03  0.23482607192E+03  0.77000000000E+02 0.  0.
<mgrwt>
<rscale>  0 0.32399427E+03</rscale>
<asrwt>0</asrwt>
<pdfrwt beam="1">  1        2 0.54757684E-02 0.32399427E+03</pdfrwt>
<pdfrwt beam="2">  1       -2 0.97807806E-01 0.32399427E+03</pdfrwt>
<totfact> 0.12643917E+03</totfact>
</mgrwt>
</event>
<event>
 4    1  0.6919593E-004  0.2695142E+03  0.7818608E-02  0.1101558E+00
          2   -1    0    0  501    0  0.00000000000E+00  0.00000000000E+00  0.12229496420E+04  0.12229496420E+04  0.25500000000E-02 0.  1.
         -2   -1    0    0    0  501 -0.00000000000E+00 -0.00000000000E+00 -0.14848914703E+02  0.14848914922E+02  0.25500000000E-02 0. -1.
    5000001    1    1    2    0    0  0.74018727594E+02  0.31376217836E+02  0.25526986664E+03  0.27848688280E+03  0.77000000000E+02 0.  0.
   -5000001    1    1    2    0    0 -0.74018727594E+02 -0.31376217836E+02  0.95283086069E+03  0.95931167416E+03  0.77000000000E+02 0.  0.
<mgrwt>
<rscale>  0 0.26951419E+03</rscale>
<asrwt>0</asrwt>
<pdfrwt beam="1">  1        2 0.17470713E+00 0.26951419E+03</pdfrwt>
<pdfrwt beam="2">  1       -2 0.21212730E-02 0.26951419E+03</pdfrwt>
<totfact> 0.15393355E+04</totfact>
</mgrwt>
</event>
<event>
 4    1  0.6919593E-004  0.2135816E+03  0.7818608E-02  0.1138761E+00
         -2   -1    0    0    0  501 -0.00000000000E+00  0.00000000000E+00  0.92729241513E+01  0.92729245019E+01  0.25500000000E-02 0. -1.
          2   -1    0    0  501    0  0.00000000000E+00 -0.00000000000E+00 -0.12298470960E+04  0.12298470960E+04  0.25500000000E-02 0.  1.
    5000001    1    1    2    0    0  0.51311820109E+02 -0.48787532893E+02 -0.73500885403E+03  0.74241507377E+03  0.77000000000E+02 0.  0.
   -5000001    1    1    2    0    0 -0.51311820109E+02  0.48787532893E+02 -0.48556531782E+03  0.49670494674E+03  0.77000000000E+02 0.  0.
<mgrwt>
<rscale>  0 0.21358164E+03</rscale>
<asrwt>0</asrwt>
<pdfrwt beam="1">  1        2 0.17569234E+00 0.21358164E+03</pdfrwt>
<pdfrwt beam="2">  1       -2 0.13247043E-02 0.21358164E+03</pdfrwt>
<totfact> 0.30030656E+04</totfact>
</mgrwt>
</event>
<event>
 4    1  0.6919593E-004  0.2406332E+03  0.7818608E-02  0.1119372E+00
         -2   -1    0    0    0  501 -0.00000000000E+00  0.00000000000E+00  0.37520785014E+02  0.37520785101E+02  0.25500000000E-02 0. -1.
          2   -1    0    0  501    0  0.00000000000E+00 -0.00000000000E+00 -0.38581502634E+03  0.38581502634E+03  0.25500000000E-02 0.  1.
    5000001    1    1    2    0    0  0.31450827697E+02 -0.69712373874E+02 -0.82765352672E+02  0.13648469964E+03  0.77000000000E+02 0.  0.
   -5000001    1    1    2    0    0 -0.31450827697E+02  0.69712373874E+02 -0.26552888865E+03  0.28685111180E+03  0.77000000000E+02 0.  0.
<mgrwt>
<rscale>  0 0.24063319E+03</rscale>
<asrwt>0</asrwt>
<pdfrwt beam="1">  1        2 0.55116430E-01 0.24063319E+03</pdfrwt>
<pdfrwt beam="2">  1       -2 0.53601124E-02 0.24063319E+03</pdfrwt>
<totfact> 0.15591376E+04</totfact>
</mgrwt>
</event>
<event>
 4    1  0.6919593E-004  0.2123466E+03  0.7818608E-02  0.1139721E+00
          2   -1    0    0  501    0  0.00000000000E+00  0.00000000000E+00  0.11547656574E+04  0.11547656574E+04  0.25500000000E-02 0.  1.
         -2   -1    0    0    0  501 -0.00000000000E+00 -0.00000000000E+00 -0.97619516534E+01  0.97619519864E+01  0.25500000000E-02 0. -1.
    5000001    1    1    2    0    0 -0.69992542378E+02  0.21063218891E+02  0.57838680944E+03  0.58805009694E+03  0.77000000000E+02 0.  0.
   -5000001    1    1    2    0    0  0.69992542378E+02 -0.21063218891E+02  0.56661689633E+03  0.57647751248E+03  0.77000000000E+02 0.  0.
<mgrwt>
<rscale>  0 0.21234657E+03</rscale>
<asrwt>0</asrwt>
<pdfrwt beam="1">  1        2 0.16496655E+00 0.21234657E+03</pdfrwt>
<pdfrwt beam="2">  1       -2 0.13945643E-02 0.21234657E+03</pdfrwt>
<totfact> 0.30585491E+04</totfact>
</mgrwt>
</event>
<event>
 4    1  0.6919593E-004  0.1752164E+03  0.7818608E-02  0.1172515E+00
          2   -1    0    0  501    0  0.00000000000E+00  0.00000000000E+00  0.76435970864E+03  0.76435970864E+03  0.25500000000E-02 0.  1.
         -2   -1    0    0    0  501 -0.00000000000E+00 -0.00000000000E+00 -0.10041338584E+02  0.10041338908E+02  0.25500000000E-02 0. -1.
    5000001    1    1    2    0    0  0.23108314158E+02  0.34696960353E+02  0.38990866817E+03  0.39961937234E+03  0.77000000000E+02 0.  0.
   -5000001    1    1    2    0    0 -0.23108314158E+02 -0.34696960353E+02  0.36440970189E+03  0.37478167521E+03  0.77000000000E+02 0.  0.
<mgrwt>
<rscale>  0 0.17521638E+03</rscale>
<asrwt>0</asrwt>
<pdfrwt beam="1">  1        2 0.10919428E+00 0.17521638E+03</pdfrwt>
<pdfrwt beam="2">  1       -2 0.14344765E-02 0.17521638E+03</pdfrwt>
<totfact> 0.49717990E+04</totfact>
</mgrwt>
</event>
<event>
 4    1  0.6919593E-004  0.4063007E+03  0.7818608E-02  0.1041620E+00
         -2   -1    0    0    0  501 -0.00000000000E+00  0.00000000000E+00  0.40120740750E+02  0.40120740831E+02  0.25500000000E-02 0. -1.
          2   -1    0    0  501    0  0.00000000000E+00 -0.00000000000E+00 -0.10286467637E+04  0.10286467637E+04  0.25500000000E-02 0.  1.
    5000001    1    1    2    0    0  0.14214208263E+03  0.96675674231E+02 -0.29409524449E+03  0.34924428481E+03  0.77000000000E+02 0.  0.
   -5000001    1    1    2    0    0 -0.14214208263E+03 -0.96675674231E+02 -0.69443077846E+03  0.71952321972E+03  0.77000000000E+02 0.  0.
<mgrwt>
<rscale>  0 0.40630073E+03</rscale>
<asrwt>0</asrwt>
<pdfrwt beam="1">  1        2 0.14694952E+00 0.40630073E+03</pdfrwt>
<pdfrwt beam="2">  1       -2 0.57315350E-02 0.40630073E+03</pdfrwt>
<totfact> 0.44740263E+03</totfact>
</mgrwt>
</event>
<event>
 4    1  0.6919593E-004  0.2117298E+03  0.7818608E-02  0.1140203E+00
          2   -1    0    0  501    0  0.00000000000E+00  0.00000000000E+00  0.11422032146E+04  0.11422032146E+04  0.25500000000E-02 0.  1.
         -2   -1    0    0    0  501 -0.00000000000E+00 -0.00000000000E+00 -0.98120730713E+01  0.98120734027E+01  0.25500000000E-02 0. -1.
    5000001    1    1    2    0    0  0.30197303563E+02 -0.56138853511E+02  0.37654575062E+03  0.38958843711E+03  0.77000000000E+02 0.  0.
   -5000001    1    1    2    0    0 -0.30197303563E+02  0.56138853511E+02  0.75584539089E+03  0.76242685088E+03  0.77000000000E+02 0.  0.
<mgrwt>
<rscale>  0 0.21172984E+03</rscale>
<asrwt>0</asrwt>
<pdfrwt beam="1">  1        2 0.16317180E+00 0.21172984E+03</pdfrwt>
<pdfrwt beam="2">  1       -2 0.14017255E-02 0.21172984E+03</pdfrwt>
<totfact> 0.30838074E+04</totfact>
</mgrwt>
</event>
<event>
 4    1  0.6919593E-004  0.3285633E+03  0.7818608E-02  0.1071774E+00
          2   -1    0    0  501    0  0.00000000000E+00  0.00000000000E+00  0.43418690856E+02  0.43418690931E+02  0.25500000000E-02 0.  1.
         -2   -1    0    0    0  501 -0.00000000000E+00 -0.00000000000E+00 -0.62158626626E+03  0.62158626627E+03  0.25500000000E-02 0. -1.
    5000001    1    1    2    0    0 -0.93621122576E+02 -0.10680177924E+03 -0.34939450990E+03  0.38493773288E+03  0.77000000000E+02 0.  0.
   -5000001    1    1    2    0    0  0.93621122576E+02  0.10680177924E+03 -0.22877306550E+03  0.28006722432E+03  0.77000000000E+02 0.  0.
<mgrwt>
<rscale>  0 0.32856331E+03</rscale>
<asrwt>0</asrwt>
<pdfrwt beam="1">  1        2 0.62026705E-02 0.32856331E+03</pdfrwt>
<pdfrwt beam="2">  1       -2 0.88798033E-01 0.32856331E+03</pdfrwt>
<totfact> 0.13396375E+03</totfact>
</mgrwt>
</event>
<event>
 4    1  0.6919593E-004  0.2819634E+03  0.7818608E-02  0.1094621E+00
         -2   -1    0    0    0  501 -0.00000000000E+00  0.00000000000E+00  0.46863113585E+01  0.46863120523E+01  0.25500000000E-02 0. -1.
          2   -1    0    0  501    0  0.00000000000E+00 -0.00000000000E+00 -0.42412530775E+04  0.42412530775E+04  0.25500000000E-02 0.  1.
    5000001    1    1    2    0    0 -0.10817575808E+03  0.45657410978E+02 -0.23089026356E+04  0.23131681682E+04  0.77000000000E+02 0.  0.
   -5000001    1    1    2    0    0  0.10817575808E+03 -0.45657410978E+02 -0.19276641305E+04  0.19327712213E+04  0.77000000000E+02 0.  0.
<mgrwt>
<rscale>  0 0.28196336E+03</rscale>
<asrwt>0</asrwt>
<pdfrwt beam="1">  1        2 0.60589083E+00 0.28196336E+03</pdfrwt>
<pdfrwt beam="2">  1       -2 0.66947582E-03 0.28196336E+03</pdfrwt>
<totfact> 0.18973950E+03</totfact>
</mgrwt>
</event>
<event>
 4    1  0.6919593E-004  0.2420030E+03  0.7818608E-02  0.1118466E+00
          2   -1    0    0  501    0  0.00000000000E+00  0.00000000000E+00  0.24068155278E+03  0.24068155280E+03  0.25500000000E-02 0.  1.
         -2   -1    0    0    0  501 -0.00000000000E+00 -0.00000000000E+00 -0.60832931471E+02  0.60832931524E+02  0.25500000000E-02 0. -1.
    5000001    1    1    2    0    0  0.40573502467E+02 -0.26095023693E+02 -0.96333844231E+01  0.91372651595E+02  0.77000000000E+02 0.  0.
   -5000001    1    1    2    0    0 -0.40573502467E+02  0.26095023693E+02  0.18948200574E+03  0.21014183273E+03  0.77000000000E+02 0.  0.
<mgrwt>
<rscale>  0 0.24200301E+03</rscale>
<asrwt>0</asrwt>
<pdfrwt beam="1">  1        2 0.34383080E-01 0.24200301E+03</pdfrwt>
<pdfrwt beam="2">  1       -2 0.86904186E-02 0.24200301E+03</pdfrwt>
<totfact> 0.12290304E+04</totfact>
</mgrwt>
</event>
<event>
 4    1  0.6919593E-004  0.3854924E+03  0.7818608E-02  0.1048922E+00
         -2   -1    0    0    0  501 -0.00000000000E+00  0.00000000000E+00  0.13855292910E+02  0.13855293145E+02  0.25500000000E-02 0. -1.
          2   -1    0    0  501    0  0.00000000000E+00 -0.00000000000E+00 -0.26813654386E+04  0.26813654386E+04  0.25500000000E-02 0.  1.
    5000001    1    1    2    0    0 -0.16833501065E+03 -0.35962446099E+02 -0.16127316984E+04  0.16237187269E+04  0.77000000000E+02 0.  0.
   -5000001    1    1    2    0    0  0.16833501065E+03  0.35962446099E+02 -0.10547784473E+04  0.10715020048E+04  0.77000000000E+02 0.  0.
<mgrwt>
<rscale>  0 0.38549243E+03</rscale>
<asrwt>0</asrwt>
<pdfrwt beam="1">  1        2 0.38305187E+00 0.38549243E+03</pdfrwt>
<pdfrwt beam="2">  1       -2 0.19793293E-02 0.38549243E+03</pdfrwt>
<totfact> 0.31677506E+03</totfact>
</mgrwt>
</event>
<event>
 4    1  0.6919593E-004  0.4416522E+03  0.7818608E-02  0.1030241E+00
         -2   -1    0    0    0  501 -0.00000000000E+00  0.00000000000E+00  0.80863966503E+02  0.80863966544E+02  0.25500000000E-02 0. -1.
          2   -1    0    0  501    0  0.00000000000E+00 -0.00000000000E+00 -0.60303944166E+03  0.60303944167E+03  0.25500000000E-02 0.  1.
    5000001    1    1    2    0    0  0.12161150076E+03 -0.15075396662E+03 -0.37402343866E+03  0.42818062571E+03  0.77000000000E+02 0.  0.
   -5000001    1    1    2    0    0 -0.12161150076E+03  0.15075396662E+03 -0.14815203650E+03  0.25572278249E+03  0.77000000000E+02 0.  0.
<mgrwt>
<rscale>  0 0.44165218E+03</rscale>
<asrwt>0</asrwt>
<pdfrwt beam="1">  1        2 0.86148489E-01 0.44165218E+03</pdfrwt>
<pdfrwt beam="2">  1       -2 0.11551996E-01 0.44165218E+03</pdfrwt>
<totfact> 0.28969818E+03</totfact>
</mgrwt>
</event>
<event>
 4    1  0.6919593E-004  0.2171112E+03  0.7818608E-02  0.1136055E+00
         -2   -1    0    0    0  501 -0.00000000000E+00  0.00000000000E+00  0.20923562321E+02  0.20923562476E+02  0.25500000000E-02 0. -1.
          2   -1    0    0  501    0  0.00000000000E+00 -0.00000000000E+00 -0.56320794373E+03  0.56320794374E+03  0.25500000000E-02 0.  1.
    5000001    1    1    2    0    0  0.10434783181E+02 -0.73836722554E+02 -0.31731888980E+03  0.33493435793E+03  0.77000000000E+02 0.  0.
   -5000001    1    1    2    0    0 -0.10434783181E+02  0.73836722554E+02 -0.22496549161E+03  0.24919714829E+03  0.77000000000E+02 0.  0.
<mgrwt>
<rscale>  0 0.21711118E+03</rscale>
<asrwt>0</asrwt>
<pdfrwt beam="1">  1        2 0.80458268E-01 0.21711118E+03</pdfrwt>
<pdfrwt beam="2">  1       -2 0.29890807E-02 0.21711118E+03</pdfrwt>
<totfact> 0.24596425E+04</totfact>
</mgrwt>
</event>
<event>
 4    1  0.6919593E-004  0.2485481E+03  0.7818608E-02  0.1114226E+00
          2   -1    0    0  501    0  0.00000000000E+00  0.00000000000E+00  0.15361270145E+03  0.15361270147E+03  0.25500000000E-02 0.  1.
         -2   -1    0    0    0  501 -0.00000000000E+00 -0.00000000000E+00 -0.10053882484E+03  0.10053882487E+03  0.25500000000E-02 0. -1.
    5000001    1    1    2    0    0  0.66621311369E+02 -0.31638389484E+02 -0.38743174665E+02  0.11344346786E+03  0.77000000000E+02 0.  0.
   -5000001    1    1    2    0    0 -0.66621311369E+02  0.31638389484E+02  0.91817051273E+02  0.14070805848E+03  0.77000000000E+02 0.  0.
<mgrwt>
<rscale>  0 0.24854811E+03</rscale>
<asrwt>0</asrwt>
<pdfrwt beam="1">  1        2 0.21944672E-01 0.24854811E+03</pdfrwt>
<pdfrwt beam="2">  1       -2 0.14362689E-01 0.24854811E+03</pdfrwt>
<totfact> 0.90368371E+03</totfact>
</mgrwt>
</event>
<event>
 4    1  0.6919593E-004  0.2066559E+03  0.7818608E-02  0.1144242E+00
          2   -1    0    0  501    0  0.00000000000E+00  0.00000000000E+00  0.13916507934E+04  0.13916507934E+04  0.25500000000E-02 0.  1.
         -2   -1    0    0    0  501 -0.00000000000E+00 -0.00000000000E+00 -0.76719398415E+01  0.76719402653E+01  0.25500000000E-02 0. -1.
    5000001    1    1    2    0    0  0.68077579408E+02 -0.40115877036E+01  0.62529608710E+03  0.63369933422E+03  0.77000000000E+02 0.  0.
   -5000001    1    1    2    0    0 -0.68077579408E+02  0.40115877036E+01  0.75868276647E+03  0.76562339945E+03  0.77000000000E+02 0.  0.
<mgrwt>
<rscale>  0 0.20665586E+03</rscale>
<asrwt>0</asrwt>
<pdfrwt beam="1">  1        2 0.19880721E+00 0.20665586E+03</pdfrwt>
<pdfrwt beam="2">  1       -2 0.10959917E-02 0.20665586E+03</pdfrwt>
<totfact> 0.32480946E+04</totfact>
</mgrwt>
</event>
<event>
 4    1  0.6919593E-004  0.2249077E+03  0.7818608E-02  0.1130276E+00
         -2   -1    0    0    0  501 -0.00000000000E+00  0.00000000000E+00  0.43962109663E+01  0.43962117059E+01  0.25500000000E-02 0. -1.
          2   -1    0    0  501    0  0.00000000000E+00 -0.00000000000E+00 -0.28765389747E+04  0.28765389747E+04  0.25500000000E-02 0.  1.
    5000001    1    1    2    0    0 -0.23979338556E+02 -0.46292542672E+02 -0.22460945767E+04  0.22480186511E+04  0.77000000000E+02 0.  0.
   -5000001    1    1    2    0    0  0.23979338556E+02  0.46292542672E+02 -0.62604818703E+03  0.63291653531E+03  0.77000000000E+02 0.  0.
<mgrwt>
<rscale>  0 0.22490774E+03</rscale>
<asrwt>0</asrwt>
<pdfrwt beam="1">  1        2 0.41093294E+00 0.22490774E+03</pdfrwt>
<pdfrwt beam="2">  1       -2 0.62803203E-03 0.22490774E+03</pdfrwt>
<totfact> 0.13448786E+04</totfact>
</mgrwt>
</event>
<event>
 4    1  0.6919593E-004  0.1981003E+03  0.7818608E-02  0.1151352E+00
          2   -1    0    0  501    0  0.00000000000E+00  0.00000000000E+00  0.25264469112E+03  0.25264469113E+03  0.25500000000E-02 0.  1.
         -2   -1    0    0    0  501 -0.00000000000E+00 -0.00000000000E+00 -0.38832919054E+02  0.38832919137E+02  0.25500000000E-02 0. -1.
    5000001    1    1    2    0    0 -0.33769942218E+02  0.46679487132E+02  0.72007958712E+02  0.12013962558E+03  0.77000000000E+02 0.  0.
   -5000001    1    1    2    0    0  0.33769942218E+02 -0.46679487132E+02  0.14180381335E+03  0.17133798469E+03  0.77000000000E+02 0.  0.
<mgrwt>
<rscale>  0 0.19810029E+03</rscale>
<asrwt>0</asrwt>
<pdfrwt beam="1">  1        2 0.36092100E-01 0.19810029E+03</pdfrwt>
<pdfrwt beam="2">  1       -2 0.55475597E-02 0.19810029E+03</pdfrwt>
<totfact> 0.23000869E+04</totfact>
</mgrwt>
</event>
<event>
 4    1  0.6919593E-004  0.1749995E+03  0.7818608E-02  0.1172732E+00
         -2   -1    0    0    0  501 -0.00000000000E+00  0.00000000000E+00  0.27342559605E+01  0.27342571496E+01  0.25500000000E-02 0. -1.
          2   -1    0    0  501    0  0.00000000000E+00 -0.00000000000E+00 -0.28001053653E+04  0.28001053653E+04  0.25500000000E-02 0.  1.
    5000001    1    1    2    0    0 -0.70930673757E+01  0.23414605304E+02 -0.19367586668E+04  0.19384431095E+04  0.77000000000E+02 0.  0.
   -5000001    1    1    2    0    0  0.70930673757E+01 -0.23414605304E+02 -0.86061244255E+03  0.86439651296E+03  0.77000000000E+02 0.  0.
<mgrwt>
<rscale>  0 0.17499950E+03</rscale>
<asrwt>0</asrwt>
<pdfrwt beam="1">  1        2 0.40001321E+00 0.17499950E+03</pdfrwt>
<pdfrwt beam="2">  1       -2 0.39060987E-03 0.17499950E+03</pdfrwt>
<totfact> 0.28808040E+04</totfact>
</mgrwt>
</event>
<event>
 4    1  0.6919593E-004  0.2729721E+03  0.7818608E-02  0.1099591E+00
         -2   -1    0    0    0  501 -0.00000000000E+00  0.00000000000E+00  0.35014086864E+02  0.35014086957E+02  0.25500000000E-02 0. -1.
          2   -1    0    0  501    0  0.00000000000E+00 -0.00000000000E+00 -0.53202703519E+03  0.53202703519E+03  0.25500000000E-02 0.  1.
    5000001    1    1    2    0    0 -0.24880983574E+02 -0.10031788959E+03 -0.34179254425E+03  0.36528603261E+03  0.77000000000E+02 0.  0.
   -5000001    1    1    2    0    0  0.24880983574E+02  0.10031788959E+03 -0.15522040408E+03  0.20175508954E+03  0.77000000000E+02 0.  0.
<mgrwt>
<rscale>  0 0.27297209E+03</rscale>
<asrwt>0</asrwt>
<pdfrwt beam="1">  1        2 0.76003857E-01 0.27297209E+03</pdfrwt>
<pdfrwt beam="2">  1       -2 0.50020127E-02 0.27297209E+03</pdfrwt>
<totfact> 0.12269106E+04</totfact>
</mgrwt>
</event>
<event>
 4    1  0.6919593E-004  0.2477998E+03  0.7818608E-02  0.1114703E+00
         -2   -1    0    0    0  501 -0.00000000000E+00  0.00000000000E+00  0.23353440802E+02  0.23353440941E+02  0.25500000000E-02 0. -1.
          2   -1    0    0  501    0  0.00000000000E+00 -0.00000000000E+00 -0.65734135446E+03  0.65734135447E+03  0.25500000000E-02 0.  1.
    5000001    1    1    2    0    0  0.65387075038E+02 -0.67689655940E+02 -0.25170979388E+03  0.27954280430E+03  0.77000000000E+02 0.  0.
   -5000001    1    1    2    0    0 -0.65387075038E+02  0.67689655940E+02 -0.38227811978E+03  0.40115199111E+03  0.77000000000E+02 0.  0.
<mgrwt>
<rscale>  0 0.24779978E+03</rscale>
<asrwt>0</asrwt>
<pdfrwt beam="1">  1        2 0.93905896E-01 0.24779978E+03</pdfrwt>
<pdfrwt beam="2">  1       -2 0.33362063E-02 0.24779978E+03</pdfrwt>
<totfact> 0.17655259E+04</totfact>
</mgrwt>
</event>
<event>
 4    1  0.6919593E-004  0.2221007E+03  0.7818608E-02  0.1132327E+00
         -2   -1    0    0    0  501 -0.00000000000E+00  0.00000000000E+00  0.74823517001E+01  0.74823521346E+01  0.25500000000E-02 0. -1.
          2   -1    0    0  501    0  0.00000000000E+00 -0.00000000000E+00 -0.16481686075E+04  0.16481686075E+04  0.25500000000E-02 0.  1.
    5000001    1    1    2    0    0 -0.65695653278E+02 -0.13886383871E+00 -0.47977418806E+03  0.49033479345E+03  0.77000000000E+02 0.  0.
   -5000001    1    1    2    0    0  0.65695653278E+02  0.13886383871E+00 -0.11609120677E+04  0.11653161662E+04  0.77000000000E+02 0.  0.
<mgrwt>
<rscale>  0 0.22210068E+03</rscale>
<asrwt>0</asrwt>
<pdfrwt beam="1">  1        2 0.23545243E+00 0.22210068E+03</pdfrwt>
<pdfrwt beam="2">  1       -2 0.10689085E-02 0.22210068E+03</pdfrwt>
<totfact> 0.25170831E+04</totfact>
</mgrwt>
</event>
<event>
 4    1  0.6919593E-004  0.2084864E+03  0.7818608E-02  0.1142770E+00
         -2   -1    0    0    0  501 -0.00000000000E+00  0.00000000000E+00  0.59102940769E+02  0.59102940824E+02  0.25500000000E-02 0. -1.
          2   -1    0    0  501    0  0.00000000000E+00 -0.00000000000E+00 -0.18385957513E+03  0.18385957515E+03  0.25500000000E-02 0.  1.
    5000001    1    1    2    0    0 -0.20045074706E+02  0.56934337427E+02 -0.10430418581E+03  0.14300939471E+03  0.77000000000E+02 0.  0.
   -5000001    1    1    2    0    0  0.20045074706E+02 -0.56934337427E+02 -0.20452448552E+02  0.99953121262E+02  0.77000000000E+02 0.  0.
<mgrwt>
<rscale>  0 0.20848637E+03</rscale>
<asrwt>0</asrwt>
<pdfrwt beam="1">  1        2 0.26265653E-01 0.20848637E+03</pdfrwt>
<pdfrwt beam="2">  1       -2 0.84432773E-02 0.20848637E+03</pdfrwt>
<totfact> 0.17102162E+04</totfact>
</mgrwt>
</event>
<event>
 4    1  0.6919593E-004  0.2702899E+03  0.7818608E-02  0.1101114E+00
          2   -1    0    0  501    0  0.00000000000E+00  0.00000000000E+00  0.17409620716E+03  0.17409620718E+03  0.25500000000E-02 0.  1.
         -2   -1    0    0    0  501 -0.00000000000E+00 -0.00000000000E+00 -0.10490839241E+03  0.10490839244E+03  0.25500000000E-02 0. -1.
    5000001    1    1    2    0    0  0.30824015492E+02  0.36737446821E+02  0.13800063508E+03  0.16514519434E+03  0.77000000000E+02 0.  0.
   -5000001    1    1    2    0    0 -0.30824015492E+02 -0.36737446821E+02 -0.68812820329E+02  0.11385940528E+03  0.77000000000E+02 0.  0.
<mgrwt>
<rscale>  0 0.27028987E+03</rscale>
<asrwt>0</asrwt>
<pdfrwt beam="1">  1        2 0.24870887E-01 0.27028987E+03</pdfrwt>
<pdfrwt beam="2">  1       -2 0.14986913E-01 0.27028987E+03</pdfrwt>
<totfact> 0.73474247E+03</totfact>
</mgrwt>
</event>
<event>
 4    1  0.6919593E-004  0.1813152E+03  0.7818608E-02  0.1166536E+00
         -2   -1    0    0    0  501 -0.00000000000E+00  0.00000000000E+00  0.10533295451E+03  0.10533295454E+03  0.25500000000E-02 0. -1.
          2   -1    0    0  501    0  0.00000000000E+00 -0.00000000000E+00 -0.78026830174E+02  0.78026830216E+02  0.25500000000E-02 0.  1.
    5000001    1    1    2    0    0 -0.47355431491E+02  0.38542854183E+01  0.78964057059E+01  0.90822605286E+02  0.77000000000E+02 0.  0.
   -5000001    1    1    2    0    0  0.47355431491E+02 -0.38542854183E+01  0.19409718634E+02  0.92537179475E+02  0.77000000000E+02 0.  0.
<mgrwt>
<rscale>  0 0.18131516E+03</rscale>
<asrwt>0</asrwt>
<pdfrwt beam="1">  1        2 0.11146690E-01 0.18131516E+03</pdfrwt>
<pdfrwt beam="2">  1       -2 0.15047565E-01 0.18131516E+03</pdfrwt>
<totfact> 0.18167038E+04</totfact>
</mgrwt>
</event>
<event>
 4    1  0.6919593E-004  0.2372235E+03  0.7818608E-02  0.1121656E+00
         -2   -1    0    0    0  501 -0.00000000000E+00  0.00000000000E+00  0.29061293763E+03  0.29061293765E+03  0.25500000000E-02 0. -1.
          2   -1    0    0  501    0  0.00000000000E+00 -0.00000000000E+00 -0.48410614289E+02  0.48410614356E+02  0.25500000000E-02 0.  1.
    5000001    1    1    2    0    0 -0.35424895923E+02  0.82591053242E+02  0.13249354436E+03  0.17765062517E+03  0.77000000000E+02 0.  0.
   -5000001    1    1    2    0    0  0.35424895923E+02 -0.82591053242E+02  0.10970877898E+03  0.16137292683E+03  0.77000000000E+02 0.  0.
<mgrwt>
<rscale>  0 0.23722353E+03</rscale>
<asrwt>0</asrwt>
<pdfrwt beam="1">  1        2 0.69158018E-02 0.23722353E+03</pdfrwt>
<pdfrwt beam="2">  1       -2 0.41516136E-01 0.23722353E+03</pdfrwt>
<totfact> 0.56072305E+03</totfact>
</mgrwt>
</event>
<event>
 4    1  0.6919593E-004  0.4278480E+03  0.7818608E-02  0.1034542E+00
          2   -1    0    0  501    0  0.00000000000E+00  0.00000000000E+00  0.13371389216E+04  0.13371389216E+04  0.25500000000E-02 0.  1.
         -2   -1    0    0    0  501 -0.00000000000E+00 -0.00000000000E+00 -0.34224916342E+02  0.34224916437E+02  0.25500000000E-02 0. -1.
    5000001    1    1    2    0    0  0.18179091461E+03  0.13585619550E+02  0.39102176336E+03  0.43824596418E+03  0.77000000000E+02 0.  0.
   -5000001    1    1    2    0    0 -0.18179091461E+03 -0.13585619550E+02  0.91189224185E+03  0.93311787382E+03  0.77000000000E+02 0.  0.
<mgrwt>
<rscale>  0 0.42784795E+03</rscale>
<asrwt>0</asrwt>
<pdfrwt beam="1">  1        2 0.19101986E+00 0.42784795E+03</pdfrwt>
<pdfrwt beam="2">  1       -2 0.48892734E-02 0.42784795E+03</pdfrwt>
<totfact> 0.38479328E+03</totfact>
</mgrwt>
</event>
<event>
 4    1  0.6919593E-004  0.4516794E+03  0.7818608E-02  0.1027222E+00
          2   -1    0    0  501    0  0.00000000000E+00  0.00000000000E+00  0.35639881197E+03  0.35639881198E+03  0.25500000000E-02 0.  1.
         -2   -1    0    0    0  501 -0.00000000000E+00 -0.00000000000E+00 -0.14310814255E+03  0.14310814257E+03  0.25500000000E-02 0. -1.
    5000001    1    1    2    0    0  0.15979229600E+03 -0.13942320921E+03  0.11782317194E+03  0.25452644062E+03  0.77000000000E+02 0.  0.
   -5000001    1    1    2    0    0 -0.15979229600E+03  0.13942320921E+03  0.95467497491E+02  0.24498051393E+03  0.77000000000E+02 0.  0.
<mgrwt>
<rscale>  0 0.45167941E+03</rscale>
<asrwt>0</asrwt>
<pdfrwt beam="1">  1        2 0.50914116E-01 0.45167941E+03</pdfrwt>
<pdfrwt beam="2">  1       -2 0.20444021E-01 0.45167941E+03</pdfrwt>
<totfact> 0.20041691E+03</totfact>
</mgrwt>
</event>
<event>
 4    1  0.6919593E-004  0.3639292E+03  0.7818608E-02  0.1057039E+00
          2   -1    0    0  501    0  0.00000000000E+00  0.00000000000E+00  0.32059152385E+03  0.32059152386E+03  0.25500000000E-02 0.  1.
         -2   -1    0    0    0  501 -0.00000000000E+00 -0.00000000000E+00 -0.10328134791E+03  0.10328134794E+03  0.25500000000E-02 0. -1.
    5000001    1    1    2    0    0 -0.62340997265E+02  0.14760648529E+03  0.63425089724E+02  0.18874802369E+03  0.77000000000E+02 0.  0.
   -5000001    1    1    2    0    0  0.62340997265E+02 -0.14760648529E+03  0.15388508622E+03  0.23512484812E+03  0.77000000000E+02 0.  0.
<mgrwt>
<rscale>  0 0.36392925E+03</rscale>
<asrwt>0</asrwt>
<pdfrwt beam="1">  1        2 0.45798789E-01 0.36392925E+03</pdfrwt>
<pdfrwt beam="2">  1       -2 0.14754478E-01 0.36392925E+03</pdfrwt>
<totfact> 0.38985523E+03</totfact>
</mgrwt>
</event>
<event>
 4    1  0.6919593E-004  0.2932949E+03  0.7818608E-02  0.1088641E+00
          2   -1    0    0  501    0  0.00000000000E+00  0.00000000000E+00  0.14414004542E+04  0.14414004542E+04  0.25500000000E-02 0.  1.
         -2   -1    0    0    0  501 -0.00000000000E+00 -0.00000000000E+00 -0.14919848302E+02  0.14919848520E+02  0.25500000000E-02 0. -1.
    5000001    1    1    2    0    0  0.12306215939E+03 -0.43869943363E+01  0.81414084010E+03  0.82699325772E+03  0.77000000000E+02 0.  0.
   -5000001    1    1    2    0    0 -0.12306215939E+03  0.43869943363E+01  0.61233976575E+03  0.62932704496E+03  0.77000000000E+02 0.  0.
<mgrwt>
<rscale>  0 0.29329491E+03</rscale>
<asrwt>0</asrwt>
<pdfrwt beam="1">  1        2 0.20591413E+00 0.29329491E+03</pdfrwt>
<pdfrwt beam="2">  1       -2 0.21314092E-02 0.29329491E+03</pdfrwt>
<totfact> 0.11776799E+04</totfact>
</mgrwt>
</event>
<event>
 4    1  0.6919593E-004  0.1944472E+03  0.7818608E-02  0.1154510E+00
          2   -1    0    0  501    0  0.00000000000E+00  0.00000000000E+00  0.17786659495E+04  0.17786659495E+04  0.25500000000E-02 0.  1.
         -2   -1    0    0    0  501 -0.00000000000E+00 -0.00000000000E+00 -0.53143331708E+01  0.53143337826E+01  0.25500000000E-02 0. -1.
    5000001    1    1    2    0    0 -0.29896825296E+02  0.46668808890E+02  0.10816503827E+04  0.10858030891E+04  0.77000000000E+02 0.  0.
   -5000001    1    1    2    0    0  0.29896825296E+02 -0.46668808890E+02  0.69170123357E+03  0.69817719413E+03  0.77000000000E+02 0.  0.
<mgrwt>
<rscale>  0 0.19444715E+03</rscale>
<asrwt>0</asrwt>
<pdfrwt beam="1">  1        2 0.25409497E+00 0.19444715E+03</pdfrwt>
<pdfrwt beam="2">  1       -2 0.75919100E-03 0.19444715E+03</pdfrwt>
<totfact> 0.35341952E+04</totfact>
</mgrwt>
</event>
<event>
 4    1  0.6919593E-004  0.4209190E+03  0.7818608E-02  0.1036768E+00
         -2   -1    0    0    0  501 -0.00000000000E+00  0.00000000000E+00  0.46738717902E+02  0.46738717972E+02  0.25500000000E-02 0. -1.
          2   -1    0    0  501    0  0.00000000000E+00 -0.00000000000E+00 -0.94767704649E+03  0.94767704649E+03  0.25500000000E-02 0.  1.
    5000001    1    1    2    0    0 -0.88382031007E+02  0.17438796558E+03 -0.47858814210E+03  0.52268360956E+03  0.77000000000E+02 0.  0.
   -5000001    1    1    2    0    0  0.88382031007E+02 -0.17438796558E+03 -0.42235018648E+03  0.47173215490E+03  0.77000000000E+02 0.  0.
<mgrwt>
<rscale>  0 0.42091904E+03</rscale>
<asrwt>0</asrwt>
<pdfrwt beam="1">  1        2 0.13538242E+00 0.42091904E+03</pdfrwt>
<pdfrwt beam="2">  1       -2 0.66769603E-02 0.42091904E+03</pdfrwt>
<totfact> 0.39513455E+03</totfact>
</mgrwt>
</event>
<event>
 4    1  0.6919593E-004  0.1727912E+03  0.7818608E-02  0.1174968E+00
          2   -1    0    0  501    0  0.00000000000E+00  0.00000000000E+00  0.14438095464E+04  0.14438095464E+04  0.25500000000E-02 0.  1.
         -2   -1    0    0    0  501 -0.00000000000E+00 -0.00000000000E+00 -0.51697942239E+01  0.51697948528E+01  0.25500000000E-02 0. -1.
    5000001    1    1    2    0    0 -0.18658678605E+02 -0.33694401936E+02  0.65900109441E+03  0.66460131014E+03  0.77000000000E+02 0.  0.
   -5000001    1    1    2    0    0  0.18658678605E+02  0.33694401936E+02  0.77963865775E+03  0.78437803110E+03  0.77000000000E+02 0.  0.
<mgrwt>
<rscale>  0 0.17279119E+03</rscale>
<asrwt>0</asrwt>
<pdfrwt beam="1">  1        2 0.20625850E+00 0.17279119E+03</pdfrwt>
<pdfrwt beam="2">  1       -2 0.73854210E-03 0.17279119E+03</pdfrwt>
<totfact> 0.53247573E+04</totfact>
</mgrwt>
</event>
<event>
 4    1  0.6919593E-004  0.1705255E+03  0.7818608E-02  0.1177301E+00
         -2   -1    0    0    0  501 -0.00000000000E+00  0.00000000000E+00  0.67505302309E+01  0.67505307125E+01  0.25500000000E-02 0. -1.
          2   -1    0    0  501    0  0.00000000000E+00 -0.00000000000E+00 -0.10769137207E+04  0.10769137207E+04  0.25500000000E-02 0.  1.
    5000001    1    1    2    0    0 -0.14904117681E+02  0.32633990708E+02 -0.48854394489E+03  0.49587427455E+03  0.77000000000E+02 0.  0.
   -5000001    1    1    2    0    0  0.14904117681E+02 -0.32633990708E+02 -0.58161924554E+03  0.58778997683E+03  0.77000000000E+02 0.  0.
<mgrwt>
<rscale>  0 0.17052553E+03</rscale>
<asrwt>0</asrwt>
<pdfrwt beam="1">  1        2 0.15384471E+00 0.17052553E+03</pdfrwt>
<pdfrwt beam="2">  1       -2 0.96436218E-03 0.17052553E+03</pdfrwt>
<totfact> 0.56578986E+04</totfact>
</mgrwt>
</event>
<event>
 4    1  0.6919593E-004  0.2218368E+03  0.7818608E-02  0.1132521E+00
         -2   -1    0    0    0  501 -0.00000000000E+00  0.00000000000E+00  0.80781140331E+01  0.80781144356E+01  0.25500000000E-02 0. -1.
          2   -1    0    0  501    0  0.00000000000E+00 -0.00000000000E+00 -0.15229909529E+04  0.15229909529E+04  0.25500000000E-02 0.  1.
    5000001    1    1    2    0    0 -0.18394343600E+02 -0.73903466849E+02 -0.59212735766E+03  0.60195006602E+03  0.77000000000E+02 0.  0.
   -5000001    1    1    2    0    0  0.18394343600E+02  0.73903466849E+02 -0.92278548124E+03  0.92911900136E+03  0.77000000000E+02 0.  0.
<mgrwt>
<rscale>  0 0.22183683E+03</rscale>
<asrwt>0</asrwt>
<pdfrwt beam="1">  1        2 0.21756995E+00 0.22183683E+03</pdfrwt>
<pdfrwt beam="2">  1       -2 0.11540173E-02 0.22183683E+03</pdfrwt>
<totfact> 0.25983443E+04</totfact>
</mgrwt>
</event>
<event>
 4    1  0.6919593E-004  0.1896073E+03  0.7818608E-02  0.1158816E+00
          2   -1    0    0  501    0  0.00000000000E+00  0.00000000000E+00  0.15400285730E+03  0.15400285732E+03  0.25500000000E-02 0.  1.
         -2   -1    0    0    0  501 -0.00000000000E+00 -0.00000000000E+00 -0.58360824807E+02  0.58360824863E+02  0.25500000000E-02 0. -1.
    5000001    1    1    2    0    0 -0.21119625689E+02 -0.49753796625E+02  0.60942686019E+02  0.11209143521E+03  0.77000000000E+02 0.  0.
   -5000001    1    1    2    0    0  0.21119625689E+02  0.49753796625E+02  0.34699346474E+02  0.10027224698E+03  0.77000000000E+02 0.  0.
<mgrwt>
<rscale>  0 0.18960732E+03</rscale>
<asrwt>0</asrwt>
<pdfrwt beam="1">  1        2 0.22000408E-01 0.18960732E+03</pdfrwt>
<pdfrwt beam="2">  1       -2 0.83372607E-02 0.18960732E+03</pdfrwt>
<totfact> 0.21104472E+04</totfact>
</mgrwt>
</event>
<event>
 4    1  0.6919593E-004  0.1730121E+03  0.7818608E-02  0.1174743E+00
         -2   -1    0    0    0  501 -0.00000000000E+00  0.00000000000E+00  0.15832856031E+02  0.15832856237E+02  0.25500000000E-02 0. -1.
          2   -1    0    0  501    0  0.00000000000E+00 -0.00000000000E+00 -0.47264347981E+03  0.47264347982E+03  0.25500000000E-02 0.  1.
    5000001    1    1    2    0    0  0.31064700286E+02  0.11057731577E+02 -0.16739140303E+03  0.18717951501E+03  0.77000000000E+02 0.  0.
   -5000001    1    1    2    0    0 -0.31064700286E+02 -0.11057731577E+02 -0.28941922075E+03  0.30129682105E+03  0.77000000000E+02 0.  0.
<mgrwt>
<rscale>  0 0.17301209E+03</rscale>
<asrwt>0</asrwt>
<pdfrwt beam="1">  1        2 0.67520488E-01 0.17301209E+03</pdfrwt>
<pdfrwt beam="2">  1       -2 0.22618369E-02 0.17301209E+03</pdfrwt>
<totfact> 0.44150439E+04</totfact>
</mgrwt>
</event>
<event>
 4    1  0.6919593E-004  0.2507851E+03  0.7818608E-02  0.1112810E+00
          2   -1    0    0  501    0  0.00000000000E+00  0.00000000000E+00  0.12537436189E+04  0.12537436189E+04  0.25500000000E-02 0.  1.
         -2   -1    0    0    0  501 -0.00000000000E+00 -0.00000000000E+00 -0.12541074837E+02  0.12541075096E+02  0.25500000000E-02 0. -1.
    5000001    1    1    2    0    0 -0.57777823217E+02  0.59221870619E+02  0.34641151124E+03  0.36438364664E+03  0.77000000000E+02 0.  0.
   -5000001    1    1    2    0    0  0.57777823217E+02 -0.59221870619E+02  0.89479103281E+03  0.90190104735E+03  0.77000000000E+02 0.  0.
<mgrwt>
<rscale>  0 0.25078511E+03</rscale>
<asrwt>0</asrwt>
<pdfrwt beam="1">  1        2 0.17910605E+00 0.25078511E+03</pdfrwt>
<pdfrwt beam="2">  1       -2 0.17915839E-02 0.25078511E+03</pdfrwt>
<totfact> 0.18938653E+04</totfact>
</mgrwt>
</event>
<event>
 4    1  0.6919593E-004  0.6052581E+03  0.7818608E-02  0.9894557E-01
          2   -1    0    0  501    0  0.00000000000E+00  0.00000000000E+00  0.86788895206E+03  0.86788895206E+03  0.25500000000E-02 0.  1.
         -2   -1    0    0    0  501 -0.00000000000E+00 -0.00000000000E+00 -0.10552540551E+03  0.10552540554E+03  0.25500000000E-02 0. -1.
    5000001    1    1    2    0    0  0.22787453887E+03 -0.17798061104E+03  0.45402438942E+03  0.54375642485E+03  0.77000000000E+02 0.  0.
   -5000001    1    1    2    0    0 -0.22787453887E+03  0.17798061104E+03  0.30833915712E+03  0.42965793276E+03  0.77000000000E+02 0.  0.
<mgrwt>
<rscale>  0 0.60525807E+03</rscale>
<asrwt>0</asrwt>
<pdfrwt beam="1">  1        2 0.12398414E+00 0.60525807E+03</pdfrwt>
<pdfrwt beam="2">  1       -2 0.15075058E-01 0.60525807E+03</pdfrwt>
<totfact> 0.11899428E+03</totfact>
</mgrwt>
</event>
<event>
 4    1  0.6919593E-004  0.2332270E+03  0.7818608E-02  0.1124389E+00
         -2   -1    0    0    0  501 -0.00000000000E+00  0.00000000000E+00  0.39262675813E+02  0.39262675896E+02  0.25500000000E-02 0. -1.
          2   -1    0    0  501    0  0.00000000000E+00 -0.00000000000E+00 -0.34635197845E+03  0.34635197846E+03  0.25500000000E-02 0.  1.
    5000001    1    1    2    0    0  0.85398000575E+01 -0.81557743517E+02 -0.10271509343E+03  0.15232854011E+03  0.77000000000E+02 0.  0.
   -5000001    1    1    2    0    0 -0.85398000575E+01  0.81557743517E+02 -0.20437420920E+03  0.23328611425E+03  0.77000000000E+02 0.  0.
<mgrwt>
<rscale>  0 0.23322697E+03</rscale>
<asrwt>0</asrwt>
<pdfrwt beam="1">  1        2 0.49478852E-01 0.23322697E+03</pdfrwt>
<pdfrwt beam="2">  1       -2 0.56089539E-02 0.23322697E+03</pdfrwt>
<totfact> 0.16310216E+04</totfact>
</mgrwt>
</event>
<event>
 4    1  0.6919593E-004  0.2333561E+03  0.7818608E-02  0.1124300E+00
         -2   -1    0    0    0  501 -0.00000000000E+00  0.00000000000E+00  0.10633752803E+03  0.10633752806E+03  0.25500000000E-02 0. -1.
          2   -1    0    0  501    0  0.00000000000E+00 -0.00000000000E+00 -0.12802415108E+03  0.12802415111E+03  0.25500000000E-02 0.  1.
    5000001    1    1    2    0    0  0.84261464233E+02  0.61859551202E+01 -0.34321629045E+02  0.11935340220E+03  0.77000000000E+02 0.  0.
   -5000001    1    1    2    0    0 -0.84261464233E+02 -0.61859551202E+01  0.12635005991E+02  0.11500827697E+03  0.77000000000E+02 0.  0.
<mgrwt>
<rscale>  0 0.23335614E+03</rscale>
<asrwt>0</asrwt>
<pdfrwt beam="1">  1        2 0.18289164E-01 0.23335614E+03</pdfrwt>
<pdfrwt beam="2">  1       -2 0.15191076E-01 0.23335614E+03</pdfrwt>
<totfact> 0.10113889E+04</totfact>
</mgrwt>
</event>
<event>
 4    1  0.6919593E-004  0.5006632E+03  0.7818608E-02  0.1013606E+00
         -2   -1    0    0    0  501 -0.00000000000E+00  0.00000000000E+00  0.11339951476E+03  0.11339951479E+03  0.25500000000E-02 0. -1.
          2   -1    0    0  501    0  0.00000000000E+00 -0.00000000000E+00 -0.55261176633E+03  0.55261176634E+03  0.25500000000E-02 0.  1.
    5000001    1    1    2    0    0  0.20435892651E+03 -0.71169755444E+02 -0.35202663443E+03  0.42033255439E+03  0.77000000000E+02 0.  0.
   -5000001    1    1    2    0    0 -0.20435892651E+03  0.71169755444E+02 -0.87185617147E+02  0.24567872674E+03  0.77000000000E+02 0.  0.
<mgrwt>
<rscale>  0 0.50066318E+03</rscale>
<asrwt>0</asrwt>
<pdfrwt beam="1">  1        2 0.78944537E-01 0.50066318E+03</pdfrwt>
<pdfrwt beam="2">  1       -2 0.16199931E-01 0.50066318E+03</pdfrwt>
<totfact> 0.18308975E+03</totfact>
</mgrwt>
</event>
<event>
 4    1  0.6919593E-004  0.1919971E+03  0.7818608E-02  0.1156672E+00
          2   -1    0    0  501    0  0.00000000000E+00  0.00000000000E+00  0.93148801970E+02  0.93148802005E+02  0.25500000000E-02 0.  1.
         -2   -1    0    0    0  501 -0.00000000000E+00 -0.00000000000E+00 -0.98935528345E+02  0.98935528377E+02  0.25500000000E-02 0. -1.
    5000001    1    1    2    0    0 -0.41169893694E+02 -0.28626348972E+02  0.24909505297E+02  0.95204576867E+02  0.77000000000E+02 0.  0.
   -5000001    1    1    2    0    0  0.41169893694E+02  0.28626348972E+02 -0.30696231672E+02  0.96879753515E+02  0.77000000000E+02 0.  0.
<mgrwt>
<rscale>  0 0.19199715E+03</rscale>
<asrwt>0</asrwt>
<pdfrwt beam="1">  1        2 0.13306972E-01 0.19199715E+03</pdfrwt>
<pdfrwt beam="2">  1       -2 0.14133647E-01 0.19199715E+03</pdfrwt>
<totfact> 0.16330152E+04</totfact>
</mgrwt>
</event>
<event>
 4    1  0.6919593E-004  0.4197129E+03  0.7818608E-02  0.1037160E+00
         -2   -1    0    0    0  501 -0.00000000000E+00  0.00000000000E+00  0.23662655359E+02  0.23662655496E+02  0.25500000000E-02 0. -1.
          2   -1    0    0  501    0  0.00000000000E+00 -0.00000000000E+00 -0.18611489593E+04  0.18611489593E+04  0.25500000000E-02 0.  1.
    5000001    1    1    2    0    0 -0.67938966288E+02 -0.12629452830E+03 -0.32391870131E+03  0.36251667007E+03  0.77000000000E+02 0.  0.
   -5000001    1    1    2    0    0  0.67938966288E+02  0.12629452830E+03 -0.15135676026E+04  0.15222949447E+04  0.77000000000E+02 0.  0.
<mgrwt>
<rscale>  0 0.41971289E+03</rscale>
<asrwt>0</asrwt>
<pdfrwt beam="1">  1        2 0.26587833E+00 0.41971289E+03</pdfrwt>
<pdfrwt beam="2">  1       -2 0.33803805E-02 0.41971289E+03</pdfrwt>
<totfact> 0.36522086E+03</totfact>
</mgrwt>
</event>
<event>
 4    1  0.6919593E-004  0.2556552E+03  0.7818608E-02  0.1109782E+00
         -2   -1    0    0    0  501 -0.00000000000E+00  0.00000000000E+00  0.30044367199E+02  0.30044367308E+02  0.25500000000E-02 0. -1.
          2   -1    0    0  501    0  0.00000000000E+00 -0.00000000000E+00 -0.54385878173E+03  0.54385878174E+03  0.25500000000E-02 0.  1.
    5000001    1    1    2    0    0  0.18463505386E+02 -0.93483754406E+02 -0.33879837741E+03  0.36026858579E+03  0.77000000000E+02 0.  0.
   -5000001    1    1    2    0    0 -0.18463505386E+02  0.93483754406E+02 -0.17501603713E+03  0.21363456326E+03  0.77000000000E+02 0.  0.
<mgrwt>
<rscale>  0 0.25565518E+03</rscale>
<asrwt>0</asrwt>
<pdfrwt beam="1">  1        2 0.77694106E-01 0.25565518E+03</pdfrwt>
<pdfrwt beam="2">  1       -2 0.42920528E-02 0.25565518E+03</pdfrwt>
<totfact> 0.15044528E+04</totfact>
</mgrwt>
</event>
<event>
 4    1  0.6919593E-004  0.4121316E+03  0.7818608E-02  0.1039658E+00
          2   -1    0    0  501    0  0.00000000000E+00  0.00000000000E+00  0.30817016658E+02  0.30817016764E+02  0.25500000000E-02 0.  1.
         -2   -1    0    0    0  501 -0.00000000000E+00 -0.00000000000E+00 -0.13779114599E+04  0.13779114599E+04  0.25500000000E-02 0. -1.
    5000001    1    1    2    0    0  0.14630879994E+03  0.12705784781E+02 -0.25537970973E+03  0.30449219703E+03  0.77000000000E+02 0.  0.
   -5000001    1    1    2    0    0 -0.14630879994E+03 -0.12705784781E+02 -0.10917147335E+04  0.11042362797E+04  0.77000000000E+02 0.  0.
<mgrwt>
<rscale>  0 0.41213163E+03</rscale>
<asrwt>0</asrwt>
<pdfrwt beam="1">  1        2 0.44024318E-02 0.41213163E+03</pdfrwt>
<pdfrwt beam="2">  1       -2 0.19684446E+00 0.41213163E+03</pdfrwt>
<totfact> 0.28154461E+02</totfact>
</mgrwt>
</event>
<event>
 4    1  0.6919593E-004  0.2097409E+03  0.7818608E-02  0.1141771E+00
         -2   -1    0    0    0  501 -0.00000000000E+00  0.00000000000E+00  0.68083271650E+03  0.68083271650E+03  0.25500000000E-02 0. -1.
          2   -1    0    0  501    0  0.00000000000E+00 -0.00000000000E+00 -0.16153463735E+02  0.16153463936E+02  0.25500000000E-02 0.  1.
    5000001    1    1    2    0    0  0.45124042210E+02  0.55002135925E+02  0.32330443101E+03  0.33987669713E+03  0.77000000000E+02 0.  0.
   -5000001    1    1    2    0    0 -0.45124042210E+02 -0.55002135925E+02  0.34137482176E+03  0.35710948331E+03  0.77000000000E+02 0.  0.
<mgrwt>
<rscale>  0 0.20974086E+03</rscale>
<asrwt>0</asrwt>
<pdfrwt beam="1">  1        2 0.23076381E-02 0.20974086E+03</pdfrwt>
<pdfrwt beam="2">  1       -2 0.97261801E-01 0.20974086E+03</pdfrwt>
<totfact> 0.40356099E+03</totfact>
</mgrwt>
</event>
<event>
 4    1  0.6919593E-004  0.2889891E+03  0.7818608E-02  0.1090878E+00
          2   -1    0    0  501    0  0.00000000000E+00  0.00000000000E+00  0.82934180116E+03  0.82934180116E+03  0.25500000000E-02 0.  1.
         -2   -1    0    0    0  501 -0.00000000000E+00 -0.00000000000E+00 -0.25174990647E+02  0.25174990776E+02  0.25500000000E-02 0. -1.
    5000001    1    1    2    0    0  0.11294255314E+03 -0.37076416960E+02  0.31746228510E+03  0.34762333561E+03  0.77000000000E+02 0.  0.
   -5000001    1    1    2    0    0 -0.11294255314E+03  0.37076416960E+02  0.48670452542E+03  0.50689345633E+03  0.77000000000E+02 0.  0.
<mgrwt>
<rscale>  0 0.28898908E+03</rscale>
<asrwt>0</asrwt>
<pdfrwt beam="1">  1        2 0.11847739E+00 0.28898908E+03</pdfrwt>
<pdfrwt beam="2">  1       -2 0.35964274E-02 0.28898908E+03</pdfrwt>
<totfact> 0.12002525E+04</totfact>
</mgrwt>
</event>
<event>
 4    1  0.6919593E-004  0.2002367E+03  0.7818608E-02  0.1149539E+00
          2   -1    0    0  501    0  0.00000000000E+00  0.00000000000E+00  0.39922246708E+02  0.39922246790E+02  0.25500000000E-02 0. -1.
         -2   -1    0    0    0  501 -0.00000000000E+00 -0.00000000000E+00 -0.25108017462E+03  0.25108017464E+03  0.25500000000E-02 0.  1.
    5000001    1    1    2    0    0 -0.38123149481E+02  0.41945536759E+02 -0.62421275611E+02  0.11418501753E+03  0.77000000000E+02 0.  0.
   -5000001    1    1    2    0    0  0.38123149481E+02 -0.41945536759E+02 -0.14873665230E+03  0.17681740389E+03  0.77000000000E+02 0.  0.
<mgrwt>
<rscale>  0 0.20023671E+03</rscale>
<asrwt>0</asrwt>
<pdfrwt beam="1">  1        2 0.57031783E-02 0.20023671E+03</pdfrwt>
<pdfrwt beam="2">  1       -2 0.35868595E-01 0.20023671E+03</pdfrwt>
<totfact> 0.93939323E+03</totfact>
</mgrwt>
</event>
<event>
 4    1  0.6919593E-004  0.3350468E+03  0.7818608E-02  0.1068925E+00
         -2   -1    0    0    0  501 -0.00000000000E+00  0.00000000000E+00  0.15594879333E+02  0.15594879542E+02  0.25500000000E-02 0. -1.
          2   -1    0    0  501    0  0.00000000000E+00 -0.00000000000E+00 -0.17995706525E+04  0.17995706525E+04  0.25500000000E-02 0.  1.
    5000001    1    1    2    0    0  0.13807326069E+03 -0.52746630923E+02 -0.79994286494E+03  0.81711934230E+03  0.77000000000E+02 0.  0.
   -5000001    1    1    2    0    0 -0.13807326069E+03  0.52746630923E+02 -0.98403290820E+03  0.99804618972E+03  0.77000000000E+02 0.  0.
<mgrwt>
<rscale>  0 0.33504679E+03</rscale>
<asrwt>0</asrwt>
<pdfrwt beam="1">  1        2 0.25708139E+00 0.33504679E+03</pdfrwt>
<pdfrwt beam="2">  1       -2 0.22278411E-02 0.33504679E+03</pdfrwt>
<totfact> 0.73153153E+03</totfact>
</mgrwt>
</event>
<event>
 4    1  0.6919593E-004  0.1797632E+03  0.7818608E-02  0.1168032E+00
          2   -1    0    0  501    0  0.00000000000E+00  0.00000000000E+00  0.14563267488E+03  0.14563267490E+03  0.25500000000E-02 0.  1.
         -2   -1    0    0    0  501 -0.00000000000E+00 -0.00000000000E+00 -0.55473112647E+02  0.55473112705E+02  0.25500000000E-02 0. -1.
    5000001    1    1    2    0    0  0.43593499158E+02  0.15242399767E+02  0.49688861607E+02  0.10261923254E+03  0.77000000000E+02 0.  0.
   -5000001    1    1    2    0    0 -0.43593499158E+02 -0.15242399767E+02  0.40470700624E+02  0.98486555065E+02  0.77000000000E+02 0.  0.
<mgrwt>
<rscale>  0 0.17976315E+03</rscale>
<asrwt>0</asrwt>
<pdfrwt beam="1">  1        2 0.20804668E-01 0.17976315E+03</pdfrwt>
<pdfrwt beam="2">  1       -2 0.79247305E-02 0.17976315E+03</pdfrwt>
<totfact> 0.24212519E+04</totfact>
</mgrwt>
</event>
<event>
 4    1  0.6919593E-004  0.6527783E+03  0.7818608E-02  0.9801580E-01
          2   -1    0    0  501    0  0.00000000000E+00  0.00000000000E+00  0.28352313260E+04  0.28352313260E+04  0.25500000000E-02 0.  1.
         -2   -1    0    0    0  501 -0.00000000000E+00 -0.00000000000E+00 -0.37573615430E+02  0.37573615516E+02  0.25500000000E-02 0. -1.
    5000001    1    1    2    0    0  0.24129911166E+03 -0.18469385843E+03  0.17988938348E+04  0.18260024950E+04  0.77000000000E+02 0.  0.
   -5000001    1    1    2    0    0 -0.24129911166E+03  0.18469385843E+03  0.99876387574E+03  0.10468024466E+04  0.77000000000E+02 0.  0.
<mgrwt>
<rscale>  0 0.65277834E+03</rscale>
<asrwt>0</asrwt>
<pdfrwt beam="1">  1        2 0.40503309E+00 0.65277834E+03</pdfrwt>
<pdfrwt beam="2">  1       -2 0.53676587E-02 0.65277834E+03</pdfrwt>
<totfact> 0.56578557E+02</totfact>
</mgrwt>
</event>
<event>
 4    1  0.6919593E-004  0.2336538E+03  0.7818608E-02  0.1124094E+00
         -2   -1    0    0    0  501 -0.00000000000E+00  0.00000000000E+00  0.55065664941E+02  0.55065665000E+02  0.25500000000E-02 0. -1.
          2   -1    0    0  501    0  0.00000000000E+00 -0.00000000000E+00 -0.24785903499E+03  0.24785903500E+03  0.25500000000E-02 0.  1.
    5000001    1    1    2    0    0  0.41892215920E+02  0.75168494284E+02 -0.73413616628E+02  0.13683500793E+03  0.77000000000E+02 0.  0.
   -5000001    1    1    2    0    0 -0.41892215920E+02 -0.75168494284E+02 -0.11937975342E+03  0.16608969208E+03  0.77000000000E+02 0.  0.
<mgrwt>
<rscale>  0 0.23365378E+03</rscale>
<asrwt>0</asrwt>
<pdfrwt beam="1">  1        2 0.35408433E-01 0.23365378E+03</pdfrwt>
<pdfrwt beam="2">  1       -2 0.78665237E-02 0.23365378E+03</pdfrwt>
<totfact> 0.13882673E+04</totfact>
</mgrwt>
</event>
<event>
 4    1  0.6919593E-004  0.2876330E+03  0.7818608E-02  0.1091592E+00
         -2   -1    0    0    0  501 -0.00000000000E+00  0.00000000000E+00  0.40223359758E+02  0.40223359839E+02  0.25500000000E-02 0. -1.
          2   -1    0    0  501    0  0.00000000000E+00 -0.00000000000E+00 -0.51420822795E+03  0.51420822796E+03  0.25500000000E-02 0.  1.
    5000001    1    1    2    0    0  0.11351038954E+03  0.32417704162E+02 -0.18184023997E+03  0.23006605344E+03  0.77000000000E+02 0.  0.
   -5000001    1    1    2    0    0 -0.11351038954E+03 -0.32417704162E+02 -0.29214462823E+03  0.32436553435E+03  0.77000000000E+02 0.  0.
<mgrwt>
<rscale>  0 0.28763298E+03</rscale>
<asrwt>0</asrwt>
<pdfrwt beam="1">  1        2 0.73458314E-01 0.28763298E+03</pdfrwt>
<pdfrwt beam="2">  1       -2 0.57461946E-02 0.28763298E+03</pdfrwt>
<totfact> 0.10335751E+04</totfact>
</mgrwt>
</event>
<event>
 4    1  0.6919593E-004  0.2442084E+03  0.7818608E-02  0.1117021E+00
         -2   -1    0    0    0  501 -0.00000000000E+00  0.00000000000E+00  0.18388728391E+02  0.18388728567E+02  0.25500000000E-02 0. -1.
          2   -1    0    0  501    0  0.00000000000E+00 -0.00000000000E+00 -0.81079210781E+03  0.81079210782E+03  0.25500000000E-02 0.  1.
    5000001    1    1    2    0    0  0.87540937908E+02 -0.27815660778E+02 -0.47534462558E+03  0.49022305113E+03  0.77000000000E+02 0.  0.
   -5000001    1    1    2    0    0 -0.87540937908E+02  0.27815660778E+02 -0.31705875384E+03  0.33895778525E+03  0.77000000000E+02 0.  0.
<mgrwt>
<rscale>  0 0.24420840E+03</rscale>
<asrwt>0</asrwt>
<pdfrwt beam="1">  1        2 0.11582742E+00 0.24420840E+03</pdfrwt>
<pdfrwt beam="2">  1       -2 0.26269617E-02 0.24420840E+03</pdfrwt>
<totfact> 0.19561036E+04</totfact>
</mgrwt>
</event>
<event>
 4    1  0.6919593E-004  0.3699670E+03  0.7818608E-02  0.1054706E+00
          2   -1    0    0  501    0  0.00000000000E+00  0.00000000000E+00  0.12781509192E+03  0.12781509194E+03  0.25500000000E-02 0.  1.
         -2   -1    0    0    0  501 -0.00000000000E+00 -0.00000000000E+00 -0.26772183930E+03  0.26772183931E+03  0.25500000000E-02 0. -1.
    5000001    1    1    2    0    0  0.16577008033E+03 -0.25658368239E+02 -0.56780251205E+02  0.19310895453E+03  0.77000000000E+02 0.  0.
   -5000001    1    1    2    0    0 -0.16577008033E+03  0.25658368239E+02 -0.83126496177E+02  0.20242797672E+03  0.77000000000E+02 0.  0.
<mgrwt>
<rscale>  0 0.36996698E+03</rscale>
<asrwt>0</asrwt>
<pdfrwt beam="1">  1        2 0.18259299E-01 0.36996698E+03</pdfrwt>
<pdfrwt beam="2">  1       -2 0.38245977E-01 0.36996698E+03</pdfrwt>
<totfact> 0.20176208E+03</totfact>
</mgrwt>
</event>
<event>
 4    1  0.6919593E-004  0.3823915E+03  0.7818608E-02  0.1050053E+00
          2   -1    0    0  501    0  0.00000000000E+00  0.00000000000E+00  0.29375850862E+02  0.29375850973E+02  0.25500000000E-02 0.  1.
         -2   -1    0    0    0  501 -0.00000000000E+00 -0.00000000000E+00 -0.12444173330E+04  0.12444173330E+04  0.25500000000E-02 0. -1.
    5000001    1    1    2    0    0 -0.11057632974E+03  0.13194698491E+03 -0.50272599701E+03  0.53693534024E+03  0.77000000000E+02 0.  0.
   -5000001    1    1    2    0    0  0.11057632974E+03 -0.13194698491E+03 -0.71231548513E+03  0.73685784374E+03  0.77000000000E+02 0.  0.
<mgrwt>
<rscale>  0 0.38239152E+03</rscale>
<asrwt>0</asrwt>
<pdfrwt beam="1">  1        2 0.41965509E-02 0.38239152E+03</pdfrwt>
<pdfrwt beam="2">  1       -2 0.17777387E+00 0.38239152E+03</pdfrwt>
<totfact> 0.40164792E+02</totfact>
</mgrwt>
</event>
<event>
 4    1  0.6919593E-004  0.2046631E+03  0.7818608E-02  0.1145863E+00
         -2   -1    0    0    0  501 -0.00000000000E+00  0.00000000000E+00  0.67539350754E+01  0.67539355568E+01  0.25500000000E-02 0. -1.
          2   -1    0    0  501    0  0.00000000000E+00 -0.00000000000E+00 -0.15504653019E+04  0.15504653019E+04  0.25500000000E-02 0.  1.
    5000001    1    1    2    0    0  0.59188087095E+02 -0.25408468056E+02 -0.62084222220E+03  0.62890610171E+03  0.77000000000E+02 0.  0.
   -5000001    1    1    2    0    0 -0.59188087095E+02  0.25408468056E+02 -0.92286914467E+03  0.92831313580E+03  0.77000000000E+02 0.  0.
<mgrwt>
<rscale>  0 0.20466306E+03</rscale>
<asrwt>0</asrwt>
<pdfrwt beam="1">  1        2 0.22149482E+00 0.20466306E+03</pdfrwt>
<pdfrwt beam="2">  1       -2 0.96484889E-03 0.20466306E+03</pdfrwt>
<totfact> 0.32469800E+04</totfact>
</mgrwt>
</event>
<event>
 4    1  0.6919593E-004  0.2213370E+03  0.7818608E-02  0.1132890E+00
         -2   -1    0    0    0  501 -0.00000000000E+00  0.00000000000E+00  0.37938036786E+03  0.37938036787E+03  0.25500000000E-02 0. -1.
          2   -1    0    0  501    0  0.00000000000E+00 -0.00000000000E+00 -0.32282951731E+02  0.32282951832E+02  0.25500000000E-02 0.  1.
    5000001    1    1    2    0    0 -0.23323318961E+02  0.73083561621E+02  0.21226551059E+03  0.23847605996E+03  0.77000000000E+02 0.  0.
   -5000001    1    1    2    0    0  0.23323318961E+02 -0.73083561621E+02  0.13483190554E+03  0.17318725975E+03  0.77000000000E+02 0.  0.
<mgrwt>
<rscale>  0 0.22133701E+03</rscale>
<asrwt>0</asrwt>
<pdfrwt beam="1">  1        2 0.46118501E-02 0.22133701E+03</pdfrwt>
<pdfrwt beam="2">  1       -2 0.54197197E-01 0.22133701E+03</pdfrwt>
<totfact> 0.56087233E+03</totfact>
</mgrwt>
</event>
<event>
 4    1  0.6919593E-004  0.2364379E+03  0.7818608E-02  0.1122189E+00
         -2   -1    0    0    0  501 -0.00000000000E+00  0.00000000000E+00  0.16468283708E+02  0.16468283906E+02  0.25500000000E-02 0. -1.
          2   -1    0    0  501    0  0.00000000000E+00 -0.00000000000E+00 -0.84864438946E+03  0.84864438947E+03  0.25500000000E-02 0.  1.
    5000001    1    1    2    0    0  0.18815192615E+02  0.75817422952E+02 -0.57743140385E+03  0.58775702399E+03  0.77000000000E+02 0.  0.
   -5000001    1    1    2    0    0 -0.18815192615E+02 -0.75817422952E+02 -0.25474470190E+03  0.27735564938E+03  0.77000000000E+02 0.  0.
<mgrwt>
<rscale>  0 0.23643787E+03</rscale>
<asrwt>0</asrwt>
<pdfrwt beam="1">  1        2 0.12123489E+00 0.23643787E+03</pdfrwt>
<pdfrwt beam="2">  1       -2 0.23526125E-02 0.23643787E+03</pdfrwt>
<totfact> 0.21705381E+04</totfact>
</mgrwt>
</event>
<event>
 4    1  0.6919593E-004  0.1753688E+03  0.7818608E-02  0.1172362E+00
         -2   -1    0    0    0  501 -0.00000000000E+00  0.00000000000E+00  0.26330000863E+01  0.26330013211E+01  0.25500000000E-02 0. -1.
          2   -1    0    0  501    0  0.00000000000E+00 -0.00000000000E+00 -0.29200736761E+04  0.29200736761E+04  0.25500000000E-02 0.  1.
    5000001    1    1    2    0    0  0.23399934787E+02 -0.33997714000E+02 -0.15836096545E+04  0.15860176353E+04  0.77000000000E+02 0.  0.
   -5000001    1    1    2    0    0 -0.23399934787E+02  0.33997714000E+02 -0.13338310215E+04  0.13366890421E+04  0.77000000000E+02 0.  0.
<mgrwt>
<rscale>  0 0.17536882E+03</rscale>
<asrwt>0</asrwt>
<pdfrwt beam="1">  1        2 0.41715131E+00 0.17536882E+03</pdfrwt>
<pdfrwt beam="2">  1       -2 0.37614483E-03 0.17536882E+03</pdfrwt>
<totfact> 0.26390622E+04</totfact>
</mgrwt>
</event>
<event>
 4    1  0.6919593E-004  0.3626046E+03  0.7818608E-02  0.1057557E+00
         -2   -1    0    0    0  501 -0.00000000000E+00  0.00000000000E+00  0.24445237758E+02  0.24445237891E+02  0.25500000000E-02 0. -1.
          2   -1    0    0  501    0  0.00000000000E+00 -0.00000000000E+00 -0.13446592533E+04  0.13446592533E+04  0.25500000000E-02 0.  1.
    5000001    1    1    2    0    0  0.96759354983E+02 -0.13016156027E+03 -0.56480308181E+03  0.59265160572E+03  0.77000000000E+02 0.  0.
   -5000001    1    1    2    0    0 -0.96759354983E+02  0.13016156027E+03 -0.75541093378E+03  0.77645288552E+03  0.77000000000E+02 0.  0.
<mgrwt>
<rscale>  0 0.36260455E+03</rscale>
<asrwt>0</asrwt>
<pdfrwt beam="1">  1        2 0.19209413E+00 0.36260455E+03</pdfrwt>
<pdfrwt beam="2">  1       -2 0.34921777E-02 0.36260455E+03</pdfrwt>
<totfact> 0.63553694E+03</totfact>
</mgrwt>
</event>
<event>
 4    1  0.6919593E-004  0.2457242E+03  0.7818608E-02  0.1116037E+00
         -2   -1    0    0    0  501 -0.00000000000E+00  0.00000000000E+00  0.23034849390E+02  0.23034849532E+02  0.25500000000E-02 0. -1.
          2   -1    0    0  501    0  0.00000000000E+00 -0.00000000000E+00 -0.65531548299E+03  0.65531548299E+03  0.25500000000E-02 0.  1.
    5000001    1    1    2    0    0 -0.83725701064E+02  0.67738995637E+01 -0.18932565379E+03  0.22097303436E+03  0.77000000000E+02 0.  0.
   -5000001    1    1    2    0    0  0.83725701064E+02 -0.67738995637E+01 -0.44295497981E+03  0.45737729816E+03  0.77000000000E+02 0.  0.
<mgrwt>
<rscale>  0 0.24572418E+03</rscale>
<asrwt>0</asrwt>
<pdfrwt beam="1">  1        2 0.93616486E-01 0.24572418E+03</pdfrwt>
<pdfrwt beam="2">  1       -2 0.32906932E-02 0.24572418E+03</pdfrwt>
<totfact> 0.18077159E+04</totfact>
</mgrwt>
</event>
<event>
 4    1  0.6919593E-004  0.3829292E+03  0.7818608E-02  0.1049856E+00
          2   -1    0    0  501    0  0.00000000000E+00  0.00000000000E+00  0.26270602058E+04  0.26270602058E+04  0.25500000000E-02 0.  1.
         -2   -1    0    0    0  501 -0.00000000000E+00 -0.00000000000E+00 -0.13954261754E+02  0.13954261987E+02  0.25500000000E-02 0. -1.
    5000001    1    1    2    0    0  0.17301222717E+03 -0.23881553427E+01  0.11126106931E+04  0.11286144108E+04  0.77000000000E+02 0.  0.
   -5000001    1    1    2    0    0 -0.17301222717E+03  0.23881553427E+01  0.15004952510E+04  0.15124000569E+04  0.77000000000E+02 0.  0.
<mgrwt>
<rscale>  0 0.38292916E+03</rscale>
<asrwt>0</asrwt>
<pdfrwt beam="1">  1        2 0.37529471E+00 0.38292916E+03</pdfrwt>
<pdfrwt beam="2">  1       -2 0.19934639E-02 0.38292916E+03</pdfrwt>
<totfact> 0.33425144E+03</totfact>
</mgrwt>
</event>
<event>
 4    1  0.6919593E-004  0.2336966E+03  0.7818608E-02  0.1124065E+00
          2   -1    0    0  501    0  0.00000000000E+00  0.00000000000E+00  0.10269630362E+04  0.10269630362E+04  0.25500000000E-02 0.  1.
         -2   -1    0    0    0  501 -0.00000000000E+00 -0.00000000000E+00 -0.13295048745E+02  0.13295048990E+02  0.25500000000E-02 0. -1.
    5000001    1    1    2    0    0 -0.18954473946E+02 -0.40151165792E+02  0.84446399680E+03  0.84912886542E+03  0.77000000000E+02 0.  0.
   -5000001    1    1    2    0    0  0.18954473946E+02  0.40151165792E+02  0.16920399064E+03  0.19112921976E+03  0.77000000000E+02 0.  0.
<mgrwt>
<rscale>  0 0.23369659E+03</rscale>
<asrwt>0</asrwt>
<pdfrwt beam="1">  1        2 0.14670902E+00 0.23369659E+03</pdfrwt>
<pdfrwt beam="2">  1       -2 0.18992924E-02 0.23369659E+03</pdfrwt>
<totfact> 0.23130319E+04</totfact>
</mgrwt>
</event>
<event>
 4    1  0.6919593E-004  0.2220176E+03  0.7818608E-02  0.1132388E+00
          2   -1    0    0  501    0  0.00000000000E+00  0.00000000000E+00  0.80891675085E+03  0.80891675086E+03  0.25500000000E-02 0.  1.
         -2   -1    0    0    0  501 -0.00000000000E+00 -0.00000000000E+00 -0.15233898460E+02  0.15233898673E+02  0.25500000000E-02 0. -1.
    5000001    1    1    2    0    0  0.59149703148E+02 -0.50091080355E+02  0.46978689528E+03  0.48232409301E+03  0.77000000000E+02 0.  0.
   -5000001    1    1    2    0    0 -0.59149703148E+02  0.50091080355E+02  0.32389595711E+03  0.34182655652E+03  0.77000000000E+02 0.  0.
<mgrwt>
<rscale>  0 0.22201762E+03</rscale>
<asrwt>0</asrwt>
<pdfrwt beam="1">  1        2 0.11555954E+00 0.22201762E+03</pdfrwt>
<pdfrwt beam="2">  1       -2 0.21762712E-02 0.22201762E+03</pdfrwt>
<totfact> 0.25742750E+04</totfact>
</mgrwt>
</event>
<event>
 4    1  0.6919593E-004  0.2372811E+03  0.7818608E-02  0.1121617E+00
         -2   -1    0    0    0  501 -0.00000000000E+00  0.00000000000E+00  0.24197071520E+02  0.24197071654E+02  0.25500000000E-02 0. -1.
          2   -1    0    0  501    0  0.00000000000E+00 -0.00000000000E+00 -0.58170601997E+03  0.58170601997E+03  0.25500000000E-02 0.  1.
    5000001    1    1    2    0    0  0.86610857248E+02 -0.20910359619E+02 -0.24193601212E+03  0.26907381458E+03  0.77000000000E+02 0.  0.
   -5000001    1    1    2    0    0 -0.86610857248E+02  0.20910359619E+02 -0.31557293632E+03  0.33682927704E+03  0.77000000000E+02 0.  0.
<mgrwt>
<rscale>  0 0.23728112E+03</rscale>
<asrwt>0</asrwt>
<pdfrwt beam="1">  1        2 0.83100851E-01 0.23728112E+03</pdfrwt>
<pdfrwt beam="2">  1       -2 0.34567249E-02 0.23728112E+03</pdfrwt>
<totfact> 0.19217043E+04</totfact>
</mgrwt>
</event>
<event>
 4    1  0.6919593E-004  0.2910801E+03  0.7818608E-02  0.1089787E+00
          2   -1    0    0  501    0  0.00000000000E+00  0.00000000000E+00  0.58194483628E+03  0.58194483629E+03  0.25500000000E-02 0.  1.
         -2   -1    0    0    0  501 -0.00000000000E+00 -0.00000000000E+00 -0.36398479879E+02  0.36398479968E+02  0.25500000000E-02 0. -1.
    5000001    1    1    2    0    0 -0.11690189109E+03  0.14353193604E+02  0.35171170195E+03  0.37881682592E+03  0.77000000000E+02 0.  0.
   -5000001    1    1    2    0    0  0.11690189109E+03 -0.14353193604E+02  0.19383465445E+03  0.23952649034E+03  0.77000000000E+02 0.  0.
<mgrwt>
<rscale>  0 0.29108011E+03</rscale>
<asrwt>0</asrwt>
<pdfrwt beam="1">  1        2 0.83134976E-01 0.29108011E+03</pdfrwt>
<pdfrwt beam="2">  1       -2 0.51997829E-02 0.29108011E+03</pdfrwt>
<totfact> 0.10481815E+04</totfact>
</mgrwt>
</event>
<event>
 4    1  0.6919593E-004  0.2133642E+03  0.7818608E-02  0.1138929E+00
         -2   -1    0    0    0  501 -0.00000000000E+00  0.00000000000E+00  0.38662522433E+03  0.38662522433E+03  0.25500000000E-02 0. -1.
          2   -1    0    0  501    0  0.00000000000E+00 -0.00000000000E+00 -0.29436944648E+02  0.29436944759E+02  0.25500000000E-02 0.  1.
    5000001    1    1    2    0    0 -0.46981691832E+02  0.34198482329E+02  0.26742665611E+03  0.28429356651E+03  0.77000000000E+02 0.  0.
   -5000001    1    1    2    0    0  0.46981691832E+02 -0.34198482329E+02  0.89761623566E+02  0.13176860258E+03  0.77000000000E+02 0.  0.
<mgrwt>
<rscale>  0 0.21336415E+03</rscale>
<asrwt>0</asrwt>
<pdfrwt beam="1">  1        2 0.42052774E-02 0.21336415E+03</pdfrwt>
<pdfrwt beam="2">  1       -2 0.55232180E-01 0.21336415E+03</pdfrwt>
<totfact> 0.60883668E+03</totfact>
</mgrwt>
</event>
<event>
 4    1  0.6919593E-004  0.2987710E+03  0.7818608E-02  0.1085857E+00
          2   -1    0    0  501    0  0.00000000000E+00  0.00000000000E+00  0.67202069405E+03  0.67202069405E+03  0.25500000000E-02 0.  1.
         -2   -1    0    0    0  501 -0.00000000000E+00 -0.00000000000E+00 -0.33207347857E+02  0.33207347955E+02  0.25500000000E-02 0. -1.
    5000001    1    1    2    0    0  0.11397127783E+03 -0.47399533333E+02  0.39948257723E+03  0.42514879447E+03  0.77000000000E+02 0.  0.
   -5000001    1    1    2    0    0 -0.11397127783E+03  0.47399533333E+02  0.23933076896E+03  0.28007924754E+03  0.77000000000E+02 0.  0.
<mgrwt>
<rscale>  0 0.29877098E+03</rscale>
<asrwt>0</asrwt>
<pdfrwt beam="1">  1        2 0.96002961E-01 0.29877098E+03</pdfrwt>
<pdfrwt beam="2">  1       -2 0.47439066E-02 0.29877098E+03</pdfrwt>
<totfact> 0.10214921E+04</totfact>
</mgrwt>
</event>
<event>
 4    1  0.6919593E-004  0.2402502E+03  0.7818608E-02  0.1119626E+00
         -2   -1    0    0    0  501 -0.00000000000E+00  0.00000000000E+00  0.29136735955E+02  0.29136736067E+02  0.25500000000E-02 0. -1.
          2   -1    0    0  501    0  0.00000000000E+00 -0.00000000000E+00 -0.49525232513E+03  0.49525232514E+03  0.25500000000E-02 0.  1.
    5000001    1    1    2    0    0  0.29217863970E+02 -0.75863232845E+02 -0.13811444448E+03  0.17780189382E+03  0.77000000000E+02 0.  0.
   -5000001    1    1    2    0    0 -0.29217863970E+02  0.75863232845E+02 -0.32800114470E+03  0.34658716738E+03  0.77000000000E+02 0.  0.
<mgrwt>
<rscale>  0 0.24025017E+03</rscale>
<asrwt>0</asrwt>
<pdfrwt beam="1">  1        2 0.70750327E-01 0.24025017E+03</pdfrwt>
<pdfrwt beam="2">  1       -2 0.41623912E-02 0.24025017E+03</pdfrwt>
<totfact> 0.17421904E+04</totfact>
</mgrwt>
</event>
<event>
 4    1  0.6919593E-004  0.5249655E+03  0.7818608E-02  0.1007460E+00
          2   -1    0    0  501    0  0.00000000000E+00  0.00000000000E+00  0.68220378985E+03  0.68220378985E+03  0.25500000000E-02 0.  1.
         -2   -1    0    0    0  501 -0.00000000000E+00 -0.00000000000E+00 -0.10099210372E+03  0.10099210375E+03  0.25500000000E-02 0. -1.
    5000001    1    1    2    0    0  0.20741285454E+03 -0.48153723531E+02  0.48869351378E+03  0.53859931649E+03  0.77000000000E+02 0.  0.
   -5000001    1    1    2    0    0 -0.20741285454E+03  0.48153723531E+02  0.92518172355E+02  0.24459657711E+03  0.77000000000E+02 0.  0.
<mgrwt>
<rscale>  0 0.52496551E+03</rscale>
<asrwt>0</asrwt>
<pdfrwt beam="1">  1        2 0.97457682E-01 0.52496551E+03</pdfrwt>
<pdfrwt beam="2">  1       -2 0.14427444E-01 0.52496551E+03</pdfrwt>
<totfact> 0.17360598E+03</totfact>
</mgrwt>
</event>
<event>
 4    1  0.6919593E-004  0.2214618E+03  0.7818608E-02  0.1132798E+00
         -2   -1    0    0    0  501 -0.00000000000E+00  0.00000000000E+00  0.30453380687E+02  0.30453380794E+02  0.25500000000E-02 0. -1.
          2   -1    0    0  501    0  0.00000000000E+00 -0.00000000000E+00 -0.40262617978E+03  0.40262617979E+03  0.25500000000E-02 0.  1.
    5000001    1    1    2    0    0 -0.10243353924E+02 -0.77673654900E+02 -0.21333847401E+03  0.23995922041E+03  0.77000000000E+02 0.  0.
   -5000001    1    1    2    0    0  0.10243353924E+02  0.77673654900E+02 -0.15883432509E+03  0.19312034018E+03  0.77000000000E+02 0.  0.
<mgrwt>
<rscale>  0 0.22146177E+03</rscale>
<asrwt>0</asrwt>
<pdfrwt beam="1">  1        2 0.57518023E-01 0.22146177E+03</pdfrwt>
<pdfrwt beam="2">  1       -2 0.43504832E-02 0.22146177E+03</pdfrwt>
<totfact> 0.20313547E+04</totfact>
</mgrwt>
</event>
<event>
 4    1  0.6919593E-004  0.2434936E+03  0.7818608E-02  0.1117487E+00
         -2   -1    0    0    0  501 -0.00000000000E+00  0.00000000000E+00  0.38665488350E+02  0.38665488434E+02  0.25500000000E-02 0. -1.
          2   -1    0    0  501    0  0.00000000000E+00 -0.00000000000E+00 -0.38334672772E+03  0.38334672773E+03  0.25500000000E-02 0.  1.
    5000001    1    1    2    0    0  0.24799660975E+01  0.94146785663E+02 -0.18074614823E+03  0.21787137853E+03  0.77000000000E+02 0.  0.
   -5000001    1    1    2    0    0 -0.24799660975E+01 -0.94146785663E+02 -0.16393509114E+03  0.20414083764E+03  0.77000000000E+02 0.  0.
<mgrwt>
<rscale>  0 0.24349364E+03</rscale>
<asrwt>0</asrwt>
<pdfrwt beam="1">  1        2 0.54763816E-01 0.24349364E+03</pdfrwt>
<pdfrwt beam="2">  1       -2 0.55236414E-02 0.24349364E+03</pdfrwt>
<totfact> 0.15007171E+04</totfact>
</mgrwt>
</event>
<event>
 4    1  0.6919593E-004  0.2169883E+03  0.7818608E-02  0.1136149E+00
          2   -1    0    0  501    0  0.00000000000E+00  0.00000000000E+00  0.27230074517E+03  0.27230074518E+03  0.25500000000E-02 0.  1.
         -2   -1    0    0    0  501 -0.00000000000E+00 -0.00000000000E+00 -0.43227869916E+02  0.43227869991E+02  0.25500000000E-02 0. -1.
    5000001    1    1    2    0    0 -0.35962937433E+02  0.67248899723E+02  0.12198432671E+03  0.16317145383E+03  0.77000000000E+02 0.  0.
   -5000001    1    1    2    0    0  0.35962937433E+02 -0.67248899723E+02  0.10708854854E+03  0.15235716134E+03  0.77000000000E+02 0.  0.
<mgrwt>
<rscale>  0 0.21698831E+03</rscale>
<asrwt>0</asrwt>
<pdfrwt beam="1">  1        2 0.38900107E-01 0.21698831E+03</pdfrwt>
<pdfrwt beam="2">  1       -2 0.61754099E-02 0.21698831E+03</pdfrwt>
<totfact> 0.18137721E+04</totfact>
</mgrwt>
</event>
<event>
 4    1  0.6919593E-004  0.2977953E+03  0.7818608E-02  0.1086348E+00
          2   -1    0    0  501    0  0.00000000000E+00  0.00000000000E+00  0.70066515031E+03  0.70066515032E+03  0.25500000000E-02 0.  1.
         -2   -1    0    0    0  501 -0.00000000000E+00 -0.00000000000E+00 -0.31642082548E+02  0.31642082651E+02  0.25500000000E-02 0. -1.
    5000001    1    1    2    0    0 -0.11913284379E+03 -0.38216399686E+02  0.27486250987E+03  0.31165931240E+03  0.77000000000E+02 0.  0.
   -5000001    1    1    2    0    0  0.11913284379E+03  0.38216399686E+02  0.39416055790E+03  0.42064792057E+03  0.77000000000E+02 0.  0.
<mgrwt>
<rscale>  0 0.29779526E+03</rscale>
<asrwt>0</asrwt>
<pdfrwt beam="1">  1        2 0.10009503E+00 0.29779526E+03</pdfrwt>
<pdfrwt beam="2">  1       -2 0.45202971E-02 0.29779526E+03</pdfrwt>
<totfact> 0.10460192E+04</totfact>
</mgrwt>
</event>
<event>
 4    1  0.6919593E-004  0.3101785E+03  0.7818608E-02  0.1080260E+00
         -2   -1    0    0    0  501 -0.00000000000E+00  0.00000000000E+00  0.29590263104E+02  0.29590263213E+02  0.25500000000E-02 0. -1.
          2   -1    0    0  501    0  0.00000000000E+00 -0.00000000000E+00 -0.81285770978E+03  0.81285770979E+03  0.25500000000E-02 0.  1.
    5000001    1    1    2    0    0 -0.52956342797E+02 -0.94447886706E+02 -0.17437163912E+03  0.21922419136E+03  0.77000000000E+02 0.  0.
   -5000001    1    1    2    0    0  0.52956342797E+02  0.94447886706E+02 -0.60889580756E+03  0.62322378165E+03  0.77000000000E+02 0.  0.
<mgrwt>
<rscale>  0 0.31017849E+03</rscale>
<asrwt>0</asrwt>
<pdfrwt beam="1">  1        2 0.11612252E+00 0.31017849E+03</pdfrwt>
<pdfrwt beam="2">  1       -2 0.42271810E-02 0.31017849E+03</pdfrwt>
<totfact> 0.96725019E+03</totfact>
</mgrwt>
</event>
<event>
 4    1  0.6919593E-004  0.2412663E+03  0.7818608E-02  0.1118952E+00
          2   -1    0    0  501    0  0.00000000000E+00  0.00000000000E+00  0.61541696767E+02  0.61541696820E+02  0.25500000000E-02 0.  1.
         -2   -1    0    0    0  501 -0.00000000000E+00 -0.00000000000E+00 -0.23646340210E+03  0.23646340212E+03  0.25500000000E-02 0. -1.
    5000001    1    1    2    0    0 -0.72576105246E+02  0.50374006634E+02 -0.52122718873E+02  0.12825992913E+03  0.77000000000E+02 0.  0.
   -5000001    1    1    2    0    0  0.72576105246E+02 -0.50374006634E+02 -0.12279898646E+03  0.16974516981E+03  0.77000000000E+02 0.  0.
<mgrwt>
<rscale>  0 0.24126632E+03</rscale>
<asrwt>0</asrwt>
<pdfrwt beam="1">  1        2 0.87916710E-02 0.24126632E+03</pdfrwt>
<pdfrwt beam="2">  1       -2 0.33780486E-01 0.24126632E+03</pdfrwt>
<totfact> 0.60994028E+03</totfact>
</mgrwt>
</event>
<event>
 4    1  0.6919593E-004  0.3086925E+03  0.7818608E-02  0.1080974E+00
         -2   -1    0    0    0  501 -0.00000000000E+00  0.00000000000E+00  0.33368549408E+02  0.33368549505E+02  0.25500000000E-02 0. -1.
          2   -1    0    0  501    0  0.00000000000E+00 -0.00000000000E+00 -0.71392876264E+03  0.71392876264E+03  0.25500000000E-02 0.  1.
    5000001    1    1    2    0    0  0.62991215176E+02  0.39535950546E+02 -0.60944935260E+03  0.61877984612E+03  0.77000000000E+02 0.  0.
   -5000001    1    1    2    0    0 -0.62991215176E+02 -0.39535950546E+02 -0.71110860624E+02  0.12851746603E+03  0.77000000000E+02 0.  0.
<mgrwt>
<rscale>  0 0.30869252E+03</rscale>
<asrwt>0</asrwt>
<pdfrwt beam="1">  1        2 0.10198981E+00 0.30869252E+03</pdfrwt>
<pdfrwt beam="2">  1       -2 0.47669361E-02 0.30869252E+03</pdfrwt>
<totfact> 0.94472996E+03</totfact>
</mgrwt>
</event>
<event>
 4    1  0.6919593E-004  0.3824197E+03  0.7818608E-02  0.1050043E+00
         -2   -1    0    0    0  501 -0.00000000000E+00  0.00000000000E+00  0.24069581052E+03  0.24069581053E+03  0.25500000000E-02 0. -1.
          2   -1    0    0  501    0  0.00000000000E+00 -0.00000000000E+00 -0.15189796729E+03  0.15189796731E+03  0.25500000000E-02 0.  1.
    5000001    1    1    2    0    0 -0.34856581200E+02  0.17113061642E+03  0.32624916654E+02  0.19363381501E+03  0.77000000000E+02 0.  0.
   -5000001    1    1    2    0    0  0.34856581200E+02 -0.17113061642E+03  0.56172926571E+02  0.19895996283E+03  0.77000000000E+02 0.  0.
<mgrwt>
<rscale>  0 0.38241969E+03</rscale>
<asrwt>0</asrwt>
<pdfrwt beam="1">  1        2 0.21699710E-01 0.38241969E+03</pdfrwt>
<pdfrwt beam="2">  1       -2 0.34385116E-01 0.38241969E+03</pdfrwt>
<totfact> 0.20213815E+03</totfact>
</mgrwt>
</event>
<event>
 4    1  0.6919593E-004  0.2527124E+03  0.7818608E-02  0.1111603E+00
         -2   -1    0    0    0  501 -0.00000000000E+00  0.00000000000E+00  0.76031522433E+02  0.76031522476E+02  0.25500000000E-02 0. -1.
          2   -1    0    0  501    0  0.00000000000E+00 -0.00000000000E+00 -0.20999040982E+03  0.20999040983E+03  0.25500000000E-02 0.  1.
    5000001    1    1    2    0    0 -0.91682574709E+02  0.31730236556E+02 -0.95260790744E+02  0.15625658601E+03  0.77000000000E+02 0.  0.
   -5000001    1    1    2    0    0  0.91682574709E+02 -0.31730236556E+02 -0.38698096639E+02  0.12976534630E+03  0.77000000000E+02 0.  0.
<mgrwt>
<rscale>  0 0.25271241E+03</rscale>
<asrwt>0</asrwt>
<pdfrwt beam="1">  1        2 0.29998630E-01 0.25271241E+03</pdfrwt>
<pdfrwt beam="2">  1       -2 0.10861646E-01 0.25271241E+03</pdfrwt>
<totfact> 0.10040732E+04</totfact>
</mgrwt>
</event>
<event>
 4    1  0.6919593E-004  0.2879606E+03  0.7818608E-02  0.1091419E+00
         -2   -1    0    0    0  501 -0.00000000000E+00  0.00000000000E+00  0.37327804145E+02  0.37327804232E+02  0.25500000000E-02 0. -1.
          2   -1    0    0  501    0  0.00000000000E+00 -0.00000000000E+00 -0.55535888644E+03  0.55535888645E+03  0.25500000000E-02 0.  1.
    5000001    1    1    2    0    0  0.23828462279E+02  0.11575299168E+03 -0.19954836021E+03  0.24436673006E+03  0.77000000000E+02 0.  0.
   -5000001    1    1    2    0    0 -0.23828462279E+02 -0.11575299168E+03 -0.31848272209E+03  0.34831996062E+03  0.77000000000E+02 0.  0.
<mgrwt>
<rscale>  0 0.28796061E+03</rscale>
<asrwt>0</asrwt>
<pdfrwt beam="1">  1        2 0.79336979E-01 0.28796061E+03</pdfrwt>
<pdfrwt beam="2">  1       -2 0.53325438E-02 0.28796061E+03</pdfrwt>
<totfact> 0.10630375E+04</totfact>
</mgrwt>
</event>
<event>
 4    1  0.6919593E-004  0.1789763E+03  0.7818608E-02  0.1168798E+00
         -2   -1    0    0    0  501 -0.00000000000E+00  0.00000000000E+00  0.31595638459E+02  0.31595638562E+02  0.25500000000E-02 0. -1.
          2   -1    0    0  501    0  0.00000000000E+00 -0.00000000000E+00 -0.25345669082E+03  0.25345669084E+03  0.25500000000E-02 0.  1.
    5000001    1    1    2    0    0  0.15829517784E+02 -0.28944884910E+02 -0.16106198141E+03  0.18154432476E+03  0.77000000000E+02 0.  0.
   -5000001    1    1    2    0    0 -0.15829517784E+02  0.28944884910E+02 -0.60799070954E+02  0.10350800464E+03  0.77000000000E+02 0.  0.
<mgrwt>
<rscale>  0 0.17897627E+03</rscale>
<asrwt>0</asrwt>
<pdfrwt beam="1">  1        2 0.36208098E-01 0.17897627E+03</pdfrwt>
<pdfrwt beam="2">  1       -2 0.45136628E-02 0.17897627E+03</pdfrwt>
<totfact> 0.31029896E+04</totfact>
</mgrwt>
</event>
<event>
 4    1  0.6919593E-004  0.2320351E+03  0.7818608E-02  0.1125215E+00
          2   -1    0    0  501    0  0.00000000000E+00  0.00000000000E+00  0.62356828091E+03  0.62356828092E+03  0.25500000000E-02 0.  1.
         -2   -1    0    0    0  501 -0.00000000000E+00 -0.00000000000E+00 -0.21585570906E+02  0.21585571057E+02  0.25500000000E-02 0. -1.
    5000001    1    1    2    0    0  0.32831172058E+02 -0.44387055967E+02  0.11482853042E+03  0.14887138071E+03  0.77000000000E+02 0.  0.
   -5000001    1    1    2    0    0 -0.32831172058E+02  0.44387055967E+02  0.48715417959E+03  0.49628247126E+03  0.77000000000E+02 0.  0.
<mgrwt>
<rscale>  0 0.23203515E+03</rscale>
<asrwt>0</asrwt>
<pdfrwt beam="1">  1        2 0.89081190E-01 0.23203515E+03</pdfrwt>
<pdfrwt beam="2">  1       -2 0.30836528E-02 0.23203515E+03</pdfrwt>
<totfact> 0.21018091E+04</totfact>
</mgrwt>
</event>
<event>
 4    1  0.6919593E-004  0.4429603E+03  0.7818608E-02  0.1029842E+00
          2   -1    0    0  501    0  0.00000000000E+00  0.00000000000E+00  0.10401701576E+04  0.10401701576E+04  0.25500000000E-02 0.  1.
         -2   -1    0    0    0  501 -0.00000000000E+00 -0.00000000000E+00 -0.47159065755E+02  0.47159065824E+02  0.25500000000E-02 0. -1.
    5000001    1    1    2    0    0  0.11807563012E+03 -0.12186802285E+03  0.20265179381E+03  0.27530059745E+03  0.77000000000E+02 0.  0.
   -5000001    1    1    2    0    0 -0.11807563012E+03  0.12186802285E+03  0.79035929802E+03  0.81202862597E+03  0.77000000000E+02 0.  0.
<mgrwt>
<rscale>  0 0.44296028E+03</rscale>
<asrwt>0</asrwt>
<pdfrwt beam="1">  1        2 0.14859574E+00 0.44296028E+03</pdfrwt>
<pdfrwt beam="2">  1       -2 0.67370092E-02 0.44296028E+03</pdfrwt>
<totfact> 0.34275313E+03</totfact>
</mgrwt>
</event>
<event>
 4    1  0.6919593E-004  0.2085169E+03  0.7818608E-02  0.1142746E+00
         -2   -1    0    0    0  501 -0.00000000000E+00  0.00000000000E+00  0.48180720041E+01  0.48180726789E+01  0.25500000000E-02 0. -1.
          2   -1    0    0  501    0  0.00000000000E+00 -0.00000000000E+00 -0.22560529026E+04  0.22560529026E+04  0.25500000000E-02 0.  1.
    5000001    1    1    2    0    0 -0.54884945415E+02 -0.43600239807E+02 -0.11824641678E+04  0.11870399514E+04  0.77000000000E+02 0.  0.
   -5000001    1    1    2    0    0  0.54884945415E+02  0.43600239807E+02 -0.10687706628E+04  0.10738310239E+04  0.77000000000E+02 0.  0.
<mgrwt>
<rscale>  0 0.20851692E+03</rscale>
<asrwt>0</asrwt>
<pdfrwt beam="1">  1        2 0.32229260E+00 0.20851692E+03</pdfrwt>
<pdfrwt beam="2">  1       -2 0.68829749E-03 0.20851692E+03</pdfrwt>
<totfact> 0.24009633E+04</totfact>
</mgrwt>
</event>
<event>
 4    1  0.6919593E-004  0.5160761E+03  0.7818608E-02  0.1009666E+00
         -2   -1    0    0    0  501 -0.00000000000E+00  0.00000000000E+00  0.68664755767E+02  0.68664755815E+02  0.25500000000E-02 0. -1.
          2   -1    0    0  501    0  0.00000000000E+00 -0.00000000000E+00 -0.96969170922E+03  0.96969170922E+03  0.25500000000E-02 0.  1.
    5000001    1    1    2    0    0 -0.21943891448E+03  0.81135845882E+02 -0.60529775380E+03  0.65349126500E+03  0.77000000000E+02 0.  0.
   -5000001    1    1    2    0    0  0.21943891448E+03 -0.81135845882E+02 -0.29572919965E+03  0.38486520004E+03  0.77000000000E+02 0.  0.
<mgrwt>
<rscale>  0 0.51607614E+03</rscale>
<asrwt>0</asrwt>
<pdfrwt beam="1">  1        2 0.13852738E+00 0.51607614E+03</pdfrwt>
<pdfrwt beam="2">  1       -2 0.98092514E-02 0.51607614E+03</pdfrwt>
<totfact> 0.20820767E+03</totfact>
</mgrwt>
</event>
<event>
 4    1  0.6919593E-004  0.2475361E+03  0.7818608E-02  0.1114872E+00
         -2   -1    0    0    0  501 -0.00000000000E+00  0.00000000000E+00  0.51006695301E+02  0.51006695364E+02  0.25500000000E-02 0. -1.
          2   -1    0    0  501    0  0.00000000000E+00 -0.00000000000E+00 -0.30032393105E+03  0.30032393106E+03  0.25500000000E-02 0.  1.
    5000001    1    1    2    0    0  0.24782249112E+02  0.91506083647E+02 -0.15311599179E+03  0.19585972061E+03  0.77000000000E+02 0.  0.
   -5000001    1    1    2    0    0 -0.24782249112E+02 -0.91506083647E+02 -0.96201243958E+02  0.15547090581E+03  0.77000000000E+02 0.  0.
<mgrwt>
<rscale>  0 0.24753611E+03</rscale>
<asrwt>0</asrwt>
<pdfrwt beam="1">  1        2 0.42903418E-01 0.24753611E+03</pdfrwt>
<pdfrwt beam="2">  1       -2 0.72866709E-02 0.24753611E+03</pdfrwt>
<totfact> 0.12755059E+04</totfact>
</mgrwt>
</event>
<event>
 4    1  0.6919593E-004  0.2312233E+03  0.7818608E-02  0.1125782E+00
          2   -1    0    0  501    0  0.00000000000E+00  0.00000000000E+00  0.13398727228E+03  0.13398727231E+03  0.25500000000E-02 0.  1.
         -2   -1    0    0    0  501 -0.00000000000E+00 -0.00000000000E+00 -0.99756112513E+02  0.99756112545E+02  0.25500000000E-02 0. -1.
    5000001    1    1    2    0    0 -0.81622982638E+02 -0.42595201002E+00  0.45249769203E+02  0.12099187718E+03  0.77000000000E+02 0.  0.
   -5000001    1    1    2    0    0  0.81622982638E+02  0.42595201002E+00 -0.11018609430E+02  0.11275150768E+03  0.77000000000E+02 0.  0.
<mgrwt>
<rscale>  0 0.23122326E+03</rscale>
<asrwt>0</asrwt>
<pdfrwt beam="1">  1        2 0.19141039E-01 0.23122326E+03</pdfrwt>
<pdfrwt beam="2">  1       -2 0.14250873E-01 0.23122326E+03</pdfrwt>
<totfact> 0.10655184E+04</totfact>
</mgrwt>
</event>
<event>
 4    1  0.6919593E-004  0.3422259E+03  0.7818608E-02  0.1065852E+00
          2   -1    0    0  501    0  0.00000000000E+00  0.00000000000E+00  0.10741520665E+04  0.10741520665E+04  0.25500000000E-02 0.  1.
         -2   -1    0    0    0  501 -0.00000000000E+00 -0.00000000000E+00 -0.27258371690E+02  0.27258371809E+02  0.25500000000E-02 0. -1.
    5000001    1    1    2    0    0  0.12001597712E+03 -0.94497962220E+02  0.53669181755E+03  0.56329460023E+03  0.77000000000E+02 0.  0.
   -5000001    1    1    2    0    0 -0.12001597712E+03  0.94497962220E+02  0.51020187723E+03  0.53811583805E+03  0.77000000000E+02 0.  0.
<mgrwt>
<rscale>  0 0.34222587E+03</rscale>
<asrwt>0</asrwt>
<pdfrwt beam="1">  1        2 0.15345034E+00 0.34222587E+03</pdfrwt>
<pdfrwt beam="2">  1       -2 0.38940520E-02 0.34222587E+03</pdfrwt>
<totfact> 0.75786023E+03</totfact>
</mgrwt>
</event>
<event>
 4    1  0.6919593E-004  0.3771298E+03  0.7818608E-02  0.1052000E+00
         -2   -1    0    0    0  501 -0.00000000000E+00  0.00000000000E+00  0.94638433981E+01  0.94638437416E+01  0.25500000000E-02 0. -1.
          2   -1    0    0  501    0  0.00000000000E+00 -0.00000000000E+00 -0.37571117110E+04  0.37571117110E+04  0.25500000000E-02 0.  1.
    5000001    1    1    2    0    0  0.51212077875E+01 -0.13938504315E+03 -0.86645908286E+03  0.88098510731E+03  0.77000000000E+02 0.  0.
   -5000001    1    1    2    0    0 -0.51212077875E+01  0.13938504315E+03 -0.28811887847E+04  0.28855904474E+04  0.77000000000E+02 0.  0.
<mgrwt>
<rscale>  0 0.37712978E+03</rscale>
<asrwt>0</asrwt>
<pdfrwt beam="1">  1        2 0.53672929E+00 0.37712978E+03</pdfrwt>
<pdfrwt beam="2">  1       -2 0.13519801E-02 0.37712978E+03</pdfrwt>
<totfact> 0.13942249E+03</totfact>
</mgrwt>
</event>
<event>
 4    1  0.6919593E-004  0.1864856E+03  0.7818608E-02  0.1161670E+00
         -2   -1    0    0    0  501 -0.00000000000E+00  0.00000000000E+00  0.66305790396E+01  0.66305795299E+01  0.25500000000E-02 0. -1.
          2   -1    0    0  501    0  0.00000000000E+00 -0.00000000000E+00 -0.13112303937E+04  0.13112303937E+04  0.25500000000E-02 0.  1.
    5000001    1    1    2    0    0 -0.26008730912E+01 -0.52517794581E+02 -0.65638280021E+03  0.66297229482E+03  0.77000000000E+02 0.  0.
   -5000001    1    1    2    0    0  0.26008730912E+01  0.52517794581E+02 -0.64821701444E+03  0.65488867840E+03  0.77000000000E+02 0.  0.
<mgrwt>
<rscale>  0 0.18648557E+03</rscale>
<asrwt>0</asrwt>
<pdfrwt beam="1">  1        2 0.18731846E+00 0.18648557E+03</pdfrwt>
<pdfrwt beam="2">  1       -2 0.94722645E-03 0.18648557E+03</pdfrwt>
<totfact> 0.43780745E+04</totfact>
</mgrwt>
</event>
<event>
 4    1  0.6919593E-004  0.2296300E+03  0.7818608E-02  0.1126900E+00
         -2   -1    0    0    0  501 -0.00000000000E+00  0.00000000000E+00  0.71319139281E+01  0.71319143840E+01  0.25500000000E-02 0. -1.
          2   -1    0    0  501    0  0.00000000000E+00 -0.00000000000E+00 -0.18483795111E+04  0.18483795111E+04  0.25500000000E-02 0.  1.
    5000001    1    1    2    0    0 -0.11652470887E+02  0.60881730828E+02 -0.13925601513E+04  0.13960641605E+04  0.77000000000E+02 0.  0.
   -5000001    1    1    2    0    0  0.11652470887E+02 -0.60881730828E+02 -0.44868744591E+03  0.45944726503E+03  0.77000000000E+02 0.  0.
<mgrwt>
<rscale>  0 0.22963000E+03</rscale>
<asrwt>0</asrwt>
<pdfrwt beam="1">  1        2 0.26405391E+00 0.22963000E+03</pdfrwt>
<pdfrwt beam="2">  1       -2 0.10188461E-02 0.22963000E+03</pdfrwt>
<totfact> 0.21574931E+04</totfact>
</mgrwt>
</event>
<event>
 4    1  0.6919593E-004  0.2537719E+03  0.7818608E-02  0.1110944E+00
          2   -1    0    0  501    0  0.00000000000E+00  0.00000000000E+00  0.36456719440E+04  0.36456719440E+04  0.25500000000E-02 0.  1.
         -2   -1    0    0    0  501 -0.00000000000E+00 -0.00000000000E+00 -0.44162065160E+01  0.44162072522E+01  0.25500000000E-02 0. -1.
    5000001    1    1    2    0    0 -0.25949832665E+02 -0.89981672470E+02  0.12822705641E+04  0.12879894777E+04  0.77000000000E+02 0.  0.
   -5000001    1    1    2    0    0  0.25949832665E+02  0.89981672470E+02  0.23589851734E+04  0.23620986735E+04  0.77000000000E+02 0.  0.
<mgrwt>
<rscale>  0 0.25377188E+03</rscale>
<asrwt>0</asrwt>
<pdfrwt beam="1">  1        2 0.52081290E+00 0.25377188E+03</pdfrwt>
<pdfrwt beam="2">  1       -2 0.63088352E-03 0.25377188E+03</pdfrwt>
<totfact> 0.50164430E+03</totfact>
</mgrwt>
</event>
<event>
 4    1  0.6919593E-004  0.2443081E+03  0.7818608E-02  0.1116956E+00
          2   -1    0    0  501    0  0.00000000000E+00  0.00000000000E+00  0.38891333682E+03  0.38891333683E+03  0.25500000000E-02 0.  1.
         -2   -1    0    0    0  501 -0.00000000000E+00 -0.00000000000E+00 -0.38367443936E+02  0.38367444021E+02  0.25500000000E-02 0. -1.
    5000001    1    1    2    0    0  0.80881160888E+02 -0.37695276700E+02  0.23140050052E+03  0.25968805847E+03  0.77000000000E+02 0.  0.
   -5000001    1    1    2    0    0 -0.80881160888E+02  0.37695276700E+02  0.11914539236E+03  0.16759272238E+03  0.77000000000E+02 0.  0.
<mgrwt>
<rscale>  0 0.24430809E+03</rscale>
<asrwt>0</asrwt>
<pdfrwt beam="1">  1        2 0.55559046E-01 0.24430809E+03</pdfrwt>
<pdfrwt beam="2">  1       -2 0.54810636E-02 0.24430809E+03</pdfrwt>
<totfact> 0.14953763E+04</totfact>
</mgrwt>
</event>
<event>
 4    1  0.6919593E-004  0.1979627E+03  0.7818608E-02  0.1151469E+00
          2   -1    0    0  501    0  0.00000000000E+00  0.00000000000E+00  0.11343064817E+03  0.11343064820E+03  0.25500000000E-02 0.  1.
         -2   -1    0    0    0  501 -0.00000000000E+00 -0.00000000000E+00 -0.86372630340E+02  0.86372630378E+02  0.25500000000E-02 0. -1.
    5000001    1    1    2    0    0  0.61939432345E+02  0.16661349422E+01  0.80905731013E+01  0.99165148404E+02  0.77000000000E+02 0.  0.
   -5000001    1    1    2    0    0 -0.61939432345E+02 -0.16661349422E+01  0.18967444727E+02  0.10063813017E+03  0.77000000000E+02 0.  0.
<mgrwt>
<rscale>  0 0.19796266E+03</rscale>
<asrwt>0</asrwt>
<pdfrwt beam="1">  1        2 0.16204378E-01 0.19796266E+03</pdfrwt>
<pdfrwt beam="2">  1       -2 0.12338947E-01 0.19796266E+03</pdfrwt>
<totfact> 0.16163435E+04</totfact>
</mgrwt>
</event>
<event>
 4    1  0.6919593E-004  0.2043761E+03  0.7818608E-02  0.1146098E+00
          2   -1    0    0  501    0  0.00000000000E+00  0.00000000000E+00  0.21427522973E+03  0.21427522975E+03  0.25500000000E-02 0.  1.
         -2   -1    0    0    0  501 -0.00000000000E+00 -0.00000000000E+00 -0.48733594226E+02  0.48733594293E+02  0.25500000000E-02 0. -1.
    5000001    1    1    2    0    0 -0.51491188227E+02 -0.32760423720E+02  0.11891409258E+03  0.15425352262E+03  0.77000000000E+02 0.  0.
   -5000001    1    1    2    0    0  0.51491188227E+02  0.32760423720E+02  0.46627542928E+02  0.10875530142E+03  0.77000000000E+02 0.  0.
<mgrwt>
<rscale>  0 0.20437614E+03</rscale>
<asrwt>0</asrwt>
<pdfrwt beam="1">  1        2 0.30610747E-01 0.20437614E+03</pdfrwt>
<pdfrwt beam="2">  1       -2 0.69619420E-02 0.20437614E+03</pdfrwt>
<totfact> 0.19470690E+04</totfact>
</mgrwt>
</event>
<event>
 4    1  0.6919593E-004  0.9120205E+03  0.7818608E-02  0.9410679E-01
          2   -1    0    0  501    0  0.00000000000E+00  0.00000000000E+00  0.17031253261E+03  0.17031253263E+03  0.25500000000E-02 0.  1.
         -2   -1    0    0    0  501 -0.00000000000E+00 -0.00000000000E+00 -0.12209633670E+04  0.12209633670E+04  0.25500000000E-02 0. -1.
    5000001    1    1    2    0    0  0.42585876088E+03 -0.13271827973E+03 -0.44112545536E+03  0.63205260331E+03  0.77000000000E+02 0.  0.
   -5000001    1    1    2    0    0 -0.42585876088E+03  0.13271827973E+03 -0.60952537908E+03  0.75922329635E+03  0.77000000000E+02 0.  0.
<mgrwt>
<rscale>  0 0.91202053E+03</rscale>
<asrwt>0</asrwt>
<pdfrwt beam="1">  1        2 0.24330363E-01 0.91202053E+03</pdfrwt>
<pdfrwt beam="2">  1       -2 0.17442333E+00 0.91202053E+03</pdfrwt>
<totfact> 0.45046432E+01</totfact>
</mgrwt>
</event>
<event>
 4    1  0.6919593E-004  0.2300396E+03  0.7818608E-02  0.1126612E+00
         -2   -1    0    0    0  501 -0.00000000000E+00  0.00000000000E+00  0.46628759729E+03  0.46628759729E+03  0.25500000000E-02 0. -1.
          2   -1    0    0  501    0  0.00000000000E+00 -0.00000000000E+00 -0.28372090272E+02  0.28372090386E+02  0.25500000000E-02 0.  1.
    5000001    1    1    2    0    0 -0.73825331169E+02 -0.42387903020E+02  0.20320892474E+03  0.23338761951E+03  0.77000000000E+02 0.  0.
   -5000001    1    1    2    0    0  0.73825331169E+02  0.42387903020E+02  0.23470658227E+03  0.26127206817E+03  0.77000000000E+02 0.  0.
<mgrwt>
<rscale>  0 0.23003960E+03</rscale>
<asrwt>0</asrwt>
<pdfrwt beam="1">  1        2 0.40531559E-02 0.23003960E+03</pdfrwt>
<pdfrwt beam="2">  1       -2 0.66612512E-01 0.23003960E+03</pdfrwt>
<totfact> 0.43572310E+03</totfact>
</mgrwt>
</event>
<event>
 4    1  0.6919593E-004  0.2025516E+03  0.7818608E-02  0.1147604E+00
          2   -1    0    0  501    0  0.00000000000E+00  0.00000000000E+00  0.14162756959E+04  0.14162756959E+04  0.25500000000E-02 0.  1.
         -2   -1    0    0    0  501 -0.00000000000E+00 -0.00000000000E+00 -0.72420830271E+01  0.72420834761E+01  0.25500000000E-02 0. -1.
    5000001    1    1    2    0    0 -0.38048997807E+02  0.51017643380E+02  0.58749383804E+03  0.59592661957E+03  0.77000000000E+02 0.  0.
   -5000001    1    1    2    0    0  0.38048997807E+02 -0.51017643380E+02  0.82153977482E+03  0.82759115980E+03  0.77000000000E+02 0.  0.
<mgrwt>
<rscale>  0 0.20255159E+03</rscale>
<asrwt>0</asrwt>
<pdfrwt beam="1">  1        2 0.20232525E+00 0.20255159E+03</pdfrwt>
<pdfrwt beam="2">  1       -2 0.10345826E-02 0.20255159E+03</pdfrwt>
<totfact> 0.34255475E+04</totfact>
</mgrwt>
</event>
<event>
 4    1  0.6919593E-004  0.3145930E+03  0.7818608E-02  0.1078165E+00
         -2   -1    0    0    0  501 -0.00000000000E+00  0.00000000000E+00  0.32724090008E+02  0.32724090108E+02  0.25500000000E-02 0. -1.
          2   -1    0    0  501    0  0.00000000000E+00 -0.00000000000E+00 -0.75608486406E+03  0.75608486407E+03  0.25500000000E-02 0.  1.
    5000001    1    1    2    0    0  0.75119557682E+02 -0.75338103304E+02 -0.14461451851E+03  0.19534875664E+03  0.77000000000E+02 0.  0.
   -5000001    1    1    2    0    0 -0.75119557682E+02  0.75338103304E+02 -0.57874625554E+03  0.59346019754E+03  0.77000000000E+02 0.  0.
<mgrwt>
<rscale>  0 0.31459300E+03</rscale>
<asrwt>0</asrwt>
<pdfrwt beam="1">  1        2 0.10801211E+00 0.31459300E+03</pdfrwt>
<pdfrwt beam="2">  1       -2 0.46748705E-02 0.31459300E+03</pdfrwt>
<totfact> 0.90844369E+03</totfact>
</mgrwt>
</event>
<event>
 4    1  0.6919593E-004  0.1935018E+03  0.7818608E-02  0.1155340E+00
         -2   -1    0    0    0  501 -0.00000000000E+00  0.00000000000E+00  0.10836468921E+02  0.10836469221E+02  0.25500000000E-02 0. -1.
          2   -1    0    0  501    0  0.00000000000E+00 -0.00000000000E+00 -0.86381809185E+03  0.86381809185E+03  0.25500000000E-02 0.  1.
    5000001    1    1    2    0    0 -0.31576916121E+02 -0.49305857552E+02 -0.41795167960E+03  0.42899973858E+03  0.77000000000E+02 0.  0.
   -5000001    1    1    2    0    0  0.31576916121E+02  0.49305857552E+02 -0.43502994332E+03  0.44565482249E+03  0.77000000000E+02 0.  0.
<mgrwt>
<rscale>  0 0.19350181E+03</rscale>
<asrwt>0</asrwt>
<pdfrwt beam="1">  1        2 0.12340254E+00 0.19350181E+03</pdfrwt>
<pdfrwt beam="2">  1       -2 0.15480676E-02 0.19350181E+03</pdfrwt>
<totfact> 0.38622084E+04</totfact>
</mgrwt>
</event>
<event>
 4    1  0.6919593E-004  0.7016849E+03  0.7818608E-02  0.9714355E-01
         -2   -1    0    0    0  501 -0.00000000000E+00  0.00000000000E+00  0.42674618769E+02  0.42674618845E+02  0.25500000000E-02 0. -1.
          2   -1    0    0  501    0  0.00000000000E+00 -0.00000000000E+00 -0.28843945228E+04  0.28843945228E+04  0.25500000000E-02 0.  1.
    5000001    1    1    2    0    0 -0.10641210261E+03  0.32464006906E+03 -0.15090281163E+04  0.15491318749E+04  0.77000000000E+02 0.  0.
   -5000001    1    1    2    0    0  0.10641210261E+03 -0.32464006906E+03 -0.13326917877E+04  0.13779372667E+04  0.77000000000E+02 0.  0.
<mgrwt>
<rscale>  0 0.70168493E+03</rscale>
<asrwt>0</asrwt>
<pdfrwt beam="1">  1        2 0.41205624E+00 0.70168493E+03</pdfrwt>
<pdfrwt beam="2">  1       -2 0.60963759E-02 0.70168493E+03</pdfrwt>
<totfact> 0.43432853E+02</totfact>
</mgrwt>
</event>
<event>
 4    1  0.6919593E-004  0.4454435E+03  0.7818608E-02  0.1029090E+00
         -2   -1    0    0    0  501 -0.00000000000E+00  0.00000000000E+00  0.24849267232E+03  0.24849267233E+03  0.25500000000E-02 0. -1.
          2   -1    0    0  501    0  0.00000000000E+00 -0.00000000000E+00 -0.19962350266E+03  0.19962350268E+03  0.25500000000E-02 0.  1.
    5000001    1    1    2    0    0 -0.12667119786E+02  0.15962506224E+03 -0.11066699205E+03  0.20932462719E+03  0.77000000000E+02 0.  0.
   -5000001    1    1    2    0    0  0.12667119786E+02 -0.15962506224E+03  0.15953616170E+03  0.23879154782E+03  0.77000000000E+02 0.  0.
<mgrwt>
<rscale>  0 0.44544350E+03</rscale>
<asrwt>0</asrwt>
<pdfrwt beam="1">  1        2 0.28517643E-01 0.44544350E+03</pdfrwt>
<pdfrwt beam="2">  1       -2 0.35498953E-01 0.44544350E+03</pdfrwt>
<totfact> 0.13996280E+03</totfact>
</mgrwt>
</event>
<event>
 4    1  0.6919593E-004  0.2545577E+03  0.7818608E-02  0.1110458E+00
          2   -1    0    0  501    0  0.00000000000E+00  0.00000000000E+00  0.16048285500E+03  0.16048285502E+03  0.25500000000E-02 0.  1.
         -2   -1    0    0    0  501 -0.00000000000E+00 -0.00000000000E+00 -0.10094475499E+03  0.10094475502E+03  0.25500000000E-02 0. -1.
    5000001    1    1    2    0    0 -0.97161957968E+02  0.25659329948E+02  0.16298071254E+02  0.12764589463E+03  0.77000000000E+02 0.  0.
   -5000001    1    1    2    0    0  0.97161957968E+02 -0.25659329948E+02  0.43240028756E+02  0.13378171540E+03  0.77000000000E+02 0.  0.
<mgrwt>
<rscale>  0 0.25455768E+03</rscale>
<asrwt>0</asrwt>
<pdfrwt beam="1">  1        2 0.22926122E-01 0.25455768E+03</pdfrwt>
<pdfrwt beam="2">  1       -2 0.14420679E-01 0.25455768E+03</pdfrwt>
<totfact> 0.85545457E+03</totfact>
</mgrwt>
</event>
<event>
 4    1  0.6919593E-004  0.2121905E+03  0.7818608E-02  0.1139843E+00
          2   -1    0    0  501    0  0.00000000000E+00  0.00000000000E+00  0.12079170605E+02  0.12079170874E+02  0.25500000000E-02 0.  1.
         -2   -1    0    0    0  501 -0.00000000000E+00 -0.00000000000E+00 -0.93186870651E+03  0.93186870651E+03  0.25500000000E-02 0. -1.
    5000001    1    1    2    0    0  0.55324521033E+02 -0.37779543222E+02 -0.33103119403E+03  0.34640835430E+03  0.77000000000E+02 0.  0.
   -5000001    1    1    2    0    0 -0.55324521033E+02  0.37779543222E+02 -0.58875834188E+03  0.59753952308E+03  0.77000000000E+02 0.  0.
<mgrwt>
<rscale>  0 0.21219049E+03</rscale>
<asrwt>0</asrwt>
<pdfrwt beam="1">  1        2 0.17255964E-02 0.21219049E+03</pdfrwt>
<pdfrwt beam="2">  1       -2 0.13312406E+00 0.21219049E+03</pdfrwt>
<totfact> 0.28461735E+03</totfact>
</mgrwt>
</event>
<event>
 4    1  0.6919593E-004  0.2953261E+03  0.7818608E-02  0.1087601E+00
          2   -1    0    0  501    0  0.00000000000E+00  0.00000000000E+00  0.35735694435E+03  0.35735694436E+03  0.25500000000E-02 0.  1.
         -2   -1    0    0    0  501 -0.00000000000E+00 -0.00000000000E+00 -0.61015688612E+02  0.61015688665E+02  0.25500000000E-02 0. -1.
    5000001    1    1    2    0    0  0.14635989854E+02  0.12196761549E+03  0.18786374552E+03  0.23730170313E+03  0.77000000000E+02 0.  0.
   -5000001    1    1    2    0    0 -0.14635989854E+02 -0.12196761549E+03  0.10847751022E+03  0.18107092989E+03  0.77000000000E+02 0.  0.
<mgrwt>
<rscale>  0 0.29532613E+03</rscale>
<asrwt>0</asrwt>
<pdfrwt beam="1">  1        2 0.51050993E-01 0.29532613E+03</pdfrwt>
<pdfrwt beam="2">  1       -2 0.87165267E-02 0.29532613E+03</pdfrwt>
<totfact> 0.80602100E+03</totfact>
</mgrwt>
</event>
<event>
 4    1  0.6919593E-004  0.3162358E+03  0.7818608E-02  0.1077395E+00
         -2   -1    0    0    0  501 -0.00000000000E+00  0.00000000000E+00  0.14936794307E+02  0.14936794525E+02  0.25500000000E-02 0. -1.
          2   -1    0    0  501    0  0.00000000000E+00 -0.00000000000E+00 -0.16738039286E+04  0.16738039286E+04  0.25500000000E-02 0.  1.
    5000001    1    1    2    0    0 -0.38532098099E+02 -0.13250714204E+03 -0.80047847694E+03  0.81592748288E+03  0.77000000000E+02 0.  0.
   -5000001    1    1    2    0    0  0.38532098099E+02  0.13250714204E+03 -0.85838865733E+03  0.87281324022E+03  0.77000000000E+02 0.  0.
<mgrwt>
<rscale>  0 0.31623577E+03</rscale>
<asrwt>0</asrwt>
<pdfrwt beam="1">  1        2 0.23911473E+00 0.31623577E+03</pdfrwt>
<pdfrwt beam="2">  1       -2 0.21338288E-02 0.31623577E+03</pdfrwt>
<totfact> 0.89943555E+03</totfact>
</mgrwt>
</event>
<event>
 4    1  0.6919593E-004  0.5611158E+03  0.7818608E-02  0.9989533E-01
         -2   -1    0    0    0  501 -0.00000000000E+00  0.00000000000E+00  0.27363906216E+03  0.27363906217E+03  0.25500000000E-02 0. -1.
          2   -1    0    0  501    0  0.00000000000E+00 -0.00000000000E+00 -0.28765166856E+03  0.28765166857E+03  0.25500000000E-02 0.  1.
    5000001    1    1    2    0    0 -0.19271899160E+03  0.14464319449E+03  0.11436358705E+03  0.27761536967E+03  0.77000000000E+02 0.  0.
   -5000001    1    1    2    0    0  0.19271899160E+03 -0.14464319449E+03 -0.12837619345E+03  0.28367536107E+03  0.77000000000E+02 0.  0.
<mgrwt>
<rscale>  0 0.56111579E+03</rscale>
<asrwt>0</asrwt>
<pdfrwt beam="1">  1        2 0.41093096E-01 0.56111579E+03</pdfrwt>
<pdfrwt beam="2">  1       -2 0.39091294E-01 0.56111579E+03</pdfrwt>
<totfact> 0.77665677E+02</totfact>
</mgrwt>
</event>
<event>
 4    1  0.6919593E-004  0.2119448E+03  0.7818608E-02  0.1140035E+00
         -2   -1    0    0    0  501 -0.00000000000E+00  0.00000000000E+00  0.15588419577E+03  0.15588419579E+03  0.25500000000E-02 0.  1.
          2   -1    0    0  501    0  0.00000000000E+00 -0.00000000000E+00 -0.72041588168E+02  0.72041588213E+02  0.25500000000E-02 0. -1.
    5000001    1    1    2    0    0 -0.46155118948E+02 -0.47920009293E+02  0.73723442959E+02  0.12566132395E+03  0.77000000000E+02 0.  0.
   -5000001    1    1    2    0    0  0.46155118948E+02  0.47920009293E+02  0.10119164639E+02  0.10226446005E+03  0.77000000000E+02 0.  0.
<mgrwt>
<rscale>  0 0.21194476E+03</rscale>
<asrwt>0</asrwt>
<pdfrwt beam="1">  1        2 0.10291655E-01 0.21194476E+03</pdfrwt>
<pdfrwt beam="2">  1       -2 0.22269171E-01 0.21194476E+03</pdfrwt>
<totfact> 0.10475940E+04</totfact>
</mgrwt>
</event>
<event>
 4    1  0.6919593E-004  0.1946052E+03  0.7818608E-02  0.1154372E+00
          2   -1    0    0  501    0  0.00000000000E+00  0.00000000000E+00  0.58121860293E+03  0.58121860293E+03  0.25500000000E-02 0.  1.
         -2   -1    0    0    0  501 -0.00000000000E+00 -0.00000000000E+00 -0.16289560941E+02  0.16289561140E+02  0.25500000000E-02 0. -1.
    5000001    1    1    2    0    0 -0.45789451669E+02 -0.22083873855E+02  0.37731951565E+03  0.38843710978E+03  0.77000000000E+02 0.  0.
   -5000001    1    1    2    0    0  0.45789451669E+02  0.22083873855E+02  0.18760952634E+03  0.20907105429E+03  0.77000000000E+02 0.  0.
<mgrwt>
<rscale>  0 0.19460520E+03</rscale>
<asrwt>0</asrwt>
<pdfrwt beam="1">  1        2 0.83031234E-01 0.19460520E+03</pdfrwt>
<pdfrwt beam="2">  1       -2 0.23270800E-02 0.19460520E+03</pdfrwt>
<totfact> 0.34063156E+04</totfact>
</mgrwt>
</event>
<event>
 4    1  0.6919593E-004  0.2496999E+03  0.7818608E-02  0.1113495E+00
          2   -1    0    0  501    0  0.00000000000E+00  0.00000000000E+00  0.53349421686E+03  0.53349421687E+03  0.25500000000E-02 0.  1.
         -2   -1    0    0    0  501 -0.00000000000E+00 -0.00000000000E+00 -0.29217770254E+02  0.29217770365E+02  0.25500000000E-02 0. -1.
    5000001    1    1    2    0    0 -0.48668284140E+02 -0.12464741503E+02  0.44248729418E+03  0.45193802360E+03  0.77000000000E+02 0.  0.
   -5000001    1    1    2    0    0  0.48668284140E+02  0.12464741503E+02  0.61789152426E+02  0.11077396363E+03  0.77000000000E+02 0.  0.
<mgrwt>
<rscale>  0 0.24969991E+03</rscale>
<asrwt>0</asrwt>
<pdfrwt beam="1">  1        2 0.76213448E-01 0.24969991E+03</pdfrwt>
<pdfrwt beam="2">  1       -2 0.41739678E-02 0.24969991E+03</pdfrwt>
<totfact> 0.16011178E+04</totfact>
</mgrwt>
</event>
<event>
 4    1  0.6919593E-004  0.3819463E+03  0.7818608E-02  0.1050217E+00
         -2   -1    0    0    0  501 -0.00000000000E+00  0.00000000000E+00  0.11303176356E+03  0.11303176359E+03  0.25500000000E-02 0. -1.
          2   -1    0    0  501    0  0.00000000000E+00 -0.00000000000E+00 -0.32265925255E+03  0.32265925256E+03  0.25500000000E-02 0.  1.
    5000001    1    1    2    0    0 -0.16889869287E+03 -0.44607550346E+02 -0.99093965313E+02  0.21509350516E+03  0.77000000000E+02 0.  0.
   -5000001    1    1    2    0    0  0.16889869287E+03  0.44607550346E+02 -0.11053352367E+03  0.22059751099E+03  0.77000000000E+02 0.  0.
<mgrwt>
<rscale>  0 0.38194630E+03</rscale>
<asrwt>0</asrwt>
<pdfrwt beam="1">  1        2 0.46094178E-01 0.38194630E+03</pdfrwt>
<pdfrwt beam="2">  1       -2 0.16147395E-01 0.38194630E+03</pdfrwt>
<totfact> 0.33334360E+03</totfact>
</mgrwt>
</event>
<event>
 4    1  0.6919593E-004  0.2184288E+03  0.7818608E-02  0.1135060E+00
          2   -1    0    0  501    0  0.00000000000E+00  0.00000000000E+00  0.45823733911E+03  0.45823733912E+03  0.25500000000E-02 0.  1.
         -2   -1    0    0    0  501 -0.00000000000E+00 -0.00000000000E+00 -0.26029721136E+02  0.26029721261E+02  0.25500000000E-02 0. -1.
    5000001    1    1    2    0    0 -0.33697785167E+02 -0.42796996745E+02  0.94031923464E+02  0.13318455724E+03  0.77000000000E+02 0.  0.
   -5000001    1    1    2    0    0  0.33697785167E+02  0.42796996745E+02  0.33817569451E+03  0.35108250314E+03  0.77000000000E+02 0.  0.
<mgrwt>
<rscale>  0 0.21842885E+03</rscale>
<asrwt>0</asrwt>
<pdfrwt beam="1">  1        2 0.65462477E-01 0.21842885E+03</pdfrwt>
<pdfrwt beam="2">  1       -2 0.37185316E-02 0.21842885E+03</pdfrwt>
<totfact> 0.22324216E+04</totfact>
</mgrwt>
</event>
<event>
 4    1  0.6919593E-004  0.3248674E+03  0.7818608E-02  0.1073431E+00
         -2   -1    0    0    0  501 -0.00000000000E+00  0.00000000000E+00  0.15332744066E+02  0.15332744278E+02  0.25500000000E-02 0. -1.
          2   -1    0    0  501    0  0.00000000000E+00 -0.00000000000E+00 -0.17208083246E+04  0.17208083246E+04  0.25500000000E-02 0.  1.
    5000001    1    1    2    0    0  0.12302514800E+03 -0.55063348592E+02 -0.59707975767E+03  0.61692819390E+03  0.77000000000E+02 0.  0.
   -5000001    1    1    2    0    0 -0.12302514800E+03  0.55063348592E+02 -0.11083958229E+04  0.11192128750E+04  0.77000000000E+02 0.  0.
<mgrwt>
<rscale>  0 0.32486744E+03</rscale>
<asrwt>0</asrwt>
<pdfrwt beam="1">  1        2 0.24582964E+00 0.32486744E+03</pdfrwt>
<pdfrwt beam="2">  1       -2 0.21903931E-02 0.32486744E+03</pdfrwt>
<totfact> 0.82029983E+03</totfact>
</mgrwt>
</event>
<event>
 4    1  0.6919593E-004  0.3386726E+03  0.7818608E-02  0.1067363E+00
          2   -1    0    0  501    0  0.00000000000E+00  0.00000000000E+00  0.75928510127E+02  0.75928510169E+02  0.25500000000E-02 0.  1.
         -2   -1    0    0    0  501 -0.00000000000E+00 -0.00000000000E+00 -0.37765506208E+03  0.37765506209E+03  0.25500000000E-02 0. -1.
    5000001    1    1    2    0    0  0.52990627276E+02 -0.13906030879E+03 -0.18366952132E+03  0.24861470013E+03  0.77000000000E+02 0.  0.
   -5000001    1    1    2    0    0 -0.52990627276E+02  0.13906030879E+03 -0.11805703064E+03  0.20496887213E+03  0.77000000000E+02 0.  0.
<mgrwt>
<rscale>  0 0.33867262E+03</rscale>
<asrwt>0</asrwt>
<pdfrwt beam="1">  1        2 0.10846930E-01 0.33867262E+03</pdfrwt>
<pdfrwt beam="2">  1       -2 0.53950722E-01 0.33867262E+03</pdfrwt>
<totfact> 0.19154687E+03</totfact>
</mgrwt>
</event>
<event>
 4    1  0.6919593E-004  0.4036136E+03  0.7818608E-02  0.1042536E+00
          2   -1    0    0  501    0  0.00000000000E+00  0.00000000000E+00  0.27851529510E+03  0.27851529511E+03  0.25500000000E-02 0.  1.
         -2   -1    0    0    0  501 -0.00000000000E+00 -0.00000000000E+00 -0.14622532137E+03  0.14622532139E+03  0.25500000000E-02 0. -1.
    5000001    1    1    2    0    0 -0.11377851788E+03 -0.21839354915E+02  0.21999791242E+03  0.26028943510E+03  0.77000000000E+02 0.  0.
   -5000001    1    1    2    0    0  0.11377851788E+03  0.21839354915E+02 -0.87707938694E+02  0.16445118140E+03  0.77000000000E+02 0.  0.
<mgrwt>
<rscale>  0 0.40361362E+03</rscale>
<asrwt>0</asrwt>
<pdfrwt beam="1">  1        2 0.39787899E-01 0.40361362E+03</pdfrwt>
<pdfrwt beam="2">  1       -2 0.20889332E-01 0.40361362E+03</pdfrwt>
<totfact> 0.25240372E+03</totfact>
</mgrwt>
</event>
<event>
 4    1  0.6919593E-004  0.3030275E+03  0.7818608E-02  0.1083737E+00
          2   -1    0    0  501    0  0.00000000000E+00  0.00000000000E+00  0.35906974449E+04  0.35906974449E+04  0.25500000000E-02 0.  1.
         -2   -1    0    0    0  501 -0.00000000000E+00 -0.00000000000E+00 -0.63933031984E+01  0.63933037070E+01  0.25500000000E-02 0. -1.
    5000001    1    1    2    0    0  0.51816036598E+02  0.10971310055E+03  0.12221757392E+04  0.12305951420E+04  0.77000000000E+02 0.  0.
   -5000001    1    1    2    0    0 -0.51816036598E+02 -0.10971310055E+03  0.23621284025E+04  0.23664956065E+04  0.77000000000E+02 0.  0.
<mgrwt>
<rscale>  0 0.30302751E+03</rscale>
<asrwt>0</asrwt>
<pdfrwt beam="1">  1        2 0.51295676E+00 0.30302751E+03</pdfrwt>
<pdfrwt beam="2">  1       -2 0.91332909E-03 0.30302751E+03</pdfrwt>
<totfact> 0.31510058E+03</totfact>
</mgrwt>
</event>
<event>
 4    1  0.6919593E-004  0.4611389E+03  0.7818608E-02  0.1024451E+00
         -2   -1    0    0    0  501 -0.00000000000E+00  0.00000000000E+00  0.77828221669E+03  0.77828221670E+03  0.25500000000E-02 0. -1.
          2   -1    0    0  501    0  0.00000000000E+00 -0.00000000000E+00 -0.68307193195E+02  0.68307193242E+02  0.25500000000E-02 0.  1.
    5000001    1    1    2    0    0 -0.86204535717E+02 -0.71895109637E+02  0.13333104283E+02  0.13677317148E+03  0.77000000000E+02 0.  0.
   -5000001    1    1    2    0    0  0.86204535717E+02  0.71895109637E+02  0.69664191922E+03  0.70981623846E+03  0.77000000000E+02 0.  0.
<mgrwt>
<rscale>  0 0.46113891E+03</rscale>
<asrwt>0</asrwt>
<pdfrwt beam="1">  1        2 0.97581713E-02 0.46113891E+03</pdfrwt>
<pdfrwt beam="2">  1       -2 0.11118316E+00 0.46113891E+03</pdfrwt>
<totfact> 0.44342226E+02</totfact>
</mgrwt>
</event>
<event>
 4    1  0.6919593E-004  0.1942977E+03  0.7818608E-02  0.1154641E+00
         -2   -1    0    0    0  501 -0.00000000000E+00  0.00000000000E+00  0.62026938341E+01  0.62026943583E+01  0.25500000000E-02 0. -1.
          2   -1    0    0  501    0  0.00000000000E+00 -0.00000000000E+00 -0.15215807716E+04  0.15215807716E+04  0.25500000000E-02 0.  1.
    5000001    1    1    2    0    0 -0.46484543118E+02  0.22839966878E+02 -0.53164379045E+03  0.53968194036E+03  0.77000000000E+02 0.  0.
   -5000001    1    1    2    0    0  0.46484543118E+02 -0.22839966878E+02 -0.98373428729E+03  0.98810152556E+03  0.77000000000E+02 0.  0.
<mgrwt>
<rscale>  0 0.19429771E+03</rscale>
<asrwt>0</asrwt>
<pdfrwt beam="1">  1        2 0.21736844E+00 0.19429771E+03</pdfrwt>
<pdfrwt beam="2">  1       -2 0.88610013E-03 0.19429771E+03</pdfrwt>
<totfact> 0.37815848E+04</totfact>
</mgrwt>
</event>
<event>
 4    1  0.6919593E-004  0.1813614E+03  0.7818608E-02  0.1166492E+00
         -2   -1    0    0    0  501 -0.00000000000E+00  0.00000000000E+00  0.56333334033E+02  0.56333334091E+02  0.25500000000E-02 0. -1.
          2   -1    0    0  501    0  0.00000000000E+00 -0.00000000000E+00 -0.14597018163E+03  0.14597018166E+03  0.25500000000E-02 0.  1.
    5000001    1    1    2    0    0  0.38841087459E+02  0.27285709789E+02 -0.51947587446E+02  0.10431055496E+03  0.77000000000E+02 0.  0.
   -5000001    1    1    2    0    0 -0.38841087459E+02 -0.27285709789E+02 -0.37689260154E+02  0.97992960791E+02  0.77000000000E+02 0.  0.
<mgrwt>
<rscale>  0 0.18136137E+03</rscale>
<asrwt>0</asrwt>
<pdfrwt beam="1">  1        2 0.20852883E-01 0.18136137E+03</pdfrwt>
<pdfrwt beam="2">  1       -2 0.80476192E-02 0.18136137E+03</pdfrwt>
<totfact> 0.23597643E+04</totfact>
</mgrwt>
</event>
<event>
 4    1  0.6919593E-004  0.3394222E+03  0.7818608E-02  0.1067042E+00
         -2   -1    0    0    0  501 -0.00000000000E+00  0.00000000000E+00  0.37742149214E+03  0.37742149215E+03  0.25500000000E-02 0. -1.
          2   -1    0    0  501    0  0.00000000000E+00 -0.00000000000E+00 -0.76312164213E+02  0.76312164256E+02  0.25500000000E-02 0.  1.
    5000001    1    1    2    0    0 -0.12046254339E+03 -0.49637811702E+02  0.25321499527E+03  0.29499486527E+03  0.77000000000E+02 0.  0.
   -5000001    1    1    2    0    0  0.12046254339E+03  0.49637811702E+02  0.47894332665E+02  0.15873879114E+03  0.77000000000E+02 0.  0.
<mgrwt>
<rscale>  0 0.33942216E+03</rscale>
<asrwt>0</asrwt>
<pdfrwt beam="1">  1        2 0.10901738E-01 0.33942216E+03</pdfrwt>
<pdfrwt beam="2">  1       -2 0.53917356E-01 0.33942216E+03</pdfrwt>
<totfact> 0.19060315E+03</totfact>
</mgrwt>
</event>
<event>
 4    1  0.6919593E-004  0.3262495E+03  0.7818608E-02  0.1072808E+00
          2   -1    0    0  501    0  0.00000000000E+00  0.00000000000E+00  0.18680455335E+04  0.18680455335E+04  0.25500000000E-02 0.  1.
         -2   -1    0    0    0  501 -0.00000000000E+00 -0.00000000000E+00 -0.14244669346E+02  0.14244669574E+02  0.25500000000E-02 0. -1.
    5000001    1    1    2    0    0 -0.13287294380E+03  0.33854443561E+02  0.11770157811E+04  0.11874748382E+04  0.77000000000E+02 0.  0.
   -5000001    1    1    2    0    0  0.13287294380E+03 -0.33854443561E+02  0.67678508312E+03  0.69481536488E+03  0.77000000000E+02 0.  0.
<mgrwt>
<rscale>  0 0.32624954E+03</rscale>
<asrwt>0</asrwt>
<pdfrwt beam="1">  1        2 0.26686340E+00 0.32624954E+03</pdfrwt>
<pdfrwt beam="2">  1       -2 0.20349547E-02 0.32624954E+03</pdfrwt>
<totfact> 0.77386916E+03</totfact>
</mgrwt>
</event>
<event>
 4    1  0.6919593E-004  0.1914022E+03  0.7818608E-02  0.1157203E+00
         -2   -1    0    0    0  501 -0.00000000000E+00  0.00000000000E+00  0.19361116833E+02  0.19361117001E+02  0.25500000000E-02 0. -1.
          2   -1    0    0  501    0  0.00000000000E+00 -0.00000000000E+00 -0.47304617602E+03  0.47304617603E+03  0.25500000000E-02 0.  1.
    5000001    1    1    2    0    0 -0.13569774355E+02 -0.48905209600E+02 -0.29262566780E+03  0.30681368900E+03  0.77000000000E+02 0.  0.
   -5000001    1    1    2    0    0  0.13569774355E+02  0.48905209600E+02 -0.16105939139E+03  0.18559360403E+03  0.77000000000E+02 0.  0.
<mgrwt>
<rscale>  0 0.19140222E+03</rscale>
<asrwt>0</asrwt>
<pdfrwt beam="1">  1        2 0.67578018E-01 0.19140222E+03</pdfrwt>
<pdfrwt beam="2">  1       -2 0.27658742E-02 0.19140222E+03</pdfrwt>
<totfact> 0.33125530E+04</totfact>
</mgrwt>
</event>
<event>
 4    1  0.6919593E-004  0.2435480E+03  0.7818608E-02  0.1117452E+00
          2   -1    0    0  501    0  0.00000000000E+00  0.00000000000E+00  0.45405422119E+04  0.45405422119E+04  0.25500000000E-02 0.  1.
         -2   -1    0    0    0  501 -0.00000000000E+00 -0.00000000000E+00 -0.32658897024E+01  0.32658906979E+01  0.25500000000E-02 0. -1.
    5000001    1    1    2    0    0  0.44845904254E+02  0.25726387257E+02  0.79642180533E+03  0.80180402476E+03  0.77000000000E+02 0.  0.
   -5000001    1    1    2    0    0 -0.44845904254E+02 -0.25726387257E+02  0.37408545169E+04  0.37420040779E+04  0.77000000000E+02 0.  0.
<mgrwt>
<rscale>  0 0.24354804E+03</rscale>
<asrwt>0</asrwt>
<pdfrwt beam="1">  1        2 0.64864864E+00 0.24354804E+03</pdfrwt>
<pdfrwt beam="2">  1       -2 0.46655592E-03 0.24354804E+03</pdfrwt>
<totfact> 0.19434982E+03</totfact>
</mgrwt>
</event>
<event>
 4    1  0.6919593E-004  0.2277505E+03  0.7818608E-02  0.1128233E+00
          2   -1    0    0  501    0  0.00000000000E+00  0.00000000000E+00  0.24289676155E+02  0.24289676289E+02  0.25500000000E-02 0.  1.
         -2   -1    0    0    0  501 -0.00000000000E+00 -0.00000000000E+00 -0.53387165339E+03  0.53387165339E+03  0.25500000000E-02 0. -1.
    5000001    1    1    2    0    0  0.77143746865E+02  0.11458998822E+02 -0.17901129281E+03  0.20989642514E+03  0.77000000000E+02 0.  0.
   -5000001    1    1    2    0    0 -0.77143746865E+02 -0.11458998822E+02 -0.33057068442E+03  0.34826490454E+03  0.77000000000E+02 0.  0.
<mgrwt>
<rscale>  0 0.22775047E+03</rscale>
<asrwt>0</asrwt>
<pdfrwt beam="1">  1        2 0.34699541E-02 0.22775047E+03</pdfrwt>
<pdfrwt beam="2">  1       -2 0.76267372E-01 0.22775047E+03</pdfrwt>
<totfact> 0.40121860E+03</totfact>
</mgrwt>
</event>
<event>
 4    1  0.6919593E-004  0.1816337E+03  0.7818608E-02  0.1166231E+00
         -2   -1    0    0    0  501 -0.00000000000E+00  0.00000000000E+00  0.30353940495E+02  0.30353940602E+02  0.25500000000E-02 0. -1.
          2   -1    0    0  501    0  0.00000000000E+00 -0.00000000000E+00 -0.27171754881E+03  0.27171754882E+03  0.25500000000E-02 0.  1.
    5000001    1    1    2    0    0  0.45790468555E+02  0.86260750100E+01 -0.10048224147E+03  0.13489572651E+03  0.77000000000E+02 0.  0.
   -5000001    1    1    2    0    0 -0.45790468555E+02 -0.86260750100E+01 -0.14088136684E+03  0.16717576291E+03  0.77000000000E+02 0.  0.
<mgrwt>
<rscale>  0 0.18163368E+03</rscale>
<asrwt>0</asrwt>
<pdfrwt beam="1">  1        2 0.38816791E-01 0.18163368E+03</pdfrwt>
<pdfrwt beam="2">  1       -2 0.43362774E-02 0.18163368E+03</pdfrwt>
<totfact> 0.30622863E+04</totfact>
</mgrwt>
</event>
<event>
 4    1  0.6919593E-004  0.2864172E+03  0.7818608E-02  0.1092235E+00
         -2   -1    0    0    0  501 -0.00000000000E+00  0.00000000000E+00  0.19223615751E+04  0.19223615751E+04  0.25500000000E-02 0. -1.
          2   -1    0    0  501    0  0.00000000000E+00 -0.00000000000E+00 -0.10668490705E+02  0.10668491010E+02  0.25500000000E-02 0.  1.
    5000001    1    1    2    0    0  0.11252939049E+03  0.35637544539E+02  0.78420432661E+03  0.79676742164E+03  0.77000000000E+02 0.  0.
   -5000001    1    1    2    0    0 -0.11252939049E+03 -0.35637544539E+02  0.11274887578E+04  0.11362626445E+04  0.77000000000E+02 0.  0.
<mgrwt>
<rscale>  0 0.28641716E+03</rscale>
<asrwt>0</asrwt>
<pdfrwt beam="1">  1        2 0.15240685E-02 0.28641716E+03</pdfrwt>
<pdfrwt beam="2">  1       -2 0.27462338E+00 0.28641716E+03</pdfrwt>
<totfact> 0.41175325E+02</totfact>
</mgrwt>
</event>
<event>
 4    1  0.6919593E-004  0.2213706E+03  0.7818608E-02  0.1132865E+00
         -2   -1    0    0    0  501 -0.00000000000E+00  0.00000000000E+00  0.18434391494E+02  0.18434391670E+02  0.25500000000E-02 0. -1.
          2   -1    0    0  501    0  0.00000000000E+00 -0.00000000000E+00 -0.66458558478E+03  0.66458558478E+03  0.25500000000E-02 0.  1.
    5000001    1    1    2    0    0  0.67119667727E+02 -0.40452942166E+02 -0.28159534411E+03  0.30226880115E+03  0.77000000000E+02 0.  0.
   -5000001    1    1    2    0    0 -0.67119667727E+02  0.40452942166E+02 -0.36455584917E+03  0.38075117530E+03  0.77000000000E+02 0.  0.
<mgrwt>
<rscale>  0 0.22137056E+03</rscale>
<asrwt>0</asrwt>
<pdfrwt beam="1">  1        2 0.94940783E-01 0.22137056E+03</pdfrwt>
<pdfrwt beam="2">  1       -2 0.26334849E-02 0.22137056E+03</pdfrwt>
<totfact> 0.24592783E+04</totfact>
</mgrwt>
</event>
<event>
 4    1  0.6919593E-004  0.2746564E+03  0.7818608E-02  0.1098644E+00
         -2   -1    0    0    0  501 -0.00000000000E+00  0.00000000000E+00  0.37400266241E+03  0.37400266242E+03  0.25500000000E-02 0. -1.
          2   -1    0    0  501    0  0.00000000000E+00 -0.00000000000E+00 -0.50424884234E+02  0.50424884299E+02  0.25500000000E-02 0.  1.
    5000001    1    1    2    0    0 -0.85519315715E+02  0.39204808290E+02  0.63089225977E+02  0.13696649513E+03  0.77000000000E+02 0.  0.
   -5000001    1    1    2    0    0  0.85519315715E+02 -0.39204808290E+02  0.26048855220E+03  0.28746105159E+03  0.77000000000E+02 0.  0.
<mgrwt>
<rscale>  0 0.27465645E+03</rscale>
<asrwt>0</asrwt>
<pdfrwt beam="1">  1        2 0.72035552E-02 0.27465645E+03</pdfrwt>
<pdfrwt beam="2">  1       -2 0.53428950E-01 0.27465645E+03</pdfrwt>
<totfact> 0.32569164E+03</totfact>
</mgrwt>
</event>
<event>
 4    1  0.6919593E-004  0.1748792E+03  0.7818608E-02  0.1172853E+00
         -2   -1    0    0    0  501 -0.00000000000E+00  0.00000000000E+00  0.11784880049E+02  0.11784880325E+02  0.25500000000E-02 0. -1.
          2   -1    0    0  501    0  0.00000000000E+00 -0.00000000000E+00 -0.64877027815E+03  0.64877027815E+03  0.25500000000E-02 0.  1.
    5000001    1    1    2    0    0 -0.20036349898E+02  0.36219781432E+02 -0.32540830970E+03  0.33694642883E+03  0.77000000000E+02 0.  0.
   -5000001    1    1    2    0    0  0.20036349898E+02 -0.36219781432E+02 -0.31157708840E+03  0.32360872965E+03  0.77000000000E+02 0.  0.
<mgrwt>
<rscale>  0 0.17487916E+03</rscale>
<asrwt>0</asrwt>
<pdfrwt beam="1">  1        2 0.92681446E-01 0.17487916E+03</pdfrwt>
<pdfrwt beam="2">  1       -2 0.16835547E-02 0.17487916E+03</pdfrwt>
<totfact> 0.47775895E+04</totfact>
</mgrwt>
</event>
<event>
 4    1  0.6919593E-004  0.4196927E+03  0.7818608E-02  0.1037166E+00
         -2   -1    0    0    0  501 -0.00000000000E+00  0.00000000000E+00  0.12526815347E+03  0.12526815350E+03  0.25500000000E-02 0. -1.
          2   -1    0    0  501    0  0.00000000000E+00 -0.00000000000E+00 -0.35152984032E+03  0.35152984033E+03  0.25500000000E-02 0.  1.
    5000001    1    1    2    0    0  0.13747944262E+02 -0.13210936639E+03 -0.27565003487E+03  0.31552152443E+03  0.77000000000E+02 0.  0.
   -5000001    1    1    2    0    0 -0.13747944262E+02  0.13210936639E+03  0.49388348023E+02  0.16127646939E+03  0.77000000000E+02 0.  0.
<mgrwt>
<rscale>  0 0.41969272E+03</rscale>
<asrwt>0</asrwt>
<pdfrwt beam="1">  1        2 0.50218548E-01 0.41969272E+03</pdfrwt>
<pdfrwt beam="2">  1       -2 0.17895451E-01 0.41969272E+03</pdfrwt>
<totfact> 0.25558175E+03</totfact>
</mgrwt>
</event>
<event>
 4    1  0.6919593E-004  0.3405301E+03  0.7818608E-02  0.1066570E+00
         -2   -1    0    0    0  501 -0.00000000000E+00  0.00000000000E+00  0.68522800088E+02  0.68522800136E+02  0.25500000000E-02 0. -1.
          2   -1    0    0  501    0  0.00000000000E+00 -0.00000000000E+00 -0.42307365621E+03  0.42307365621E+03  0.25500000000E-02 0.  1.
    5000001    1    1    2    0    0 -0.45929799586E+01 -0.10795487221E+03 -0.23234624441E+02  0.13470039967E+03  0.77000000000E+02 0.  0.
   -5000001    1    1    2    0    0  0.45929799586E+01  0.10795487221E+03 -0.33131623168E+03  0.35689605668E+03  0.77000000000E+02 0.  0.
<mgrwt>
<rscale>  0 0.34053013E+03</rscale>
<asrwt>0</asrwt>
<pdfrwt beam="1">  1        2 0.60439092E-01 0.34053013E+03</pdfrwt>
<pdfrwt beam="2">  1       -2 0.97889717E-02 0.34053013E+03</pdfrwt>
<totfact> 0.56083015E+03</totfact>
</mgrwt>
</event>
<event>
 4    1  0.6919593E-004  0.5038500E+03  0.7818608E-02  0.1012779E+00
         -2   -1    0    0    0  501 -0.00000000000E+00  0.00000000000E+00  0.12806010673E+03  0.12806010676E+03  0.25500000000E-02 0. -1.
          2   -1    0    0  501    0  0.00000000000E+00 -0.00000000000E+00 -0.49559691303E+03  0.49559691304E+03  0.25500000000E-02 0.  1.
    5000001    1    1    2    0    0 -0.23815506080E+03  0.20974794842E+02 -0.20787877413E+03  0.32603735942E+03  0.77000000000E+02 0.  0.
   -5000001    1    1    2    0    0  0.23815506080E+03 -0.20974794842E+02 -0.15965803217E+03  0.29761966037E+03  0.77000000000E+02 0.  0.
<mgrwt>
<rscale>  0 0.50384995E+03</rscale>
<asrwt>0</asrwt>
<pdfrwt beam="1">  1        2 0.70799558E-01 0.50384995E+03</pdfrwt>
<pdfrwt beam="2">  1       -2 0.18294301E-01 0.50384995E+03</pdfrwt>
<totfact> 0.16852434E+03</totfact>
</mgrwt>
</event>
<event>
 4    1  0.6919593E-004  0.1846987E+03  0.7818608E-02  0.1163332E+00
         -2   -1    0    0    0  501 -0.00000000000E+00  0.00000000000E+00  0.32359632601E+03  0.32359632602E+03  0.25500000000E-02 0. -1.
          2   -1    0    0  501    0  0.00000000000E+00 -0.00000000000E+00 -0.26355073991E+02  0.26355074115E+02  0.25500000000E-02 0.  1.
    5000001    1    1    2    0    0 -0.26701239736E+02 -0.38606733367E+02  0.11091775154E+03  0.14295168299E+03  0.77000000000E+02 0.  0.
   -5000001    1    1    2    0    0  0.26701239736E+02  0.38606733367E+02  0.18632350048E+03  0.20699971714E+03  0.77000000000E+02 0.  0.
<mgrwt>
<rscale>  0 0.18469873E+03</rscale>
<asrwt>0</asrwt>
<pdfrwt beam="1">  1        2 0.37650107E-02 0.18469873E+03</pdfrwt>
<pdfrwt beam="2">  1       -2 0.46228045E-01 0.18469873E+03</pdfrwt>
<totfact> 0.99570980E+03</totfact>
</mgrwt>
</event>
<event>
 4    1  0.6919593E-004  0.2979754E+03  0.7818608E-02  0.1086257E+00
          2   -1    0    0  501    0  0.00000000000E+00  0.00000000000E+00  0.75142866562E+02  0.75142866606E+02  0.25500000000E-02 0.  1.
         -2   -1    0    0    0  501 -0.00000000000E+00 -0.00000000000E+00 -0.29540168584E+03  0.29540168585E+03  0.25500000000E-02 0. -1.
    5000001    1    1    2    0    0  0.10236286327E+03  0.17377701112E+02 -0.18005022769E+02  0.13051176621E+03  0.77000000000E+02 0.  0.
   -5000001    1    1    2    0    0 -0.10236286327E+03 -0.17377701112E+02 -0.20225379651E+03  0.24003278625E+03  0.77000000000E+02 0.  0.
<mgrwt>
<rscale>  0 0.29797536E+03</rscale>
<asrwt>0</asrwt>
<pdfrwt beam="1">  1        2 0.10734695E-01 0.29797536E+03</pdfrwt>
<pdfrwt beam="2">  1       -2 0.42200240E-01 0.29797536E+03</pdfrwt>
<totfact> 0.31480117E+03</totfact>
</mgrwt>
</event>
<event>
 4    1  0.6919593E-004  0.3811248E+03  0.7818608E-02  0.1050519E+00
         -2   -1    0    0    0  501 -0.00000000000E+00  0.00000000000E+00  0.54689136003E+02  0.54689136063E+02  0.25500000000E-02 0. -1.
          2   -1    0    0  501    0  0.00000000000E+00 -0.00000000000E+00 -0.66400799768E+03  0.66400799769E+03  0.25500000000E-02 0.  1.
    5000001    1    1    2    0    0  0.15355903397E+02 -0.17309024155E+03 -0.33058307813E+03  0.38132690311E+03  0.77000000000E+02 0.  0.
   -5000001    1    1    2    0    0 -0.15355903397E+02  0.17309024155E+03 -0.27873578355E+03  0.33737023064E+03  0.77000000000E+02 0.  0.
<mgrwt>
<rscale>  0 0.38112478E+03</rscale>
<asrwt>0</asrwt>
<pdfrwt beam="1">  1        2 0.94858281E-01 0.38112478E+03</pdfrwt>
<pdfrwt beam="2">  1       -2 0.78127341E-02 0.38112478E+03</pdfrwt>
<totfact> 0.48259375E+03</totfact>
</mgrwt>
</event>
<event>
 4    1  0.6919593E-004  0.3973606E+03  0.7818608E-02  0.1044697E+00
          2   -1    0    0  501    0  0.00000000000E+00  0.00000000000E+00  0.18519266016E+03  0.18519266018E+03  0.25500000000E-02 0. -1.
         -2   -1    0    0    0  501 -0.00000000000E+00 -0.00000000000E+00 -0.21315029897E+03  0.21315029899E+03  0.25500000000E-02 0.  1.
    5000001    1    1    2    0    0  0.14333595572E+03  0.10048724698E+03  0.40024454420E+02  0.19538126819E+03  0.77000000000E+02 0.  0.
   -5000001    1    1    2    0    0 -0.14333595572E+03 -0.10048724698E+03 -0.67982093230E+02  0.20296169098E+03  0.77000000000E+02 0.  0.
<mgrwt>
<rscale>  0 0.39736065E+03</rscale>
<asrwt>0</asrwt>
<pdfrwt beam="1">  1        2 0.26456094E-01 0.39736065E+03</pdfrwt>
<pdfrwt beam="2">  1       -2 0.30450043E-01 0.39736065E+03</pdfrwt>
<totfact> 0.20233772E+03</totfact>
</mgrwt>
</event>
<event>
 4    1  0.6919593E-004  0.1950443E+03  0.7818608E-02  0.1153989E+00
         -2   -1    0    0    0  501 -0.00000000000E+00  0.00000000000E+00  0.11618925665E+03  0.11618925668E+03  0.25500000000E-02 0. -1.
          2   -1    0    0  501    0  0.00000000000E+00 -0.00000000000E+00 -0.81854133378E+02  0.81854133418E+02  0.25500000000E-02 0.  1.
    5000001    1    1    2    0    0 -0.36566290025E+02  0.43848546885E+02 -0.10465556733E+01  0.95863882192E+02  0.77000000000E+02 0.  0.
   -5000001    1    1    2    0    0  0.36566290025E+02 -0.43848546885E+02  0.35381678942E+02  0.10217950790E+03  0.77000000000E+02 0.  0.
<mgrwt>
<rscale>  0 0.19504431E+03</rscale>
<asrwt>0</asrwt>
<pdfrwt beam="1">  1        2 0.11693448E-01 0.19504431E+03</pdfrwt>
<pdfrwt beam="2">  1       -2 0.16598465E-01 0.19504431E+03</pdfrwt>
<totfact> 0.14660042E+04</totfact>
</mgrwt>
</event>
<event>
 4    1  0.6919593E-004  0.1896085E+03  0.7818608E-02  0.1158815E+00
          2   -1    0    0  501    0  0.00000000000E+00  0.00000000000E+00  0.94011333693E+03  0.94011333693E+03  0.25500000000E-02 0.  1.
         -2   -1    0    0    0  501 -0.00000000000E+00 -0.00000000000E+00 -0.95603857038E+01  0.95603860439E+01  0.25500000000E-02 0. -1.
    5000001    1    1    2    0    0 -0.10282909291E+02 -0.54304424680E+02  0.45508854610E+03  0.46485405618E+03  0.77000000000E+02 0.  0.
   -5000001    1    1    2    0    0  0.10282909291E+02  0.54304424680E+02  0.47546440513E+03  0.48481966679E+03  0.77000000000E+02 0.  0.
<mgrwt>
<rscale>  0 0.18960850E+03</rscale>
<asrwt>0</asrwt>
<pdfrwt beam="1">  1        2 0.13430187E+00 0.18960850E+03</pdfrwt>
<pdfrwt beam="2">  1       -2 0.13657698E-02 0.18960850E+03</pdfrwt>
<totfact> 0.41488281E+04</totfact>
</mgrwt>
</event>
<event>
 4    1  0.6919593E-004  0.2112865E+03  0.7818608E-02  0.1140551E+00
          2   -1    0    0  501    0  0.00000000000E+00  0.00000000000E+00  0.18536435449E+04  0.18536435449E+04  0.25500000000E-02 0.  1.
         -2   -1    0    0    0  501 -0.00000000000E+00 -0.00000000000E+00 -0.60208445262E+01  0.60208450662E+01  0.25500000000E-02 0. -1.
    5000001    1    1    2    0    0 -0.42986404894E+02 -0.54250433325E+02  0.11085531085E+04  0.11133777144E+04  0.77000000000E+02 0.  0.
   -5000001    1    1    2    0    0  0.42986404894E+02  0.54250433325E+02  0.73906959185E+03  0.74628667556E+03  0.77000000000E+02 0.  0.
<mgrwt>
<rscale>  0 0.21128654E+03</rscale>
<asrwt>0</asrwt>
<pdfrwt beam="1">  1        2 0.26480585E+00 0.21128654E+03</pdfrwt>
<pdfrwt beam="2">  1       -2 0.86012190E-03 0.21128654E+03</pdfrwt>
<totfact> 0.27288932E+04</totfact>
</mgrwt>
</event>
<event>
 4    1  0.6919593E-004  0.2803539E+03  0.7818608E-02  0.1095496E+00
         -2   -1    0    0    0  501 -0.00000000000E+00  0.00000000000E+00  0.59452860590E+02  0.59452860645E+02  0.25500000000E-02 0. -1.
          2   -1    0    0  501    0  0.00000000000E+00 -0.00000000000E+00 -0.33050680456E+03  0.33050680457E+03  0.25500000000E-02 0.  1.
    5000001    1    1    2    0    0  0.28646592979E+02 -0.66903461352E+02 -0.78627925553E+01  0.10624275946E+03  0.77000000000E+02 0.  0.
   -5000001    1    1    2    0    0 -0.28646592979E+02  0.66903461352E+02 -0.26319115141E+03  0.28371690576E+03  0.77000000000E+02 0.  0.
<mgrwt>
<rscale>  0 0.28035388E+03</rscale>
<asrwt>0</asrwt>
<pdfrwt beam="1">  1        2 0.47215257E-01 0.28035388E+03</pdfrwt>
<pdfrwt beam="2">  1       -2 0.84932660E-02 0.28035388E+03</pdfrwt>
<totfact> 0.91152580E+03</totfact>
</mgrwt>
</event>
<event>
 4    1  0.6919593E-004  0.3326256E+03  0.7818608E-02  0.1069981E+00
         -2   -1    0    0    0  501 -0.00000000000E+00  0.00000000000E+00  0.36955570229E+02  0.36955570317E+02  0.25500000000E-02 0. -1.
          2   -1    0    0  501    0  0.00000000000E+00 -0.00000000000E+00 -0.74846494226E+03  0.74846494226E+03  0.25500000000E-02 0.  1.
    5000001    1    1    2    0    0  0.29315995206E+02 -0.13641244402E+03 -0.24342234924E+03  0.29094883153E+03  0.77000000000E+02 0.  0.
   -5000001    1    1    2    0    0 -0.29315995206E+02  0.13641244402E+03 -0.46808702279E+03  0.49447168105E+03  0.77000000000E+02 0.  0.
<mgrwt>
<rscale>  0 0.33262561E+03</rscale>
<asrwt>0</asrwt>
<pdfrwt beam="1">  1        2 0.10692355E+00 0.33262561E+03</pdfrwt>
<pdfrwt beam="2">  1       -2 0.52793676E-02 0.33262561E+03</pdfrwt>
<totfact> 0.76525248E+03</totfact>
</mgrwt>
</event>
<event>
 4    1  0.6919593E-004  0.2391381E+03  0.7818608E-02  0.1120368E+00
          2   -1    0    0  501    0  0.00000000000E+00  0.00000000000E+00  0.11149098681E+04  0.11149098681E+04  0.25500000000E-02 0.  1.
         -2   -1    0    0    0  501 -0.00000000000E+00 -0.00000000000E+00 -0.12823237541E+02  0.12823237795E+02  0.25500000000E-02 0. -1.
    5000001    1    1    2    0    0  0.59075824929E+02 -0.68927224944E+02  0.49793241589E+03  0.51196348134E+03  0.77000000000E+02 0.  0.
   -5000001    1    1    2    0    0 -0.59075824929E+02  0.68927224944E+02  0.60415421471E+03  0.61576962460E+03  0.77000000000E+02 0.  0.
<mgrwt>
<rscale>  0 0.23913807E+03</rscale>
<asrwt>0</asrwt>
<pdfrwt beam="1">  1        2 0.15927283E+00 0.23913807E+03</pdfrwt>
<pdfrwt beam="2">  1       -2 0.18318912E-02 0.23913807E+03</pdfrwt>
<totfact> 0.21764090E+04</totfact>
</mgrwt>
</event>
<event>
 4    1  0.6919593E-004  0.1705815E+03  0.7818608E-02  0.1177243E+00
          2   -1    0    0  501    0  0.00000000000E+00  0.00000000000E+00  0.58435860282E+03  0.58435860283E+03  0.25500000000E-02 0.  1.
         -2   -1    0    0    0  501 -0.00000000000E+00 -0.00000000000E+00 -0.12448712276E+02  0.12448712537E+02  0.25500000000E-02 0. -1.
    5000001    1    1    2    0    0  0.18487247691E+02 -0.92910455620E+01  0.39192520990E+03  0.39995308727E+03  0.77000000000E+02 0.  0.
   -5000001    1    1    2    0    0 -0.18487247691E+02  0.92910455620E+01  0.17998468064E+03  0.19685422810E+03  0.77000000000E+02 0.  0.
<mgrwt>
<rscale>  0 0.17058150E+03</rscale>
<asrwt>0</asrwt>
<pdfrwt beam="1">  1        2 0.83479808E-01 0.17058150E+03</pdfrwt>
<pdfrwt beam="2">  1       -2 0.17783873E-02 0.17058150E+03</pdfrwt>
<totfact> 0.49556274E+04</totfact>
</mgrwt>
</event>
<event>
 4    1  0.6919593E-004  0.2853759E+03  0.7818608E-02  0.1092788E+00
         -2   -1    0    0    0  501 -0.00000000000E+00  0.00000000000E+00  0.27229686583E+02  0.27229686702E+02  0.25500000000E-02 0. -1.
          2   -1    0    0  501    0  0.00000000000E+00 -0.00000000000E+00 -0.74770761089E+03  0.74770761089E+03  0.25500000000E-02 0.  1.
    5000001    1    1    2    0    0 -0.85080554981E+02 -0.69957971382E+02 -0.49041371254E+03  0.50849525863E+03  0.77000000000E+02 0.  0.
   -5000001    1    1    2    0    0  0.85080554981E+02  0.69957971382E+02 -0.23006421176E+03  0.26644203897E+03  0.77000000000E+02 0.  0.
<mgrwt>
<rscale>  0 0.28537585E+03</rscale>
<asrwt>0</asrwt>
<pdfrwt beam="1">  1        2 0.10681536E+00 0.28537585E+03</pdfrwt>
<pdfrwt beam="2">  1       -2 0.38899557E-02 0.28537585E+03</pdfrwt>
<totfact> 0.12117933E+04</totfact>
</mgrwt>
</event>
<event>
 4    1  0.6919593E-004  0.2174532E+03  0.7818608E-02  0.1135796E+00
         -2   -1    0    0    0  501 -0.00000000000E+00  0.00000000000E+00  0.51437924780E+01  0.51437931101E+01  0.25500000000E-02 0. -1.
          2   -1    0    0  501    0  0.00000000000E+00 -0.00000000000E+00 -0.22982018316E+04  0.22982018317E+04  0.25500000000E-02 0.  1.
    5000001    1    1    2    0    0  0.66739643973E+02  0.34091755006E+01 -0.15466167993E+04  0.15499736535E+04  0.77000000000E+02 0.  0.
   -5000001    1    1    2    0    0 -0.66739643973E+02 -0.34091755006E+01 -0.74644123987E+03  0.75337197130E+03  0.77000000000E+02 0.  0.
<mgrwt>
<rscale>  0 0.21745320E+03</rscale>
<asrwt>0</asrwt>
<pdfrwt beam="1">  1        2 0.32831389E+00 0.21745320E+03</pdfrwt>
<pdfrwt beam="2">  1       -2 0.73482902E-03 0.21745320E+03</pdfrwt>
<totfact> 0.20878904E+04</totfact>
</mgrwt>
</event>
<event>
 4    1  0.6919593E-004  0.1801315E+03  0.7818608E-02  0.1167676E+00
         -2   -1    0    0    0  501 -0.00000000000E+00  0.00000000000E+00  0.34983586704E+01  0.34983595998E+01  0.25500000000E-02 0. -1.
          2   -1    0    0  501    0  0.00000000000E+00 -0.00000000000E+00 -0.23187565869E+04  0.23187565869E+04  0.25500000000E-02 0.  1.
    5000001    1    1    2    0    0  0.25911644970E+02 -0.38705102668E+02 -0.11105336607E+04  0.11141739136E+04  0.77000000000E+02 0.  0.
   -5000001    1    1    2    0    0 -0.25911644970E+02  0.38705102668E+02 -0.12047245675E+04  0.12080810328E+04  0.77000000000E+02 0.  0.
<mgrwt>
<rscale>  0 0.18013154E+03</rscale>
<asrwt>0</asrwt>
<pdfrwt beam="1">  1        2 0.33124996E+00 0.18013154E+03</pdfrwt>
<pdfrwt beam="2">  1       -2 0.49976708E-03 0.18013154E+03</pdfrwt>
<totfact> 0.35150421E+04</totfact>
</mgrwt>
</event>
<event>
 4    1  0.6919593E-004  0.2453646E+03  0.7818608E-02  0.1116270E+00
         -2   -1    0    0    0  501 -0.00000000000E+00  0.00000000000E+00  0.26949588983E+02  0.26949589103E+02  0.25500000000E-02 0. -1.
          2   -1    0    0  501    0  0.00000000000E+00 -0.00000000000E+00 -0.55848522054E+03  0.55848522055E+03  0.25500000000E-02 0.  1.
    5000001    1    1    2    0    0 -0.10673434392E+02  0.94697679268E+02 -0.25060707812E+03  0.27895246955E+03  0.77000000000E+02 0.  0.
   -5000001    1    1    2    0    0  0.10673434392E+02 -0.94697679268E+02 -0.28092855343E+03  0.30648234010E+03  0.77000000000E+02 0.  0.
<mgrwt>
<rscale>  0 0.24536460E+03</rscale>
<asrwt>0</asrwt>
<pdfrwt beam="1">  1        2 0.79783595E-01 0.24536460E+03</pdfrwt>
<pdfrwt beam="2">  1       -2 0.38499417E-02 0.24536460E+03</pdfrwt>
<totfact> 0.17158209E+04</totfact>
</mgrwt>
</event>
<event>
 4    1  0.6919593E-004  0.2918717E+03  0.7818608E-02  0.1089376E+00
         -2   -1    0    0    0  501 -0.00000000000E+00  0.00000000000E+00  0.32724079148E+03  0.32724079149E+03  0.25500000000E-02 0.  1.
          2   -1    0    0  501    0  0.00000000000E+00 -0.00000000000E+00 -0.65081330864E+02  0.65081330914E+02  0.25500000000E-02 0. -1.
    5000001    1    1    2    0    0 -0.11925945141E+03 -0.38259377814E+00  0.85590237812E+02  0.16576384388E+03  0.77000000000E+02 0.  0.
   -5000001    1    1    2    0    0  0.11925945141E+03  0.38259377814E+00  0.17656922280E+03  0.22655827853E+03  0.77000000000E+02 0.  0.
<mgrwt>
<rscale>  0 0.29187166E+03</rscale>
<asrwt>0</asrwt>
<pdfrwt beam="1">  1        2 0.92973331E-02 0.29187166E+03</pdfrwt>
<pdfrwt beam="2">  1       -2 0.46748684E-01 0.29187166E+03</pdfrwt>
<totfact> 0.30814643E+03</totfact>
</mgrwt>
</event>
<event>
 4    1  0.6919593E-004  0.3518865E+03  0.7818608E-02  0.1061843E+00
         -2   -1    0    0    0  501 -0.00000000000E+00  0.00000000000E+00  0.13006010014E+02  0.13006010263E+02  0.25500000000E-02 0. -1.
          2   -1    0    0  501    0  0.00000000000E+00 -0.00000000000E+00 -0.23801329013E+04  0.23801329013E+04  0.25500000000E-02 0.  1.
    5000001    1    1    2    0    0 -0.10427477776E+03 -0.11137004115E+03 -0.89902007694E+03  0.91511890707E+03  0.77000000000E+02 0.  0.
   -5000001    1    1    2    0    0  0.10427477776E+03  0.11137004115E+03 -0.14681068144E+04  0.14780200045E+04  0.77000000000E+02 0.  0.
<mgrwt>
<rscale>  0 0.35188653E+03</rscale>
<asrwt>0</asrwt>
<pdfrwt beam="1">  1        2 0.34001871E+00 0.35188653E+03</pdfrwt>
<pdfrwt beam="2">  1       -2 0.18580030E-02 0.35188653E+03</pdfrwt>
<totfact> 0.49492954E+03</totfact>
</mgrwt>
</event>
<event>
 4    1  0.6919593E-004  0.3250764E+03  0.7818608E-02  0.1073336E+00
         -2   -1    0    0    0  501 -0.00000000000E+00  0.00000000000E+00  0.26116784741E+02  0.26116784866E+02  0.25500000000E-02 0. -1.
          2   -1    0    0  501    0  0.00000000000E+00 -0.00000000000E+00 -0.10115591000E+04  0.10115591000E+04  0.25500000000E-02 0.  1.
    5000001    1    1    2    0    0  0.10019825496E+03 -0.48162910537E+02 -0.78054709706E+03  0.79217556575E+03  0.77000000000E+02 0.  0.
   -5000001    1    1    2    0    0 -0.10019825496E+03  0.48162910537E+02 -0.20489521823E+03  0.24550031915E+03  0.77000000000E+02 0.  0.
<mgrwt>
<rscale>  0 0.32507643E+03</rscale>
<asrwt>0</asrwt>
<pdfrwt beam="1">  1        2 0.14450842E+00 0.32507643E+03</pdfrwt>
<pdfrwt beam="2">  1       -2 0.37309699E-02 0.32507643E+03</pdfrwt>
<totfact> 0.87817618E+03</totfact>
</mgrwt>
</event>
<event>
 4    1  0.6919593E-004  0.3887565E+03  0.7818608E-02  0.1047744E+00
          2   -1    0    0  501    0  0.00000000000E+00  0.00000000000E+00  0.26242969596E+02  0.26242969720E+02  0.25500000000E-02 0.  1.
         -2   -1    0    0    0  501 -0.00000000000E+00 -0.00000000000E+00 -0.14397339969E+04  0.14397339970E+04  0.25500000000E-02 0. -1.
    5000001    1    1    2    0    0  0.95278447435E+02  0.11374865445E+03 -0.10807564711E+04  0.10936088372E+04  0.77000000000E+02 0.  0.
   -5000001    1    1    2    0    0 -0.95278447435E+02 -0.11374865445E+03 -0.33273455624E+03  0.37236812948E+03  0.77000000000E+02 0.  0.
<mgrwt>
<rscale>  0 0.38875646E+03</rscale>
<asrwt>0</asrwt>
<pdfrwt beam="1">  1        2 0.37489966E-02 0.38875646E+03</pdfrwt>
<pdfrwt beam="2">  1       -2 0.20567624E+00 0.38875646E+03</pdfrwt>
<totfact> 0.30758603E+02</totfact>
</mgrwt>
</event>
<event>
 4    1  0.6919593E-004  0.2627125E+03  0.7818608E-02  0.1105524E+00
         -2   -1    0    0    0  501 -0.00000000000E+00  0.00000000000E+00  0.81014602532E+01  0.81014606545E+01  0.25500000000E-02 0. -1.
          2   -1    0    0  501    0  0.00000000000E+00 -0.00000000000E+00 -0.21297974783E+04  0.21297974783E+04  0.25500000000E-02 0.  1.
    5000001    1    1    2    0    0  0.90295482914E+02 -0.56208122533E+02 -0.10316847670E+04  0.10400072528E+04  0.77000000000E+02 0.  0.
   -5000001    1    1    2    0    0 -0.90295482914E+02  0.56208122533E+02 -0.10900112510E+04  0.10978916862E+04  0.77000000000E+02 0.  0.
<mgrwt>
<rscale>  0 0.26271254E+03</rscale>
<asrwt>0</asrwt>
<pdfrwt beam="1">  1        2 0.30425643E+00 0.26271254E+03</pdfrwt>
<pdfrwt beam="2">  1       -2 0.11573529E-02 0.26271254E+03</pdfrwt>
<totfact> 0.13142841E+04</totfact>
</mgrwt>
</event>
<event>
 4    1  0.6919593E-004  0.2521884E+03  0.7818608E-02  0.1111930E+00
          2   -1    0    0  501    0  0.00000000000E+00  0.00000000000E+00  0.93804031936E+03  0.93804031937E+03  0.25500000000E-02 0.  1.
         -2   -1    0    0    0  501 -0.00000000000E+00 -0.00000000000E+00 -0.16949958164E+02  0.16949958355E+02  0.25500000000E-02 0. -1.
    5000001    1    1    2    0    0 -0.28261692636E+02 -0.54418244754E+02  0.75897575091E+03  0.76533212340E+03  0.77000000000E+02 0.  0.
   -5000001    1    1    2    0    0  0.28261692636E+02  0.54418244754E+02  0.16211461029E+03  0.18965815432E+03  0.77000000000E+02 0.  0.
<mgrwt>
<rscale>  0 0.25218838E+03</rscale>
<asrwt>0</asrwt>
<pdfrwt beam="1">  1        2 0.13400579E+00 0.25218838E+03</pdfrwt>
<pdfrwt beam="2">  1       -2 0.24214221E-02 0.25218838E+03</pdfrwt>
<totfact> 0.18347257E+04</totfact>
</mgrwt>
</event>
<event>
 4    1  0.6919593E-004  0.2871185E+03  0.7818608E-02  0.1091863E+00
          2   -1    0    0  501    0  0.00000000000E+00  0.00000000000E+00  0.28584177589E+02  0.28584177703E+02  0.25500000000E-02 0.  1.
         -2   -1    0    0    0  501 -0.00000000000E+00 -0.00000000000E+00 -0.72100227335E+03  0.72100227336E+03  0.25500000000E-02 0. -1.
    5000001    1    1    2    0    0  0.11975357854E+03 -0.17186269465E+02 -0.36352063948E+03  0.39078452216E+03  0.77000000000E+02 0.  0.
   -5000001    1    1    2    0    0 -0.11975357854E+03  0.17186269465E+02 -0.32889745629E+03  0.35880192890E+03  0.77000000000E+02 0.  0.
<mgrwt>
<rscale>  0 0.28711849E+03</rscale>
<asrwt>0</asrwt>
<pdfrwt beam="1">  1        2 0.40834544E-02 0.28711849E+03</pdfrwt>
<pdfrwt beam="2">  1       -2 0.10300031E+00 0.28711849E+03</pdfrwt>
<totfact> 0.16515360E+03</totfact>
</mgrwt>
</event>
<event>
 4    1  0.6919593E-004  0.1948996E+03  0.7818608E-02  0.1154115E+00
          2   -1    0    0  501    0  0.00000000000E+00  0.00000000000E+00  0.22318817282E+04  0.22318817282E+04  0.25500000000E-02 0.  1.
         -2   -1    0    0    0  501 -0.00000000000E+00 -0.00000000000E+00 -0.42549128262E+01  0.42549135903E+01  0.25500000000E-02 0. -1.
    5000001    1    1    2    0    0 -0.23729936115E+02  0.33832440518E+02  0.16085922072E+04  0.16109641936E+04  0.77000000000E+02 0.  0.
   -5000001    1    1    2    0    0  0.23729936115E+02 -0.33832440518E+02  0.61903460821E+03  0.62517244826E+03  0.77000000000E+02 0.  0.
<mgrwt>
<rscale>  0 0.19489960E+03</rscale>
<asrwt>0</asrwt>
<pdfrwt beam="1">  1        2 0.31884103E+00 0.19489960E+03</pdfrwt>
<pdfrwt beam="2">  1       -2 0.60784325E-03 0.19489960E+03</pdfrwt>
<totfact> 0.29391337E+04</totfact>
</mgrwt>
</event>
<event>
 4    1  0.6919593E-004  0.2181405E+03  0.7818608E-02  0.1135277E+00
          2   -1    0    0  501    0  0.00000000000E+00  0.00000000000E+00  0.39710104249E+03  0.39710104250E+03  0.25500000000E-02 0.  1.
         -2   -1    0    0    0  501 -0.00000000000E+00 -0.00000000000E+00 -0.29957915998E+02  0.29957916107E+02  0.25500000000E-02 0. -1.
    5000001    1    1    2    0    0  0.55136154025E+02  0.50622796246E+02  0.22095624063E+03  0.24566913370E+03  0.77000000000E+02 0.  0.
   -5000001    1    1    2    0    0 -0.55136154025E+02 -0.50622796246E+02  0.14618688586E+03  0.18138982490E+03  0.77000000000E+02 0.  0.
<mgrwt>
<rscale>  0 0.21814050E+03</rscale>
<asrwt>0</asrwt>
<pdfrwt beam="1">  1        2 0.56728723E-01 0.21814050E+03</pdfrwt>
<pdfrwt beam="2">  1       -2 0.42797021E-02 0.21814050E+03</pdfrwt>
<totfact> 0.21111163E+04</totfact>
</mgrwt>
</event>
<event>
 4    1  0.6919593E-004  0.1947819E+03  0.7818608E-02  0.1154218E+00
         -2   -1    0    0    0  501 -0.00000000000E+00  0.00000000000E+00  0.11154293622E+02  0.11154293913E+02  0.25500000000E-02 0. -1.
          2   -1    0    0  501    0  0.00000000000E+00 -0.00000000000E+00 -0.85034508216E+03  0.85034508217E+03  0.25500000000E-02 0.  1.
    5000001    1    1    2    0    0 -0.94775940667E+01 -0.49998212997E+02 -0.28210442419E+03  0.29681905640E+03  0.77000000000E+02 0.  0.
   -5000001    1    1    2    0    0  0.94775940667E+01  0.49998212997E+02 -0.55708636435E+03  0.56468031968E+03  0.77000000000E+02 0.  0.
<mgrwt>
<rscale>  0 0.19478192E+03</rscale>
<asrwt>0</asrwt>
<pdfrwt beam="1">  1        2 0.12147783E+00 0.19478192E+03</pdfrwt>
<pdfrwt beam="2">  1       -2 0.15934711E-02 0.19478192E+03</pdfrwt>
<totfact> 0.37791562E+04</totfact>
</mgrwt>
</event>
<event>
 4    1  0.6919593E-004  0.2477723E+03  0.7818608E-02  0.1114721E+00
          2   -1    0    0  501    0  0.00000000000E+00  0.00000000000E+00  0.85485112226E+03  0.85485112227E+03  0.25500000000E-02 0.  1.
         -2   -1    0    0    0  501 -0.00000000000E+00 -0.00000000000E+00 -0.17953741051E+02  0.17953741232E+02  0.25500000000E-02 0. -1.
    5000001    1    1    2    0    0 -0.41786602489E+02 -0.36209036183E+02  0.69940985753E+03  0.70580476285E+03  0.77000000000E+02 0.  0.
   -5000001    1    1    2    0    0  0.41786602489E+02  0.36209036183E+02  0.13748752368E+03  0.16700010064E+03  0.77000000000E+02 0.  0.
<mgrwt>
<rscale>  0 0.24777228E+03</rscale>
<asrwt>0</asrwt>
<pdfrwt beam="1">  1        2 0.12212161E+00 0.24777228E+03</pdfrwt>
<pdfrwt beam="2">  1       -2 0.25648197E-02 0.24777228E+03</pdfrwt>
<totfact> 0.18980478E+04</totfact>
</mgrwt>
</event>
<event>
 4    1  0.6919593E-004  0.3007296E+03  0.7818608E-02  0.1084876E+00
         -2   -1    0    0    0  501 -0.00000000000E+00  0.00000000000E+00  0.12496531459E+02  0.12496531719E+02  0.25500000000E-02 0. -1.
          2   -1    0    0  501    0  0.00000000000E+00 -0.00000000000E+00 -0.18092676013E+04  0.18092676013E+04  0.25500000000E-02 0.  1.
    5000001    1    1    2    0    0 -0.58078209917E+02  0.10988577520E+03 -0.11110664092E+04  0.11206451391E+04  0.77000000000E+02 0.  0.
   -5000001    1    1    2    0    0  0.58078209917E+02 -0.10988577520E+03 -0.68570466057E+03  0.70111899388E+03  0.77000000000E+02 0.  0.
<mgrwt>
<rscale>  0 0.30072958E+03</rscale>
<asrwt>0</asrwt>
<pdfrwt beam="1">  1        2 0.25846663E+00 0.30072958E+03</pdfrwt>
<pdfrwt beam="2">  1       -2 0.17852199E-02 0.30072958E+03</pdfrwt>
<totfact> 0.10023328E+04</totfact>
</mgrwt>
</event>
<event>
 4    1  0.6919593E-004  0.2305824E+03  0.7818608E-02  0.1126230E+00
          2   -1    0    0  501    0  0.00000000000E+00  0.00000000000E+00  0.91060996174E+03  0.91060996174E+03  0.25500000000E-02 0.  1.
         -2   -1    0    0    0  501 -0.00000000000E+00 -0.00000000000E+00 -0.14596879873E+02  0.14596880095E+02  0.25500000000E-02 0. -1.
    5000001    1    1    2    0    0 -0.45569451177E+02 -0.66955090052E+02  0.56174491424E+03  0.57275292023E+03  0.77000000000E+02 0.  0.
   -5000001    1    1    2    0    0  0.45569451177E+02  0.66955090052E+02  0.33426816763E+03  0.35245392160E+03  0.77000000000E+02 0.  0.
<mgrwt>
<rscale>  0 0.23058243E+03</rscale>
<asrwt>0</asrwt>
<pdfrwt beam="1">  1        2 0.13008718E+00 0.23058243E+03</pdfrwt>
<pdfrwt beam="2">  1       -2 0.20852678E-02 0.23058243E+03</pdfrwt>
<totfact> 0.23652949E+04</totfact>
</mgrwt>
</event>
<event>
 4    1  0.6919593E-004  0.3076717E+03  0.7818608E-02  0.1081467E+00
          2   -1    0    0  501    0  0.00000000000E+00  0.00000000000E+00  0.26471369683E+04  0.26471369683E+04  0.25500000000E-02 0.  1.
         -2   -1    0    0    0  501 -0.00000000000E+00 -0.00000000000E+00 -0.89400251251E+01  0.89400254887E+01  0.25500000000E-02 0. -1.
    5000001    1    1    2    0    0  0.13255154568E+03  0.12640001798E+02  0.12966040605E+04  0.13056955126E+04  0.77000000000E+02 0.  0.
   -5000001    1    1    2    0    0 -0.13255154568E+03 -0.12640001798E+02  0.13415928827E+04  0.13503814812E+04  0.77000000000E+02 0.  0.
<mgrwt>
<rscale>  0 0.30767172E+03</rscale>
<asrwt>0</asrwt>
<pdfrwt beam="1">  1        2 0.37816292E+00 0.30767172E+03</pdfrwt>
<pdfrwt beam="2">  1       -2 0.12771448E-02 0.30767172E+03</pdfrwt>
<totfact> 0.63106515E+03</totfact>
</mgrwt>
</event>
<event>
 4    1  0.6919593E-004  0.3893304E+03  0.7818608E-02  0.1047538E+00
          2   -1    0    0  501    0  0.00000000000E+00  0.00000000000E+00  0.75968422388E+02  0.75968422431E+02  0.25500000000E-02 0.  1.
         -2   -1    0    0    0  501 -0.00000000000E+00 -0.00000000000E+00 -0.49881965838E+03  0.49881965839E+03  0.25500000000E-02 0. -1.
    5000001    1    1    2    0    0  0.14933752145E+03  0.97350013828E+02 -0.19124644120E+03  0.27254893465E+03  0.77000000000E+02 0.  0.
   -5000001    1    1    2    0    0 -0.14933752145E+03 -0.97350013828E+02 -0.23160479479E+03  0.30223914617E+03  0.77000000000E+02 0.  0.
<mgrwt>
<rscale>  0 0.38933041E+03</rscale>
<asrwt>0</asrwt>
<pdfrwt beam="1">  1        2 0.10852632E-01 0.38933041E+03</pdfrwt>
<pdfrwt beam="2">  1       -2 0.71259949E-01 0.38933041E+03</pdfrwt>
<totfact> 0.10698354E+03</totfact>
</mgrwt>
</event>
<event>
 4    1  0.6919593E-004  0.2336655E+03  0.7818608E-02  0.1124086E+00
          2   -1    0    0  501    0  0.00000000000E+00  0.00000000000E+00  0.88645778067E+03  0.88645778068E+03  0.25500000000E-02 0.  1.
         -2   -1    0    0    0  501 -0.00000000000E+00 -0.00000000000E+00 -0.15398240696E+02  0.15398240907E+02  0.25500000000E-02 0. -1.
    5000001    1    1    2    0    0  0.38741393213E+01  0.77732286021E+02  0.59295110095E+03  0.60297373521E+03  0.77000000000E+02 0.  0.
   -5000001    1    1    2    0    0 -0.38741393213E+01 -0.77732286021E+02  0.27810843903E+03  0.29888228637E+03  0.77000000000E+02 0.  0.
<mgrwt>
<rscale>  0 0.23366549E+03</rscale>
<asrwt>0</asrwt>
<pdfrwt beam="1">  1        2 0.12663683E+00 0.23366549E+03</pdfrwt>
<pdfrwt beam="2">  1       -2 0.21997485E-02 0.23366549E+03</pdfrwt>
<totfact> 0.22655052E+04</totfact>
</mgrwt>
</event>
<event>
 4    1  0.6919593E-004  0.2802643E+03  0.7818608E-02  0.1095545E+00
         -2   -1    0    0    0  501 -0.00000000000E+00  0.00000000000E+00  0.48701492110E+02  0.48701492176E+02  0.25500000000E-02 0. -1.
          2   -1    0    0  501    0  0.00000000000E+00 -0.00000000000E+00 -0.40321188276E+03  0.40321188277E+03  0.25500000000E-02 0.  1.
    5000001    1    1    2    0    0  0.85338279734E+02  0.71397189174E+02 -0.23601227933E+03  0.27204958482E+03  0.77000000000E+02 0.  0.
   -5000001    1    1    2    0    0 -0.85338279734E+02 -0.71397189174E+02 -0.11849811133E+03  0.17986379013E+03  0.77000000000E+02 0.  0.
<mgrwt>
<rscale>  0 0.28026431E+03</rscale>
<asrwt>0</asrwt>
<pdfrwt beam="1">  1        2 0.57601695E-01 0.28026431E+03</pdfrwt>
<pdfrwt beam="2">  1       -2 0.69573563E-02 0.28026431E+03</pdfrwt>
<totfact> 0.10037457E+04</totfact>
</mgrwt>
</event>
<event>
 4    1  0.6919593E-004  0.5584792E+03  0.7818608E-02  0.9995502E-01
          2   -1    0    0  501    0  0.00000000000E+00  0.00000000000E+00  0.19512543867E+03  0.19512543869E+03  0.25500000000E-02 0.  1.
         -2   -1    0    0    0  501 -0.00000000000E+00 -0.00000000000E+00 -0.39961342853E+03  0.39961342854E+03  0.25500000000E-02 0. -1.
    5000001    1    1    2    0    0  0.12248216738E+03 -0.13604471675E+03 -0.31129437650E+03  0.36924684849E+03  0.77000000000E+02 0.  0.
   -5000001    1    1    2    0    0 -0.12248216738E+03  0.13604471675E+03  0.10680638664E+03  0.22549201873E+03  0.77000000000E+02 0.  0.
<mgrwt>
<rscale>  0 0.55847917E+03</rscale>
<asrwt>0</asrwt>
<pdfrwt beam="1">  1        2 0.27875063E-01 0.55847917E+03</pdfrwt>
<pdfrwt beam="2">  1       -2 0.57087632E-01 0.55847917E+03</pdfrwt>
<totfact> 0.56061501E+02</totfact>
</mgrwt>
</event>
<event>
 4    1  0.6919593E-004  0.2813977E+03  0.7818608E-02  0.1094928E+00
          2   -1    0    0  501    0  0.00000000000E+00  0.00000000000E+00  0.20816577602E+04  0.20816577602E+04  0.25500000000E-02 0.  1.
         -2   -1    0    0    0  501 -0.00000000000E+00 -0.00000000000E+00 -0.95098112514E+01  0.95098115933E+01  0.25500000000E-02 0. -1.
    5000001    1    1    2    0    0  0.68889454021E+02 -0.86318483587E+02  0.13398098185E+04  0.13465570866E+04  0.77000000000E+02 0.  0.
   -5000001    1    1    2    0    0 -0.68889454021E+02  0.86318483587E+02  0.73233813036E+03  0.74461048520E+03  0.77000000000E+02 0.  0.
<mgrwt>
<rscale>  0 0.28139775E+03</rscale>
<asrwt>0</asrwt>
<pdfrwt beam="1">  1        2 0.29737973E+00 0.28139775E+03</pdfrwt>
<pdfrwt beam="2">  1       -2 0.13585443E-02 0.28139775E+03</pdfrwt>
<totfact> 0.10996015E+04</totfact>
</mgrwt>
</event>
<event>
 4    1  0.6919593E-004  0.2660668E+03  0.7818608E-02  0.1103552E+00
          2   -1    0    0  501    0  0.00000000000E+00  0.00000000000E+00  0.18143515947E+04  0.18143515947E+04  0.25500000000E-02 0.  1.
         -2   -1    0    0    0  501 -0.00000000000E+00 -0.00000000000E+00 -0.97543821611E+01  0.97543824945E+01  0.25500000000E-02 0. -1.
    5000001    1    1    2    0    0  0.10799949683E+03 -0.94697169243E+01  0.87547115658E+03  0.88551245776E+03  0.77000000000E+02 0.  0.
   -5000001    1    1    2    0    0 -0.10799949683E+03  0.94697169243E+01  0.92912605592E+03  0.93859351939E+03  0.77000000000E+02 0.  0.
<mgrwt>
<rscale>  0 0.26606675E+03</rscale>
<asrwt>0</asrwt>
<pdfrwt beam="1">  1        2 0.25919343E+00 0.26606675E+03</pdfrwt>
<pdfrwt beam="2">  1       -2 0.13934813E-02 0.26606675E+03</pdfrwt>
<totfact> 0.14290652E+04</totfact>
</mgrwt>
</event>
<event>
 4    1  0.6919593E-004  0.3308199E+03  0.7818608E-02  0.1070775E+00
         -2   -1    0    0    0  501 -0.00000000000E+00  0.00000000000E+00  0.14175553565E+02  0.14175553794E+02  0.25500000000E-02 0. -1.
          2   -1    0    0  501    0  0.00000000000E+00 -0.00000000000E+00 -0.19301156426E+04  0.19301156426E+04  0.25500000000E-02 0.  1.
    5000001    1    1    2    0    0  0.86992281452E+01  0.14274346475E+03 -0.11419630936E+04  0.11534557124E+04  0.77000000000E+02 0.  0.
   -5000001    1    1    2    0    0 -0.86992281452E+01 -0.14274346475E+03 -0.77397699535E+03  0.79083548393E+03  0.77000000000E+02 0.  0.
<mgrwt>
<rscale>  0 0.33081994E+03</rscale>
<asrwt>0</asrwt>
<pdfrwt beam="1">  1        2 0.27573064E+00 0.33081994E+03</pdfrwt>
<pdfrwt beam="2">  1       -2 0.20250803E-02 0.33081994E+03</pdfrwt>
<totfact> 0.72665889E+03</totfact>
</mgrwt>
</event>
<event>
 4    1  0.6919593E-004  0.2952449E+03  0.7818608E-02  0.1087642E+00
         -2   -1    0    0    0  501 -0.00000000000E+00  0.00000000000E+00  0.45901189678E+02  0.45901189748E+02  0.25500000000E-02 0. -1.
          2   -1    0    0  501    0  0.00000000000E+00 -0.00000000000E+00 -0.47476731199E+03  0.47476731199E+03  0.25500000000E-02 0.  1.
    5000001    1    1    2    0    0  0.30474085050E+02  0.82026310078E+02 -0.54677770525E+02  0.12874643294E+03  0.77000000000E+02 0.  0.
   -5000001    1    1    2    0    0 -0.30474085050E+02 -0.82026310078E+02 -0.37418835178E+03  0.39192206880E+03  0.77000000000E+02 0.  0.
<mgrwt>
<rscale>  0 0.29524488E+03</rscale>
<asrwt>0</asrwt>
<pdfrwt beam="1">  1        2 0.67823899E-01 0.29524488E+03</pdfrwt>
<pdfrwt beam="2">  1       -2 0.65573131E-02 0.29524488E+03</pdfrwt>
<totfact> 0.92233264E+03</totfact>
</mgrwt>
</event>
<event>
 4    1  0.6919593E-004  0.2637957E+03  0.7818608E-02  0.1104884E+00
          2   -1    0    0  501    0  0.00000000000E+00  0.00000000000E+00  0.27708171497E+03  0.27708171498E+03  0.25500000000E-02 0.  1.
         -2   -1    0    0    0  501 -0.00000000000E+00 -0.00000000000E+00 -0.62786668738E+02  0.62786668790E+02  0.25500000000E-02 0. -1.
    5000001    1    1    2    0    0  0.60269534464E+02  0.24098765961E+01  0.22115119173E+03  0.24181619858E+03  0.77000000000E+02 0.  0.
   -5000001    1    1    2    0    0 -0.60269534464E+02 -0.24098765961E+01 -0.68561455025E+01  0.98052185192E+02  0.77000000000E+02 0.  0.
<mgrwt>
<rscale>  0 0.26379566E+03</rscale>
<asrwt>0</asrwt>
<pdfrwt beam="1">  1        2 0.39583103E-01 0.26379566E+03</pdfrwt>
<pdfrwt beam="2">  1       -2 0.89695240E-02 0.26379566E+03</pdfrwt>
<totfact> 0.10086350E+04</totfact>
</mgrwt>
</event>
<event>
 4    1  0.6919593E-004  0.1989914E+03  0.7818608E-02  0.1150593E+00
         -2   -1    0    0    0  501 -0.00000000000E+00  0.00000000000E+00  0.33185196807E+02  0.33185196904E+02  0.25500000000E-02 0. -1.
          2   -1    0    0  501    0  0.00000000000E+00 -0.00000000000E+00 -0.29830750823E+03  0.29830750824E+03  0.25500000000E-02 0.  1.
    5000001    1    1    2    0    0 -0.43546145977E+01 -0.40569616277E+02 -0.21254932047E+03  0.22971954654E+03  0.77000000000E+02 0.  0.
   -5000001    1    1    2    0    0  0.43546145977E+01  0.40569616277E+02 -0.52572990950E+02  0.10177315860E+03  0.77000000000E+02 0.  0.
<mgrwt>
<rscale>  0 0.19899139E+03</rscale>
<asrwt>0</asrwt>
<pdfrwt beam="1">  1        2 0.42615357E-01 0.19899139E+03</pdfrwt>
<pdfrwt beam="2">  1       -2 0.47407426E-02 0.19899139E+03</pdfrwt>
<totfact> 0.24421941E+04</totfact>
</mgrwt>
</event>
<event>
 4    1  0.6919593E-004  0.3813226E+03  0.7818608E-02  0.1050446E+00
          2   -1    0    0  501    0  0.00000000000E+00  0.00000000000E+00  0.54067187809E+03  0.54067187809E+03  0.25500000000E-02 0.  1.
         -2   -1    0    0    0  501 -0.00000000000E+00 -0.00000000000E+00 -0.67234380948E+02  0.67234380996E+02  0.25500000000E-02 0. -1.
    5000001    1    1    2    0    0  0.10186341364E+02 -0.82279656476E+02 -0.79230081085E+01  0.11342608817E+03  0.77000000000E+02 0.  0.
   -5000001    1    1    2    0    0 -0.10186341364E+02  0.82279656476E+02  0.48136050525E+03  0.49448017092E+03  0.77000000000E+02 0.  0.
<mgrwt>
<rscale>  0 0.38132264E+03</rscale>
<asrwt>0</asrwt>
<pdfrwt beam="1">  1        2 0.77238841E-01 0.38132264E+03</pdfrwt>
<pdfrwt beam="2">  1       -2 0.96049114E-02 0.38132264E+03</pdfrwt>
<totfact> 0.44128915E+03</totfact>
</mgrwt>
</event>
<event>
 4    1  0.6919593E-004  0.1638696E+03  0.7818608E-02  0.1184396E+00
         -2   -1    0    0    0  501 -0.00000000000E+00  0.00000000000E+00  0.89272102982E+01  0.89272106624E+01  0.25500000000E-02 0. -1.
          2   -1    0    0  501    0  0.00000000000E+00 -0.00000000000E+00 -0.75200539499E+03  0.75200539500E+03  0.25500000000E-02 0.  1.
    5000001    1    1    2    0    0  0.26706465429E+02  0.64170165300E+01 -0.39692905143E+03  0.40526051530E+03  0.77000000000E+02 0.  0.
   -5000001    1    1    2    0    0 -0.26706465429E+02 -0.64170165300E+01 -0.34614913327E+03  0.35567209036E+03  0.77000000000E+02 0.  0.
<mgrwt>
<rscale>  0 0.16386959E+03</rscale>
<asrwt>0</asrwt>
<pdfrwt beam="1">  1        2 0.10742930E+00 0.16386959E+03</pdfrwt>
<pdfrwt beam="2">  1       -2 0.12753163E-02 0.16386959E+03</pdfrwt>
<totfact> 0.59706864E+04</totfact>
</mgrwt>
</event>
<event>
 4    1  0.6919593E-004  0.2076219E+03  0.7818608E-02  0.1143463E+00
         -2   -1    0    0    0  501 -0.00000000000E+00  0.00000000000E+00  0.69236078995E+02  0.69236079042E+02  0.25500000000E-02 0. -1.
          2   -1    0    0  501    0  0.00000000000E+00 -0.00000000000E+00 -0.15565174567E+03  0.15565174569E+03  0.25500000000E-02 0.  1.
    5000001    1    1    2    0    0  0.34827618311E+02 -0.60202033223E+02 -0.46712449352E+02  0.11379060034E+03  0.77000000000E+02 0.  0.
   -5000001    1    1    2    0    0 -0.34827618311E+02  0.60202033223E+02 -0.39703217319E+02  0.11109722439E+03  0.77000000000E+02 0.  0.
<mgrwt>
<rscale>  0 0.20762193E+03</rscale>
<asrwt>0</asrwt>
<pdfrwt beam="1">  1        2 0.22235964E-01 0.20762193E+03</pdfrwt>
<pdfrwt beam="2">  1       -2 0.98908685E-02 0.20762193E+03</pdfrwt>
<totfact> 0.16057605E+04</totfact>
</mgrwt>
</event>
<event>
 4    1  0.6919593E-004  0.2252933E+03  0.7818608E-02  0.1129997E+00
          2   -1    0    0  501    0  0.00000000000E+00  0.00000000000E+00  0.40761770761E+03  0.40761770762E+03  0.25500000000E-02 0.  1.
         -2   -1    0    0    0  501 -0.00000000000E+00 -0.00000000000E+00 -0.31130323253E+02  0.31130323358E+02  0.25500000000E-02 0. -1.
    5000001    1    1    2    0    0 -0.37451860686E+02 -0.29221390022E+02  0.31893703925E+03  0.33152129119E+03  0.77000000000E+02 0.  0.
   -5000001    1    1    2    0    0  0.37451860686E+02  0.29221390022E+02  0.57550345101E+02  0.10722673978E+03  0.77000000000E+02 0.  0.
<mgrwt>
<rscale>  0 0.22529333E+03</rscale>
<asrwt>0</asrwt>
<pdfrwt beam="1">  1        2 0.58231100E-01 0.22529333E+03</pdfrwt>
<pdfrwt beam="2">  1       -2 0.44471891E-02 0.22529333E+03</pdfrwt>
<totfact> 0.19415422E+04</totfact>
</mgrwt>
</event>
<event>
 4    1  0.6919593E-004  0.2102531E+03  0.7818608E-02  0.1141366E+00
         -2   -1    0    0    0  501 -0.00000000000E+00  0.00000000000E+00  0.50627300839E+03  0.50627300839E+03  0.25500000000E-02 0. -1.
          2   -1    0    0  501    0  0.00000000000E+00 -0.00000000000E+00 -0.21829317359E+02  0.21829317508E+02  0.25500000000E-02 0.  1.
    5000001    1    1    2    0    0 -0.64793889375E+02 -0.20160594160E+02  0.18506119926E+03  0.21161603231E+03  0.77000000000E+02 0.  0.
   -5000001    1    1    2    0    0  0.64793889375E+02  0.20160594160E+02  0.29938249177E+03  0.31648629360E+03  0.77000000000E+02 0.  0.
<mgrwt>
<rscale>  0 0.21025313E+03</rscale>
<asrwt>0</asrwt>
<pdfrwt beam="1">  1        2 0.31184737E-02 0.21025313E+03</pdfrwt>
<pdfrwt beam="2">  1       -2 0.72324720E-01 0.21025313E+03</pdfrwt>
<totfact> 0.51744739E+03</totfact>
</mgrwt>
</event>
<event>
 4    1  0.6919593E-004  0.2429219E+03  0.7818608E-02  0.1117862E+00
         -2   -1    0    0    0  501 -0.00000000000E+00  0.00000000000E+00  0.18306535811E+03  0.18306535813E+03  0.25500000000E-02 0. -1.
          2   -1    0    0  501    0  0.00000000000E+00 -0.00000000000E+00 -0.80587382429E+02  0.80587382469E+02  0.25500000000E-02 0.  1.
    5000001    1    1    2    0    0 -0.37809273378E+02  0.50699267812E+02  0.12661972529E+03  0.16112576374E+03  0.77000000000E+02 0.  0.
   -5000001    1    1    2    0    0  0.37809273378E+02 -0.50699267812E+02 -0.24141749600E+02  0.10252697686E+03  0.77000000000E+02 0.  0.
<mgrwt>
<rscale>  0 0.24292186E+03</rscale>
<asrwt>0</asrwt>
<pdfrwt beam="1">  1        2 0.11512483E-01 0.24292186E+03</pdfrwt>
<pdfrwt beam="2">  1       -2 0.26152194E-01 0.24292186E+03</pdfrwt>
<totfact> 0.69441443E+03</totfact>
</mgrwt>
</event>
<event>
 4    1  0.6919593E-004  0.2010006E+03  0.7818608E-02  0.1148898E+00
          2   -1    0    0  501    0  0.00000000000E+00  0.00000000000E+00  0.43615608238E+03  0.43615608238E+03  0.25500000000E-02 0.  1.
         -2   -1    0    0    0  501 -0.00000000000E+00 -0.00000000000E+00 -0.23157563993E+02  0.23157564133E+02  0.25500000000E-02 0. -1.
    5000001    1    1    2    0    0 -0.63383327118E+02 -0.19406846528E+01  0.17850285155E+03  0.20448344780E+03  0.77000000000E+02 0.  0.
   -5000001    1    1    2    0    0  0.63383327118E+02  0.19406846528E+01  0.23449566684E+03  0.25483019872E+03  0.77000000000E+02 0.  0.
<mgrwt>
<rscale>  0 0.20100062E+03</rscale>
<asrwt>0</asrwt>
<pdfrwt beam="1">  1        2 0.62308015E-01 0.20100062E+03</pdfrwt>
<pdfrwt beam="2">  1       -2 0.33082232E-02 0.20100062E+03</pdfrwt>
<totfact> 0.27862691E+04</totfact>
</mgrwt>
</event>
<event>
 4    1  0.6919593E-004  0.3578081E+03  0.7818608E-02  0.1059455E+00
         -2   -1    0    0    0  501 -0.00000000000E+00  0.00000000000E+00  0.20766881324E+02  0.20766881481E+02  0.25500000000E-02 0. -1.
          2   -1    0    0  501    0  0.00000000000E+00 -0.00000000000E+00 -0.15412356985E+04  0.15412356985E+04  0.25500000000E-02 0.  1.
    5000001    1    1    2    0    0  0.39415502358E+02 -0.14285135488E+03 -0.10403594581E+04  0.10536777939E+04  0.77000000000E+02 0.  0.
   -5000001    1    1    2    0    0 -0.39415502358E+02  0.14285135488E+03 -0.48010935908E+03  0.50832478603E+03  0.77000000000E+02 0.  0.
<mgrwt>
<rscale>  0 0.35780810E+03</rscale>
<asrwt>0</asrwt>
<pdfrwt beam="1">  1        2 0.22017646E+00 0.35780810E+03</pdfrwt>
<pdfrwt beam="2">  1       -2 0.29666983E-02 0.35780810E+03</pdfrwt>
<totfact> 0.64278862E+03</totfact>
</mgrwt>
</event>
<event>
 4    1  0.6919593E-004  0.2054820E+03  0.7818608E-02  0.1145195E+00
          2   -1    0    0  501    0  0.00000000000E+00  0.00000000000E+00  0.15380024295E+04  0.15380024296E+04  0.25500000000E-02 0.  1.
         -2   -1    0    0    0  501 -0.00000000000E+00 -0.00000000000E+00 -0.68632585809E+01  0.68632590546E+01  0.25500000000E-02 0. -1.
    5000001    1    1    2    0    0  0.12856434328E+02 -0.59768844306E+02  0.98974801603E+03  0.99461939348E+03  0.77000000000E+02 0.  0.
   -5000001    1    1    2    0    0 -0.12856434328E+02  0.59768844306E+02  0.54139115494E+03  0.55024629513E+03  0.77000000000E+02 0.  0.
<mgrwt>
<rscale>  0 0.20548196E+03</rscale>
<asrwt>0</asrwt>
<pdfrwt beam="1">  1        2 0.21971458E+00 0.20548196E+03</pdfrwt>
<pdfrwt beam="2">  1       -2 0.98046578E-03 0.20548196E+03</pdfrwt>
<totfact> 0.32189183E+04</totfact>
</mgrwt>
</event>
<event>
 4    1  0.6919593E-004  0.3909057E+03  0.7818608E-02  0.1046975E+00
         -2   -1    0    0    0  501 -0.00000000000E+00  0.00000000000E+00  0.29187743551E+03  0.29187743552E+03  0.25500000000E-02 0. -1.
          2   -1    0    0  501    0  0.00000000000E+00 -0.00000000000E+00 -0.13088309699E+03  0.13088309701E+03  0.25500000000E-02 0.  1.
    5000001    1    1    2    0    0  0.39641987304E+02  0.12806232486E+03 -0.48836416450E+02  0.16212785627E+03  0.77000000000E+02 0.  0.
   -5000001    1    1    2    0    0 -0.39641987304E+02 -0.12806232486E+03  0.20983075497E+03  0.26063267626E+03  0.77000000000E+02 0.  0.
<mgrwt>
<rscale>  0 0.39090573E+03</rscale>
<asrwt>0</asrwt>
<pdfrwt beam="1">  1        2 0.18697586E-01 0.39090573E+03</pdfrwt>
<pdfrwt beam="2">  1       -2 0.41696776E-01 0.39090573E+03</pdfrwt>
<totfact> 0.16635332E+03</totfact>
</mgrwt>
</event>
<event>
 4    1  0.6919593E-004  0.1903464E+03  0.7818608E-02  0.1158149E+00
          2   -1    0    0  501    0  0.00000000000E+00  0.00000000000E+00  0.28760942313E+02  0.28760942426E+02  0.25500000000E-02 0.  1.
         -2   -1    0    0    0  501 -0.00000000000E+00 -0.00000000000E+00 -0.31493887570E+03  0.31493887571E+03  0.25500000000E-02 0. -1.
    5000001    1    1    2    0    0 -0.11409935093E+02 -0.52758025969E+02 -0.16958616327E+03  0.19391251299E+03  0.77000000000E+02 0.  0.
   -5000001    1    1    2    0    0  0.11409935093E+02  0.52758025969E+02 -0.11659177012E+03  0.14978730514E+03  0.77000000000E+02 0.  0.
<mgrwt>
<rscale>  0 0.19034641E+03</rscale>
<asrwt>0</asrwt>
<pdfrwt beam="1">  1        2 0.41087062E-02 0.19034641E+03</pdfrwt>
<pdfrwt beam="2">  1       -2 0.44991266E-01 0.19034641E+03</pdfrwt>
<totfact> 0.93651564E+03</totfact>
</mgrwt>
</event>
<event>
 4    1  0.6919593E-004  0.2474101E+03  0.7818608E-02  0.1114953E+00
         -2   -1    0    0    0  501 -0.00000000000E+00  0.00000000000E+00  0.20627361677E+03  0.20627361678E+03  0.25500000000E-02 0. -1.
          2   -1    0    0  501    0  0.00000000000E+00 -0.00000000000E+00 -0.74187600103E+02  0.74187600147E+02  0.25500000000E-02 0.  1.
    5000001    1    1    2    0    0  0.57804105183E+02 -0.41734806684E+01  0.15396161314E+03  0.18163675519E+03  0.77000000000E+02 0.  0.
   -5000001    1    1    2    0    0 -0.57804105183E+02  0.41734806684E+01 -0.21875596472E+02  0.98824461739E+02  0.77000000000E+02 0.  0.
<mgrwt>
<rscale>  0 0.24741014E+03</rscale>
<asrwt>0</asrwt>
<pdfrwt beam="1">  1        2 0.10598229E-01 0.24741014E+03</pdfrwt>
<pdfrwt beam="2">  1       -2 0.29467659E-01 0.24741014E+03</pdfrwt>
<totfact> 0.62122418E+03</totfact>
</mgrwt>
</event>
<event>
 4    1  0.6919593E-004  0.3603823E+03  0.7818608E-02  0.1058433E+00
          2   -1    0    0  501    0  0.00000000000E+00  0.00000000000E+00  0.16292588569E+03  0.16292588571E+03  0.25500000000E-02 0.  1.
         -2   -1    0    0    0  501 -0.00000000000E+00 -0.00000000000E+00 -0.19928603251E+03  0.19928603253E+03  0.25500000000E-02 0. -1.
    5000001    1    1    2    0    0 -0.14454739281E+03 -0.63135902169E+02  0.22766940116E+02  0.17699554930E+03  0.77000000000E+02 0.  0.
   -5000001    1    1    2    0    0  0.14454739281E+03  0.63135902169E+02 -0.59127086939E+02  0.18521636893E+03  0.77000000000E+02 0.  0.
<mgrwt>
<rscale>  0 0.36038232E+03</rscale>
<asrwt>0</asrwt>
<pdfrwt beam="1">  1        2 0.23275127E-01 0.36038232E+03</pdfrwt>
<pdfrwt beam="2">  1       -2 0.28469433E-01 0.36038232E+03</pdfrwt>
<totfact> 0.26391292E+03</totfact>
</mgrwt>
</event>
<event>
 4    1  0.6919593E-004  0.2947689E+03  0.7818608E-02  0.1087885E+00
          2   -1    0    0  501    0  0.00000000000E+00  0.00000000000E+00  0.21474522891E+04  0.21474522891E+04  0.25500000000E-02 0.  1.
         -2   -1    0    0    0  501 -0.00000000000E+00 -0.00000000000E+00 -0.10115324910E+02  0.10115325232E+02  0.25500000000E-02 0. -1.
    5000001    1    1    2    0    0 -0.98339396350E+02 -0.10715640603E+02  0.16360006877E+04  0.16407963652E+04  0.77000000000E+02 0.  0.
   -5000001    1    1    2    0    0  0.98339396350E+02  0.10715640603E+02  0.50133627647E+03  0.51677124913E+03  0.77000000000E+02 0.  0.
<mgrwt>
<rscale>  0 0.29476891E+03</rscale>
<asrwt>0</asrwt>
<pdfrwt beam="1">  1        2 0.30677910E+00 0.29476891E+03</pdfrwt>
<pdfrwt beam="2">  1       -2 0.14450455E-02 0.29476891E+03</pdfrwt>
<totfact> 0.93349734E+03</totfact>
</mgrwt>
</event>
<event>
 4    1  0.6919593E-004  0.5725770E+03  0.7818608E-02  0.9963992E-01
          2   -1    0    0  501    0  0.00000000000E+00  0.00000000000E+00  0.10626874439E+04  0.10626874439E+04  0.25500000000E-02 0.  1.
         -2   -1    0    0    0  501 -0.00000000000E+00 -0.00000000000E+00 -0.77126268935E+02  0.77126268977E+02  0.25500000000E-02 0. -1.
    5000001    1    1    2    0    0  0.18106129356E+03  0.16549912353E+03  0.74347079849E+03  0.78667082069E+03  0.77000000000E+02 0.  0.
   -5000001    1    1    2    0    0 -0.18106129356E+03 -0.16549912353E+03  0.24209037643E+03  0.35314289214E+03  0.77000000000E+02 0.  0.
<mgrwt>
<rscale>  0 0.57257704E+03</rscale>
<asrwt>0</asrwt>
<pdfrwt beam="1">  1        2 0.15181248E+00 0.57257704E+03</pdfrwt>
<pdfrwt beam="2">  1       -2 0.11018039E-01 0.57257704E+03</pdfrwt>
<totfact> 0.15145745E+03</totfact>
</mgrwt>
</event>
<event>
 4    1  0.6919593E-004  0.2074677E+03  0.7818608E-02  0.1143587E+00
          2   -1    0    0  501    0  0.00000000000E+00  0.00000000000E+00  0.26006605774E+04  0.26006605774E+04  0.25500000000E-02 0.  1.
         -2   -1    0    0    0  501 -0.00000000000E+00 -0.00000000000E+00 -0.41376828903E+01  0.41376836760E+01  0.25500000000E-02 0. -1.
    5000001    1    1    2    0    0 -0.64546850346E+02  0.25795425135E+02  0.12995139573E+04  0.13036476614E+04  0.77000000000E+02 0.  0.
   -5000001    1    1    2    0    0  0.64546850346E+02 -0.25795425135E+02  0.12970089372E+04  0.13011505997E+04  0.77000000000E+02 0.  0.
<mgrwt>
<rscale>  0 0.20746768E+03</rscale>
<asrwt>0</asrwt>
<pdfrwt beam="1">  1        2 0.37152254E+00 0.20746768E+03</pdfrwt>
<pdfrwt beam="2">  1       -2 0.59109824E-03 0.20746768E+03</pdfrwt>
<totfact> 0.20218127E+04</totfact>
</mgrwt>
</event>
<event>
 4    1  0.6919593E-004  0.2217986E+03  0.7818608E-02  0.1132549E+00
         -2   -1    0    0    0  501 -0.00000000000E+00  0.00000000000E+00  0.33636203380E+02  0.33636203477E+02  0.25500000000E-02 0. -1.
          2   -1    0    0  501    0  0.00000000000E+00 -0.00000000000E+00 -0.36563757709E+03  0.36563757710E+03  0.25500000000E-02 0.  1.
    5000001    1    1    2    0    0  0.70268696957E+02 -0.37776425936E+02 -0.16201106084E+03  0.19631946404E+03  0.77000000000E+02 0.  0.
   -5000001    1    1    2    0    0 -0.70268696957E+02  0.37776425936E+02 -0.16999031287E+03  0.20295431653E+03  0.77000000000E+02 0.  0.
<mgrwt>
<rscale>  0 0.22179865E+03</rscale>
<asrwt>0</asrwt>
<pdfrwt beam="1">  1        2 0.52233937E-01 0.22179865E+03</pdfrwt>
<pdfrwt beam="2">  1       -2 0.48051721E-02 0.22179865E+03</pdfrwt>
<totfact> 0.19397555E+04</totfact>
</mgrwt>
</event>
<event>
 4    1  0.6919593E-004  0.3131742E+03  0.7818608E-02  0.1078834E+00
         -2   -1    0    0    0  501 -0.00000000000E+00  0.00000000000E+00  0.12748127966E+02  0.12748128221E+02  0.25500000000E-02 0. -1.
          2   -1    0    0  501    0  0.00000000000E+00 -0.00000000000E+00 -0.19233815814E+04  0.19233815814E+04  0.25500000000E-02 0.  1.
    5000001    1    1    2    0    0 -0.45422372357E+02 -0.12716829877E+03 -0.10718894157E+04  0.10831024364E+04  0.77000000000E+02 0.  0.
   -5000001    1    1    2    0    0  0.45422372357E+02  0.12716829877E+03 -0.83874403769E+03  0.85302727324E+03  0.77000000000E+02 0.  0.
<mgrwt>
<rscale>  0 0.31317417E+03</rscale>
<asrwt>0</asrwt>
<pdfrwt beam="1">  1        2 0.27476861E+00 0.31317417E+03</pdfrwt>
<pdfrwt beam="2">  1       -2 0.18211624E-02 0.31317417E+03</pdfrwt>
<totfact> 0.85605716E+03</totfact>
</mgrwt>
</event>
<event>
 4    1  0.6919593E-004  0.2540407E+03  0.7818608E-02  0.1110777E+00
         -2   -1    0    0    0  501 -0.00000000000E+00  0.00000000000E+00  0.67204384775E+02  0.67204384823E+02  0.25500000000E-02 0. -1.
          2   -1    0    0  501    0  0.00000000000E+00 -0.00000000000E+00 -0.24007612781E+03  0.24007612782E+03  0.25500000000E-02 0.  1.
    5000001    1    1    2    0    0 -0.46740929161E-01 -0.78785906888E+02 -0.99554532111E+01  0.11061343660E+03  0.77000000000E+02 0.  0.
   -5000001    1    1    2    0    0  0.46740929161E-01  0.78785906888E+02 -0.16291628982E+03  0.19666707604E+03  0.77000000000E+02 0.  0.
<mgrwt>
<rscale>  0 0.25404069E+03</rscale>
<asrwt>0</asrwt>
<pdfrwt beam="1">  1        2 0.34296589E-01 0.25404069E+03</pdfrwt>
<pdfrwt beam="2">  1       -2 0.96006265E-02 0.25404069E+03</pdfrwt>
<totfact> 0.10560688E+04</totfact>
</mgrwt>
</event>
<event>
 4    1  0.6919593E-004  0.2365619E+03  0.7818608E-02  0.1122105E+00
         -2   -1    0    0    0  501 -0.00000000000E+00  0.00000000000E+00  0.42687446222E+02  0.42687446298E+02  0.25500000000E-02 0. -1.
          2   -1    0    0  501    0  0.00000000000E+00 -0.00000000000E+00 -0.32773986045E+03  0.32773986046E+03  0.25500000000E-02 0.  1.
    5000001    1    1    2    0    0  0.56795823853E+02  0.50440777963E+02 -0.21748162795E+03  0.24289359025E+03  0.77000000000E+02 0.  0.
   -5000001    1    1    2    0    0 -0.56795823853E+02 -0.50440777963E+02 -0.67570786283E+02  0.12753371651E+03  0.77000000000E+02 0.  0.
<mgrwt>
<rscale>  0 0.23656185E+03</rscale>
<asrwt>0</asrwt>
<pdfrwt beam="1">  1        2 0.46819979E-01 0.23656185E+03</pdfrwt>
<pdfrwt beam="2">  1       -2 0.60982068E-02 0.23656185E+03</pdfrwt>
<totfact> 0.15242166E+04</totfact>
</mgrwt>
</event>
<event>
 4    1  0.6919593E-004  0.3336854E+03  0.7818608E-02  0.1069518E+00
          2   -1    0    0  501    0  0.00000000000E+00  0.00000000000E+00  0.66934387242E+03  0.66934387242E+03  0.25500000000E-02 0.  1.
         -2   -1    0    0    0  501 -0.00000000000E+00 -0.00000000000E+00 -0.41587724824E+02  0.41587724902E+02  0.25500000000E-02 0. -1.
    5000001    1    1    2    0    0 -0.11812520945E+03  0.46443145347E+01  0.50363237940E+03  0.52301979728E+03  0.77000000000E+02 0.  0.
   -5000001    1    1    2    0    0  0.11812520945E+03 -0.46443145347E+01  0.12412376819E+03  0.18791180004E+03  0.77000000000E+02 0.  0.
<mgrwt>
<rscale>  0 0.33368541E+03</rscale>
<asrwt>0</asrwt>
<pdfrwt beam="1">  1        2 0.95620550E-01 0.33368541E+03</pdfrwt>
<pdfrwt beam="2">  1       -2 0.59411037E-02 0.33368541E+03</pdfrwt>
<totfact> 0.72995183E+03</totfact>
</mgrwt>
</event>
<event>
 4    1  0.6919593E-004  0.2373238E+03  0.7818608E-02  0.1121589E+00
          2   -1    0    0  501    0  0.00000000000E+00  0.00000000000E+00  0.11932811124E+02  0.11932811397E+02  0.25500000000E-02 0.  1.
         -2   -1    0    0    0  501 -0.00000000000E+00 -0.00000000000E+00 -0.11799936095E+04  0.11799936095E+04  0.25500000000E-02 0. -1.
    5000001    1    1    2    0    0  0.41544507364E+01 -0.78491072273E+02 -0.80714626291E+03  0.81461168517E+03  0.77000000000E+02 0.  0.
   -5000001    1    1    2    0    0 -0.41544507364E+01  0.78491072273E+02 -0.36091453547E+03  0.37731473574E+03  0.77000000000E+02 0.  0.
<mgrwt>
<rscale>  0 0.23732375E+03</rscale>
<asrwt>0</asrwt>
<pdfrwt beam="1">  1        2 0.17046881E-02 0.23732375E+03</pdfrwt>
<pdfrwt beam="2">  1       -2 0.16857044E+00 0.23732375E+03</pdfrwt>
<totfact> 0.15830142E+03</totfact>
</mgrwt>
</event>
<event>
 4    1  0.6919593E-004  0.2151199E+03  0.7818608E-02  0.1137575E+00
          2   -1    0    0  501    0  0.00000000000E+00  0.00000000000E+00  0.14422332122E+04  0.14422332122E+04  0.25500000000E-02 0. -1.
         -2   -1    0    0    0  501 -0.00000000000E+00 -0.00000000000E+00 -0.80216892586E+01  0.80216896640E+01  0.25500000000E-02 0.  1.
    5000001    1    1    2    0    0  0.73686902436E+02 -0.11882365835E+02  0.77318557218E+03  0.78058688128E+03  0.77000000000E+02 0.  0.
   -5000001    1    1    2    0    0 -0.73686902436E+02  0.11882365835E+02  0.66102595079E+03  0.66966802061E+03  0.77000000000E+02 0.  0.
<mgrwt>
<rscale>  0 0.21511994E+03</rscale>
<asrwt>0</asrwt>
<pdfrwt beam="1">  1        2 0.20603332E+00 0.21511994E+03</pdfrwt>
<pdfrwt beam="2">  1       -2 0.11459556E-02 0.21511994E+03</pdfrwt>
<totfact> 0.28771461E+04</totfact>
</mgrwt>
</event>
<event>
 4    1  0.6919593E-004  0.2193841E+03  0.7818608E-02  0.1134343E+00
          2   -1    0    0  501    0  0.00000000000E+00  0.00000000000E+00  0.83408430272E+03  0.83408430272E+03  0.25500000000E-02 0.  1.
         -2   -1    0    0    0  501 -0.00000000000E+00 -0.00000000000E+00 -0.14425808868E+02  0.14425809094E+02  0.25500000000E-02 0. -1.
    5000001    1    1    2    0    0  0.35912181671E+02  0.17340209760E+02  0.15000280905E+03  0.17326341331E+03  0.77000000000E+02 0.  0.
   -5000001    1    1    2    0    0 -0.35912181671E+02 -0.17340209760E+02  0.66965568480E+03  0.67524669851E+03  0.77000000000E+02 0.  0.
<mgrwt>
<rscale>  0 0.21938405E+03</rscale>
<asrwt>0</asrwt>
<pdfrwt beam="1">  1        2 0.11915495E+00 0.21938405E+03</pdfrwt>
<pdfrwt beam="2">  1       -2 0.20608290E-02 0.21938405E+03</pdfrwt>
<totfact> 0.26824002E+04</totfact>
</mgrwt>
</event>
<event>
 4    1  0.6919593E-004  0.2616452E+03  0.7818608E-02  0.1106159E+00
         -2   -1    0    0    0  501 -0.00000000000E+00  0.00000000000E+00  0.35017046774E+02  0.35017046867E+02  0.25500000000E-02 0. -1.
          2   -1    0    0  501    0  0.00000000000E+00 -0.00000000000E+00 -0.48874900249E+03  0.48874900250E+03  0.25500000000E-02 0.  1.
    5000001    1    1    2    0    0  0.96478516034E+02  0.36653690913E+02 -0.27312269185E+03  0.30195463553E+03  0.77000000000E+02 0.  0.
   -5000001    1    1    2    0    0 -0.96478516034E+02 -0.36653690913E+02 -0.18060926386E+03  0.22181141383E+03  0.77000000000E+02 0.  0.
<mgrwt>
<rscale>  0 0.26164515E+03</rscale>
<asrwt>0</asrwt>
<pdfrwt beam="1">  1        2 0.69821282E-01 0.26164515E+03</pdfrwt>
<pdfrwt beam="2">  1       -2 0.50024355E-02 0.26164515E+03</pdfrwt>
<totfact> 0.13450810E+04</totfact>
</mgrwt>
</event>
<event>
 4    1  0.6919593E-004  0.2843020E+03  0.7818608E-02  0.1093362E+00
         -2   -1    0    0    0  501 -0.00000000000E+00  0.00000000000E+00  0.15508592969E+02  0.15508593178E+02  0.25500000000E-02 0. -1.
          2   -1    0    0  501    0  0.00000000000E+00 -0.00000000000E+00 -0.13029490814E+04  0.13029490814E+04  0.25500000000E-02 0.  1.
    5000001    1    1    2    0    0  0.63559546768E+02  0.60017557600E+02 -0.10215002215E+04  0.10281214061E+04  0.77000000000E+02 0.  0.
   -5000001    1    1    2    0    0 -0.63559546768E+02 -0.60017557600E+02 -0.26594026692E+03  0.29033626844E+03  0.77000000000E+02 0.  0.
<mgrwt>
<rscale>  0 0.28430200E+03</rscale>
<asrwt>0</asrwt>
<pdfrwt beam="1">  1        2 0.18613551E+00 0.28430200E+03</pdfrwt>
<pdfrwt beam="2">  1       -2 0.22155141E-02 0.28430200E+03</pdfrwt>
<totfact> 0.13112131E+04</totfact>
</mgrwt>
</event>
<event>
 4    1  0.6919593E-004  0.2139016E+03  0.7818608E-02  0.1138513E+00
         -2   -1    0    0    0  501 -0.00000000000E+00  0.00000000000E+00  0.25180338578E+02  0.25180338707E+02  0.25500000000E-02 0. -1.
          2   -1    0    0  501    0  0.00000000000E+00 -0.00000000000E+00 -0.45426214537E+03  0.45426214538E+03  0.25500000000E-02 0.  1.
    5000001    1    1    2    0    0 -0.29629756594E+02  0.67853152334E+02 -0.20278641309E+03  0.22920144435E+03  0.77000000000E+02 0.  0.
   -5000001    1    1    2    0    0  0.29629756594E+02 -0.67853152334E+02 -0.22629539371E+03  0.25024103974E+03  0.77000000000E+02 0.  0.
<mgrwt>
<rscale>  0 0.21390161E+03</rscale>
<asrwt>0</asrwt>
<pdfrwt beam="1">  1        2 0.64894587E-01 0.21390161E+03</pdfrwt>
<pdfrwt beam="2">  1       -2 0.35971915E-02 0.21390161E+03</pdfrwt>
<totfact> 0.23646104E+04</totfact>
</mgrwt>
</event>
<event>
 4    1  0.6919593E-004  0.1620264E+03  0.7818608E-02  0.1186428E+00
          2   -1    0    0  501    0  0.00000000000E+00  0.00000000000E+00  0.37382869655E+03  0.37382869656E+03  0.25500000000E-02 0.  1.
         -2   -1    0    0    0  501 -0.00000000000E+00 -0.00000000000E+00 -0.17556537397E+02  0.17556537582E+02  0.25500000000E-02 0. -1.
    5000001    1    1    2    0    0 -0.85052854266E+01 -0.22618335791E+02  0.16101987521E+03  0.18011199073E+03  0.77000000000E+02 0.  0.
   -5000001    1    1    2    0    0  0.85052854266E+01  0.22618335791E+02  0.19525228394E+03  0.21127324341E+03  0.77000000000E+02 0.  0.
<mgrwt>
<rscale>  0 0.16202639E+03</rscale>
<asrwt>0</asrwt>
<pdfrwt beam="1">  1        2 0.53404098E-01 0.16202639E+03</pdfrwt>
<pdfrwt beam="2">  1       -2 0.25080769E-02 0.16202639E+03</pdfrwt>
<totfact> 0.48504985E+04</totfact>
</mgrwt>
</event>
<event>
 4    1  0.6919593E-004  0.3142944E+03  0.7818608E-02  0.1078306E+00
          2   -1    0    0  501    0  0.00000000000E+00  0.00000000000E+00  0.38034828417E+03  0.38034828418E+03  0.25500000000E-02 0.  1.
         -2   -1    0    0    0  501 -0.00000000000E+00 -0.00000000000E+00 -0.64927952698E+02  0.64927952748E+02  0.25500000000E-02 0. -1.
    5000001    1    1    2    0    0  0.10522160582E+03 -0.36235609845E+02  0.44533020108E+02  0.14246682292E+03  0.77000000000E+02 0.  0.
   -5000001    1    1    2    0    0 -0.10522160582E+03  0.36235609845E+02  0.27088731136E+03  0.30280941400E+03  0.77000000000E+02 0.  0.
<mgrwt>
<rscale>  0 0.31429436E+03</rscale>
<asrwt>0</asrwt>
<pdfrwt beam="1">  1        2 0.54335469E-01 0.31429436E+03</pdfrwt>
<pdfrwt beam="2">  1       -2 0.92754219E-02 0.31429436E+03</pdfrwt>
<totfact> 0.68443218E+03</totfact>
</mgrwt>
</event>
<event>
 4    1  0.6919593E-004  0.2954951E+03  0.7818608E-02  0.1087514E+00
          2   -1    0    0  501    0  0.00000000000E+00  0.00000000000E+00  0.18119854658E+03  0.18119854660E+03  0.25500000000E-02 0.  1.
         -2   -1    0    0    0  501 -0.00000000000E+00 -0.00000000000E+00 -0.12047194722E+03  0.12047194724E+03  0.25500000000E-02 0. -1.
    5000001    1    1    2    0    0  0.17578727027E+02 -0.72758610798E+02  0.13396066915E+03  0.17168951036E+03  0.77000000000E+02 0.  0.
   -5000001    1    1    2    0    0 -0.17578727027E+02  0.72758610798E+02 -0.73234069784E+02  0.12998098348E+03  0.77000000000E+02 0.  0.
<mgrwt>
<rscale>  0 0.29549512E+03</rscale>
<asrwt>0</asrwt>
<pdfrwt beam="1">  1        2 0.25885507E-01 0.29549512E+03</pdfrwt>
<pdfrwt beam="2">  1       -2 0.17210278E-01 0.29549512E+03</pdfrwt>
<totfact> 0.55990168E+03</totfact>
</mgrwt>
</event>
<event>
 4    1  0.6919593E-004  0.2570042E+03  0.7818608E-02  0.1108957E+00
         -2   -1    0    0    0  501 -0.00000000000E+00  0.00000000000E+00  0.11668147170E+02  0.11668147449E+02  0.25500000000E-02 0. -1.
          2   -1    0    0  501    0  0.00000000000E+00 -0.00000000000E+00 -0.14152018936E+04  0.14152018936E+04  0.25500000000E-02 0.  1.
    5000001    1    1    2    0    0  0.69885060005E+02  0.71787772453E+02 -0.57199188837E+03  0.58578249056E+03  0.77000000000E+02 0.  0.
   -5000001    1    1    2    0    0 -0.69885060005E+02 -0.71787772453E+02 -0.83154185803E+03  0.84108755046E+03  0.77000000000E+02 0.  0.
<mgrwt>
<rscale>  0 0.25700416E+03</rscale>
<asrwt>0</asrwt>
<pdfrwt beam="1">  1        2 0.20217159E+00 0.25700416E+03</pdfrwt>
<pdfrwt beam="2">  1       -2 0.16668791E-02 0.25700416E+03</pdfrwt>
<totfact> 0.17358947E+04</totfact>
</mgrwt>
</event>
<event>
 4    1  0.6919593E-004  0.1982761E+03  0.7818608E-02  0.1151202E+00
          2   -1    0    0  501    0  0.00000000000E+00  0.00000000000E+00  0.11154229960E+03  0.11154229963E+03  0.25500000000E-02 0.  1.
         -2   -1    0    0    0  501 -0.00000000000E+00 -0.00000000000E+00 -0.88113246604E+02  0.88113246641E+02  0.25500000000E-02 0. -1.
    5000001    1    1    2    0    0  0.22234392125E+02 -0.55577895727E+02 -0.61878991199E+01  0.97726970597E+02  0.77000000000E+02 0.  0.
   -5000001    1    1    2    0    0 -0.22234392125E+02  0.55577895727E+02  0.29616952120E+02  0.10192857568E+03  0.77000000000E+02 0.  0.
<mgrwt>
<rscale>  0 0.19827611E+03</rscale>
<asrwt>0</asrwt>
<pdfrwt beam="1">  1        2 0.15934614E-01 0.19827611E+03</pdfrwt>
<pdfrwt beam="2">  1       -2 0.12587607E-01 0.19827611E+03</pdfrwt>
<totfact> 0.15963837E+04</totfact>
</mgrwt>
</event>
<event>
 4    1  0.6919593E-004  0.2085833E+03  0.7818608E-02  0.1142693E+00
         -2   -1    0    0    0  501 -0.00000000000E+00  0.00000000000E+00  0.99969730409E+02  0.99969730442E+02  0.25500000000E-02 0. -1.
          2   -1    0    0  501    0  0.00000000000E+00 -0.00000000000E+00 -0.10880039827E+03  0.10880039830E+03  0.25500000000E-02 0.  1.
    5000001    1    1    2    0    0  0.47909396882E+02 -0.48414269722E+02 -0.21995083776E+02  0.10512866180E+03  0.77000000000E+02 0.  0.
   -5000001    1    1    2    0    0 -0.47909396882E+02  0.48414269722E+02  0.13164415917E+02  0.10364146694E+03  0.77000000000E+02 0.  0.
<mgrwt>
<rscale>  0 0.20858328E+03</rscale>
<asrwt>0</asrwt>
<pdfrwt beam="1">  1        2 0.15542914E-01 0.20858328E+03</pdfrwt>
<pdfrwt beam="2">  1       -2 0.14281390E-01 0.20858328E+03</pdfrwt>
<totfact> 0.13435236E+04</totfact>
</mgrwt>
</event>
<event>
 4    1  0.6919593E-004  0.1971407E+03  0.7818608E-02  0.1152174E+00
         -2   -1    0    0    0  501 -0.00000000000E+00  0.00000000000E+00  0.57330647778E+03  0.57330647779E+03  0.25500000000E-02 0. -1.
          2   -1    0    0  501    0  0.00000000000E+00 -0.00000000000E+00 -0.16947509008E+02  0.16947509200E+02  0.25500000000E-02 0.  1.
    5000001    1    1    2    0    0  0.42731148776E+02 -0.42478796367E+02  0.31566136490E+03  0.33045649715E+03  0.77000000000E+02 0.  0.
   -5000001    1    1    2    0    0 -0.42731148776E+02  0.42478796367E+02  0.24069760387E+03  0.25979748984E+03  0.77000000000E+02 0.  0.
<mgrwt>
<rscale>  0 0.19714073E+03</rscale>
<asrwt>0</asrwt>
<pdfrwt beam="1">  1        2 0.24210726E-02 0.19714073E+03</pdfrwt>
<pdfrwt beam="2">  1       -2 0.81900931E-01 0.19714073E+03</pdfrwt>
<totfact> 0.55429603E+03</totfact>
</mgrwt>
</event>
<event>
 4    1  0.6919593E-004  0.2890306E+03  0.7818608E-02  0.1090856E+00
          2   -1    0    0  501    0  0.00000000000E+00  0.00000000000E+00  0.96558568233E+03  0.96558568233E+03  0.25500000000E-02 0.  1.
         -2   -1    0    0    0  501 -0.00000000000E+00 -0.00000000000E+00 -0.21629023015E+02  0.21629023165E+02  0.25500000000E-02 0. -1.
    5000001    1    1    2    0    0 -0.60106932108E+02  0.10650264435E+03  0.47151400161E+03  0.49316337075E+03  0.77000000000E+02 0.  0.
   -5000001    1    1    2    0    0  0.60106932108E+02 -0.10650264435E+03  0.47244265771E+03  0.49405133474E+03  0.77000000000E+02 0.  0.
<mgrwt>
<rscale>  0 0.28903062E+03</rscale>
<asrwt>0</asrwt>
<pdfrwt beam="1">  1        2 0.13794081E+00 0.28903062E+03</pdfrwt>
<pdfrwt beam="2">  1       -2 0.30898606E-02 0.28903062E+03</pdfrwt>
<totfact> 0.12366675E+04</totfact>
</mgrwt>
</event>
<event>
 4    1  0.6919593E-004  0.2426256E+03  0.7818608E-02  0.1118056E+00
         -2   -1    0    0    0  501 -0.00000000000E+00  0.00000000000E+00  0.10006285849E+02  0.10006286174E+02  0.25500000000E-02 0. -1.
          2   -1    0    0  501    0  0.00000000000E+00 -0.00000000000E+00 -0.14707551171E+04  0.14707551171E+04  0.25500000000E-02 0.  1.
    5000001    1    1    2    0    0 -0.78492665164E+02 -0.50802793621E+02 -0.68908316451E+03  0.69964750406E+03  0.77000000000E+02 0.  0.
   -5000001    1    1    2    0    0  0.78492665164E+02  0.50802793621E+02 -0.77166566670E+03  0.78111389918E+03  0.77000000000E+02 0.  0.
<mgrwt>
<rscale>  0 0.24262561E+03</rscale>
<asrwt>0</asrwt>
<pdfrwt beam="1">  1        2 0.21010774E+00 0.24262561E+03</pdfrwt>
<pdfrwt beam="2">  1       -2 0.14294704E-02 0.24262561E+03</pdfrwt>
<totfact> 0.20309904E+04</totfact>
</mgrwt>
</event>
<event>
 4    1  0.6919593E-004  0.2906575E+03  0.7818608E-02  0.1090006E+00
          2   -1    0    0  501    0  0.00000000000E+00  0.00000000000E+00  0.11547735449E+04  0.11547735449E+04  0.25500000000E-02 0.  1.
         -2   -1    0    0    0  501 -0.00000000000E+00 -0.00000000000E+00 -0.18289680198E+02  0.18289680376E+02  0.25500000000E-02 0. -1.
    5000001    1    1    2    0    0  0.31140697559E+02 -0.99370877409E+02  0.83433955831E+03  0.84433157757E+03  0.77000000000E+02 0.  0.
   -5000001    1    1    2    0    0 -0.31140697559E+02  0.99370877409E+02  0.30214430641E+03  0.32873164773E+03  0.77000000000E+02 0.  0.
<mgrwt>
<rscale>  0 0.29065745E+03</rscale>
<asrwt>0</asrwt>
<pdfrwt beam="1">  1        2 0.16496766E+00 0.29065745E+03</pdfrwt>
<pdfrwt beam="2">  1       -2 0.26128112E-02 0.29065745E+03</pdfrwt>
<totfact> 0.12354054E+04</totfact>
</mgrwt>
</event>
<event>
 4    1  0.6919593E-004  0.3300224E+03  0.7818608E-02  0.1071127E+00
         -2   -1    0    0    0  501 -0.00000000000E+00  0.00000000000E+00  0.36084407972E+02  0.36084408062E+02  0.25500000000E-02 0.  1.
          2   -1    0    0  501    0  0.00000000000E+00 -0.00000000000E+00 -0.75458346350E+03  0.75458346350E+03  0.25500000000E-02 0. -1.
    5000001    1    1    2    0    0  0.85393706602E+02 -0.42714617308E+01 -0.64261680345E+03  0.65283664617E+03  0.77000000000E+02 0.  0.
   -5000001    1    1    2    0    0 -0.85393706602E+02  0.42714617308E+01 -0.75882252080E+02  0.13783122539E+03  0.77000000000E+02 0.  0.
<mgrwt>
<rscale>  0 0.33002241E+03</rscale>
<asrwt>0</asrwt>
<pdfrwt beam="1">  1        2 0.10779763E+00 0.33002241E+03</pdfrwt>
<pdfrwt beam="2">  1       -2 0.51549159E-02 0.33002241E+03</pdfrwt>
<totfact> 0.78567710E+03</totfact>
</mgrwt>
</event>
<event>
 4    1  0.6919593E-004  0.3284821E+03  0.7818608E-02  0.1071810E+00
         -2   -1    0    0    0  501 -0.00000000000E+00  0.00000000000E+00  0.18949122314E+02  0.18949122486E+02  0.25500000000E-02 0. -1.
          2   -1    0    0  501    0  0.00000000000E+00 -0.00000000000E+00 -0.14235549468E+04  0.14235549469E+04  0.25500000000E-02 0.  1.
    5000001    1    1    2    0    0  0.63758630410E+02  0.12222172491E+03 -0.90078381516E+03  0.91451834024E+03  0.77000000000E+02 0.  0.
   -5000001    1    1    2    0    0 -0.63758630410E+02 -0.12222172491E+03 -0.50382200938E+03  0.52798572909E+03  0.77000000000E+02 0.  0.
<mgrwt>
<rscale>  0 0.32848207E+03</rscale>
<asrwt>0</asrwt>
<pdfrwt beam="1">  1        2 0.20336492E+00 0.32848207E+03</pdfrwt>
<pdfrwt beam="2">  1       -2 0.27070184E-02 0.32848207E+03</pdfrwt>
<totfact> 0.84570402E+03</totfact>
</mgrwt>
</event>
<event>
 4    1  0.6919593E-004  0.1978109E+03  0.7818608E-02  0.1151599E+00
         -2   -1    0    0    0  501 -0.00000000000E+00  0.00000000000E+00  0.21963363695E+03  0.21963363696E+03  0.25500000000E-02 0. -1.
          2   -1    0    0  501    0  0.00000000000E+00 -0.00000000000E+00 -0.44539103770E+02  0.44539103843E+02  0.25500000000E-02 0.  1.
    5000001    1    1    2    0    0 -0.26085521712E+02 -0.48500720705E+02  0.12580154800E+03  0.15744142984E+03  0.77000000000E+02 0.  0.
   -5000001    1    1    2    0    0  0.26085521712E+02  0.48500720705E+02  0.49292985177E+02  0.10673131096E+03  0.77000000000E+02 0.  0.
<mgrwt>
<rscale>  0 0.19781087E+03</rscale>
<asrwt>0</asrwt>
<pdfrwt beam="1">  1        2 0.63627291E-02 0.19781087E+03</pdfrwt>
<pdfrwt beam="2">  1       -2 0.31376234E-01 0.19781087E+03</pdfrwt>
<totfact> 0.10421853E+04</totfact>
</mgrwt>
</event>
<event>
 4    1  0.6919593E-004  0.2173473E+03  0.7818608E-02  0.1135876E+00
          2   -1    0    0  501    0  0.00000000000E+00  0.00000000000E+00  0.15377006978E+04  0.15377006978E+04  0.25500000000E-02 0.  1.
         -2   -1    0    0    0  501 -0.00000000000E+00 -0.00000000000E+00 -0.76802724995E+01  0.76802729228E+01  0.25500000000E-02 0. -1.
    5000001    1    1    2    0    0 -0.28879906251E+01 -0.59645449600E+02  0.11071161728E+04  0.11113960321E+04  0.77000000000E+02 0.  0.
   -5000001    1    1    2    0    0  0.28879906251E+01  0.59645449600E+02  0.42290425247E+03  0.43398493857E+03  0.77000000000E+02 0.  0.
<mgrwt>
<rscale>  0 0.21734729E+03</rscale>
<asrwt>0</asrwt>
<pdfrwt beam="1">  1        2 0.21967132E+00 0.21734729E+03</pdfrwt>
<pdfrwt beam="2">  1       -2 0.10971829E-02 0.21734729E+03</pdfrwt>
<totfact> 0.27457044E+04</totfact>
</mgrwt>
</event>
<event>
 4    1  0.6919593E-004  0.3280383E+03  0.7818608E-02  0.1072008E+00
         -2   -1    0    0    0  501 -0.00000000000E+00  0.00000000000E+00  0.17627801234E+02  0.17627801418E+02  0.25500000000E-02 0. -1.
          2   -1    0    0  501    0  0.00000000000E+00 -0.00000000000E+00 -0.15261277058E+04  0.15261277058E+04  0.25500000000E-02 0.  1.
    5000001    1    1    2    0    0 -0.82567894051E+02  0.11799066778E+03 -0.68225838931E+03  0.70153030198E+03  0.77000000000E+02 0.  0.
   -5000001    1    1    2    0    0  0.82567894051E+02 -0.11799066778E+03 -0.82624151521E+03  0.84222520519E+03  0.77000000000E+02 0.  0.
<mgrwt>
<rscale>  0 0.32803827E+03</rscale>
<asrwt>0</asrwt>
<pdfrwt beam="1">  1        2 0.21801816E+00 0.32803827E+03</pdfrwt>
<pdfrwt beam="2">  1       -2 0.25182583E-02 0.32803827E+03</pdfrwt>
<totfact> 0.83472013E+03</totfact>
</mgrwt>
</event>
<event>
 4    1  0.6919593E-004  0.1936218E+03  0.7818608E-02  0.1155235E+00
          2   -1    0    0  501    0  0.00000000000E+00  0.00000000000E+00  0.99797690710E+03  0.99797690711E+03  0.25500000000E-02 0.  1.
         -2   -1    0    0    0  501 -0.00000000000E+00 -0.00000000000E+00 -0.93913481361E+01  0.93913484823E+01  0.25500000000E-02 0. -1.
    5000001    1    1    2    0    0 -0.61735466983E+01 -0.51765527764E+02  0.35414940626E+03  0.36615377165E+03  0.77000000000E+02 0.  0.
   -5000001    1    1    2    0    0  0.61735466983E+01  0.51765527764E+02  0.63443615271E+03  0.64121448394E+03  0.77000000000E+02 0.  0.
<mgrwt>
<rscale>  0 0.19362178E+03</rscale>
<asrwt>0</asrwt>
<pdfrwt beam="1">  1        2 0.14256815E+00 0.19362178E+03</pdfrwt>
<pdfrwt beam="2">  1       -2 0.13416210E-02 0.19362178E+03</pdfrwt>
<totfact> 0.39403725E+04</totfact>
</mgrwt>
</event>
<event>
 4    1  0.6919593E-004  0.1847715E+03  0.7818608E-02  0.1163263E+00
         -2   -1    0    0    0  501 -0.00000000000E+00  0.00000000000E+00  0.29260630110E+03  0.29260630111E+03  0.25500000000E-02 0. -1.
          2   -1    0    0  501    0  0.00000000000E+00 -0.00000000000E+00 -0.29169328492E+02  0.29169328604E+02  0.25500000000E-02 0.  1.
    5000001    1    1    2    0    0  0.13159008654E+00 -0.40038325393E+02  0.18687263740E+03  0.20604239230E+03  0.77000000000E+02 0.  0.
   -5000001    1    1    2    0    0 -0.13159008654E+00  0.40038325393E+02  0.76564335203E+02  0.11573323741E+03  0.77000000000E+02 0.  0.
<mgrwt>
<rscale>  0 0.18477153E+03</rscale>
<asrwt>0</asrwt>
<pdfrwt beam="1">  1        2 0.41670468E-02 0.18477153E+03</pdfrwt>
<pdfrwt beam="2">  1       -2 0.41800901E-01 0.18477153E+03</pdfrwt>
<totfact> 0.10568703E+04</totfact>
</mgrwt>
</event>
<event>
 4    1  0.6919593E-004  0.2316089E+03  0.7818608E-02  0.1125512E+00
          2   -1    0    0  501    0  0.00000000000E+00  0.00000000000E+00  0.29832895330E+04  0.29832895330E+04  0.25500000000E-02 0.  1.
         -2   -1    0    0    0  501 -0.00000000000E+00 -0.00000000000E+00 -0.44952608028E+01  0.44952615261E+01  0.25500000000E-02 0. -1.
    5000001    1    1    2    0    0  0.60533498709E+02 -0.20981456519E+02  0.22390645909E+04  0.22413040330E+04  0.77000000000E+02 0.  0.
   -5000001    1    1    2    0    0 -0.60533498709E+02  0.20981456519E+02  0.73972968130E+03  0.74648076156E+03  0.77000000000E+02 0.  0.
<mgrwt>
<rscale>  0 0.23160886E+03</rscale>
<asrwt>0</asrwt>
<pdfrwt beam="1">  1        2 0.42618352E+00 0.23160886E+03</pdfrwt>
<pdfrwt beam="2">  1       -2 0.64218122E-03 0.23160886E+03</pdfrwt>
<totfact> 0.11461178E+04</totfact>
</mgrwt>
</event>
<event>
 4    1  0.6919593E-004  0.1764574E+03  0.7818608E-02  0.1171276E+00
         -2   -1    0    0    0  501 -0.00000000000E+00  0.00000000000E+00  0.16094928513E+03  0.16094928515E+03  0.25500000000E-02 0. -1.
          2   -1    0    0  501    0  0.00000000000E+00 -0.00000000000E+00 -0.48364936963E+02  0.48364937030E+02  0.25500000000E-02 0.  1.
    5000001    1    1    2    0    0  0.12547724984E+02 -0.38753387885E+02  0.72900348814E+02  0.11359019030E+03  0.77000000000E+02 0.  0.
   -5000001    1    1    2    0    0 -0.12547724984E+02  0.38753387885E+02  0.39683999351E+02  0.95724031880E+02  0.77000000000E+02 0.  0.
<mgrwt>
<rscale>  0 0.17645738E+03</rscale>
<asrwt>0</asrwt>
<pdfrwt beam="1">  1        2 0.69092765E-02 0.17645738E+03</pdfrwt>
<pdfrwt beam="2">  1       -2 0.22992756E-01 0.17645738E+03</pdfrwt>
<totfact> 0.16133111E+04</totfact>
</mgrwt>
</event>
<event>
 4    1  0.6919593E-004  0.3117602E+03  0.7818608E-02  0.1079505E+00
          2   -1    0    0  501    0  0.00000000000E+00  0.00000000000E+00  0.47455270020E+03  0.47455270020E+03  0.25500000000E-02 0.  1.
         -2   -1    0    0    0  501 -0.00000000000E+00 -0.00000000000E+00 -0.51203191887E+02  0.51203191950E+02  0.25500000000E-02 0. -1.
    5000001    1    1    2    0    0 -0.11759675729E+03  0.50142482942E+02  0.28758848344E+03  0.32400524954E+03  0.77000000000E+02 0.  0.
   -5000001    1    1    2    0    0  0.11759675729E+03 -0.50142482942E+02  0.13576102486E+03  0.20175064261E+03  0.77000000000E+02 0.  0.
<mgrwt>
<rscale>  0 0.31176025E+03</rscale>
<asrwt>0</asrwt>
<pdfrwt beam="1">  1        2 0.67793248E-01 0.31176025E+03</pdfrwt>
<pdfrwt beam="2">  1       -2 0.73147411E-02 0.31176025E+03</pdfrwt>
<totfact> 0.78033268E+03</totfact>
</mgrwt>
</event>
<event>
 4    1  0.6919593E-004  0.2966301E+03  0.7818608E-02  0.1086937E+00
          2   -1    0    0  501    0  0.00000000000E+00  0.00000000000E+00  0.23460031700E+04  0.23460031700E+04  0.25500000000E-02 0.  1.
         -2   -1    0    0    0  501 -0.00000000000E+00 -0.00000000000E+00 -0.93765233128E+01  0.93765236595E+01  0.25500000000E-02 0. -1.
    5000001    1    1    2    0    0  0.10767852701E+03 -0.23439174502E+02  0.16657370132E+04  0.16711531520E+04  0.77000000000E+02 0.  0.
   -5000001    1    1    2    0    0 -0.10767852701E+03  0.23439174502E+02  0.67088963348E+03  0.68422654171E+03  0.77000000000E+02 0.  0.
<mgrwt>
<rscale>  0 0.29663010E+03</rscale>
<asrwt>0</asrwt>
<pdfrwt beam="1">  1        2 0.33514329E+00 0.29663010E+03</pdfrwt>
<pdfrwt beam="2">  1       -2 0.13395034E-02 0.29663010E+03</pdfrwt>
<totfact> 0.83303347E+03</totfact>
</mgrwt>
</event>
<event>
 4    1  0.6919593E-004  0.4677437E+03  0.7818608E-02  0.1022559E+00
          2   -1    0    0  501    0  0.00000000000E+00  0.00000000000E+00  0.29792802855E+04  0.29792802855E+04  0.25500000000E-02 0.  1.
         -2   -1    0    0    0  501 -0.00000000000E+00 -0.00000000000E+00 -0.18358811754E+02  0.18358811931E+02  0.25500000000E-02 0. -1.
    5000001    1    1    2    0    0 -0.47301614374E+02  0.21459813652E+03  0.16204650095E+04  0.16371089304E+04  0.77000000000E+02 0.  0.
   -5000001    1    1    2    0    0  0.47301614374E+02 -0.21459813652E+03  0.13404564642E+04  0.13605301671E+04  0.77000000000E+02 0.  0.
<mgrwt>
<rscale>  0 0.46774372E+03</rscale>
<asrwt>0</asrwt>
<pdfrwt beam="1">  1        2 0.42561129E+00 0.46774372E+03</pdfrwt>
<pdfrwt beam="2">  1       -2 0.26226885E-02 0.46774372E+03</pdfrwt>
<totfact> 0.14411280E+03</totfact>
</mgrwt>
</event>
<event>
 4    1  0.6919593E-004  0.5763398E+03  0.7818608E-02  0.9955747E-01
         -2   -1    0    0    0  501 -0.00000000000E+00  0.00000000000E+00  0.55053944649E+02  0.55053944708E+02  0.25500000000E-02 0. -1.
          2   -1    0    0  501    0  0.00000000000E+00 -0.00000000000E+00 -0.15083728946E+04  0.15083728946E+04  0.25500000000E-02 0.  1.
    5000001    1    1    2    0    0 -0.23902631262E+03 -0.50928480104E+02 -0.36898026340E+03  0.44922457968E+03  0.77000000000E+02 0.  0.
   -5000001    1    1    2    0    0  0.23902631262E+03  0.50928480104E+02 -0.10843386865E+04  0.11142022596E+04  0.77000000000E+02 0.  0.
<mgrwt>
<rscale>  0 0.57633975E+03</rscale>
<asrwt>0</asrwt>
<pdfrwt beam="1">  1        2 0.21548182E+00 0.57633975E+03</pdfrwt>
<pdfrwt beam="2">  1       -2 0.78648502E-02 0.57633975E+03</pdfrwt>
<totfact> 0.14847435E+03</totfact>
</mgrwt>
</event>
<event>
 4    1  0.6919593E-004  0.2068636E+03  0.7818608E-02  0.1144074E+00
          2   -1    0    0  501    0  0.00000000000E+00  0.00000000000E+00  0.18190186154E+03  0.18190186155E+03  0.25500000000E-02 0.  1.
         -2   -1    0    0    0  501 -0.00000000000E+00 -0.00000000000E+00 -0.58812697666E+02  0.58812697722E+02  0.25500000000E-02 0. -1.
    5000001    1    1    2    0    0  0.61749461080E+02 -0.30909895971E+02  0.62533047545E+02  0.12086273060E+03  0.77000000000E+02 0.  0.
   -5000001    1    1    2    0    0 -0.61749461080E+02  0.30909895971E+02  0.60556116323E+02  0.11985182868E+03  0.77000000000E+02 0.  0.
<mgrwt>
<rscale>  0 0.20686362E+03</rscale>
<asrwt>0</asrwt>
<pdfrwt beam="1">  1        2 0.25985980E-01 0.20686362E+03</pdfrwt>
<pdfrwt beam="2">  1       -2 0.84018140E-02 0.20686362E+03</pdfrwt>
<totfact> 0.17429928E+04</totfact>
</mgrwt>
</event>
<event>
 4    1  0.6919593E-004  0.2142886E+03  0.7818608E-02  0.1138214E+00
          2   -1    0    0  501    0  0.00000000000E+00  0.00000000000E+00  0.19709584712E+03  0.19709584713E+03  0.25500000000E-02 0.  1.
         -2   -1    0    0    0  501 -0.00000000000E+00 -0.00000000000E+00 -0.58245282434E+02  0.58245282489E+02  0.25500000000E-02 0. -1.
    5000001    1    1    2    0    0  0.67922741619E+02 -0.91184163611E+01  0.10425231174E+03  0.14660896579E+03  0.77000000000E+02 0.  0.
   -5000001    1    1    2    0    0 -0.67922741619E+02  0.91184163611E+01  0.34598252947E+02  0.10873216384E+03  0.77000000000E+02 0.  0.
<mgrwt>
<rscale>  0 0.21428862E+03</rscale>
<asrwt>0</asrwt>
<pdfrwt beam="1">  1        2 0.28156550E-01 0.21428862E+03</pdfrwt>
<pdfrwt beam="2">  1       -2 0.83207545E-02 0.21428862E+03</pdfrwt>
<totfact> 0.16236709E+04</totfact>
</mgrwt>
</event>
<event>
 4    1  0.6919593E-004  0.2565752E+03  0.7818608E-02  0.1109219E+00
         -2   -1    0    0    0  501 -0.00000000000E+00  0.00000000000E+00  0.26450797053E+02  0.26450797176E+02  0.25500000000E-02 0. -1.
          2   -1    0    0  501    0  0.00000000000E+00 -0.00000000000E+00 -0.62220080551E+03  0.62220080552E+03  0.25500000000E-02 0.  1.
    5000001    1    1    2    0    0 -0.10077469626E+02 -0.99390666890E+02 -0.23865841041E+03  0.26993869104E+03  0.77000000000E+02 0.  0.
   -5000001    1    1    2    0    0  0.10077469626E+02  0.99390666890E+02 -0.35709159804E+03  0.37871291165E+03  0.77000000000E+02 0.  0.
<mgrwt>
<rscale>  0 0.25657519E+03</rscale>
<asrwt>0</asrwt>
<pdfrwt beam="1">  1        2 0.88885820E-01 0.25657519E+03</pdfrwt>
<pdfrwt beam="2">  1       -2 0.37786857E-02 0.25657519E+03</pdfrwt>
<totfact> 0.15645047E+04</totfact>
</mgrwt>
</event>
<event>
 4    1  0.6919593E-004  0.2069742E+03  0.7818608E-02  0.1143985E+00
          2   -1    0    0  501    0  0.00000000000E+00  0.00000000000E+00  0.28807711732E+04  0.28807711732E+04  0.25500000000E-02 0.  1.
         -2   -1    0    0    0  501 -0.00000000000E+00 -0.00000000000E+00 -0.37176085266E+01  0.37176094011E+01  0.25500000000E-02 0. -1.
    5000001    1    1    2    0    0  0.48259067346E+02  0.15884049938E+02  0.78494668006E+03  0.79034899327E+03  0.77000000000E+02 0.  0.
   -5000001    1    1    2    0    0 -0.48259067346E+02 -0.15884049938E+02  0.20921068846E+04  0.20941397893E+04  0.77000000000E+02 0.  0.
<mgrwt>
<rscale>  0 0.20697421E+03</rscale>
<asrwt>0</asrwt>
<pdfrwt beam="1">  1        2 0.41153772E+00 0.20697421E+03</pdfrwt>
<pdfrwt beam="2">  1       -2 0.53108830E-03 0.20697421E+03</pdfrwt>
<totfact> 0.16992626E+04</totfact>
</mgrwt>
</event>
<event>
 4    1  0.6919593E-004  0.6369097E+03  0.7818608E-02  0.9831657E-01
         -2   -1    0    0    0  501 -0.00000000000E+00  0.00000000000E+00  0.73715783360E+02  0.73715783404E+02  0.25500000000E-02 0. -1.
          2   -1    0    0  501    0  0.00000000000E+00 -0.00000000000E+00 -0.13757364131E+04  0.13757364131E+04  0.25500000000E-02 0.  1.
    5000001    1    1    2    0    0  0.14934066071E+03  0.26306699370E+01 -0.12666225066E+04  0.12777210680E+04  0.77000000000E+02 0.  0.
   -5000001    1    1    2    0    0 -0.14934066071E+03 -0.26306699370E+01 -0.35398123090E+02  0.17173112846E+03  0.77000000000E+02 0.  0.
<mgrwt>
<rscale>  0 0.63690969E+03</rscale>
<asrwt>0</asrwt>
<pdfrwt beam="1">  1        2 0.19653376E+00 0.63690969E+03</pdfrwt>
<pdfrwt beam="2">  1       -2 0.10530827E-01 0.63690969E+03</pdfrwt>
<totfact> 0.10878923E+03</totfact>
</mgrwt>
</event>
<event>
 4    1  0.6919593E-004  0.1990073E+03  0.7818608E-02  0.1150579E+00
          2   -1    0    0  501    0  0.00000000000E+00  0.00000000000E+00  0.57449602160E+03  0.57449602161E+03  0.25500000000E-02 0.  1.
         -2   -1    0    0    0  501 -0.00000000000E+00 -0.00000000000E+00 -0.17234196022E+02  0.17234196211E+02  0.25500000000E-02 0. -1.
    5000001    1    1    2    0    0 -0.40982015187E+02 -0.47527223447E+02  0.29587016834E+03  0.31210017470E+03  0.77000000000E+02 0.  0.
   -5000001    1    1    2    0    0  0.40982015187E+02  0.47527223447E+02  0.26139165725E+03  0.27963004312E+03  0.77000000000E+02 0.  0.
<mgrwt>
<rscale>  0 0.19900731E+03</rscale>
<asrwt>0</asrwt>
<pdfrwt beam="1">  1        2 0.82070857E-01 0.19900731E+03</pdfrwt>
<pdfrwt beam="2">  1       -2 0.24620281E-02 0.19900731E+03</pdfrwt>
<totfact> 0.31824882E+04</totfact>
</mgrwt>
</event>
<event>
 4    1  0.6919593E-004  0.3365598E+03  0.7818608E-02  0.1068271E+00
          2   -1    0    0  501    0  0.00000000000E+00  0.00000000000E+00  0.28725601820E+03  0.28725601821E+03  0.25500000000E-02 0. -1.
         -2   -1    0    0    0  501 -0.00000000000E+00 -0.00000000000E+00 -0.98581459572E+02  0.98581459605E+02  0.25500000000E-02 0.  1.
    5000001    1    1    2    0    0  0.11129213322E+03  0.23527443015E+02 -0.17104955197E+02  0.13842347700E+03  0.77000000000E+02 0.  0.
   -5000001    1    1    2    0    0 -0.11129213322E+03 -0.23527443015E+02  0.20577951383E+03  0.24741400082E+03  0.77000000000E+02 0.  0.
<mgrwt>
<rscale>  0 0.33655976E+03</rscale>
<asrwt>0</asrwt>
<pdfrwt beam="1">  1        2 0.41036574E-01 0.33655976E+03</pdfrwt>
<pdfrwt beam="2">  1       -2 0.14083066E-01 0.33655976E+03</pdfrwt>
<totfact> 0.47345114E+03</totfact>
</mgrwt>
</event>
<event>
 4    1  0.6919593E-004  0.2195513E+03  0.7818608E-02  0.1134218E+00
         -2   -1    0    0    0  501 -0.00000000000E+00  0.00000000000E+00  0.18129786035E+02  0.18129786214E+02  0.25500000000E-02 0. -1.
          2   -1    0    0  501    0  0.00000000000E+00 -0.00000000000E+00 -0.66469027560E+03  0.66469027561E+03  0.25500000000E-02 0.  1.
    5000001    1    1    2    0    0  0.23752676401E+02  0.68448616389E+02 -0.41513479508E+03  0.42838685882E+03  0.77000000000E+02 0.  0.
   -5000001    1    1    2    0    0 -0.23752676401E+02 -0.68448616389E+02 -0.23142569449E+03  0.25443320300E+03  0.77000000000E+02 0.  0.
<mgrwt>
<rscale>  0 0.21955129E+03</rscale>
<asrwt>0</asrwt>
<pdfrwt beam="1">  1        2 0.94955739E-01 0.21955129E+03</pdfrwt>
<pdfrwt beam="2">  1       -2 0.25899699E-02 0.21955129E+03</pdfrwt>
<totfact> 0.25186465E+04</totfact>
</mgrwt>
</event>
<event>
 4    1  0.6919593E-004  0.4660290E+03  0.7818608E-02  0.1023047E+00
         -2   -1    0    0    0  501 -0.00000000000E+00  0.00000000000E+00  0.62134736355E+02  0.62134736408E+02  0.25500000000E-02 0. -1.
          2   -1    0    0  501    0  0.00000000000E+00 -0.00000000000E+00 -0.87383907619E+03  0.87383907619E+03  0.25500000000E-02 0.  1.
    5000001    1    1    2    0    0  0.21695595146E+03  0.20448959481E+02 -0.34631681250E+03  0.41635607290E+03  0.77000000000E+02 0.  0.
   -5000001    1    1    2    0    0 -0.21695595146E+03 -0.20448959481E+02 -0.46538752733E+03  0.51961773970E+03  0.77000000000E+02 0.  0.
<mgrwt>
<rscale>  0 0.46602901E+03</rscale>
<asrwt>0</asrwt>
<pdfrwt beam="1">  1        2 0.12483415E+00 0.46602901E+03</pdfrwt>
<pdfrwt beam="2">  1       -2 0.88763915E-02 0.46602901E+03</pdfrwt>
<totfact> 0.28099457E+03</totfact>
</mgrwt>
</event>
<event>
 4    1  0.6919593E-004  0.1942007E+03  0.7818608E-02  0.1154726E+00
          2   -1    0    0  501    0  0.00000000000E+00  0.00000000000E+00  0.24331950634E+04  0.24331950634E+04  0.25500000000E-02 0.  1.
         -2   -1    0    0    0  501 -0.00000000000E+00 -0.00000000000E+00 -0.38749363477E+01  0.38749371867E+01  0.25500000000E-02 0. -1.
    5000001    1    1    2    0    0  0.14942818179E+02 -0.27663857484E+02  0.58583193602E+03  0.59170654389E+03  0.77000000000E+02 0.  0.
   -5000001    1    1    2    0    0 -0.14942818179E+02  0.27663857484E+02  0.18434881910E+04  0.18453634567E+04  0.77000000000E+02 0.  0.
<mgrwt>
<rscale>  0 0.19420069E+03</rscale>
<asrwt>0</asrwt>
<pdfrwt beam="1">  1        2 0.34759847E+00 0.19420069E+03</pdfrwt>
<pdfrwt beam="2">  1       -2 0.55356372E-03 0.19420069E+03</pdfrwt>
<totfact> 0.26808334E+04</totfact>
</mgrwt>
</event>
<event>
 4    1  0.6919593E-004  0.1773943E+03  0.7818608E-02  0.1170349E+00
          2   -1    0    0  501    0  0.00000000000E+00  0.00000000000E+00  0.10423868582E+03  0.10423868585E+03  0.25500000000E-02 0.  1.
         -2   -1    0    0    0  501 -0.00000000000E+00 -0.00000000000E+00 -0.75472750371E+02  0.75472750414E+02  0.25500000000E-02 0. -1.
    5000001    1    1    2    0    0  0.39791950701E+02 -0.17907578246E+02  0.84672023080E+01  0.88908797170E+02  0.77000000000E+02 0.  0.
   -5000001    1    1    2    0    0 -0.39791950701E+02  0.17907578246E+02  0.20298733138E+02  0.90802639093E+02  0.77000000000E+02 0.  0.
<mgrwt>
<rscale>  0 0.17739425E+03</rscale>
<asrwt>0</asrwt>
<pdfrwt beam="1">  1        2 0.14891241E-01 0.17739425E+03</pdfrwt>
<pdfrwt beam="2">  1       -2 0.10781822E-01 0.17739425E+03</pdfrwt>
<totfact> 0.21949023E+04</totfact>
</mgrwt>
</event>
<event>
 4    1  0.6919593E-004  0.2556482E+03  0.7818608E-02  0.1109786E+00
          2   -1    0    0  501    0  0.00000000000E+00  0.00000000000E+00  0.18650992416E+04  0.18650992416E+04  0.25500000000E-02 0.  1.
         -2   -1    0    0    0  501 -0.00000000000E+00 -0.00000000000E+00 -0.87603898023E+01  0.87603901735E+01  0.25500000000E-02 0. -1.
    5000001    1    1    2    0    0  0.10153158169E+03  0.50961600401E+01  0.99180145239E+03  0.99996687640E+03  0.77000000000E+02 0.  0.
   -5000001    1    1    2    0    0 -0.10153158169E+03 -0.50961600401E+01  0.86453739943E+03  0.87389275540E+03  0.77000000000E+02 0.  0.
<mgrwt>
<rscale>  0 0.25564817E+03</rscale>
<asrwt>0</asrwt>
<pdfrwt beam="1">  1        2 0.26644273E+00 0.25564817E+03</pdfrwt>
<pdfrwt beam="2">  1       -2 0.12514844E-02 0.25564817E+03</pdfrwt>
<totfact> 0.15769730E+04</totfact>
</mgrwt>
</event>
<event>
 4    1  0.6919593E-004  0.4250840E+03  0.7818608E-02  0.1035424E+00
          2   -1    0    0  501    0  0.00000000000E+00  0.00000000000E+00  0.16445072104E+04  0.16445072104E+04  0.25500000000E-02 0.  1.
         -2   -1    0    0    0  501 -0.00000000000E+00 -0.00000000000E+00 -0.27469693207E+02  0.27469693326E+02  0.25500000000E-02 0. -1.
    5000001    1    1    2    0    0 -0.12743911654E+03  0.12706495504E+03  0.48277057477E+03  0.52094400763E+03  0.77000000000E+02 0.  0.
   -5000001    1    1    2    0    0  0.12743911654E+03 -0.12706495504E+03  0.11342669425E+04  0.11510328961E+04  0.77000000000E+02 0.  0.
<mgrwt>
<rscale>  0 0.42508403E+03</rscale>
<asrwt>0</asrwt>
<pdfrwt beam="1">  1        2 0.23492952E+00 0.42508403E+03</pdfrwt>
<pdfrwt beam="2">  1       -2 0.39242433E-02 0.42508403E+03</pdfrwt>
<totfact> 0.37375524E+03</totfact>
</mgrwt>
</event>
<event>
 4    1  0.6919593E-004  0.3500763E+03  0.7818608E-02  0.1062584E+00
          2   -1    0    0  501    0  0.00000000000E+00  0.00000000000E+00  0.33186815432E+03  0.33186815433E+03  0.25500000000E-02 0.  1.
         -2   -1    0    0    0  501 -0.00000000000E+00 -0.00000000000E+00 -0.92320882696E+02  0.92320882731E+02  0.25500000000E-02 0. -1.
    5000001    1    1    2    0    0 -0.65814255465E+02 -0.13521203032E+03  0.17524206392E+03  0.24341854969E+03  0.77000000000E+02 0.  0.
   -5000001    1    1    2    0    0  0.65814255465E+02  0.13521203032E+03  0.64305207700E+02  0.18077048737E+03  0.77000000000E+02 0.  0.
<mgrwt>
<rscale>  0 0.35007634E+03</rscale>
<asrwt>0</asrwt>
<pdfrwt beam="1">  1        2 0.47409736E-01 0.35007634E+03</pdfrwt>
<pdfrwt beam="2">  1       -2 0.13188698E-01 0.35007634E+03</pdfrwt>
<totfact> 0.45145880E+03</totfact>
</mgrwt>
</event>
<event>
 4    1  0.6919593E-004  0.2502192E+03  0.7818608E-02  0.1113166E+00
         -2   -1    0    0    0  501 -0.00000000000E+00  0.00000000000E+00  0.82694607935E+01  0.82694611867E+01  0.25500000000E-02 0.  1.
          2   -1    0    0  501    0  0.00000000000E+00 -0.00000000000E+00 -0.18927975993E+04  0.18927975993E+04  0.25500000000E-02 0. -1.
    5000001    1    1    2    0    0  0.82141390575E+02 -0.28331086275E+02 -0.12964752864E+04  0.13016631771E+04  0.77000000000E+02 0.  0.
   -5000001    1    1    2    0    0 -0.82141390575E+02  0.28331086275E+02 -0.58805285216E+03  0.59940388339E+03  0.77000000000E+02 0.  0.
<mgrwt>
<rscale>  0 0.25021923E+03</rscale>
<asrwt>0</asrwt>
<pdfrwt beam="1">  1        2 0.27039938E+00 0.25021923E+03</pdfrwt>
<pdfrwt beam="2">  1       -2 0.11813528E-02 0.25021923E+03</pdfrwt>
<totfact> 0.16614410E+04</totfact>
</mgrwt>
</event>
<event>
 4    1  0.6919593E-004  0.3307920E+03  0.7818608E-02  0.1070787E+00
          2   -1    0    0  501    0  0.00000000000E+00  0.00000000000E+00  0.79860809003E+02  0.79860809044E+02  0.25500000000E-02 0.  1.
         -2   -1    0    0    0  501 -0.00000000000E+00 -0.00000000000E+00 -0.34254388337E+03  0.34254388338E+03  0.25500000000E-02 0. -1.
    5000001    1    1    2    0    0 -0.13218500683E+03  0.33365291879E+02 -0.19940083289E+03  0.25352674590E+03  0.77000000000E+02 0.  0.
   -5000001    1    1    2    0    0  0.13218500683E+03 -0.33365291879E+02 -0.63282241481E+02  0.16887794652E+03  0.77000000000E+02 0.  0.
<mgrwt>
<rscale>  0 0.33079197E+03</rscale>
<asrwt>0</asrwt>
<pdfrwt beam="1">  1        2 0.11408687E-01 0.33079197E+03</pdfrwt>
<pdfrwt beam="2">  1       -2 0.48934840E-01 0.33079197E+03</pdfrwt>
<totfact> 0.21894536E+03</totfact>
</mgrwt>
</event>
<event>
 4    1  0.6919593E-004  0.3310830E+03  0.7818608E-02  0.1070659E+00
          2   -1    0    0  501    0  0.00000000000E+00  0.00000000000E+00  0.70799422397E+03  0.70799422398E+03  0.25500000000E-02 0.  1.
         -2   -1    0    0    0  501 -0.00000000000E+00 -0.00000000000E+00 -0.38706502123E+02  0.38706502207E+02  0.25500000000E-02 0. -1.
    5000001    1    1    2    0    0  0.99955819770E+02 -0.54558970868E+02  0.12662564732E+03  0.18689810531E+03  0.77000000000E+02 0.  0.
   -5000001    1    1    2    0    0 -0.99955819770E+02  0.54558970868E+02  0.54266207453E+03  0.55980262088E+03  0.77000000000E+02 0.  0.
<mgrwt>
<rscale>  0 0.33108295E+03</rscale>
<asrwt>0</asrwt>
<pdfrwt beam="1">  1        2 0.10114203E+00 0.33108295E+03</pdfrwt>
<pdfrwt beam="2">  1       -2 0.55295006E-02 0.33108295E+03</pdfrwt>
<totfact> 0.76231083E+03</totfact>
</mgrwt>
</event>
<event>
 4    1  0.6919593E-004  0.1992658E+03  0.7818608E-02  0.1150360E+00
         -2   -1    0    0    0  501 -0.00000000000E+00  0.00000000000E+00  0.56176270639E+02  0.56176270697E+02  0.25500000000E-02 0. -1.
          2   -1    0    0  501    0  0.00000000000E+00 -0.00000000000E+00 -0.17670652851E+03  0.17670652853E+03  0.25500000000E-02 0.  1.
    5000001    1    1    2    0    0 -0.57288790609E+02  0.18003666424E+01 -0.91460274902E+02  0.13258668385E+03  0.77000000000E+02 0.  0.
   -5000001    1    1    2    0    0  0.57288790609E+02 -0.18003666424E+01 -0.29069982971E+02  0.10029611538E+03  0.77000000000E+02 0.  0.
<mgrwt>
<rscale>  0 0.19926579E+03</rscale>
<asrwt>0</asrwt>
<pdfrwt beam="1">  1        2 0.25243790E-01 0.19926579E+03</pdfrwt>
<pdfrwt beam="2">  1       -2 0.80251816E-02 0.19926579E+03</pdfrwt>
<totfact> 0.19279337E+04</totfact>
</mgrwt>
</event>
<event>
 4    1  0.6919593E-004  0.2696031E+03  0.7818608E-02  0.1101507E+00
         -2   -1    0    0    0  501 -0.00000000000E+00  0.00000000000E+00  0.73396147903E+02  0.73396147947E+02  0.25500000000E-02 0. -1.
          2   -1    0    0  501    0  0.00000000000E+00 -0.00000000000E+00 -0.24758050184E+03  0.24758050185E+03  0.25500000000E-02 0.  1.
    5000001    1    1    2    0    0  0.62244279000E+02  0.78921990134E+02 -0.14215989217E+03  0.19037191426E+03  0.77000000000E+02 0.  0.
   -5000001    1    1    2    0    0 -0.62244279000E+02 -0.78921990134E+02 -0.32024461763E+02  0.13060473554E+03  0.77000000000E+02 0.  0.
<mgrwt>
<rscale>  0 0.26960308E+03</rscale>
<asrwt>0</asrwt>
<pdfrwt beam="1">  1        2 0.35368643E-01 0.26960308E+03</pdfrwt>
<pdfrwt beam="2">  1       -2 0.10485164E-01 0.26960308E+03</pdfrwt>
<totfact> 0.89040948E+03</totfact>
</mgrwt>
</event>
<event>
 4    1  0.6919593E-004  0.1798839E+03  0.7818608E-02  0.1167915E+00
          2   -1    0    0  501    0  0.00000000000E+00  0.00000000000E+00  0.17099995291E+04  0.17099995291E+04  0.25500000000E-02 0.  1.
         -2   -1    0    0    0  501 -0.00000000000E+00 -0.00000000000E+00 -0.47307354335E+01  0.47307361207E+01  0.25500000000E-02 0. -1.
    5000001    1    1    2    0    0 -0.85581378054E+01 -0.32210232145E+02  0.54377565396E+03  0.55021059842E+03  0.77000000000E+02 0.  0.
   -5000001    1    1    2    0    0  0.85581378054E+01  0.32210232145E+02  0.11614931397E+04  0.11645196668E+04  0.77000000000E+02 0.  0.
<mgrwt>
<rscale>  0 0.17988392E+03</rscale>
<asrwt>0</asrwt>
<pdfrwt beam="1">  1        2 0.24428582E+00 0.17988392E+03</pdfrwt>
<pdfrwt beam="2">  1       -2 0.67581891E-03 0.17988392E+03</pdfrwt>
<totfact> 0.44854888E+04</totfact>
</mgrwt>
</event>
<event>
 4    1  0.6919593E-004  0.2848161E+03  0.7818608E-02  0.1093087E+00
         -2   -1    0    0    0  501 -0.00000000000E+00  0.00000000000E+00  0.71661884996E+02  0.71661885042E+02  0.25500000000E-02 0. -1.
          2   -1    0    0  501    0  0.00000000000E+00 -0.00000000000E+00 -0.28299627911E+03  0.28299627912E+03  0.25500000000E-02 0.  1.
    5000001    1    1    2    0    0 -0.16919349001E+02 -0.11824331347E+03 -0.11703224554E+03  0.18410130919E+03  0.77000000000E+02 0.  0.
   -5000001    1    1    2    0    0  0.16919349001E+02  0.11824331347E+03 -0.94302148570E+02  0.17055685497E+03  0.77000000000E+02 0.  0.
<mgrwt>
<rscale>  0 0.28481606E+03</rscale>
<asrwt>0</asrwt>
<pdfrwt beam="1">  1        2 0.40428039E-01 0.28481606E+03</pdfrwt>
<pdfrwt beam="2">  1       -2 0.10237412E-01 0.28481606E+03</pdfrwt>
<totfact> 0.80227228E+03</totfact>
</mgrwt>
</event>
<event>
 4    1  0.6919593E-004  0.1725937E+03  0.7818608E-02  0.1175170E+00
          2   -1    0    0  501    0  0.00000000000E+00  0.00000000000E+00  0.32395998001E+03  0.32395998002E+03  0.25500000000E-02 0.  1.
         -2   -1    0    0    0  501 -0.00000000000E+00 -0.00000000000E+00 -0.22987847464E+02  0.22987847606E+02  0.25500000000E-02 0. -1.
    5000001    1    1    2    0    0 -0.19288074833E+02  0.19577939497E+02  0.94966054837E+02  0.12531112128E+03  0.77000000000E+02 0.  0.
   -5000001    1    1    2    0    0  0.19288074833E+02 -0.19577939497E+02  0.20600607771E+03  0.22163670634E+03  0.77000000000E+02 0.  0.
<mgrwt>
<rscale>  0 0.17259366E+03</rscale>
<asrwt>0</asrwt>
<pdfrwt beam="1">  1        2 0.46279995E-01 0.17259366E+03</pdfrwt>
<pdfrwt beam="2">  1       -2 0.32839784E-02 0.17259366E+03</pdfrwt>
<totfact> 0.38221574E+04</totfact>
</mgrwt>
</event>
<event>
 4    1  0.6919593E-004  0.5166765E+03  0.7818608E-02  0.1009515E+00
         -2   -1    0    0    0  501 -0.00000000000E+00  0.00000000000E+00  0.27989187900E+03  0.27989187901E+03  0.25500000000E-02 0. -1.
          2   -1    0    0  501    0  0.00000000000E+00 -0.00000000000E+00 -0.23844439659E+03  0.23844439661E+03  0.25500000000E-02 0.  1.
    5000001    1    1    2    0    0 -0.12434954949E+03 -0.21069361624E+03  0.51726735411E+02  0.26164721581E+03  0.77000000000E+02 0.  0.
   -5000001    1    1    2    0    0  0.12434954949E+03  0.21069361624E+03 -0.10279253009E+02  0.25668905981E+03  0.77000000000E+02 0.  0.
<mgrwt>
<rscale>  0 0.51667650E+03</rscale>
<asrwt>0</asrwt>
<pdfrwt beam="1">  1        2 0.34063485E-01 0.51667650E+03</pdfrwt>
<pdfrwt beam="2">  1       -2 0.39984554E-01 0.51667650E+03</pdfrwt>
<totfact> 0.91510393E+02</totfact>
</mgrwt>
</event>
<event>
 4    1  0.6919593E-004  0.4065175E+03  0.7818608E-02  0.1041546E+00
         -2   -1    0    0    0  501 -0.00000000000E+00  0.00000000000E+00  0.89187129593E+02  0.89187129630E+02  0.25500000000E-02 0. -1.
          2   -1    0    0  501    0  0.00000000000E+00 -0.00000000000E+00 -0.46322972117E+03  0.46322972118E+03  0.25500000000E-02 0.  1.
    5000001    1    1    2    0    0  0.14859806222E+03 -0.79933478083E+02 -0.74024956656E+02  0.19969837060E+03  0.77000000000E+02 0.  0.
   -5000001    1    1    2    0    0 -0.14859806222E+03  0.79933478083E+02 -0.30001763493E+03  0.35271848021E+03  0.77000000000E+02 0.  0.
<mgrwt>
<rscale>  0 0.40651755E+03</rscale>
<asrwt>0</asrwt>
<pdfrwt beam="1">  1        2 0.66175673E-01 0.40651755E+03</pdfrwt>
<pdfrwt beam="2">  1       -2 0.12741019E-01 0.40651755E+03</pdfrwt>
<totfact> 0.33266224E+03</totfact>
</mgrwt>
</event>
<event>
 4    1  0.6919593E-004  0.3010510E+03  0.7818608E-02  0.1084716E+00
          2   -1    0    0  501    0  0.00000000000E+00  0.00000000000E+00  0.83107062329E+03  0.83107062329E+03  0.25500000000E-02 0.  1.
         -2   -1    0    0    0  501 -0.00000000000E+00 -0.00000000000E+00 -0.27263543116E+02  0.27263543235E+02  0.25500000000E-02 0. -1.
    5000001    1    1    2    0    0 -0.40456072213E+02  0.12203232243E+03  0.44225963655E+03  0.46695949248E+03  0.77000000000E+02 0.  0.
   -5000001    1    1    2    0    0  0.40456072213E+02 -0.12203232243E+03  0.36154744362E+03  0.39137467405E+03  0.77000000000E+02 0.  0.
<mgrwt>
<rscale>  0 0.30105102E+03</rscale>
<asrwt>0</asrwt>
<pdfrwt beam="1">  1        2 0.11872437E+00 0.30105102E+03</pdfrwt>
<pdfrwt beam="2">  1       -2 0.38947921E-02 0.30105102E+03</pdfrwt>
<totfact> 0.10634553E+04</totfact>
</mgrwt>
</event>
<event>
 4    1  0.6919593E-004  0.1832509E+03  0.7818608E-02  0.1164693E+00
         -2   -1    0    0    0  501 -0.00000000000E+00  0.00000000000E+00  0.15737092962E+02  0.15737093168E+02  0.25500000000E-02 0. -1.
          2   -1    0    0  501    0  0.00000000000E+00 -0.00000000000E+00 -0.53346695315E+03  0.53346695316E+03  0.25500000000E-02 0.  1.
    5000001    1    1    2    0    0  0.16510659030E+02 -0.35532188241E+02 -0.16741541485E+03  0.18839336345E+03  0.77000000000E+02 0.  0.
   -5000001    1    1    2    0    0 -0.16510659030E+02  0.35532188241E+02 -0.35031444534E+03  0.36081068288E+03  0.77000000000E+02 0.  0.
<mgrwt>
<rscale>  0 0.18325086E+03</rscale>
<asrwt>0</asrwt>
<pdfrwt beam="1">  1        2 0.76209553E-01 0.18325086E+03</pdfrwt>
<pdfrwt beam="2">  1       -2 0.22481565E-02 0.18325086E+03</pdfrwt>
<totfact> 0.39221614E+04</totfact>
</mgrwt>
</event>
<event>
 4    1  0.6919593E-004  0.1799305E+03  0.7818608E-02  0.1167870E+00
          2   -1    0    0  501    0  0.00000000000E+00  0.00000000000E+00  0.26022577000E+03  0.26022577001E+03  0.25500000000E-02 0.  1.
         -2   -1    0    0    0  501 -0.00000000000E+00 -0.00000000000E+00 -0.31102770164E+02  0.31102770269E+02  0.25500000000E-02 0. -1.
    5000001    1    1    2    0    0  0.12564817918E+02  0.33579453278E+02  0.16257285051E+03  0.18342406073E+03  0.77000000000E+02 0.  0.
   -5000001    1    1    2    0    0 -0.12564817918E+02 -0.33579453278E+02  0.66550149324E+02  0.10790447955E+03  0.77000000000E+02 0.  0.
<mgrwt>
<rscale>  0 0.17993046E+03</rscale>
<asrwt>0</asrwt>
<pdfrwt beam="1">  1        2 0.37175109E-01 0.17993046E+03</pdfrwt>
<pdfrwt beam="2">  1       -2 0.44432530E-02 0.17993046E+03</pdfrwt>
<totfact> 0.30898609E+04</totfact>
</mgrwt>
</event>
<event>
 4    1  0.6919593E-004  0.1741066E+03  0.7818608E-02  0.1173632E+00
         -2   -1    0    0    0  501 -0.00000000000E+00  0.00000000000E+00  0.47981711978E+02  0.47981712045E+02  0.25500000000E-02 0. -1.
          2   -1    0    0  501    0  0.00000000000E+00 -0.00000000000E+00 -0.15794090258E+03  0.15794090260E+03  0.25500000000E-02 0.  1.
    5000001    1    1    2    0    0  0.32413155907E+02 -0.72100102011E+01 -0.82633385417E+02  0.11772796315E+03  0.77000000000E+02 0.  0.
   -5000001    1    1    2    0    0 -0.32413155907E+02  0.72100102011E+01 -0.27325805186E+02  0.88194651493E+02  0.77000000000E+02 0.  0.
<mgrwt>
<rscale>  0 0.17410658E+03</rscale>
<asrwt>0</asrwt>
<pdfrwt beam="1">  1        2 0.22562986E-01 0.17410658E+03</pdfrwt>
<pdfrwt beam="2">  1       -2 0.68545304E-02 0.17410658E+03</pdfrwt>
<totfact> 0.27563171E+04</totfact>
</mgrwt>
</event>
<event>
 4    1  0.6919593E-004  0.1812049E+03  0.7818608E-02  0.1166642E+00
          2   -1    0    0  501    0  0.00000000000E+00  0.00000000000E+00  0.15560716009E+02  0.15560716218E+02  0.25500000000E-02 0.  1.
         -2   -1    0    0    0  501 -0.00000000000E+00 -0.00000000000E+00 -0.52753352839E+03  0.52753352840E+03  0.25500000000E-02 0. -1.
    5000001    1    1    2    0    0  0.39591226324E+02  0.16917317887E+02 -0.19411630373E+03  0.21322241960E+03  0.77000000000E+02 0.  0.
   -5000001    1    1    2    0    0 -0.39591226324E+02 -0.16917317887E+02 -0.31785650866E+03  0.32987182502E+03  0.77000000000E+02 0.  0.
<mgrwt>
<rscale>  0 0.18120485E+03</rscale>
<asrwt>0</asrwt>
<pdfrwt beam="1">  1        2 0.22229598E-02 0.18120485E+03</pdfrwt>
<pdfrwt beam="2">  1       -2 0.75361922E-01 0.18120485E+03</pdfrwt>
<totfact> 0.74247616E+03</totfact>
</mgrwt>
</event>
<event>
 4    1  0.6919593E-004  0.3015727E+03  0.7818608E-02  0.1084457E+00
          2   -1    0    0  501    0  0.00000000000E+00  0.00000000000E+00  0.14740041166E+04  0.14740041166E+04  0.25500000000E-02 0.  1.
         -2   -1    0    0    0  501 -0.00000000000E+00 -0.00000000000E+00 -0.15425007364E+02  0.15425007574E+02  0.25500000000E-02 0. -1.
    5000001    1    1    2    0    0  0.11884569141E+03 -0.36945895210E+02  0.54997196064E+03  0.56911110956E+03  0.77000000000E+02 0.  0.
   -5000001    1    1    2    0    0 -0.11884569141E+03  0.36945895210E+02  0.90860714858E+03  0.92031801459E+03  0.77000000000E+02 0.  0.
<mgrwt>
<rscale>  0 0.30157271E+03</rscale>
<asrwt>0</asrwt>
<pdfrwt beam="1">  1        2 0.21057207E+00 0.30157271E+03</pdfrwt>
<pdfrwt beam="2">  1       -2 0.22035719E-02 0.30157271E+03</pdfrwt>
<totfact> 0.10797083E+04</totfact>
</mgrwt>
</event>
<event>
 4    1  0.6919593E-004  0.3161205E+03  0.7818608E-02  0.1077449E+00
         -2   -1    0    0    0  501 -0.00000000000E+00  0.00000000000E+00  0.34786685817E+02  0.34786685911E+02  0.25500000000E-02 0. -1.
          2   -1    0    0  501    0  0.00000000000E+00 -0.00000000000E+00 -0.71817814116E+03  0.71817814116E+03  0.25500000000E-02 0.  1.
    5000001    1    1    2    0    0  0.82990792152E+02 -0.11020578400E+03 -0.33071549309E+03  0.36651674420E+03  0.77000000000E+02 0.  0.
   -5000001    1    1    2    0    0 -0.82990792152E+02  0.11020578400E+03 -0.35267596225E+03  0.38644808287E+03  0.77000000000E+02 0.  0.
<mgrwt>
<rscale>  0 0.31612047E+03</rscale>
<asrwt>0</asrwt>
<pdfrwt beam="1">  1        2 0.10259687E+00 0.31612047E+03</pdfrwt>
<pdfrwt beam="2">  1       -2 0.49695270E-02 0.31612047E+03</pdfrwt>
<totfact> 0.88108509E+03</totfact>
</mgrwt>
</event>
<event>
 4    1  0.6919593E-004  0.2887700E+03  0.7818608E-02  0.1090993E+00
         -2   -1    0    0    0  501 -0.00000000000E+00  0.00000000000E+00  0.36364715672E+03  0.36364715673E+03  0.25500000000E-02 0. -1.
          2   -1    0    0  501    0  0.00000000000E+00 -0.00000000000E+00 -0.57327623784E+02  0.57327623840E+02  0.25500000000E-02 0.  1.
    5000001    1    1    2    0    0  0.82495445660E+02  0.39960783244E+02  0.27083454156E+03  0.29611266716E+03  0.77000000000E+02 0.  0.
   -5000001    1    1    2    0    0 -0.82495445660E+02 -0.39960783244E+02  0.35484991381E+02  0.12486211341E+03  0.77000000000E+02 0.  0.
<mgrwt>
<rscale>  0 0.28876999E+03</rscale>
<asrwt>0</asrwt>
<pdfrwt beam="1">  1        2 0.81896603E-02 0.28876999E+03</pdfrwt>
<pdfrwt beam="2">  1       -2 0.51949596E-01 0.28876999E+03</pdfrwt>
<totfact> 0.29304407E+03</totfact>
</mgrwt>
</event>
<event>
 4    1  0.6919593E-004  0.3697573E+03  0.7818608E-02  0.1054786E+00
         -2   -1    0    0    0  501 -0.00000000000E+00  0.00000000000E+00  0.10005422902E+02  0.10005423227E+02  0.25500000000E-02 0. -1.
          2   -1    0    0  501    0  0.00000000000E+00 -0.00000000000E+00 -0.34161582006E+04  0.34161582006E+04  0.25500000000E-02 0.  1.
    5000001    1    1    2    0    0 -0.11070644382E+02 -0.15837219668E+03 -0.22145380580E+04  0.22215562388E+04  0.77000000000E+02 0.  0.
   -5000001    1    1    2    0    0  0.11070644382E+02  0.15837219668E+03 -0.11916147197E+04  0.12046073851E+04  0.77000000000E+02 0.  0.
<mgrwt>
<rscale>  0 0.36975726E+03</rscale>
<asrwt>0</asrwt>
<pdfrwt beam="1">  1        2 0.48802185E+00 0.36975726E+03</pdfrwt>
<pdfrwt beam="2">  1       -2 0.14293483E-02 0.36975726E+03</pdfrwt>
<totfact> 0.20535510E+03</totfact>
</mgrwt>
</event>
<event>
 4    1  0.6919593E-004  0.2908222E+03  0.7818608E-02  0.1089921E+00
          2   -1    0    0  501    0  0.00000000000E+00  0.00000000000E+00  0.84501557332E+03  0.84501557332E+03  0.25500000000E-02 0.  1.
         -2   -1    0    0    0  501 -0.00000000000E+00 -0.00000000000E+00 -0.25022484888E+02  0.25022485018E+02  0.25500000000E-02 0. -1.
    5000001    1    1    2    0    0 -0.28543482065E+02 -0.99207623973E+02  0.20801021960E+03  0.24465104635E+03  0.77000000000E+02 0.  0.
   -5000001    1    1    2    0    0  0.28543482065E+02  0.99207623973E+02  0.61198286883E+03  0.62538701199E+03  0.77000000000E+02 0.  0.
<mgrwt>
<rscale>  0 0.29082221E+03</rscale>
<asrwt>0</asrwt>
<pdfrwt beam="1">  1        2 0.12071648E+00 0.29082221E+03</pdfrwt>
<pdfrwt beam="2">  1       -2 0.35746415E-02 0.29082221E+03</pdfrwt>
<totfact> 0.11832238E+04</totfact>
</mgrwt>
</event>
<event>
 4    1  0.6919593E-004  0.2913108E+03  0.7818608E-02  0.1089667E+00
         -2   -1    0    0    0  501 -0.00000000000E+00  0.00000000000E+00  0.72334853026E+02  0.72334853071E+02  0.25500000000E-02 0. -1.
          2   -1    0    0  501    0  0.00000000000E+00 -0.00000000000E+00 -0.29329565684E+03  0.29329565685E+03  0.25500000000E-02 0.  1.
    5000001    1    1    2    0    0 -0.12258077891E+03  0.13841909414E+02 -0.12089507019E+03  0.18910913201E+03  0.77000000000E+02 0.  0.
   -5000001    1    1    2    0    0  0.12258077891E+03 -0.13841909414E+02 -0.10006573362E+03  0.17652137791E+03  0.77000000000E+02 0.  0.
<mgrwt>
<rscale>  0 0.29131082E+03</rscale>
<asrwt>0</asrwt>
<pdfrwt beam="1">  1        2 0.41899379E-01 0.29131082E+03</pdfrwt>
<pdfrwt beam="2">  1       -2 0.10333551E-01 0.29131082E+03</pdfrwt>
<totfact> 0.76114886E+03</totfact>
</mgrwt>
</event>
<event>
 4    1  0.6919593E-004  0.2072963E+03  0.7818608E-02  0.1143725E+00
          2   -1    0    0  501    0  0.00000000000E+00  0.00000000000E+00  0.71134401394E+03  0.71134401394E+03  0.25500000000E-02 0.  1.
         -2   -1    0    0    0  501 -0.00000000000E+00 -0.00000000000E+00 -0.15102316820E+02  0.15102317035E+02  0.25500000000E-02 0. -1.
    5000001    1    1    2    0    0 -0.71762480587E+01 -0.68066075590E+02  0.30824876656E+03  0.32500890952E+03  0.77000000000E+02 0.  0.
   -5000001    1    1    2    0    0  0.71762480587E+01  0.68066075590E+02  0.38799293056E+03  0.40143742146E+03  0.77000000000E+02 0.  0.
<mgrwt>
<rscale>  0 0.20729634E+03</rscale>
<asrwt>0</asrwt>
<pdfrwt beam="1">  1        2 0.10162057E+00 0.20729634E+03</pdfrwt>
<pdfrwt beam="2">  1       -2 0.21574740E-02 0.20729634E+03</pdfrwt>
<totfact> 0.30309099E+04</totfact>
</mgrwt>
</event>
<event>
 4    1  0.6919593E-004  0.2624025E+03  0.7818608E-02  0.1105708E+00
         -2   -1    0    0    0  501 -0.00000000000E+00  0.00000000000E+00  0.97597025530E+01  0.97597028861E+01  0.25500000000E-02 0. -1.
          2   -1    0    0  501    0  0.00000000000E+00 -0.00000000000E+00 -0.17637593374E+04  0.17637593374E+04  0.25500000000E-02 0.  1.
    5000001    1    1    2    0    0  0.96173759586E+02 -0.36033874297E+02 -0.69352249311E+03  0.70530155294E+03  0.77000000000E+02 0.  0.
   -5000001    1    1    2    0    0 -0.96173759586E+02  0.36033874297E+02 -0.10604771417E+04  0.10682174874E+04  0.77000000000E+02 0.  0.
<mgrwt>
<rscale>  0 0.26240249E+03</rscale>
<asrwt>0</asrwt>
<pdfrwt beam="1">  1        2 0.25196542E+00 0.26240249E+03</pdfrwt>
<pdfrwt beam="2">  1       -2 0.13942444E-02 0.26240249E+03</pdfrwt>
<totfact> 0.15111424E+04</totfact>
</mgrwt>
</event>
<event>
 4    1  0.6919593E-004  0.1581741E+03  0.7818608E-02  0.1190774E+00
          2   -1    0    0  501    0  0.00000000000E+00  0.00000000000E+00  0.53138023581E+03  0.53138023581E+03  0.25500000000E-02 0.  1.
         -2   -1    0    0    0  501 -0.00000000000E+00 -0.00000000000E+00 -0.11770789548E+02  0.11770789824E+02  0.25500000000E-02 0. -1.
    5000001    1    1    2    0    0 -0.72968960945E+00 -0.14555149702E+02  0.29636872027E+03  0.30655473114E+03  0.77000000000E+02 0.  0.
   -5000001    1    1    2    0    0  0.72968960945E+00  0.14555149702E+02  0.22324072599E+03  0.23659629450E+03  0.77000000000E+02 0.  0.
<mgrwt>
<rscale>  0 0.15817414E+03</rscale>
<asrwt>0</asrwt>
<pdfrwt beam="1">  1        2 0.75911468E-01 0.15817414E+03</pdfrwt>
<pdfrwt beam="2">  1       -2 0.16815412E-02 0.15817414E+03</pdfrwt>
<totfact> 0.59283685E+04</totfact>
</mgrwt>
</event>
<event>
 4    1  0.6919593E-004  0.3369475E+03  0.7818608E-02  0.1068104E+00
          2   -1    0    0  501    0  0.00000000000E+00  0.00000000000E+00  0.73532994139E+03  0.73532994140E+03  0.25500000000E-02 0.  1.
         -2   -1    0    0    0  501 -0.00000000000E+00 -0.00000000000E+00 -0.38599557594E+02  0.38599557678E+02  0.25500000000E-02 0. -1.
    5000001    1    1    2    0    0  0.10889126320E+03  0.10286405785E+03  0.33915217775E+03  0.37867072935E+03  0.77000000000E+02 0.  0.
   -5000001    1    1    2    0    0 -0.10889126320E+03 -0.10286405785E+03  0.35757820605E+03  0.39525876972E+03  0.77000000000E+02 0.  0.
<mgrwt>
<rscale>  0 0.33694754E+03</rscale>
<asrwt>0</asrwt>
<pdfrwt beam="1">  1        2 0.10504713E+00 0.33694754E+03</pdfrwt>
<pdfrwt beam="2">  1       -2 0.55142228E-02 0.33694754E+03</pdfrwt>
<totfact> 0.73170245E+03</totfact>
</mgrwt>
</event>
<event>
 4    1  0.6919593E-004  0.4364998E+03  0.7818608E-02  0.1031826E+00
          2   -1    0    0  501    0  0.00000000000E+00  0.00000000000E+00  0.14696001599E+04  0.14696001600E+04  0.25500000000E-02 0.  1.
         -2   -1    0    0    0  501 -0.00000000000E+00 -0.00000000000E+00 -0.32412236529E+02  0.32412236630E+02  0.25500000000E-02 0. -1.
    5000001    1    1    2    0    0 -0.15613150096E+03  0.82522334342E+01  0.11706536380E+04  0.11835556959E+04  0.77000000000E+02 0.  0.
   -5000001    1    1    2    0    0  0.15613150096E+03 -0.82522334342E+01  0.26653428537E+03  0.31845670071E+03  0.77000000000E+02 0.  0.
<mgrwt>
<rscale>  0 0.43649984E+03</rscale>
<asrwt>0</asrwt>
<pdfrwt beam="1">  1        2 0.20994292E+00 0.43649984E+03</pdfrwt>
<pdfrwt beam="2">  1       -2 0.46303186E-02 0.43649984E+03</pdfrwt>
<totfact> 0.35652027E+03</totfact>
</mgrwt>
</event>
<event>
 4    1  0.6919593E-004  0.3668040E+03  0.7818608E-02  0.1055922E+00
          2   -1    0    0  501    0  0.00000000000E+00  0.00000000000E+00  0.29546370014E+04  0.29546370014E+04  0.25500000000E-02 0.  1.
         -2   -1    0    0    0  501 -0.00000000000E+00 -0.00000000000E+00 -0.11384236375E+02  0.11384236660E+02  0.25500000000E-02 0. -1.
    5000001    1    1    2    0    0 -0.11515775104E+03  0.11856350121E+03  0.13122097810E+04  0.13248177689E+04  0.77000000000E+02 0.  0.
   -5000001    1    1    2    0    0  0.11515775104E+03 -0.11856350121E+03  0.16310429840E+04  0.16412034692E+04  0.77000000000E+02 0.  0.
<mgrwt>
<rscale>  0 0.36680396E+03</rscale>
<asrwt>0</asrwt>
<pdfrwt beam="1">  1        2 0.42209182E+00 0.36680396E+03</pdfrwt>
<pdfrwt beam="2">  1       -2 0.16263163E-02 0.36680396E+03</pdfrwt>
<totfact> 0.30533664E+03</totfact>
</mgrwt>
</event>
<event>
 4    1  0.6919593E-004  0.2500237E+03  0.7818608E-02  0.1113290E+00
         -2   -1    0    0    0  501 -0.00000000000E+00  0.00000000000E+00  0.46518984974E+02  0.46518985044E+02  0.25500000000E-02 0. -1.
          2   -1    0    0  501    0  0.00000000000E+00 -0.00000000000E+00 -0.33594808310E+03  0.33594808311E+03  0.25500000000E-02 0.  1.
    5000001    1    1    2    0    0  0.26633580219E+02 -0.44823823390E-01  0.32397780640E+00  0.81476711802E+02  0.77000000000E+02 0.  0.
   -5000001    1    1    2    0    0 -0.26633580219E+02  0.44823823390E-01 -0.28975307594E+03  0.30099035636E+03  0.77000000000E+02 0.  0.
<mgrwt>
<rscale>  0 0.25002371E+03</rscale>
<asrwt>0</asrwt>
<pdfrwt beam="1">  1        2 0.47992582E-01 0.25002371E+03</pdfrwt>
<pdfrwt beam="2">  1       -2 0.66455695E-02 0.25002371E+03</pdfrwt>
<totfact> 0.13045983E+04</totfact>
</mgrwt>
</event>
<event>
 4    1  0.6919593E-004  0.4374875E+03  0.7818608E-02  0.1031520E+00
          2   -1    0    0  501    0  0.00000000000E+00  0.00000000000E+00  0.76335550684E+02  0.76335550727E+02  0.25500000000E-02 0.  1.
         -2   -1    0    0    0  501 -0.00000000000E+00 -0.00000000000E+00 -0.62682230846E+03  0.62682230846E+03  0.25500000000E-02 0. -1.
    5000001    1    1    2    0    0 -0.14078759681E+03  0.92132214266E+02 -0.87734609330E+02  0.20478245529E+03  0.77000000000E+02 0.  0.
   -5000001    1    1    2    0    0  0.14078759681E+03 -0.92132214266E+02 -0.46275214844E+03  0.49837540390E+03  0.77000000000E+02 0.  0.
<mgrwt>
<rscale>  0 0.43748749E+03</rscale>
<asrwt>0</asrwt>
<pdfrwt beam="1">  1        2 0.10905079E-01 0.43748749E+03</pdfrwt>
<pdfrwt beam="2">  1       -2 0.89546042E-01 0.43748749E+03</pdfrwt>
<totfact> 0.64055339E+02</totfact>
</mgrwt>
</event>
<event>
 4    1  0.6919593E-004  0.2028293E+03  0.7818608E-02  0.1147374E+00
          2   -1    0    0  501    0  0.00000000000E+00  0.00000000000E+00  0.19977606292E+04  0.19977606292E+04  0.25500000000E-02 0.  1.
         -2   -1    0    0    0  501 -0.00000000000E+00 -0.00000000000E+00 -0.51482280661E+01  0.51482286977E+01  0.25500000000E-02 0. -1.
    5000001    1    1    2    0    0  0.50288772865E+02 -0.30134415725E+02  0.69696880420E+03  0.70365585176E+03  0.77000000000E+02 0.  0.
   -5000001    1    1    2    0    0 -0.50288772865E+02  0.30134415725E+02  0.12956435969E+04  0.12992530061E+04  0.77000000000E+02 0.  0.
<mgrwt>
<rscale>  0 0.20282927E+03</rscale>
<asrwt>0</asrwt>
<pdfrwt beam="1">  1        2 0.28539490E+00 0.20282927E+03</pdfrwt>
<pdfrwt beam="2">  1       -2 0.73545984E-03 0.20282927E+03</pdfrwt>
<totfact> 0.29063960E+04</totfact>
</mgrwt>
</event>
<event>
 4    1  0.6919593E-004  0.3216614E+03  0.7818608E-02  0.1074887E+00
          2   -1    0    0  501    0  0.00000000000E+00  0.00000000000E+00  0.17722604673E+03  0.17722604675E+03  0.25500000000E-02 0.  1.
         -2   -1    0    0    0  501 -0.00000000000E+00 -0.00000000000E+00 -0.14595207749E+03  0.14595207751E+03  0.25500000000E-02 0. -1.
    5000001    1    1    2    0    0 -0.10663687400E+03 -0.89449202413E+02  0.39517253465E+02  0.16389995738E+03  0.77000000000E+02 0.  0.
   -5000001    1    1    2    0    0  0.10663687400E+03  0.89449202413E+02 -0.82432842228E+01  0.15927816688E+03  0.77000000000E+02 0.  0.
<mgrwt>
<rscale>  0 0.32166137E+03</rscale>
<asrwt>0</asrwt>
<pdfrwt beam="1">  1        2 0.25318007E-01 0.32166137E+03</pdfrwt>
<pdfrwt beam="2">  1       -2 0.20850297E-01 0.32166137E+03</pdfrwt>
<totfact> 0.41506329E+03</totfact>
</mgrwt>
</event>
<event>
 4    1  0.6919593E-004  0.2377181E+03  0.7818608E-02  0.1121322E+00
         -2   -1    0    0    0  501 -0.00000000000E+00  0.00000000000E+00  0.20654552223E+03  0.20654552225E+03  0.25500000000E-02 0. -1.
          2   -1    0    0  501    0  0.00000000000E+00 -0.00000000000E+00 -0.68398836412E+02  0.68398836459E+02  0.25500000000E-02 0.  1.
    5000001    1    1    2    0    0 -0.71176111282E+02  0.40583173570E+02  0.11365027889E+03  0.15987000558E+03  0.77000000000E+02 0.  0.
   -5000001    1    1    2    0    0  0.71176111282E+02 -0.40583173570E+02  0.24496406934E+02  0.11507435312E+03  0.77000000000E+02 0.  0.
<mgrwt>
<rscale>  0 0.23771810E+03</rscale>
<asrwt>0</asrwt>
<pdfrwt beam="1">  1        2 0.97712623E-02 0.23771810E+03</pdfrwt>
<pdfrwt beam="2">  1       -2 0.29506503E-01 0.23771810E+03</pdfrwt>
<totfact> 0.68399279E+03</totfact>
</mgrwt>
</event>
<event>
 4    1  0.6919593E-004  0.1803022E+03  0.7818608E-02  0.1167511E+00
         -2   -1    0    0    0  501 -0.00000000000E+00  0.00000000000E+00  0.51884742669E+02  0.51884742732E+02  0.25500000000E-02 0. -1.
          2   -1    0    0  501    0  0.00000000000E+00 -0.00000000000E+00 -0.15663991408E+03  0.15663991410E+03  0.25500000000E-02 0.  1.
    5000001    1    1    2    0    0  0.39097444723E+02 -0.10972029950E+02 -0.79481493958E+02  0.11787834198E+03  0.77000000000E+02 0.  0.
   -5000001    1    1    2    0    0 -0.39097444723E+02  0.10972029950E+02 -0.25273677453E+02  0.90646314857E+02  0.77000000000E+02 0.  0.
<mgrwt>
<rscale>  0 0.18030221E+03</rscale>
<asrwt>0</asrwt>
<pdfrwt beam="1">  1        2 0.22377130E-01 0.18030221E+03</pdfrwt>
<pdfrwt beam="2">  1       -2 0.74121062E-02 0.18030221E+03</pdfrwt>
<totfact> 0.24741862E+04</totfact>
</mgrwt>
</event>
<event>
 4    1  0.6919593E-004  0.2241543E+03  0.7818608E-02  0.1130823E+00
         -2   -1    0    0    0  501 -0.00000000000E+00  0.00000000000E+00  0.11967315484E+02  0.11967315756E+02  0.25500000000E-02 0. -1.
          2   -1    0    0  501    0  0.00000000000E+00 -0.00000000000E+00 -0.10496325147E+04  0.10496325147E+04  0.25500000000E-02 0.  1.
    5000001    1    1    2    0    0  0.75964988378E+02  0.19840257372E+02 -0.62128498187E+03  0.63094242525E+03  0.77000000000E+02 0.  0.
   -5000001    1    1    2    0    0 -0.75964988378E+02 -0.19840257372E+02 -0.41638021735E+03  0.43065740522E+03  0.77000000000E+02 0.  0.
<mgrwt>
<rscale>  0 0.22415426E+03</rscale>
<asrwt>0</asrwt>
<pdfrwt beam="1">  1        2 0.14994744E+00 0.22415426E+03</pdfrwt>
<pdfrwt beam="2">  1       -2 0.17096172E-02 0.22415426E+03</pdfrwt>
<totfact> 0.26115813E+04</totfact>
</mgrwt>
</event>
<event>
 4    1  0.6919593E-004  0.2673806E+03  0.7818608E-02  0.1102788E+00
         -2   -1    0    0    0  501 -0.00000000000E+00  0.00000000000E+00  0.81388750518E+01  0.81388754513E+01  0.25500000000E-02 0. -1.
          2   -1    0    0  501    0  0.00000000000E+00 -0.00000000000E+00 -0.21960156319E+04  0.21960156319E+04  0.25500000000E-02 0.  1.
    5000001    1    1    2    0    0 -0.84080336238E+02 -0.61491566648E+02 -0.82135585728E+03  0.83150776304E+03  0.77000000000E+02 0.  0.
   -5000001    1    1    2    0    0  0.84080336238E+02  0.61491566648E+02 -0.13665208996E+04  0.13726467443E+04  0.77000000000E+02 0.  0.
<mgrwt>
<rscale>  0 0.26738061E+03</rscale>
<asrwt>0</asrwt>
<pdfrwt beam="1">  1        2 0.31371614E+00 0.26738061E+03</pdfrwt>
<pdfrwt beam="2">  1       -2 0.11626979E-02 0.26738061E+03</pdfrwt>
<totfact> 0.12122572E+04</totfact>
</mgrwt>
</event>
<event>
 4    1  0.6919593E-004  0.3826034E+03  0.7818608E-02  0.1049976E+00
         -2   -1    0    0    0  501 -0.00000000000E+00  0.00000000000E+00  0.52572221373E+02  0.52572221435E+02  0.25500000000E-02 0. -1.
          2   -1    0    0  501    0  0.00000000000E+00 -0.00000000000E+00 -0.69611560783E+03  0.69611560784E+03  0.25500000000E-02 0.  1.
    5000001    1    1    2    0    0 -0.17041872603E+02 -0.15734080294E+03 -0.46847861819E+03  0.50044756908E+03  0.77000000000E+02 0.  0.
   -5000001    1    1    2    0    0  0.17041872603E+02  0.15734080294E+03 -0.17506476827E+03  0.24824026019E+03  0.77000000000E+02 0.  0.
<mgrwt>
<rscale>  0 0.38260342E+03</rscale>
<asrwt>0</asrwt>
<pdfrwt beam="1">  1        2 0.99445082E-01 0.38260342E+03</pdfrwt>
<pdfrwt beam="2">  1       -2 0.75103177E-02 0.38260342E+03</pdfrwt>
<totfact> 0.48538596E+03</totfact>
</mgrwt>
</event>
<event>
 4    1  0.6919593E-004  0.3805117E+03  0.7818608E-02  0.1050745E+00
         -2   -1    0    0    0  501 -0.00000000000E+00  0.00000000000E+00  0.71413369561E+02  0.71413369606E+02  0.25500000000E-02 0. -1.
          2   -1    0    0  501    0  0.00000000000E+00 -0.00000000000E+00 -0.50686987476E+03  0.50686987477E+03  0.25500000000E-02 0.  1.
    5000001    1    1    2    0    0 -0.61535647592E+02 -0.12982545461E+03 -0.36684214994E+03  0.40142676488E+03  0.77000000000E+02 0.  0.
   -5000001    1    1    2    0    0  0.61535647592E+02  0.12982545461E+03 -0.68614355259E+02  0.17685647949E+03  0.77000000000E+02 0.  0.
<mgrwt>
<rscale>  0 0.38051169E+03</rscale>
<asrwt>0</asrwt>
<pdfrwt beam="1">  1        2 0.72409980E-01 0.38051169E+03</pdfrwt>
<pdfrwt beam="2">  1       -2 0.10201910E-01 0.38051169E+03</pdfrwt>
<totfact> 0.43090883E+03</totfact>
</mgrwt>
</event>
<event>
 4    1  0.6919593E-004  0.2000679E+03  0.7818608E-02  0.1149682E+00
         -2   -1    0    0    0  501 -0.00000000000E+00  0.00000000000E+00  0.40866298051E+01  0.40866306007E+01  0.25500000000E-02 0. -1.
          2   -1    0    0  501    0  0.00000000000E+00 -0.00000000000E+00 -0.24486661551E+04  0.24486661551E+04  0.25500000000E-02 0.  1.
    5000001    1    1    2    0    0  0.36230445914E+02 -0.27059814284E+01 -0.57847680134E+03  0.58470879696E+03  0.77000000000E+02 0.  0.
   -5000001    1    1    2    0    0 -0.36230445914E+02  0.27059814284E+01 -0.18661027240E+04  0.18680439888E+04  0.77000000000E+02 0.  0.
<mgrwt>
<rscale>  0 0.20006792E+03</rscale>
<asrwt>0</asrwt>
<pdfrwt beam="1">  1        2 0.34980851E+00 0.20006792E+03</pdfrwt>
<pdfrwt beam="2">  1       -2 0.58380588E-03 0.20006792E+03</pdfrwt>
<totfact> 0.24443018E+04</totfact>
</mgrwt>
</event>
<event>
 4    1  0.6919593E-004  0.2196880E+03  0.7818608E-02  0.1134116E+00
          2   -1    0    0  501    0  0.00000000000E+00  0.00000000000E+00  0.66078508983E+03  0.66078508983E+03  0.25500000000E-02 0.  1.
         -2   -1    0    0    0  501 -0.00000000000E+00 -0.00000000000E+00 -0.18259653906E+02  0.18259654084E+02  0.25500000000E-02 0. -1.
    5000001    1    1    2    0    0  0.56615366041E+02  0.53515046128E+02  0.29585907955E+03  0.31548495176E+03  0.77000000000E+02 0.  0.
   -5000001    1    1    2    0    0 -0.56615366041E+02 -0.53515046128E+02  0.34666635637E+03  0.36355979215E+03  0.77000000000E+02 0.  0.
<mgrwt>
<rscale>  0 0.21968803E+03</rscale>
<asrwt>0</asrwt>
<pdfrwt beam="1">  1        2 0.94397889E-01 0.21968803E+03</pdfrwt>
<pdfrwt beam="2">  1       -2 0.26085215E-02 0.21968803E+03</pdfrwt>
<totfact> 0.25094900E+04</totfact>
</mgrwt>
</event>
<event>
 4    1  0.6919593E-004  0.2730764E+03  0.7818608E-02  0.1099532E+00
          2   -1    0    0  501    0  0.00000000000E+00  0.00000000000E+00  0.60083474430E+03  0.60083474430E+03  0.25500000000E-02 0.  1.
         -2   -1    0    0    0  501 -0.00000000000E+00 -0.00000000000E+00 -0.31027956805E+02  0.31027956910E+02  0.25500000000E-02 0. -1.
    5000001    1    1    2    0    0  0.51393856452E+01 -0.10049296785E+03  0.16718173324E+03  0.20977126067E+03  0.77000000000E+02 0.  0.
   -5000001    1    1    2    0    0 -0.51393856452E+01  0.10049296785E+03  0.40262505425E+03  0.42209144055E+03  0.77000000000E+02 0.  0.
<mgrwt>
<rscale>  0 0.27307636E+03</rscale>
<asrwt>0</asrwt>
<pdfrwt beam="1">  1        2 0.85833531E-01 0.27307636E+03</pdfrwt>
<pdfrwt beam="2">  1       -2 0.44325654E-02 0.27307636E+03</pdfrwt>
<totfact> 0.12844838E+04</totfact>
</mgrwt>
</event>
<event>
 4    1  0.6919593E-004  0.2447143E+03  0.7818608E-02  0.1116692E+00
         -2   -1    0    0    0  501 -0.00000000000E+00  0.00000000000E+00  0.20000512409E+02  0.20000512571E+02  0.25500000000E-02 0. -1.
          2   -1    0    0  501    0  0.00000000000E+00 -0.00000000000E+00 -0.74854467962E+03  0.74854467962E+03  0.25500000000E-02 0.  1.
    5000001    1    1    2    0    0  0.89027038864E+02 -0.26074615403E+02 -0.42989279161E+03  0.44647789586E+03  0.77000000000E+02 0.  0.
   -5000001    1    1    2    0    0 -0.89027038864E+02  0.26074615403E+02 -0.29865137560E+03  0.32206729633E+03  0.77000000000E+02 0.  0.
<mgrwt>
<rscale>  0 0.24471434E+03</rscale>
<asrwt>0</asrwt>
<pdfrwt beam="1">  1        2 0.10693494E+00 0.24471434E+03</pdfrwt>
<pdfrwt beam="2">  1       -2 0.28572165E-02 0.24471434E+03</pdfrwt>
<totfact> 0.19047505E+04</totfact>
</mgrwt>
</event>
<event>
 4    1  0.6919593E-004  0.3376155E+03  0.7818608E-02  0.1067816E+00
         -2   -1    0    0    0  501 -0.00000000000E+00  0.00000000000E+00  0.50108508073E+02  0.50108508137E+02  0.25500000000E-02 0. -1.
          2   -1    0    0  501    0  0.00000000000E+00 -0.00000000000E+00 -0.56868705892E+03  0.56868705892E+03  0.25500000000E-02 0.  1.
    5000001    1    1    2    0    0  0.31807009973E+02 -0.11434900614E+03 -0.90511796416E+02  0.16795465572E+03  0.77000000000E+02 0.  0.
   -5000001    1    1    2    0    0 -0.31807009973E+02  0.11434900614E+03 -0.42806675443E+03  0.45084091134E+03  0.77000000000E+02 0.  0.
<mgrwt>
<rscale>  0 0.33761552E+03</rscale>
<asrwt>0</asrwt>
<pdfrwt beam="1">  1        2 0.81241005E-01 0.33761552E+03</pdfrwt>
<pdfrwt beam="2">  1       -2 0.71583586E-02 0.33761552E+03</pdfrwt>
<totfact> 0.66065556E+03</totfact>
</mgrwt>
</event>
<event>
 4    1  0.6919593E-004  0.2728847E+03  0.7818608E-02  0.1099640E+00
         -2   -1    0    0    0  501 -0.00000000000E+00  0.00000000000E+00  0.18320502877E+03  0.18320502879E+03  0.25500000000E-02 0. -1.
          2   -1    0    0  501    0  0.00000000000E+00 -0.00000000000E+00 -0.10161572681E+03  0.10161572684E+03  0.25500000000E-02 0.  1.
    5000001    1    1    2    0    0 -0.10511461257E+03  0.38798581490E+02  0.28753104755E+02  0.13896097558E+03  0.77000000000E+02 0.  0.
   -5000001    1    1    2    0    0  0.10511461257E+03 -0.38798581490E+02  0.52836197213E+02  0.14585978005E+03  0.77000000000E+02 0.  0.
<mgrwt>
<rscale>  0 0.27288468E+03</rscale>
<asrwt>0</asrwt>
<pdfrwt beam="1">  1        2 0.14516532E-01 0.27288468E+03</pdfrwt>
<pdfrwt beam="2">  1       -2 0.26172147E-01 0.27288468E+03</pdfrwt>
<totfact> 0.52702096E+03</totfact>
</mgrwt>
</event>
<event>
 4    1  0.6919593E-004  0.2895830E+03  0.7818608E-02  0.1090567E+00
         -2   -1    0    0    0  501 -0.00000000000E+00  0.00000000000E+00  0.19919099366E+02  0.19919099529E+02  0.25500000000E-02 0. -1.
          2   -1    0    0  501    0  0.00000000000E+00 -0.00000000000E+00 -0.10524862027E+04  0.10524862027E+04  0.25500000000E-02 0.  1.
    5000001    1    1    2    0    0  0.82918228817E+01 -0.98924887058E+02 -0.24973293402E+03  0.27955397679E+03  0.77000000000E+02 0.  0.
   -5000001    1    1    2    0    0 -0.82918228817E+01  0.98924887058E+02 -0.78283416934E+03  0.79285132546E+03  0.77000000000E+02 0.  0.
<mgrwt>
<rscale>  0 0.28958299E+03</rscale>
<asrwt>0</asrwt>
<pdfrwt beam="1">  1        2 0.15035514E+00 0.28958299E+03</pdfrwt>
<pdfrwt beam="2">  1       -2 0.28455863E-02 0.28958299E+03</pdfrwt>
<totfact> 0.12427517E+04</totfact>
</mgrwt>
</event>
<event>
 4    1  0.6919593E-004  0.3948638E+03  0.7818608E-02  0.1045573E+00
         -2   -1    0    0    0  501 -0.00000000000E+00  0.00000000000E+00  0.39851530087E+02  0.39851530169E+02  0.25500000000E-02 0. -1.
          2   -1    0    0  501    0  0.00000000000E+00 -0.00000000000E+00 -0.97811418886E+03  0.97811418886E+03  0.25500000000E-02 0.  1.
    5000001    1    1    2    0    0 -0.19297179064E+02  0.85529241237E+02 -0.58564606014E+02  0.13056203623E+03  0.77000000000E+02 0.  0.
   -5000001    1    1    2    0    0  0.19297179064E+02 -0.85529241237E+02 -0.87969805276E+03  0.88740368280E+03  0.77000000000E+02 0.  0.
<mgrwt>
<rscale>  0 0.39486376E+03</rscale>
<asrwt>0</asrwt>
<pdfrwt beam="1">  1        2 0.13973058E+00 0.39486376E+03</pdfrwt>
<pdfrwt beam="2">  1       -2 0.56930764E-02 0.39486376E+03</pdfrwt>
<totfact> 0.48452767E+03</totfact>
</mgrwt>
</event>
<event>
 4    1  0.6919593E-004  0.2089479E+03  0.7818608E-02  0.1142402E+00
         -2   -1    0    0    0  501 -0.00000000000E+00  0.00000000000E+00  0.23223016282E+01  0.23223030282E+01  0.25500000000E-02 0. -1.
          2   -1    0    0  501    0  0.00000000000E+00 -0.00000000000E+00 -0.46999932533E+04  0.46999932533E+04  0.25500000000E-02 0.  1.
    5000001    1    1    2    0    0  0.32805981655E+02  0.45015987864E+02 -0.13722407968E+04  0.13755277082E+04  0.77000000000E+02 0.  0.
   -5000001    1    1    2    0    0 -0.32805981655E+02 -0.45015987864E+02 -0.33254301548E+04  0.33267878480E+04  0.77000000000E+02 0.  0.
<mgrwt>
<rscale>  0 0.20894789E+03</rscale>
<asrwt>0</asrwt>
<pdfrwt beam="1">  1        2 0.67142151E+00 0.20894789E+03</pdfrwt>
<pdfrwt beam="2">  1       -2 0.33176049E-03 0.20894789E+03</pdfrwt>
<totfact> 0.23889305E+03</totfact>
</mgrwt>
</event>
<event>
 4    1  0.6919593E-004  0.3790773E+03  0.7818608E-02  0.1051275E+00
          2   -1    0    0  501    0  0.00000000000E+00  0.00000000000E+00  0.13551768263E+04  0.13551768263E+04  0.25500000000E-02 0.  1.
         -2   -1    0    0    0  501 -0.00000000000E+00 -0.00000000000E+00 -0.26509381984E+02  0.26509382107E+02  0.25500000000E-02 0. -1.
    5000001    1    1    2    0    0  0.13242979826E+03  0.11354300303E+02  0.25961680726E+03  0.30165619207E+03  0.77000000000E+02 0.  0.
   -5000001    1    1    2    0    0 -0.13242979826E+03 -0.11354300303E+02  0.10690506371E+04  0.10800300163E+04  0.77000000000E+02 0.  0.
<mgrwt>
<rscale>  0 0.37907730E+03</rscale>
<asrwt>0</asrwt>
<pdfrwt beam="1">  1        2 0.19359674E+00 0.37907730E+03</pdfrwt>
<pdfrwt beam="2">  1       -2 0.37870536E-02 0.37907730E+03</pdfrwt>
<totfact> 0.55539853E+03</totfact>
</mgrwt>
</event>
<event>
 4    1  0.6919593E-004  0.1619430E+03  0.7818608E-02  0.1186520E+00
         -2   -1    0    0    0  501 -0.00000000000E+00  0.00000000000E+00  0.12165561425E+03  0.12165561428E+03  0.25500000000E-02 0. -1.
          2   -1    0    0  501    0  0.00000000000E+00 -0.00000000000E+00 -0.53893007423E+02  0.53893007483E+02  0.25500000000E-02 0.  1.
    5000001    1    1    2    0    0 -0.15581578032E+02 -0.17100468383E+02  0.44288709657E+02  0.91791619421E+02  0.77000000000E+02 0.  0.
   -5000001    1    1    2    0    0  0.15581578032E+02  0.17100468383E+02  0.23473897174E+02  0.83757002343E+02  0.77000000000E+02 0.  0.
<mgrwt>
<rscale>  0 0.16194304E+03</rscale>
<asrwt>0</asrwt>
<pdfrwt beam="1">  1        2 0.76990010E-02 0.16194304E+03</pdfrwt>
<pdfrwt beam="2">  1       -2 0.17379374E-01 0.16194304E+03</pdfrwt>
<totfact> 0.22441090E+04</totfact>
</mgrwt>
</event>
<event>
 4    1  0.6919593E-004  0.1704963E+03  0.7818608E-02  0.1177331E+00
          2   -1    0    0  501    0  0.00000000000E+00  0.00000000000E+00  0.12344636379E+03  0.12344636381E+03  0.25500000000E-02 0.  1.
         -2   -1    0    0    0  501 -0.00000000000E+00 -0.00000000000E+00 -0.58869658507E+02  0.58869658562E+02  0.25500000000E-02 0. -1.
    5000001    1    1    2    0    0  0.16063290974E+02  0.29519269042E+02  0.16835628512E+02  0.85684624928E+02  0.77000000000E+02 0.  0.
   -5000001    1    1    2    0    0 -0.16063290974E+02 -0.29519269042E+02  0.47741076768E+02  0.96631397448E+02  0.77000000000E+02 0.  0.
<mgrwt>
<rscale>  0 0.17049628E+03</rscale>
<asrwt>0</asrwt>
<pdfrwt beam="1">  1        2 0.17635195E-01 0.17049628E+03</pdfrwt>
<pdfrwt beam="2">  1       -2 0.84099511E-02 0.17049628E+03</pdfrwt>
<totfact> 0.26537848E+04</totfact>
</mgrwt>
</event>
<event>
 4    1  0.6919593E-004  0.1821529E+03  0.7818608E-02  0.1165736E+00
         -2   -1    0    0    0  501 -0.00000000000E+00  0.00000000000E+00  0.64827602694E+02  0.64827602744E+02  0.25500000000E-02 0. -1.
          2   -1    0    0  501    0  0.00000000000E+00 -0.00000000000E+00 -0.12795355127E+03  0.12795355130E+03  0.25500000000E-02 0.  1.
    5000001    1    1    2    0    0  0.45194451266E+02 -0.10474668443E+02 -0.16092807106E+02  0.91324890062E+02  0.77000000000E+02 0.  0.
   -5000001    1    1    2    0    0 -0.45194451266E+02  0.10474668443E+02 -0.47033141474E+02  0.10145626398E+03  0.77000000000E+02 0.  0.
<mgrwt>
<rscale>  0 0.18215292E+03</rscale>
<asrwt>0</asrwt>
<pdfrwt beam="1">  1        2 0.18279079E-01 0.18215292E+03</pdfrwt>
<pdfrwt beam="2">  1       -2 0.92610861E-02 0.18215292E+03</pdfrwt>
<totfact> 0.22032703E+04</totfact>
</mgrwt>
</event>
<event>
 4    1  0.6919593E-004  0.1798624E+03  0.7818608E-02  0.1167936E+00
         -2   -1    0    0    0  501 -0.00000000000E+00  0.00000000000E+00  0.16578793070E+02  0.16578793266E+02  0.25500000000E-02 0. -1.
          2   -1    0    0  501    0  0.00000000000E+00 -0.00000000000E+00 -0.48782920473E+03  0.48782920474E+03  0.25500000000E-02 0.  1.
    5000001    1    1    2    0    0  0.44497523935E+02  0.10881345113E+02 -0.21386865674E+03  0.23187763075E+03  0.77000000000E+02 0.  0.
   -5000001    1    1    2    0    0 -0.44497523935E+02 -0.10881345113E+02 -0.25738175492E+03  0.27253036725E+03  0.77000000000E+02 0.  0.
<mgrwt>
<rscale>  0 0.17986239E+03</rscale>
<asrwt>0</asrwt>
<pdfrwt beam="1">  1        2 0.69689878E-01 0.17986239E+03</pdfrwt>
<pdfrwt beam="2">  1       -2 0.23683993E-02 0.17986239E+03</pdfrwt>
<totfact> 0.40020482E+04</totfact>
</mgrwt>
</event>
<event>
 4    1  0.6919593E-004  0.3373151E+03  0.7818608E-02  0.1067945E+00
         -2   -1    0    0    0  501 -0.00000000000E+00  0.00000000000E+00  0.10256512398E+02  0.10256512715E+02  0.25500000000E-02 0. -1.
          2   -1    0    0  501    0  0.00000000000E+00 -0.00000000000E+00 -0.27733952661E+04  0.27733952661E+04  0.25500000000E-02 0.  1.
    5000001    1    1    2    0    0 -0.86073915545E+02 -0.12016528909E+03 -0.15948495124E+04  0.16035343411E+04  0.77000000000E+02 0.  0.
   -5000001    1    1    2    0    0  0.86073915545E+02  0.12016528909E+03 -0.11682892412E+04  0.11801174377E+04  0.77000000000E+02 0.  0.
<mgrwt>
<rscale>  0 0.33731507E+03</rscale>
<asrwt>0</asrwt>
<pdfrwt beam="1">  1        2 0.39619884E+00 0.33731507E+03</pdfrwt>
<pdfrwt beam="2">  1       -2 0.14652179E-02 0.33731507E+03</pdfrwt>
<totfact> 0.44397234E+03</totfact>
</mgrwt>
</event>
<event>
 4    1  0.6919593E-004  0.2304907E+03  0.7818608E-02  0.1126295E+00
          2   -1    0    0  501    0  0.00000000000E+00  0.00000000000E+00  0.11956778001E+04  0.11956778001E+04  0.25500000000E-02 0.  1.
         -2   -1    0    0    0  501 -0.00000000000E+00 -0.00000000000E+00 -0.11107919749E+02  0.11107920042E+02  0.25500000000E-02 0. -1.
    5000001    1    1    2    0    0  0.83645295071E+02 -0.10471210522E+01  0.69091426973E+03  0.70020651237E+03  0.77000000000E+02 0.  0.
   -5000001    1    1    2    0    0 -0.83645295071E+02  0.10471210522E+01  0.49365561059E+03  0.50657920774E+03  0.77000000000E+02 0.  0.
<mgrwt>
<rscale>  0 0.23049072E+03</rscale>
<asrwt>0</asrwt>
<pdfrwt beam="1">  1        2 0.17081117E+00 0.23049072E+03</pdfrwt>
<pdfrwt beam="2">  1       -2 0.15868452E-02 0.23049072E+03</pdfrwt>
<totfact> 0.24195348E+04</totfact>
</mgrwt>
</event>
<event>
 4    1  0.6919593E-004  0.2949745E+03  0.7818608E-02  0.1087780E+00
         -2   -1    0    0    0  501 -0.00000000000E+00  0.00000000000E+00  0.15869785701E+02  0.15869785906E+02  0.25500000000E-02 0. -1.
          2   -1    0    0  501    0  0.00000000000E+00 -0.00000000000E+00 -0.13706860027E+04  0.13706860027E+04  0.25500000000E-02 0.  1.
    5000001    1    1    2    0    0 -0.61096313234E+02 -0.10994770418E+03 -0.68443722634E+03  0.70014610900E+03  0.77000000000E+02 0.  0.
   -5000001    1    1    2    0    0  0.61096313234E+02  0.10994770418E+03 -0.67037899061E+03  0.68640967956E+03  0.77000000000E+02 0.  0.
<mgrwt>
<rscale>  0 0.29497453E+03</rscale>
<asrwt>0</asrwt>
<pdfrwt beam="1">  1        2 0.19581221E+00 0.29497453E+03</pdfrwt>
<pdfrwt beam="2">  1       -2 0.22671131E-02 0.29497453E+03</pdfrwt>
<totfact> 0.11692748E+04</totfact>
</mgrwt>
</event>
<event>
 4    1  0.6919593E-004  0.1592411E+03  0.7818608E-02  0.1189556E+00
         -2   -1    0    0    0  501 -0.00000000000E+00  0.00000000000E+00  0.71665478400E+01  0.71665482937E+01  0.25500000000E-02 0. -1.
          2   -1    0    0  501    0  0.00000000000E+00 -0.00000000000E+00 -0.88458661892E+03  0.88458661892E+03  0.25500000000E-02 0.  1.
    5000001    1    1    2    0    0 -0.27874909585E+01 -0.14377130972E+02 -0.36031766971E+03  0.36874421366E+03  0.77000000000E+02 0.  0.
   -5000001    1    1    2    0    0  0.27874909585E+01  0.14377130972E+02 -0.51710240137E+03  0.52300895356E+03  0.77000000000E+02 0.  0.
<mgrwt>
<rscale>  0 0.15924111E+03</rscale>
<asrwt>0</asrwt>
<pdfrwt beam="1">  1        2 0.12636945E+00 0.15924111E+03</pdfrwt>
<pdfrwt beam="2">  1       -2 0.10237931E-02 0.15924111E+03</pdfrwt>
<totfact> 0.66915280E+04</totfact>
</mgrwt>
</event>
<event>
 4    1  0.6919593E-004  0.2456695E+03  0.7818608E-02  0.1116073E+00
          2   -1    0    0  501    0  0.00000000000E+00  0.00000000000E+00  0.67902088217E+02  0.67902088265E+02  0.25500000000E-02 0.  1.
         -2   -1    0    0    0  501 -0.00000000000E+00 -0.00000000000E+00 -0.22220777968E+03  0.22220777969E+03  0.25500000000E-02 0. -1.
    5000001    1    1    2    0    0  0.39454810526E+02  0.71121334287E+02 -0.13672014772E+03  0.17673801248E+03  0.77000000000E+02 0.  0.
   -5000001    1    1    2    0    0 -0.39454810526E+02 -0.71121334287E+02 -0.17585543739E+02  0.11337185547E+03  0.77000000000E+02 0.  0.
<mgrwt>
<rscale>  0 0.24566947E+03</rscale>
<asrwt>0</asrwt>
<pdfrwt beam="1">  1        2 0.97002984E-02 0.24566947E+03</pdfrwt>
<pdfrwt beam="2">  1       -2 0.31743968E-01 0.24566947E+03</pdfrwt>
<totfact> 0.60524234E+03</totfact>
</mgrwt>
</event>
<event>
 4    1  0.6919593E-004  0.3716739E+03  0.7818608E-02  0.1054055E+00
         -2   -1    0    0    0  501 -0.00000000000E+00  0.00000000000E+00  0.19207268521E+03  0.19207268523E+03  0.25500000000E-02 0. -1.
          2   -1    0    0  501    0  0.00000000000E+00 -0.00000000000E+00 -0.17980365679E+03  0.17980365681E+03  0.25500000000E-02 0.  1.
    5000001    1    1    2    0    0 -0.16291853367E+03  0.41576771573E+02 -0.12186511759E+02  0.18533371959E+03  0.77000000000E+02 0.  0.
   -5000001    1    1    2    0    0  0.16291853367E+03 -0.41576771573E+02  0.24455540180E+02  0.18654262246E+03  0.77000000000E+02 0.  0.
<mgrwt>
<rscale>  0 0.37167390E+03</rscale>
<asrwt>0</asrwt>
<pdfrwt beam="1">  1        2 0.25686237E-01 0.37167390E+03</pdfrwt>
<pdfrwt beam="2">  1       -2 0.27438955E-01 0.37167390E+03</pdfrwt>
<totfact> 0.25250789E+03</totfact>
</mgrwt>
</event>
<event>
 4    1  0.6919593E-004  0.2499386E+03  0.7818608E-02  0.1113344E+00
         -2   -1    0    0    0  501 -0.00000000000E+00  0.00000000000E+00  0.71013122046E+02  0.71013122092E+02  0.25500000000E-02 0. -1.
          2   -1    0    0  501    0  0.00000000000E+00 -0.00000000000E+00 -0.21992169890E+03  0.21992169891E+03  0.25500000000E-02 0.  1.
    5000001    1    1    2    0    0  0.57581445253E+02  0.72224985349E+02 -0.34873066653E+02  0.12520863438E+03  0.77000000000E+02 0.  0.
   -5000001    1    1    2    0    0 -0.57581445253E+02 -0.72224985349E+02 -0.11403551020E+03  0.16572618662E+03  0.77000000000E+02 0.  0.
<mgrwt>
<rscale>  0 0.24993860E+03</rscale>
<asrwt>0</asrwt>
<pdfrwt beam="1">  1        2 0.31417385E-01 0.24993860E+03</pdfrwt>
<pdfrwt beam="2">  1       -2 0.10144732E-01 0.24993860E+03</pdfrwt>
<totfact> 0.10637338E+04</totfact>
</mgrwt>
</event>
<event>
 4    1  0.6919593E-004  0.1693075E+03  0.7818608E-02  0.1178572E+00
          2   -1    0    0  501    0  0.00000000000E+00  0.00000000000E+00  0.83257075519E+03  0.83257075519E+03  0.25500000000E-02 0.  1.
         -2   -1    0    0    0  501 -0.00000000000E+00 -0.00000000000E+00 -0.86073823414E+01  0.86073827192E+01  0.25500000000E-02 0. -1.
    5000001    1    1    2    0    0  0.31220704870E+02  0.11104820804E+02  0.35336246039E+03  0.36316948918E+03  0.77000000000E+02 0.  0.
   -5000001    1    1    2    0    0 -0.31220704870E+02 -0.11104820804E+02  0.47060091246E+03  0.47800864874E+03  0.77000000000E+02 0.  0.
<mgrwt>
<rscale>  0 0.16930747E+03</rscale>
<asrwt>0</asrwt>
<pdfrwt beam="1">  1        2 0.11893869E+00 0.16930747E+03</pdfrwt>
<pdfrwt beam="2">  1       -2 0.12296259E-02 0.16930747E+03</pdfrwt>
<totfact> 0.55788186E+04</totfact>
</mgrwt>
</event>
<event>
 4    1  0.6919593E-004  0.1965413E+03  0.7818608E-02  0.1152690E+00
          2   -1    0    0  501    0  0.00000000000E+00  0.00000000000E+00  0.88621456546E+02  0.88621456582E+02  0.25500000000E-02 0.  1.
         -2   -1    0    0    0  501 -0.00000000000E+00 -0.00000000000E+00 -0.10897047339E+03  0.10897047342E+03  0.25500000000E-02 0. -1.
    5000001    1    1    2    0    0  0.45592503961E+02 -0.21567278162E+02 -0.44772100736E+02  0.10235900014E+03  0.77000000000E+02 0.  0.
   -5000001    1    1    2    0    0 -0.45592503961E+02  0.21567278162E+02  0.24423083888E+02  0.95232929868E+02  0.77000000000E+02 0.  0.
<mgrwt>
<rscale>  0 0.19654131E+03</rscale>
<asrwt>0</asrwt>
<pdfrwt beam="1">  1        2 0.12660208E-01 0.19654131E+03</pdfrwt>
<pdfrwt beam="2">  1       -2 0.15567211E-01 0.19654131E+03</pdfrwt>
<totfact> 0.14819175E+04</totfact>
</mgrwt>
</event>
<event>
 4    1  0.6919593E-004  0.2838774E+03  0.7818608E-02  0.1093590E+00
          2   -1    0    0  501    0  0.00000000000E+00  0.00000000000E+00  0.15652846598E+04  0.15652846598E+04  0.25500000000E-02 0.  1.
         -2   -1    0    0    0  501 -0.00000000000E+00 -0.00000000000E+00 -0.12870879067E+02  0.12870879319E+02  0.25500000000E-02 0. -1.
    5000001    1    1    2    0    0 -0.41116208597E+02 -0.75857519937E+02  0.12337156751E+04  0.12391239941E+04  0.77000000000E+02 0.  0.
   -5000001    1    1    2    0    0  0.41116208597E+02  0.75857519937E+02  0.31869810570E+03  0.33903154502E+03  0.77000000000E+02 0.  0.
<mgrwt>
<rscale>  0 0.28387737E+03</rscale>
<asrwt>0</asrwt>
<pdfrwt beam="1">  1        2 0.22361191E+00 0.28387737E+03</pdfrwt>
<pdfrwt beam="2">  1       -2 0.18386986E-02 0.28387737E+03</pdfrwt>
<totfact> 0.12661739E+04</totfact>
</mgrwt>
</event>
<event>
 4    1  0.6919593E-004  0.1993527E+03  0.7818608E-02  0.1150286E+00
          2   -1    0    0  501    0  0.00000000000E+00  0.00000000000E+00  0.12476793605E+04  0.12476793605E+04  0.25500000000E-02 0.  1.
         -2   -1    0    0    0  501 -0.00000000000E+00 -0.00000000000E+00 -0.79630820852E+01  0.79630824935E+01  0.25500000000E-02 0. -1.
    5000001    1    1    2    0    0 -0.12036605346E+02 -0.38606954164E+02  0.92655502332E+03  0.93062806105E+03  0.77000000000E+02 0.  0.
   -5000001    1    1    2    0    0  0.12036605346E+02  0.38606954164E+02  0.31316125510E+03  0.32501438195E+03  0.77000000000E+02 0.  0.
<mgrwt>
<rscale>  0 0.19935269E+03</rscale>
<asrwt>0</asrwt>
<pdfrwt beam="1">  1        2 0.17823962E+00 0.19935269E+03</pdfrwt>
<pdfrwt beam="2">  1       -2 0.11375850E-02 0.19935269E+03</pdfrwt>
<totfact> 0.36469223E+04</totfact>
</mgrwt>
</event>
<event>
 4    1  0.6919593E-004  0.3018294E+03  0.7818608E-02  0.1084330E+00
          2   -1    0    0  501    0  0.00000000000E+00  0.00000000000E+00  0.27629295163E+03  0.27629295164E+03  0.25500000000E-02 0.  1.
         -2   -1    0    0    0  501 -0.00000000000E+00 -0.00000000000E+00 -0.82431539249E+02  0.82431539288E+02  0.25500000000E-02 0. -1.
    5000001    1    1    2    0    0 -0.11391544098E+03  0.58725032131E+02  0.12131369437E+03  0.19253926751E+03  0.77000000000E+02 0.  0.
   -5000001    1    1    2    0    0  0.11391544098E+03 -0.58725032131E+02  0.72547718006E+02  0.16618522341E+03  0.77000000000E+02 0.  0.
<mgrwt>
<rscale>  0 0.30182944E+03</rscale>
<asrwt>0</asrwt>
<pdfrwt beam="1">  1        2 0.39470422E-01 0.30182944E+03</pdfrwt>
<pdfrwt beam="2">  1       -2 0.11775934E-01 0.30182944E+03</pdfrwt>
<totfact> 0.65903319E+03</totfact>
</mgrwt>
</event>
<event>
 4    1  0.6919593E-004  0.3745476E+03  0.7818608E-02  0.1052968E+00
          2   -1    0    0  501    0  0.00000000000E+00  0.00000000000E+00  0.11189071085E+04  0.11189071085E+04  0.25500000000E-02 0.  1.
         -2   -1    0    0    0  501 -0.00000000000E+00 -0.00000000000E+00 -0.31344401510E+02  0.31344401614E+02  0.25500000000E-02 0. -1.
    5000001    1    1    2    0    0  0.42265885780E+02  0.15688316391E+03  0.38291789376E+03  0.42302936729E+03  0.77000000000E+02 0.  0.
   -5000001    1    1    2    0    0 -0.42265885780E+02 -0.15688316391E+03  0.70464481326E+03  0.72722214287E+03  0.77000000000E+02 0.  0.
<mgrwt>
<rscale>  0 0.37454759E+03</rscale>
<asrwt>0</asrwt>
<pdfrwt beam="1">  1        2 0.15984389E+00 0.37454759E+03</pdfrwt>
<pdfrwt beam="2">  1       -2 0.44777713E-02 0.37454759E+03</pdfrwt>
<totfact> 0.57894796E+03</totfact>
</mgrwt>
</event>
<event>
 4    1  0.6919593E-004  0.2536653E+03  0.7818608E-02  0.1111010E+00
          2   -1    0    0  501    0  0.00000000000E+00  0.00000000000E+00  0.65021800896E+02  0.65021800946E+02  0.25500000000E-02 0.  1.
         -2   -1    0    0    0  501 -0.00000000000E+00 -0.00000000000E+00 -0.24740186426E+03  0.24740186427E+03  0.25500000000E-02 0. -1.
    5000001    1    1    2    0    0 -0.45459317805E+02 -0.89704834212E+02 -0.83019537360E+02  0.15144223466E+03  0.77000000000E+02 0.  0.
   -5000001    1    1    2    0    0  0.45459317805E+02  0.89704834212E+02 -0.99360526004E+02  0.16098143056E+03  0.77000000000E+02 0.  0.
<mgrwt>
<rscale>  0 0.25366525E+03</rscale>
<asrwt>0</asrwt>
<pdfrwt beam="1">  1        2 0.92888289E-02 0.25366525E+03</pdfrwt>
<pdfrwt beam="2">  1       -2 0.35343123E-01 0.25366525E+03</pdfrwt>
<totfact> 0.52461908E+03</totfact>
</mgrwt>
</event>
<event>
 4    1  0.6919593E-004  0.2995107E+03  0.7818608E-02  0.1085485E+00
          2   -1    0    0  501    0  0.00000000000E+00  0.00000000000E+00  0.63160742194E+03  0.63160742195E+03  0.25500000000E-02 0.  1.
         -2   -1    0    0    0  501 -0.00000000000E+00 -0.00000000000E+00 -0.35507292173E+02  0.35507292265E+02  0.25500000000E-02 0. -1.
    5000001    1    1    2    0    0 -0.11189087590E+03 -0.45579218112E+01  0.15793363007E+03  0.20835636364E+03  0.77000000000E+02 0.  0.
   -5000001    1    1    2    0    0  0.11189087590E+03  0.45579218112E+01  0.43816649970E+03  0.45875835057E+03  0.77000000000E+02 0.  0.
<mgrwt>
<rscale>  0 0.29951073E+03</rscale>
<asrwt>0</asrwt>
<pdfrwt beam="1">  1        2 0.90229628E-01 0.29951073E+03</pdfrwt>
<pdfrwt beam="2">  1       -2 0.50724705E-02 0.29951073E+03</pdfrwt>
<totfact> 0.99192934E+03</totfact>
</mgrwt>
</event>
<event>
 4    1  0.6919593E-004  0.2196600E+03  0.7818608E-02  0.1134137E+00
          2   -1    0    0  501    0  0.00000000000E+00  0.00000000000E+00  0.29630366478E+04  0.29630366478E+04  0.25500000000E-02 0.  1.
         -2   -1    0    0    0  501 -0.00000000000E+00 -0.00000000000E+00 -0.40710355099E+01  0.40710363085E+01  0.25500000000E-02 0. -1.
    5000001    1    1    2    0    0  0.54951023544E+02  0.55182423463E+02  0.13673493333E+04  0.13717280758E+04  0.77000000000E+02 0.  0.
   -5000001    1    1    2    0    0 -0.54951023544E+02 -0.55182423463E+02  0.15916162790E+04  0.15953796083E+04  0.77000000000E+02 0.  0.
<mgrwt>
<rscale>  0 0.21966000E+03</rscale>
<asrwt>0</asrwt>
<pdfrwt beam="1">  1        2 0.42328945E+00 0.21966000E+03</pdfrwt>
<pdfrwt beam="2">  1       -2 0.58157861E-03 0.21966000E+03</pdfrwt>
<totfact> 0.13535097E+04</totfact>
</mgrwt>
</event>
<event>
 4    1  0.6919593E-004  0.3188318E+03  0.7818608E-02  0.1076188E+00
         -2   -1    0    0    0  501 -0.00000000000E+00  0.00000000000E+00  0.95969945761E+02  0.95969945795E+02  0.25500000000E-02 0. -1.
          2   -1    0    0  501    0  0.00000000000E+00 -0.00000000000E+00 -0.26480606176E+03  0.26480606178E+03  0.25500000000E-02 0.  1.
    5000001    1    1    2    0    0 -0.73673788005E+02 -0.11850170809E+03 -0.88643102993E+02  0.18236524221E+03  0.77000000000E+02 0.  0.
   -5000001    1    1    2    0    0  0.73673788005E+02  0.11850170809E+03 -0.80193013009E+02  0.17841076536E+03  0.77000000000E+02 0.  0.
<mgrwt>
<rscale>  0 0.31883176E+03</rscale>
<asrwt>0</asrwt>
<pdfrwt beam="1">  1        2 0.37829437E-01 0.31883176E+03</pdfrwt>
<pdfrwt beam="2">  1       -2 0.13709992E-01 0.31883176E+03</pdfrwt>
<totfact> 0.53966995E+03</totfact>
</mgrwt>
</event>
<event>
 4    1  0.6919593E-004  0.1621632E+03  0.7818608E-02  0.1186276E+00
         -2   -1    0    0    0  501 -0.00000000000E+00  0.00000000000E+00  0.60108746125E+02  0.60108746179E+02  0.25500000000E-02 0. -1.
          2   -1    0    0  501    0  0.00000000000E+00 -0.00000000000E+00 -0.10937217990E+03  0.10937217992E+03  0.25500000000E-02 0.  1.
    5000001    1    1    2    0    0 -0.16191489538E+02 -0.35709474795E+01 -0.45199389725E+01  0.78894523559E+02  0.77000000000E+02 0.  0.
   -5000001    1    1    2    0    0  0.16191489538E+02  0.35709474795E+01 -0.44743494797E+02  0.90586402545E+02  0.77000000000E+02 0.  0.
<mgrwt>
<rscale>  0 0.16216318E+03</rscale>
<asrwt>0</asrwt>
<pdfrwt beam="1">  1        2 0.15624597E-01 0.16216318E+03</pdfrwt>
<pdfrwt beam="2">  1       -2 0.85869637E-02 0.16216318E+03</pdfrwt>
<totfact> 0.29428657E+04</totfact>
</mgrwt>
</event>
<event>
 4    1  0.6919593E-004  0.3494263E+03  0.7818608E-02  0.1062851E+00
          2   -1    0    0  501    0  0.00000000000E+00  0.00000000000E+00  0.42938706322E+03  0.42938706323E+03  0.25500000000E-02 0.  1.
         -2   -1    0    0    0  501 -0.00000000000E+00 -0.00000000000E+00 -0.71088985824E+02  0.71088985870E+02  0.25500000000E-02 0. -1.
    5000001    1    1    2    0    0 -0.15558471359E+03  0.14300225493E+02  0.15968946624E+03  0.23630663381E+03  0.77000000000E+02 0.  0.
   -5000001    1    1    2    0    0  0.15558471359E+03 -0.14300225493E+02  0.19860861115E+03  0.26416941529E+03  0.77000000000E+02 0.  0.
<mgrwt>
<rscale>  0 0.34942633E+03</rscale>
<asrwt>0</asrwt>
<pdfrwt beam="1">  1        2 0.61341008E-01 0.34942633E+03</pdfrwt>
<pdfrwt beam="2">  1       -2 0.10155570E-01 0.34942633E+03</pdfrwt>
<totfact> 0.52066000E+03</totfact>
</mgrwt>
</event>
<event>
 4    1  0.6919593E-004  0.3987785E+03  0.7818608E-02  0.1044203E+00
          2   -1    0    0  501    0  0.00000000000E+00  0.00000000000E+00  0.37921874713E+03  0.37921874714E+03  0.25500000000E-02 0.  1.
         -2   -1    0    0    0  501 -0.00000000000E+00 -0.00000000000E+00 -0.10483678968E+03  0.10483678971E+03  0.25500000000E-02 0. -1.
    5000001    1    1    2    0    0 -0.17130207265E+03 -0.58456540009E+02  0.97568469285E+02  0.21956815197E+03  0.77000000000E+02 0.  0.
   -5000001    1    1    2    0    0  0.17130207265E+03  0.58456540009E+02  0.17681348816E+03  0.26448738488E+03  0.77000000000E+02 0.  0.
<mgrwt>
<rscale>  0 0.39877852E+03</rscale>
<asrwt>0</asrwt>
<pdfrwt beam="1">  1        2 0.54174107E-01 0.39877852E+03</pdfrwt>
<pdfrwt beam="2">  1       -2 0.14976684E-01 0.39877852E+03</pdfrwt>
<totfact> 0.31728514E+03</totfact>
</mgrwt>
</event>
<event>
 4    1  0.6919593E-004  0.7141848E+03  0.7818608E-02  0.9693277E-01
         -2   -1    0    0    0  501 -0.00000000000E+00  0.00000000000E+00  0.46193686419E+02  0.46193686490E+02  0.25500000000E-02 0.  1.
          2   -1    0    0  501    0  0.00000000000E+00 -0.00000000000E+00 -0.27604416459E+04  0.27604416459E+04  0.25500000000E-02 0. -1.
    5000001    1    1    2    0    0  0.18984939315E+03 -0.28870983300E+03 -0.15410229174E+04  0.15811631136E+04  0.77000000000E+02 0.  0.
   -5000001    1    1    2    0    0 -0.18984939315E+03  0.28870983300E+03 -0.11732250421E+04  0.12254722188E+04  0.77000000000E+02 0.  0.
<mgrwt>
<rscale>  0 0.71418478E+03</rscale>
<asrwt>0</asrwt>
<pdfrwt beam="1">  1        2 0.39434870E+00 0.71418478E+03</pdfrwt>
<pdfrwt beam="2">  1       -2 0.65990998E-02 0.71418478E+03</pdfrwt>
<totfact> 0.44589079E+02</totfact>
</mgrwt>
</event>
<event>
 4    1  0.6919593E-004  0.3315267E+03  0.7818608E-02  0.1070463E+00
          2   -1    0    0  501    0  0.00000000000E+00  0.00000000000E+00  0.12984934097E+03  0.12984934099E+03  0.25500000000E-02 0.  1.
         -2   -1    0    0    0  501 -0.00000000000E+00 -0.00000000000E+00 -0.21161047169E+03  0.21161047170E+03  0.25500000000E-02 0. -1.
    5000001    1    1    2    0    0  0.77629723181E+02  0.65406559128E+02  0.68334682362E+02  0.14457876992E+03  0.77000000000E+02 0.  0.
   -5000001    1    1    2    0    0 -0.77629723181E+02 -0.65406559128E+02 -0.15009581309E+03  0.19688104277E+03  0.77000000000E+02 0.  0.
<mgrwt>
<rscale>  0 0.33152665E+03</rscale>
<asrwt>0</asrwt>
<pdfrwt beam="1">  1        2 0.18549906E-01 0.33152665E+03</pdfrwt>
<pdfrwt beam="2">  1       -2 0.30230067E-01 0.33152665E+03</pdfrwt>
<totfact> 0.30649835E+03</totfact>
</mgrwt>
</event>
<event>
 4    1  0.6919593E-004  0.2362570E+03  0.7818608E-02  0.1122312E+00
         -2   -1    0    0    0  501 -0.00000000000E+00  0.00000000000E+00  0.11677420015E+03  0.11677420018E+03  0.25500000000E-02 0. -1.
          2   -1    0    0  501    0  0.00000000000E+00 -0.00000000000E+00 -0.11949847235E+03  0.11949847238E+03  0.25500000000E-02 0.  1.
    5000001    1    1    2    0    0 -0.60267098744E+02 -0.42131744533E+02  0.49808945206E+02  0.11754632326E+03  0.77000000000E+02 0.  0.
   -5000001    1    1    2    0    0  0.60267098744E+02  0.42131744533E+02 -0.52533217403E+02  0.11872634930E+03  0.77000000000E+02 0.  0.
<mgrwt>
<rscale>  0 0.23625697E+03</rscale>
<asrwt>0</asrwt>
<pdfrwt beam="1">  1        2 0.17071210E-01 0.23625697E+03</pdfrwt>
<pdfrwt beam="2">  1       -2 0.16682029E-01 0.23625697E+03</pdfrwt>
<totfact> 0.93852905E+03</totfact>
</mgrwt>
</event>
<event>
 4    1  0.6919593E-004  0.7628445E+03  0.7818608E-02  0.9615412E-01
         -2   -1    0    0    0  501 -0.00000000000E+00  0.00000000000E+00  0.49703104374E+03  0.49703104374E+03  0.25500000000E-02 0. -1.
          2   -1    0    0  501    0  0.00000000000E+00 -0.00000000000E+00 -0.29270395195E+03  0.29270395196E+03  0.25500000000E-02 0.  1.
    5000001    1    1    2    0    0 -0.17537286188E+03  0.13605449257E+03  0.41323425227E+03  0.47535041063E+03  0.77000000000E+02 0.  0.
   -5000001    1    1    2    0    0  0.17537286188E+03 -0.13605449257E+03 -0.20890716048E+03  0.31438458508E+03  0.77000000000E+02 0.  0.
<mgrwt>
<rscale>  0 0.76284455E+03</rscale>
<asrwt>0</asrwt>
<pdfrwt beam="1">  1        2 0.41814850E-01 0.76284455E+03</pdfrwt>
<pdfrwt beam="2">  1       -2 0.71004435E-01 0.76284455E+03</pdfrwt>
<totfact> 0.22267983E+02</totfact>
</mgrwt>
</event>
<event>
 4    1  0.6919593E-004  0.2754777E+03  0.7818608E-02  0.1098185E+00
         -2   -1    0    0    0  501 -0.00000000000E+00  0.00000000000E+00  0.34177581880E+02  0.34177581975E+02  0.25500000000E-02 0. -1.
          2   -1    0    0  501    0  0.00000000000E+00 -0.00000000000E+00 -0.55510062780E+03  0.55510062781E+03  0.25500000000E-02 0.  1.
    5000001    1    1    2    0    0 -0.65879768864E+02 -0.91561418928E+02 -0.22223419092E+03  0.26084607145E+03  0.77000000000E+02 0.  0.
   -5000001    1    1    2    0    0  0.65879768864E+02  0.91561418928E+02 -0.29868885501E+03  0.32843213833E+03  0.77000000000E+02 0.  0.
<mgrwt>
<rscale>  0 0.27547775E+03</rscale>
<asrwt>0</asrwt>
<pdfrwt beam="1">  1        2 0.79300084E-01 0.27547775E+03</pdfrwt>
<pdfrwt beam="2">  1       -2 0.48825121E-02 0.27547775E+03</pdfrwt>
<totfact> 0.12141524E+04</totfact>
</mgrwt>
</event>
<event>
 4    1  0.6919593E-004  0.3821447E+03  0.7818608E-02  0.1050144E+00
          2   -1    0    0  501    0  0.00000000000E+00  0.00000000000E+00  0.28447398398E+03  0.28447398400E+03  0.25500000000E-02 0.  1.
         -2   -1    0    0    0  501 -0.00000000000E+00 -0.00000000000E+00 -0.12833737712E+03  0.12833737715E+03  0.25500000000E-02 0. -1.
    5000001    1    1    2    0    0 -0.28389466749E+02  0.16534699718E+03  0.24773009273E+02  0.18624793499E+03  0.77000000000E+02 0.  0.
   -5000001    1    1    2    0    0  0.28389466749E+02 -0.16534699718E+03  0.13136359759E+03  0.22656342615E+03  0.77000000000E+02 0.  0.
<mgrwt>
<rscale>  0 0.38214471E+03</rscale>
<asrwt>0</asrwt>
<pdfrwt beam="1">  1        2 0.40639140E-01 0.38214471E+03</pdfrwt>
<pdfrwt beam="2">  1       -2 0.18333911E-01 0.38214471E+03</pdfrwt>
<totfact> 0.30841122E+03</totfact>
</mgrwt>
</event>
<event>
 4    1  0.6919593E-004  0.2269743E+03  0.7818608E-02  0.1128788E+00
         -2   -1    0    0    0  501 -0.00000000000E+00  0.00000000000E+00  0.70819905028E+01  0.70819909618E+01  0.25500000000E-02 0. -1.
          2   -1    0    0  501    0  0.00000000000E+00 -0.00000000000E+00 -0.18186033348E+04  0.18186033349E+04  0.25500000000E-02 0.  1.
    5000001    1    1    2    0    0  0.42719390877E+02  0.18758098126E+02 -0.35002457744E+03  0.36141806460E+03  0.77000000000E+02 0.  0.
   -5000001    1    1    2    0    0 -0.42719390877E+02 -0.18758098126E+02 -0.14614967669E+04  0.14642672612E+04  0.77000000000E+02 0.  0.
<mgrwt>
<rscale>  0 0.22697429E+03</rscale>
<asrwt>0</asrwt>
<pdfrwt beam="1">  1        2 0.25980018E+00 0.22697429E+03</pdfrwt>
<pdfrwt beam="2">  1       -2 0.10117141E-02 0.22697429E+03</pdfrwt>
<totfact> 0.22522821E+04</totfact>
</mgrwt>
</event>
<event>
 4    1  0.6919593E-004  0.1801858E+03  0.7818608E-02  0.1167623E+00
         -2   -1    0    0    0  501 -0.00000000000E+00  0.00000000000E+00  0.27474851263E+02  0.27474851382E+02  0.25500000000E-02 0. -1.
          2   -1    0    0  501    0  0.00000000000E+00 -0.00000000000E+00 -0.29542390260E+03  0.29542390261E+03  0.25500000000E-02 0.  1.
    5000001    1    1    2    0    0  0.20028286435E+02  0.40112076420E+02 -0.15785747688E+03  0.18126801687E+03  0.77000000000E+02 0.  0.
   -5000001    1    1    2    0    0 -0.20028286435E+02 -0.40112076420E+02 -0.11009157446E+03  0.14163073713E+03  0.77000000000E+02 0.  0.
<mgrwt>
<rscale>  0 0.18018577E+03</rscale>
<asrwt>0</asrwt>
<pdfrwt beam="1">  1        2 0.42203413E-01 0.18018577E+03</pdfrwt>
<pdfrwt beam="2">  1       -2 0.39249789E-02 0.18018577E+03</pdfrwt>
<totfact> 0.32481080E+04</totfact>
</mgrwt>
</event>
<event>
 4    1  0.6919593E-004  0.1946968E+03  0.7818608E-02  0.1154292E+00
         -2   -1    0    0    0  501 -0.00000000000E+00  0.00000000000E+00  0.39982830176E+01  0.39982838308E+01  0.25500000000E-02 0. -1.
          2   -1    0    0  501    0  0.00000000000E+00 -0.00000000000E+00 -0.23701947360E+04  0.23701947360E+04  0.25500000000E-02 0.  1.
    5000001    1    1    2    0    0  0.51844267461E+02  0.27173055973E+01 -0.82705392476E+03  0.83225140810E+03  0.77000000000E+02 0.  0.
   -5000001    1    1    2    0    0 -0.51844267461E+02 -0.27173055973E+01 -0.15391425283E+04  0.15419416118E+04  0.77000000000E+02 0.  0.
<mgrwt>
<rscale>  0 0.19469679E+03</rscale>
<asrwt>0</asrwt>
<pdfrwt beam="1">  1        2 0.33859835E+00 0.19469679E+03</pdfrwt>
<pdfrwt beam="2">  1       -2 0.57118486E-03 0.19469679E+03</pdfrwt>
<totfact> 0.27521015E+04</totfact>
</mgrwt>
</event>
<event>
 4    1  0.6919593E-004  0.2520087E+03  0.7818608E-02  0.1112042E+00
         -2   -1    0    0    0  501 -0.00000000000E+00  0.00000000000E+00  0.56774548890E+02  0.56774548947E+02  0.25500000000E-02 0. -1.
          2   -1    0    0  501    0  0.00000000000E+00 -0.00000000000E+00 -0.27965172549E+03  0.27965172550E+03  0.25500000000E-02 0.  1.
    5000001    1    1    2    0    0 -0.39754989918E+02 -0.90530048812E+02 -0.93932970682E+02  0.15661593770E+03  0.77000000000E+02 0.  0.
   -5000001    1    1    2    0    0  0.39754989918E+02  0.90530048812E+02 -0.12894420592E+03  0.17981033675E+03  0.77000000000E+02 0.  0.
<mgrwt>
<rscale>  0 0.25200873E+03</rscale>
<asrwt>0</asrwt>
<pdfrwt beam="1">  1        2 0.39950246E-01 0.25200873E+03</pdfrwt>
<pdfrwt beam="2">  1       -2 0.81106500E-02 0.25200873E+03</pdfrwt>
<totfact> 0.11667761E+04</totfact>
</mgrwt>
</event>
<event>
 4    1  0.6919593E-004  0.2549985E+03  0.7818608E-02  0.1110186E+00
         -2   -1    0    0    0  501 -0.00000000000E+00  0.00000000000E+00  0.36173507065E+02  0.36173507155E+02  0.25500000000E-02 0. -1.
          2   -1    0    0  501    0  0.00000000000E+00 -0.00000000000E+00 -0.44939119830E+03  0.44939119830E+03  0.25500000000E-02 0.  1.
    5000001    1    1    2    0    0  0.86346354310E+02  0.26108481069E+02 -0.29571400051E+03  0.31861122984E+03  0.77000000000E+02 0.  0.
   -5000001    1    1    2    0    0 -0.86346354310E+02 -0.26108481069E+02 -0.11750369073E+03  0.16695347562E+03  0.77000000000E+02 0.  0.
<mgrwt>
<rscale>  0 0.25499848E+03</rscale>
<asrwt>0</asrwt>
<pdfrwt beam="1">  1        2 0.64198740E-01 0.25499848E+03</pdfrwt>
<pdfrwt beam="2">  1       -2 0.51676441E-02 0.25499848E+03</pdfrwt>
<totfact> 0.14017965E+04</totfact>
</mgrwt>
</event>
<event>
 4    1  0.6919593E-004  0.3811515E+03  0.7818608E-02  0.1050509E+00
          2   -1    0    0  501    0  0.00000000000E+00  0.00000000000E+00  0.50247976064E+02  0.50247976129E+02  0.25500000000E-02 0.  1.
         -2   -1    0    0    0  501 -0.00000000000E+00 -0.00000000000E+00 -0.72279758059E+03  0.72279758059E+03  0.25500000000E-02 0. -1.
    5000001    1    1    2    0    0  0.13958665937E+03  0.75523829511E+02 -0.48255501745E+03  0.51378655993E+03  0.77000000000E+02 0.  0.
   -5000001    1    1    2    0    0 -0.13958665937E+03 -0.75523829511E+02 -0.18999458707E+03  0.25925899679E+03  0.77000000000E+02 0.  0.
<mgrwt>
<rscale>  0 0.38115150E+03</rscale>
<asrwt>0</asrwt>
<pdfrwt beam="1">  1        2 0.71782827E-02 0.38115150E+03</pdfrwt>
<pdfrwt beam="2">  1       -2 0.10325679E+00 0.38115150E+03</pdfrwt>
<totfact> 0.78328767E+02</totfact>
</mgrwt>
</event>
<event>
 4    1  0.6919593E-004  0.3567260E+03  0.7818608E-02  0.1059888E+00
          2   -1    0    0  501    0  0.00000000000E+00  0.00000000000E+00  0.10079041108E+03  0.10079041111E+03  0.25500000000E-02 0.  1.
         -2   -1    0    0    0  501 -0.00000000000E+00 -0.00000000000E+00 -0.31563884100E+03  0.31563884101E+03  0.25500000000E-02 0. -1.
    5000001    1    1    2    0    0 -0.38766000255E+02  0.13424126837E+03 -0.14321166451E+02  0.16017995105E+03  0.77000000000E+02 0.  0.
   -5000001    1    1    2    0    0  0.38766000255E+02 -0.13424126837E+03 -0.20052726347E+03  0.25624930108E+03  0.77000000000E+02 0.  0.
<mgrwt>
<rscale>  0 0.35672605E+03</rscale>
<asrwt>0</asrwt>
<pdfrwt beam="1">  1        2 0.14398630E-01 0.35672605E+03</pdfrwt>
<pdfrwt beam="2">  1       -2 0.45091262E-01 0.35672605E+03</pdfrwt>
<totfact> 0.19425583E+03</totfact>
</mgrwt>
</event>
<event>
 4    1  0.6919593E-004  0.3133364E+03  0.7818608E-02  0.1078758E+00
          2   -1    0    0  501    0  0.00000000000E+00  0.00000000000E+00  0.17052092283E+03  0.17052092285E+03  0.25500000000E-02 0.  1.
         -2   -1    0    0    0  501 -0.00000000000E+00 -0.00000000000E+00 -0.14394082543E+03  0.14394082545E+03  0.25500000000E-02 0. -1.
    5000001    1    1    2    0    0  0.11709192745E+03  0.69670202712E+02  0.60903181316E+01  0.15662231193E+03  0.77000000000E+02 0.  0.
   -5000001    1    1    2    0    0 -0.11709192745E+03 -0.69670202712E+02  0.20489779266E+02  0.15783943637E+03  0.77000000000E+02 0.  0.
<mgrwt>
<rscale>  0 0.31333638E+03</rscale>
<asrwt>0</asrwt>
<pdfrwt beam="1">  1        2 0.24360132E-01 0.31333638E+03</pdfrwt>
<pdfrwt beam="2">  1       -2 0.20562975E-01 0.31333638E+03</pdfrwt>
<totfact> 0.44359435E+03</totfact>
</mgrwt>
</event>
<event>
 4    1  0.6919593E-004  0.2063174E+03  0.7818608E-02  0.1144516E+00
         -2   -1    0    0    0  501 -0.00000000000E+00  0.00000000000E+00  0.24105454865E+02  0.24105455000E+02  0.25500000000E-02 0. -1.
          2   -1    0    0  501    0  0.00000000000E+00 -0.00000000000E+00 -0.44146503195E+03  0.44146503195E+03  0.25500000000E-02 0.  1.
    5000001    1    1    2    0    0 -0.64793888039E+02  0.16670691343E+02 -0.24338671887E+03  0.26389819021E+03  0.77000000000E+02 0.  0.
   -5000001    1    1    2    0    0  0.64793888039E+02 -0.16670691343E+02 -0.17397285821E+03  0.20167229674E+03  0.77000000000E+02 0.  0.
<mgrwt>
<rscale>  0 0.20631738E+03</rscale>
<asrwt>0</asrwt>
<pdfrwt beam="1">  1        2 0.63066428E-01 0.20631738E+03</pdfrwt>
<pdfrwt beam="2">  1       -2 0.34436367E-02 0.20631738E+03</pdfrwt>
<totfact> 0.25959754E+04</totfact>
</mgrwt>
</event>
<event>
 4    1  0.6919593E-004  0.3496382E+03  0.7818608E-02  0.1062764E+00
          2   -1    0    0  501    0  0.00000000000E+00  0.00000000000E+00  0.13095736673E+04  0.13095736674E+04  0.25500000000E-02 0.  1.
         -2   -1    0    0    0  501 -0.00000000000E+00 -0.00000000000E+00 -0.23337152333E+02  0.23337152472E+02  0.25500000000E-02 0. -1.
    5000001    1    1    2    0    0 -0.15682985020E+03 -0.60558057788E+01  0.64566295627E+03  0.66891100141E+03  0.77000000000E+02 0.  0.
   -5000001    1    1    2    0    0  0.15682985020E+03  0.60558057788E+01  0.64057355874E+03  0.66399981842E+03  0.77000000000E+02 0.  0.
<mgrwt>
<rscale>  0 0.34963821E+03</rscale>
<asrwt>0</asrwt>
<pdfrwt beam="1">  1        2 0.18708188E+00 0.34963821E+03</pdfrwt>
<pdfrwt beam="2">  1       -2 0.33338802E-02 0.34963821E+03</pdfrwt>
<totfact> 0.71091894E+03</totfact>
</mgrwt>
</event>
<event>
 4    1  0.6919593E-004  0.2160066E+03  0.7818608E-02  0.1136896E+00
          2   -1    0    0  501    0  0.00000000000E+00  0.00000000000E+00  0.14835135945E+04  0.14835135945E+04  0.25500000000E-02 0.  1.
         -2   -1    0    0    0  501 -0.00000000000E+00 -0.00000000000E+00 -0.78628963058E+01  0.78628967193E+01  0.25500000000E-02 0. -1.
    5000001    1    1    2    0    0 -0.52367185970E+02  0.49765848330E+02  0.89477536152E+03  0.90098330140E+03  0.77000000000E+02 0.  0.
   -5000001    1    1    2    0    0  0.52367185970E+02 -0.49765848330E+02  0.58087533669E+03  0.59039318983E+03  0.77000000000E+02 0.  0.
<mgrwt>
<rscale>  0 0.21600661E+03</rscale>
<asrwt>0</asrwt>
<pdfrwt beam="1">  1        2 0.21193051E+00 0.21600661E+03</pdfrwt>
<pdfrwt beam="2">  1       -2 0.11232710E-02 0.21600661E+03</pdfrwt>
<totfact> 0.28237754E+04</totfact>
</mgrwt>
</event>
<event>
 4    1  0.6919593E-004  0.2635932E+03  0.7818608E-02  0.1105003E+00
         -2   -1    0    0    0  501 -0.00000000000E+00  0.00000000000E+00  0.42326086165E+02  0.42326086242E+02  0.25500000000E-02 0. -1.
          2   -1    0    0  501    0  0.00000000000E+00 -0.00000000000E+00 -0.41039324026E+03  0.41039324027E+03  0.25500000000E-02 0.  1.
    5000001    1    1    2    0    0  0.25653324449E+02 -0.10200923619E+03 -0.21739727379E+03  0.25348481606E+03  0.77000000000E+02 0.  0.
   -5000001    1    1    2    0    0 -0.25653324449E+02  0.10200923619E+03 -0.15066988031E+03  0.19923451045E+03  0.77000000000E+02 0.  0.
<mgrwt>
<rscale>  0 0.26359317E+03</rscale>
<asrwt>0</asrwt>
<pdfrwt beam="1">  1        2 0.58627604E-01 0.26359317E+03</pdfrwt>
<pdfrwt beam="2">  1       -2 0.60465840E-02 0.26359317E+03</pdfrwt>
<totfact> 0.12190973E+04</totfact>
</mgrwt>
</event>
<event>
 4    1  0.6919593E-004  0.5370088E+03  0.7818608E-02  0.1004546E+00
          2   -1    0    0  501    0  0.00000000000E+00  0.00000000000E+00  0.89038432629E+03  0.89038432629E+03  0.25500000000E-02 0.  1.
         -2   -1    0    0    0  501 -0.00000000000E+00 -0.00000000000E+00 -0.80970226137E+02  0.80970226177E+02  0.25500000000E-02 0. -1.
    5000001    1    1    2    0    0  0.23125146526E+03 -0.96570845784E+02  0.29981939150E+03  0.39827608007E+03  0.77000000000E+02 0.  0.
   -5000001    1    1    2    0    0 -0.23125146526E+03  0.96570845784E+02  0.50959470865E+03  0.57307847239E+03  0.77000000000E+02 0.  0.
<mgrwt>
<rscale>  0 0.53700883E+03</rscale>
<asrwt>0</asrwt>
<pdfrwt beam="1">  1        2 0.12719776E+00 0.53700883E+03</pdfrwt>
<pdfrwt beam="2">  1       -2 0.11567175E-01 0.53700883E+03</pdfrwt>
<totfact> 0.17871591E+03</totfact>
</mgrwt>
</event>
<event>
 4    1  0.6919593E-004  0.1988270E+03  0.7818608E-02  0.1150732E+00
         -2   -1    0    0    0  501 -0.00000000000E+00  0.00000000000E+00  0.88613146561E+02  0.88613146598E+02  0.25500000000E-02 0. -1.
          2   -1    0    0  501    0  0.00000000000E+00 -0.00000000000E+00 -0.11153020048E+03  0.11153020051E+03  0.25500000000E-02 0.  1.
    5000001    1    1    2    0    0  0.57867180883E+02  0.23672134469E+02 -0.47013024776E+01  0.99297949720E+02  0.77000000000E+02 0.  0.
   -5000001    1    1    2    0    0 -0.57867180883E+02 -0.23672134469E+02 -0.18215751442E+02  0.10084539739E+03  0.77000000000E+02 0.  0.
<mgrwt>
<rscale>  0 0.19882698E+03</rscale>
<asrwt>0</asrwt>
<pdfrwt beam="1">  1        2 0.15932886E-01 0.19882698E+03</pdfrwt>
<pdfrwt beam="2">  1       -2 0.12659021E-01 0.19882698E+03</pdfrwt>
<totfact> 0.15823890E+04</totfact>
</mgrwt>
</event>
<event>
 4    1  0.6919593E-004  0.2551618E+03  0.7818608E-02  0.1110085E+00
         -2   -1    0    0    0  501 -0.00000000000E+00  0.00000000000E+00  0.13631473634E+02  0.13631473873E+02  0.25500000000E-02 0. -1.
          2   -1    0    0  501    0  0.00000000000E+00 -0.00000000000E+00 -0.11940665898E+04  0.11940665898E+04  0.25500000000E-02 0.  1.
    5000001    1    1    2    0    0 -0.82512816169E+02 -0.58055561670E+02 -0.52867415524E+03  0.54369492870E+03  0.77000000000E+02 0.  0.
   -5000001    1    1    2    0    0  0.82512816169E+02  0.58055561670E+02 -0.65176096091E+03  0.66400313496E+03  0.77000000000E+02 0.  0.
<mgrwt>
<rscale>  0 0.25516181E+03</rscale>
<asrwt>0</asrwt>
<pdfrwt beam="1">  1        2 0.17058088E+00 0.25516181E+03</pdfrwt>
<pdfrwt beam="2">  1       -2 0.19473541E-02 0.25516181E+03</pdfrwt>
<totfact> 0.18056290E+04</totfact>
</mgrwt>
</event>
<event>
 4    1  0.6919593E-004  0.2584732E+03  0.7818608E-02  0.1108064E+00
         -2   -1    0    0    0  501 -0.00000000000E+00  0.00000000000E+00  0.21442694002E+03  0.21442694003E+03  0.25500000000E-02 0. -1.
          2   -1    0    0  501    0  0.00000000000E+00 -0.00000000000E+00 -0.77891788247E+02  0.77891788289E+02  0.25500000000E-02 0.  1.
    5000001    1    1    2    0    0  0.76375614872E+02 -0.45308652362E+02  0.12903400553E+03  0.17454192364E+03  0.77000000000E+02 0.  0.
   -5000001    1    1    2    0    0 -0.76375614872E+02  0.45308652362E+02  0.75011462436E+01  0.11777680468E+03  0.77000000000E+02 0.  0.
<mgrwt>
<rscale>  0 0.25847319E+03</rscale>
<asrwt>0</asrwt>
<pdfrwt beam="1">  1        2 0.11127398E-01 0.25847319E+03</pdfrwt>
<pdfrwt beam="2">  1       -2 0.30632420E-01 0.25847319E+03</pdfrwt>
<totfact> 0.54640588E+03</totfact>
</mgrwt>
</event>
<event>
 4    1  0.6919593E-004  0.2293990E+03  0.7818608E-02  0.1127063E+00
          2   -1    0    0  501    0  0.00000000000E+00  0.00000000000E+00  0.36843652884E+02  0.36843652972E+02  0.25500000000E-02 0.  1.
         -2   -1    0    0    0  501 -0.00000000000E+00 -0.00000000000E+00 -0.35707573326E+03  0.35707573327E+03  0.25500000000E-02 0. -1.
    5000001    1    1    2    0    0 -0.48151444681E+02 -0.58370152698E+02 -0.22665179579E+03  0.25104914436E+03  0.77000000000E+02 0.  0.
   -5000001    1    1    2    0    0  0.48151444681E+02  0.58370152698E+02 -0.93580284583E+02  0.14287024188E+03  0.77000000000E+02 0.  0.
<mgrwt>
<rscale>  0 0.22939899E+03</rscale>
<asrwt>0</asrwt>
<pdfrwt beam="1">  1        2 0.52633792E-02 0.22939899E+03</pdfrwt>
<pdfrwt beam="2">  1       -2 0.51010817E-01 0.22939899E+03</pdfrwt>
<totfact> 0.53326815E+03</totfact>
</mgrwt>
</event>
<event>
 4    1  0.6919593E-004  0.2001484E+03  0.7818608E-02  0.1149614E+00
          2   -1    0    0  501    0  0.00000000000E+00  0.00000000000E+00  0.18981212868E+04  0.18981212868E+04  0.25500000000E-02 0.  1.
         -2   -1    0    0    0  501 -0.00000000000E+00 -0.00000000000E+00 -0.52761860802E+01  0.52761866964E+01  0.25500000000E-02 0. -1.
    5000001    1    1    2    0    0  0.98655765093E+00  0.56593247754E+02  0.12288647869E+04  0.12325751229E+04  0.77000000000E+02 0.  0.
   -5000001    1    1    2    0    0 -0.98655765093E+00 -0.56593247754E+02  0.66398031375E+03  0.67082235058E+03  0.77000000000E+02 0.  0.
<mgrwt>
<rscale>  0 0.20014836E+03</rscale>
<asrwt>0</asrwt>
<pdfrwt beam="1">  1        2 0.27115945E+00 0.20014836E+03</pdfrwt>
<pdfrwt beam="2">  1       -2 0.75374297E-03 0.20014836E+03</pdfrwt>
<totfact> 0.31316925E+04</totfact>
</mgrwt>
</event>
<event>
 4    1  0.6919593E-004  0.2213816E+03  0.7818608E-02  0.1132857E+00
          2   -1    0    0  501    0  0.00000000000E+00  0.00000000000E+00  0.21879913556E+04  0.21879913556E+04  0.25500000000E-02 0.  1.
         -2   -1    0    0    0  501 -0.00000000000E+00 -0.00000000000E+00 -0.55998609402E+01  0.55998615208E+01  0.25500000000E-02 0. -1.
    5000001    1    1    2    0    0 -0.37492251211E+02  0.62520541431E+02  0.14059353933E+04  0.14099283021E+04  0.77000000000E+02 0.  0.
   -5000001    1    1    2    0    0  0.37492251211E+02 -0.62520541431E+02  0.77645610134E+03  0.78366291498E+03  0.77000000000E+02 0.  0.
<mgrwt>
<rscale>  0 0.22138155E+03</rscale>
<asrwt>0</asrwt>
<pdfrwt beam="1">  1        2 0.31257111E+00 0.22138155E+03</pdfrwt>
<pdfrwt beam="2">  1       -2 0.79997783E-03 0.22138155E+03</pdfrwt>
<totfact> 0.20915461E+04</totfact>
</mgrwt>
</event>
<event>
 4    1  0.6919593E-004  0.2911847E+03  0.7818608E-02  0.1089732E+00
         -2   -1    0    0    0  501 -0.00000000000E+00  0.00000000000E+00  0.65970025761E+01  0.65970030689E+01  0.25500000000E-02 0. -1.
          2   -1    0    0  501    0  0.00000000000E+00 -0.00000000000E+00 -0.32131464818E+04  0.32131464818E+04  0.25500000000E-02 0.  1.
    5000001    1    1    2    0    0  0.42087278724E+01 -0.11909896150E+03 -0.12422783639E+04  0.12503546734E+04  0.77000000000E+02 0.  0.
   -5000001    1    1    2    0    0 -0.42087278724E+01  0.11909896150E+03 -0.19642711153E+04  0.19693888114E+04  0.77000000000E+02 0.  0.
<mgrwt>
<rscale>  0 0.29118473E+03</rscale>
<asrwt>0</asrwt>
<pdfrwt beam="1">  1        2 0.45901993E+00 0.29118473E+03</pdfrwt>
<pdfrwt beam="2">  1       -2 0.94243103E-03 0.29118473E+03</pdfrwt>
<totfact> 0.49473059E+03</totfact>
</mgrwt>
</event>
<event>
 4    1  0.6919593E-004  0.2742845E+03  0.7818608E-02  0.1098852E+00
         -2   -1    0    0    0  501 -0.00000000000E+00  0.00000000000E+00  0.10046899192E+02  0.10046899516E+02  0.25500000000E-02 0. -1.
          2   -1    0    0  501    0  0.00000000000E+00 -0.00000000000E+00 -0.18720206106E+04  0.18720206106E+04  0.25500000000E-02 0.  1.
    5000001    1    1    2    0    0  0.10329128334E+03 -0.91267105727E+01 -0.12474174476E+04  0.12540859917E+04  0.77000000000E+02 0.  0.
   -5000001    1    1    2    0    0 -0.10329128334E+03  0.91267105727E+01 -0.61455626384E+03  0.62798151842E+03  0.77000000000E+02 0.  0.
<mgrwt>
<rscale>  0 0.27428454E+03</rscale>
<asrwt>0</asrwt>
<pdfrwt beam="1">  1        2 0.26743129E+00 0.27428454E+03</pdfrwt>
<pdfrwt beam="2">  1       -2 0.14352725E-02 0.27428454E+03</pdfrwt>
<totfact> 0.12836613E+04</totfact>
</mgrwt>
</event>
<event>
 4    1  0.6919593E-004  0.3358187E+03  0.7818608E-02  0.1068591E+00
          2   -1    0    0  501    0  0.00000000000E+00  0.00000000000E+00  0.27276808498E+04  0.27276808498E+04  0.25500000000E-02 0.  1.
         -2   -1    0    0    0  501 -0.00000000000E+00 -0.00000000000E+00 -0.10336090336E+02  0.10336090651E+02  0.25500000000E-02 0. -1.
    5000001    1    1    2    0    0  0.28442008298E+02  0.13893512495E+03  0.98038936533E+03  0.99358151373E+03  0.77000000000E+02 0.  0.
   -5000001    1    1    2    0    0 -0.28442008298E+02 -0.13893512495E+03  0.17369553941E+04  0.17444354267E+04  0.77000000000E+02 0.  0.
<mgrwt>
<rscale>  0 0.33581874E+03</rscale>
<asrwt>0</asrwt>
<pdfrwt beam="1">  1        2 0.38966887E+00 0.33581874E+03</pdfrwt>
<pdfrwt beam="2">  1       -2 0.14765837E-02 0.33581874E+03</pdfrwt>
<totfact> 0.46349700E+03</totfact>
</mgrwt>
</event>
<event>
 4    1  0.6919593E-004  0.3105391E+03  0.7818608E-02  0.1080088E+00
          2   -1    0    0  501    0  0.00000000000E+00  0.00000000000E+00  0.89421046804E+03  0.89421046805E+03  0.25500000000E-02 0.  1.
         -2   -1    0    0    0  501 -0.00000000000E+00 -0.00000000000E+00 -0.26960801059E+02  0.26960801180E+02  0.25500000000E-02 0. -1.
    5000001    1    1    2    0    0  0.69656929836E+01  0.11279356021E+03  0.21546667109E+03  0.25519755966E+03  0.77000000000E+02 0.  0.
   -5000001    1    1    2    0    0 -0.69656929836E+01 -0.11279356021E+03  0.65178299589E+03  0.66597370957E+03  0.77000000000E+02 0.  0.
<mgrwt>
<rscale>  0 0.31053908E+03</rscale>
<asrwt>0</asrwt>
<pdfrwt beam="1">  1        2 0.12774432E+00 0.31053908E+03</pdfrwt>
<pdfrwt beam="2">  1       -2 0.38515439E-02 0.31053908E+03</pdfrwt>
<totfact> 0.98575280E+03</totfact>
</mgrwt>
</event>
<event>
 4    1  0.6919593E-004  0.3081419E+03  0.7818608E-02  0.1081240E+00
          2   -1    0    0  501    0  0.00000000000E+00  0.00000000000E+00  0.46033764996E+03  0.46033764997E+03  0.25500000000E-02 0.  1.
         -2   -1    0    0    0  501 -0.00000000000E+00 -0.00000000000E+00 -0.51566203105E+02  0.51566203168E+02  0.25500000000E-02 0. -1.
    5000001    1    1    2    0    0 -0.11006077381E+03  0.40281914015E+02  0.98365863882E+02  0.17129170939E+03  0.77000000000E+02 0.  0.
   -5000001    1    1    2    0    0  0.11006077381E+03 -0.40281914015E+02  0.31040558297E+03  0.34061214375E+03  0.77000000000E+02 0.  0.
<mgrwt>
<rscale>  0 0.30814195E+03</rscale>
<asrwt>0</asrwt>
<pdfrwt beam="1">  1        2 0.65762520E-01 0.30814195E+03</pdfrwt>
<pdfrwt beam="2">  1       -2 0.73666006E-02 0.30814195E+03</pdfrwt>
<totfact> 0.79775709E+03</totfact>
</mgrwt>
</event>
<event>
 4    1  0.6919593E-004  0.1837156E+03  0.7818608E-02  0.1164255E+00
          2   -1    0    0  501    0  0.00000000000E+00  0.00000000000E+00  0.17847988806E+04  0.17847988806E+04  0.25500000000E-02 0.  1.
         -2   -1    0    0    0  501 -0.00000000000E+00 -0.00000000000E+00 -0.47276223975E+01  0.47276230852E+01  0.25500000000E-02 0. -1.
    5000001    1    1    2    0    0  0.43858578847E+02 -0.17936503070E+02  0.73189842233E+03  0.73746158795E+03  0.77000000000E+02 0.  0.
   -5000001    1    1    2    0    0 -0.43858578847E+02  0.17936503070E+02  0.10481728359E+04  0.10520649158E+04  0.77000000000E+02 0.  0.
<mgrwt>
<rscale>  0 0.18371560E+03</rscale>
<asrwt>0</asrwt>
<pdfrwt beam="1">  1        2 0.25497199E+00 0.18371560E+03</pdfrwt>
<pdfrwt beam="2">  1       -2 0.67537278E-03 0.18371560E+03</pdfrwt>
<totfact> 0.41365174E+04</totfact>
</mgrwt>
</event>
<event>
 4    1  0.6919593E-004  0.2432068E+03  0.7818608E-02  0.1117675E+00
          2   -1    0    0  501    0  0.00000000000E+00  0.00000000000E+00  0.40162215547E+03  0.40162215548E+03  0.25500000000E-02 0.  1.
         -2   -1    0    0    0  501 -0.00000000000E+00 -0.00000000000E+00 -0.36819153364E+02  0.36819153453E+02  0.25500000000E-02 0. -1.
    5000001    1    1    2    0    0  0.59173254042E+02  0.46331482986E+02  0.28454460533E+03  0.30420833771E+03  0.77000000000E+02 0.  0.
   -5000001    1    1    2    0    0 -0.59173254042E+02 -0.46331482986E+02  0.80258396774E+02  0.13423297122E+03  0.77000000000E+02 0.  0.
<mgrwt>
<rscale>  0 0.24320681E+03</rscale>
<asrwt>0</asrwt>
<pdfrwt beam="1">  1        2 0.57374594E-01 0.24320681E+03</pdfrwt>
<pdfrwt beam="2">  1       -2 0.52598790E-02 0.24320681E+03</pdfrwt>
<totfact> 0.15374388E+04</totfact>
</mgrwt>
</event>
<event>
 4    1  0.6919593E-004  0.2418270E+03  0.7818608E-02  0.1118582E+00
         -2   -1    0    0    0  501 -0.00000000000E+00  0.00000000000E+00  0.57843452928E+02  0.57843452984E+02  0.25500000000E-02 0. -1.
          2   -1    0    0  501    0  0.00000000000E+00 -0.00000000000E+00 -0.25275237176E+03  0.25275237178E+03  0.25500000000E-02 0.  1.
    5000001    1    1    2    0    0 -0.45048968611E+02 -0.45973864479E+02 -0.10837250916E+02  0.10094281448E+03  0.77000000000E+02 0.  0.
   -5000001    1    1    2    0    0  0.45048968611E+02  0.45973864479E+02 -0.18407166792E+03  0.20965301028E+03  0.77000000000E+02 0.  0.
<mgrwt>
<rscale>  0 0.24182696E+03</rscale>
<asrwt>0</asrwt>
<pdfrwt beam="1">  1        2 0.36107481E-01 0.24182696E+03</pdfrwt>
<pdfrwt beam="2">  1       -2 0.82633506E-02 0.24182696E+03</pdfrwt>
<totfact> 0.12612190E+04</totfact>
</mgrwt>
</event>
<event>
 4    1  0.6919593E-004  0.2753129E+03  0.7818608E-02  0.1098277E+00
         -2   -1    0    0    0  501 -0.00000000000E+00  0.00000000000E+00  0.15076207116E+03  0.15076207118E+03  0.25500000000E-02 0. -1.
          2   -1    0    0  501    0  0.00000000000E+00 -0.00000000000E+00 -0.12569006367E+03  0.12569006369E+03  0.25500000000E-02 0.  1.
    5000001    1    1    2    0    0 -0.79152848952E+01  0.11240702481E+03  0.30563103124E+02  0.13986098182E+03  0.77000000000E+02 0.  0.
   -5000001    1    1    2    0    0  0.79152848952E+01 -0.11240702481E+03 -0.54910956304E+01  0.13659115306E+03  0.77000000000E+02 0.  0.
<mgrwt>
<rscale>  0 0.27531287E+03</rscale>
<asrwt>0</asrwt>
<pdfrwt beam="1">  1        2 0.17955723E-01 0.27531287E+03</pdfrwt>
<pdfrwt beam="2">  1       -2 0.21537439E-01 0.27531287E+03</pdfrwt>
<totfact> 0.57770728E+03</totfact>
</mgrwt>
</event>
<event>
 4    1  0.6919593E-004  0.2629925E+03  0.7818608E-02  0.1105358E+00
         -2   -1    0    0    0  501 -0.00000000000E+00  0.00000000000E+00  0.25395031152E+03  0.25395031154E+03  0.25500000000E-02 0. -1.
          2   -1    0    0  501    0  0.00000000000E+00 -0.00000000000E+00 -0.68089180951E+02  0.68089180999E+02  0.25500000000E-02 0.  1.
    5000001    1    1    2    0    0  0.88798676594E+02  0.53775009636E+02  0.63305490316E+02  0.14392199877E+03  0.77000000000E+02 0.  0.
   -5000001    1    1    2    0    0 -0.88798676594E+02 -0.53775009636E+02  0.12255564026E+03  0.17811749376E+03  0.77000000000E+02 0.  0.
<mgrwt>
<rscale>  0 0.26299254E+03</rscale>
<asrwt>0</asrwt>
<pdfrwt beam="1">  1        2 0.97270259E-02 0.26299254E+03</pdfrwt>
<pdfrwt beam="2">  1       -2 0.36278616E-01 0.26299254E+03</pdfrwt>
<totfact> 0.47237967E+03</totfact>
</mgrwt>
</event>
<event>
 4    1  0.6919593E-004  0.4565500E+03  0.7818608E-02  0.1025787E+00
         -2   -1    0    0    0  501 -0.00000000000E+00  0.00000000000E+00  0.26342829550E+02  0.26342829673E+02  0.25500000000E-02 0. -1.
          2   -1    0    0  501    0  0.00000000000E+00 -0.00000000000E+00 -0.19781275952E+04  0.19781275952E+04  0.25500000000E-02 0.  1.
    5000001    1    1    2    0    0  0.18822357917E+03 -0.14582876102E+02 -0.14266317226E+04  0.14411272837E+04  0.77000000000E+02 0.  0.
   -5000001    1    1    2    0    0 -0.18822357917E+03  0.14582876102E+02 -0.52515304309E+03  0.56334314116E+03  0.77000000000E+02 0.  0.
<mgrwt>
<rscale>  0 0.45655001E+03</rscale>
<asrwt>0</asrwt>
<pdfrwt beam="1">  1        2 0.28258956E+00 0.45655001E+03</pdfrwt>
<pdfrwt beam="2">  1       -2 0.37632626E-02 0.45655001E+03</pdfrwt>
<totfact> 0.27121090E+03</totfact>
</mgrwt>
</event>
<event>
 4    1  0.6919593E-004  0.2063555E+03  0.7818608E-02  0.1144485E+00
         -2   -1    0    0    0  501 -0.00000000000E+00  0.00000000000E+00  0.50863859827E+01  0.50863866219E+01  0.25500000000E-02 0. -1.
          2   -1    0    0  501    0  0.00000000000E+00 -0.00000000000E+00 -0.20929680662E+04  0.20929680662E+04  0.25500000000E-02 0.  1.
    5000001    1    1    2    0    0  0.57644427392E+02  0.35492742822E+02 -0.11616474005E+04  0.11661630666E+04  0.77000000000E+02 0.  0.
   -5000001    1    1    2    0    0 -0.57644427392E+02 -0.35492742822E+02 -0.92623427966E+03  0.93189138617E+03  0.77000000000E+02 0.  0.
<mgrwt>
<rscale>  0 0.20635546E+03</rscale>
<asrwt>0</asrwt>
<pdfrwt beam="1">  1        2 0.29899489E+00 0.20635546E+03</pdfrwt>
<pdfrwt beam="2">  1       -2 0.72662795E-03 0.20635546E+03</pdfrwt>
<totfact> 0.26627539E+04</totfact>
</mgrwt>
</event>
<event>
 4    1  0.6919593E-004  0.2303529E+03  0.7818608E-02  0.1126392E+00
         -2   -1    0    0    0  501 -0.00000000000E+00  0.00000000000E+00  0.99581916161E+02  0.99581916193E+02  0.25500000000E-02 0. -1.
          2   -1    0    0  501    0  0.00000000000E+00 -0.00000000000E+00 -0.13321312264E+03  0.13321312267E+03  0.25500000000E-02 0.  1.
    5000001    1    1    2    0    0 -0.82595726406E+02 -0.20865607086E+02 -0.25808846739E+02  0.11769674655E+03  0.77000000000E+02 0.  0.
   -5000001    1    1    2    0    0  0.82595726406E+02  0.20865607086E+02 -0.78223597423E+01  0.11509829230E+03  0.77000000000E+02 0.  0.
<mgrwt>
<rscale>  0 0.23035293E+03</rscale>
<asrwt>0</asrwt>
<pdfrwt beam="1">  1        2 0.19030446E-01 0.23035293E+03</pdfrwt>
<pdfrwt beam="2">  1       -2 0.14225988E-01 0.23035293E+03</pdfrwt>
<totfact> 0.10754662E+04</totfact>
</mgrwt>
</event>
<event>
 4    1  0.6919593E-004  0.2139913E+03  0.7818608E-02  0.1138444E+00
          2   -1    0    0  501    0  0.00000000000E+00  0.00000000000E+00  0.13473664828E+03  0.13473664830E+03  0.25500000000E-02 0.  1.
         -2   -1    0    0    0  501 -0.00000000000E+00 -0.00000000000E+00 -0.84966260765E+02  0.84966260803E+02  0.25500000000E-02 0. -1.
    5000001    1    1    2    0    0 -0.58713922869E+02  0.45470909435E+02  0.22795971064E+02  0.10937817260E+03  0.77000000000E+02 0.  0.
   -5000001    1    1    2    0    0  0.58713922869E+02 -0.45470909435E+02  0.26974416450E+02  0.11032473651E+03  0.77000000000E+02 0.  0.
<mgrwt>
<rscale>  0 0.21399130E+03</rscale>
<asrwt>0</asrwt>
<pdfrwt beam="1">  1        2 0.19248093E-01 0.21399130E+03</pdfrwt>
<pdfrwt beam="2">  1       -2 0.12138037E-01 0.21399130E+03</pdfrwt>
<totfact> 0.13673778E+04</totfact>
</mgrwt>
</event>
<event>
 4    1  0.6919593E-004  0.2344180E+03  0.7818608E-02  0.1123568E+00
          2   -1    0    0  501    0  0.00000000000E+00  0.00000000000E+00  0.21603988694E+03  0.21603988695E+03  0.25500000000E-02 0.  1.
         -2   -1    0    0    0  501 -0.00000000000E+00 -0.00000000000E+00 -0.63589881519E+02  0.63589881570E+02  0.25500000000E-02 0. -1.
    5000001    1    1    2    0    0  0.51106232745E+02  0.36345594448E+02  0.19590079207E+01  0.99326164595E+02  0.77000000000E+02 0.  0.
   -5000001    1    1    2    0    0 -0.51106232745E+02 -0.36345594448E+02  0.15049099750E+03  0.18030360393E+03  0.77000000000E+02 0.  0.
<mgrwt>
<rscale>  0 0.23441801E+03</rscale>
<asrwt>0</asrwt>
<pdfrwt beam="1">  1        2 0.30862842E-01 0.23441801E+03</pdfrwt>
<pdfrwt beam="2">  1       -2 0.90842686E-02 0.23441801E+03</pdfrwt>
<totfact> 0.12870636E+04</totfact>
</mgrwt>
</event>
<event>
 4    1  0.6919593E-004  0.2513857E+03  0.7818608E-02  0.1112432E+00
          2   -1    0    0  501    0  0.00000000000E+00  0.00000000000E+00  0.37223892205E+03  0.37223892206E+03  0.25500000000E-02 0.  1.
         -2   -1    0    0    0  501 -0.00000000000E+00 -0.00000000000E+00 -0.42442340873E+02  0.42442340949E+02  0.25500000000E-02 0. -1.
    5000001    1    1    2    0    0  0.19728034190E+02  0.82740289186E+02  0.24956765436E+03  0.27467829345E+03  0.77000000000E+02 0.  0.
   -5000001    1    1    2    0    0 -0.19728034190E+02 -0.82740289186E+02  0.80228926813E+02  0.14000296956E+03  0.77000000000E+02 0.  0.
<mgrwt>
<rscale>  0 0.25138569E+03</rscale>
<asrwt>0</asrwt>
<pdfrwt beam="1">  1        2 0.53176991E-01 0.25138569E+03</pdfrwt>
<pdfrwt beam="2">  1       -2 0.60631913E-02 0.25138569E+03</pdfrwt>
<totfact> 0.13456552E+04</totfact>
</mgrwt>
</event>
<event>
 4    1  0.6919593E-004  0.2980793E+03  0.7818608E-02  0.1086205E+00
          2   -1    0    0  501    0  0.00000000000E+00  0.00000000000E+00  0.42995411813E+03  0.42995411814E+03  0.25500000000E-02 0.  1.
         -2   -1    0    0    0  501 -0.00000000000E+00 -0.00000000000E+00 -0.51663237223E+02  0.51663237285E+02  0.25500000000E-02 0. -1.
    5000001    1    1    2    0    0  0.63732411759E+02 -0.10953410589E+03  0.16494816508E+03  0.22180270022E+03  0.77000000000E+02 0.  0.
   -5000001    1    1    2    0    0 -0.63732411759E+02  0.10953410589E+03  0.21334271582E+03  0.25981465520E+03  0.77000000000E+02 0.  0.
<mgrwt>
<rscale>  0 0.29807933E+03</rscale>
<asrwt>0</asrwt>
<pdfrwt beam="1">  1        2 0.61422021E-01 0.29807933E+03</pdfrwt>
<pdfrwt beam="2">  1       -2 0.73804620E-02 0.29807933E+03</pdfrwt>
<totfact> 0.85613442E+03</totfact>
</mgrwt>
</event>
<event>
 4    1  0.6919593E-004  0.3310398E+03  0.7818608E-02  0.1070678E+00
         -2   -1    0    0    0  501 -0.00000000000E+00  0.00000000000E+00  0.22903176859E+02  0.22903177001E+02  0.25500000000E-02 0.  1.
          2   -1    0    0  501    0  0.00000000000E+00 -0.00000000000E+00 -0.11962023259E+04  0.11962023259E+04  0.25500000000E-02 0. -1.
    5000001    1    1    2    0    0 -0.13215453487E+03 -0.69001539127E+01 -0.81825905484E+03  0.83245979725E+03  0.77000000000E+02 0.  0.
   -5000001    1    1    2    0    0  0.13215453487E+03  0.69001539127E+01 -0.35504009423E+03  0.38664570569E+03  0.77000000000E+02 0.  0.
<mgrwt>
<rscale>  0 0.33103978E+03</rscale>
<asrwt>0</asrwt>
<pdfrwt beam="1">  1        2 0.17088601E+00 0.33103978E+03</pdfrwt>
<pdfrwt beam="2">  1       -2 0.32718832E-02 0.33103978E+03</pdfrwt>
<totfact> 0.84085353E+03</totfact>
</mgrwt>
</event>
<event>
 4    1  0.6919593E-004  0.3317959E+03  0.7818608E-02  0.1070345E+00
         -2   -1    0    0    0  501 -0.00000000000E+00  0.00000000000E+00  0.26020093882E+02  0.26020094007E+02  0.25500000000E-02 0. -1.
          2   -1    0    0  501    0  0.00000000000E+00 -0.00000000000E+00 -0.10577262053E+04  0.10577262053E+04  0.25500000000E-02 0.  1.
    5000001    1    1    2    0    0 -0.51632473463E+02  0.11034727615E+03 -0.24748487375E+03  0.28639168355E+03  0.77000000000E+02 0.  0.
   -5000001    1    1    2    0    0  0.51632473463E+02 -0.11034727615E+03 -0.78422123763E+03  0.79735461572E+03  0.77000000000E+02 0.  0.
<mgrwt>
<rscale>  0 0.33179593E+03</rscale>
<asrwt>0</asrwt>
<pdfrwt beam="1">  1        2 0.15110372E+00 0.33179593E+03</pdfrwt>
<pdfrwt beam="2">  1       -2 0.37171569E-02 0.33179593E+03</pdfrwt>
<totfact> 0.83031610E+03</totfact>
</mgrwt>
</event>
<event>
 4    1  0.6919593E-004  0.2283744E+03  0.7818608E-02  0.1127789E+00
          2   -1    0    0  501    0  0.00000000000E+00  0.00000000000E+00  0.34921780731E+02  0.34921780825E+02  0.25500000000E-02 0.  1.
         -2   -1    0    0    0  501 -0.00000000000E+00 -0.00000000000E+00 -0.37336904888E+03  0.37336904889E+03  0.25500000000E-02 0. -1.
    5000001    1    1    2    0    0 -0.62759259902E+01 -0.60400539404E+02 -0.27380844356E+03  0.29083960557E+03  0.77000000000E+02 0.  0.
   -5000001    1    1    2    0    0  0.62759259902E+01  0.60400539404E+02 -0.64638824594E+02  0.11745122414E+03  0.77000000000E+02 0.  0.
<mgrwt>
<rscale>  0 0.22837436E+03</rscale>
<asrwt>0</asrwt>
<pdfrwt beam="1">  1        2 0.49888260E-02 0.22837436E+03</pdfrwt>
<pdfrwt beam="2">  1       -2 0.53338433E-01 0.22837436E+03</pdfrwt>
<totfact> 0.52305286E+03</totfact>
</mgrwt>
</event>
<event>
 4    1  0.6919593E-004  0.3621330E+03  0.7818608E-02  0.1057742E+00
         -2   -1    0    0    0  501 -0.00000000000E+00  0.00000000000E+00  0.69115650334E+03  0.69115650335E+03  0.25500000000E-02 0. -1.
          2   -1    0    0  501    0  0.00000000000E+00 -0.00000000000E+00 -0.47435088952E+02  0.47435089021E+02  0.25500000000E-02 0.  1.
    5000001    1    1    2    0    0  0.11320552645E+03 -0.10499997604E+03  0.43386173911E+03  0.46691058549E+03  0.77000000000E+02 0.  0.
   -5000001    1    1    2    0    0 -0.11320552645E+03  0.10499997604E+03  0.20985967528E+03  0.27168100687E+03  0.77000000000E+02 0.  0.
<mgrwt>
<rscale>  0 0.36213296E+03</rscale>
<asrwt>0</asrwt>
<pdfrwt beam="1">  1        2 0.67764409E-02 0.36213296E+03</pdfrwt>
<pdfrwt beam="2">  1       -2 0.98736648E-01 0.36213296E+03</pdfrwt>
<totfact> 0.93709515E+02</totfact>
</mgrwt>
</event>
<event>
 4    1  0.6919593E-004  0.2038355E+03  0.7818608E-02  0.1146543E+00
          2   -1    0    0  501    0  0.00000000000E+00  0.00000000000E+00  0.59445775863E+02  0.59445775918E+02  0.25500000000E-02 0.  1.
         -2   -1    0    0    0  501 -0.00000000000E+00 -0.00000000000E+00 -0.17473448435E+03  0.17473448437E+03  0.25500000000E-02 0. -1.
    5000001    1    1    2    0    0  0.27902823488E+02 -0.35970743965E+02 -0.11376004468E+03  0.14471630781E+03  0.77000000000E+02 0.  0.
   -5000001    1    1    2    0    0 -0.27902823488E+02  0.35970743965E+02 -0.15286638060E+01  0.89463952478E+02  0.77000000000E+02 0.  0.
<mgrwt>
<rscale>  0 0.20383549E+03</rscale>
<asrwt>0</asrwt>
<pdfrwt beam="1">  1        2 0.84922538E-02 0.20383549E+03</pdfrwt>
<pdfrwt beam="2">  1       -2 0.24962069E-01 0.20383549E+03</pdfrwt>
<totfact> 0.10880352E+04</totfact>
</mgrwt>
</event>
<event>
 4    1  0.6919593E-004  0.1925024E+03  0.7818608E-02  0.1156223E+00
          2   -1    0    0  501    0  0.00000000000E+00  0.00000000000E+00  0.35984306289E+03  0.35984306290E+03  0.25500000000E-02 0.  1.
         -2   -1    0    0    0  501 -0.00000000000E+00 -0.00000000000E+00 -0.25745374778E+02  0.25745374905E+02  0.25500000000E-02 0. -1.
    5000001    1    1    2    0    0 -0.39431331661E+01  0.52699042340E+02  0.12039251266E+03  0.15236828564E+03  0.77000000000E+02 0.  0.
   -5000001    1    1    2    0    0  0.39431331661E+01 -0.52699042340E+02  0.21370517545E+03  0.23322015216E+03  0.77000000000E+02 0.  0.
<mgrwt>
<rscale>  0 0.19250241E+03</rscale>
<asrwt>0</asrwt>
<pdfrwt beam="1">  1        2 0.51406151E-01 0.19250241E+03</pdfrwt>
<pdfrwt beam="2">  1       -2 0.36779107E-02 0.19250241E+03</pdfrwt>
<totfact> 0.29161659E+04</totfact>
</mgrwt>
</event>
<event>
 4    1  0.6919593E-004  0.2160119E+03  0.7818608E-02  0.1136892E+00
          2   -1    0    0  501    0  0.00000000000E+00  0.00000000000E+00  0.26463700383E+03  0.26463700384E+03  0.25500000000E-02 0.  1.
         -2   -1    0    0    0  501 -0.00000000000E+00 -0.00000000000E+00 -0.44080330372E+02  0.44080330445E+02  0.25500000000E-02 0. -1.
    5000001    1    1    2    0    0 -0.46887566852E+02 -0.14543662398E+02  0.19270460210E+03  0.21324639672E+03  0.77000000000E+02 0.  0.
   -5000001    1    1    2    0    0  0.46887566852E+02  0.14543662398E+02  0.27852071352E+02  0.95470937566E+02  0.77000000000E+02 0.  0.
<mgrwt>
<rscale>  0 0.21601191E+03</rscale>
<asrwt>0</asrwt>
<pdfrwt beam="1">  1        2 0.37805286E-01 0.21601191E+03</pdfrwt>
<pdfrwt beam="2">  1       -2 0.62971902E-02 0.21601191E+03</pdfrwt>
<totfact> 0.18146771E+04</totfact>
</mgrwt>
</event>
<event>
 4    1  0.6919593E-004  0.2104890E+03  0.7818608E-02  0.1141179E+00
          2   -1    0    0  501    0  0.00000000000E+00  0.00000000000E+00  0.75316670300E+02  0.75316670343E+02  0.25500000000E-02 0.  1.
         -2   -1    0    0    0  501 -0.00000000000E+00 -0.00000000000E+00 -0.14706447736E+03  0.14706447738E+03  0.25500000000E-02 0. -1.
    5000001    1    1    2    0    0  0.46496626755E+01 -0.69223621065E+02 -0.16569240707E+02  0.10496222565E+03  0.77000000000E+02 0.  0.
   -5000001    1    1    2    0    0 -0.46496626755E+01  0.69223621065E+02 -0.55178566356E+02  0.11741892208E+03  0.77000000000E+02 0.  0.
<mgrwt>
<rscale>  0 0.21048902E+03</rscale>
<asrwt>0</asrwt>
<pdfrwt beam="1">  1        2 0.10759524E-01 0.21048902E+03</pdfrwt>
<pdfrwt beam="2">  1       -2 0.21009211E-01 0.21048902E+03</pdfrwt>
<totfact> 0.10959785E+04</totfact>
</mgrwt>
</event>
<event>
 4    1  0.6919593E-004  0.2793837E+03  0.7818608E-02  0.1096026E+00
         -2   -1    0    0    0  501 -0.00000000000E+00  0.00000000000E+00  0.22206465227E+02  0.22206465373E+02  0.25500000000E-02 0. -1.
          2   -1    0    0  501    0  0.00000000000E+00 -0.00000000000E+00 -0.87874455854E+03  0.87874455854E+03  0.25500000000E-02 0.  1.
    5000001    1    1    2    0    0  0.10646591015E+03 -0.19070600642E+02 -0.56832006456E+03  0.58362262945E+03  0.77000000000E+02 0.  0.
   -5000001    1    1    2    0    0 -0.10646591015E+03  0.19070600642E+02 -0.28821802875E+03  0.31732839446E+03  0.77000000000E+02 0.  0.
<mgrwt>
<rscale>  0 0.27938368E+03</rscale>
<asrwt>0</asrwt>
<pdfrwt beam="1">  1        2 0.12553491E+00 0.27938368E+03</pdfrwt>
<pdfrwt beam="2">  1       -2 0.31723527E-02 0.27938368E+03</pdfrwt>
<totfact> 0.13437282E+04</totfact>
</mgrwt>
</event>
<event>
 4    1  0.6919593E-004  0.2004100E+03  0.7818608E-02  0.1149394E+00
         -2   -1    0    0    0  501 -0.00000000000E+00  0.00000000000E+00  0.80578849855E+02  0.80578849895E+02  0.25500000000E-02 0. -1.
          2   -1    0    0  501    0  0.00000000000E+00 -0.00000000000E+00 -0.12461140602E+03  0.12461140605E+03  0.25500000000E-02 0.  1.
    5000001    1    1    2    0    0  0.49216318143E+02 -0.39418146934E+02 -0.33956674398E+02  0.10515746296E+03  0.77000000000E+02 0.  0.
   -5000001    1    1    2    0    0 -0.49216318143E+02  0.39418146934E+02 -0.10075881768E+02  0.10003279299E+03  0.77000000000E+02 0.  0.
<mgrwt>
<rscale>  0 0.20041002E+03</rscale>
<asrwt>0</asrwt>
<pdfrwt beam="1">  1        2 0.17801629E-01 0.20041002E+03</pdfrwt>
<pdfrwt beam="2">  1       -2 0.11511264E-01 0.20041002E+03</pdfrwt>
<totfact> 0.16214902E+04</totfact>
</mgrwt>
</event>
<event>
 4    1  0.6919593E-004  0.1949247E+03  0.7818608E-02  0.1154093E+00
         -2   -1    0    0    0  501 -0.00000000000E+00  0.00000000000E+00  0.52723990052E+01  0.52723996218E+01  0.25500000000E-02 0. -1.
          2   -1    0    0  501    0  0.00000000000E+00 -0.00000000000E+00 -0.18016297189E+04  0.18016297189E+04  0.25500000000E-02 0.  1.
    5000001    1    1    2    0    0  0.55539175516E+00 -0.39253141138E+02 -0.48064964181E+03  0.48835867528E+03  0.77000000000E+02 0.  0.
   -5000001    1    1    2    0    0 -0.55539175516E+00  0.39253141138E+02 -0.13157076781E+04  0.13185434432E+04  0.77000000000E+02 0.  0.
<mgrwt>
<rscale>  0 0.19492472E+03</rscale>
<asrwt>0</asrwt>
<pdfrwt beam="1">  1        2 0.25737528E+00 0.19492472E+03</pdfrwt>
<pdfrwt beam="2">  1       -2 0.75320105E-03 0.19492472E+03</pdfrwt>
<totfact> 0.34848165E+04</totfact>
</mgrwt>
</event>
<event>
 4    1  0.6919593E-004  0.2779209E+03  0.7818608E-02  0.1096830E+00
         -2   -1    0    0    0  501 -0.00000000000E+00  0.00000000000E+00  0.31909673022E+03  0.31909673023E+03  0.25500000000E-02 0. -1.
          2   -1    0    0  501    0  0.00000000000E+00 -0.00000000000E+00 -0.60514576793E+02  0.60514576846E+02  0.25500000000E-02 0.  1.
    5000001    1    1    2    0    0  0.12947708283E+02  0.82472063162E+02  0.23866284041E+03  0.26430708607E+03  0.77000000000E+02 0.  0.
   -5000001    1    1    2    0    0 -0.12947708283E+02 -0.82472063162E+02  0.19919313018E+02  0.11530422101E+03  0.77000000000E+02 0.  0.
<mgrwt>
<rscale>  0 0.27792088E+03</rscale>
<asrwt>0</asrwt>
<pdfrwt beam="1">  1        2 0.86449395E-02 0.27792088E+03</pdfrwt>
<pdfrwt beam="2">  1       -2 0.45585247E-01 0.27792088E+03</pdfrwt>
<totfact> 0.35429344E+03</totfact>
</mgrwt>
</event>
<event>
 4    1  0.6919593E-004  0.1951895E+03  0.7818608E-02  0.1153862E+00
          2   -1    0    0  501    0  0.00000000000E+00  0.00000000000E+00  0.20655267446E+04  0.20655267446E+04  0.25500000000E-02 0.  1.
         -2   -1    0    0    0  501 -0.00000000000E+00 -0.00000000000E+00 -0.46112841752E+01  0.46112848803E+01  0.25500000000E-02 0. -1.
    5000001    1    1    2    0    0 -0.29993465685E+02 -0.49927388075E+02  0.87920734836E+03  0.88449246095E+03  0.77000000000E+02 0.  0.
   -5000001    1    1    2    0    0  0.29993465685E+02  0.49927388075E+02  0.11817081120E+04  0.11856455685E+04  0.77000000000E+02 0.  0.
<mgrwt>
<rscale>  0 0.19518946E+03</rscale>
<asrwt>0</asrwt>
<pdfrwt beam="1">  1        2 0.29507571E+00 0.19518946E+03</pdfrwt>
<pdfrwt beam="2">  1       -2 0.65875391E-03 0.19518946E+03</pdfrwt>
<totfact> 0.31513555E+04</totfact>
</mgrwt>
</event>
<event>
 4    1  0.6919593E-004  0.1928311E+03  0.7818608E-02  0.1155932E+00
          2   -1    0    0  501    0  0.00000000000E+00  0.00000000000E+00  0.41640087719E+02  0.41640087797E+02  0.25500000000E-02 0.  1.
         -2   -1    0    0    0  501 -0.00000000000E+00 -0.00000000000E+00 -0.22324531239E+03  0.22324531241E+03  0.25500000000E-02 0. -1.
    5000001    1    1    2    0    0 -0.29713882282E+02  0.49837557353E+02 -0.91499644262E+02  0.13292058465E+03  0.77000000000E+02 0.  0.
   -5000001    1    1    2    0    0  0.29713882282E+02 -0.49837557353E+02 -0.90105580410E+02  0.13196481555E+03  0.77000000000E+02 0.  0.
<mgrwt>
<rscale>  0 0.19283106E+03</rscale>
<asrwt>0</asrwt>
<pdfrwt beam="1">  1        2 0.59485841E-02 0.19283106E+03</pdfrwt>
<pdfrwt beam="2">  1       -2 0.31892187E-01 0.19283106E+03</pdfrwt>
<totfact> 0.11016987E+04</totfact>
</mgrwt>
</event>
<event>
 4    1  0.6919593E-004  0.1891617E+03  0.7818608E-02  0.1159220E+00
          2   -1    0    0  501    0  0.00000000000E+00  0.00000000000E+00  0.12270496392E+04  0.12270496392E+04  0.25500000000E-02 0.  1.
         -2   -1    0    0    0  501 -0.00000000000E+00 -0.00000000000E+00 -0.72902831940E+01  0.72902836400E+01  0.25500000000E-02 0. -1.
    5000001    1    1    2    0    0 -0.15547119859E+02  0.45658761643E+02  0.78129863161E+03  0.78656403885E+03  0.77000000000E+02 0.  0.
   -5000001    1    1    2    0    0  0.15547119859E+02 -0.45658761643E+02  0.43846072438E+03  0.44777588398E+03  0.77000000000E+02 0.  0.
<mgrwt>
<rscale>  0 0.18916173E+03</rscale>
<asrwt>0</asrwt>
<pdfrwt beam="1">  1        2 0.17529280E+00 0.18916173E+03</pdfrwt>
<pdfrwt beam="2">  1       -2 0.10414691E-02 0.18916173E+03</pdfrwt>
<totfact> 0.42320912E+04</totfact>
</mgrwt>
</event>
<event>
 4    1  0.6919593E-004  0.1609365E+03  0.7818608E-02  0.1187643E+00
         -2   -1    0    0    0  501 -0.00000000000E+00  0.00000000000E+00  0.18948147640E+02  0.18948147812E+02  0.25500000000E-02 0. -1.
          2   -1    0    0  501    0  0.00000000000E+00 -0.00000000000E+00 -0.34172946517E+03  0.34172946518E+03  0.25500000000E-02 0.  1.
    5000001    1    1    2    0    0  0.11348345781E+02 -0.15432372168E+02 -0.19139128792E+03  0.20718727797E+03  0.77000000000E+02 0.  0.
   -5000001    1    1    2    0    0 -0.11348345781E+02  0.15432372168E+02 -0.13139002961E+03  0.15349033502E+03  0.77000000000E+02 0.  0.
<mgrwt>
<rscale>  0 0.16093651E+03</rscale>
<asrwt>0</asrwt>
<pdfrwt beam="1">  1        2 0.48818491E-01 0.16093651E+03</pdfrwt>
<pdfrwt beam="2">  1       -2 0.27068785E-02 0.16093651E+03</pdfrwt>
<totfact> 0.47687252E+04</totfact>
</mgrwt>
</event>
<event>
 4    1  0.6919593E-004  0.2349171E+03  0.7818608E-02  0.1123226E+00
         -2   -1    0    0    0  501 -0.00000000000E+00  0.00000000000E+00  0.19588031822E+02  0.19588031988E+02  0.25500000000E-02 0. -1.
          2   -1    0    0  501    0  0.00000000000E+00 -0.00000000000E+00 -0.70433385258E+03  0.70433385258E+03  0.25500000000E-02 0.  1.
    5000001    1    1    2    0    0 -0.41179528957E+01 -0.72565548819E+02 -0.18570130424E+03  0.21376784325E+03  0.77000000000E+02 0.  0.
   -5000001    1    1    2    0    0  0.41179528957E+01  0.72565548819E+02 -0.49904451651E+03  0.51015404132E+03  0.77000000000E+02 0.  0.
<mgrwt>
<rscale>  0 0.23491713E+03</rscale>
<asrwt>0</asrwt>
<pdfrwt beam="1">  1        2 0.10061911E+00 0.23491713E+03</pdfrwt>
<pdfrwt beam="2">  1       -2 0.27982907E-02 0.23491713E+03</pdfrwt>
<totfact> 0.21079511E+04</totfact>
</mgrwt>
</event>
<event>
 4    1  0.6919593E-004  0.1854545E+03  0.7818608E-02  0.1162626E+00
          2   -1    0    0  501    0  0.00000000000E+00  0.00000000000E+00  0.33791155236E+03  0.33791155237E+03  0.25500000000E-02 0.  1.
         -2   -1    0    0    0  501 -0.00000000000E+00 -0.00000000000E+00 -0.25445529771E+02  0.25445529898E+02  0.25500000000E-02 0. -1.
    5000001    1    1    2    0    0 -0.18642248182E+02 -0.29146572794E+01  0.25046823548E+03  0.26271536999E+03  0.77000000000E+02 0.  0.
   -5000001    1    1    2    0    0  0.18642248182E+02  0.29146572794E+01  0.61997787116E+02  0.10064171228E+03  0.77000000000E+02 0.  0.
<mgrwt>
<rscale>  0 0.18545445E+03</rscale>
<asrwt>0</asrwt>
<pdfrwt beam="1">  1        2 0.48273080E-01 0.18545445E+03</pdfrwt>
<pdfrwt beam="2">  1       -2 0.36350756E-02 0.18545445E+03</pdfrwt>
<totfact> 0.31634603E+04</totfact>
</mgrwt>
</event>
<event>
 4    1  0.6919593E-004  0.3297240E+03  0.7818608E-02  0.1071259E+00
         -2   -1    0    0    0  501 -0.00000000000E+00  0.00000000000E+00  0.13230759562E+02  0.13230759807E+02  0.25500000000E-02 0. -1.
          2   -1    0    0  501    0  0.00000000000E+00 -0.00000000000E+00 -0.20542640924E+04  0.20542640924E+04  0.25500000000E-02 0.  1.
    5000001    1    1    2    0    0  0.64126702355E+02 -0.94513137667E+02 -0.15885144404E+04  0.15944754919E+04  0.77000000000E+02 0.  0.
   -5000001    1    1    2    0    0 -0.64126702355E+02  0.94513137667E+02 -0.45251889252E+03  0.47301936031E+03  0.77000000000E+02 0.  0.
<mgrwt>
<rscale>  0 0.32972397E+03</rscale>
<asrwt>0</asrwt>
<pdfrwt beam="1">  1        2 0.29346609E+00 0.32972397E+03</pdfrwt>
<pdfrwt beam="2">  1       -2 0.18901098E-02 0.32972397E+03</pdfrwt>
<totfact> 0.69927993E+03</totfact>
</mgrwt>
</event>
<event>
 4    1  0.6919593E-004  0.1611724E+03  0.7818608E-02  0.1187379E+00
          2   -1    0    0  501    0  0.00000000000E+00  0.00000000000E+00  0.29048785831E+02  0.29048785943E+02  0.25500000000E-02 0.  1.
         -2   -1    0    0    0  501 -0.00000000000E+00 -0.00000000000E+00 -0.22355961044E+03  0.22355961045E+03  0.25500000000E-02 0. -1.
    5000001    1    1    2    0    0  0.12152672263E+02  0.18274901113E+02 -0.11157522813E+03  0.13733059013E+03  0.77000000000E+02 0.  0.
   -5000001    1    1    2    0    0 -0.12152672263E+02 -0.18274901113E+02 -0.82935596478E+02  0.11527780626E+03  0.77000000000E+02 0.  0.
<mgrwt>
<rscale>  0 0.16117240E+03</rscale>
<asrwt>0</asrwt>
<pdfrwt beam="1">  1        2 0.41498267E-02 0.16117240E+03</pdfrwt>
<pdfrwt beam="2">  1       -2 0.31937086E-01 0.16117240E+03</pdfrwt>
<totfact> 0.17360260E+04</totfact>
</mgrwt>
</event>
<event>
 4    1  0.6919593E-004  0.2431728E+03  0.7818608E-02  0.1117697E+00
          2   -1    0    0  501    0  0.00000000000E+00  0.00000000000E+00  0.16165654074E+04  0.16165654074E+04  0.25500000000E-02 0.  1.
         -2   -1    0    0    0  501 -0.00000000000E+00 -0.00000000000E+00 -0.91448563295E+01  0.91448566851E+01  0.25500000000E-02 0. -1.
    5000001    1    1    2    0    0 -0.27918545564E+02  0.79765025858E+02  0.52706397987E+03  0.53932118762E+03  0.77000000000E+02 0.  0.
   -5000001    1    1    2    0    0  0.27918545564E+02 -0.79765025858E+02  0.10803565712E+04  0.10863890764E+04  0.77000000000E+02 0.  0.
<mgrwt>
<rscale>  0 0.24317285E+03</rscale>
<asrwt>0</asrwt>
<pdfrwt beam="1">  1        2 0.23093806E+00 0.24317285E+03</pdfrwt>
<pdfrwt beam="2">  1       -2 0.13064073E-02 0.24317285E+03</pdfrwt>
<totfact> 0.19579263E+04</totfact>
</mgrwt>
</event>
<event>
 4    1  0.6919593E-004  0.1707609E+03  0.7818608E-02  0.1177057E+00
         -2   -1    0    0    0  501 -0.00000000000E+00  0.00000000000E+00  0.22108373703E+02  0.22108373850E+02  0.25500000000E-02 0. -1.
          2   -1    0    0  501    0  0.00000000000E+00 -0.00000000000E+00 -0.32973131303E+03  0.32973131304E+03  0.25500000000E-02 0.  1.
    5000001    1    1    2    0    0  0.33193522477E+02 -0.32469544879E+01 -0.18628980228E+03  0.20431652669E+03  0.77000000000E+02 0.  0.
   -5000001    1    1    2    0    0 -0.33193522477E+02  0.32469544879E+01 -0.12133313705E+03  0.14752316020E+03  0.77000000000E+02 0.  0.
<mgrwt>
<rscale>  0 0.17076092E+03</rscale>
<asrwt>0</asrwt>
<pdfrwt beam="1">  1        2 0.47104470E-01 0.17076092E+03</pdfrwt>
<pdfrwt beam="2">  1       -2 0.31583393E-02 0.17076092E+03</pdfrwt>
<totfact> 0.39697584E+04</totfact>
</mgrwt>
</event>
<event>
 4    1  0.6919593E-004  0.2449280E+03  0.7818608E-02  0.1116553E+00
         -2   -1    0    0    0  501 -0.00000000000E+00  0.00000000000E+00  0.67705585093E+02  0.67705585141E+02  0.25500000000E-02 0. -1.
          2   -1    0    0  501    0  0.00000000000E+00 -0.00000000000E+00 -0.22150956804E+03  0.22150956806E+03  0.25500000000E-02 0.  1.
    5000001    1    1    2    0    0  0.80411832805E+02 -0.96361811736E+01 -0.17748886483E+02  0.11315008535E+03  0.77000000000E+02 0.  0.
   -5000001    1    1    2    0    0 -0.80411832805E+02  0.96361811736E+01 -0.13605509647E+03  0.17606506785E+03  0.77000000000E+02 0.  0.
<mgrwt>
<rscale>  0 0.24492803E+03</rscale>
<asrwt>0</asrwt>
<pdfrwt beam="1">  1        2 0.31644224E-01 0.24492803E+03</pdfrwt>
<pdfrwt beam="2">  1       -2 0.96722265E-02 0.24492803E+03</pdfrwt>
<totfact> 0.11371387E+04</totfact>
</mgrwt>
</event>
<event>
 4    1  0.6919593E-004  0.2648637E+03  0.7818608E-02  0.1104256E+00
          2   -1    0    0  501    0  0.00000000000E+00  0.00000000000E+00  0.69889962355E+03  0.69889962356E+03  0.25500000000E-02 0.  1.
         -2   -1    0    0    0  501 -0.00000000000E+00 -0.00000000000E+00 -0.25094010782E+02  0.25094010912E+02  0.25500000000E-02 0. -1.
    5000001    1    1    2    0    0  0.10647036860E+03  0.38275265423E+01  0.29294549778E+03  0.32108667680E+03  0.77000000000E+02 0.  0.
   -5000001    1    1    2    0    0 -0.10647036860E+03 -0.38275265423E+01  0.38086011499E+03  0.40290695767E+03  0.77000000000E+02 0.  0.
<mgrwt>
<rscale>  0 0.26486370E+03</rscale>
<asrwt>0</asrwt>
<pdfrwt beam="1">  1        2 0.99842797E-01 0.26486370E+03</pdfrwt>
<pdfrwt beam="2">  1       -2 0.35848589E-02 0.26486370E+03</pdfrwt>
<totfact> 0.14805091E+04</totfact>
</mgrwt>
</event>
<event>
 4    1  0.6919593E-004  0.2363094E+03  0.7818608E-02  0.1122276E+00
          2   -1    0    0  501    0  0.00000000000E+00  0.00000000000E+00  0.82415625215E+03  0.82415625215E+03  0.25500000000E-02 0.  1.
         -2   -1    0    0    0  501 -0.00000000000E+00 -0.00000000000E+00 -0.16939182081E+02  0.16939182273E+02  0.25500000000E-02 0. -1.
    5000001    1    1    2    0    0  0.31004097655E+02  0.13018393140E+02  0.69928312999E+03  0.70431287687E+03  0.77000000000E+02 0.  0.
   -5000001    1    1    2    0    0 -0.31004097655E+02 -0.13018393140E+02  0.10793394007E+03  0.13678255756E+03  0.77000000000E+02 0.  0.
<mgrwt>
<rscale>  0 0.23630940E+03</rscale>
<asrwt>0</asrwt>
<pdfrwt beam="1">  1        2 0.11773660E+00 0.23630940E+03</pdfrwt>
<pdfrwt beam="2">  1       -2 0.24198834E-02 0.23630940E+03</pdfrwt>
<totfact> 0.21599468E+04</totfact>
</mgrwt>
</event>
<event>
 4    1  0.6919593E-004  0.2705013E+03  0.7818608E-02  0.1100993E+00
         -2   -1    0    0    0  501 -0.00000000000E+00  0.00000000000E+00  0.98233965882E+02  0.98233965916E+02  0.25500000000E-02 0.  1.
          2   -1    0    0  501    0  0.00000000000E+00 -0.00000000000E+00 -0.18621599087E+03  0.18621599089E+03  0.25500000000E-02 0. -1.
    5000001    1    1    2    0    0  0.11112671939E+03  0.38175792622E+01 -0.44113774917E+02  0.14226294953E+03  0.77000000000E+02 0.  0.
   -5000001    1    1    2    0    0 -0.11112671939E+03 -0.38175792622E+01 -0.43868250075E+02  0.14218700727E+03  0.77000000000E+02 0.  0.
<mgrwt>
<rscale>  0 0.27050128E+03</rscale>
<asrwt>0</asrwt>
<pdfrwt beam="1">  1        2 0.26602285E-01 0.27050128E+03</pdfrwt>
<pdfrwt beam="2">  1       -2 0.14033424E-01 0.27050128E+03</pdfrwt>
<totfact> 0.75958309E+03</totfact>
</mgrwt>
</event>
<event>
 4    1  0.6919593E-004  0.2249859E+03  0.7818608E-02  0.1130220E+00
          2   -1    0    0  501    0  0.00000000000E+00  0.00000000000E+00  0.56920814751E+03  0.56920814752E+03  0.25500000000E-02 0.  1.
         -2   -1    0    0    0  501 -0.00000000000E+00 -0.00000000000E+00 -0.22232049908E+02  0.22232050054E+02  0.25500000000E-02 0. -1.
    5000001    1    1    2    0    0 -0.25315323966E+02  0.72333383363E+02  0.35025045416E+03  0.36671155506E+03  0.77000000000E+02 0.  0.
   -5000001    1    1    2    0    0  0.25315323966E+02 -0.72333383363E+02  0.19672564345E+03  0.22472864251E+03  0.77000000000E+02 0.  0.
<mgrwt>
<rscale>  0 0.22498590E+03</rscale>
<asrwt>0</asrwt>
<pdfrwt beam="1">  1        2 0.81315446E-01 0.22498590E+03</pdfrwt>
<pdfrwt beam="2">  1       -2 0.31760073E-02 0.22498590E+03</pdfrwt>
<totfact> 0.22266637E+04</totfact>
</mgrwt>
</event>
<event>
 4    1  0.6919593E-004  0.3182187E+03  0.7818608E-02  0.1076472E+00
         -2   -1    0    0    0  501 -0.00000000000E+00  0.00000000000E+00  0.71962899093E+01  0.71962903611E+01  0.25500000000E-02 0. -1.
          2   -1    0    0  501    0  0.00000000000E+00 -0.00000000000E+00 -0.35178932152E+04  0.35178932152E+04  0.25500000000E-02 0.  1.
    5000001    1    1    2    0    0 -0.12927953883E+03  0.51106577225E+02 -0.18423612380E+04  0.18492022639E+04  0.77000000000E+02 0.  0.
   -5000001    1    1    2    0    0  0.12927953883E+03 -0.51106577225E+02 -0.16683356872E+04  0.16758872416E+04  0.77000000000E+02 0.  0.
<mgrwt>
<rscale>  0 0.31821867E+03</rscale>
<asrwt>0</asrwt>
<pdfrwt beam="1">  1        2 0.50255507E+00 0.31821867E+03</pdfrwt>
<pdfrwt beam="2">  1       -2 0.10280437E-02 0.31821867E+03</pdfrwt>
<totfact> 0.29224257E+03</totfact>
</mgrwt>
</event>
<event>
 4    1  0.6919593E-004  0.2291654E+03  0.7818608E-02  0.1127229E+00
          2   -1    0    0  501    0  0.00000000000E+00  0.00000000000E+00  0.75956952615E+02  0.75956952658E+02  0.25500000000E-02 0.  1.
         -2   -1    0    0    0  501 -0.00000000000E+00 -0.00000000000E+00 -0.17285045064E+03  0.17285045065E+03  0.25500000000E-02 0. -1.
    5000001    1    1    2    0    0 -0.68792189969E+02 -0.49654219393E+02 -0.46804993040E+02  0.12376434979E+03  0.77000000000E+02 0.  0.
   -5000001    1    1    2    0    0  0.68792189969E+02  0.49654219393E+02 -0.50088504979E+02  0.12504305353E+03  0.77000000000E+02 0.  0.
<mgrwt>
<rscale>  0 0.22916539E+03</rscale>
<asrwt>0</asrwt>
<pdfrwt beam="1">  1        2 0.10850993E-01 0.22916539E+03</pdfrwt>
<pdfrwt beam="2">  1       -2 0.24692921E-01 0.22916539E+03</pdfrwt>
<totfact> 0.82372253E+03</totfact>
</mgrwt>
</event>
<event>
 4    1  0.6919593E-004  0.3649162E+03  0.7818608E-02  0.1056654E+00
          2   -1    0    0  501    0  0.00000000000E+00  0.00000000000E+00  0.18331813807E+04  0.18331813807E+04  0.25500000000E-02 0.  1.
         -2   -1    0    0    0  501 -0.00000000000E+00 -0.00000000000E+00 -0.18160212270E+02  0.18160212449E+02  0.25500000000E-02 0. -1.
    5000001    1    1    2    0    0 -0.61685071277E+02 -0.11249300733E+03  0.14372365005E+04  0.14450043194E+04  0.77000000000E+02 0.  0.
   -5000001    1    1    2    0    0  0.61685071277E+02  0.11249300733E+03  0.37778466793E+03  0.40633727375E+03  0.77000000000E+02 0.  0.
<mgrwt>
<rscale>  0 0.36491623E+03</rscale>
<asrwt>0</asrwt>
<pdfrwt beam="1">  1        2 0.26188286E+00 0.36491623E+03</pdfrwt>
<pdfrwt beam="2">  1       -2 0.25943180E-02 0.36491623E+03</pdfrwt>
<totfact> 0.56150133E+03</totfact>
</mgrwt>
</event>
<event>
 4    1  0.6919593E-004  0.4642451E+03  0.7818608E-02  0.1023557E+00
          2   -1    0    0  501    0  0.00000000000E+00  0.00000000000E+00  0.16435496447E+04  0.16435496447E+04  0.25500000000E-02 0.  1.
         -2   -1    0    0    0  501 -0.00000000000E+00 -0.00000000000E+00 -0.32783235833E+02  0.32783235932E+02  0.25500000000E-02 0. -1.
    5000001    1    1    2    0    0  0.15911118124E+03 -0.87964038438E+02  0.12461151539E+04  0.12616600243E+04  0.77000000000E+02 0.  0.
   -5000001    1    1    2    0    0 -0.15911118124E+03  0.87964038438E+02  0.36465125490E+03  0.41467285631E+03  0.77000000000E+02 0.  0.
<mgrwt>
<rscale>  0 0.46424509E+03</rscale>
<asrwt>0</asrwt>
<pdfrwt beam="1">  1        2 0.23479289E+00 0.46424509E+03</pdfrwt>
<pdfrwt beam="2">  1       -2 0.46833177E-02 0.46424509E+03</pdfrwt>
<totfact> 0.28535977E+03</totfact>
</mgrwt>
</event>
<event>
 4    1  0.6919593E-004  0.3166647E+03  0.7818608E-02  0.1077195E+00
         -2   -1    0    0    0  501 -0.00000000000E+00  0.00000000000E+00  0.15798269227E+02  0.15798269433E+02  0.25500000000E-02 0. -1.
          2   -1    0    0  501    0  0.00000000000E+00 -0.00000000000E+00 -0.15868277971E+04  0.15868277971E+04  0.25500000000E-02 0.  1.
    5000001    1    1    2    0    0 -0.88800100249E+02  0.10297060631E+03 -0.65631366984E+03  0.67465920048E+03  0.77000000000E+02 0.  0.
   -5000001    1    1    2    0    0  0.88800100249E+02 -0.10297060631E+03 -0.91471585803E+03  0.92796686606E+03  0.77000000000E+02 0.  0.
<mgrwt>
<rscale>  0 0.31666470E+03</rscale>
<asrwt>0</asrwt>
<pdfrwt beam="1">  1        2 0.22668958E+00 0.31666470E+03</pdfrwt>
<pdfrwt beam="2">  1       -2 0.22568966E-02 0.31666470E+03</pdfrwt>
<totfact> 0.91484360E+03</totfact>
</mgrwt>
</event>
<event>
 4    1  0.6919593E-004  0.3092651E+03  0.7818608E-02  0.1080699E+00
          2   -1    0    0  501    0  0.00000000000E+00  0.00000000000E+00  0.14978049606E+03  0.14978049608E+03  0.25500000000E-02 0.  1.
         -2   -1    0    0    0  501 -0.00000000000E+00 -0.00000000000E+00 -0.15964178367E+03  0.15964178369E+03  0.25500000000E-02 0. -1.
    5000001    1    1    2    0    0 -0.40631062858E+01  0.12345650834E+03  0.47289822054E+02  0.15304687371E+03  0.77000000000E+02 0.  0.
   -5000001    1    1    2    0    0  0.40631062858E+01 -0.12345650834E+03 -0.57151109661E+02  0.15637540606E+03  0.77000000000E+02 0.  0.
<mgrwt>
<rscale>  0 0.30926510E+03</rscale>
<asrwt>0</asrwt>
<pdfrwt beam="1">  1        2 0.21397214E-01 0.30926510E+03</pdfrwt>
<pdfrwt beam="2">  1       -2 0.22805969E-01 0.30926510E+03</pdfrwt>
<totfact> 0.42918417E+03</totfact>
</mgrwt>
</event>
<event>
 4    1  0.6919593E-004  0.3474954E+03  0.7818608E-02  0.1063648E+00
          2   -1    0    0  501    0  0.00000000000E+00  0.00000000000E+00  0.64767190899E+03  0.64767190899E+03  0.25500000000E-02 0.  1.
         -2   -1    0    0    0  501 -0.00000000000E+00 -0.00000000000E+00 -0.46610414109E+02  0.46610414178E+02  0.25500000000E-02 0. -1.
    5000001    1    1    2    0    0 -0.13231240400E+03  0.35244699243E+02  0.44884483377E+03  0.47554121364E+03  0.77000000000E+02 0.  0.
   -5000001    1    1    2    0    0  0.13231240400E+03 -0.35244699243E+02  0.15221666111E+03  0.21874110953E+03  0.77000000000E+02 0.  0.
<mgrwt>
<rscale>  0 0.34749536E+03</rscale>
<asrwt>0</asrwt>
<pdfrwt beam="1">  1        2 0.92524550E-01 0.34749536E+03</pdfrwt>
<pdfrwt beam="2">  1       -2 0.66586312E-02 0.34749536E+03</pdfrwt>
<totfact> 0.63674876E+03</totfact>
</mgrwt>
</event>
<event>
 4    1  0.6919593E-004  0.2435532E+03  0.7818608E-02  0.1117448E+00
         -2   -1    0    0    0  501 -0.00000000000E+00  0.00000000000E+00  0.56158265831E+02  0.56158265889E+02  0.25500000000E-02 0. -1.
          2   -1    0    0  501    0  0.00000000000E+00 -0.00000000000E+00 -0.26406702844E+03  0.26406702845E+03  0.25500000000E-02 0.  1.
    5000001    1    1    2    0    0 -0.81517528407E+02 -0.46953137477E+02 -0.11332940368E+03  0.16619945336E+03  0.77000000000E+02 0.  0.
   -5000001    1    1    2    0    0  0.81517528407E+02  0.46953137477E+02 -0.94579358927E+02  0.15402584099E+03  0.77000000000E+02 0.  0.
<mgrwt>
<rscale>  0 0.24355325E+03</rscale>
<asrwt>0</asrwt>
<pdfrwt beam="1">  1        2 0.37723861E-01 0.24355325E+03</pdfrwt>
<pdfrwt beam="2">  1       -2 0.80226096E-02 0.24355325E+03</pdfrwt>
<totfact> 0.12602452E+04</totfact>
</mgrwt>
</event>
<event>
 4    1  0.6919593E-004  0.1725328E+03  0.7818608E-02  0.1175232E+00
         -2   -1    0    0    0  501 -0.00000000000E+00  0.00000000000E+00  0.52377887996E+01  0.52377894203E+01  0.25500000000E-02 0. -1.
          2   -1    0    0  501    0  0.00000000000E+00 -0.00000000000E+00 -0.14208081317E+04  0.14208081317E+04  0.25500000000E-02 0.  1.
    5000001    1    1    2    0    0  0.30980618294E+02 -0.22340906816E+02 -0.64705949767E+03  0.65274337097E+03  0.77000000000E+02 0.  0.
   -5000001    1    1    2    0    0 -0.30980618294E+02  0.22340906816E+02 -0.76851084519E+03  0.77330255011E+03  0.77000000000E+02 0.  0.
<mgrwt>
<rscale>  0 0.17253282E+03</rscale>
<asrwt>0</asrwt>
<pdfrwt beam="1">  1        2 0.20297234E+00 0.17253282E+03</pdfrwt>
<pdfrwt beam="2">  1       -2 0.74825649E-03 0.17253282E+03</pdfrwt>
<totfact> 0.53663889E+04</totfact>
</mgrwt>
</event>
<event>
 4    1  0.6919593E-004  0.4488990E+03  0.7818608E-02  0.1028051E+00
         -2   -1    0    0    0  501 -0.00000000000E+00  0.00000000000E+00  0.21594769326E+02  0.21594769477E+02  0.25500000000E-02 0. -1.
          2   -1    0    0  501    0  0.00000000000E+00 -0.00000000000E+00 -0.23328596830E+04  0.23328596830E+04  0.25500000000E-02 0.  1.
    5000001    1    1    2    0    0  0.99903942772E+02  0.18456175881E+03 -0.10501154600E+04  0.10736458075E+04  0.77000000000E+02 0.  0.
   -5000001    1    1    2    0    0 -0.99903942772E+02 -0.18456175881E+03 -0.12611494537E+04  0.12808086450E+04  0.77000000000E+02 0.  0.
<mgrwt>
<rscale>  0 0.44889895E+03</rscale>
<asrwt>0</asrwt>
<pdfrwt beam="1">  1        2 0.33326551E+00 0.44889895E+03</pdfrwt>
<pdfrwt beam="2">  1       -2 0.30849686E-02 0.44889895E+03</pdfrwt>
<totfact> 0.24405066E+03</totfact>
</mgrwt>
</event>
<event>
 4    1  0.6919593E-004  0.3009570E+03  0.7818608E-02  0.1084763E+00
          2   -1    0    0  501    0  0.00000000000E+00  0.00000000000E+00  0.10511622813E+02  0.10511623123E+02  0.25500000000E-02 0.  1.
         -2   -1    0    0    0  501 -0.00000000000E+00 -0.00000000000E+00 -0.21541660302E+04  0.21541660302E+04  0.25500000000E-02 0. -1.
    5000001    1    1    2    0    0  0.16982897564E+02 -0.73266971057E+02 -0.18281953111E+04  0.18313611231E+04  0.77000000000E+02 0.  0.
   -5000001    1    1    2    0    0 -0.16982897564E+02  0.73266971057E+02 -0.31545909630E+03  0.33331653019E+03  0.77000000000E+02 0.  0.
<mgrwt>
<rscale>  0 0.30095701E+03</rscale>
<asrwt>0</asrwt>
<pdfrwt beam="1">  1        2 0.15016618E-02 0.30095701E+03</pdfrwt>
<pdfrwt beam="2">  1       -2 0.30773772E+00 0.30095701E+03</pdfrwt>
<totfact> 0.26899653E+02</totfact>
</mgrwt>
</event>
<event>
 4    1  0.6919593E-004  0.1641948E+03  0.7818608E-02  0.1184041E+00
         -2   -1    0    0    0  501 -0.00000000000E+00  0.00000000000E+00  0.31856402830E+01  0.31856413035E+01  0.25500000000E-02 0. -1.
          2   -1    0    0  501    0  0.00000000000E+00 -0.00000000000E+00 -0.21157383850E+04  0.21157383850E+04  0.25500000000E-02 0.  1.
    5000001    1    1    2    0    0 -0.13273409033E+02  0.22963069933E+02 -0.11900754910E+04  0.11928588182E+04  0.77000000000E+02 0.  0.
   -5000001    1    1    2    0    0  0.13273409033E+02 -0.22963069933E+02 -0.92247725374E+03  0.92606520809E+03  0.77000000000E+02 0.  0.
<mgrwt>
<rscale>  0 0.16419479E+03</rscale>
<asrwt>0</asrwt>
<pdfrwt beam="1">  1        2 0.30224744E+00 0.16419479E+03</pdfrwt>
<pdfrwt beam="2">  1       -2 0.45509290E-03 0.16419479E+03</pdfrwt>
<totfact> 0.50019738E+04</totfact>
</mgrwt>
</event>
<event>
 4    1  0.6919593E-004  0.3532143E+03  0.7818608E-02  0.1061303E+00
          2   -1    0    0  501    0  0.00000000000E+00  0.00000000000E+00  0.10373289671E+03  0.10373289674E+03  0.25500000000E-02 0.  1.
         -2   -1    0    0    0  501 -0.00000000000E+00 -0.00000000000E+00 -0.30067694925E+03  0.30067694926E+03  0.25500000000E-02 0. -1.
    5000001    1    1    2    0    0  0.71494846069E+02 -0.94854765158E+02 -0.21938216896E+03  0.26108710337E+03  0.77000000000E+02 0.  0.
   -5000001    1    1    2    0    0 -0.71494846069E+02  0.94854765158E+02  0.22438116424E+02  0.14332274263E+03  0.77000000000E+02 0.  0.
<mgrwt>
<rscale>  0 0.35321433E+03</rscale>
<asrwt>0</asrwt>
<pdfrwt beam="1">  1        2 0.14818985E-01 0.35321433E+03</pdfrwt>
<pdfrwt beam="2">  1       -2 0.42953850E-01 0.35321433E+03</pdfrwt>
<totfact> 0.20633367E+03</totfact>
</mgrwt>
</event>
<event>
 4    1  0.6919593E-004  0.4457614E+03  0.7818608E-02  0.1028994E+00
         -2   -1    0    0    0  501 -0.00000000000E+00  0.00000000000E+00  0.31997203145E+02  0.31997203247E+02  0.25500000000E-02 0. -1.
          2   -1    0    0  501    0  0.00000000000E+00 -0.00000000000E+00 -0.15525045332E+04  0.15525045332E+04  0.25500000000E-02 0.  1.
    5000001    1    1    2    0    0  0.64743860823E+02  0.13448549282E+03 -0.12810801073E+04  0.12920423200E+04  0.77000000000E+02 0.  0.
   -5000001    1    1    2    0    0 -0.64743860823E+02 -0.13448549282E+03 -0.23942722280E+03  0.29245941652E+03  0.77000000000E+02 0.  0.
<mgrwt>
<rscale>  0 0.44576138E+03</rscale>
<asrwt>0</asrwt>
<pdfrwt beam="1">  1        2 0.22178631E+00 0.44576138E+03</pdfrwt>
<pdfrwt beam="2">  1       -2 0.45710300E-02 0.44576138E+03</pdfrwt>
<totfact> 0.32961602E+03</totfact>
</mgrwt>
</event>
<event>
 4    1  0.6919593E-004  0.2840696E+03  0.7818608E-02  0.1093487E+00
         -2   -1    0    0    0  501 -0.00000000000E+00  0.00000000000E+00  0.10537015956E+02  0.10537016264E+02  0.25500000000E-02 0. -1.
          2   -1    0    0  501    0  0.00000000000E+00 -0.00000000000E+00 -0.19145726041E+04  0.19145726041E+04  0.25500000000E-02 0.  1.
    5000001    1    1    2    0    0  0.65159153535E+01 -0.85501350364E+02 -0.38941536076E+03  0.40611114398E+03  0.77000000000E+02 0.  0.
   -5000001    1    1    2    0    0 -0.65159153535E+01  0.85501350364E+02 -0.15146202274E+04  0.15189984764E+04  0.77000000000E+02 0.  0.
<mgrwt>
<rscale>  0 0.28406959E+03</rscale>
<asrwt>0</asrwt>
<pdfrwt beam="1">  1        2 0.27351015E+00 0.28406959E+03</pdfrwt>
<pdfrwt beam="2">  1       -2 0.15052892E-02 0.28406959E+03</pdfrwt>
<totfact> 0.11421313E+04</totfact>
</mgrwt>
</event>
<event>
 4    1  0.6919593E-004  0.1661094E+03  0.7818608E-02  0.1181967E+00
          2   -1    0    0  501    0  0.00000000000E+00  0.00000000000E+00  0.10972756862E+04  0.10972756862E+04  0.25500000000E-02 0.  1.
         -2   -1    0    0    0  501 -0.00000000000E+00 -0.00000000000E+00 -0.62865519692E+01  0.62865524864E+01  0.25500000000E-02 0. -1.
    5000001    1    1    2    0    0  0.27589656881E+01 -0.20973925098E+02  0.39376986835E+03  0.40178505030E+03  0.77000000000E+02 0.  0.
   -5000001    1    1    2    0    0 -0.27589656881E+01  0.20973925098E+02  0.69721926587E+03  0.70177718837E+03  0.77000000000E+02 0.  0.
<mgrwt>
<rscale>  0 0.16610937E+03</rscale>
<asrwt>0</asrwt>
<pdfrwt beam="1">  1        2 0.15675385E+00 0.16610937E+03</pdfrwt>
<pdfrwt beam="2">  1       -2 0.89807785E-03 0.16610937E+03</pdfrwt>
<totfact> 0.60907179E+04</totfact>
</mgrwt>
</event>
<event>
 4    1  0.6919593E-004  0.2348421E+03  0.7818608E-02  0.1123277E+00
         -2   -1    0    0    0  501 -0.00000000000E+00  0.00000000000E+00  0.26413893529E+02  0.26413893653E+02  0.25500000000E-02 0. -1.
          2   -1    0    0  501    0  0.00000000000E+00 -0.00000000000E+00 -0.52198662013E+03  0.52198662013E+03  0.25500000000E-02 0.  1.
    5000001    1    1    2    0    0  0.46783845006E+02 -0.37596255971E+02 -0.95434457139E+02  0.13652451145E+03  0.77000000000E+02 0.  0.
   -5000001    1    1    2    0    0 -0.46783845006E+02  0.37596255971E+02 -0.40013826946E+03  0.41187600234E+03  0.77000000000E+02 0.  0.
<mgrwt>
<rscale>  0 0.23484207E+03</rscale>
<asrwt>0</asrwt>
<pdfrwt beam="1">  1        2 0.74569511E-01 0.23484207E+03</pdfrwt>
<pdfrwt beam="2">  1       -2 0.37734137E-02 0.23484207E+03</pdfrwt>
<totfact> 0.19019696E+04</totfact>
</mgrwt>
</event>
<event>
 4    1  0.6919593E-004  0.1997103E+03  0.7818608E-02  0.1149984E+00
         -2   -1    0    0    0  501 -0.00000000000E+00  0.00000000000E+00  0.11217703894E+04  0.11217703894E+04  0.25500000000E-02 0. -1.
          2   -1    0    0  501    0  0.00000000000E+00 -0.00000000000E+00 -0.88886726551E+01  0.88886730209E+01  0.25500000000E-02 0.  1.
    5000001    1    1    2    0    0 -0.54445995862E+02 -0.32797385690E+02  0.56447743298E+03  0.57323974680E+03  0.77000000000E+02 0.  0.
   -5000001    1    1    2    0    0  0.54445995862E+02  0.32797385690E+02  0.54840428378E+03  0.55741931564E+03  0.77000000000E+02 0.  0.
<mgrwt>
<rscale>  0 0.19971029E+03</rscale>
<asrwt>0</asrwt>
<pdfrwt beam="1">  1        2 0.12698123E-02 0.19971029E+03</pdfrwt>
<pdfrwt beam="2">  1       -2 0.16025267E+00 0.19971029E+03</pdfrwt>
<totfact> 0.27008964E+03</totfact>
</mgrwt>
</event>
<event>
 4    1  0.6919593E-004  0.4455514E+03  0.7818608E-02  0.1029057E+00
         -2   -1    0    0    0  501 -0.00000000000E+00  0.00000000000E+00  0.90663339942E+02  0.90663339978E+02  0.25500000000E-02 0. -1.
          2   -1    0    0  501    0  0.00000000000E+00 -0.00000000000E+00 -0.54739883598E+03  0.54739883598E+03  0.25500000000E-02 0.  1.
    5000001    1    1    2    0    0  0.16283065147E+03  0.12815352120E+03 -0.18881398227E+03  0.29071784595E+03  0.77000000000E+02 0.  0.
   -5000001    1    1    2    0    0 -0.16283065147E+03 -0.12815352120E+03 -0.26792151377E+03  0.34734433001E+03  0.77000000000E+02 0.  0.
<mgrwt>
<rscale>  0 0.44555137E+03</rscale>
<asrwt>0</asrwt>
<pdfrwt beam="1">  1        2 0.78199832E-01 0.44555137E+03</pdfrwt>
<pdfrwt beam="2">  1       -2 0.12951906E-01 0.44555137E+03</pdfrwt>
<totfact> 0.26862503E+03</totfact>
</mgrwt>
</event>
<event>
 4    1  0.6919593E-004  0.1905463E+03  0.7818608E-02  0.1157970E+00
         -2   -1    0    0    0  501 -0.00000000000E+00  0.00000000000E+00  0.41028207572E+01  0.41028215497E+01  0.25500000000E-02 0. -1.
          2   -1    0    0  501    0  0.00000000000E+00 -0.00000000000E+00 -0.22123740102E+04  0.22123740102E+04  0.25500000000E-02 0.  1.
    5000001    1    1    2    0    0 -0.17701722880E+02 -0.47115666956E+02 -0.81572739619E+03  0.82089793639E+03  0.77000000000E+02 0.  0.
   -5000001    1    1    2    0    0  0.17701722880E+02  0.47115666956E+02 -0.13925437932E+04  0.13955788954E+04  0.77000000000E+02 0.  0.
<mgrwt>
<rscale>  0 0.19054632E+03</rscale>
<asrwt>0</asrwt>
<pdfrwt beam="1">  1        2 0.31605267E+00 0.19054632E+03</pdfrwt>
<pdfrwt beam="2">  1       -2 0.58611872E-03 0.19054632E+03</pdfrwt>
<totfact> 0.31608375E+04</totfact>
</mgrwt>
</event>
<event>
 4    1  0.6919593E-004  0.1940041E+03  0.7818608E-02  0.1154899E+00
         -2   -1    0    0    0  501 -0.00000000000E+00  0.00000000000E+00  0.39322338130E+03  0.39322338131E+03  0.25500000000E-02 0. -1.
          2   -1    0    0  501    0  0.00000000000E+00 -0.00000000000E+00 -0.23928897621E+02  0.23928897757E+02  0.25500000000E-02 0.  1.
    5000001    1    1    2    0    0  0.17196800348E+02  0.37318019492E+02  0.27567150325E+03  0.28915764252E+03  0.77000000000E+02 0.  0.
   -5000001    1    1    2    0    0 -0.17196800348E+02 -0.37318019492E+02  0.93622980426E+02  0.12799463655E+03  0.77000000000E+02 0.  0.
<mgrwt>
<rscale>  0 0.19400414E+03</rscale>
<asrwt>0</asrwt>
<pdfrwt beam="1">  1        2 0.34184140E-02 0.19400414E+03</pdfrwt>
<pdfrwt beam="2">  1       -2 0.56174769E-01 0.19400414E+03</pdfrwt>
<totfact> 0.77133032E+03</totfact>
</mgrwt>
</event>
<event>
 4    1  0.6919593E-004  0.2486478E+03  0.7818608E-02  0.1114162E+00
         -2   -1    0    0    0  501 -0.00000000000E+00  0.00000000000E+00  0.31055482268E+02  0.31055482373E+02  0.25500000000E-02 0. -1.
          2   -1    0    0  501    0  0.00000000000E+00 -0.00000000000E+00 -0.49770401166E+03  0.49770401166E+03  0.25500000000E-02 0.  1.
    5000001    1    1    2    0    0  0.46907234178E+02  0.76748258859E+02 -0.31393257840E+03  0.33551936998E+03  0.77000000000E+02 0.  0.
   -5000001    1    1    2    0    0 -0.46907234178E+02 -0.76748258859E+02 -0.15271595099E+03  0.19324012405E+03  0.77000000000E+02 0.  0.
<mgrwt>
<rscale>  0 0.24864785E+03</rscale>
<asrwt>0</asrwt>
<pdfrwt beam="1">  1        2 0.71100568E-01 0.24864785E+03</pdfrwt>
<pdfrwt beam="2">  1       -2 0.44364978E-02 0.24864785E+03</pdfrwt>
<totfact> 0.15770410E+04</totfact>
</mgrwt>
</event>
<event>
 4    1  0.6919593E-004  0.1766345E+03  0.7818608E-02  0.1171100E+00
         -2   -1    0    0    0  501 -0.00000000000E+00  0.00000000000E+00  0.76955967938E+02  0.76955967980E+02  0.25500000000E-02 0. -1.
          2   -1    0    0  501    0  0.00000000000E+00 -0.00000000000E+00 -0.10135588804E+03  0.10135588807E+03  0.25500000000E-02 0.  1.
    5000001    1    1    2    0    0 -0.17227203731E+02  0.64568171980E+01  0.27318595193E+02  0.83748269714E+02  0.77000000000E+02 0.  0.
   -5000001    1    1    2    0    0  0.17227203731E+02 -0.64568171980E+01 -0.51718515291E+02  0.94563586336E+02  0.77000000000E+02 0.  0.
<mgrwt>
<rscale>  0 0.17663454E+03</rscale>
<asrwt>0</asrwt>
<pdfrwt beam="1">  1        2 0.14479412E-01 0.17663454E+03</pdfrwt>
<pdfrwt beam="2">  1       -2 0.10993710E-01 0.17663454E+03</pdfrwt>
<totfact> 0.21987817E+04</totfact>
</mgrwt>
</event>
<event>
 4    1  0.6919593E-004  0.2851611E+03  0.7818608E-02  0.1092903E+00
          2   -1    0    0  501    0  0.00000000000E+00  0.00000000000E+00  0.67617032797E+02  0.67617032845E+02  0.25500000000E-02 0.  1.
         -2   -1    0    0    0  501 -0.00000000000E+00 -0.00000000000E+00 -0.30065223380E+03  0.30065223381E+03  0.25500000000E-02 0. -1.
    5000001    1    1    2    0    0 -0.93461564314E+02 -0.40434270927E+02 -0.34531645094E+02  0.13225516543E+03  0.77000000000E+02 0.  0.
   -5000001    1    1    2    0    0  0.93461564314E+02  0.40434270927E+02 -0.19850355591E+03  0.23601410122E+03  0.77000000000E+02 0.  0.
<mgrwt>
<rscale>  0 0.28516109E+03</rscale>
<asrwt>0</asrwt>
<pdfrwt beam="1">  1        2 0.96595763E-02 0.28516109E+03</pdfrwt>
<pdfrwt beam="2">  1       -2 0.42950318E-01 0.28516109E+03</pdfrwt>
<totfact> 0.34641862E+03</totfact>
</mgrwt>
</event>
<event>
 4    1  0.6919593E-004  0.2390144E+03  0.7818608E-02  0.1120451E+00
         -2   -1    0    0    0  501 -0.00000000000E+00  0.00000000000E+00  0.96689329765E+02  0.96689329799E+02  0.25500000000E-02 0. -1.
          2   -1    0    0  501    0  0.00000000000E+00 -0.00000000000E+00 -0.14770995324E+03  0.14770995327E+03  0.25500000000E-02 0.  1.
    5000001    1    1    2    0    0 -0.86718476566E+02  0.28249514582E+02 -0.31546451764E+02  0.12345974190E+03  0.77000000000E+02 0.  0.
   -5000001    1    1    2    0    0  0.86718476566E+02 -0.28249514582E+02 -0.19474171715E+02  0.12093954116E+03  0.77000000000E+02 0.  0.
<mgrwt>
<rscale>  0 0.23901445E+03</rscale>
<asrwt>0</asrwt>
<pdfrwt beam="1">  1        2 0.21101422E-01 0.23901445E+03</pdfrwt>
<pdfrwt beam="2">  1       -2 0.13812761E-01 0.23901445E+03</pdfrwt>
<totfact> 0.10051047E+04</totfact>
</mgrwt>
</event>
<event>
 4    1  0.6919593E-004  0.2342225E+03  0.7818608E-02  0.1123703E+00
         -2   -1    0    0    0  501 -0.00000000000E+00  0.00000000000E+00  0.45320239061E+02  0.45320239133E+02  0.25500000000E-02 0. -1.
          2   -1    0    0  501    0  0.00000000000E+00 -0.00000000000E+00 -0.30262516209E+03  0.30262516210E+03  0.25500000000E-02 0.  1.
    5000001    1    1    2    0    0 -0.65404305264E+02  0.60905794103E+01 -0.21617581744E+03  0.23869604594E+03  0.77000000000E+02 0.  0.
   -5000001    1    1    2    0    0  0.65404305264E+02 -0.60905794103E+01 -0.41129105593E+02  0.10924935529E+03  0.77000000000E+02 0.  0.
<mgrwt>
<rscale>  0 0.23422250E+03</rscale>
<asrwt>0</asrwt>
<pdfrwt beam="1">  1        2 0.43232165E-01 0.23422250E+03</pdfrwt>
<pdfrwt beam="2">  1       -2 0.64743200E-02 0.23422250E+03</pdfrwt>
<totfact> 0.15136662E+04</totfact>
</mgrwt>
</event>
<event>
 4    1  0.6919593E-004  0.2515968E+03  0.7818608E-02  0.1112300E+00
          2   -1    0    0  501    0  0.00000000000E+00  0.00000000000E+00  0.21571713026E+03  0.21571713027E+03  0.25500000000E-02 0.  1.
         -2   -1    0    0    0  501 -0.00000000000E+00 -0.00000000000E+00 -0.73361060161E+02  0.73361060205E+02  0.25500000000E-02 0. -1.
    5000001    1    1    2    0    0 -0.56764515513E+02  0.74191643985E+02  0.11047273077E+03  0.16388970225E+03  0.77000000000E+02 0.  0.
   -5000001    1    1    2    0    0  0.56764515513E+02 -0.74191643985E+02  0.31883339322E+02  0.12518848823E+03  0.77000000000E+02 0.  0.
<mgrwt>
<rscale>  0 0.25159680E+03</rscale>
<asrwt>0</asrwt>
<pdfrwt beam="1">  1        2 0.30816733E-01 0.25159680E+03</pdfrwt>
<pdfrwt beam="2">  1       -2 0.10480151E-01 0.25159680E+03</pdfrwt>
<totfact> 0.10319513E+04</totfact>
</mgrwt>
</event>
<event>
 4    1  0.6919593E-004  0.5811821E+03  0.7818608E-02  0.9945235E-01
         -2   -1    0    0    0  501 -0.00000000000E+00  0.00000000000E+00  0.73388502730E+02  0.73388502775E+02  0.25500000000E-02 0. -1.
          2   -1    0    0  501    0  0.00000000000E+00 -0.00000000000E+00 -0.11506318911E+04  0.11506318911E+04  0.25500000000E-02 0.  1.
    5000001    1    1    2    0    0  0.27949114763E+03  0.59433775088E+01 -0.57877713516E+03  0.64735044413E+03  0.77000000000E+02 0.  0.
   -5000001    1    1    2    0    0 -0.27949114763E+03 -0.59433775088E+01 -0.49846625318E+03  0.57666994971E+03  0.77000000000E+02 0.  0.
<mgrwt>
<rscale>  0 0.58118208E+03</rscale>
<asrwt>0</asrwt>
<pdfrwt beam="1">  1        2 0.16437597E+00 0.58118208E+03</pdfrwt>
<pdfrwt beam="2">  1       -2 0.10484073E-01 0.58118208E+03</pdfrwt>
<totfact> 0.14601428E+03</totfact>
</mgrwt>
</event>
<event>
 4    1  0.6919593E-004  0.1892643E+03  0.7818608E-02  0.1159127E+00
          2   -1    0    0  501    0  0.00000000000E+00  0.00000000000E+00  0.13497320957E+04  0.13497320957E+04  0.25500000000E-02 0.  1.
         -2   -1    0    0    0  501 -0.00000000000E+00 -0.00000000000E+00 -0.66348329032E+01  0.66348333933E+01  0.25500000000E-02 0. -1.
    5000001    1    1    2    0    0 -0.16362721043E+02 -0.50318144546E+02  0.56367095193E+03  0.57136117855E+03  0.77000000000E+02 0.  0.
   -5000001    1    1    2    0    0  0.16362721043E+02  0.50318144546E+02  0.77942631091E+03  0.78500575058E+03  0.77000000000E+02 0.  0.
<mgrwt>
<rscale>  0 0.18926434E+03</rscale>
<asrwt>0</asrwt>
<pdfrwt beam="1">  1        2 0.19281890E+00 0.18926434E+03</pdfrwt>
<pdfrwt beam="2">  1       -2 0.94783318E-03 0.18926434E+03</pdfrwt>
<totfact> 0.41831435E+04</totfact>
</mgrwt>
</event>
<event>
 4    1  0.6919593E-004  0.2481623E+03  0.7818608E-02  0.1114472E+00
         -2   -1    0    0    0  501 -0.00000000000E+00  0.00000000000E+00  0.21500839121E+03  0.21500839123E+03  0.25500000000E-02 0. -1.
          2   -1    0    0  501    0  0.00000000000E+00 -0.00000000000E+00 -0.71607145737E+02  0.71607145782E+02  0.25500000000E-02 0.  1.
    5000001    1    1    2    0    0 -0.54854486000E+02  0.35275887102E+02  0.15509529330E+03  0.18503230217E+03  0.77000000000E+02 0.  0.
   -5000001    1    1    2    0    0  0.54854486000E+02 -0.35275887102E+02 -0.11694047821E+02  0.10158323484E+03  0.77000000000E+02 0.  0.
<mgrwt>
<rscale>  0 0.24816234E+03</rscale>
<asrwt>0</asrwt>
<pdfrwt beam="1">  1        2 0.10229592E-01 0.24816234E+03</pdfrwt>
<pdfrwt beam="2">  1       -2 0.30715485E-01 0.24816234E+03</pdfrwt>
<totfact> 0.60202406E+03</totfact>
</mgrwt>
</event>
<event>
 4    1  0.6919593E-004  0.2316001E+03  0.7818608E-02  0.1125519E+00
         -2   -1    0    0    0  501 -0.00000000000E+00  0.00000000000E+00  0.92732540516E+01  0.92732544022E+01  0.25500000000E-02 0. -1.
          2   -1    0    0  501    0  0.00000000000E+00 -0.00000000000E+00 -0.14460564310E+04  0.14460564310E+04  0.25500000000E-02 0.  1.
    5000001    1    1    2    0    0  0.79814027091E+02  0.27987696833E+02 -0.83203273887E+03  0.83985776692E+03  0.77000000000E+02 0.  0.
   -5000001    1    1    2    0    0 -0.79814027091E+02 -0.27987696833E+02 -0.60475043810E+03  0.61547191851E+03  0.77000000000E+02 0.  0.
<mgrwt>
<rscale>  0 0.23160008E+03</rscale>
<asrwt>0</asrwt>
<pdfrwt beam="1">  1        2 0.20657935E+00 0.23160008E+03</pdfrwt>
<pdfrwt beam="2">  1       -2 0.13247515E-02 0.23160008E+03</pdfrwt>
<totfact> 0.23300874E+04</totfact>
</mgrwt>
</event>
<event>
 4    1  0.6919593E-004  0.2457721E+03  0.7818608E-02  0.1116006E+00
          2   -1    0    0  501    0  0.00000000000E+00  0.00000000000E+00  0.16936597428E+04  0.16936597428E+04  0.25500000000E-02 0.  1.
         -2   -1    0    0    0  501 -0.00000000000E+00 -0.00000000000E+00 -0.89161830806E+01  0.89161834452E+01  0.25500000000E-02 0. -1.
    5000001    1    1    2    0    0 -0.18360857068E+02 -0.93963707229E+02  0.82585984263E+03  0.83494896791E+03  0.77000000000E+02 0.  0.
   -5000001    1    1    2    0    0  0.18360857068E+02  0.93963707229E+02  0.85888371710E+03  0.86762695834E+03  0.77000000000E+02 0.  0.
<mgrwt>
<rscale>  0 0.24577209E+03</rscale>
<asrwt>0</asrwt>
<pdfrwt beam="1">  1        2 0.24195165E+00 0.24577209E+03</pdfrwt>
<pdfrwt beam="2">  1       -2 0.12737391E-02 0.24577209E+03</pdfrwt>
<totfact> 0.18618840E+04</totfact>
</mgrwt>
</event>
<event>
 4    1  0.6919593E-004  0.2048749E+03  0.7818608E-02  0.1145690E+00
         -2   -1    0    0    0  501 -0.00000000000E+00  0.00000000000E+00  0.75872467699E+01  0.75872471984E+01  0.25500000000E-02 0. -1.
          2   -1    0    0  501    0  0.00000000000E+00 -0.00000000000E+00 -0.13830352951E+04  0.13830352951E+04  0.25500000000E-02 0.  1.
    5000001    1    1    2    0    0 -0.51374318473E+01 -0.61564304586E+02 -0.50209981368E+03  0.51171259482E+03  0.77000000000E+02 0.  0.
   -5000001    1    1    2    0    0  0.51374318473E+01  0.61564304586E+02 -0.87334823468E+03  0.87890994751E+03  0.77000000000E+02 0.  0.
<mgrwt>
<rscale>  0 0.20487489E+03</rscale>
<asrwt>0</asrwt>
<pdfrwt beam="1">  1        2 0.19757631E+00 0.20487489E+03</pdfrwt>
<pdfrwt beam="2">  1       -2 0.10838933E-02 0.20487489E+03</pdfrwt>
<totfact> 0.33324242E+04</totfact>
</mgrwt>
</event>
<event>
 4    1  0.6919593E-004  0.3617484E+03  0.7818608E-02  0.1057894E+00
         -2   -1    0    0    0  501 -0.00000000000E+00  0.00000000000E+00  0.34408402605E+02  0.34408402699E+02  0.25500000000E-02 0. -1.
          2   -1    0    0  501    0  0.00000000000E+00 -0.00000000000E+00 -0.95079906614E+03  0.95079906615E+03  0.25500000000E-02 0.  1.
    5000001    1    1    2    0    0  0.13473084876E+03 -0.48752034745E+02 -0.24276092433E+03  0.29221743426E+03  0.77000000000E+02 0.  0.
   -5000001    1    1    2    0    0 -0.13473084876E+03  0.48752034745E+02 -0.67362973920E+03  0.69299003459E+03  0.77000000000E+02 0.  0.
<mgrwt>
<rscale>  0 0.36174840E+03</rscale>
<asrwt>0</asrwt>
<pdfrwt beam="1">  1        2 0.13582842E+00 0.36174840E+03</pdfrwt>
<pdfrwt beam="2">  1       -2 0.49154867E-02 0.36174840E+03</pdfrwt>
<totfact> 0.63008241E+03</totfact>
</mgrwt>
</event>
<event>
 4    1  0.6919593E-004  0.2035493E+03  0.7818608E-02  0.1146779E+00
         -2   -1    0    0    0  501 -0.00000000000E+00  0.00000000000E+00  0.29693069666E+03  0.29693069667E+03  0.25500000000E-02 0. -1.
          2   -1    0    0  501    0  0.00000000000E+00 -0.00000000000E+00 -0.34883820842E+02  0.34883820935E+02  0.25500000000E-02 0.  1.
    5000001    1    1    2    0    0 -0.30394254793E+02 -0.24012201099E+02  0.21924237664E+03  0.23557719805E+03  0.77000000000E+02 0.  0.
   -5000001    1    1    2    0    0  0.30394254793E+02  0.24012201099E+02  0.42804499183E+02  0.96237319561E+02  0.77000000000E+02 0.  0.
<mgrwt>
<rscale>  0 0.20354928E+03</rscale>
<asrwt>0</asrwt>
<pdfrwt beam="1">  1        2 0.49834030E-02 0.20354928E+03</pdfrwt>
<pdfrwt beam="2">  1       -2 0.42418671E-01 0.20354928E+03</pdfrwt>
<totfact> 0.81675043E+03</totfact>
</mgrwt>
</event>
<event>
 4    1  0.6919593E-004  0.3225684E+03  0.7818608E-02  0.1074473E+00
          2   -1    0    0  501    0  0.00000000000E+00  0.00000000000E+00  0.73136444536E+03  0.73136444536E+03  0.25500000000E-02 0.  1.
         -2   -1    0    0    0  501 -0.00000000000E+00 -0.00000000000E+00 -0.35567212975E+02  0.35567213067E+02  0.25500000000E-02 0. -1.
    5000001    1    1    2    0    0 -0.64572890246E+02 -0.12508206541E+03  0.30894594561E+03  0.34812609576E+03  0.77000000000E+02 0.  0.
   -5000001    1    1    2    0    0  0.64572890246E+02  0.12508206541E+03  0.38685128677E+03  0.41880556267E+03  0.77000000000E+02 0.  0.
<mgrwt>
<rscale>  0 0.32256841E+03</rscale>
<asrwt>0</asrwt>
<pdfrwt beam="1">  1        2 0.10448063E+00 0.32256841E+03</pdfrwt>
<pdfrwt beam="2">  1       -2 0.50810307E-02 0.32256841E+03</pdfrwt>
<totfact> 0.83377569E+03</totfact>
</mgrwt>
</event>
<event>
 4    1  0.6919593E-004  0.2124455E+03  0.7818608E-02  0.1139644E+00
          2   -1    0    0  501    0  0.00000000000E+00  0.00000000000E+00  0.21033906890E+03  0.21033906891E+03  0.25500000000E-02 0.  1.
         -2   -1    0    0    0  501 -0.00000000000E+00 -0.00000000000E+00 -0.53643247148E+02  0.53643247209E+02  0.25500000000E-02 0. -1.
    5000001    1    1    2    0    0  0.58807922454E+02 -0.43539823643E+02  0.78879008959E+02  0.13230640967E+03  0.77000000000E+02 0.  0.
   -5000001    1    1    2    0    0 -0.58807922454E+02  0.43539823643E+02  0.77816812790E+02  0.13167590645E+03  0.77000000000E+02 0.  0.
<mgrwt>
<rscale>  0 0.21244548E+03</rscale>
<asrwt>0</asrwt>
<pdfrwt beam="1">  1        2 0.30048439E-01 0.21244548E+03</pdfrwt>
<pdfrwt beam="2">  1       -2 0.76633209E-02 0.21244548E+03</pdfrwt>
<totfact> 0.17175837E+04</totfact>
</mgrwt>
</event>
<event>
 4    1  0.6919593E-004  0.6824252E+03  0.7818608E-02  0.9747769E-01
         -2   -1    0    0    0  501 -0.00000000000E+00  0.00000000000E+00  0.36272233094E+03  0.36272233095E+03  0.25500000000E-02 0.  1.
          2   -1    0    0  501    0  0.00000000000E+00 -0.00000000000E+00 -0.32097839363E+03  0.32097839364E+03  0.25500000000E-02 0. -1.
    5000001    1    1    2    0    0 -0.31374385595E+03 -0.42891225824E+02 -0.80421741398E+02  0.33566578748E+03  0.77000000000E+02 0.  0.
   -5000001    1    1    2    0    0  0.31374385595E+03  0.42891225824E+02  0.12216567871E+03  0.34803493711E+03  0.77000000000E+02 0.  0.
<mgrwt>
<rscale>  0 0.68242518E+03</rscale>
<asrwt>0</asrwt>
<pdfrwt beam="1">  1        2 0.45854056E-01 0.68242518E+03</pdfrwt>
<pdfrwt beam="2">  1       -2 0.51817476E-01 0.68242518E+03</pdfrwt>
<totfact> 0.39227145E+02</totfact>
</mgrwt>
</event>
<event>
 4    1  0.6919593E-004  0.2454701E+03  0.7818608E-02  0.1116202E+00
         -2   -1    0    0    0  501 -0.00000000000E+00  0.00000000000E+00  0.13213651782E+02  0.13213652028E+02  0.25500000000E-02 0. -1.
          2   -1    0    0  501    0  0.00000000000E+00 -0.00000000000E+00 -0.11400251058E+04  0.11400251058E+04  0.25500000000E-02 0.  1.
    5000001    1    1    2    0    0  0.93089794973E+02 -0.21594712183E+02 -0.57134172028E+03  0.58437351314E+03  0.77000000000E+02 0.  0.
   -5000001    1    1    2    0    0 -0.93089794973E+02  0.21594712183E+02 -0.55546973374E+03  0.56886524469E+03  0.77000000000E+02 0.  0.
<mgrwt>
<rscale>  0 0.24547012E+03</rscale>
<asrwt>0</asrwt>
<pdfrwt beam="1">  1        2 0.16286067E+00 0.24547012E+03</pdfrwt>
<pdfrwt beam="2">  1       -2 0.18876653E-02 0.24547012E+03</pdfrwt>
<totfact> 0.20196692E+04</totfact>
</mgrwt>
</event>
<event>
 4    1  0.6919593E-004  0.4187798E+03  0.7818608E-02  0.1037464E+00
          2   -1    0    0  501    0  0.00000000000E+00  0.00000000000E+00  0.31345638358E+03  0.31345638359E+03  0.25500000000E-02 0.  1.
         -2   -1    0    0    0  501 -0.00000000000E+00 -0.00000000000E+00 -0.13987311760E+03  0.13987311763E+03  0.25500000000E-02 0. -1.
    5000001    1    1    2    0    0 -0.17794317645E+03 -0.61208516222E+02  0.14096932144E+03  0.24740979385E+03  0.77000000000E+02 0.  0.
   -5000001    1    1    2    0    0  0.17794317645E+03  0.61208516222E+02  0.32613944529E+02  0.20591970736E+03  0.77000000000E+02 0.  0.
<mgrwt>
<rscale>  0 0.41877976E+03</rscale>
<asrwt>0</asrwt>
<pdfrwt beam="1">  1        2 0.44779484E-01 0.41877976E+03</pdfrwt>
<pdfrwt beam="2">  1       -2 0.19981874E-01 0.41877976E+03</pdfrwt>
<totfact> 0.23972897E+03</totfact>
</mgrwt>
</event>
<event>
 4    1  0.6919593E-004  0.1665930E+03  0.7818608E-02  0.1181448E+00
         -2   -1    0    0    0  501 -0.00000000000E+00  0.00000000000E+00  0.13632892707E+02  0.13632892946E+02  0.25500000000E-02 0. -1.
          2   -1    0    0  501    0  0.00000000000E+00 -0.00000000000E+00 -0.50893856959E+03  0.50893856960E+03  0.25500000000E-02 0.  1.
    5000001    1    1    2    0    0  0.24961252017E+02  0.16475246166E+02 -0.21404245641E+03  0.22942901078E+03  0.77000000000E+02 0.  0.
   -5000001    1    1    2    0    0 -0.24961252017E+02 -0.16475246166E+02 -0.28126322047E+03  0.29314245177E+03  0.77000000000E+02 0.  0.
<mgrwt>
<rscale>  0 0.16659298E+03</rscale>
<asrwt>0</asrwt>
<pdfrwt beam="1">  1        2 0.72705498E-01 0.16659298E+03</pdfrwt>
<pdfrwt beam="2">  1       -2 0.19475564E-02 0.16659298E+03</pdfrwt>
<totfact> 0.50483389E+04</totfact>
</mgrwt>
</event>
<event>
 4    1  0.6919593E-004  0.1639575E+03  0.7818608E-02  0.1184300E+00
          2   -1    0    0  501    0  0.00000000000E+00  0.00000000000E+00  0.97680707122E+03  0.97680707122E+03  0.25500000000E-02 0.  1.
         -2   -1    0    0    0  501 -0.00000000000E+00 -0.00000000000E+00 -0.68800806112E+01  0.68800810838E+01  0.25500000000E-02 0. -1.
    5000001    1    1    2    0    0  0.88308155517E+01 -0.89895826522E+01  0.33404928008E+03  0.34304040203E+03  0.77000000000E+02 0.  0.
   -5000001    1    1    2    0    0 -0.88308155517E+01  0.89895826522E+01  0.63587771052E+03  0.64064675027E+03  0.77000000000E+02 0.  0.
<mgrwt>
<rscale>  0 0.16395745E+03</rscale>
<asrwt>0</asrwt>
<pdfrwt beam="1">  1        2 0.13954389E+00 0.16395745E+03</pdfrwt>
<pdfrwt beam="2">  1       -2 0.98286852E-03 0.16395745E+03</pdfrwt>
<totfact> 0.62599760E+04</totfact>
</mgrwt>
</event>
<event>
 4    1  0.6919593E-004  0.1623826E+03  0.7818608E-02  0.1186033E+00
          2   -1    0    0  501    0  0.00000000000E+00  0.00000000000E+00  0.58630034020E+02  0.58630034076E+02  0.25500000000E-02 0.  1.
         -2   -1    0    0    0  501 -0.00000000000E+00 -0.00000000000E+00 -0.11243430476E+03  0.11243430479E+03  0.25500000000E-02 0. -1.
    5000001    1    1    2    0    0 -0.76798410094E+01  0.23551128519E+02 -0.34305789755E+02  0.87860815061E+02  0.77000000000E+02 0.  0.
   -5000001    1    1    2    0    0  0.76798410094E+01 -0.23551128519E+02 -0.19498480983E+02  0.83203523802E+02  0.77000000000E+02 0.  0.
<mgrwt>
<rscale>  0 0.16238260E+03</rscale>
<asrwt>0</asrwt>
<pdfrwt beam="1">  1        2 0.83757192E-02 0.16238260E+03</pdfrwt>
<pdfrwt beam="2">  1       -2 0.16062043E-01 0.16238260E+03</pdfrwt>
<totfact> 0.23007530E+04</totfact>
</mgrwt>
</event>
<event>
 4    1  0.6919593E-004  0.3234600E+03  0.7818608E-02  0.1074068E+00
          2   -1    0    0  501    0  0.00000000000E+00  0.00000000000E+00  0.44463803395E+03  0.44463803396E+03  0.25500000000E-02 0.  1.
         -2   -1    0    0    0  501 -0.00000000000E+00 -0.00000000000E+00 -0.58826712484E+02  0.58826712539E+02  0.25500000000E-02 0. -1.
    5000001    1    1    2    0    0 -0.13323436770E+03 -0.98340034336E+01  0.26883163389E+03  0.30991539449E+03  0.77000000000E+02 0.  0.
   -5000001    1    1    2    0    0  0.13323436770E+03  0.98340034336E+01  0.11697968758E+03  0.19354935201E+03  0.77000000000E+02 0.  0.
<mgrwt>
<rscale>  0 0.32346001E+03</rscale>
<asrwt>0</asrwt>
<pdfrwt beam="1">  1        2 0.63519723E-01 0.32346001E+03</pdfrwt>
<pdfrwt beam="2">  1       -2 0.84038156E-02 0.32346001E+03</pdfrwt>
<totfact> 0.67532479E+03</totfact>
</mgrwt>
</event>
<event>
 4    1  0.6919593E-004  0.1810574E+03  0.7818608E-02  0.1166784E+00
          2   -1    0    0  501    0  0.00000000000E+00  0.00000000000E+00  0.13223077983E+04  0.13223077983E+04  0.25500000000E-02 0.  1.
         -2   -1    0    0    0  501 -0.00000000000E+00 -0.00000000000E+00 -0.61978371882E+01  0.61978377128E+01  0.25500000000E-02 0. -1.
    5000001    1    1    2    0    0  0.37488789401E+02 -0.18733144419E+02  0.49233364361E+03  0.50007775062E+03  0.77000000000E+02 0.  0.
   -5000001    1    1    2    0    0 -0.37488789401E+02  0.18733144419E+02  0.82377631747E+03  0.82842788537E+03  0.77000000000E+02 0.  0.
<mgrwt>
<rscale>  0 0.18105744E+03</rscale>
<asrwt>0</asrwt>
<pdfrwt beam="1">  1        2 0.18890107E+00 0.18105744E+03</pdfrwt>
<pdfrwt beam="2">  1       -2 0.88540554E-03 0.18105744E+03</pdfrwt>
<totfact> 0.47502336E+04</totfact>
</mgrwt>
</event>
<event>
 4    1  0.6919593E-004  0.4438287E+03  0.7818608E-02  0.1029579E+00
         -2   -1    0    0    0  501 -0.00000000000E+00  0.00000000000E+00  0.68748467658E+02  0.68748467706E+02  0.25500000000E-02 0.  1.
          2   -1    0    0  501    0  0.00000000000E+00 -0.00000000000E+00 -0.71632114431E+03  0.71632114431E+03  0.25500000000E-02 0. -1.
    5000001    1    1    2    0    0 -0.18047340993E+03 -0.84618495474E+02 -0.21786088924E+03  0.30516111896E+03  0.77000000000E+02 0.  0.
   -5000001    1    1    2    0    0  0.18047340993E+03  0.84618495474E+02 -0.42971178741E+03  0.47990849306E+03  0.77000000000E+02 0.  0.
<mgrwt>
<rscale>  0 0.44382871E+03</rscale>
<asrwt>0</asrwt>
<pdfrwt beam="1">  1        2 0.10233159E+00 0.44382871E+03</pdfrwt>
<pdfrwt beam="2">  1       -2 0.98212101E-02 0.44382871E+03</pdfrwt>
<totfact> 0.30691726E+03</totfact>
</mgrwt>
</event>
<event>
 4    1  0.6919593E-004  0.3364601E+03  0.7818608E-02  0.1068314E+00
          2   -1    0    0  501    0  0.00000000000E+00  0.00000000000E+00  0.20998161064E+04  0.20998161064E+04  0.25500000000E-02 0.  1.
         -2   -1    0    0    0  501 -0.00000000000E+00 -0.00000000000E+00 -0.13478014137E+02  0.13478014379E+02  0.25500000000E-02 0. -1.
    5000001    1    1    2    0    0 -0.83246711591E+02  0.12419214070E+03  0.10702927953E+04  0.10834248338E+04  0.77000000000E+02 0.  0.
   -5000001    1    1    2    0    0  0.83246711591E+02 -0.12419214070E+03  0.10160452969E+04  0.10298692869E+04  0.77000000000E+02 0.  0.
<mgrwt>
<rscale>  0 0.33646011E+03</rscale>
<asrwt>0</asrwt>
<pdfrwt beam="1">  1        2 0.29997391E+00 0.33646011E+03</pdfrwt>
<pdfrwt beam="2">  1       -2 0.19254295E-02 0.33646011E+03</pdfrwt>
<totfact> 0.64625267E+03</totfact>
</mgrwt>
</event>
<event>
 4    1  0.6919593E-004  0.1976706E+03  0.7818608E-02  0.1151719E+00
          2   -1    0    0  501    0  0.00000000000E+00  0.00000000000E+00  0.96217324641E+03  0.96217324642E+03  0.25500000000E-02 0.  1.
         -2   -1    0    0    0  501 -0.00000000000E+00 -0.00000000000E+00 -0.10152453029E+02  0.10152453349E+02  0.25500000000E-02 0. -1.
    5000001    1    1    2    0    0 -0.53540081597E+02  0.48212016476E+01  0.32442831035E+03  0.33774622556E+03  0.77000000000E+02 0.  0.
   -5000001    1    1    2    0    0  0.53540081597E+02 -0.48212016476E+01  0.62759248304E+03  0.63457947421E+03  0.77000000000E+02 0.  0.
<mgrwt>
<rscale>  0 0.19767062E+03</rscale>
<asrwt>0</asrwt>
<pdfrwt beam="1">  1        2 0.13745327E+00 0.19767062E+03</pdfrwt>
<pdfrwt beam="2">  1       -2 0.14503510E-02 0.19767062E+03</pdfrwt>
<totfact> 0.37005250E+04</totfact>
</mgrwt>
</event>
<event>
 4    1  0.6919593E-004  0.1076748E+04  0.7818608E-02  0.9228156E-01
          2   -1    0    0  501    0  0.00000000000E+00  0.00000000000E+00  0.15368432077E+04  0.15368432077E+04  0.25500000000E-02 0.  1.
         -2   -1    0    0    0  501 -0.00000000000E+00 -0.00000000000E+00 -0.18859865863E+03  0.18859865865E+03  0.25500000000E-02 0. -1.
    5000001    1    1    2    0    0  0.23103744131E+03 -0.47663614847E+03  0.76697146237E+03  0.93527244235E+03  0.77000000000E+02 0.  0.
   -5000001    1    1    2    0    0 -0.23103744131E+03  0.47663614847E+03  0.58127308670E+03  0.79016942401E+03  0.77000000000E+02 0.  0.
<mgrwt>
<rscale>  0 0.10767480E+04</rscale>
<asrwt>0</asrwt>
<pdfrwt beam="1">  1        2 0.21954902E+00 0.10767480E+04</pdfrwt>
<pdfrwt beam="2">  1       -2 0.26942667E-01 0.10767480E+04</pdfrwt>
<totfact> 0.17352807E+02</totfact>
</mgrwt>
</event>
<event>
 4    1  0.6919593E-004  0.2115562E+03  0.7818608E-02  0.1140340E+00
          2   -1    0    0  501    0  0.00000000000E+00  0.00000000000E+00  0.13225024376E+04  0.13225024376E+04  0.25500000000E-02 0.  1.
         -2   -1    0    0    0  501 -0.00000000000E+00 -0.00000000000E+00 -0.84604778674E+01  0.84604782517E+01  0.25500000000E-02 0. -1.
    5000001    1    1    2    0    0  0.63882477799E+02 -0.32382118226E+02  0.58517052363E+03  0.59454445946E+03  0.77000000000E+02 0.  0.
   -5000001    1    1    2    0    0 -0.63882477799E+02  0.32382118226E+02  0.72887143613E+03  0.73641845642E+03  0.77000000000E+02 0.  0.
<mgrwt>
<rscale>  0 0.21155617E+03</rscale>
<asrwt>0</asrwt>
<pdfrwt beam="1">  1        2 0.18892895E+00 0.21155617E+03</pdfrwt>
<pdfrwt beam="2">  1       -2 0.12086395E-02 0.21155617E+03</pdfrwt>
<totfact> 0.30643745E+04</totfact>
</mgrwt>
</event>
<event>
 4    1  0.6919593E-004  0.2078424E+03  0.7818608E-02  0.1143286E+00
         -2   -1    0    0    0  501 -0.00000000000E+00  0.00000000000E+00  0.80935476211E+01  0.80935480228E+01  0.25500000000E-02 0. -1.
          2   -1    0    0  501    0  0.00000000000E+00 -0.00000000000E+00 -0.13343488366E+04  0.13343488366E+04  0.25500000000E-02 0.  1.
    5000001    1    1    2    0    0 -0.42466921488E+02 -0.13542583514E+02 -0.31627724662E+03  0.32855309726E+03  0.77000000000E+02 0.  0.
   -5000001    1    1    2    0    0  0.42466921488E+02  0.13542583514E+02 -0.10099780423E+04  0.10138892874E+04  0.77000000000E+02 0.  0.
<mgrwt>
<rscale>  0 0.20784240E+03</rscale>
<asrwt>0</asrwt>
<pdfrwt beam="1">  1        2 0.19062112E+00 0.20784240E+03</pdfrwt>
<pdfrwt beam="2">  1       -2 0.11562220E-02 0.20784240E+03</pdfrwt>
<totfact> 0.32181665E+04</totfact>
</mgrwt>
</event>
<event>
 4    1  0.6919593E-004  0.4193393E+03  0.7818608E-02  0.1037282E+00
         -2   -1    0    0    0  501 -0.00000000000E+00  0.00000000000E+00  0.66184325781E+03  0.66184325782E+03  0.25500000000E-02 0. -1.
          2   -1    0    0  501    0  0.00000000000E+00 -0.00000000000E+00 -0.66422628043E+02  0.66422628092E+02  0.25500000000E-02 0.  1.
    5000001    1    1    2    0    0  0.19030517631E+03  0.14774599347E+02  0.36713524087E+03  0.42089385123E+03  0.77000000000E+02 0.  0.
   -5000001    1    1    2    0    0 -0.19030517631E+03 -0.14774599347E+02  0.22828538890E+03  0.30737203468E+03  0.77000000000E+02 0.  0.
<mgrwt>
<rscale>  0 0.41933933E+03</rscale>
<asrwt>0</asrwt>
<pdfrwt beam="1">  1        2 0.94889467E-02 0.41933933E+03</pdfrwt>
<pdfrwt beam="2">  1       -2 0.94549038E-01 0.41933933E+03</pdfrwt>
<totfact> 0.67330956E+02</totfact>
</mgrwt>
</event>
<event>
 4    1  0.6919593E-004  0.1912258E+03  0.7818608E-02  0.1157360E+00
          2   -1    0    0  501    0  0.00000000000E+00  0.00000000000E+00  0.69275915865E+03  0.69275915866E+03  0.25500000000E-02 0. -1.
         -2   -1    0    0    0  501 -0.00000000000E+00 -0.00000000000E+00 -0.13196249962E+02  0.13196250208E+02  0.25500000000E-02 0.  1.
    5000001    1    1    2    0    0 -0.28385220318E+02 -0.37794485484E+02  0.45527322945E+03  0.46415176109E+03  0.77000000000E+02 0.  0.
   -5000001    1    1    2    0    0  0.28385220318E+02  0.37794485484E+02  0.22428967924E+03  0.24180364778E+03  0.77000000000E+02 0.  0.
<mgrwt>
<rscale>  0 0.19122576E+03</rscale>
<asrwt>0</asrwt>
<pdfrwt beam="1">  1        2 0.98965636E-01 0.19122576E+03</pdfrwt>
<pdfrwt beam="2">  1       -2 0.18851778E-02 0.19122576E+03</pdfrwt>
<totfact> 0.37852483E+04</totfact>
</mgrwt>
</event>
<event>
 4    1  0.6919593E-004  0.1872590E+03  0.7818608E-02  0.1160957E+00
          2   -1    0    0  501    0  0.00000000000E+00  0.00000000000E+00  0.13155135574E+03  0.13155135577E+03  0.25500000000E-02 0.  1.
         -2   -1    0    0    0  501 -0.00000000000E+00 -0.00000000000E+00 -0.66639240792E+02  0.66639240840E+02  0.25500000000E-02 0. -1.
    5000001    1    1    2    0    0  0.39915657457E+02  0.27076974549E+02  0.85297101537E+01  0.91258852810E+02  0.77000000000E+02 0.  0.
   -5000001    1    1    2    0    0 -0.39915657457E+02 -0.27076974549E+02  0.56382404798E+02  0.10693174380E+03  0.77000000000E+02 0.  0.
<mgrwt>
<rscale>  0 0.18725899E+03</rscale>
<asrwt>0</asrwt>
<pdfrwt beam="1">  1        2 0.18793051E-01 0.18725899E+03</pdfrwt>
<pdfrwt beam="2">  1       -2 0.95198916E-02 0.18725899E+03</pdfrwt>
<totfact> 0.20485438E+04</totfact>
</mgrwt>
</event>
<event>
 4    1  0.6919593E-004  0.2769229E+03  0.7818608E-02  0.1097382E+00
         -2   -1    0    0    0  501 -0.00000000000E+00  0.00000000000E+00  0.68181029723E+02  0.68181029771E+02  0.25500000000E-02 0. -1.
          2   -1    0    0  501    0  0.00000000000E+00 -0.00000000000E+00 -0.28118627969E+03  0.28118627970E+03  0.25500000000E-02 0.  1.
    5000001    1    1    2    0    0  0.92447757152E+02 -0.46135459129E+02 -0.42576438169E+02  0.13570859029E+03  0.77000000000E+02 0.  0.
   -5000001    1    1    2    0    0 -0.92447757152E+02  0.46135459129E+02 -0.17042881180E+03  0.21365871918E+03  0.77000000000E+02 0.  0.
<mgrwt>
<rscale>  0 0.27692288E+03</rscale>
<asrwt>0</asrwt>
<pdfrwt beam="1">  1        2 0.40169468E-01 0.27692288E+03</pdfrwt>
<pdfrwt beam="2">  1       -2 0.97401472E-02 0.27692288E+03</pdfrwt>
<totfact> 0.87341082E+03</totfact>
</mgrwt>
</event>
<event>
 4    1  0.6919593E-004  0.3134764E+03  0.7818608E-02  0.1078691E+00
          2   -1    0    0  501    0  0.00000000000E+00  0.00000000000E+00  0.71612336508E+02  0.71612336553E+02  0.25500000000E-02 0.  1.
         -2   -1    0    0    0  501 -0.00000000000E+00 -0.00000000000E+00 -0.34305346989E+03  0.34305346990E+03  0.25500000000E-02 0. -1.
    5000001    1    1    2    0    0 -0.85352118785E+02 -0.14355852934E+02  0.39382080338E+01  0.11591196736E+03  0.77000000000E+02 0.  0.
   -5000001    1    1    2    0    0  0.85352118785E+02  0.14355852934E+02 -0.27537934142E+03  0.29875383910E+03  0.77000000000E+02 0.  0.
<mgrwt>
<rscale>  0 0.31347638E+03</rscale>
<asrwt>0</asrwt>
<pdfrwt beam="1">  1        2 0.10230334E-01 0.31347638E+03</pdfrwt>
<pdfrwt beam="2">  1       -2 0.49007638E-01 0.31347638E+03</pdfrwt>
<totfact> 0.24951426E+03</totfact>
</mgrwt>
</event>
<event>
 4    1  0.6919593E-004  0.3505210E+03  0.7818608E-02  0.1062401E+00
         -2   -1    0    0    0  501 -0.00000000000E+00  0.00000000000E+00  0.74330673447E+02  0.74330673491E+02  0.25500000000E-02 0. -1.
          2   -1    0    0  501    0  0.00000000000E+00 -0.00000000000E+00 -0.41323782348E+03  0.41323782349E+03  0.25500000000E-02 0.  1.
    5000001    1    1    2    0    0  0.32742422701E+02  0.15398946731E+03 -0.16728817742E+03  0.24227908822E+03  0.77000000000E+02 0.  0.
   -5000001    1    1    2    0    0 -0.32742422701E+02 -0.15398946731E+03 -0.17161897262E+03  0.24528940876E+03  0.77000000000E+02 0.  0.
<mgrwt>
<rscale>  0 0.35052102E+03</rscale>
<asrwt>0</asrwt>
<pdfrwt beam="1">  1        2 0.59033974E-01 0.35052102E+03</pdfrwt>
<pdfrwt beam="2">  1       -2 0.10618668E-01 0.35052102E+03</pdfrwt>
<totfact> 0.50553110E+03</totfact>
</mgrwt>
</event>
<event>
 4    1  0.6919593E-004  0.2651489E+03  0.7818608E-02  0.1104089E+00
          2   -1    0    0  501    0  0.00000000000E+00  0.00000000000E+00  0.93431565786E+03  0.93431565786E+03  0.25500000000E-02 0.  1.
         -2   -1    0    0    0  501 -0.00000000000E+00 -0.00000000000E+00 -0.18811610405E+02  0.18811610578E+02  0.25500000000E-02 0. -1.
    5000001    1    1    2    0    0 -0.91894988192E+02 -0.37563796400E+02  0.60989074210E+03  0.62269691259E+03  0.77000000000E+02 0.  0.
   -5000001    1    1    2    0    0  0.91894988192E+02  0.37563796400E+02  0.30561330535E+03  0.33043035584E+03  0.77000000000E+02 0.  0.
<mgrwt>
<rscale>  0 0.26514888E+03</rscale>
<asrwt>0</asrwt>
<pdfrwt beam="1">  1        2 0.13347373E+00 0.26514888E+03</pdfrwt>
<pdfrwt beam="2">  1       -2 0.26873715E-02 0.26514888E+03</pdfrwt>
<totfact> 0.15845206E+04</totfact>
</mgrwt>
</event>
<event>
 4    1  0.6919593E-004  0.1783185E+03  0.7818608E-02  0.1169440E+00
          2   -1    0    0  501    0  0.00000000000E+00  0.00000000000E+00  0.59499440222E+03  0.59499440222E+03  0.25500000000E-02 0.  1.
         -2   -1    0    0    0  501 -0.00000000000E+00 -0.00000000000E+00 -0.13360414429E+02  0.13360414673E+02  0.25500000000E-02 0. -1.
    5000001    1    1    2    0    0 -0.35106251192E+02  0.47158130723E+01  0.38521990021E+03  0.39443384652E+03  0.77000000000E+02 0.  0.
   -5000001    1    1    2    0    0  0.35106251192E+02 -0.47158130723E+01  0.19641408758E+03  0.21392097037E+03  0.77000000000E+02 0.  0.
<mgrwt>
<rscale>  0 0.17831850E+03</rscale>
<asrwt>0</asrwt>
<pdfrwt beam="1">  1        2 0.84999187E-01 0.17831850E+03</pdfrwt>
<pdfrwt beam="2">  1       -2 0.19086309E-02 0.17831850E+03</pdfrwt>
<totfact> 0.43997863E+04</totfact>
</mgrwt>
</event>
<event>
 4    1  0.6919593E-004  0.3116473E+03  0.7818608E-02  0.1079559E+00
         -2   -1    0    0    0  501 -0.00000000000E+00  0.00000000000E+00  0.15678455570E+03  0.15678455572E+03  0.25500000000E-02 0. -1.
          2   -1    0    0  501    0  0.00000000000E+00 -0.00000000000E+00 -0.15486861260E+03  0.15486861262E+03  0.25500000000E-02 0.  1.
    5000001    1    1    2    0    0  0.18779082247E+02 -0.12760388442E+03 -0.40474699813E+02  0.15557186948E+03  0.77000000000E+02 0.  0.
   -5000001    1    1    2    0    0 -0.18779082247E+02  0.12760388442E+03  0.42390642911E+02  0.15608129886E+03  0.77000000000E+02 0.  0.
<mgrwt>
<rscale>  0 0.31164728E+03</rscale>
<asrwt>0</asrwt>
<pdfrwt beam="1">  1        2 0.22124088E-01 0.31164728E+03</pdfrwt>
<pdfrwt beam="2">  1       -2 0.22397794E-01 0.31164728E+03</pdfrwt>
<totfact> 0.42648684E+03</totfact>
</mgrwt>
</event>
<event>
 4    1  0.6919593E-004  0.2110151E+03  0.7818608E-02  0.1140765E+00
         -2   -1    0    0    0  501 -0.00000000000E+00  0.00000000000E+00  0.13361342153E+03  0.13361342156E+03  0.25500000000E-02 0. -1.
          2   -1    0    0  501    0  0.00000000000E+00 -0.00000000000E+00 -0.83313843478E+02  0.83313843517E+02  0.25500000000E-02 0.  1.
    5000001    1    1    2    0    0  0.71297225624E+02  0.93059264911E+01  0.31051097235E+02  0.10983198664E+03  0.77000000000E+02 0.  0.
   -5000001    1    1    2    0    0 -0.71297225624E+02 -0.93059264911E+01  0.19248480821E+02  0.10709527844E+03  0.77000000000E+02 0.  0.
<mgrwt>
<rscale>  0 0.21101514E+03</rscale>
<asrwt>0</asrwt>
<pdfrwt beam="1">  1        2 0.11901978E-01 0.21101514E+03</pdfrwt>
<pdfrwt beam="2">  1       -2 0.19087631E-01 0.21101514E+03</pdfrwt>
<totfact> 0.11412778E+04</totfact>
</mgrwt>
</event>
<event>
 4    1  0.6919593E-004  0.2739752E+03  0.7818608E-02  0.1099026E+00
          2   -1    0    0  501    0  0.00000000000E+00  0.00000000000E+00  0.38869730238E+03  0.38869730239E+03  0.25500000000E-02 0.  1.
         -2   -1    0    0    0  501 -0.00000000000E+00 -0.00000000000E+00 -0.48278201110E+02  0.48278201177E+02  0.25500000000E-02 0. -1.
    5000001    1    1    2    0    0 -0.33481357620E+01  0.10962483686E+03  0.12487853171E+03  0.18317331289E+03  0.77000000000E+02 0.  0.
   -5000001    1    1    2    0    0  0.33481357620E+01 -0.10962483686E+03  0.21554056956E+03  0.25380219068E+03  0.77000000000E+02 0.  0.
<mgrwt>
<rscale>  0 0.27397523E+03</rscale>
<asrwt>0</asrwt>
<pdfrwt beam="1">  1        2 0.55528186E-01 0.27397523E+03</pdfrwt>
<pdfrwt beam="2">  1       -2 0.68968859E-02 0.27397523E+03</pdfrwt>
<totfact> 0.10575370E+04</totfact>
</mgrwt>
</event>
<event>
 4    1  0.6919593E-004  0.2047036E+03  0.7818608E-02  0.1145830E+00
          2   -1    0    0  501    0  0.00000000000E+00  0.00000000000E+00  0.14539673340E+03  0.14539673342E+03  0.25500000000E-02 0.  1.
         -2   -1    0    0    0  501 -0.00000000000E+00 -0.00000000000E+00 -0.72050366248E+02  0.72050366293E+02  0.25500000000E-02 0. -1.
    5000001    1    1    2    0    0 -0.49615238510E+02  0.44849053301E+02  0.27549023529E+02  0.10564590939E+03  0.77000000000E+02 0.  0.
   -5000001    1    1    2    0    0  0.49615238510E+02 -0.44849053301E+02  0.45797343625E+02  0.11180119032E+03  0.77000000000E+02 0.  0.
<mgrwt>
<rscale>  0 0.20470357E+03</rscale>
<asrwt>0</asrwt>
<pdfrwt beam="1">  1        2 0.20770962E-01 0.20470357E+03</pdfrwt>
<pdfrwt beam="2">  1       -2 0.10292910E-01 0.20470357E+03</pdfrwt>
<totfact> 0.16266648E+04</totfact>
</mgrwt>
</event>
<event>
 4    1  0.6919593E-004  0.2460971E+03  0.7818608E-02  0.1115796E+00
         -2   -1    0    0    0  501 -0.00000000000E+00  0.00000000000E+00  0.32417096953E+02  0.32417097053E+02  0.25500000000E-02 0. -1.
          2   -1    0    0  501    0  0.00000000000E+00 -0.00000000000E+00 -0.46706684756E+03  0.46706684756E+03  0.25500000000E-02 0.  1.
    5000001    1    1    2    0    0 -0.69850373040E+02 -0.46644165334E+02 -0.12305780412E+03  0.16771098929E+03  0.77000000000E+02 0.  0.
   -5000001    1    1    2    0    0  0.69850373040E+02  0.46644165334E+02 -0.31159194648E+03  0.33177295532E+03  0.77000000000E+02 0.  0.
<mgrwt>
<rscale>  0 0.24609715E+03</rscale>
<asrwt>0</asrwt>
<pdfrwt beam="1">  1        2 0.66723831E-01 0.24609715E+03</pdfrwt>
<pdfrwt beam="2">  1       -2 0.46310141E-02 0.24609715E+03</pdfrwt>
<totfact> 0.15839992E+04</totfact>
</mgrwt>
</event>
<event>
 4    1  0.6919593E-004  0.2481401E+03  0.7818608E-02  0.1114486E+00
          2   -1    0    0  501    0  0.00000000000E+00  0.00000000000E+00  0.12023453530E+04  0.12023453530E+04  0.25500000000E-02 0.  1.
         -2   -1    0    0    0  501 -0.00000000000E+00 -0.00000000000E+00 -0.12802787743E+02  0.12802787997E+02  0.25500000000E-02 0. -1.
    5000001    1    1    2    0    0 -0.66651490114E+02  0.17611000268E+01  0.24784720270E+03  0.26796036739E+03  0.77000000000E+02 0.  0.
   -5000001    1    1    2    0    0  0.66651490114E+02 -0.17611000268E+01  0.94169536259E+03  0.94718777363E+03  0.77000000000E+02 0.  0.
<mgrwt>
<rscale>  0 0.24814006E+03</rscale>
<asrwt>0</asrwt>
<pdfrwt beam="1">  1        2 0.17176350E+00 0.24814006E+03</pdfrwt>
<pdfrwt beam="2">  1       -2 0.18289710E-02 0.24814006E+03</pdfrwt>
<totfact> 0.19568563E+04</totfact>
</mgrwt>
</event>
<event>
 4    1  0.6919593E-004  0.3153055E+03  0.7818608E-02  0.1077830E+00
         -2   -1    0    0    0  501 -0.00000000000E+00  0.00000000000E+00  0.76484426272E+01  0.76484430523E+01  0.25500000000E-02 0. -1.
          2   -1    0    0  501    0  0.00000000000E+00 -0.00000000000E+00 -0.32496016993E+04  0.32496016993E+04  0.25500000000E-02 0.  1.
    5000001    1    1    2    0    0  0.64661103509E+02  0.70582471576E+02 -0.60027470900E+03  0.61271663097E+03  0.77000000000E+02 0.  0.
   -5000001    1    1    2    0    0 -0.64661103509E+02 -0.70582471576E+02 -0.26416785477E+04  0.26445335114E+04  0.77000000000E+02 0.  0.
<mgrwt>
<rscale>  0 0.31530552E+03</rscale>
<asrwt>0</asrwt>
<pdfrwt beam="1">  1        2 0.46422793E+00 0.31530552E+03</pdfrwt>
<pdfrwt beam="2">  1       -2 0.10926368E-02 0.31530552E+03</pdfrwt>
<totfact> 0.38014086E+03</totfact>
</mgrwt>
</event>
<event>
 4    1  0.6919593E-004  0.2033245E+03  0.7818608E-02  0.1146964E+00
          2   -1    0    0  501    0  0.00000000000E+00  0.00000000000E+00  0.88484692834E+03  0.88484692834E+03  0.25500000000E-02 0.  1.
         -2   -1    0    0    0  501 -0.00000000000E+00 -0.00000000000E+00 -0.11680221563E+02  0.11680221842E+02  0.25500000000E-02 0. -1.
    5000001    1    1    2    0    0 -0.26761127452E+02 -0.52439666417E+02  0.57178070732E+03  0.57993814655E+03  0.77000000000E+02 0.  0.
   -5000001    1    1    2    0    0  0.26761127452E+02  0.52439666417E+02  0.30138599945E+03  0.31658900364E+03  0.77000000000E+02 0.  0.
<mgrwt>
<rscale>  0 0.20332445E+03</rscale>
<asrwt>0</asrwt>
<pdfrwt beam="1">  1        2 0.12640673E+00 0.20332445E+03</pdfrwt>
<pdfrwt beam="2">  1       -2 0.16686027E-02 0.20332445E+03</pdfrwt>
<totfact> 0.33716416E+04</totfact>
</mgrwt>
</event>
<event>
 4    1  0.6919593E-004  0.5697925E+03  0.7818608E-02  0.9970138E-01
         -2   -1    0    0    0  501 -0.00000000000E+00  0.00000000000E+00  0.26832041315E+02  0.26832041436E+02  0.25500000000E-02 0. -1.
          2   -1    0    0  501    0  0.00000000000E+00 -0.00000000000E+00 -0.30249603199E+04  0.30249603199E+04  0.25500000000E-02 0.  1.
    5000001    1    1    2    0    0  0.98582697665E+02 -0.23447977663E+03 -0.94925995556E+03  0.98575999978E+03  0.77000000000E+02 0.  0.
   -5000001    1    1    2    0    0 -0.98582697665E+02  0.23447977663E+03 -0.20488683230E+04  0.20660323615E+04  0.77000000000E+02 0.  0.
<mgrwt>
<rscale>  0 0.56979246E+03</rscale>
<asrwt>0</asrwt>
<pdfrwt beam="1">  1        2 0.43213697E+00 0.56979246E+03</pdfrwt>
<pdfrwt beam="2">  1       -2 0.38331507E-02 0.56979246E+03</pdfrwt>
<totfact> 0.75801482E+02</totfact>
</mgrwt>
</event>
<event>
 4    1  0.6919593E-004  0.2119263E+03  0.7818608E-02  0.1140050E+00
          2   -1    0    0  501    0  0.00000000000E+00  0.00000000000E+00  0.42379275445E+03  0.42379275445E+03  0.25500000000E-02 0.  1.
         -2   -1    0    0    0  501 -0.00000000000E+00 -0.00000000000E+00 -0.26494527013E+02  0.26494527136E+02  0.25500000000E-02 0. -1.
    5000001    1    1    2    0    0 -0.59253173252E+02  0.58192209600E+01  0.28764450213E+03  0.30366620076E+03  0.77000000000E+02 0.  0.
   -5000001    1    1    2    0    0  0.59253173252E+02 -0.58192209600E+01  0.10965372530E+03  0.14662108083E+03  0.77000000000E+02 0.  0.
<mgrwt>
<rscale>  0 0.21192629E+03</rscale>
<asrwt>0</asrwt>
<pdfrwt beam="1">  1        2 0.60541818E-01 0.21192629E+03</pdfrwt>
<pdfrwt beam="2">  1       -2 0.37849327E-02 0.21192629E+03</pdfrwt>
<totfact> 0.23612129E+04</totfact>
</mgrwt>
</event>
<event>
 4    1  0.6919593E-004  0.2078956E+03  0.7818608E-02  0.1143243E+00
         -2   -1    0    0    0  501 -0.00000000000E+00  0.00000000000E+00  0.32996172912E+02  0.32996173011E+02  0.25500000000E-02 0. -1.
          2   -1    0    0  501    0  0.00000000000E+00 -0.00000000000E+00 -0.32746660322E+03  0.32746660323E+03  0.25500000000E-02 0.  1.
    5000001    1    1    2    0    0 -0.64787011424E+02 -0.16233851312E+02 -0.18256735209E+03  0.20909503300E+03  0.77000000000E+02 0.  0.
   -5000001    1    1    2    0    0  0.64787011424E+02  0.16233851312E+02 -0.11190307821E+03  0.15136774323E+03  0.77000000000E+02 0.  0.
<mgrwt>
<rscale>  0 0.20789560E+03</rscale>
<asrwt>0</asrwt>
<pdfrwt beam="1">  1        2 0.46780942E-01 0.20789560E+03</pdfrwt>
<pdfrwt beam="2">  1       -2 0.47137392E-02 0.20789560E+03</pdfrwt>
<totfact> 0.22369362E+04</totfact>
</mgrwt>
</event>
<event>
 4    1  0.6919593E-004  0.1919631E+03  0.7818608E-02  0.1156703E+00
          2   -1    0    0  501    0  0.00000000000E+00  0.00000000000E+00  0.25115087487E+04  0.25115087487E+04  0.25500000000E-02 0.  1.
         -2   -1    0    0    0  501 -0.00000000000E+00 -0.00000000000E+00 -0.36680974511E+01  0.36680983374E+01  0.25500000000E-02 0. -1.
    5000001    1    1    2    0    0 -0.34254549220E+01 -0.53661169124E+02  0.99443824819E+03  0.99886319597E+03  0.77000000000E+02 0.  0.
   -5000001    1    1    2    0    0  0.34254549220E+01  0.53661169124E+02  0.15134024031E+04  0.15163136511E+04  0.77000000000E+02 0.  0.
<mgrwt>
<rscale>  0 0.19196312E+03</rscale>
<asrwt>0</asrwt>
<pdfrwt beam="1">  1        2 0.35878611E+00 0.19196312E+03</pdfrwt>
<pdfrwt beam="2">  1       -2 0.52401523E-03 0.19196312E+03</pdfrwt>
<totfact> 0.26521878E+04</totfact>
</mgrwt>
</event>
<event>
 4    1  0.6919593E-004  0.2134879E+03  0.7818608E-02  0.1138833E+00
         -2   -1    0    0    0  501 -0.00000000000E+00  0.00000000000E+00  0.13222570818E+03  0.13222570821E+03  0.25500000000E-02 0. -1.
          2   -1    0    0  501    0  0.00000000000E+00 -0.00000000000E+00 -0.86172881874E+02  0.86172881912E+02  0.25500000000E-02 0.  1.
    5000001    1    1    2    0    0  0.69348112314E+02  0.49445654942E+01  0.48737390324E+02  0.11462086470E+03  0.77000000000E+02 0.  0.
   -5000001    1    1    2    0    0 -0.69348112314E+02 -0.49445654942E+01 -0.26845640134E+01  0.10377772542E+03  0.77000000000E+02 0.  0.
<mgrwt>
<rscale>  0 0.21348790E+03</rscale>
<asrwt>0</asrwt>
<pdfrwt beam="1">  1        2 0.12310412E-01 0.21348790E+03</pdfrwt>
<pdfrwt beam="2">  1       -2 0.18889387E-01 0.21348790E+03</pdfrwt>
<totfact> 0.11159616E+04</totfact>
</mgrwt>
</event>
<event>
 4    1  0.6919593E-004  0.3331250E+03  0.7818608E-02  0.1069762E+00
          2   -1    0    0  501    0  0.00000000000E+00  0.00000000000E+00  0.17739523333E+04  0.17739523333E+04  0.25500000000E-02 0.  1.
         -2   -1    0    0    0  501 -0.00000000000E+00 -0.00000000000E+00 -0.15639131542E+02  0.15639131750E+02  0.25500000000E-02 0. -1.
    5000001    1    1    2    0    0  0.11328539839E+03  0.57739876395E+02  0.12828392629E+04  0.12914228778E+04  0.77000000000E+02 0.  0.
   -5000001    1    1    2    0    0 -0.11328539839E+03 -0.57739876395E+02  0.47547393889E+03  0.49816858731E+03  0.77000000000E+02 0.  0.
<mgrwt>
<rscale>  0 0.33312505E+03</rscale>
<asrwt>0</asrwt>
<pdfrwt beam="1">  1        2 0.25342183E+00 0.33312505E+03</pdfrwt>
<pdfrwt beam="2">  1       -2 0.22341611E-02 0.33312505E+03</pdfrwt>
<totfact> 0.74996748E+03</totfact>
</mgrwt>
</event>
<event>
 4    1  0.6919593E-004  0.2773473E+03  0.7818608E-02  0.1097147E+00
          2   -1    0    0  501    0  0.00000000000E+00  0.00000000000E+00  0.14511727201E+04  0.14511727201E+04  0.25500000000E-02 0.  1.
         -2   -1    0    0    0  501 -0.00000000000E+00 -0.00000000000E+00 -0.13251610889E+02  0.13251611134E+02  0.25500000000E-02 0. -1.
    5000001    1    1    2    0    0 -0.88560558792E+02  0.69523403562E+02  0.85095278710E+03  0.86181559634E+03  0.77000000000E+02 0.  0.
   -5000001    1    1    2    0    0  0.88560558792E+02 -0.69523403562E+02  0.58696832214E+03  0.60260873493E+03  0.77000000000E+02 0.  0.
<mgrwt>
<rscale>  0 0.27734727E+03</rscale>
<asrwt>0</asrwt>
<pdfrwt beam="1">  1        2 0.20731045E+00 0.27734727E+03</pdfrwt>
<pdfrwt beam="2">  1       -2 0.18930867E-02 0.27734727E+03</pdfrwt>
<totfact> 0.13843008E+04</totfact>
</mgrwt>
</event>
<event>
 4    1  0.6919593E-004  0.2357271E+03  0.7818608E-02  0.1122672E+00
         -2   -1    0    0    0  501 -0.00000000000E+00  0.00000000000E+00  0.70004354126E+01  0.70004358770E+01  0.25500000000E-02 0. -1.
          2   -1    0    0  501    0  0.00000000000E+00 -0.00000000000E+00 -0.19844217649E+04  0.19844217649E+04  0.25500000000E-02 0.  1.
    5000001    1    1    2    0    0 -0.74635439615E+02  0.48671615865E+02 -0.10296131332E+04  0.10363260004E+04  0.77000000000E+02 0.  0.
   -5000001    1    1    2    0    0  0.74635439615E+02 -0.48671615865E+02 -0.94780819633E+03  0.95509620042E+03  0.77000000000E+02 0.  0.
<mgrwt>
<rscale>  0 0.23572710E+03</rscale>
<asrwt>0</asrwt>
<pdfrwt beam="1">  1        2 0.28348846E+00 0.23572710E+03</pdfrwt>
<pdfrwt beam="2">  1       -2 0.10000635E-02 0.23572710E+03</pdfrwt>
<totfact> 0.19058445E+04</totfact>
</mgrwt>
</event>
<event>
 4    1  0.6919593E-004  0.2021713E+03  0.7818608E-02  0.1147920E+00
          2   -1    0    0  501    0  0.00000000000E+00  0.00000000000E+00  0.82159682677E+03  0.82159682677E+03  0.25500000000E-02 0.  1.
         -2   -1    0    0    0  501 -0.00000000000E+00 -0.00000000000E+00 -0.12437127372E+02  0.12437127633E+02  0.25500000000E-02 0. -1.
    5000001    1    1    2    0    0  0.55549216319E+02 -0.31392576969E+02  0.46550369981E+03  0.47612383248E+03  0.77000000000E+02 0.  0.
   -5000001    1    1    2    0    0 -0.55549216319E+02  0.31392576969E+02  0.34365599959E+03  0.35791012192E+03  0.77000000000E+02 0.  0.
<mgrwt>
<rscale>  0 0.20217126E+03</rscale>
<asrwt>0</asrwt>
<pdfrwt beam="1">  1        2 0.11737098E+00 0.20217126E+03</pdfrwt>
<pdfrwt beam="2">  1       -2 0.17767324E-02 0.20217126E+03</pdfrwt>
<totfact> 0.33758865E+04</totfact>
</mgrwt>
</event>
<event>
 4    1  0.6919593E-004  0.3450349E+03  0.7818608E-02  0.1064672E+00
          2   -1    0    0  501    0  0.00000000000E+00  0.00000000000E+00  0.21495409382E+04  0.21495409382E+04  0.25500000000E-02 0.  1.
         -2   -1    0    0    0  501 -0.00000000000E+00 -0.00000000000E+00 -0.13845869477E+02  0.13845869712E+02  0.25500000000E-02 0. -1.
    5000001    1    1    2    0    0  0.71527416844E+02 -0.12358020221E+03  0.69983090712E+03  0.71838745556E+03  0.77000000000E+02 0.  0.
   -5000001    1    1    2    0    0 -0.71527416844E+02  0.12358020221E+03  0.14358641616E+04  0.14449993523E+04  0.77000000000E+02 0.  0.
<mgrwt>
<rscale>  0 0.34503486E+03</rscale>
<asrwt>0</asrwt>
<pdfrwt beam="1">  1        2 0.30707724E+00 0.34503486E+03</pdfrwt>
<pdfrwt beam="2">  1       -2 0.19779816E-02 0.34503486E+03</pdfrwt>
<totfact> 0.58697754E+03</totfact>
</mgrwt>
</event>
<event>
 4    1  0.6919593E-004  0.2924259E+03  0.7818608E-02  0.1089089E+00
         -2   -1    0    0    0  501 -0.00000000000E+00  0.00000000000E+00  0.18947258764E+02  0.18947258936E+02  0.25500000000E-02 0. -1.
          2   -1    0    0  501    0  0.00000000000E+00 -0.00000000000E+00 -0.11283021698E+04  0.11283021698E+04  0.25500000000E-02 0.  1.
    5000001    1    1    2    0    0  0.48208216095E+02  0.11448768010E+03 -0.57121661944E+03  0.58961757718E+03  0.77000000000E+02 0.  0.
   -5000001    1    1    2    0    0 -0.48208216095E+02 -0.11448768010E+03 -0.53813829161E+03  0.55763185158E+03  0.77000000000E+02 0.  0.
<mgrwt>
<rscale>  0 0.29242594E+03</rscale>
<asrwt>0</asrwt>
<pdfrwt beam="1">  1        2 0.16118598E+00 0.29242594E+03</pdfrwt>
<pdfrwt beam="2">  1       -2 0.27067520E-02 0.29242594E+03</pdfrwt>
<totfact> 0.12128760E+04</totfact>
</mgrwt>
</event>
<event>
 4    1  0.6919593E-004  0.2018380E+03  0.7818608E-02  0.1148197E+00
         -2   -1    0    0    0  501 -0.00000000000E+00  0.00000000000E+00  0.32196441111E+02  0.32196441212E+02  0.25500000000E-02 0. -1.
          2   -1    0    0  501    0  0.00000000000E+00 -0.00000000000E+00 -0.31632833549E+03  0.31632833550E+03  0.25500000000E-02 0.  1.
    5000001    1    1    2    0    0  0.22323397261E+02 -0.51783188730E+02 -0.19870281972E+03  0.22043512257E+03  0.77000000000E+02 0.  0.
   -5000001    1    1    2    0    0 -0.22323397261E+02  0.51783188730E+02 -0.85429074665E+02  0.12808965414E+03  0.77000000000E+02 0.  0.
<mgrwt>
<rscale>  0 0.20183802E+03</rscale>
<asrwt>0</asrwt>
<pdfrwt beam="1">  1        2 0.45189760E-01 0.20183802E+03</pdfrwt>
<pdfrwt beam="2">  1       -2 0.45994918E-02 0.20183802E+03</pdfrwt>
<totfact> 0.24033621E+04</totfact>
</mgrwt>
</event>
<event>
 4    1  0.6919593E-004  0.1782584E+03  0.7818608E-02  0.1169499E+00
          2   -1    0    0  501    0  0.00000000000E+00  0.00000000000E+00  0.40944297541E+03  0.40944297542E+03  0.25500000000E-02 0.  1.
         -2   -1    0    0    0  501 -0.00000000000E+00 -0.00000000000E+00 -0.19401993609E+02  0.19401993776E+02  0.25500000000E-02 0. -1.
    5000001    1    1    2    0    0  0.29698555289E+02 -0.27248894939E+01  0.11430836726E+03  0.14101358812E+03  0.77000000000E+02 0.  0.
   -5000001    1    1    2    0    0 -0.29698555289E+02  0.27248894939E+01  0.27573261454E+03  0.28783138108E+03  0.77000000000E+02 0.  0.
<mgrwt>
<rscale>  0 0.17825835E+03</rscale>
<asrwt>0</asrwt>
<pdfrwt beam="1">  1        2 0.58491841E-01 0.17825835E+03</pdfrwt>
<pdfrwt beam="2">  1       -2 0.27717140E-02 0.17825835E+03</pdfrwt>
<totfact> 0.38350307E+04</totfact>
</mgrwt>
</event>
<event>
 4    1  0.6919593E-004  0.2522003E+03  0.7818608E-02  0.1111922E+00
         -2   -1    0    0    0  501 -0.00000000000E+00  0.00000000000E+00  0.31680382102E+02  0.31680382205E+02  0.25500000000E-02 0. -1.
          2   -1    0    0  501    0  0.00000000000E+00 -0.00000000000E+00 -0.50192722315E+03  0.50192722316E+03  0.25500000000E-02 0.  1.
    5000001    1    1    2    0    0  0.49541749754E+02  0.58414026491E+02 -0.37069481768E+03  0.38627740202E+03  0.77000000000E+02 0.  0.
   -5000001    1    1    2    0    0 -0.49541749754E+02 -0.58414026491E+02 -0.99552023376E+02  0.14733020335E+03  0.77000000000E+02 0.  0.
<mgrwt>
<rscale>  0 0.25220029E+03</rscale>
<asrwt>0</asrwt>
<pdfrwt beam="1">  1        2 0.71703884E-01 0.25220029E+03</pdfrwt>
<pdfrwt beam="2">  1       -2 0.45257692E-02 0.25220029E+03</pdfrwt>
<totfact> 0.15172549E+04</totfact>
</mgrwt>
</event>
<event>
 4    1  0.6919593E-004  0.4906881E+03  0.7818608E-02  0.1016238E+00
          2   -1    0    0  501    0  0.00000000000E+00  0.00000000000E+00  0.17619525175E+04  0.17619525175E+04  0.25500000000E-02 0.  1.
         -2   -1    0    0    0  501 -0.00000000000E+00 -0.00000000000E+00 -0.34163070400E+02  0.34163070495E+02  0.25500000000E-02 0. -1.
    5000001    1    1    2    0    0  0.13380926940E+03  0.79668371836E+02  0.14980294634E+04  0.15080693762E+04  0.77000000000E+02 0.  0.
   -5000001    1    1    2    0    0 -0.13380926940E+03 -0.79668371836E+02  0.22975998365E+03  0.28804621180E+03  0.77000000000E+02 0.  0.
<mgrwt>
<rscale>  0 0.49068812E+03</rscale>
<asrwt>0</asrwt>
<pdfrwt beam="1">  1        2 0.25170750E+00 0.49068812E+03</pdfrwt>
<pdfrwt beam="2">  1       -2 0.48804387E-02 0.49068812E+03</pdfrwt>
<totfact> 0.23325648E+03</totfact>
</mgrwt>
</event>
<event>
 4    1  0.6919593E-004  0.1817260E+03  0.7818608E-02  0.1166143E+00
          2   -1    0    0  501    0  0.00000000000E+00  0.00000000000E+00  0.73958018310E+03  0.73958018311E+03  0.25500000000E-02 0.  1.
         -2   -1    0    0    0  501 -0.00000000000E+00 -0.00000000000E+00 -0.11163205821E+02  0.11163206113E+02  0.25500000000E-02 0. -1.
    5000001    1    1    2    0    0  0.43920633382E+02  0.16415200804E+02  0.31735915142E+03  0.32991561322E+03  0.77000000000E+02 0.  0.
   -5000001    1    1    2    0    0 -0.43920633382E+02 -0.16415200804E+02  0.41105782586E+03  0.42082777600E+03  0.77000000000E+02 0.  0.
<mgrwt>
<rscale>  0 0.18172601E+03</rscale>
<asrwt>0</asrwt>
<pdfrwt beam="1">  1        2 0.10565430E+00 0.18172601E+03</pdfrwt>
<pdfrwt beam="2">  1       -2 0.15947438E-02 0.18172601E+03</pdfrwt>
<totfact> 0.44502844E+04</totfact>
</mgrwt>
</event>
<event>
 4    1  0.6919593E-004  0.2419013E+03  0.7818608E-02  0.1118533E+00
          2   -1    0    0  501    0  0.00000000000E+00  0.00000000000E+00  0.41151116448E+03  0.41151116449E+03  0.25500000000E-02 0.  1.
         -2   -1    0    0    0  501 -0.00000000000E+00 -0.00000000000E+00 -0.35549617271E+02  0.35549617363E+02  0.25500000000E-02 0. -1.
    5000001    1    1    2    0    0 -0.86166323816E+02 -0.33696432665E+02  0.20984632842E+03  0.24191851208E+03  0.77000000000E+02 0.  0.
   -5000001    1    1    2    0    0  0.86166323816E+02  0.33696432665E+02  0.16611521879E+03  0.20514226977E+03  0.77000000000E+02 0.  0.
<mgrwt>
<rscale>  0 0.24190134E+03</rscale>
<asrwt>0</asrwt>
<pdfrwt beam="1">  1        2 0.58787307E-01 0.24190134E+03</pdfrwt>
<pdfrwt beam="2">  1       -2 0.50785169E-02 0.24190134E+03</pdfrwt>
<totfact> 0.15791132E+04</totfact>
</mgrwt>
</event>
<event>
 4    1  0.6919593E-004  0.2066593E+03  0.7818608E-02  0.1144239E+00
         -2   -1    0    0    0  501 -0.00000000000E+00  0.00000000000E+00  0.14046932525E+03  0.14046932527E+03  0.25500000000E-02 0. -1.
          2   -1    0    0  501    0  0.00000000000E+00 -0.00000000000E+00 -0.76009591594E+02  0.76009591637E+02  0.25500000000E-02 0.  1.
    5000001    1    1    2    0    0 -0.48063931739E+02  0.39881734349E+02  0.17379414404E+01  0.99160045933E+02  0.77000000000E+02 0.  0.
   -5000001    1    1    2    0    0  0.48063931739E+02 -0.39881734349E+02  0.62721792217E+02  0.11731887098E+03  0.77000000000E+02 0.  0.
<mgrwt>
<rscale>  0 0.20665929E+03</rscale>
<asrwt>0</asrwt>
<pdfrwt beam="1">  1        2 0.10858513E-01 0.20665929E+03</pdfrwt>
<pdfrwt beam="2">  1       -2 0.20067046E-01 0.20665929E+03</pdfrwt>
<totfact> 0.11707462E+04</totfact>
</mgrwt>
</event>
<event>
 4    1  0.6919593E-004  0.2264122E+03  0.7818608E-02  0.1129191E+00
         -2   -1    0    0    0  501 -0.00000000000E+00  0.00000000000E+00  0.45984182702E+03  0.45984182703E+03  0.25500000000E-02 0. -1.
          2   -1    0    0  501    0  0.00000000000E+00 -0.00000000000E+00 -0.27869633606E+02  0.27869633722E+02  0.25500000000E-02 0.  1.
    5000001    1    1    2    0    0 -0.78613421675E+02  0.12555812829E+02  0.26645357431E+03  0.28855541195E+03  0.77000000000E+02 0.  0.
   -5000001    1    1    2    0    0  0.78613421675E+02 -0.12555812829E+02  0.16551861910E+03  0.19915604880E+03  0.77000000000E+02 0.  0.
<mgrwt>
<rscale>  0 0.22641222E+03</rscale>
<asrwt>0</asrwt>
<pdfrwt beam="1">  1        2 0.39813764E-02 0.22641222E+03</pdfrwt>
<pdfrwt beam="2">  1       -2 0.65691687E-01 0.22641222E+03</pdfrwt>
<totfact> 0.45916275E+03</totfact>
</mgrwt>
</event>
<event>
 4    1  0.6919593E-004  0.2093708E+03  0.7818608E-02  0.1142065E+00
         -2   -1    0    0    0  501 -0.00000000000E+00  0.00000000000E+00  0.55933528983E+01  0.55933534796E+01  0.25500000000E-02 0. -1.
          2   -1    0    0  501    0  0.00000000000E+00 -0.00000000000E+00 -0.19592957569E+04  0.19592957569E+04  0.25500000000E-02 0.  1.
    5000001    1    1    2    0    0  0.55031545913E+02 -0.22656708149E+01 -0.55752804260E+03  0.56550872902E+03  0.77000000000E+02 0.  0.
   -5000001    1    1    2    0    0 -0.55031545913E+02  0.22656708149E+01 -0.13961743615E+04  0.13993803814E+04  0.77000000000E+02 0.  0.
<mgrwt>
<rscale>  0 0.20937080E+03</rscale>
<asrwt>0</asrwt>
<pdfrwt beam="1">  1        2 0.27989896E+00 0.20937080E+03</pdfrwt>
<pdfrwt beam="2">  1       -2 0.79905170E-03 0.20937080E+03</pdfrwt>
<totfact> 0.26964773E+04</totfact>
</mgrwt>
</event>
<event>
 4    1  0.6919593E-004  0.2763015E+03  0.7818608E-02  0.1097726E+00
          2   -1    0    0  501    0  0.00000000000E+00  0.00000000000E+00  0.14899881553E+03  0.14899881555E+03  0.25500000000E-02 0. -1.
         -2   -1    0    0    0  501 -0.00000000000E+00 -0.00000000000E+00 -0.12809244739E+03  0.12809244741E+03  0.25500000000E-02 0.  1.
    5000001    1    1    2    0    0 -0.91729234786E+02  0.54965911490E+02 -0.31151776692E+02  0.13540656236E+03  0.77000000000E+02 0.  0.
   -5000001    1    1    2    0    0  0.91729234786E+02 -0.54965911490E+02  0.52058144837E+02  0.14168470060E+03  0.77000000000E+02 0.  0.
<mgrwt>
<rscale>  0 0.27630145E+03</rscale>
<asrwt>0</asrwt>
<pdfrwt beam="1">  1        2 0.21285545E-01 0.27630145E+03</pdfrwt>
<pdfrwt beam="2">  1       -2 0.18298921E-01 0.27630145E+03</pdfrwt>
<totfact> 0.62787076E+03</totfact>
</mgrwt>
</event>
<event>
 4    1  0.6919593E-004  0.2123946E+03  0.7818608E-02  0.1139684E+00
          2   -1    0    0  501    0  0.00000000000E+00  0.00000000000E+00  0.70109017052E+03  0.70109017052E+03  0.25500000000E-02 0.  1.
         -2   -1    0    0    0  501 -0.00000000000E+00 -0.00000000000E+00 -0.16086192815E+02  0.16086193017E+02  0.25500000000E-02 0. -1.
    5000001    1    1    2    0    0  0.38746622329E+02  0.58161487848E+02  0.26970369261E+03  0.28905560230E+03  0.77000000000E+02 0.  0.
   -5000001    1    1    2    0    0 -0.38746622329E+02 -0.58161487848E+02  0.41530028509E+03  0.42812076124E+03  0.77000000000E+02 0.  0.
<mgrwt>
<rscale>  0 0.21239465E+03</rscale>
<asrwt>0</asrwt>
<pdfrwt beam="1">  1        2 0.10015572E+00 0.21239465E+03</pdfrwt>
<pdfrwt beam="2">  1       -2 0.22980280E-02 0.21239465E+03</pdfrwt>
<totfact> 0.28154051E+04</totfact>
</mgrwt>
</event>
<event>
 4    1  0.6919593E-004  0.1161218E+04  0.7818608E-02  0.9147497E-01
          2   -1    0    0  501    0  0.00000000000E+00  0.00000000000E+00  0.37260839823E+03  0.37260839824E+03  0.25500000000E-02 0.  1.
         -2   -1    0    0    0  501 -0.00000000000E+00 -0.00000000000E+00 -0.90472118193E+03  0.90472118194E+03  0.25500000000E-02 0. -1.
    5000001    1    1    2    0    0 -0.21046210294E+03  0.52683196600E+03 -0.15979760609E+03  0.59439926993E+03  0.77000000000E+02 0.  0.
   -5000001    1    1    2    0    0  0.21046210294E+03 -0.52683196600E+03 -0.37231517761E+03  0.68293031025E+03  0.77000000000E+02 0.  0.
<mgrwt>
<rscale>  0 0.11612178E+04</rscale>
<asrwt>0</asrwt>
<pdfrwt beam="1">  1        2 0.53229771E-01 0.11612178E+04</pdfrwt>
<pdfrwt beam="2">  1       -2 0.12924588E+00 0.11612178E+04</pdfrwt>
<totfact> 0.40839339E+01</totfact>
</mgrwt>
</event>
<event>
 4    1  0.6919593E-004  0.3061380E+03  0.7818608E-02  0.1082212E+00
         -2   -1    0    0    0  501 -0.00000000000E+00  0.00000000000E+00  0.17800517965E+02  0.17800518148E+02  0.25500000000E-02 0. -1.
          2   -1    0    0  501    0  0.00000000000E+00 -0.00000000000E+00 -0.13162609150E+04  0.13162609150E+04  0.25500000000E-02 0.  1.
    5000001    1    1    2    0    0  0.12828164408E+03  0.11622398017E+02 -0.51778425118E+03  0.53909256266E+03  0.77000000000E+02 0.  0.
   -5000001    1    1    2    0    0 -0.12828164408E+03 -0.11622398017E+02 -0.78067614583E+03  0.79496887047E+03  0.77000000000E+02 0.  0.
<mgrwt>
<rscale>  0 0.30613805E+03</rscale>
<asrwt>0</asrwt>
<pdfrwt beam="1">  1        2 0.18803721E+00 0.30613805E+03</pdfrwt>
<pdfrwt beam="2">  1       -2 0.25429320E-02 0.30613805E+03</pdfrwt>
<totfact> 0.10541173E+04</totfact>
</mgrwt>
</event>
<event>
 4    1  0.6919593E-004  0.5391767E+03  0.7818608E-02  0.1004031E+00
         -2   -1    0    0    0  501 -0.00000000000E+00  0.00000000000E+00  0.73191169606E+02  0.73191169650E+02  0.25500000000E-02 0. -1.
          2   -1    0    0  501    0  0.00000000000E+00 -0.00000000000E+00 -0.99298689266E+03  0.99298689266E+03  0.25500000000E-02 0.  1.
    5000001    1    1    2    0    0  0.25664138796E+03  0.59663427248E+00 -0.51868123984E+03  0.58380166713E+03  0.77000000000E+02 0.  0.
   -5000001    1    1    2    0    0 -0.25664138796E+03 -0.59663427248E+00 -0.40111448321E+03  0.48237639518E+03  0.77000000000E+02 0.  0.
<mgrwt>
<rscale>  0 0.53917668E+03</rscale>
<asrwt>0</asrwt>
<pdfrwt beam="1">  1        2 0.14185526E+00 0.53917668E+03</pdfrwt>
<pdfrwt beam="2">  1       -2 0.10455882E-01 0.53917668E+03</pdfrwt>
<totfact> 0.18167427E+03</totfact>
</mgrwt>
</event>
<event>
 4    1  0.6919593E-004  0.4491309E+03  0.7818608E-02  0.1027982E+00
          2   -1    0    0  501    0  0.00000000000E+00  0.00000000000E+00  0.18307975749E+04  0.18307975749E+04  0.25500000000E-02 0.  1.
         -2   -1    0    0    0  501 -0.00000000000E+00 -0.00000000000E+00 -0.27545181894E+02  0.27545182012E+02  0.25500000000E-02 0. -1.
    5000001    1    1    2    0    0 -0.18624725795E+03 -0.43066688509E+02  0.12707323620E+04  0.12873354328E+04  0.77000000000E+02 0.  0.
   -5000001    1    1    2    0    0  0.18624725795E+03  0.43066688509E+02  0.53252003104E+03  0.57100732413E+03  0.77000000000E+02 0.  0.
<mgrwt>
<rscale>  0 0.44913095E+03</rscale>
<asrwt>0</asrwt>
<pdfrwt beam="1">  1        2 0.26154254E+00 0.44913095E+03</pdfrwt>
<pdfrwt beam="2">  1       -2 0.39350256E-02 0.44913095E+03</pdfrwt>
<totfact> 0.30006719E+03</totfact>
</mgrwt>
</event>
<event>
 4    1  0.6919593E-004  0.2117308E+03  0.7818608E-02  0.1140203E+00
         -2   -1    0    0    0  501 -0.00000000000E+00  0.00000000000E+00  0.30307808228E+02  0.30307808336E+02  0.25500000000E-02 0. -1.
          2   -1    0    0  501    0  0.00000000000E+00 -0.00000000000E+00 -0.36978866596E+03  0.36978866597E+03  0.25500000000E-02 0.  1.
    5000001    1    1    2    0    0 -0.32437947244E+02 -0.30367455674E+02 -0.27835948426E+03  0.29221123397E+03  0.77000000000E+02 0.  0.
   -5000001    1    1    2    0    0  0.32437947244E+02  0.30367455674E+02 -0.61121373475E+02  0.10788524033E+03  0.77000000000E+02 0.  0.
<mgrwt>
<rscale>  0 0.21173081E+03</rscale>
<asrwt>0</asrwt>
<pdfrwt beam="1">  1        2 0.52826950E-01 0.21173081E+03</pdfrwt>
<pdfrwt beam="2">  1       -2 0.43296871E-02 0.21173081E+03</pdfrwt>
<totfact> 0.22350203E+04</totfact>
</mgrwt>
</event>
<event>
 4    1  0.6919593E-004  0.2931721E+03  0.7818608E-02  0.1088704E+00
         -2   -1    0    0    0  501 -0.00000000000E+00  0.00000000000E+00  0.19230568107E+02  0.19230568276E+02  0.25500000000E-02 0. -1.
          2   -1    0    0  501    0  0.00000000000E+00 -0.00000000000E+00 -0.11173602955E+04  0.11173602955E+04  0.25500000000E-02 0.  1.
    5000001    1    1    2    0    0  0.11844447960E+03  0.17794516053E+02 -0.41405539365E+03  0.43785455183E+03  0.77000000000E+02 0.  0.
   -5000001    1    1    2    0    0 -0.11844447960E+03 -0.17794516053E+02 -0.68407433369E+03  0.69873631190E+03  0.77000000000E+02 0.  0.
<mgrwt>
<rscale>  0 0.29317212E+03</rscale>
<asrwt>0</asrwt>
<pdfrwt beam="1">  1        2 0.15962286E+00 0.29317212E+03</pdfrwt>
<pdfrwt beam="2">  1       -2 0.27472247E-02 0.29317212E+03</pdfrwt>
<totfact> 0.12033562E+04</totfact>
</mgrwt>
</event>
<event>
 4    1  0.6919593E-004  0.6230843E+03  0.7818608E-02  0.9858638E-01
          2   -1    0    0  501    0  0.00000000000E+00  0.00000000000E+00  0.11740610053E+04  0.11740610053E+04  0.25500000000E-02 0.  1.
         -2   -1    0    0    0  501 -0.00000000000E+00 -0.00000000000E+00 -0.82669058462E+02  0.82669058502E+02  0.25500000000E-02 0. -1.
    5000001    1    1    2    0    0  0.28462232700E+03  0.15256388705E+01  0.34282124452E+03  0.45218093977E+03  0.77000000000E+02 0.  0.
   -5000001    1    1    2    0    0 -0.28462232700E+03 -0.15256388705E+01  0.74857070232E+03  0.80454912402E+03  0.77000000000E+02 0.  0.
<mgrwt>
<rscale>  0 0.62308432E+03</rscale>
<asrwt>0</asrwt>
<pdfrwt beam="1">  1        2 0.16772300E+00 0.62308432E+03</pdfrwt>
<pdfrwt beam="2">  1       -2 0.11809865E-01 0.62308432E+03</pdfrwt>
<totfact> 0.11642567E+03</totfact>
</mgrwt>
</event>
<event>
 4    1  0.6919593E-004  0.2421796E+03  0.7818608E-02  0.1118349E+00
          2   -1    0    0  501    0  0.00000000000E+00  0.00000000000E+00  0.22814687753E+03  0.22814687755E+03  0.25500000000E-02 0.  1.
         -2   -1    0    0    0  501 -0.00000000000E+00 -0.00000000000E+00 -0.64268879492E+02  0.64268879542E+02  0.25500000000E-02 0. -1.
    5000001    1    1    2    0    0 -0.55919965118E+02  0.73407566668E+02  0.64110198909E+02  0.13621611853E+03  0.77000000000E+02 0.  0.
   -5000001    1    1    2    0    0  0.55919965118E+02 -0.73407566668E+02  0.99767799132E+02  0.15619963856E+03  0.77000000000E+02 0.  0.
<mgrwt>
<rscale>  0 0.24217964E+03</rscale>
<asrwt>0</asrwt>
<pdfrwt beam="1">  1        2 0.32592412E-01 0.24217964E+03</pdfrwt>
<pdfrwt beam="2">  1       -2 0.91812682E-02 0.24217964E+03</pdfrwt>
<totfact> 0.11948221E+04</totfact>
</mgrwt>
</event>
<event>
 4    1  0.6919593E-004  0.1953649E+03  0.7818608E-02  0.1153710E+00
         -2   -1    0    0    0  501 -0.00000000000E+00  0.00000000000E+00  0.44465575412E+02  0.44465575485E+02  0.25500000000E-02 0. -1.
          2   -1    0    0  501    0  0.00000000000E+00 -0.00000000000E+00 -0.21458981353E+03  0.21458981355E+03  0.25500000000E-02 0.  1.
    5000001    1    1    2    0    0 -0.51459924579E+02 -0.24512274380E+02 -0.59767527321E+02  0.11291648575E+03  0.77000000000E+02 0.  0.
   -5000001    1    1    2    0    0  0.51459924579E+02  0.24512274380E+02 -0.11035671080E+03  0.14613890328E+03  0.77000000000E+02 0.  0.
<mgrwt>
<rscale>  0 0.19536488E+03</rscale>
<asrwt>0</asrwt>
<pdfrwt beam="1">  1        2 0.30655687E-01 0.19536488E+03</pdfrwt>
<pdfrwt beam="2">  1       -2 0.63522252E-02 0.19536488E+03</pdfrwt>
<totfact> 0.22302028E+04</totfact>
</mgrwt>
</event>
<event>
 4    1  0.6919593E-004  0.2580726E+03  0.7818608E-02  0.1108307E+00
         -2   -1    0    0    0  501 -0.00000000000E+00  0.00000000000E+00  0.40283756711E+02  0.40283756792E+02  0.25500000000E-02 0. -1.
          2   -1    0    0  501    0  0.00000000000E+00 -0.00000000000E+00 -0.41332708273E+03  0.41332708273E+03  0.25500000000E-02 0.  1.
    5000001    1    1    2    0    0 -0.41209299715E+02  0.59242087761E+02 -0.56007803035E+02  0.11947261337E+03  0.77000000000E+02 0.  0.
   -5000001    1    1    2    0    0  0.41209299715E+02 -0.59242087761E+02 -0.31703552298E+03  0.33413822615E+03  0.77000000000E+02 0.  0.
<mgrwt>
<rscale>  0 0.25807261E+03</rscale>
<asrwt>0</asrwt>
<pdfrwt beam="1">  1        2 0.59046724E-01 0.25807261E+03</pdfrwt>
<pdfrwt beam="2">  1       -2 0.57548226E-02 0.25807261E+03</pdfrwt>
<totfact> 0.13035638E+04</totfact>
</mgrwt>
</event>
<event>
 4    1  0.6919593E-004  0.2195721E+03  0.7818608E-02  0.1134202E+00
         -2   -1    0    0    0  501 -0.00000000000E+00  0.00000000000E+00  0.22036903691E+03  0.22036903693E+03  0.25500000000E-02 0. -1.
          2   -1    0    0  501    0  0.00000000000E+00 -0.00000000000E+00 -0.54694503419E+02  0.54694503478E+02  0.25500000000E-02 0.  1.
    5000001    1    1    2    0    0 -0.55122184354E+02  0.51178101228E+02  0.55785305079E+02  0.12123800360E+03  0.77000000000E+02 0.  0.
   -5000001    1    1    2    0    0  0.55122184354E+02 -0.51178101228E+02  0.10988922842E+03  0.15382553681E+03  0.77000000000E+02 0.  0.
<mgrwt>
<rscale>  0 0.21957208E+03</rscale>
<asrwt>0</asrwt>
<pdfrwt beam="1">  1        2 0.78135004E-02 0.21957208E+03</pdfrwt>
<pdfrwt beam="2">  1       -2 0.31481291E-01 0.21957208E+03</pdfrwt>
<totfact> 0.80172496E+03</totfact>
</mgrwt>
</event>
<event>
 4    1  0.6919593E-004  0.2547472E+03  0.7818608E-02  0.1110341E+00
          2   -1    0    0  501    0  0.00000000000E+00  0.00000000000E+00  0.12641462103E+03  0.12641462105E+03  0.25500000000E-02 0.  1.
         -2   -1    0    0    0  501 -0.00000000000E+00 -0.00000000000E+00 -0.12833989881E+03  0.12833989883E+03  0.25500000000E-02 0. -1.
    5000001    1    1    2    0    0 -0.52196214469E+02  0.86989430069E+02 -0.28157778810E+01  0.12739126483E+03  0.77000000000E+02 0.  0.
   -5000001    1    1    2    0    0  0.52196214469E+02 -0.86989430069E+02  0.89050010141E+00  0.12736325506E+03  0.77000000000E+02 0.  0.
<mgrwt>
<rscale>  0 0.25474724E+03</rscale>
<asrwt>0</asrwt>
<pdfrwt beam="1">  1        2 0.18059232E-01 0.25474724E+03</pdfrwt>
<pdfrwt beam="2">  1       -2 0.18334271E-01 0.25474724E+03</pdfrwt>
<totfact> 0.75308524E+03</totfact>
</mgrwt>
</event>
<event>
 4    1  0.6919593E-004  0.3866943E+03  0.7818608E-02  0.1048487E+00
          2   -1    0    0  501    0  0.00000000000E+00  0.00000000000E+00  0.50708773440E+03  0.50708773441E+03  0.25500000000E-02 0.  1.
         -2   -1    0    0    0  501 -0.00000000000E+00 -0.00000000000E+00 -0.73721193604E+02  0.73721193648E+02  0.25500000000E-02 0. -1.
    5000001    1    1    2    0    0  0.49556690027E+02  0.15136911044E+03  0.33385387811E+03  0.37783049778E+03  0.77000000000E+02 0.  0.
   -5000001    1    1    2    0    0 -0.49556690027E+02 -0.15136911044E+03  0.99512662689E+02  0.20297843028E+03  0.77000000000E+02 0.  0.
<mgrwt>
<rscale>  0 0.38669426E+03</rscale>
<asrwt>0</asrwt>
<pdfrwt beam="1">  1        2 0.72441103E-01 0.38669426E+03</pdfrwt>
<pdfrwt beam="2">  1       -2 0.10531599E-01 0.38669426E+03</pdfrwt>
<totfact> 0.40936385E+03</totfact>
</mgrwt>
</event>
<event>
 4    1  0.6919593E-004  0.1891301E+03  0.7818608E-02  0.1159248E+00
          2   -1    0    0  501    0  0.00000000000E+00  0.00000000000E+00  0.24784449874E+03  0.24784449876E+03  0.25500000000E-02 0.  1.
         -2   -1    0    0    0  501 -0.00000000000E+00 -0.00000000000E+00 -0.36081285577E+02  0.36081285667E+02  0.25500000000E-02 0. -1.
    5000001    1    1    2    0    0  0.45406757198E+02 -0.30800626908E+02  0.10852304277E+03  0.14393298103E+03  0.77000000000E+02 0.  0.
   -5000001    1    1    2    0    0 -0.45406757198E+02  0.30800626908E+02  0.10324017040E+03  0.13999280339E+03  0.77000000000E+02 0.  0.
<mgrwt>
<rscale>  0 0.18913009E+03</rscale>
<asrwt>0</asrwt>
<pdfrwt beam="1">  1        2 0.35406357E-01 0.18913009E+03</pdfrwt>
<pdfrwt beam="2">  1       -2 0.51544694E-02 0.18913009E+03</pdfrwt>
<totfact> 0.26150399E+04</totfact>
</mgrwt>
</event>
<event>
 4    1  0.6919593E-004  0.2836106E+03  0.7818608E-02  0.1093733E+00
         -2   -1    0    0    0  501 -0.00000000000E+00  0.00000000000E+00  0.59690860257E+03  0.59690860257E+03  0.25500000000E-02 0. -1.
          2   -1    0    0  501    0  0.00000000000E+00 -0.00000000000E+00 -0.33688143861E+02  0.33688143958E+02  0.25500000000E-02 0.  1.
    5000001    1    1    2    0    0 -0.10554009418E+03 -0.38408175342E+02  0.36959417729E+03  0.39388165139E+03  0.77000000000E+02 0.  0.
   -5000001    1    1    2    0    0  0.10554009418E+03  0.38408175342E+02  0.19362628141E+03  0.23671509514E+03  0.77000000000E+02 0.  0.
<mgrwt>
<rscale>  0 0.28361060E+03</rscale>
<asrwt>0</asrwt>
<pdfrwt beam="1">  1        2 0.48125921E-02 0.28361060E+03</pdfrwt>
<pdfrwt beam="2">  1       -2 0.85272656E-01 0.28361060E+03</pdfrwt>
<totfact> 0.20428905E+03</totfact>
</mgrwt>
</event>
<event>
 4    1  0.6919593E-004  0.1927317E+03  0.7818608E-02  0.1156020E+00
          2   -1    0    0  501    0  0.00000000000E+00  0.00000000000E+00  0.59757605212E+03  0.59757605213E+03  0.25500000000E-02 0.  1.
         -2   -1    0    0    0  501 -0.00000000000E+00 -0.00000000000E+00 -0.15540076517E+02  0.15540076726E+02  0.25500000000E-02 0. -1.
    5000001    1    1    2    0    0  0.35737966183E+01  0.57025776570E+02  0.32164120245E+03  0.33562892356E+03  0.77000000000E+02 0.  0.
   -5000001    1    1    2    0    0 -0.35737966183E+01 -0.57025776570E+02  0.26039477315E+03  0.27748720529E+03  0.77000000000E+02 0.  0.
<mgrwt>
<rscale>  0 0.19273171E+03</rscale>
<asrwt>0</asrwt>
<pdfrwt beam="1">  1        2 0.85368015E-01 0.19273171E+03</pdfrwt>
<pdfrwt beam="2">  1       -2 0.22200108E-02 0.19273171E+03</pdfrwt>
<totfact> 0.35347470E+04</totfact>
</mgrwt>
</event>
<event>
 4    1  0.6919593E-004  0.3389343E+03  0.7818608E-02  0.1067251E+00
         -2   -1    0    0    0  501 -0.00000000000E+00  0.00000000000E+00  0.57362421362E+02  0.57362421419E+02  0.25500000000E-02 0. -1.
          2   -1    0    0  501    0  0.00000000000E+00 -0.00000000000E+00 -0.50066066425E+03  0.50066066426E+03  0.25500000000E-02 0.  1.
    5000001    1    1    2    0    0  0.49377200238E+02 -0.14257150632E+03 -0.22994113445E+03  0.28559878786E+03  0.77000000000E+02 0.  0.
   -5000001    1    1    2    0    0 -0.49377200238E+02  0.14257150632E+03 -0.21335710844E+03  0.27242429782E+03  0.77000000000E+02 0.  0.
<mgrwt>
<rscale>  0 0.33893426E+03</rscale>
<asrwt>0</asrwt>
<pdfrwt beam="1">  1        2 0.71522950E-01 0.33893426E+03</pdfrwt>
<pdfrwt beam="2">  1       -2 0.81946319E-02 0.33893426E+03</pdfrwt>
<totfact> 0.61714578E+03</totfact>
</mgrwt>
</event>
<event>
 4    1  0.6919593E-004  0.1726836E+03  0.7818608E-02  0.1175078E+00
          2   -1    0    0  501    0  0.00000000000E+00  0.00000000000E+00  0.33108001616E+04  0.33108001616E+04  0.25500000000E-02 0.  1.
         -2   -1    0    0    0  501 -0.00000000000E+00 -0.00000000000E+00 -0.22516935357E+01  0.22516949796E+01  0.25500000000E-02 0. -1.
    5000001    1    1    2    0    0 -0.22299071868E+02 -0.24276312087E+02  0.12521424400E+04  0.12549407468E+04  0.77000000000E+02 0.  0.
   -5000001    1    1    2    0    0  0.22299071868E+02  0.24276312087E+02  0.20564060281E+04  0.20581111098E+04  0.77000000000E+02 0.  0.
<mgrwt>
<rscale>  0 0.17268364E+03</rscale>
<asrwt>0</asrwt>
<pdfrwt beam="1">  1        2 0.47296850E+00 0.17268364E+03</pdfrwt>
<pdfrwt beam="2">  1       -2 0.32167261E-03 0.17268364E+03</pdfrwt>
<totfact> 0.20406274E+04</totfact>
</mgrwt>
</event>
<event>
 4    1  0.6919593E-004  0.1789723E+03  0.7818608E-02  0.1168801E+00
         -2   -1    0    0    0  501 -0.00000000000E+00  0.00000000000E+00  0.66260906474E+01  0.66260911381E+01  0.25500000000E-02 0. -1.
          2   -1    0    0  501    0  0.00000000000E+00 -0.00000000000E+00 -0.12085211988E+04  0.12085211988E+04  0.25500000000E-02 0.  1.
    5000001    1    1    2    0    0 -0.21573987978E+02 -0.40044032642E+02 -0.57968216790E+03  0.58654017534E+03  0.77000000000E+02 0.  0.
   -5000001    1    1    2    0    0  0.21573987978E+02  0.40044032642E+02 -0.62221294023E+03  0.62860711457E+03  0.77000000000E+02 0.  0.
<mgrwt>
<rscale>  0 0.17897230E+03</rscale>
<asrwt>0</asrwt>
<pdfrwt beam="1">  1        2 0.17264575E+00 0.17897230E+03</pdfrwt>
<pdfrwt beam="2">  1       -2 0.94658518E-03 0.17897230E+03</pdfrwt>
<totfact> 0.49459660E+04</totfact>
</mgrwt>
</event>
<event>
 4    1  0.6919593E-004  0.3513741E+03  0.7818608E-02  0.1062052E+00
          2   -1    0    0  501    0  0.00000000000E+00  0.00000000000E+00  0.39662117262E+03  0.39662117263E+03  0.25500000000E-02 0.  1.
         -2   -1    0    0    0  501 -0.00000000000E+00 -0.00000000000E+00 -0.77822200766E+02  0.77822200807E+02  0.25500000000E-02 0. -1.
    5000001    1    1    2    0    0  0.50753223023E+02  0.34037962266E+02 -0.37211515229E+02  0.10511027251E+03  0.77000000000E+02 0.  0.
   -5000001    1    1    2    0    0 -0.50753223023E+02 -0.34037962266E+02  0.35601048709E+03  0.36933310092E+03  0.77000000000E+02 0.  0.
<mgrwt>
<rscale>  0 0.35137406E+03</rscale>
<asrwt>0</asrwt>
<pdfrwt beam="1">  1        2 0.56660166E-01 0.35137406E+03</pdfrwt>
<pdfrwt beam="2">  1       -2 0.11117457E-01 0.35137406E+03</pdfrwt>
<totfact> 0.49105913E+03</totfact>
</mgrwt>
</event>
<event>
 4    1  0.6919593E-004  0.1862366E+03  0.7818608E-02  0.1161900E+00
         -2   -1    0    0    0  501 -0.00000000000E+00  0.00000000000E+00  0.10463482146E+02  0.10463482456E+02  0.25500000000E-02 0. -1.
          2   -1    0    0  501    0  0.00000000000E+00 -0.00000000000E+00 -0.82869304625E+03  0.82869304625E+03  0.25500000000E-02 0.  1.
    5000001    1    1    2    0    0  0.44381684230E+02 -0.74416647551E+01 -0.28847011263E+03  0.30194224307E+03  0.77000000000E+02 0.  0.
   -5000001    1    1    2    0    0 -0.44381684230E+02  0.74416647551E+01 -0.52975945147E+03  0.53721428564E+03  0.77000000000E+02 0.  0.
<mgrwt>
<rscale>  0 0.18623657E+03</rscale>
<asrwt>0</asrwt>
<pdfrwt beam="1">  1        2 0.11838468E+00 0.18623657E+03</pdfrwt>
<pdfrwt beam="2">  1       -2 0.14947837E-02 0.18623657E+03</pdfrwt>
<totfact> 0.42666915E+04</totfact>
</mgrwt>
</event>
<event>
 4    1  0.6919593E-004  0.6180162E+03  0.7818608E-02  0.9868717E-01
          2   -1    0    0  501    0  0.00000000000E+00  0.00000000000E+00  0.15631344679E+04  0.15631344679E+04  0.25500000000E-02 0.  1.
         -2   -1    0    0    0  501 -0.00000000000E+00 -0.00000000000E+00 -0.61086236758E+02  0.61086236811E+02  0.25500000000E-02 0. -1.
    5000001    1    1    2    0    0 -0.77053913820E+02  0.23368415021E+03  0.30338333579E+03  0.39814072403E+03  0.77000000000E+02 0.  0.
   -5000001    1    1    2    0    0  0.77053913820E+02 -0.23368415021E+03  0.11986648954E+04  0.12260799807E+04  0.77000000000E+02 0.  0.
<mgrwt>
<rscale>  0 0.61801619E+03</rscale>
<asrwt>0</asrwt>
<pdfrwt beam="1">  1        2 0.22330491E+00 0.61801619E+03</pdfrwt>
<pdfrwt beam="2">  1       -2 0.87266060E-02 0.61801619E+03</pdfrwt>
<totfact> 0.11761494E+03</totfact>
</mgrwt>
</event>
<event>
 4    1  0.6919593E-004  0.1809450E+03  0.7818608E-02  0.1166892E+00
          2   -1    0    0  501    0  0.00000000000E+00  0.00000000000E+00  0.14067044929E+02  0.14067045161E+02  0.25500000000E-02 0.  1.
         -2   -1    0    0    0  501 -0.00000000000E+00 -0.00000000000E+00 -0.58187595134E+03  0.58187595135E+03  0.25500000000E-02 0. -1.
    5000001    1    1    2    0    0 -0.17526626607E+02  0.32937551948E+02 -0.38072505741E+03  0.39022126327E+03  0.77000000000E+02 0.  0.
   -5000001    1    1    2    0    0  0.17526626607E+02 -0.32937551948E+02 -0.18708384900E+03  0.20572173323E+03  0.77000000000E+02 0.  0.
<mgrwt>
<rscale>  0 0.18094502E+03</rscale>
<asrwt>0</asrwt>
<pdfrwt beam="1">  1        2 0.20095782E-02 0.18094502E+03</pdfrwt>
<pdfrwt beam="2">  1       -2 0.83125121E-01 0.18094502E+03</pdfrwt>
<totfact> 0.68769118E+03</totfact>
</mgrwt>
</event>
<event>
 4    1  0.6919593E-004  0.2996822E+03  0.7818608E-02  0.1085400E+00
          2   -1    0    0  501    0  0.00000000000E+00  0.00000000000E+00  0.18540315992E+04  0.18540315992E+04  0.25500000000E-02 0.  1.
         -2   -1    0    0    0  501 -0.00000000000E+00 -0.00000000000E+00 -0.12110014817E+02  0.12110015085E+02  0.25500000000E-02 0. -1.
    5000001    1    1    2    0    0 -0.75186131339E+02 -0.10220677285E+03  0.79271163959E+03  0.80648615754E+03  0.77000000000E+02 0.  0.
   -5000001    1    1    2    0    0  0.75186131339E+02  0.10220677285E+03  0.10492099448E+04  0.10596554567E+04  0.77000000000E+02 0.  0.
<mgrwt>
<rscale>  0 0.29968217E+03</rscale>
<asrwt>0</asrwt>
<pdfrwt beam="1">  1        2 0.26486144E+00 0.29968217E+03</pdfrwt>
<pdfrwt beam="2">  1       -2 0.17300036E-02 0.29968217E+03</pdfrwt>
<totfact> 0.99789197E+03</totfact>
</mgrwt>
</event>
<event>
 4    1  0.6919593E-004  0.3044165E+03  0.7818608E-02  0.1083053E+00
          2   -1    0    0  501    0  0.00000000000E+00  0.00000000000E+00  0.16497261940E+04  0.16497261940E+04  0.25500000000E-02 0.  1.
         -2   -1    0    0    0  501 -0.00000000000E+00 -0.00000000000E+00 -0.14043145642E+02  0.14043145874E+02  0.25500000000E-02 0. -1.
    5000001    1    1    2    0    0  0.81905905960E+02  0.30194027850E+02  0.13538471800E+04  0.13588419494E+04  0.77000000000E+02 0.  0.
   -5000001    1    1    2    0    0 -0.81905905960E+02 -0.30194027850E+02  0.28183586837E+03  0.30492739046E+03  0.77000000000E+02 0.  0.
<mgrwt>
<rscale>  0 0.30441646E+03</rscale>
<asrwt>0</asrwt>
<pdfrwt beam="1">  1        2 0.23567521E+00 0.30441646E+03</pdfrwt>
<pdfrwt beam="2">  1       -2 0.20061633E-02 0.30441646E+03</pdfrwt>
<totfact> 0.10121882E+04</totfact>
</mgrwt>
</event>
<event>
 4    1  0.6919593E-004  0.1828692E+03  0.7818608E-02  0.1165055E+00
          2   -1    0    0  501    0  0.00000000000E+00  0.00000000000E+00  0.17293044121E+03  0.17293044123E+03  0.25500000000E-02 0.  1.
         -2   -1    0    0    0  501 -0.00000000000E+00 -0.00000000000E+00 -0.48344781002E+02  0.48344781069E+02  0.25500000000E-02 0. -1.
    5000001    1    1    2    0    0 -0.20051077857E+02  0.36037488994E+02  0.94997793459E+02  0.12905164508E+03  0.77000000000E+02 0.  0.
   -5000001    1    1    2    0    0  0.20051077857E+02 -0.36037488994E+02  0.29587866752E+02  0.92223577219E+02  0.77000000000E+02 0.  0.
<mgrwt>
<rscale>  0 0.18286918E+03</rscale>
<asrwt>0</asrwt>
<pdfrwt beam="1">  1        2 0.24704349E-01 0.18286918E+03</pdfrwt>
<pdfrwt beam="2">  1       -2 0.69063973E-02 0.18286918E+03</pdfrwt>
<totfact> 0.24732581E+04</totfact>
</mgrwt>
</event>
<event>
 4    1  0.6919593E-004  0.2111757E+03  0.7818608E-02  0.1140638E+00
          2   -1    0    0  501    0  0.00000000000E+00  0.00000000000E+00  0.42513280614E+03  0.42513280615E+03  0.25500000000E-02 0.  1.
         -2   -1    0    0    0  501 -0.00000000000E+00 -0.00000000000E+00 -0.26224251044E+02  0.26224251168E+02  0.25500000000E-02 0. -1.
    5000001    1    1    2    0    0 -0.24106610095E+02  0.50255082801E+02  0.10120369780E+03  0.13884484306E+03  0.77000000000E+02 0.  0.
   -5000001    1    1    2    0    0  0.24106610095E+02 -0.50255082801E+02  0.29770485730E+03  0.31251221425E+03  0.77000000000E+02 0.  0.
<mgrwt>
<rscale>  0 0.21117566E+03</rscale>
<asrwt>0</asrwt>
<pdfrwt beam="1">  1        2 0.60733255E-01 0.21117566E+03</pdfrwt>
<pdfrwt beam="2">  1       -2 0.37463218E-02 0.21117566E+03</pdfrwt>
<totfact> 0.23888903E+04</totfact>
</mgrwt>
</event>
<event>
 4    1  0.6919593E-004  0.2632282E+03  0.7818608E-02  0.1105219E+00
          2   -1    0    0  501    0  0.00000000000E+00  0.00000000000E+00  0.49630554212E+03  0.49630554213E+03  0.25500000000E-02 0.  1.
         -2   -1    0    0    0  501 -0.00000000000E+00 -0.00000000000E+00 -0.34902445740E+02  0.34902445833E+02  0.25500000000E-02 0. -1.
    5000001    1    1    2    0    0 -0.10479911876E+03  0.98651274360E+01  0.26641028669E+03  0.29662032447E+03  0.77000000000E+02 0.  0.
   -5000001    1    1    2    0    0  0.10479911876E+03 -0.98651274360E+01  0.19499280969E+03  0.23458766349E+03  0.77000000000E+02 0.  0.
<mgrwt>
<rscale>  0 0.26322825E+03</rscale>
<asrwt>0</asrwt>
<pdfrwt beam="1">  1        2 0.70900786E-01 0.26322825E+03</pdfrwt>
<pdfrwt beam="2">  1       -2 0.49860641E-02 0.26322825E+03</pdfrwt>
<totfact> 0.13295074E+04</totfact>
</mgrwt>
</event>
<event>
 4    1  0.6919593E-004  0.1904966E+03  0.7818608E-02  0.1158014E+00
          2   -1    0    0  501    0  0.00000000000E+00  0.00000000000E+00  0.44138919530E+03  0.44138919531E+03  0.25500000000E-02 0.  1.
         -2   -1    0    0    0  501 -0.00000000000E+00 -0.00000000000E+00 -0.20553833229E+02  0.20553833388E+02  0.25500000000E-02 0. -1.
    5000001    1    1    2    0    0  0.10270036675E+02 -0.54938183961E+02  0.19969235701E+03  0.22120062197E+03  0.77000000000E+02 0.  0.
   -5000001    1    1    2    0    0 -0.10270036675E+02  0.54938183961E+02  0.22114300506E+03  0.24074240673E+03  0.77000000000E+02 0.  0.
<mgrwt>
<rscale>  0 0.19049661E+03</rscale>
<asrwt>0</asrwt>
<pdfrwt beam="1">  1        2 0.63055596E-01 0.19049661E+03</pdfrwt>
<pdfrwt beam="2">  1       -2 0.29362621E-02 0.19049661E+03</pdfrwt>
<totfact> 0.32679964E+04</totfact>
</mgrwt>
</event>
<event>
 4    1  0.6919593E-004  0.2753543E+03  0.7818608E-02  0.1098254E+00
         -2   -1    0    0    0  501 -0.00000000000E+00  0.00000000000E+00  0.72143762603E+01  0.72143767110E+01  0.25500000000E-02 0. -1.
          2   -1    0    0  501    0  0.00000000000E+00 -0.00000000000E+00 -0.26273927615E+04  0.26273927615E+04  0.25500000000E-02 0.  1.
    5000001    1    1    2    0    0  0.75429483752E+02 -0.84580591032E+02 -0.14393526661E+04  0.14458591151E+04  0.77000000000E+02 0.  0.
   -5000001    1    1    2    0    0 -0.75429483752E+02  0.84580591032E+02 -0.11808257192E+04  0.11887480231E+04  0.77000000000E+02 0.  0.
<mgrwt>
<rscale>  0 0.27535432E+03</rscale>
<asrwt>0</asrwt>
<pdfrwt beam="1">  1        2 0.37534121E+00 0.27535432E+03</pdfrwt>
<pdfrwt beam="2">  1       -2 0.10306269E-02 0.27535432E+03</pdfrwt>
<totfact> 0.88295842E+03</totfact>
</mgrwt>
</event>
<event>
 4    1  0.6919593E-004  0.2192585E+03  0.7818608E-02  0.1134437E+00
          2   -1    0    0  501    0  0.00000000000E+00  0.00000000000E+00  0.53908349045E+03  0.53908349046E+03  0.25500000000E-02 0.  1.
         -2   -1    0    0    0  501 -0.00000000000E+00 -0.00000000000E+00 -0.22294449567E+02  0.22294449713E+02  0.25500000000E-02 0. -1.
    5000001    1    1    2    0    0 -0.90077970038E+01  0.42673416466E+02  0.42407511204E+03  0.43320995087E+03  0.77000000000E+02 0.  0.
   -5000001    1    1    2    0    0  0.90077970038E+01 -0.42673416466E+02  0.92713928844E+02  0.12816798930E+03  0.77000000000E+02 0.  0.
<mgrwt>
<rscale>  0 0.21925848E+03</rscale>
<asrwt>0</asrwt>
<pdfrwt beam="1">  1        2 0.77011914E-01 0.21925848E+03</pdfrwt>
<pdfrwt beam="2">  1       -2 0.31849219E-02 0.21925848E+03</pdfrwt>
<totfact> 0.23523972E+04</totfact>
</mgrwt>
</event>
<event>
 4    1  0.6919593E-004  0.1689813E+03  0.7818608E-02  0.1178914E+00
         -2   -1    0    0    0  501 -0.00000000000E+00  0.00000000000E+00  0.93372171237E+01  0.93372174719E+01  0.25500000000E-02 0. -1.
          2   -1    0    0  501    0  0.00000000000E+00 -0.00000000000E+00 -0.76453894995E+03  0.76453894995E+03  0.25500000000E-02 0.  1.
    5000001    1    1    2    0    0  0.30382639079E+01  0.30052569209E+02 -0.45656221826E+03  0.46399401624E+03  0.77000000000E+02 0.  0.
   -5000001    1    1    2    0    0 -0.30382639079E+01 -0.30052569209E+02 -0.29863951457E+03  0.30988215119E+03  0.77000000000E+02 0.  0.
<mgrwt>
<rscale>  0 0.16898126E+03</rscale>
<asrwt>0</asrwt>
<pdfrwt beam="1">  1        2 0.10921981E+00 0.16898126E+03</pdfrwt>
<pdfrwt beam="2">  1       -2 0.13338887E-02 0.16898126E+03</pdfrwt>
<totfact> 0.55026958E+04</totfact>
</mgrwt>
</event>
<event>
 4    1  0.6919593E-004  0.2622136E+03  0.7818608E-02  0.1105820E+00
         -2   -1    0    0    0  501 -0.00000000000E+00  0.00000000000E+00  0.13853975219E+02  0.13853975453E+02  0.25500000000E-02 0. -1.
          2   -1    0    0  501    0  0.00000000000E+00 -0.00000000000E+00 -0.12407267495E+04  0.12407267495E+04  0.25500000000E-02 0.  1.
    5000001    1    1    2    0    0  0.88804996460E+02  0.41171617004E+02 -0.41741076001E+03  0.43559404497E+03  0.77000000000E+02 0.  0.
   -5000001    1    1    2    0    0 -0.88804996460E+02 -0.41171617004E+02 -0.80946201430E+03  0.81898668001E+03  0.77000000000E+02 0.  0.
<mgrwt>
<rscale>  0 0.26221364E+03</rscale>
<asrwt>0</asrwt>
<pdfrwt beam="1">  1        2 0.17724661E+00 0.26221364E+03</pdfrwt>
<pdfrwt beam="2">  1       -2 0.19791401E-02 0.26221364E+03</pdfrwt>
<totfact> 0.16659263E+04</totfact>
</mgrwt>
</event>
<event>
 4    1  0.6919593E-004  0.3261806E+03  0.7818608E-02  0.1072839E+00
         -2   -1    0    0    0  501 -0.00000000000E+00  0.00000000000E+00  0.89522684273E+01  0.89522687905E+01  0.25500000000E-02 0. -1.
          2   -1    0    0  501    0  0.00000000000E+00 -0.00000000000E+00 -0.29711394811E+04  0.29711394811E+04  0.25500000000E-02 0.  1.
    5000001    1    1    2    0    0 -0.57098552115E+02  0.10559513277E+03 -0.75829175741E+03  0.77158665493E+03  0.77000000000E+02 0.  0.
   -5000001    1    1    2    0    0  0.57098552115E+02 -0.10559513277E+03 -0.22038954552E+04  0.22085050949E+04  0.77000000000E+02 0.  0.
<mgrwt>
<rscale>  0 0.32618056E+03</rscale>
<asrwt>0</asrwt>
<pdfrwt beam="1">  1        2 0.42444787E+00 0.32618056E+03</pdfrwt>
<pdfrwt beam="2">  1       -2 0.12788974E-02 0.32618056E+03</pdfrwt>
<totfact> 0.42725486E+03</totfact>
</mgrwt>
</event>
<event>
 4    1  0.6919593E-004  0.2448133E+03  0.7818608E-02  0.1116627E+00
          2   -1    0    0  501    0  0.00000000000E+00  0.00000000000E+00  0.60265161520E+03  0.60265161521E+03  0.25500000000E-02 0.  1.
         -2   -1    0    0    0  501 -0.00000000000E+00 -0.00000000000E+00 -0.24862435733E+02  0.24862435864E+02  0.25500000000E-02 0. -1.
    5000001    1    1    2    0    0 -0.58653885872E+02  0.69781683498E+02  0.35883970450E+03  0.37815961604E+03  0.77000000000E+02 0.  0.
   -5000001    1    1    2    0    0  0.58653885872E+02 -0.69781683498E+02  0.21894947498E+03  0.24935443503E+03  0.77000000000E+02 0.  0.
<mgrwt>
<rscale>  0 0.24481329E+03</rscale>
<asrwt>0</asrwt>
<pdfrwt beam="1">  1        2 0.86093096E-01 0.24481329E+03</pdfrwt>
<pdfrwt beam="2">  1       -2 0.35517762E-02 0.24481329E+03</pdfrwt>
<totfact> 0.17759331E+04</totfact>
</mgrwt>
</event>
<event>
 4    1  0.6919593E-004  0.2547199E+03  0.7818608E-02  0.1110358E+00
         -2   -1    0    0    0  501 -0.00000000000E+00  0.00000000000E+00  0.68013947895E+01  0.68013952675E+01  0.25500000000E-02 0. -1.
          2   -1    0    0  501    0  0.00000000000E+00 -0.00000000000E+00 -0.23848860302E+04  0.23848860302E+04  0.25500000000E-02 0.  1.
    5000001    1    1    2    0    0 -0.76036683713E+02 -0.31457427560E+02 -0.63193620611E+03  0.64190615795E+03  0.77000000000E+02 0.  0.
   -5000001    1    1    2    0    0  0.76036683713E+02  0.31457427560E+02 -0.17461484293E+04  0.17497812675E+04  0.77000000000E+02 0.  0.
<mgrwt>
<rscale>  0 0.25471986E+03</rscale>
<asrwt>0</asrwt>
<pdfrwt beam="1">  1        2 0.34069747E+00 0.25471986E+03</pdfrwt>
<pdfrwt beam="2">  1       -2 0.97162939E-03 0.25471986E+03</pdfrwt>
<totfact> 0.12699156E+04</totfact>
</mgrwt>
</event>
<event>
 4    1  0.6919593E-004  0.2910167E+03  0.7818608E-02  0.1089820E+00
          2   -1    0    0  501    0  0.00000000000E+00  0.00000000000E+00  0.28559744146E+03  0.28559744147E+03  0.25500000000E-02 0.  1.
         -2   -1    0    0    0  501 -0.00000000000E+00 -0.00000000000E+00 -0.74134689861E+02  0.74134689905E+02  0.25500000000E-02 0. -1.
    5000001    1    1    2    0    0  0.42016264444E+02 -0.74624014088E+02  0.21566681554E+03  0.24448984699E+03  0.77000000000E+02 0.  0.
   -5000001    1    1    2    0    0 -0.42016264444E+02  0.74624014088E+02 -0.42040639423E+01  0.11524228438E+03  0.77000000000E+02 0.  0.
<mgrwt>
<rscale>  0 0.29101669E+03</rscale>
<asrwt>0</asrwt>
<pdfrwt beam="1">  1        2 0.40799635E-01 0.29101669E+03</pdfrwt>
<pdfrwt beam="2">  1       -2 0.10590670E-01 0.29101669E+03</pdfrwt>
<totfact> 0.75311452E+03</totfact>
</mgrwt>
</event>
<event>
 4    1  0.6919593E-004  0.2464564E+03  0.7818608E-02  0.1115565E+00
         -2   -1    0    0    0  501 -0.00000000000E+00  0.00000000000E+00  0.12922908536E+02  0.12922908787E+02  0.25500000000E-02 0. -1.
          2   -1    0    0  501    0  0.00000000000E+00 -0.00000000000E+00 -0.11750592815E+04  0.11750592815E+04  0.25500000000E-02 0.  1.
    5000001    1    1    2    0    0 -0.19181811422E+02 -0.72335978596E+02 -0.28962222712E+03  0.30888585292E+03  0.77000000000E+02 0.  0.
   -5000001    1    1    2    0    0  0.19181811422E+02  0.72335978596E+02 -0.87251414584E+03  0.87909633737E+03  0.77000000000E+02 0.  0.
<mgrwt>
<rscale>  0 0.24645636E+03</rscale>
<asrwt>0</asrwt>
<pdfrwt beam="1">  1        2 0.16786554E+00 0.24645636E+03</pdfrwt>
<pdfrwt beam="2">  1       -2 0.18461306E-02 0.24645636E+03</pdfrwt>
<totfact> 0.19966155E+04</totfact>
</mgrwt>
</event>
<event>
 4    1  0.6919593E-004  0.3338121E+03  0.7818608E-02  0.1069462E+00
          2   -1    0    0  501    0  0.00000000000E+00  0.00000000000E+00  0.16369515519E+03  0.16369515521E+03  0.25500000000E-02 0.  1.
         -2   -1    0    0    0  501 -0.00000000000E+00 -0.00000000000E+00 -0.17017990680E+03  0.17017990682E+03  0.25500000000E-02 0. -1.
    5000001    1    1    2    0    0  0.79158055217E+02 -0.12445156222E+03 -0.16452335906E+02  0.16719410397E+03  0.77000000000E+02 0.  0.
   -5000001    1    1    2    0    0 -0.79158055217E+02  0.12445156222E+03  0.99675842950E+01  0.16668095807E+03  0.77000000000E+02 0.  0.
<mgrwt>
<rscale>  0 0.33381208E+03</rscale>
<asrwt>0</asrwt>
<pdfrwt beam="1">  1        2 0.23385022E-01 0.33381208E+03</pdfrwt>
<pdfrwt beam="2">  1       -2 0.24311415E-01 0.33381208E+03</pdfrwt>
<totfact> 0.34754094E+03</totfact>
</mgrwt>
</event>
<event>
 4    1  0.6919593E-004  0.2685815E+03  0.7818608E-02  0.1102094E+00
          2   -1    0    0  501    0  0.00000000000E+00  0.00000000000E+00  0.29324588730E+03  0.29324588731E+03  0.25500000000E-02 0.  1.
         -2   -1    0    0    0  501 -0.00000000000E+00 -0.00000000000E+00 -0.61497898395E+02  0.61497898448E+02  0.25500000000E-02 0. -1.
    5000001    1    1    2    0    0  0.33107712384E+02 -0.10298774698E+03  0.14236952499E+03  0.19468096541E+03  0.77000000000E+02 0.  0.
   -5000001    1    1    2    0    0 -0.33107712384E+02  0.10298774698E+03  0.89378463912E+02  0.16006282035E+03  0.77000000000E+02 0.  0.
<mgrwt>
<rscale>  0 0.26858150E+03</rscale>
<asrwt>0</asrwt>
<pdfrwt beam="1">  1        2 0.41892271E-01 0.26858150E+03</pdfrwt>
<pdfrwt beam="2">  1       -2 0.87854139E-02 0.26858150E+03</pdfrwt>
<totfact> 0.98120554E+03</totfact>
</mgrwt>
</event>
<event>
 4    1  0.6919593E-004  0.2401274E+03  0.7818608E-02  0.1119708E+00
         -2   -1    0    0    0  501 -0.00000000000E+00  0.00000000000E+00  0.98989985663E+02  0.98989985695E+02  0.25500000000E-02 0.  1.
          2   -1    0    0  501    0  0.00000000000E+00 -0.00000000000E+00 -0.14562380046E+03  0.14562380048E+03  0.25500000000E-02 0. -1.
    5000001    1    1    2    0    0  0.81931181593E+02 -0.28826657438E+02  0.79585438639E+01  0.11634445890E+03  0.77000000000E+02 0.  0.
   -5000001    1    1    2    0    0 -0.81931181593E+02  0.28826657438E+02 -0.54592358662E+02  0.12826932728E+03  0.77000000000E+02 0.  0.
<mgrwt>
<rscale>  0 0.24012745E+03</rscale>
<asrwt>0</asrwt>
<pdfrwt beam="1">  1        2 0.20803400E-01 0.24012745E+03</pdfrwt>
<pdfrwt beam="2">  1       -2 0.14141427E-01 0.24012745E+03</pdfrwt>
<totfact> 0.98315869E+03</totfact>
</mgrwt>
</event>
<event>
 4    1  0.6919593E-004  0.2768893E+03  0.7818608E-02  0.1097400E+00
          2   -1    0    0  501    0  0.00000000000E+00  0.00000000000E+00  0.69809306211E+03  0.69809306211E+03  0.25500000000E-02 0.  1.
         -2   -1    0    0    0  501 -0.00000000000E+00 -0.00000000000E+00 -0.27456115015E+02  0.27456115133E+02  0.25500000000E-02 0. -1.
    5000001    1    1    2    0    0 -0.45615001429E+02  0.10556629357E+03  0.34474912583E+03  0.37149149446E+03  0.77000000000E+02 0.  0.
   -5000001    1    1    2    0    0  0.45615001429E+02 -0.10556629357E+03  0.32588782126E+03  0.35405768278E+03  0.77000000000E+02 0.  0.
<mgrwt>
<rscale>  0 0.27688932E+03</rscale>
<asrwt>0</asrwt>
<pdfrwt beam="1">  1        2 0.99727562E-01 0.27688932E+03</pdfrwt>
<pdfrwt beam="2">  1       -2 0.39223029E-02 0.27688932E+03</pdfrwt>
<totfact> 0.12979382E+04</totfact>
</mgrwt>
</event>
<event>
 4    1  0.6919593E-004  0.2496722E+03  0.7818608E-02  0.1113512E+00
          2   -1    0    0  501    0  0.00000000000E+00  0.00000000000E+00  0.73313823008E+03  0.73313823008E+03  0.25500000000E-02 0.  1.
         -2   -1    0    0    0  501 -0.00000000000E+00 -0.00000000000E+00 -0.21256642787E+02  0.21256642940E+02  0.25500000000E-02 0. -1.
    5000001    1    1    2    0    0 -0.91626107474E+02  0.21230177664E+02  0.44188190814E+03  0.45829541210E+03  0.77000000000E+02 0.  0.
   -5000001    1    1    2    0    0  0.91626107474E+02 -0.21230177664E+02  0.26999967916E+03  0.29609946092E+03  0.77000000000E+02 0.  0.
<mgrwt>
<rscale>  0 0.24967225E+03</rscale>
<asrwt>0</asrwt>
<pdfrwt beam="1">  1        2 0.10473402E+00 0.24967225E+03</pdfrwt>
<pdfrwt beam="2">  1       -2 0.30366637E-02 0.24967225E+03</pdfrwt>
<totfact> 0.17860428E+04</totfact>
</mgrwt>
</event>
<event>
 4    1  0.6919593E-004  0.1902466E+03  0.7818608E-02  0.1158239E+00
         -2   -1    0    0    0  501 -0.00000000000E+00  0.00000000000E+00  0.10889907074E+02  0.10889907372E+02  0.25500000000E-02 0. -1.
          2   -1    0    0  501    0  0.00000000000E+00 -0.00000000000E+00 -0.83090155450E+03  0.83090155450E+03  0.25500000000E-02 0.  1.
    5000001    1    1    2    0    0 -0.32755877105E+01  0.52539858798E+02 -0.32743082991E+03  0.34045721407E+03  0.77000000000E+02 0.  0.
   -5000001    1    1    2    0    0  0.32755877105E+01 -0.52539858798E+02 -0.49258081752E+03  0.50133424780E+03  0.77000000000E+02 0.  0.
<mgrwt>
<rscale>  0 0.19024659E+03</rscale>
<asrwt>0</asrwt>
<pdfrwt beam="1">  1        2 0.11870018E+00 0.19024659E+03</pdfrwt>
<pdfrwt beam="2">  1       -2 0.15557016E-02 0.19024659E+03</pdfrwt>
<totfact> 0.40201881E+04</totfact>
</mgrwt>
</event>
<event>
 4    1  0.6919593E-004  0.2165435E+03  0.7818608E-02  0.1136487E+00
         -2   -1    0    0    0  501 -0.00000000000E+00  0.00000000000E+00  0.17412575901E+02  0.17412576088E+02  0.25500000000E-02 0. -1.
          2   -1    0    0  501    0  0.00000000000E+00 -0.00000000000E+00 -0.67323574816E+03  0.67323574816E+03  0.25500000000E-02 0.  1.
    5000001    1    1    2    0    0  0.23255223392E+02  0.72160627307E+02 -0.34949788485E+03  0.36582199642E+03  0.77000000000E+02 0.  0.
   -5000001    1    1    2    0    0 -0.23255223392E+02 -0.72160627307E+02 -0.30632528740E+03  0.32482632783E+03  0.77000000000E+02 0.  0.
<mgrwt>
<rscale>  0 0.21654347E+03</rscale>
<asrwt>0</asrwt>
<pdfrwt beam="1">  1        2 0.96176519E-01 0.21654347E+03</pdfrwt>
<pdfrwt beam="2">  1       -2 0.24875113E-02 0.21654347E+03</pdfrwt>
<totfact> 0.26311264E+04</totfact>
</mgrwt>
</event>
<event>
 4    1  0.6919593E-004  0.2486068E+03  0.7818608E-02  0.1114188E+00
         -2   -1    0    0    0  501 -0.00000000000E+00  0.00000000000E+00  0.29683799564E+02  0.29683799674E+02  0.25500000000E-02 0. -1.
          2   -1    0    0  501    0  0.00000000000E+00 -0.00000000000E+00 -0.52053100623E+03  0.52053100624E+03  0.25500000000E-02 0.  1.
    5000001    1    1    2    0    0  0.83235367071E+02 -0.33098816485E+02 -0.15974473920E+03  0.19867319821E+03  0.77000000000E+02 0.  0.
   -5000001    1    1    2    0    0 -0.83235367071E+02  0.33098816485E+02 -0.33110246746E+03  0.35154160770E+03  0.77000000000E+02 0.  0.
<mgrwt>
<rscale>  0 0.24860682E+03</rscale>
<asrwt>0</asrwt>
<pdfrwt beam="1">  1        2 0.74361567E-01 0.24860682E+03</pdfrwt>
<pdfrwt beam="2">  1       -2 0.42405431E-02 0.24860682E+03</pdfrwt>
<totfact> 0.16064308E+04</totfact>
</mgrwt>
</event>
<event>
 4    1  0.6919593E-004  0.2113793E+03  0.7818608E-02  0.1140478E+00
         -2   -1    0    0    0  501 -0.00000000000E+00  0.00000000000E+00  0.14873968563E+02  0.14873968782E+02  0.25500000000E-02 0. -1.
          2   -1    0    0  501    0  0.00000000000E+00 -0.00000000000E+00 -0.75099654212E+03  0.75099654213E+03  0.25500000000E-02 0.  1.
    5000001    1    1    2    0    0  0.36753777455E+02  0.49762591720E+02 -0.23181029561E+03  0.25197652439E+03  0.77000000000E+02 0.  0.
   -5000001    1    1    2    0    0 -0.36753777455E+02 -0.49762591720E+02 -0.50431227795E+03  0.51389398652E+03  0.77000000000E+02 0.  0.
<mgrwt>
<rscale>  0 0.21137927E+03</rscale>
<asrwt>0</asrwt>
<pdfrwt beam="1">  1        2 0.10728520E+00 0.21137927E+03</pdfrwt>
<pdfrwt beam="2">  1       -2 0.21248531E-02 0.21137927E+03</pdfrwt>
<totfact> 0.29092428E+04</totfact>
</mgrwt>
</event>
<event>
 4    1  0.6919593E-004  0.3233427E+03  0.7818608E-02  0.1074121E+00
         -2   -1    0    0    0  501 -0.00000000000E+00  0.00000000000E+00  0.10568341709E+02  0.10568342017E+02  0.25500000000E-02 0. -1.
          2   -1    0    0  501    0  0.00000000000E+00 -0.00000000000E+00 -0.24731999850E+04  0.24731999850E+04  0.25500000000E-02 0.  1.
    5000001    1    1    2    0    0  0.13557255622E+03  0.29388327172E+02 -0.99268929812E+03  0.10052883340E+04  0.77000000000E+02 0.  0.
   -5000001    1    1    2    0    0 -0.13557255622E+03 -0.29388327172E+02 -0.14699423452E+04  0.14784799931E+04  0.77000000000E+02 0.  0.
<mgrwt>
<rscale>  0 0.32334268E+03</rscale>
<asrwt>0</asrwt>
<pdfrwt beam="1">  1        2 0.35331391E+00 0.32334268E+03</pdfrwt>
<pdfrwt beam="2">  1       -2 0.15097647E-02 0.32334268E+03</pdfrwt>
<totfact> 0.60418094E+03</totfact>
</mgrwt>
</event>
<event>
 4    1  0.6919593E-004  0.2247489E+03  0.7818608E-02  0.1130391E+00
          2   -1    0    0  501    0  0.00000000000E+00  0.00000000000E+00  0.71144713676E+02  0.71144713722E+02  0.25500000000E-02 0.  1.
         -2   -1    0    0    0  501 -0.00000000000E+00 -0.00000000000E+00 -0.17749756474E+03  0.17749756476E+03  0.25500000000E-02 0. -1.
    5000001    1    1    2    0    0 -0.55296067947E+02 -0.27050328610E+02 -0.11285204628E+03  0.14984645394E+03  0.77000000000E+02 0.  0.
   -5000001    1    1    2    0    0  0.55296067947E+02  0.27050328610E+02  0.64991952179E+01  0.98795824541E+02  0.77000000000E+02 0.  0.
<mgrwt>
<rscale>  0 0.22474887E+03</rscale>
<asrwt>0</asrwt>
<pdfrwt beam="1">  1        2 0.10163531E-01 0.22474887E+03</pdfrwt>
<pdfrwt beam="2">  1       -2 0.25356795E-01 0.22474887E+03</pdfrwt>
<totfact> 0.85120545E+03</totfact>
</mgrwt>
</event>
<event>
 4    1  0.6919593E-004  0.3188675E+03  0.7818608E-02  0.1076172E+00
         -2   -1    0    0    0  501 -0.00000000000E+00  0.00000000000E+00  0.16187249245E+03  0.16187249247E+03  0.25500000000E-02 0. -1.
          2   -1    0    0  501    0  0.00000000000E+00 -0.00000000000E+00 -0.15703170451E+03  0.15703170453E+03  0.25500000000E-02 0.  1.
    5000001    1    1    2    0    0  0.11040438125E+03  0.84291536401E+02 -0.11578465129E+02  0.15923960362E+03  0.77000000000E+02 0.  0.
   -5000001    1    1    2    0    0 -0.11040438125E+03 -0.84291536401E+02  0.16419253076E+02  0.15966459338E+03  0.77000000000E+02 0.  0.
<mgrwt>
<rscale>  0 0.31886745E+03</rscale>
<asrwt>0</asrwt>
<pdfrwt beam="1">  1        2 0.22433101E-01 0.31886745E+03</pdfrwt>
<pdfrwt beam="2">  1       -2 0.23124642E-01 0.31886745E+03</pdfrwt>
<totfact> 0.39731201E+03</totfact>
</mgrwt>
</event>
<event>
 4    1  0.6919593E-004  0.2144116E+03  0.7818608E-02  0.1138119E+00
         -2   -1    0    0    0  501 -0.00000000000E+00  0.00000000000E+00  0.13136892987E+02  0.13136893234E+02  0.25500000000E-02 0. -1.
          2   -1    0    0  501    0  0.00000000000E+00 -0.00000000000E+00 -0.87487087368E+03  0.87487087368E+03  0.25500000000E-02 0.  1.
    5000001    1    1    2    0    0 -0.31924044918E+01 -0.72749637691E+02 -0.36390815445E+03  0.37902618129E+03  0.77000000000E+02 0.  0.
   -5000001    1    1    2    0    0  0.31924044918E+01  0.72749637691E+02 -0.49782582624E+03  0.50898158562E+03  0.77000000000E+02 0.  0.
<mgrwt>
<rscale>  0 0.21441161E+03</rscale>
<asrwt>0</asrwt>
<pdfrwt beam="1">  1        2 0.12498152E+00 0.21441161E+03</pdfrwt>
<pdfrwt beam="2">  1       -2 0.18766996E-02 0.21441161E+03</pdfrwt>
<totfact> 0.28922960E+04</totfact>
</mgrwt>
</event>
<event>
 4    1  0.6919593E-004  0.2704499E+03  0.7818608E-02  0.1101022E+00
         -2   -1    0    0    0  501 -0.00000000000E+00  0.00000000000E+00  0.11126953575E+03  0.11126953578E+03  0.25500000000E-02 0. -1.
          2   -1    0    0  501    0  0.00000000000E+00 -0.00000000000E+00 -0.16433782215E+03  0.16433782217E+03  0.25500000000E-02 0.  1.
    5000001    1    1    2    0    0 -0.93521380524E+02  0.31767007767E+02  0.25442428127E+02  0.12779557327E+03  0.77000000000E+02 0.  0.
   -5000001    1    1    2    0    0  0.93521380524E+02 -0.31767007767E+02 -0.78510714525E+02  0.14781178469E+03  0.77000000000E+02 0.  0.
<mgrwt>
<rscale>  0 0.27044994E+03</rscale>
<asrwt>0</asrwt>
<pdfrwt beam="1">  1        2 0.23476832E-01 0.27044994E+03</pdfrwt>
<pdfrwt beam="2">  1       -2 0.15895648E-01 0.27044994E+03</pdfrwt>
<totfact> 0.71100234E+03</totfact>
</mgrwt>
</event>
<event>
 4    1  0.6919593E-004  0.2467913E+03  0.7818608E-02  0.1115350E+00
         -2   -1    0    0    0  501 -0.00000000000E+00  0.00000000000E+00  0.12769772391E+02  0.12769772645E+02  0.25500000000E-02 0.  1.
          2   -1    0    0  501    0  0.00000000000E+00 -0.00000000000E+00 -0.11923851681E+04  0.11923851681E+04  0.25500000000E-02 0. -1.
    5000001    1    1    2    0    0  0.52049086903E+02 -0.66677590413E+02 -0.36377498481E+03  0.38133482412E+03  0.77000000000E+02 0.  0.
   -5000001    1    1    2    0    0 -0.52049086903E+02  0.66677590413E+02 -0.81584041091E+03  0.82382011664E+03  0.77000000000E+02 0.  0.
<mgrwt>
<rscale>  0 0.24679131E+03</rscale>
<asrwt>0</asrwt>
<pdfrwt beam="1">  1        2 0.17034067E+00 0.24679131E+03</pdfrwt>
<pdfrwt beam="2">  1       -2 0.18242540E-02 0.24679131E+03</pdfrwt>
<totfact> 0.19883143E+04</totfact>
</mgrwt>
</event>
<event>
 4    1  0.6919593E-004  0.2936416E+03  0.7818608E-02  0.1088463E+00
          2   -1    0    0  501    0  0.00000000000E+00  0.00000000000E+00  0.29002596712E+03  0.29002596713E+03  0.25500000000E-02 0.  1.
         -2   -1    0    0    0  501 -0.00000000000E+00 -0.00000000000E+00 -0.74325585027E+02  0.74325585071E+02  0.25500000000E-02 0. -1.
    5000001    1    1    2    0    0  0.10108324905E+03  0.20783940749E+01  0.19907420393E+03  0.23618145912E+03  0.77000000000E+02 0.  0.
   -5000001    1    1    2    0    0 -0.10108324905E+03 -0.20783940749E+01  0.16626178158E+02  0.12817009308E+03  0.77000000000E+02 0.  0.
<mgrwt>
<rscale>  0 0.29364162E+03</rscale>
<asrwt>0</asrwt>
<pdfrwt beam="1">  1        2 0.41432281E-01 0.29364162E+03</pdfrwt>
<pdfrwt beam="2">  1       -2 0.10617941E-01 0.29364162E+03</pdfrwt>
<totfact> 0.73791448E+03</totfact>
</mgrwt>
</event>
<event>
 4    1  0.6919593E-004  0.2928095E+03  0.7818608E-02  0.1088891E+00
         -2   -1    0    0    0  501 -0.00000000000E+00  0.00000000000E+00  0.10738281473E+03  0.10738281476E+03  0.25500000000E-02 0. -1.
          2   -1    0    0  501    0  0.00000000000E+00 -0.00000000000E+00 -0.19960695297E+03  0.19960695298E+03  0.25500000000E-02 0.  1.
    5000001    1    1    2    0    0 -0.39487564554E+02 -0.11809355760E+03 -0.46092297438E+02  0.15348894418E+03  0.77000000000E+02 0.  0.
   -5000001    1    1    2    0    0  0.39487564554E+02  0.11809355760E+03 -0.46131840795E+02  0.15350082357E+03  0.77000000000E+02 0.  0.
<mgrwt>
<rscale>  0 0.29280954E+03</rscale>
<asrwt>0</asrwt>
<pdfrwt beam="1">  1        2 0.28515279E-01 0.29280954E+03</pdfrwt>
<pdfrwt beam="2">  1       -2 0.15340402E-01 0.29280954E+03</pdfrwt>
<totfact> 0.60915122E+03</totfact>
</mgrwt>
</event>
<event>
 4    1  0.6919593E-004  0.2717023E+03  0.7818608E-02  0.1100309E+00
         -2   -1    0    0    0  501 -0.00000000000E+00  0.00000000000E+00  0.11646668446E+03  0.11646668449E+03  0.25500000000E-02 0. -1.
          2   -1    0    0  501    0  0.00000000000E+00 -0.00000000000E+00 -0.15846197973E+03  0.15846197975E+03  0.25500000000E-02 0.  1.
    5000001    1    1    2    0    0  0.64327515645E+02 -0.74362346934E+02  0.33104559796E+02  0.12920023138E+03  0.77000000000E+02 0.  0.
   -5000001    1    1    2    0    0 -0.64327515645E+02  0.74362346934E+02 -0.75099855062E+02  0.14572843285E+03  0.77000000000E+02 0.  0.
<mgrwt>
<rscale>  0 0.27170235E+03</rscale>
<asrwt>0</asrwt>
<pdfrwt beam="1">  1        2 0.22637426E-01 0.27170235E+03</pdfrwt>
<pdfrwt beam="2">  1       -2 0.16638098E-01 0.27170235E+03</pdfrwt>
<totfact> 0.68663857E+03</totfact>
</mgrwt>
</event>
<event>
 4    1  0.6919593E-004  0.1814278E+03  0.7818608E-02  0.1166428E+00
         -2   -1    0    0    0  501 -0.00000000000E+00  0.00000000000E+00  0.98983541037E+01  0.98983544322E+01  0.25500000000E-02 0. -1.
          2   -1    0    0  501    0  0.00000000000E+00 -0.00000000000E+00 -0.83135145549E+03  0.83135145550E+03  0.25500000000E-02 0.  1.
    5000001    1    1    2    0    0 -0.90445620415E+01  0.36231930873E+02 -0.27120078101E+03  0.28438252502E+03  0.77000000000E+02 0.  0.
   -5000001    1    1    2    0    0  0.90445620415E+01 -0.36231930873E+02 -0.55025232038E+03  0.55686728491E+03  0.77000000000E+02 0.  0.
<mgrwt>
<rscale>  0 0.18142780E+03</rscale>
<asrwt>0</asrwt>
<pdfrwt beam="1">  1        2 0.11876445E+00 0.18142780E+03</pdfrwt>
<pdfrwt beam="2">  1       -2 0.14140511E-02 0.18142780E+03</pdfrwt>
<totfact> 0.45956189E+04</totfact>
</mgrwt>
</event>
<event>
 4    1  0.6919593E-004  0.4565100E+03  0.7818608E-02  0.1025798E+00
          2   -1    0    0  501    0  0.00000000000E+00  0.00000000000E+00  0.65751136537E+03  0.65751136538E+03  0.25500000000E-02 0.  1.
         -2   -1    0    0    0  501 -0.00000000000E+00 -0.00000000000E+00 -0.79238684303E+02  0.79238684344E+02  0.25500000000E-02 0. -1.
    5000001    1    1    2    0    0  0.18421449379E+03 -0.89838059484E+02  0.18497600124E+03  0.28661991852E+03  0.77000000000E+02 0.  0.
   -5000001    1    1    2    0    0 -0.18421449379E+03  0.89838059484E+02  0.39329667983E+03  0.45013013121E+03  0.77000000000E+02 0.  0.
<mgrwt>
<rscale>  0 0.45650996E+03</rscale>
<asrwt>0</asrwt>
<pdfrwt beam="1">  1        2 0.93930201E-01 0.45650996E+03</pdfrwt>
<pdfrwt beam="2">  1       -2 0.11319811E-01 0.45650996E+03</pdfrwt>
<totfact> 0.27053137E+03</totfact>
</mgrwt>
</event>
<event>
 4    1  0.6919593E-004  0.1855018E+03  0.7818608E-02  0.1162582E+00
          2   -1    0    0  501    0  0.00000000000E+00  0.00000000000E+00  0.15331645784E+04  0.15331645784E+04  0.25500000000E-02 0.  1.
         -2   -1    0    0    0  501 -0.00000000000E+00 -0.00000000000E+00 -0.56110927828E+01  0.56110933622E+01  0.25500000000E-02 0. -1.
    5000001    1    1    2    0    0 -0.40080829763E+02  0.18569912536E+02  0.98673339925E+03  0.99071848461E+03  0.77000000000E+02 0.  0.
   -5000001    1    1    2    0    0  0.40080829763E+02 -0.18569912536E+02  0.54082008639E+03  0.54805718717E+03  0.77000000000E+02 0.  0.
<mgrwt>
<rscale>  0 0.18550180E+03</rscale>
<asrwt>0</asrwt>
<pdfrwt beam="1">  1        2 0.21902373E+00 0.18550180E+03</pdfrwt>
<pdfrwt beam="2">  1       -2 0.80158393E-03 0.18550180E+03</pdfrwt>
<totfact> 0.42964834E+04</totfact>
</mgrwt>
</event>
<event>
 4    1  0.6919593E-004  0.2892697E+03  0.7818608E-02  0.1090731E+00
          2   -1    0    0  501    0  0.00000000000E+00  0.00000000000E+00  0.25934328491E+04  0.25934328491E+04  0.25500000000E-02 0.  1.
         -2   -1    0    0    0  501 -0.00000000000E+00 -0.00000000000E+00 -0.80662360322E+01  0.80662364353E+01  0.25500000000E-02 0. -1.
    5000001    1    1    2    0    0 -0.21795502560E+02  0.86818435558E+02  0.54144341606E+03  0.55416825737E+03  0.77000000000E+02 0.  0.
   -5000001    1    1    2    0    0  0.21795502560E+02 -0.86818435558E+02  0.20439231970E+04  0.20473308282E+04  0.77000000000E+02 0.  0.
<mgrwt>
<rscale>  0 0.28926972E+03</rscale>
<asrwt>0</asrwt>
<pdfrwt beam="1">  1        2 0.37049110E+00 0.28926972E+03</pdfrwt>
<pdfrwt beam="2">  1       -2 0.11523173E-02 0.28926972E+03</pdfrwt>
<totfact> 0.78084904E+03</totfact>
</mgrwt>
</event>
<event>
 4    1  0.6919593E-004  0.2485250E+03  0.7818608E-02  0.1114241E+00
         -2   -1    0    0    0  501 -0.00000000000E+00  0.00000000000E+00  0.16178886906E+02  0.16178887107E+02  0.25500000000E-02 0. -1.
          2   -1    0    0  501    0  0.00000000000E+00 -0.00000000000E+00 -0.95440223661E+03  0.95440223661E+03  0.25500000000E-02 0.  1.
    5000001    1    1    2    0    0 -0.25179489286E+02 -0.82403860540E+02 -0.29066748911E+03  0.31279544775E+03  0.77000000000E+02 0.  0.
   -5000001    1    1    2    0    0  0.25179489286E+02  0.82403860540E+02 -0.64755586060E+03  0.65778567597E+03  0.77000000000E+02 0.  0.
<mgrwt>
<rscale>  0 0.24852498E+03</rscale>
<asrwt>0</asrwt>
<pdfrwt beam="1">  1        2 0.13634314E+00 0.24852498E+03</pdfrwt>
<pdfrwt beam="2">  1       -2 0.23112702E-02 0.24852498E+03</pdfrwt>
<totfact> 0.19194176E+04</totfact>
</mgrwt>
</event>
<event>
 4    1  0.6919593E-004  0.1859025E+03  0.7818608E-02  0.1162210E+00
          2   -1    0    0  501    0  0.00000000000E+00  0.00000000000E+00  0.65317320698E+03  0.65317320698E+03  0.25500000000E-02 0.  1.
         -2   -1    0    0    0  501 -0.00000000000E+00 -0.00000000000E+00 -0.13227633610E+02  0.13227633856E+02  0.25500000000E-02 0. -1.
    5000001    1    1    2    0    0 -0.38471538632E+02  0.34385087023E+02  0.29499746166E+03  0.30921658409E+03  0.77000000000E+02 0.  0.
   -5000001    1    1    2    0    0  0.38471538632E+02 -0.34385087023E+02  0.34494811171E+03  0.35718425675E+03  0.77000000000E+02 0.  0.
<mgrwt>
<rscale>  0 0.18590251E+03</rscale>
<asrwt>0</asrwt>
<pdfrwt beam="1">  1        2 0.93310456E-01 0.18590251E+03</pdfrwt>
<pdfrwt beam="2">  1       -2 0.18896620E-02 0.18590251E+03</pdfrwt>
<totfact> 0.40292716E+04</totfact>
</mgrwt>
</event>
<event>
 4    1  0.6919593E-004  0.4400443E+03  0.7818608E-02  0.1030733E+00
          2   -1    0    0  501    0  0.00000000000E+00  0.00000000000E+00  0.10123639021E+04  0.10123639021E+04  0.25500000000E-02 0.  1.
         -2   -1    0    0    0  501 -0.00000000000E+00 -0.00000000000E+00 -0.47818515922E+02  0.47818515990E+02  0.25500000000E-02 0. -1.
    5000001    1    1    2    0    0  0.10391805115E+03  0.13730711978E+03  0.75515333370E+03  0.77835580803E+03  0.77000000000E+02 0.  0.
   -5000001    1    1    2    0    0 -0.10391805115E+03 -0.13730711978E+03  0.20939205246E+03  0.28182661004E+03  0.77000000000E+02 0.  0.
<mgrwt>
<rscale>  0 0.44004427E+03</rscale>
<asrwt>0</asrwt>
<pdfrwt beam="1">  1        2 0.14462341E+00 0.44004427E+03</pdfrwt>
<pdfrwt beam="2">  1       -2 0.68312169E-02 0.44004427E+03</pdfrwt>
<totfact> 0.34837643E+03</totfact>
</mgrwt>
</event>
<event>
 4    1  0.6919593E-004  0.4358876E+03  0.7818608E-02  0.1032016E+00
         -2   -1    0    0    0  501 -0.00000000000E+00  0.00000000000E+00  0.23898471141E+03  0.23898471143E+03  0.25500000000E-02 0. -1.
          2   -1    0    0  501    0  0.00000000000E+00 -0.00000000000E+00 -0.19875538078E+03  0.19875538079E+03  0.25500000000E-02 0.  1.
    5000001    1    1    2    0    0  0.10983399532E+03  0.17174949509E+03  0.17084935571E+02  0.21859160691E+03  0.77000000000E+02 0.  0.
   -5000001    1    1    2    0    0 -0.10983399532E+03 -0.17174949509E+03  0.23144395066E+02  0.21914848531E+03  0.77000000000E+02 0.  0.
<mgrwt>
<rscale>  0 0.43588759E+03</rscale>
<asrwt>0</asrwt>
<pdfrwt beam="1">  1        2 0.28393626E-01 0.43588759E+03</pdfrwt>
<pdfrwt beam="2">  1       -2 0.34140673E-01 0.43588759E+03</pdfrwt>
<totfact> 0.15133542E+03</totfact>
</mgrwt>
</event>
<event>
 4    1  0.6919593E-004  0.1836940E+03  0.7818608E-02  0.1164275E+00
         -2   -1    0    0    0  501 -0.00000000000E+00  0.00000000000E+00  0.33880650890E+02  0.33880650986E+02  0.25500000000E-02 0. -1.
          2   -1    0    0  501    0  0.00000000000E+00 -0.00000000000E+00 -0.24898788574E+03  0.24898788575E+03  0.25500000000E-02 0.  1.
    5000001    1    1    2    0    0  0.18839342488E+02  0.45976227764E+02 -0.11706327012E+03  0.14866587893E+03  0.77000000000E+02 0.  0.
   -5000001    1    1    2    0    0 -0.18839342488E+02 -0.45976227764E+02 -0.98043964724E+02  0.13420265781E+03  0.77000000000E+02 0.  0.
<mgrwt>
<rscale>  0 0.18369400E+03</rscale>
<asrwt>0</asrwt>
<pdfrwt beam="1">  1        2 0.35569697E-01 0.18369400E+03</pdfrwt>
<pdfrwt beam="2">  1       -2 0.48400931E-02 0.18369400E+03</pdfrwt>
<totfact> 0.28542296E+04</totfact>
</mgrwt>
</event>
<event>
 4    1  0.6919593E-004  0.2611476E+03  0.7818608E-02  0.1106456E+00
         -2   -1    0    0    0  501 -0.00000000000E+00  0.00000000000E+00  0.76659215179E+02  0.76659215221E+02  0.25500000000E-02 0. -1.
          2   -1    0    0  501    0  0.00000000000E+00 -0.00000000000E+00 -0.22240655069E+03  0.22240655070E+03  0.25500000000E-02 0.  1.
    5000001    1    1    2    0    0  0.33931500104E+02  0.30908836748E+02 -0.18160004164E+03  0.20251982129E+03  0.77000000000E+02 0.  0.
   -5000001    1    1    2    0    0 -0.33931500104E+02 -0.30908836748E+02  0.35852706136E+02  0.96545944636E+02  0.77000000000E+02 0.  0.
<mgrwt>
<rscale>  0 0.26114756E+03</rscale>
<asrwt>0</asrwt>
<pdfrwt beam="1">  1        2 0.31772364E-01 0.26114756E+03</pdfrwt>
<pdfrwt beam="2">  1       -2 0.10951317E-01 0.26114756E+03</pdfrwt>
<totfact> 0.93207672E+03</totfact>
</mgrwt>
</event>
<event>
 4    1  0.6919593E-004  0.1750332E+03  0.7818608E-02  0.1172698E+00
          2   -1    0    0  501    0  0.00000000000E+00  0.00000000000E+00  0.46418138302E+02  0.46418138372E+02  0.25500000000E-02 0.  1.
         -2   -1    0    0    0  501 -0.00000000000E+00 -0.00000000000E+00 -0.16500352773E+03  0.16500352775E+03  0.25500000000E-02 0. -1.
    5000001    1    1    2    0    0 -0.29067052815E+02  0.26922531838E+02 -0.43992894706E+02  0.97129249274E+02  0.77000000000E+02 0.  0.
   -5000001    1    1    2    0    0  0.29067052815E+02 -0.26922531838E+02 -0.74592494721E+02  0.11429241685E+03  0.77000000000E+02 0.  0.
<mgrwt>
<rscale>  0 0.17503321E+03</rscale>
<asrwt>0</asrwt>
<pdfrwt beam="1">  1        2 0.66311627E-02 0.17503321E+03</pdfrwt>
<pdfrwt beam="2">  1       -2 0.23571932E-01 0.17503321E+03</pdfrwt>
<totfact> 0.16275365E+04</totfact>
</mgrwt>
</event>
<event>
 4    1  0.6919593E-004  0.3897812E+03  0.7818608E-02  0.1047377E+00
          2   -1    0    0  501    0  0.00000000000E+00  0.00000000000E+00  0.25811432680E+04  0.25811432680E+04  0.25500000000E-02 0.  1.
         -2   -1    0    0    0  501 -0.00000000000E+00 -0.00000000000E+00 -0.14715321377E+02  0.14715321598E+02  0.25500000000E-02 0. -1.
    5000001    1    1    2    0    0 -0.99436973189E+01 -0.16906254887E+03  0.89646856692E+03  0.91556862879E+03  0.77000000000E+02 0.  0.
   -5000001    1    1    2    0    0  0.99436973189E+01  0.16906254887E+03  0.16699593797E+04  0.16802899608E+04  0.77000000000E+02 0.  0.
<mgrwt>
<rscale>  0 0.38978124E+03</rscale>
<asrwt>0</asrwt>
<pdfrwt beam="1">  1        2 0.36873461E+00 0.38978124E+03</pdfrwt>
<pdfrwt beam="2">  1       -2 0.21021896E-02 0.38978124E+03</pdfrwt>
<totfact> 0.32587982E+03</totfact>
</mgrwt>
</event>
<event>
 4    1  0.6919593E-004  0.2057361E+03  0.7818608E-02  0.1144988E+00
          2   -1    0    0  501    0  0.00000000000E+00  0.00000000000E+00  0.79209232559E+03  0.79209232559E+03  0.25500000000E-02 0.  1.
         -2   -1    0    0    0  501 -0.00000000000E+00 -0.00000000000E+00 -0.13359346470E+02  0.13359346713E+02  0.25500000000E-02 0. -1.
    5000001    1    1    2    0    0  0.60783762304E+02 -0.10072035824E+02  0.50395722582E+03  0.51351533290E+03  0.77000000000E+02 0.  0.
   -5000001    1    1    2    0    0 -0.60783762304E+02  0.10072035824E+02  0.27477575329E+03  0.29193633940E+03  0.77000000000E+02 0.  0.
<mgrwt>
<rscale>  0 0.20573610E+03</rscale>
<asrwt>0</asrwt>
<pdfrwt beam="1">  1        2 0.11315604E+00 0.20573610E+03</pdfrwt>
<pdfrwt beam="2">  1       -2 0.19084781E-02 0.20573610E+03</pdfrwt>
<totfact> 0.31852563E+04</totfact>
</mgrwt>
</event>
<event>
 4    1  0.6919593E-004  0.2241747E+03  0.7818608E-02  0.1130808E+00
         -2   -1    0    0    0  501 -0.00000000000E+00  0.00000000000E+00  0.67652419256E+01  0.67652424061E+01  0.25500000000E-02 0. -1.
          2   -1    0    0  501    0  0.00000000000E+00 -0.00000000000E+00 -0.18570768311E+04  0.18570768311E+04  0.25500000000E-02 0.  1.
    5000001    1    1    2    0    0 -0.46906047206E+02 -0.65292684622E+02 -0.10339620133E+04  0.10399373812E+04  0.77000000000E+02 0.  0.
   -5000001    1    1    2    0    0  0.46906047206E+02  0.65292684622E+02 -0.81634957591E+03  0.82390469232E+03  0.77000000000E+02 0.  0.
<mgrwt>
<rscale>  0 0.22417470E+03</rscale>
<asrwt>0</asrwt>
<pdfrwt beam="1">  1        2 0.26529637E+00 0.22417470E+03</pdfrwt>
<pdfrwt beam="2">  1       -2 0.96646435E-03 0.22417470E+03</pdfrwt>
<totfact> 0.23038132E+04</totfact>
</mgrwt>
</event>
<event>
 4    1  0.6919593E-004  0.2697988E+03  0.7818608E-02  0.1101395E+00
          2   -1    0    0  501    0  0.00000000000E+00  0.00000000000E+00  0.49575065732E+03  0.49575065733E+03  0.25500000000E-02 0.  1.
         -2   -1    0    0    0  501 -0.00000000000E+00 -0.00000000000E+00 -0.36707651657E+02  0.36707651746E+02  0.25500000000E-02 0. -1.
    5000001    1    1    2    0    0  0.71908212831E+02 -0.51124082009E+02  0.97362471140E+02  0.15229219816E+03  0.77000000000E+02 0.  0.
   -5000001    1    1    2    0    0 -0.71908212831E+02  0.51124082009E+02  0.36168053452E+03  0.38016611091E+03  0.77000000000E+02 0.  0.
<mgrwt>
<rscale>  0 0.26979876E+03</rscale>
<asrwt>0</asrwt>
<pdfrwt beam="1">  1        2 0.70821520E-01 0.26979876E+03</pdfrwt>
<pdfrwt beam="2">  1       -2 0.52439504E-02 0.26979876E+03</pdfrwt>
<totfact> 0.12343241E+04</totfact>
</mgrwt>
</event>
<event>
 4    1  0.6919593E-004  0.2759907E+03  0.7818608E-02  0.1097899E+00
         -2   -1    0    0    0  501 -0.00000000000E+00  0.00000000000E+00  0.17817434650E+02  0.17817434833E+02  0.25500000000E-02 0. -1.
          2   -1    0    0  501    0  0.00000000000E+00 -0.00000000000E+00 -0.10687686532E+04  0.10687686532E+04  0.25500000000E-02 0.  1.
    5000001    1    1    2    0    0 -0.18983444353E+02  0.34443620570E+02 -0.10204746188E+03  0.13375133133E+03  0.77000000000E+02 0.  0.
   -5000001    1    1    2    0    0  0.18983444353E+02 -0.34443620570E+02 -0.94890375668E+03  0.95283475671E+03  0.77000000000E+02 0.  0.
<mgrwt>
<rscale>  0 0.27599069E+03</rscale>
<asrwt>0</asrwt>
<pdfrwt beam="1">  1        2 0.15268120E+00 0.27599069E+03</pdfrwt>
<pdfrwt beam="2">  1       -2 0.25453485E-02 0.27599069E+03</pdfrwt>
<totfact> 0.14328141E+04</totfact>
</mgrwt>
</event>
<event>
 4    1  0.6919593E-004  0.3975172E+03  0.7818608E-02  0.1044643E+00
         -2   -1    0    0    0  501 -0.00000000000E+00  0.00000000000E+00  0.18917730387E+02  0.18917730559E+02  0.25500000000E-02 0.  1.
          2   -1    0    0  501    0  0.00000000000E+00 -0.00000000000E+00 -0.20882512975E+04  0.20882512975E+04  0.25500000000E-02 0. -1.
    5000001    1    1    2    0    0 -0.84716528205E+02 -0.16223837269E+03 -0.98791257809E+03  0.10076698079E+04  0.77000000000E+02 0.  0.
   -5000001    1    1    2    0    0  0.84716528205E+02  0.16223837269E+03 -0.10814209890E+04  0.10994992202E+04  0.77000000000E+02 0.  0.
<mgrwt>
<rscale>  0 0.39751717E+03</rscale>
<asrwt>0</asrwt>
<pdfrwt beam="1">  1        2 0.29832147E+00 0.39751717E+03</pdfrwt>
<pdfrwt beam="2">  1       -2 0.27025343E-02 0.39751717E+03</pdfrwt>
<totfact> 0.39501540E+03</totfact>
</mgrwt>
</event>
<event>
 4    1  0.6919593E-004  0.3334947E+03  0.7818608E-02  0.1069601E+00
         -2   -1    0    0    0  501 -0.00000000000E+00  0.00000000000E+00  0.15826758992E+02  0.15826759198E+02  0.25500000000E-02 0. -1.
          2   -1    0    0  501    0  0.00000000000E+00 -0.00000000000E+00 -0.17568145566E+04  0.17568145566E+04  0.25500000000E-02 0.  1.
    5000001    1    1    2    0    0  0.52496297760E+02  0.13106451671E+03 -0.11047261443E+04  0.11163702892E+04  0.77000000000E+02 0.  0.
   -5000001    1    1    2    0    0 -0.52496297760E+02 -0.13106451671E+03 -0.63626165335E+03  0.65627102659E+03  0.77000000000E+02 0.  0.
<mgrwt>
<rscale>  0 0.33349471E+03</rscale>
<asrwt>0</asrwt>
<pdfrwt beam="1">  1        2 0.25097338E+00 0.33349471E+03</pdfrwt>
<pdfrwt beam="2">  1       -2 0.22609667E-02 0.33349471E+03</pdfrwt>
<totfact> 0.75134296E+03</totfact>
</mgrwt>
</event>
<event>
 4    1  0.6919593E-004  0.2081529E+03  0.7818608E-02  0.1143037E+00
         -2   -1    0    0    0  501 -0.00000000000E+00  0.00000000000E+00  0.46646411353E+01  0.46646418323E+01  0.25500000000E-02 0. -1.
          2   -1    0    0  501    0  0.00000000000E+00 -0.00000000000E+00 -0.23221306584E+04  0.23221306584E+04  0.25500000000E-02 0.  1.
    5000001    1    1    2    0    0 -0.77960170127E+00 -0.54663414470E+02 -0.66966354183E+03  0.67628910675E+03  0.77000000000E+02 0.  0.
   -5000001    1    1    2    0    0  0.77960170127E+00  0.54663414470E+02 -0.16478024754E+04  0.16505061935E+04  0.77000000000E+02 0.  0.
<mgrwt>
<rscale>  0 0.20815290E+03</rscale>
<asrwt>0</asrwt>
<pdfrwt beam="1">  1        2 0.33173221E+00 0.20815290E+03</pdfrwt>
<pdfrwt beam="2">  1       -2 0.66637884E-03 0.20815290E+03</pdfrwt>
<totfact> 0.23354983E+04</totfact>
</mgrwt>
</event>
<event>
 4    1  0.6919593E-004  0.2392751E+03  0.7818608E-02  0.1120277E+00
          2   -1    0    0  501    0  0.00000000000E+00  0.00000000000E+00  0.10088251142E+04  0.10088251142E+04  0.25500000000E-02 0.  1.
         -2   -1    0    0    0  501 -0.00000000000E+00 -0.00000000000E+00 -0.14187927288E+02  0.14187927517E+02  0.25500000000E-02 0. -1.
    5000001    1    1    2    0    0 -0.48652525732E+02  0.38661441665E+02  0.20979967762E+03  0.23196266954E+03  0.77000000000E+02 0.  0.
   -5000001    1    1    2    0    0  0.48652525732E+02 -0.38661441665E+02  0.78483750933E+03  0.79105037221E+03  0.77000000000E+02 0.  0.
<mgrwt>
<rscale>  0 0.23927505E+03</rscale>
<asrwt>0</asrwt>
<pdfrwt beam="1">  1        2 0.14411792E+00 0.23927505E+03</pdfrwt>
<pdfrwt beam="2">  1       -2 0.20268461E-02 0.23927505E+03</pdfrwt>
<totfact> 0.21572326E+04</totfact>
</mgrwt>
</event>
<event>
 4    1  0.6919593E-004  0.2141072E+03  0.7818608E-02  0.1138354E+00
          2   -1    0    0  501    0  0.00000000000E+00  0.00000000000E+00  0.34365135524E+03  0.34365135525E+03  0.25500000000E-02 0.  1.
         -2   -1    0    0    0  501 -0.00000000000E+00 -0.00000000000E+00 -0.33349118997E+02  0.33349119094E+02  0.25500000000E-02 0. -1.
    5000001    1    1    2    0    0  0.65360378367E+02 -0.88802929221E+01  0.21565285370E+03  0.23829811575E+03  0.77000000000E+02 0.  0.
   -5000001    1    1    2    0    0 -0.65360378367E+02  0.88802929221E+01  0.94649382542E+02  0.13870235859E+03  0.77000000000E+02 0.  0.
<mgrwt>
<rscale>  0 0.21410717E+03</rscale>
<asrwt>0</asrwt>
<pdfrwt beam="1">  1        2 0.49093051E-01 0.21410717E+03</pdfrwt>
<pdfrwt beam="2">  1       -2 0.47641598E-02 0.21410717E+03</pdfrwt>
<totfact> 0.20949953E+04</totfact>
</mgrwt>
</event>
<event>
 4    1  0.6919593E-004  0.2134527E+03  0.7818608E-02  0.1138861E+00
         -2   -1    0    0    0  501 -0.00000000000E+00  0.00000000000E+00  0.17619692524E+02  0.17619692709E+02  0.25500000000E-02 0. -1.
          2   -1    0    0  501    0  0.00000000000E+00 -0.00000000000E+00 -0.64646524610E+03  0.64646524610E+03  0.25500000000E-02 0.  1.
    5000001    1    1    2    0    0  0.62656515272E+02 -0.56017320771E+01 -0.19375558742E+03  0.21777843319E+03  0.77000000000E+02 0.  0.
   -5000001    1    1    2    0    0 -0.62656515272E+02  0.56017320771E+01 -0.43508996616E+03  0.44630650562E+03  0.77000000000E+02 0.  0.
<mgrwt>
<rscale>  0 0.21345275E+03</rscale>
<asrwt>0</asrwt>
<pdfrwt beam="1">  1        2 0.92352163E-01 0.21345275E+03</pdfrwt>
<pdfrwt beam="2">  1       -2 0.25170994E-02 0.21345275E+03</pdfrwt>
<totfact> 0.27075970E+04</totfact>
</mgrwt>
</event>
<event>
 4    1  0.6919593E-004  0.3669097E+03  0.7818608E-02  0.1055881E+00
          2   -1    0    0  501    0  0.00000000000E+00  0.00000000000E+00  0.10362616617E+04  0.10362616617E+04  0.25500000000E-02 0.  1.
         -2   -1    0    0    0  501 -0.00000000000E+00 -0.00000000000E+00 -0.32477979757E+02  0.32477979857E+02  0.25500000000E-02 0. -1.
    5000001    1    1    2    0    0  0.74455696708E+02  0.12670525646E+03  0.72992650630E+03  0.74854497353E+03  0.77000000000E+02 0.  0.
   -5000001    1    1    2    0    0 -0.74455696708E+02 -0.12670525646E+03  0.27385717562E+03  0.32019466801E+03  0.77000000000E+02 0.  0.
<mgrwt>
<rscale>  0 0.36690972E+03</rscale>
<asrwt>0</asrwt>
<pdfrwt beam="1">  1        2 0.14803735E+00 0.36690972E+03</pdfrwt>
<pdfrwt beam="2">  1       -2 0.46397122E-02 0.36690972E+03</pdfrwt>
<totfact> 0.61176575E+03</totfact>
</mgrwt>
</event>
<event>
 4    1  0.6919593E-004  0.3506700E+03  0.7818608E-02  0.1062340E+00
         -2   -1    0    0    0  501 -0.00000000000E+00  0.00000000000E+00  0.10406121063E+02  0.10406121375E+02  0.25500000000E-02 0. -1.
          2   -1    0    0  501    0  0.00000000000E+00 -0.00000000000E+00 -0.29542578172E+04  0.29542578172E+04  0.25500000000E-02 0.  1.
    5000001    1    1    2    0    0  0.95365102846E+02 -0.79826974577E+02 -0.65458779162E+03  0.67073170914E+03  0.77000000000E+02 0.  0.
   -5000001    1    1    2    0    0 -0.95365102846E+02  0.79826974577E+02 -0.22892639045E+04  0.22939322294E+04  0.77000000000E+02 0.  0.
<mgrwt>
<rscale>  0 0.35067002E+03</rscale>
<asrwt>0</asrwt>
<pdfrwt beam="1">  1        2 0.42203629E+00 0.35067002E+03</pdfrwt>
<pdfrwt beam="2">  1       -2 0.14865906E-02 0.35067002E+03</pdfrwt>
<totfact> 0.34913175E+03</totfact>
</mgrwt>
</event>
<event>
 4    1  0.6919593E-004  0.2618212E+03  0.7818608E-02  0.1106054E+00
          2   -1    0    0  501    0  0.00000000000E+00  0.00000000000E+00  0.44139277696E+04  0.44139277696E+04  0.25500000000E-02 0.  1.
         -2   -1    0    0    0  501 -0.00000000000E+00 -0.00000000000E+00 -0.38826140667E+01  0.38826149041E+01  0.25500000000E-02 0. -1.
    5000001    1    1    2    0    0  0.64521182984E+02 -0.62937267612E+02  0.31421410945E+04  0.31443765265E+04  0.77000000000E+02 0.  0.
   -5000001    1    1    2    0    0 -0.64521182984E+02  0.62937267612E+02  0.12679040610E+04  0.12734338580E+04  0.77000000000E+02 0.  0.
<mgrwt>
<rscale>  0 0.26182116E+03</rscale>
<asrwt>0</asrwt>
<pdfrwt beam="1">  1        2 0.63056207E+00 0.26182116E+03</pdfrwt>
<pdfrwt beam="2">  1       -2 0.55465837E-03 0.26182116E+03</pdfrwt>
<totfact> 0.18794232E+03</totfact>
</mgrwt>
</event>
<event>
 4    1  0.6919593E-004  0.3830611E+03  0.7818608E-02  0.1049808E+00
         -2   -1    0    0    0  501 -0.00000000000E+00  0.00000000000E+00  0.38667865923E+03  0.38667865924E+03  0.25500000000E-02 0. -1.
          2   -1    0    0  501    0  0.00000000000E+00 -0.00000000000E+00 -0.94869347745E+02  0.94869347779E+02  0.25500000000E-02 0.  1.
    5000001    1    1    2    0    0 -0.46020961006E+02  0.13578980381E+03  0.18954778205E+02  0.16384469258E+03  0.77000000000E+02 0.  0.
   -5000001    1    1    2    0    0  0.46020961006E+02 -0.13578980381E+03  0.27285453328E+03  0.31770331444E+03  0.77000000000E+02 0.  0.
<mgrwt>
<rscale>  0 0.38306110E+03</rscale>
<asrwt>0</asrwt>
<pdfrwt beam="1">  1        2 0.13552764E-01 0.38306110E+03</pdfrwt>
<pdfrwt beam="2">  1       -2 0.55239809E-01 0.38306110E+03</pdfrwt>
<totfact> 0.13919461E+03</totfact>
</mgrwt>
</event>
<event>
 4    1  0.6919593E-004  0.4065842E+03  0.7818608E-02  0.1041523E+00
         -2   -1    0    0    0  501 -0.00000000000E+00  0.00000000000E+00  0.16189487274E+04  0.16189487274E+04  0.25500000000E-02 0. -1.
          2   -1    0    0  501    0  0.00000000000E+00 -0.00000000000E+00 -0.25527483971E+02  0.25527484099E+02  0.25500000000E-02 0.  1.
    5000001    1    1    2    0    0 -0.17958902729E+03  0.55897802018E+02  0.77778079144E+03  0.80389597743E+03  0.77000000000E+02 0.  0.
   -5000001    1    1    2    0    0  0.17958902729E+03 -0.55897802018E+02  0.81564045203E+03  0.84058023411E+03  0.77000000000E+02 0.  0.
<mgrwt>
<rscale>  0 0.40658425E+03</rscale>
<asrwt>0</asrwt>
<pdfrwt beam="1">  1        2 0.36467820E-02 0.40658425E+03</pdfrwt>
<pdfrwt beam="2">  1       -2 0.23127848E+00 0.40658425E+03</pdfrwt>
<totfact> 0.22188399E+02</totfact>
</mgrwt>
</event>
<event>
 4    1  0.6919593E-004  0.3046572E+03  0.7818608E-02  0.1082935E+00
          2   -1    0    0  501    0  0.00000000000E+00  0.00000000000E+00  0.24605088088E+04  0.24605088088E+04  0.25500000000E-02 0.  1.
         -2   -1    0    0    0  501 -0.00000000000E+00 -0.00000000000E+00 -0.94305698561E+01  0.94305702008E+01  0.25500000000E-02 0. -1.
    5000001    1    1    2    0    0  0.12963082400E+03  0.21500265396E+02  0.12492986726E+04  0.12585478081E+04  0.77000000000E+02 0.  0.
   -5000001    1    1    2    0    0 -0.12963082400E+03 -0.21500265396E+02  0.12017795663E+04  0.12113915709E+04  0.77000000000E+02 0.  0.
<mgrwt>
<rscale>  0 0.30465719E+03</rscale>
<asrwt>0</asrwt>
<pdfrwt beam="1">  1        2 0.35150161E+00 0.30465719E+03</pdfrwt>
<pdfrwt beam="2">  1       -2 0.13472229E-02 0.30465719E+03</pdfrwt>
<totfact> 0.72467108E+03</totfact>
</mgrwt>
</event>
<event>
 4    1  0.6919593E-004  0.2139907E+03  0.7818608E-02  0.1138444E+00
          2   -1    0    0  501    0  0.00000000000E+00  0.00000000000E+00  0.36969773569E+02  0.36969773657E+02  0.25500000000E-02 0.  1.
         -2   -1    0    0    0  501 -0.00000000000E+00 -0.00000000000E+00 -0.30965849505E+03  0.30965849506E+03  0.25500000000E-02 0. -1.
    5000001    1    1    2    0    0 -0.62900332036E+02 -0.39018288391E+02 -0.14660516221E+03  0.18138619624E+03  0.77000000000E+02 0.  0.
   -5000001    1    1    2    0    0  0.62900332036E+02  0.39018288391E+02 -0.12608355927E+03  0.16524207248E+03  0.77000000000E+02 0.  0.
<mgrwt>
<rscale>  0 0.21399070E+03</rscale>
<asrwt>0</asrwt>
<pdfrwt beam="1">  1        2 0.52813964E-02 0.21399070E+03</pdfrwt>
<pdfrwt beam="2">  1       -2 0.44236926E-01 0.21399070E+03</pdfrwt>
<totfact> 0.70003136E+03</totfact>
</mgrwt>
</event>
<event>
 4    1  0.6919593E-004  0.2032967E+03  0.7818608E-02  0.1146987E+00
          2   -1    0    0  501    0  0.00000000000E+00  0.00000000000E+00  0.35821930241E+03  0.35821930242E+03  0.25500000000E-02 0.  1.
         -2   -1    0    0    0  501 -0.00000000000E+00 -0.00000000000E+00 -0.28843733143E+02  0.28843733255E+02  0.25500000000E-02 0. -1.
    5000001    1    1    2    0    0 -0.62686629906E+02 -0.29157414424E+01  0.20575568893E+03  0.22847870502E+03  0.77000000000E+02 0.  0.
   -5000001    1    1    2    0    0  0.62686629906E+02  0.29157414424E+01  0.12361988034E+03  0.15858433066E+03  0.77000000000E+02 0.  0.
<mgrwt>
<rscale>  0 0.20329665E+03</rscale>
<asrwt>0</asrwt>
<pdfrwt beam="1">  1        2 0.51174186E-01 0.20329665E+03</pdfrwt>
<pdfrwt beam="2">  1       -2 0.41205333E-02 0.20329665E+03</pdfrwt>
<totfact> 0.24833581E+04</totfact>
</mgrwt>
</event>
<event>
 4    1  0.6919593E-004  0.2369391E+03  0.7818608E-02  0.1121849E+00
          2   -1    0    0  501    0  0.00000000000E+00  0.00000000000E+00  0.16843218915E+04  0.16843218915E+04  0.25500000000E-02 0.  1.
         -2   -1    0    0    0  501 -0.00000000000E+00 -0.00000000000E+00 -0.83327506317E+01  0.83327510219E+01  0.25500000000E-02 0. -1.
    5000001    1    1    2    0    0 -0.80688888403E+02  0.66002926091E+01  0.55658046564E+03  0.56768395724E+03  0.77000000000E+02 0.  0.
   -5000001    1    1    2    0    0  0.80688888403E+02 -0.66002926091E+01  0.11194086752E+04  0.11249706853E+04  0.77000000000E+02 0.  0.
<mgrwt>
<rscale>  0 0.23693910E+03</rscale>
<asrwt>0</asrwt>
<pdfrwt beam="1">  1        2 0.24061773E+00 0.23693910E+03</pdfrwt>
<pdfrwt beam="2">  1       -2 0.11903914E-02 0.23693910E+03</pdfrwt>
<totfact> 0.20731304E+04</totfact>
</mgrwt>
</event>
<event>
 4    1  0.6919593E-004  0.2106689E+03  0.7818608E-02  0.1141037E+00
          2   -1    0    0  501    0  0.00000000000E+00  0.00000000000E+00  0.30211975802E+04  0.30211975802E+04  0.25500000000E-02 0.  1.
         -2   -1    0    0    0  501 -0.00000000000E+00 -0.00000000000E+00 -0.36724982064E+01  0.36724990917E+01  0.25500000000E-02 0. -1.
    5000001    1    1    2    0    0 -0.69641495757E+02  0.17787784081E+02  0.15083461557E+04  0.15120196654E+04  0.77000000000E+02 0.  0.
   -5000001    1    1    2    0    0  0.69641495757E+02 -0.17787784081E+02  0.15091789263E+04  0.15128504139E+04  0.77000000000E+02 0.  0.
<mgrwt>
<rscale>  0 0.21066888E+03</rscale>
<asrwt>0</asrwt>
<pdfrwt beam="1">  1        2 0.43159986E+00 0.21066888E+03</pdfrwt>
<pdfrwt beam="2">  1       -2 0.52464242E-03 0.21066888E+03</pdfrwt>
<totfact> 0.14613864E+04</totfact>
</mgrwt>
</event>
<event>
 4    1  0.6919593E-004  0.4248415E+03  0.7818608E-02  0.1035502E+00
          2   -1    0    0  501    0  0.00000000000E+00  0.00000000000E+00  0.35286175567E+02  0.35286175660E+02  0.25500000000E-02 0.  1.
         -2   -1    0    0    0  501 -0.00000000000E+00 -0.00000000000E+00 -0.12787607446E+04  0.12787607446E+04  0.25500000000E-02 0. -1.
    5000001    1    1    2    0    0  0.93705475160E+02  0.14908300705E+03 -0.90160283011E+03  0.92185851536E+03  0.77000000000E+02 0.  0.
   -5000001    1    1    2    0    0 -0.93705475160E+02 -0.14908300705E+03 -0.34187173887E+03  0.39218840486E+03  0.77000000000E+02 0.  0.
<mgrwt>
<rscale>  0 0.42484151E+03</rscale>
<asrwt>0</asrwt>
<pdfrwt beam="1">  1        2 0.50408830E-02 0.42484151E+03</pdfrwt>
<pdfrwt beam="2">  1       -2 0.18268008E+00 0.42484151E+03</pdfrwt>
<totfact> 0.29070433E+02</totfact>
</mgrwt>
</event>
<event>
 4    1  0.6919593E-004  0.3176589E+03  0.7818608E-02  0.1076732E+00
         -2   -1    0    0    0  501 -0.00000000000E+00  0.00000000000E+00  0.77985187506E+01  0.77985191675E+01  0.25500000000E-02 0. -1.
          2   -1    0    0  501    0  0.00000000000E+00 -0.00000000000E+00 -0.32348176418E+04  0.32348176418E+04  0.25500000000E-02 0.  1.
    5000001    1    1    2    0    0 -0.11468934094E+03  0.46863621231E+02 -0.97212278040E+03  0.98300638050E+03  0.77000000000E+02 0.  0.
   -5000001    1    1    2    0    0  0.11468934094E+03 -0.46863621231E+02 -0.22548963427E+04  0.22596097805E+04  0.77000000000E+02 0.  0.
<mgrwt>
<rscale>  0 0.31765885E+03</rscale>
<asrwt>0</asrwt>
<pdfrwt beam="1">  1        2 0.46211595E+00 0.31765885E+03</pdfrwt>
<pdfrwt beam="2">  1       -2 0.11140762E-02 0.31765885E+03</pdfrwt>
<totfact> 0.37647175E+03</totfact>
</mgrwt>
</event>
<event>
 4    1  0.6919593E-004  0.3731213E+03  0.7818608E-02  0.1053506E+00
         -2   -1    0    0    0  501 -0.00000000000E+00  0.00000000000E+00  0.28364738673E+02  0.28364738788E+02  0.25500000000E-02 0. -1.
          2   -1    0    0  501    0  0.00000000000E+00 -0.00000000000E+00 -0.12270475422E+04  0.12270475422E+04  0.25500000000E-02 0.  1.
    5000001    1    1    2    0    0 -0.14212837549E+02  0.15573404431E+03 -0.37563108297E+03  0.41410482707E+03  0.77000000000E+02 0.  0.
   -5000001    1    1    2    0    0  0.14212837549E+02 -0.15573404431E+03 -0.82305172052E+03  0.84130745388E+03  0.77000000000E+02 0.  0.
<mgrwt>
<rscale>  0 0.37312134E+03</rscale>
<asrwt>0</asrwt>
<pdfrwt beam="1">  1        2 0.17529247E+00 0.37312134E+03</pdfrwt>
<pdfrwt beam="2">  1       -2 0.40521063E-02 0.37312134E+03</pdfrwt>
<totfact> 0.58690998E+03</totfact>
</mgrwt>
</event>
<event>
 4    1  0.6919593E-004  0.6286427E+03  0.7818608E-02  0.9847701E-01
          2   -1    0    0  501    0  0.00000000000E+00  0.00000000000E+00  0.12358672944E+04  0.12358672944E+04  0.25500000000E-02 0.  1.
         -2   -1    0    0    0  501 -0.00000000000E+00 -0.00000000000E+00 -0.79942160610E+02  0.79942160651E+02  0.25500000000E-02 0. -1.
    5000001    1    1    2    0    0  0.18507016068E+03 -0.16314229420E+03  0.95240175763E+03  0.98684572273E+03  0.77000000000E+02 0.  0.
   -5000001    1    1    2    0    0 -0.18507016068E+03  0.16314229420E+03  0.20352337612E+03  0.32896373228E+03  0.77000000000E+02 0.  0.
<mgrwt>
<rscale>  0 0.62864267E+03</rscale>
<asrwt>0</asrwt>
<pdfrwt beam="1">  1        2 0.17655247E+00 0.62864267E+03</pdfrwt>
<pdfrwt beam="2">  1       -2 0.11420309E-01 0.62864267E+03</pdfrwt>
<totfact> 0.11357129E+03</totfact>
</mgrwt>
</event>
<event>
 4    1  0.6919593E-004  0.2942827E+03  0.7818608E-02  0.1088134E+00
         -2   -1    0    0    0  501 -0.00000000000E+00  0.00000000000E+00  0.13727219910E+02  0.13727220146E+02  0.25500000000E-02 0. -1.
          2   -1    0    0  501    0  0.00000000000E+00 -0.00000000000E+00 -0.15772008937E+04  0.15772008937E+04  0.25500000000E-02 0.  1.
    5000001    1    1    2    0    0 -0.48523740230E+02 -0.66840303429E+02 -0.27174148076E+03  0.29426962448E+03  0.77000000000E+02 0.  0.
   -5000001    1    1    2    0    0  0.48523740230E+02  0.66840303429E+02 -0.12917321930E+04  0.12966584893E+04  0.77000000000E+02 0.  0.
<mgrwt>
<rscale>  0 0.29428275E+03</rscale>
<asrwt>0</asrwt>
<pdfrwt beam="1">  1        2 0.22531430E+00 0.29428275E+03</pdfrwt>
<pdfrwt beam="2">  1       -2 0.19610324E-02 0.29428275E+03</pdfrwt>
<totfact> 0.11369197E+04</totfact>
</mgrwt>
</event>
<event>
 4    1  0.6919593E-004  0.1783195E+03  0.7818608E-02  0.1169439E+00
          2   -1    0    0  501    0  0.00000000000E+00  0.00000000000E+00  0.29294423243E+04  0.29294423243E+04  0.25500000000E-02 0.  1.
         -2   -1    0    0    0  501 -0.00000000000E+00 -0.00000000000E+00 -0.27136434569E+01  0.27136446550E+01  0.25500000000E-02 0. -1.
    5000001    1    1    2    0    0 -0.25189337086E+02 -0.14190663702E+02  0.20293057528E+04  0.20309718648E+04  0.77000000000E+02 0.  0.
   -5000001    1    1    2    0    0  0.25189337086E+02  0.14190663702E+02  0.89742292809E+03  0.90118410411E+03  0.77000000000E+02 0.  0.
<mgrwt>
<rscale>  0 0.17831953E+03</rscale>
<asrwt>0</asrwt>
<pdfrwt beam="1">  1        2 0.41849158E+00 0.17831953E+03</pdfrwt>
<pdfrwt beam="2">  1       -2 0.38766360E-03 0.17831953E+03</pdfrwt>
<totfact> 0.25018014E+04</totfact>
</mgrwt>
</event>
<event>
 4    1  0.6919593E-004  0.5602596E+03  0.7818608E-02  0.9991467E-01
          2   -1    0    0  501    0  0.00000000000E+00  0.00000000000E+00  0.16709384352E+04  0.16709384352E+04  0.25500000000E-02 0.  1.
         -2   -1    0    0    0  501 -0.00000000000E+00 -0.00000000000E+00 -0.46963250010E+02  0.46963250080E+02  0.25500000000E-02 0. -1.
    5000001    1    1    2    0    0  0.18500751889E+03 -0.19426255811E+03  0.73827122588E+03  0.78926492795E+03  0.77000000000E+02 0.  0.
   -5000001    1    1    2    0    0 -0.18500751889E+03  0.19426255811E+03  0.88570395927E+03  0.92863675730E+03  0.77000000000E+02 0.  0.
<mgrwt>
<rscale>  0 0.56025958E+03</rscale>
<asrwt>0</asrwt>
<pdfrwt beam="1">  1        2 0.23870543E+00 0.56025958E+03</pdfrwt>
<pdfrwt beam="2">  1       -2 0.67090373E-02 0.56025958E+03</pdfrwt>
<totfact> 0.15761066E+03</totfact>
</mgrwt>
</event>
<event>
 4    1  0.6919593E-004  0.2579779E+03  0.7818608E-02  0.1108364E+00
         -2   -1    0    0    0  501 -0.00000000000E+00  0.00000000000E+00  0.36974228571E+02  0.36974228659E+02  0.25500000000E-02 0. -1.
          2   -1    0    0  501    0  0.00000000000E+00 -0.00000000000E+00 -0.44999326588E+03  0.44999326588E+03  0.25500000000E-02 0.  1.
    5000001    1    1    2    0    0 -0.17635499504E+02  0.97847307692E+02 -0.15232271770E+03  0.19752548391E+03  0.77000000000E+02 0.  0.
   -5000001    1    1    2    0    0  0.17635499504E+02 -0.97847307692E+02 -0.26069631961E+03  0.28944201064E+03  0.77000000000E+02 0.  0.
<mgrwt>
<rscale>  0 0.25797794E+03</rscale>
<asrwt>0</asrwt>
<pdfrwt beam="1">  1        2 0.64284749E-01 0.25797794E+03</pdfrwt>
<pdfrwt beam="2">  1       -2 0.52820330E-02 0.25797794E+03</pdfrwt>
<totfact> 0.13546973E+04</totfact>
</mgrwt>
</event>
<event>
 4    1  0.6919593E-004  0.1864341E+03  0.7818608E-02  0.1161717E+00
         -2   -1    0    0    0  501 -0.00000000000E+00  0.00000000000E+00  0.86089006066E+01  0.86089009843E+01  0.25500000000E-02 0. -1.
          2   -1    0    0  501    0  0.00000000000E+00 -0.00000000000E+00 -0.10093528712E+04  0.10093528712E+04  0.25500000000E-02 0.  1.
    5000001    1    1    2    0    0  0.25507995163E+02 -0.45638518626E+02 -0.47205978881E+03  0.48114756199E+03  0.77000000000E+02 0.  0.
   -5000001    1    1    2    0    0 -0.25507995163E+02  0.45638518626E+02 -0.52868418177E+03  0.53681421018E+03  0.77000000000E+02 0.  0.
<mgrwt>
<rscale>  0 0.18643410E+03</rscale>
<asrwt>0</asrwt>
<pdfrwt beam="1">  1        2 0.14419319E+00 0.18643410E+03</pdfrwt>
<pdfrwt beam="2">  1       -2 0.12298436E-02 0.18643410E+03</pdfrwt>
<totfact> 0.43880834E+04</totfact>
</mgrwt>
</event>
<event>
 4    1  0.6919593E-004  0.3590260E+03  0.7818608E-02  0.1058970E+00
         -2   -1    0    0    0  501 -0.00000000000E+00  0.00000000000E+00  0.47624988210E+02  0.47624988278E+02  0.25500000000E-02 0. -1.
          2   -1    0    0  501    0  0.00000000000E+00 -0.00000000000E+00 -0.67663887059E+03  0.67663887059E+03  0.25500000000E-02 0.  1.
    5000001    1    1    2    0    0 -0.10850099598E+03 -0.55730510220E+02 -0.53006169370E+03  0.54933847037E+03  0.77000000000E+02 0.  0.
   -5000001    1    1    2    0    0  0.10850099598E+03  0.55730510220E+02 -0.98952188673E+02  0.17492538850E+03  0.77000000000E+02 0.  0.
<mgrwt>
<rscale>  0 0.35902601E+03</rscale>
<asrwt>0</asrwt>
<pdfrwt beam="1">  1        2 0.96662691E-01 0.35902601E+03</pdfrwt>
<pdfrwt beam="2">  1       -2 0.68035701E-02 0.35902601E+03</pdfrwt>
<totfact> 0.58522442E+03</totfact>
</mgrwt>
</event>
<event>
 4    1  0.6919593E-004  0.2522589E+03  0.7818608E-02  0.1111886E+00
          2   -1    0    0  501    0  0.00000000000E+00  0.00000000000E+00  0.19155874059E+03  0.19155874060E+03  0.25500000000E-02 0.  1.
         -2   -1    0    0    0  501 -0.00000000000E+00 -0.00000000000E+00 -0.83048370361E+02  0.83048370400E+02  0.25500000000E-02 0. -1.
    5000001    1    1    2    0    0  0.77937324487E+02  0.57013267479E+02  0.26396962395E+02  0.12629544268E+03  0.77000000000E+02 0.  0.
   -5000001    1    1    2    0    0 -0.77937324487E+02 -0.57013267479E+02  0.82113407831E+02  0.14831166833E+03  0.77000000000E+02 0.  0.
<mgrwt>
<rscale>  0 0.25225892E+03</rscale>
<asrwt>0</asrwt>
<pdfrwt beam="1">  1        2 0.27365535E-01 0.25225892E+03</pdfrwt>
<pdfrwt beam="2">  1       -2 0.11864053E-01 0.25225892E+03</pdfrwt>
<totfact> 0.96406591E+03</totfact>
</mgrwt>
</event>
<event>
 4    1  0.6919593E-004  0.1816579E+03  0.7818608E-02  0.1166208E+00
         -2   -1    0    0    0  501 -0.00000000000E+00  0.00000000000E+00  0.11504680537E+03  0.11504680539E+03  0.25500000000E-02 0. -1.
          2   -1    0    0  501    0  0.00000000000E+00 -0.00000000000E+00 -0.71709030300E+02  0.71709030345E+02  0.25500000000E-02 0.  1.
    5000001    1    1    2    0    0  0.45249767966E+02 -0.10529428251E+02  0.34773553220E+02  0.96418931563E+02  0.77000000000E+02 0.  0.
   -5000001    1    1    2    0    0 -0.45249767966E+02  0.10529428251E+02  0.85642218461E+01  0.90336904176E+02  0.77000000000E+02 0.  0.
<mgrwt>
<rscale>  0 0.18165786E+03</rscale>
<asrwt>0</asrwt>
<pdfrwt beam="1">  1        2 0.10244147E-01 0.18165786E+03</pdfrwt>
<pdfrwt beam="2">  1       -2 0.16435258E-01 0.18165786E+03</pdfrwt>
<totfact> 0.17419707E+04</totfact>
</mgrwt>
</event>
<event>
 4    1  0.6919593E-004  0.2130369E+03  0.7818608E-02  0.1139183E+00
         -2   -1    0    0    0  501 -0.00000000000E+00  0.00000000000E+00  0.16252446488E+02  0.16252446688E+02  0.25500000000E-02 0. -1.
          2   -1    0    0  501    0  0.00000000000E+00 -0.00000000000E+00 -0.69812156904E+03  0.69812156904E+03  0.25500000000E-02 0.  1.
    5000001    1    1    2    0    0  0.37382393750E+02  0.62678923405E+02 -0.30892994874E+03  0.32663864442E+03  0.77000000000E+02 0.  0.
   -5000001    1    1    2    0    0 -0.37382393750E+02 -0.62678923405E+02 -0.37293917381E+03  0.38773537131E+03  0.77000000000E+02 0.  0.
<mgrwt>
<rscale>  0 0.21303693E+03</rscale>
<asrwt>0</asrwt>
<pdfrwt beam="1">  1        2 0.99731634E-01 0.21303693E+03</pdfrwt>
<pdfrwt beam="2">  1       -2 0.23217785E-02 0.21303693E+03</pdfrwt>
<totfact> 0.27876696E+04</totfact>
</mgrwt>
</event>
<event>
 4    1  0.6919593E-004  0.1726925E+03  0.7818608E-02  0.1175069E+00
         -2   -1    0    0    0  501 -0.00000000000E+00  0.00000000000E+00  0.48737466003E+02  0.48737466070E+02  0.25500000000E-02 0. -1.
          2   -1    0    0  501    0  0.00000000000E+00 -0.00000000000E+00 -0.15297630271E+03  0.15297630273E+03  0.25500000000E-02 0.  1.
    5000001    1    1    2    0    0  0.35102872964E+02 -0.16632379946E+02 -0.47187306740E+02  0.98308136338E+02  0.77000000000E+02 0.  0.
   -5000001    1    1    2    0    0 -0.35102872964E+02  0.16632379946E+02 -0.57051529963E+02  0.10340563246E+03  0.77000000000E+02 0.  0.
<mgrwt>
<rscale>  0 0.17269253E+03</rscale>
<asrwt>0</asrwt>
<pdfrwt beam="1">  1        2 0.21853757E-01 0.17269253E+03</pdfrwt>
<pdfrwt beam="2">  1       -2 0.69624952E-02 0.17269253E+03</pdfrwt>
<totfact> 0.27870815E+04</totfact>
</mgrwt>
</event>
<event>
 4    1  0.6919593E-004  0.2048903E+03  0.7818608E-02  0.1145677E+00
          2   -1    0    0  501    0  0.00000000000E+00  0.00000000000E+00  0.23052396436E+03  0.23052396438E+03  0.25500000000E-02 0.  1.
         -2   -1    0    0    0  501 -0.00000000000E+00 -0.00000000000E+00 -0.45526736642E+02  0.45526736714E+02  0.25500000000E-02 0. -1.
    5000001    1    1    2    0    0  0.19585595663E+02 -0.64498431534E+02  0.86127589309E+02  0.13375576574E+03  0.77000000000E+02 0.  0.
   -5000001    1    1    2    0    0 -0.19585595663E+02  0.64498431534E+02  0.98869638413E+02  0.14229493536E+03  0.77000000000E+02 0.  0.
<mgrwt>
<rscale>  0 0.20489025E+03</rscale>
<asrwt>0</asrwt>
<pdfrwt beam="1">  1        2 0.32931995E-01 0.20489025E+03</pdfrwt>
<pdfrwt beam="2">  1       -2 0.65038195E-02 0.20489025E+03</pdfrwt>
<totfact> 0.19971380E+04</totfact>
</mgrwt>
</event>
<event>
 4    1  0.6919593E-004  0.2298529E+03  0.7818608E-02  0.1126743E+00
          2   -1    0    0  501    0  0.00000000000E+00  0.00000000000E+00  0.40763859976E+03  0.40763859976E+03  0.25500000000E-02 0.  1.
         -2   -1    0    0    0  501 -0.00000000000E+00 -0.00000000000E+00 -0.32401464032E+02  0.32401464132E+02  0.25500000000E-02 0. -1.
    5000001    1    1    2    0    0 -0.42092664481E+02 -0.72364075088E+02  0.15611824485E+03  0.19315863466E+03  0.77000000000E+02 0.  0.
   -5000001    1    1    2    0    0  0.42092664481E+02  0.72364075088E+02  0.21911889087E+03  0.24688142924E+03  0.77000000000E+02 0.  0.
<mgrwt>
<rscale>  0 0.22985289E+03</rscale>
<asrwt>0</asrwt>
<pdfrwt beam="1">  1        2 0.58234080E-01 0.22985289E+03</pdfrwt>
<pdfrwt beam="2">  1       -2 0.46287811E-02 0.22985289E+03</pdfrwt>
<totfact> 0.18301173E+04</totfact>
</mgrwt>
</event>
<event>
 4    1  0.6919593E-004  0.2955968E+03  0.7818608E-02  0.1087463E+00
         -2   -1    0    0    0  501 -0.00000000000E+00  0.00000000000E+00  0.89486999761E+02  0.89486999797E+02  0.25500000000E-02 0. -1.
          2   -1    0    0  501    0  0.00000000000E+00 -0.00000000000E+00 -0.24410653955E+03  0.24410653956E+03  0.25500000000E-02 0.  1.
    5000001    1    1    2    0    0 -0.73155902537E+02  0.31982749924E+02 -0.18754174969E+03  0.21788894017E+03  0.77000000000E+02 0.  0.
   -5000001    1    1    2    0    0  0.73155902537E+02 -0.31982749924E+02  0.32922209908E+02  0.11570459919E+03  0.77000000000E+02 0.  0.
<mgrwt>
<rscale>  0 0.29559676E+03</rscale>
<asrwt>0</asrwt>
<pdfrwt beam="1">  1        2 0.34872363E-01 0.29559676E+03</pdfrwt>
<pdfrwt beam="2">  1       -2 0.12783857E-01 0.29559676E+03</pdfrwt>
<totfact> 0.65941710E+03</totfact>
</mgrwt>
</event>
<event>
 4    1  0.6919593E-004  0.5360555E+03  0.7818608E-02  0.1004774E+00
          2   -1    0    0  501    0  0.00000000000E+00  0.00000000000E+00  0.22818885086E+03  0.22818885087E+03  0.25500000000E-02 0.  1.
         -2   -1    0    0    0  501 -0.00000000000E+00 -0.00000000000E+00 -0.31482202950E+03  0.31482202951E+03  0.25500000000E-02 0. -1.
    5000001    1    1    2    0    0 -0.10884523544E+02  0.16869291262E+03  0.15241081812E+03  0.24027864886E+03  0.77000000000E+02 0.  0.
   -5000001    1    1    2    0    0  0.10884523544E+02 -0.16869291262E+03 -0.23904399676E+03  0.30273223153E+03  0.77000000000E+02 0.  0.
<mgrwt>
<rscale>  0 0.53605551E+03</rscale>
<asrwt>0</asrwt>
<pdfrwt beam="1">  1        2 0.32598408E-01 0.53605551E+03</pdfrwt>
<pdfrwt beam="2">  1       -2 0.44974575E-01 0.53605551E+03</pdfrwt>
<totfact> 0.76326377E+02</totfact>
</mgrwt>
</event>
<event>
 4    1  0.6919593E-004  0.1796324E+03  0.7818608E-02  0.1168159E+00
         -2   -1    0    0    0  501 -0.00000000000E+00  0.00000000000E+00  0.39206911740E+03  0.39206911741E+03  0.25500000000E-02 0. -1.
          2   -1    0    0  501    0  0.00000000000E+00 -0.00000000000E+00 -0.20575316394E+02  0.20575316552E+02  0.25500000000E-02 0.  1.
    5000001    1    1    2    0    0 -0.24828299531E+02  0.38046610922E+02  0.20550209867E+03  0.22410734396E+03  0.77000000000E+02 0.  0.
   -5000001    1    1    2    0    0  0.24828299531E+02 -0.38046610922E+02  0.16599170234E+03  0.18853709000E+03  0.77000000000E+02 0.  0.
<mgrwt>
<rscale>  0 0.17963236E+03</rscale>
<asrwt>0</asrwt>
<pdfrwt beam="1">  1        2 0.29393312E-02 0.17963236E+03</pdfrwt>
<pdfrwt beam="2">  1       -2 0.56009869E-01 0.17963236E+03</pdfrwt>
<totfact> 0.94551795E+03</totfact>
</mgrwt>
</event>
<event>
 4    1  0.6919593E-004  0.3106002E+03  0.7818608E-02  0.1080059E+00
          2   -1    0    0  501    0  0.00000000000E+00  0.00000000000E+00  0.18990370346E+04  0.18990370346E+04  0.25500000000E-02 0.  1.
         -2   -1    0    0    0  501 -0.00000000000E+00 -0.00000000000E+00 -0.12700185498E+02  0.12700185754E+02  0.25500000000E-02 0. -1.
    5000001    1    1    2    0    0  0.53242734154E+02 -0.11032257651E+03  0.59590205683E+03  0.61321621061E+03  0.77000000000E+02 0.  0.
   -5000001    1    1    2    0    0 -0.53242734154E+02  0.11032257651E+03  0.12904347923E+04  0.12985210098E+04  0.77000000000E+02 0.  0.
<mgrwt>
<rscale>  0 0.31060021E+03</rscale>
<asrwt>0</asrwt>
<pdfrwt beam="1">  1        2 0.27129070E+00 0.31060021E+03</pdfrwt>
<pdfrwt beam="2">  1       -2 0.18143143E-02 0.31060021E+03</pdfrwt>
<totfact> 0.88473059E+03</totfact>
</mgrwt>
</event>
<event>
 4    1  0.6919593E-004  0.2278123E+03  0.7818608E-02  0.1128189E+00
         -2   -1    0    0    0  501 -0.00000000000E+00  0.00000000000E+00  0.17295889368E+03  0.17295889370E+03  0.25500000000E-02 0. -1.
          2   -1    0    0  501    0  0.00000000000E+00 -0.00000000000E+00 -0.75015575206E+02  0.75015575249E+02  0.25500000000E-02 0.  1.
    5000001    1    1    2    0    0  0.78562465365E+02  0.39911164277E+01  0.17094655931E+02  0.11139666618E+03  0.77000000000E+02 0.  0.
   -5000001    1    1    2    0    0 -0.78562465365E+02 -0.39911164277E+01  0.80848662547E+02  0.13657780277E+03  0.77000000000E+02 0.  0.
<mgrwt>
<rscale>  0 0.22781230E+03</rscale>
<asrwt>0</asrwt>
<pdfrwt beam="1">  1        2 0.10716511E-01 0.22781230E+03</pdfrwt>
<pdfrwt beam="2">  1       -2 0.24708413E-01 0.22781230E+03</pdfrwt>
<totfact> 0.83523559E+03</totfact>
</mgrwt>
</event>
<event>
 4    1  0.6919593E-004  0.2486210E+03  0.7818608E-02  0.1114179E+00
          2   -1    0    0  501    0  0.00000000000E+00  0.00000000000E+00  0.21400349438E+04  0.21400349438E+04  0.25500000000E-02 0.  1.
         -2   -1    0    0    0  501 -0.00000000000E+00 -0.00000000000E+00 -0.72209559183E+01  0.72209563686E+01  0.25500000000E-02 0. -1.
    5000001    1    1    2    0    0  0.96719769094E+02  0.54184853621E+01  0.11686064166E+04  0.11751400047E+04  0.77000000000E+02 0.  0.
   -5000001    1    1    2    0    0 -0.96719769094E+02 -0.54184853621E+01  0.96420757124E+03  0.97211589543E+03  0.77000000000E+02 0.  0.
<mgrwt>
<rscale>  0 0.24862098E+03</rscale>
<asrwt>0</asrwt>
<pdfrwt beam="1">  1        2 0.30571953E+00 0.24862098E+03</pdfrwt>
<pdfrwt beam="2">  1       -2 0.10315643E-02 0.24862098E+03</pdfrwt>
<totfact> 0.15336268E+04</totfact>
</mgrwt>
</event>
<event>
 4    1  0.6919593E-004  0.2100561E+03  0.7818608E-02  0.1141522E+00
          2   -1    0    0  501    0  0.00000000000E+00  0.00000000000E+00  0.26492358476E+04  0.26492358476E+04  0.25500000000E-02 0.  1.
         -2   -1    0    0    0  501 -0.00000000000E+00 -0.00000000000E+00 -0.41637989560E+01  0.41637997369E+01  0.25500000000E-02 0. -1.
    5000001    1    1    2    0    0 -0.65079532769E+02 -0.24071563839E+02  0.11085011181E+04  0.11133366583E+04  0.77000000000E+02 0.  0.
   -5000001    1    1    2    0    0  0.65079532769E+02  0.24071563839E+02  0.15365709305E+04  0.15400629891E+04  0.77000000000E+02 0.  0.
<mgrwt>
<rscale>  0 0.21005605E+03</rscale>
<asrwt>0</asrwt>
<pdfrwt beam="1">  1        2 0.37846234E+00 0.21005605E+03</pdfrwt>
<pdfrwt beam="2">  1       -2 0.59482835E-03 0.21005605E+03</pdfrwt>
<totfact> 0.18952902E+04</totfact>
</mgrwt>
</event>
<event>
 4    1  0.6919593E-004  0.3788181E+03  0.7818608E-02  0.1051371E+00
          2   -1    0    0  501    0  0.00000000000E+00  0.00000000000E+00  0.42620245161E+03  0.42620245162E+03  0.25500000000E-02 0.  1.
         -2   -1    0    0    0  501 -0.00000000000E+00 -0.00000000000E+00 -0.84175440445E+02  0.84175440483E+02  0.25500000000E-02 0. -1.
    5000001    1    1    2    0    0  0.25156430125E+02 -0.13412176680E+03  0.31439257373E+03  0.35127366073E+03  0.77000000000E+02 0.  0.
   -5000001    1    1    2    0    0 -0.25156430125E+02  0.13412176680E+03  0.27634437437E+02  0.15910423137E+03  0.77000000000E+02 0.  0.
<mgrwt>
<rscale>  0 0.37881805E+03</rscale>
<asrwt>0</asrwt>
<pdfrwt beam="1">  1        2 0.60886063E-01 0.37881805E+03</pdfrwt>
<pdfrwt beam="2">  1       -2 0.12025063E-01 0.37881805E+03</pdfrwt>
<totfact> 0.40034776E+03</totfact>
</mgrwt>
</event>
<event>
 4    1  0.6919593E-004  0.3658390E+03  0.7818608E-02  0.1056295E+00
          2   -1    0    0  501    0  0.00000000000E+00  0.00000000000E+00  0.10155298946E+04  0.10155298946E+04  0.25500000000E-02 0.  1.
         -2   -1    0    0    0  501 -0.00000000000E+00 -0.00000000000E+00 -0.32947864661E+02  0.32947864759E+02  0.25500000000E-02 0. -1.
    5000001    1    1    2    0    0  0.41653251959E+02 -0.16004323700E+03  0.52992408421E+03  0.56044390097E+03  0.77000000000E+02 0.  0.
   -5000001    1    1    2    0    0 -0.41653251959E+02  0.16004323700E+03  0.45265794574E+03  0.48803385841E+03  0.77000000000E+02 0.  0.
<mgrwt>
<rscale>  0 0.36583899E+03</rscale>
<asrwt>0</asrwt>
<pdfrwt beam="1">  1        2 0.14507570E+00 0.36583899E+03</pdfrwt>
<pdfrwt beam="2">  1       -2 0.47068378E-02 0.36583899E+03</pdfrwt>
<totfact> 0.61555185E+03</totfact>
</mgrwt>
</event>
<event>
 4    1  0.6919593E-004  0.5017513E+03  0.7818608E-02  0.1013323E+00
         -2   -1    0    0    0  501 -0.00000000000E+00  0.00000000000E+00  0.91463573618E+02  0.91463573654E+02  0.25500000000E-02 0. -1.
          2   -1    0    0  501    0  0.00000000000E+00 -0.00000000000E+00 -0.68812727381E+03  0.68812727381E+03  0.25500000000E-02 0.  1.
    5000001    1    1    2    0    0 -0.23429922592E+03  0.30021470515E+02 -0.35242707007E+03  0.43119746715E+03  0.77000000000E+02 0.  0.
   -5000001    1    1    2    0    0  0.23429922592E+03 -0.30021470515E+02 -0.24423663012E+03  0.34839338032E+03  0.77000000000E+02 0.  0.
<mgrwt>
<rscale>  0 0.50175125E+03</rscale>
<asrwt>0</asrwt>
<pdfrwt beam="1">  1        2 0.98303893E-01 0.50175125E+03</pdfrwt>
<pdfrwt beam="2">  1       -2 0.13066225E-01 0.50175125E+03</pdfrwt>
<totfact> 0.20256188E+03</totfact>
</mgrwt>
</event>
<event>
 4    1  0.6919593E-004  0.2376173E+03  0.7818608E-02  0.1121390E+00
          2   -1    0    0  501    0  0.00000000000E+00  0.00000000000E+00  0.41269338713E+02  0.41269338792E+02  0.25500000000E-02 0.  1.
         -2   -1    0    0    0  501 -0.00000000000E+00 -0.00000000000E+00 -0.34203342752E+03  0.34203342753E+03  0.25500000000E-02 0. -1.
    5000001    1    1    2    0    0  0.66986868215E+02 -0.37690288871E+02 -0.73379154199E+02  0.13122994574E+03  0.77000000000E+02 0.  0.
   -5000001    1    1    2    0    0 -0.66986868215E+02  0.37690288871E+02 -0.22738493461E+03  0.25207282058E+03  0.77000000000E+02 0.  0.
<mgrwt>
<rscale>  0 0.23761728E+03</rscale>
<asrwt>0</asrwt>
<pdfrwt beam="1">  1        2 0.58956200E-02 0.23761728E+03</pdfrwt>
<pdfrwt beam="2">  1       -2 0.48861916E-01 0.23761728E+03</pdfrwt>
<totfact> 0.50174456E+03</totfact>
</mgrwt>
</event>
<event>
 4    1  0.6919593E-004  0.2321497E+03  0.7818608E-02  0.1125136E+00
         -2   -1    0    0    0  501 -0.00000000000E+00  0.00000000000E+00  0.74889153498E+01  0.74889157839E+01  0.25500000000E-02 0. -1.
          2   -1    0    0  501    0  0.00000000000E+00 -0.00000000000E+00 -0.17991082613E+04  0.17991082613E+04  0.25500000000E-02 0.  1.
    5000001    1    1    2    0    0 -0.48331153525E+02  0.35839543569E+02 -0.13832904850E+04  0.13867378768E+04  0.77000000000E+02 0.  0.
   -5000001    1    1    2    0    0  0.48331153525E+02 -0.35839543569E+02 -0.40832886098E+03  0.41985930023E+03  0.77000000000E+02 0.  0.
<mgrwt>
<rscale>  0 0.23214969E+03</rscale>
<asrwt>0</asrwt>
<pdfrwt beam="1">  1        2 0.25701519E+00 0.23214969E+03</pdfrwt>
<pdfrwt beam="2">  1       -2 0.10698462E-02 0.23214969E+03</pdfrwt>
<totfact> 0.21251350E+04</totfact>
</mgrwt>
</event>
<event>
 4    1  0.6919593E-004  0.1956948E+03  0.7818608E-02  0.1153423E+00
          2   -1    0    0  501    0  0.00000000000E+00  0.00000000000E+00  0.13506980338E+04  0.13506980338E+04  0.25500000000E-02 0.  1.
         -2   -1    0    0    0  501 -0.00000000000E+00 -0.00000000000E+00 -0.70882733629E+01  0.70882738216E+01  0.25500000000E-02 0. -1.
    5000001    1    1    2    0    0  0.22755336343E+02  0.54449748432E+02  0.58334876280E+03  0.59136060022E+03  0.77000000000E+02 0.  0.
   -5000001    1    1    2    0    0 -0.22755336343E+02 -0.54449748432E+02  0.76026099765E+03  0.76642570742E+03  0.77000000000E+02 0.  0.
<mgrwt>
<rscale>  0 0.19569484E+03</rscale>
<asrwt>0</asrwt>
<pdfrwt beam="1">  1        2 0.19295720E+00 0.19569484E+03</pdfrwt>
<pdfrwt beam="2">  1       -2 0.10126087E-02 0.19569484E+03</pdfrwt>
<totfact> 0.38077375E+04</totfact>
</mgrwt>
</event>
<event>
 4    1  0.6919593E-004  0.2610017E+03  0.7818608E-02  0.1106543E+00
          2   -1    0    0  501    0  0.00000000000E+00  0.00000000000E+00  0.39646126099E+03  0.39646126100E+03  0.25500000000E-02 0.  1.
         -2   -1    0    0    0  501 -0.00000000000E+00 -0.00000000000E+00 -0.42956198082E+02  0.42956198157E+02  0.25500000000E-02 0. -1.
    5000001    1    1    2    0    0 -0.10029495786E+03 -0.26075443555E+02  0.14469982202E+03  0.19392278314E+03  0.77000000000E+02 0.  0.
   -5000001    1    1    2    0    0  0.10029495786E+03  0.26075443555E+02  0.20880524089E+03  0.24549467602E+03  0.77000000000E+02 0.  0.
<mgrwt>
<rscale>  0 0.26100167E+03</rscale>
<asrwt>0</asrwt>
<pdfrwt beam="1">  1        2 0.56637321E-01 0.26100167E+03</pdfrwt>
<pdfrwt beam="2">  1       -2 0.61366000E-02 0.26100167E+03</pdfrwt>
<totfact> 0.12365187E+04</totfact>
</mgrwt>
</event>
<event>
 4    1  0.6919593E-004  0.3583844E+03  0.7818608E-02  0.1059225E+00
          2   -1    0    0  501    0  0.00000000000E+00  0.00000000000E+00  0.93384852282E+03  0.93384852282E+03  0.25500000000E-02 0.  1.
         -2   -1    0    0    0  501 -0.00000000000E+00 -0.00000000000E+00 -0.34384430917E+02  0.34384431012E+02  0.25500000000E-02 0. -1.
    5000001    1    1    2    0    0  0.10506322765E+03 -0.11043590833E+03  0.59638214386E+03  0.62035073399E+03  0.77000000000E+02 0.  0.
   -5000001    1    1    2    0    0 -0.10506322765E+03  0.11043590833E+03  0.30308194805E+03  0.34788221985E+03  0.77000000000E+02 0.  0.
<mgrwt>
<rscale>  0 0.35838443E+03</rscale>
<asrwt>0</asrwt>
<pdfrwt beam="1">  1        2 0.13340694E+00 0.35838443E+03</pdfrwt>
<pdfrwt beam="2">  1       -2 0.49120612E-02 0.35838443E+03</pdfrwt>
<totfact> 0.64599284E+03</totfact>
</mgrwt>
</event>
<event>
 4    1  0.6919593E-004  0.3051645E+03  0.7818608E-02  0.1082687E+00
          2   -1    0    0  501    0  0.00000000000E+00  0.00000000000E+00  0.23356619153E+04  0.23356619153E+04  0.25500000000E-02 0.  1.
         -2   -1    0    0    0  501 -0.00000000000E+00 -0.00000000000E+00 -0.99677698485E+01  0.99677701746E+01  0.25500000000E-02 0. -1.
    5000001    1    1    2    0    0  0.78594448745E+02 -0.10571167517E+03  0.11670230123E+04  0.11769552909E+04  0.77000000000E+02 0.  0.
   -5000001    1    1    2    0    0 -0.78594448745E+02  0.10571167517E+03  0.11586711332E+04  0.11686743946E+04  0.77000000000E+02 0.  0.
<mgrwt>
<rscale>  0 0.30516449E+03</rscale>
<asrwt>0</asrwt>
<pdfrwt beam="1">  1        2 0.33366582E+00 0.30516449E+03</pdfrwt>
<pdfrwt beam="2">  1       -2 0.14239679E-02 0.30516449E+03</pdfrwt>
<totfact> 0.77081278E+03</totfact>
</mgrwt>
</event>
<event>
 4    1  0.6919593E-004  0.2635858E+03  0.7818608E-02  0.1105008E+00
         -2   -1    0    0    0  501 -0.00000000000E+00  0.00000000000E+00  0.28046740225E+02  0.28046740340E+02  0.25500000000E-02 0. -1.
          2   -1    0    0  501    0  0.00000000000E+00 -0.00000000000E+00 -0.61930068686E+03  0.61930068687E+03  0.25500000000E-02 0.  1.
    5000001    1    1    2    0    0 -0.40452746622E+02 -0.88548348931E+02 -0.18681164856E+03  0.22428737558E+03  0.77000000000E+02 0.  0.
   -5000001    1    1    2    0    0  0.40452746622E+02  0.88548348931E+02 -0.40444229808E+03  0.42306005162E+03  0.77000000000E+02 0.  0.
<mgrwt>
<rscale>  0 0.26358578E+03</rscale>
<asrwt>0</asrwt>
<pdfrwt beam="1">  1        2 0.88471519E-01 0.26358578E+03</pdfrwt>
<pdfrwt beam="2">  1       -2 0.40066775E-02 0.26358578E+03</pdfrwt>
<totfact> 0.14423951E+04</totfact>
</mgrwt>
</event>
<event>
 4    1  0.6919593E-004  0.1716735E+03  0.7818608E-02  0.1176114E+00
          2   -1    0    0  501    0  0.00000000000E+00  0.00000000000E+00  0.25961381574E+04  0.25961381575E+04  0.25500000000E-02 0.  1.
         -2   -1    0    0    0  501 -0.00000000000E+00 -0.00000000000E+00 -0.28380416670E+01  0.28380428126E+01  0.25500000000E-02 0. -1.
    5000001    1    1    2    0    0 -0.35731607068E+02  0.12549839017E+02  0.12638169550E+04  0.12667267038E+04  0.77000000000E+02 0.  0.
   -5000001    1    1    2    0    0  0.35731607068E+02 -0.12549839017E+02  0.13294831607E+04  0.13322494965E+04  0.77000000000E+02 0.  0.
<mgrwt>
<rscale>  0 0.17167352E+03</rscale>
<asrwt>0</asrwt>
<pdfrwt beam="1">  1        2 0.37087564E+00 0.17167352E+03</pdfrwt>
<pdfrwt beam="2">  1       -2 0.40543596E-03 0.17167352E+03</pdfrwt>
<totfact> 0.34543480E+04</totfact>
</mgrwt>
</event>
<event>
 4    1  0.6919593E-004  0.2854634E+03  0.7818608E-02  0.1092742E+00
         -2   -1    0    0    0  501 -0.00000000000E+00  0.00000000000E+00  0.16723280948E+02  0.16723281142E+02  0.25500000000E-02 0. -1.
          2   -1    0    0  501    0  0.00000000000E+00 -0.00000000000E+00 -0.12182021714E+04  0.12182021714E+04  0.25500000000E-02 0.  1.
    5000001    1    1    2    0    0  0.45270203509E+02  0.89578175670E+02 -0.31477242546E+03  0.33924080049E+03  0.77000000000E+02 0.  0.
   -5000001    1    1    2    0    0 -0.45270203509E+02 -0.89578175670E+02 -0.88670646503E+03  0.89568465210E+03  0.77000000000E+02 0.  0.
<mgrwt>
<rscale>  0 0.28546339E+03</rscale>
<asrwt>0</asrwt>
<pdfrwt beam="1">  1        2 0.17402883E+00 0.28546339E+03</pdfrwt>
<pdfrwt beam="2">  1       -2 0.23890409E-02 0.28546339E+03</pdfrwt>
<totfact> 0.13017633E+04</totfact>
</mgrwt>
</event>
<event>
 4    1  0.6919593E-004  0.1907993E+03  0.7818608E-02  0.1157742E+00
         -2   -1    0    0    0  501 -0.00000000000E+00  0.00000000000E+00  0.32472710087E+04  0.32472710087E+04  0.25500000000E-02 0. -1.
          2   -1    0    0  501    0  0.00000000000E+00 -0.00000000000E+00 -0.28026881315E+01  0.28026892915E+01  0.25500000000E-02 0.  1.
    5000001    1    1    2    0    0  0.14443797173E+02 -0.53576428732E+02  0.17865330329E+04  0.17890523566E+04  0.77000000000E+02 0.  0.
   -5000001    1    1    2    0    0 -0.14443797173E+02  0.53576428732E+02  0.14579352877E+04  0.14610213414E+04  0.77000000000E+02 0.  0.
<mgrwt>
<rscale>  0 0.19079926E+03</rscale>
<asrwt>0</asrwt>
<pdfrwt beam="1">  1        2 0.40038075E-03 0.19079926E+03</pdfrwt>
<pdfrwt beam="2">  1       -2 0.46389975E+00 0.19079926E+03</pdfrwt>
<totfact> 0.18201157E+02</totfact>
</mgrwt>
</event>
<event>
 4    1  0.6919593E-004  0.3161600E+03  0.7818608E-02  0.1077430E+00
         -2   -1    0    0    0  501 -0.00000000000E+00  0.00000000000E+00  0.23939118338E+02  0.23939118474E+02  0.25500000000E-02 0. -1.
          2   -1    0    0  501    0  0.00000000000E+00 -0.00000000000E+00 -0.10438684770E+04  0.10438684770E+04  0.25500000000E-02 0.  1.
    5000001    1    1    2    0    0 -0.12638219816E+03 -0.33623850547E+02 -0.65938551494E+03  0.67662491874E+03  0.77000000000E+02 0.  0.
   -5000001    1    1    2    0    0  0.12638219816E+03  0.33623850547E+02 -0.36054384367E+03  0.39118267669E+03  0.77000000000E+02 0.  0.
<mgrwt>
<rscale>  0 0.31616003E+03</rscale>
<asrwt>0</asrwt>
<pdfrwt beam="1">  1        2 0.14912404E+00 0.31616003E+03</pdfrwt>
<pdfrwt beam="2">  1       -2 0.34198747E-02 0.31616003E+03</pdfrwt>
<totfact> 0.95763618E+03</totfact>
</mgrwt>
</event>
<event>
 4    1  0.6919593E-004  0.2921774E+03  0.7818608E-02  0.1089218E+00
          2   -1    0    0  501    0  0.00000000000E+00  0.00000000000E+00  0.25481285972E+04  0.25481285972E+04  0.25500000000E-02 0.  1.
         -2   -1    0    0    0  501 -0.00000000000E+00 -0.00000000000E+00 -0.83755194957E+01  0.83755198839E+01  0.25500000000E-02 0. -1.
    5000001    1    1    2    0    0 -0.82074396729E+02 -0.87079348159E+02  0.98048545948E+03  0.99075716284E+03  0.77000000000E+02 0.  0.
   -5000001    1    1    2    0    0  0.82074396729E+02  0.87079348159E+02  0.15592676183E+04  0.15657469543E+04  0.77000000000E+02 0.  0.
<mgrwt>
<rscale>  0 0.29217735E+03</rscale>
<asrwt>0</asrwt>
<pdfrwt beam="1">  1        2 0.36401877E+00 0.29217735E+03</pdfrwt>
<pdfrwt beam="2">  1       -2 0.11965015E-02 0.29217735E+03</pdfrwt>
<totfact> 0.77902090E+03</totfact>
</mgrwt>
</event>
<event>
 4    1  0.6919593E-004  0.2182201E+03  0.7818608E-02  0.1135217E+00
         -2   -1    0    0    0  501 -0.00000000000E+00  0.00000000000E+00  0.18142809234E+02  0.18142809413E+02  0.25500000000E-02 0. -1.
          2   -1    0    0  501    0  0.00000000000E+00 -0.00000000000E+00 -0.65618273155E+03  0.65618273155E+03  0.25500000000E-02 0.  1.
    5000001    1    1    2    0    0  0.10086083544E+02  0.41721198277E+02 -0.51769336579E+03  0.52514551169E+03  0.77000000000E+02 0.  0.
   -5000001    1    1    2    0    0 -0.10086083544E+02 -0.41721198277E+02 -0.12034655652E+03  0.14918002927E+03  0.77000000000E+02 0.  0.
<mgrwt>
<rscale>  0 0.21822006E+03</rscale>
<asrwt>0</asrwt>
<pdfrwt beam="1">  1        2 0.93740375E-01 0.21822006E+03</pdfrwt>
<pdfrwt beam="2">  1       -2 0.25918303E-02 0.21822006E+03</pdfrwt>
<totfact> 0.25528364E+04</totfact>
</mgrwt>
</event>
<event>
 4    1  0.6919593E-004  0.3582426E+03  0.7818608E-02  0.1059282E+00
          2   -1    0    0  501    0  0.00000000000E+00  0.00000000000E+00  0.11442823376E+04  0.11442823376E+04  0.25500000000E-02 0.  1.
         -2   -1    0    0    0  501 -0.00000000000E+00 -0.00000000000E+00 -0.28038911597E+02  0.28038911713E+02  0.25500000000E-02 0. -1.
    5000001    1    1    2    0    0 -0.64217929029E+02 -0.62854052652E+02  0.99814835682E+03  0.10051386554E+04  0.77000000000E+02 0.  0.
   -5000001    1    1    2    0    0  0.64217929029E+02  0.62854052652E+02  0.11809506916E+03  0.16718259390E+03  0.77000000000E+02 0.  0.
<mgrwt>
<rscale>  0 0.35824255E+03</rscale>
<asrwt>0</asrwt>
<pdfrwt beam="1">  1        2 0.16346886E+00 0.35824255E+03</pdfrwt>
<pdfrwt beam="2">  1       -2 0.40055599E-02 0.35824255E+03</pdfrwt>
<totfact> 0.66316514E+03</totfact>
</mgrwt>
</event>
<event>
 4    1  0.6919593E-004  0.2007114E+03  0.7818608E-02  0.1149140E+00
         -2   -1    0    0    0  501 -0.00000000000E+00  0.00000000000E+00  0.31387060114E+02  0.31387060218E+02  0.25500000000E-02 0. -1.
          2   -1    0    0  501    0  0.00000000000E+00 -0.00000000000E+00 -0.32087323693E+03  0.32087323694E+03  0.25500000000E-02 0.  1.
    5000001    1    1    2    0    0  0.32827191189E+02  0.48729659006E+02 -0.98639349642E+02  0.13824227084E+03  0.77000000000E+02 0.  0.
   -5000001    1    1    2    0    0 -0.32827191189E+02 -0.48729659006E+02 -0.19084682718E+03  0.21401802632E+03  0.77000000000E+02 0.  0.
<mgrwt>
<rscale>  0 0.20071141E+03</rscale>
<asrwt>0</asrwt>
<pdfrwt beam="1">  1        2 0.45839032E-01 0.20071141E+03</pdfrwt>
<pdfrwt beam="2">  1       -2 0.44838659E-02 0.20071141E+03</pdfrwt>
<totfact> 0.24584002E+04</totfact>
</mgrwt>
</event>
<event>
 4    1  0.6919593E-004  0.7882157E+03  0.7818608E-02  0.9577233E-01
          2   -1    0    0  501    0  0.00000000000E+00  0.00000000000E+00  0.42829651736E+03  0.42829651737E+03  0.25500000000E-02 0.  1.
         -2   -1    0    0    0  501 -0.00000000000E+00 -0.00000000000E+00 -0.36264831377E+03  0.36264831378E+03  0.25500000000E-02 0. -1.
    5000001    1    1    2    0    0  0.38610140658E+03  0.14576469703E+02  0.43118285167E+02  0.39632682997E+03  0.77000000000E+02 0.  0.
   -5000001    1    1    2    0    0 -0.38610140658E+03 -0.14576469703E+02  0.22529918417E+02  0.39461800118E+03  0.77000000000E+02 0.  0.
<mgrwt>
<rscale>  0 0.78821573E+03</rscale>
<asrwt>0</asrwt>
<pdfrwt beam="1">  1        2 0.61185217E-01 0.78821573E+03</pdfrwt>
<pdfrwt beam="2">  1       -2 0.51806902E-01 0.78821573E+03</pdfrwt>
<totfact> 0.28366919E+02</totfact>
</mgrwt>
</event>
<event>
 4    1  0.6919593E-004  0.2215057E+03  0.7818608E-02  0.1132765E+00
         -2   -1    0    0    0  501 -0.00000000000E+00  0.00000000000E+00  0.47009325034E+01  0.47009331950E+01  0.25500000000E-02 0. -1.
          2   -1    0    0  501    0  0.00000000000E+00 -0.00000000000E+00 -0.26093103894E+04  0.26093103894E+04  0.25500000000E-02 0.  1.
    5000001    1    1    2    0    0 -0.72144092947E+02  0.40902740810E+01 -0.16964849396E+04  0.16997681168E+04  0.77000000000E+02 0.  0.
   -5000001    1    1    2    0    0  0.72144092947E+02 -0.40902740810E+01 -0.90812451731E+03  0.91424320584E+03  0.77000000000E+02 0.  0.
<mgrwt>
<rscale>  0 0.22150569E+03</rscale>
<asrwt>0</asrwt>
<pdfrwt beam="1">  1        2 0.37275770E+00 0.22150569E+03</pdfrwt>
<pdfrwt beam="2">  1       -2 0.67156351E-03 0.22150569E+03</pdfrwt>
<totfact> 0.16696664E+04</totfact>
</mgrwt>
</event>
<event>
 4    1  0.6919593E-004  0.3327592E+03  0.7818608E-02  0.1069922E+00
          2   -1    0    0  501    0  0.00000000000E+00  0.00000000000E+00  0.52747189744E+03  0.52747189744E+03  0.25500000000E-02 0. -1.
         -2   -1    0    0    0  501 -0.00000000000E+00 -0.00000000000E+00 -0.52480845794E+02  0.52480845856E+02  0.25500000000E-02 0.  1.
    5000001    1    1    2    0    0  0.89323714017E+02  0.11518932007E+03  0.27669500303E+03  0.32208140282E+03  0.77000000000E+02 0.  0.
   -5000001    1    1    2    0    0 -0.89323714017E+02 -0.11518932007E+03  0.19829604861E+03  0.25787134048E+03  0.77000000000E+02 0.  0.
<mgrwt>
<rscale>  0 0.33275920E+03</rscale>
<asrwt>0</asrwt>
<pdfrwt beam="1">  1        2 0.75353134E-01 0.33275920E+03</pdfrwt>
<pdfrwt beam="2">  1       -2 0.74972631E-02 0.33275920E+03</pdfrwt>
<totfact> 0.66892563E+03</totfact>
</mgrwt>
</event>
<event>
 4    1  0.6919593E-004  0.4671128E+03  0.7818608E-02  0.1022738E+00
          2   -1    0    0  501    0  0.00000000000E+00  0.00000000000E+00  0.19755329195E+04  0.19755329195E+04  0.25500000000E-02 0.  1.
         -2   -1    0    0    0  501 -0.00000000000E+00 -0.00000000000E+00 -0.27612089233E+02  0.27612089351E+02  0.25500000000E-02 0. -1.
    5000001    1    1    2    0    0 -0.20938219066E+03 -0.45323505220E+02  0.11977972713E+04  0.12192384611E+04  0.77000000000E+02 0.  0.
   -5000001    1    1    2    0    0  0.20938219066E+03  0.45323505220E+02  0.75012355898E+03  0.78390654777E+03  0.77000000000E+02 0.  0.
<mgrwt>
<rscale>  0 0.46711280E+03</rscale>
<asrwt>0</asrwt>
<pdfrwt beam="1">  1        2 0.28221895E+00 0.46711280E+03</pdfrwt>
<pdfrwt beam="2">  1       -2 0.39445847E-02 0.46711280E+03</pdfrwt>
<totfact> 0.25310123E+03</totfact>
</mgrwt>
</event>
<event>
 4    1  0.6919593E-004  0.1965644E+03  0.7818608E-02  0.1152670E+00
         -2   -1    0    0    0  501 -0.00000000000E+00  0.00000000000E+00  0.15865593068E+03  0.15865593070E+03  0.25500000000E-02 0. -1.
          2   -1    0    0  501    0  0.00000000000E+00 -0.00000000000E+00 -0.60882638727E+02  0.60882638780E+02  0.25500000000E-02 0.  1.
    5000001    1    1    2    0    0 -0.55276401761E+02 -0.25518577296E+02  0.43447855890E+02  0.10734707523E+03  0.77000000000E+02 0.  0.
   -5000001    1    1    2    0    0  0.55276401761E+02  0.25518577296E+02  0.54325436065E+02  0.11219149425E+03  0.77000000000E+02 0.  0.
<mgrwt>
<rscale>  0 0.19656441E+03</rscale>
<asrwt>0</asrwt>
<pdfrwt beam="1">  1        2 0.86975198E-02 0.19656441E+03</pdfrwt>
<pdfrwt beam="2">  1       -2 0.22665133E-01 0.19656441E+03</pdfrwt>
<totfact> 0.12463103E+04</totfact>
</mgrwt>
</event>
<event>
 4    1  0.6919593E-004  0.2923000E+03  0.7818608E-02  0.1089154E+00
          2   -1    0    0  501    0  0.00000000000E+00  0.00000000000E+00  0.19028788019E+04  0.19028788019E+04  0.25500000000E-02 0.  1.
         -2   -1    0    0    0  501 -0.00000000000E+00 -0.00000000000E+00 -0.11225006035E+02  0.11225006325E+02  0.25500000000E-02 0. -1.
    5000001    1    1    2    0    0  0.74661127344E+02 -0.62428591962E+02  0.14513384654E+04  0.14566344614E+04  0.77000000000E+02 0.  0.
   -5000001    1    1    2    0    0 -0.74661127344E+02  0.62428591962E+02  0.44031533047E+03  0.45746934682E+03  0.77000000000E+02 0.  0.
<mgrwt>
<rscale>  0 0.29230003E+03</rscale>
<asrwt>0</asrwt>
<pdfrwt beam="1">  1        2 0.27183993E+00 0.29230003E+03</pdfrwt>
<pdfrwt beam="2">  1       -2 0.16035717E-02 0.29230003E+03</pdfrwt>
<totfact> 0.10553391E+04</totfact>
</mgrwt>
</event>
<event>
 4    1  0.6919593E-004  0.2937211E+03  0.7818608E-02  0.1088422E+00
         -2   -1    0    0    0  501 -0.00000000000E+00  0.00000000000E+00  0.22074460863E+02  0.22074461011E+02  0.25500000000E-02 0. -1.
          2   -1    0    0  501    0  0.00000000000E+00 -0.00000000000E+00 -0.97705787107E+03  0.97705787107E+03  0.25500000000E-02 0.  1.
    5000001    1    1    2    0    0 -0.12096695090E+03 -0.22356501248E+02 -0.40095796358E+03  0.42641424099E+03  0.77000000000E+02 0.  0.
   -5000001    1    1    2    0    0  0.12096695090E+03  0.22356501248E+02 -0.55402544663E+03  0.57271809110E+03  0.77000000000E+02 0.  0.
<mgrwt>
<rscale>  0 0.29372113E+03</rscale>
<asrwt>0</asrwt>
<pdfrwt beam="1">  1        2 0.13957967E+00 0.29372113E+03</pdfrwt>
<pdfrwt beam="2">  1       -2 0.31534950E-02 0.29372113E+03</pdfrwt>
<totfact> 0.11813484E+04</totfact>
</mgrwt>
</event>
<event>
 4    1  0.6919593E-004  0.2254533E+03  0.7818608E-02  0.1129881E+00
         -2   -1    0    0    0  501 -0.00000000000E+00  0.00000000000E+00  0.12431935287E+02  0.12431935549E+02  0.25500000000E-02 0. -1.
          2   -1    0    0  501    0  0.00000000000E+00 -0.00000000000E+00 -0.10221498492E+04  0.10221498492E+04  0.25500000000E-02 0.  1.
    5000001    1    1    2    0    0 -0.14602229236E+02  0.81017594945E+02 -0.50993819502E+03  0.52224806226E+03  0.77000000000E+02 0.  0.
   -5000001    1    1    2    0    0  0.14602229236E+02 -0.81017594945E+02 -0.49977971885E+03  0.51233372245E+03  0.77000000000E+02 0.  0.
<mgrwt>
<rscale>  0 0.22545333E+03</rscale>
<asrwt>0</asrwt>
<pdfrwt beam="1">  1        2 0.14602135E+00 0.22545333E+03</pdfrwt>
<pdfrwt beam="2">  1       -2 0.17759914E-02 0.22545333E+03</pdfrwt>
<totfact> 0.25628364E+04</totfact>
</mgrwt>
</event>
<event>
 4    1  0.6919593E-004  0.2470130E+03  0.7818608E-02  0.1115207E+00
          2   -1    0    0  501    0  0.00000000000E+00  0.00000000000E+00  0.10280678432E+04  0.10280678432E+04  0.25500000000E-02 0.  1.
         -2   -1    0    0    0  501 -0.00000000000E+00 -0.00000000000E+00 -0.14837399143E+02  0.14837399362E+02  0.25500000000E-02 0. -1.
    5000001    1    1    2    0    0 -0.19233124939E+02  0.94110545780E+02  0.54844248560E+03  0.56208973299E+03  0.77000000000E+02 0.  0.
   -5000001    1    1    2    0    0  0.19233124939E+02 -0.94110545780E+02  0.46478795849E+03  0.48081550961E+03  0.77000000000E+02 0.  0.
<mgrwt>
<rscale>  0 0.24701298E+03</rscale>
<asrwt>0</asrwt>
<pdfrwt beam="1">  1        2 0.14686688E+00 0.24701298E+03</pdfrwt>
<pdfrwt beam="2">  1       -2 0.21196278E-02 0.24701298E+03</pdfrwt>
<totfact> 0.19716455E+04</totfact>
</mgrwt>
</event>
<event>
 4    1  0.6919593E-004  0.3063051E+03  0.7818608E-02  0.1082131E+00
          2   -1    0    0  501    0  0.00000000000E+00  0.00000000000E+00  0.17751461252E+03  0.17751461253E+03  0.25500000000E-02 0.  1.
         -2   -1    0    0    0  501 -0.00000000000E+00 -0.00000000000E+00 -0.13213393600E+03  0.13213393602E+03  0.25500000000E-02 0. -1.
    5000001    1    1    2    0    0 -0.97710910497E+02 -0.84372141652E+02  0.52346952894E+02  0.15917061222E+03  0.77000000000E+02 0.  0.
   -5000001    1    1    2    0    0  0.97710910497E+02  0.84372141652E+02 -0.69662763748E+01  0.15047793634E+03  0.77000000000E+02 0.  0.
<mgrwt>
<rscale>  0 0.30630511E+03</rscale>
<asrwt>0</asrwt>
<pdfrwt beam="1">  1        2 0.25359230E-01 0.30630511E+03</pdfrwt>
<pdfrwt beam="2">  1       -2 0.18876277E-01 0.30630511E+03</pdfrwt>
<totfact> 0.49060301E+03</totfact>
</mgrwt>
</event>
<event>
 4    1  0.6919593E-004  0.2480246E+03  0.7818608E-02  0.1114560E+00
          2   -1    0    0  501    0  0.00000000000E+00  0.00000000000E+00  0.95374694186E+02  0.95374694220E+02  0.25500000000E-02 0.  1.
         -2   -1    0    0    0  501 -0.00000000000E+00 -0.00000000000E+00 -0.16124879544E+03  0.16124879547E+03  0.25500000000E-02 0. -1.
    5000001    1    1    2    0    0 -0.35206535578E+02  0.87825424143E+02 -0.56009233034E+02  0.13423427080E+03  0.77000000000E+02 0.  0.
   -5000001    1    1    2    0    0  0.35206535578E+02 -0.87825424143E+02 -0.98648682254E+01  0.12238921888E+03  0.77000000000E+02 0.  0.
<mgrwt>
<rscale>  0 0.24802463E+03</rscale>
<asrwt>0</asrwt>
<pdfrwt beam="1">  1        2 0.13624956E-01 0.24802463E+03</pdfrwt>
<pdfrwt beam="2">  1       -2 0.23035542E-01 0.24802463E+03</pdfrwt>
<totfact> 0.70860941E+03</totfact>
</mgrwt>
</event>
<event>
 4    1  0.6919593E-004  0.3960836E+03  0.7818608E-02  0.1045144E+00
          2   -1    0    0  501    0  0.00000000000E+00  0.00000000000E+00  0.58235191289E+03  0.58235191290E+03  0.25500000000E-02 0.  1.
         -2   -1    0    0    0  501 -0.00000000000E+00 -0.00000000000E+00 -0.67348536111E+02  0.67348536160E+02  0.25500000000E-02 0. -1.
    5000001    1    1    2    0    0 -0.24091333944E+02 -0.14221053929E+03  0.74202331636E+02  0.17955282197E+03  0.77000000000E+02 0.  0.
   -5000001    1    1    2    0    0  0.24091333944E+02  0.14221053929E+03  0.44080104515E+03  0.47014762709E+03  0.77000000000E+02 0.  0.
<mgrwt>
<rscale>  0 0.39608357E+03</rscale>
<asrwt>0</asrwt>
<pdfrwt beam="1">  1        2 0.83193127E-01 0.39608357E+03</pdfrwt>
<pdfrwt beam="2">  1       -2 0.96212199E-02 0.39608357E+03</pdfrwt>
<totfact> 0.40458959E+03</totfact>
</mgrwt>
</event>
<event>
 4    1  0.6919593E-004  0.2146598E+03  0.7818608E-02  0.1137928E+00
          2   -1    0    0  501    0  0.00000000000E+00  0.00000000000E+00  0.25855218243E+03  0.25855218244E+03  0.25500000000E-02 0.  1.
         -2   -1    0    0    0  501 -0.00000000000E+00 -0.00000000000E+00 -0.44554660351E+02  0.44554660424E+02  0.25500000000E-02 0. -1.
    5000001    1    1    2    0    0  0.42484885306E+02  0.57313986620E+02  0.75398022037E+02  0.12924287318E+03  0.77000000000E+02 0.  0.
   -5000001    1    1    2    0    0 -0.42484885306E+02 -0.57313986620E+02  0.13859950004E+03  0.17386396968E+03  0.77000000000E+02 0.  0.
<mgrwt>
<rscale>  0 0.21465977E+03</rscale>
<asrwt>0</asrwt>
<pdfrwt beam="1">  1        2 0.36936026E-01 0.21465977E+03</pdfrwt>
<pdfrwt beam="2">  1       -2 0.63649514E-02 0.21465977E+03</pdfrwt>
<totfact> 0.18296516E+04</totfact>
</mgrwt>
</event>
<event>
 4    1  0.6919593E-004  0.2094452E+03  0.7818608E-02  0.1142006E+00
         -2   -1    0    0    0  501 -0.00000000000E+00  0.00000000000E+00  0.98603158134E+03  0.98603158134E+03  0.25500000000E-02 0. -1.
          2   -1    0    0  501    0  0.00000000000E+00 -0.00000000000E+00 -0.11122184454E+02  0.11122184747E+02  0.25500000000E-02 0.  1.
    5000001    1    1    2    0    0  0.43408870148E+02 -0.54498504927E+02  0.42297825386E+03  0.43553877013E+03  0.77000000000E+02 0.  0.
   -5000001    1    1    2    0    0 -0.43408870148E+02  0.54498504927E+02  0.55193114302E+03  0.56161499596E+03  0.77000000000E+02 0.  0.
<mgrwt>
<rscale>  0 0.20944522E+03</rscale>
<asrwt>0</asrwt>
<pdfrwt beam="1">  1        2 0.15888848E-02 0.20944522E+03</pdfrwt>
<pdfrwt beam="2">  1       -2 0.14086154E+00 0.20944522E+03</pdfrwt>
<totfact> 0.27672659E+03</totfact>
</mgrwt>
</event>
<event>
 4    1  0.6919593E-004  0.3696909E+03  0.7818608E-02  0.1054811E+00
         -2   -1    0    0    0  501 -0.00000000000E+00  0.00000000000E+00  0.73808105786E+02  0.73808105830E+02  0.25500000000E-02 0. -1.
          2   -1    0    0  501    0  0.00000000000E+00 -0.00000000000E+00 -0.46292802175E+03  0.46292802176E+03  0.25500000000E-02 0.  1.
    5000001    1    1    2    0    0  0.14857055671E+03 -0.78451147403E+02 -0.18973431330E+03  0.26486959526E+03  0.77000000000E+02 0.  0.
   -5000001    1    1    2    0    0 -0.14857055671E+03  0.78451147403E+02 -0.19938560267E+03  0.27186653233E+03  0.77000000000E+02 0.  0.
<mgrwt>
<rscale>  0 0.36969090E+03</rscale>
<asrwt>0</asrwt>
<pdfrwt beam="1">  1        2 0.66132573E-01 0.36969090E+03</pdfrwt>
<pdfrwt beam="2">  1       -2 0.10544015E-01 0.36969090E+03</pdfrwt>
<totfact> 0.45184066E+03</totfact>
</mgrwt>
</event>
<event>
 4    1  0.6919593E-004  0.1754878E+03  0.7818608E-02  0.1172243E+00
          2   -1    0    0  501    0  0.00000000000E+00  0.00000000000E+00  0.29577121753E+03  0.29577121755E+03  0.25500000000E-02 0.  1.
         -2   -1    0    0    0  501 -0.00000000000E+00 -0.00000000000E+00 -0.26030218975E+02  0.26030219100E+02  0.25500000000E-02 0. -1.
    5000001    1    1    2    0    0 -0.93040535543E+01 -0.38475408638E+02  0.16100179223E+03  0.18280453929E+03  0.77000000000E+02 0.  0.
   -5000001    1    1    2    0    0  0.93040535543E+01  0.38475408638E+02  0.10873920633E+03  0.13899689736E+03  0.77000000000E+02 0.  0.
<mgrwt>
<rscale>  0 0.17548777E+03</rscale>
<asrwt>0</asrwt>
<pdfrwt beam="1">  1        2 0.42253033E-01 0.17548777E+03</pdfrwt>
<pdfrwt beam="2">  1       -2 0.37186026E-02 0.17548777E+03</pdfrwt>
<totfact> 0.35074114E+04</totfact>
</mgrwt>
</event>
<event>
 4    1  0.6919593E-004  0.3185013E+03  0.7818608E-02  0.1076341E+00
          2   -1    0    0  501    0  0.00000000000E+00  0.00000000000E+00  0.15168744500E+04  0.15168744500E+04  0.25500000000E-02 0.  1.
         -2   -1    0    0    0  501 -0.00000000000E+00 -0.00000000000E+00 -0.16719095169E+02  0.16719095364E+02  0.25500000000E-02 0. -1.
    5000001    1    1    2    0    0 -0.21810838184E+02  0.13376798342E+03  0.90700501989E+03  0.92030250035E+03  0.77000000000E+02 0.  0.
   -5000001    1    1    2    0    0  0.21810838184E+02 -0.13376798342E+03  0.59315033492E+03  0.61329104499E+03  0.77000000000E+02 0.  0.
<mgrwt>
<rscale>  0 0.31850129E+03</rscale>
<asrwt>0</asrwt>
<pdfrwt beam="1">  1        2 0.21669636E+00 0.31850129E+03</pdfrwt>
<pdfrwt beam="2">  1       -2 0.23884421E-02 0.31850129E+03</pdfrwt>
<totfact> 0.91237342E+03</totfact>
</mgrwt>
</event>
<event>
 4    1  0.6919593E-004  0.3861461E+03  0.7818608E-02  0.1048685E+00
         -2   -1    0    0    0  501 -0.00000000000E+00  0.00000000000E+00  0.16807721226E+02  0.16807721420E+02  0.25500000000E-02 0. -1.
          2   -1    0    0  501    0  0.00000000000E+00 -0.00000000000E+00 -0.22178612826E+04  0.22178612826E+04  0.25500000000E-02 0.  1.
    5000001    1    1    2    0    0 -0.45239690399E+02 -0.17113223382E+03 -0.11231804320E+04  0.11396473814E+04  0.77000000000E+02 0.  0.
   -5000001    1    1    2    0    0  0.45239690399E+02  0.17113223382E+03 -0.10778731293E+04  0.10950216226E+04  0.77000000000E+02 0.  0.
<mgrwt>
<rscale>  0 0.38614606E+03</rscale>
<asrwt>0</asrwt>
<pdfrwt beam="1">  1        2 0.31683714E+00 0.38614606E+03</pdfrwt>
<pdfrwt beam="2">  1       -2 0.24011045E-02 0.38614606E+03</pdfrwt>
<totfact> 0.40679470E+03</totfact>
</mgrwt>
</event>
<event>
 4    1  0.6919593E-004  0.2711937E+03  0.7818608E-02  0.1100598E+00
          2   -1    0    0  501    0  0.00000000000E+00  0.00000000000E+00  0.13917154952E+04  0.13917154952E+04  0.25500000000E-02 0.  1.
         -2   -1    0    0    0  501 -0.00000000000E+00 -0.00000000000E+00 -0.13211392691E+02  0.13211392937E+02  0.25500000000E-02 0. -1.
    5000001    1    1    2    0    0 -0.15895362720E+02  0.10675925892E+03  0.83644641460E+03  0.84688948890E+03  0.77000000000E+02 0.  0.
   -5000001    1    1    2    0    0  0.15895362720E+02 -0.10675925892E+03  0.54205768787E+03  0.55803739919E+03  0.77000000000E+02 0.  0.
<mgrwt>
<rscale>  0 0.27119366E+03</rscale>
<asrwt>0</asrwt>
<pdfrwt beam="1">  1        2 0.19881640E+00 0.27119366E+03</pdfrwt>
<pdfrwt beam="2">  1       -2 0.18873428E-02 0.27119366E+03</pdfrwt>
<totfact> 0.14904583E+04</totfact>
</mgrwt>
</event>
<event>
 4    1  0.6919593E-004  0.3238587E+03  0.7818608E-02  0.1073887E+00
         -2   -1    0    0    0  501 -0.00000000000E+00  0.00000000000E+00  0.31766518701E+02  0.31766518803E+02  0.25500000000E-02 0. -1.
          2   -1    0    0  501    0  0.00000000000E+00 -0.00000000000E+00 -0.82543217882E+03  0.82543217882E+03  0.25500000000E-02 0.  1.
    5000001    1    1    2    0    0 -0.12573166889E+03  0.66947585519E+02 -0.39340723505E+03  0.42542764879E+03  0.77000000000E+02 0.  0.
   -5000001    1    1    2    0    0  0.12573166889E+03 -0.66947585519E+02 -0.40025842507E+03  0.43177104884E+03  0.77000000000E+02 0.  0.
<mgrwt>
<rscale>  0 0.32385865E+03</rscale>
<asrwt>0</asrwt>
<pdfrwt beam="1">  1        2 0.11791887E+00 0.32385865E+03</pdfrwt>
<pdfrwt beam="2">  1       -2 0.45380746E-02 0.32385865E+03</pdfrwt>
<totfact> 0.85309846E+03</totfact>
</mgrwt>
</event>
<event>
 4    1  0.6919593E-004  0.4324244E+03  0.7818608E-02  0.1033097E+00
          2   -1    0    0  501    0  0.00000000000E+00  0.00000000000E+00  0.17072737256E+04  0.17072737256E+04  0.25500000000E-02 0.  1.
         -2   -1    0    0    0  501 -0.00000000000E+00 -0.00000000000E+00 -0.27381501461E+02  0.27381501580E+02  0.25500000000E-02 0. -1.
    5000001    1    1    2    0    0  0.69432207796E+02  0.17845763875E+03  0.10983902358E+04  0.11176126656E+04  0.77000000000E+02 0.  0.
   -5000001    1    1    2    0    0 -0.69432207796E+02 -0.17845763875E+03  0.58150198832E+03  0.61704256152E+03  0.77000000000E+02 0.  0.
<mgrwt>
<rscale>  0 0.43242441E+03</rscale>
<asrwt>0</asrwt>
<pdfrwt beam="1">  1        2 0.24389629E+00 0.43242441E+03</pdfrwt>
<pdfrwt beam="2">  1       -2 0.39116424E-02 0.43242441E+03</pdfrwt>
<totfact> 0.34921235E+03</totfact>
</mgrwt>
</event>
<event>
 4    1  0.6919593E-004  0.5906567E+03  0.7818608E-02  0.9924982E-01
          2   -1    0    0  501    0  0.00000000000E+00  0.00000000000E+00  0.11304781008E+04  0.11304781008E+04  0.25500000000E-02 0.  1.
         -2   -1    0    0    0  501 -0.00000000000E+00 -0.00000000000E+00 -0.77152158054E+02  0.77152158096E+02  0.25500000000E-02 0. -1.
    5000001    1    1    2    0    0  0.22506598006E+03  0.16049882699E+03  0.38390590971E+03  0.47929877567E+03  0.77000000000E+02 0.  0.
   -5000001    1    1    2    0    0 -0.22506598006E+03 -0.16049882699E+03  0.66942003306E+03  0.72833148326E+03  0.77000000000E+02 0.  0.
<mgrwt>
<rscale>  0 0.59065667E+03</rscale>
<asrwt>0</asrwt>
<pdfrwt beam="1">  1        2 0.16149686E+00 0.59065667E+03</pdfrwt>
<pdfrwt beam="2">  1       -2 0.11021738E-01 0.59065667E+03</pdfrwt>
<totfact> 0.13817700E+03</totfact>
</mgrwt>
</event>
<event>
 4    1  0.6919593E-004  0.2256287E+03  0.7818608E-02  0.1129755E+00
          2   -1    0    0  501    0  0.00000000000E+00  0.00000000000E+00  0.12719467395E+04  0.12719467395E+04  0.25500000000E-02 0.  1.
         -2   -1    0    0    0  501 -0.00000000000E+00 -0.00000000000E+00 -0.10005987244E+02  0.10005987569E+02  0.25500000000E-02 0. -1.
    5000001    1    1    2    0    0 -0.31590507270E+02  0.64776498529E+02  0.85853099471E+03  0.86498463789E+03  0.77000000000E+02 0.  0.
   -5000001    1    1    2    0    0  0.31590507270E+02 -0.64776498529E+02  0.40340975755E+03  0.41696808919E+03  0.77000000000E+02 0.  0.
<mgrwt>
<rscale>  0 0.22562875E+03</rscale>
<asrwt>0</asrwt>
<pdfrwt beam="1">  1        2 0.18170675E+00 0.22562875E+03</pdfrwt>
<pdfrwt beam="2">  1       -2 0.14294262E-02 0.22562875E+03</pdfrwt>
<totfact> 0.25622927E+04</totfact>
</mgrwt>
</event>
<event>
 4    1  0.6919593E-004  0.3474490E+03  0.7818608E-02  0.1063667E+00
         -2   -1    0    0    0  501 -0.00000000000E+00  0.00000000000E+00  0.56306805353E+02  0.56306805410E+02  0.25500000000E-02 0. -1.
          2   -1    0    0  501    0  0.00000000000E+00 -0.00000000000E+00 -0.53599567573E+03  0.53599567574E+03  0.25500000000E-02 0.  1.
    5000001    1    1    2    0    0  0.21701961624E+02 -0.55765646461E+02 -0.48493530781E+03  0.49464334144E+03  0.77000000000E+02 0.  0.
   -5000001    1    1    2    0    0 -0.21701961624E+02  0.55765646461E+02  0.52464374335E+01  0.97659139712E+02  0.77000000000E+02 0.  0.
<mgrwt>
<rscale>  0 0.34744901E+03</rscale>
<asrwt>0</asrwt>
<pdfrwt beam="1">  1        2 0.76570808E-01 0.34744901E+03</pdfrwt>
<pdfrwt beam="2">  1       -2 0.80438296E-02 0.34744901E+03</pdfrwt>
<totfact> 0.58903862E+03</totfact>
</mgrwt>
</event>
<event>
 4    1  0.6919593E-004  0.4897045E+03  0.7818608E-02  0.1016502E+00
         -2   -1    0    0    0  501 -0.00000000000E+00  0.00000000000E+00  0.11331495243E+03  0.11331495245E+03  0.25500000000E-02 0. -1.
          2   -1    0    0  501    0  0.00000000000E+00 -0.00000000000E+00 -0.52907961865E+03  0.52907961866E+03  0.25500000000E-02 0.  1.
    5000001    1    1    2    0    0  0.18402595687E+03  0.57288981618E+02 -0.37829550597E+03  0.43149052139E+03  0.77000000000E+02 0.  0.
   -5000001    1    1    2    0    0 -0.18402595687E+03 -0.57288981618E+02 -0.37469160259E+02  0.21090404972E+03  0.77000000000E+02 0.  0.
<mgrwt>
<rscale>  0 0.48970453E+03</rscale>
<asrwt>0</asrwt>
<pdfrwt beam="1">  1        2 0.75582801E-01 0.48970453E+03</pdfrwt>
<pdfrwt beam="2">  1       -2 0.16187851E-01 0.48970453E+03</pdfrwt>
<totfact> 0.19267092E+03</totfact>
</mgrwt>
</event>
<event>
 4    1  0.6919593E-004  0.2815808E+03  0.7818608E-02  0.1094829E+00
          2   -1    0    0  501    0  0.00000000000E+00  0.00000000000E+00  0.20602409558E+03  0.20602409560E+03  0.25500000000E-02 0.  1.
         -2   -1    0    0    0  501 -0.00000000000E+00 -0.00000000000E+00 -0.96211758583E+02  0.96211758617E+02  0.25500000000E-02 0. -1.
    5000001    1    1    2    0    0 -0.73546565128E+02  0.42317480652E+02  0.14271854302E+03  0.18302308306E+03  0.77000000000E+02 0.  0.
   -5000001    1    1    2    0    0  0.73546565128E+02 -0.42317480652E+02 -0.32906206024E+02  0.11921277115E+03  0.77000000000E+02 0.  0.
<mgrwt>
<rscale>  0 0.28158083E+03</rscale>
<asrwt>0</asrwt>
<pdfrwt beam="1">  1        2 0.29432013E-01 0.28158083E+03</pdfrwt>
<pdfrwt beam="2">  1       -2 0.13744537E-01 0.28158083E+03</pdfrwt>
<totfact> 0.70404549E+03</totfact>
</mgrwt>
</event>
<event>
 4    1  0.6919593E-004  0.1852766E+03  0.7818608E-02  0.1162792E+00
          2   -1    0    0  501    0  0.00000000000E+00  0.00000000000E+00  0.15747866741E+03  0.15747866743E+03  0.25500000000E-02 0.  1.
         -2   -1    0    0    0  501 -0.00000000000E+00 -0.00000000000E+00 -0.54495336603E+02  0.54495336662E+02  0.25500000000E-02 0. -1.
    5000001    1    1    2    0    0  0.40221168952E+02  0.29650230709E+02  0.37203097214E+02  0.99045186937E+02  0.77000000000E+02 0.  0.
   -5000001    1    1    2    0    0 -0.40221168952E+02 -0.29650230709E+02  0.65780233595E+02  0.11292881716E+03  0.77000000000E+02 0.  0.
<mgrwt>
<rscale>  0 0.18527658E+03</rscale>
<asrwt>0</asrwt>
<pdfrwt beam="1">  1        2 0.22496953E-01 0.18527658E+03</pdfrwt>
<pdfrwt beam="2">  1       -2 0.77850480E-02 0.18527658E+03</pdfrwt>
<totfact> 0.22849508E+04</totfact>
</mgrwt>
</event>
<event>
 4    1  0.6919593E-004  0.2338743E+03  0.7818608E-02  0.1123942E+00
         -2   -1    0    0    0  501 -0.00000000000E+00  0.00000000000E+00  0.40204209400E+02  0.40204209480E+02  0.25500000000E-02 0. -1.
          2   -1    0    0  501    0  0.00000000000E+00 -0.00000000000E+00 -0.34012093812E+03  0.34012093813E+03  0.25500000000E-02 0.  1.
    5000001    1    1    2    0    0  0.29159998454E+02  0.82577623034E+02 -0.16412812201E+03  0.20133655845E+03  0.77000000000E+02 0.  0.
   -5000001    1    1    2    0    0 -0.29159998454E+02 -0.82577623034E+02 -0.13578860671E+03  0.17898858916E+03  0.77000000000E+02 0.  0.
<mgrwt>
<rscale>  0 0.23387427E+03</rscale>
<asrwt>0</asrwt>
<pdfrwt beam="1">  1        2 0.48588704E-01 0.23387427E+03</pdfrwt>
<pdfrwt beam="2">  1       -2 0.57434587E-02 0.23387427E+03</pdfrwt>
<totfact> 0.16043118E+04</totfact>
</mgrwt>
</event>
<event>
 4    1  0.6919593E-004  0.2862928E+03  0.7818608E-02  0.1092301E+00
         -2   -1    0    0    0  501 -0.00000000000E+00  0.00000000000E+00  0.33649981324E+02  0.33649981421E+02  0.25500000000E-02 0. -1.
          2   -1    0    0  501    0  0.00000000000E+00 -0.00000000000E+00 -0.60894211999E+03  0.60894212000E+03  0.25500000000E-02 0.  1.
    5000001    1    1    2    0    0  0.75182036523E+02 -0.63706428391E+02 -0.44397614721E+03  0.46125336522E+03  0.77000000000E+02 0.  0.
   -5000001    1    1    2    0    0 -0.75182036523E+02  0.63706428391E+02 -0.13131599146E+03  0.18133873620E+03  0.77000000000E+02 0.  0.
<mgrwt>
<rscale>  0 0.28629279E+03</rscale>
<asrwt>0</asrwt>
<pdfrwt beam="1">  1        2 0.86991725E-01 0.28629279E+03</pdfrwt>
<pdfrwt beam="2">  1       -2 0.48071406E-02 0.28629279E+03</pdfrwt>
<totfact> 0.11208681E+04</totfact>
</mgrwt>
</event>
<event>
 4    1  0.6919593E-004  0.2564280E+03  0.7818608E-02  0.1109309E+00
         -2   -1    0    0    0  501 -0.00000000000E+00  0.00000000000E+00  0.14616922618E+02  0.14616922841E+02  0.25500000000E-02 0. -1.
          2   -1    0    0  501    0  0.00000000000E+00 -0.00000000000E+00 -0.11246434230E+04  0.11246434230E+04  0.25500000000E-02 0.  1.
    5000001    1    1    2    0    0 -0.10152664841E+03 -0.11945018213E+02 -0.58927828383E+03  0.60301595302E+03  0.77000000000E+02 0.  0.
   -5000001    1    1    2    0    0  0.10152664841E+03  0.11945018213E+02 -0.52074821660E+03  0.53624439287E+03  0.77000000000E+02 0.  0.
<mgrwt>
<rscale>  0 0.25642797E+03</rscale>
<asrwt>0</asrwt>
<pdfrwt beam="1">  1        2 0.16066329E+00 0.25642797E+03</pdfrwt>
<pdfrwt beam="2">  1       -2 0.20881325E-02 0.25642797E+03</pdfrwt>
<totfact> 0.17795484E+04</totfact>
</mgrwt>
</event>
<event>
 4    1  0.6919593E-004  0.2165728E+03  0.7818608E-02  0.1136464E+00
         -2   -1    0    0    0  501 -0.00000000000E+00  0.00000000000E+00  0.18563716485E+02  0.18563716660E+02  0.25500000000E-02 0. -1.
          2   -1    0    0  501    0  0.00000000000E+00 -0.00000000000E+00 -0.63165917863E+03  0.63165917863E+03  0.25500000000E-02 0.  1.
    5000001    1    1    2    0    0  0.68270684017E+02  0.98904444561E+01 -0.20980770993E+03  0.23389523794E+03  0.77000000000E+02 0.  0.
   -5000001    1    1    2    0    0 -0.68270684017E+02 -0.98904444561E+01 -0.40328775222E+03  0.41632765735E+03  0.77000000000E+02 0.  0.
<mgrwt>
<rscale>  0 0.21657278E+03</rscale>
<asrwt>0</asrwt>
<pdfrwt beam="1">  1        2 0.90237013E-01 0.21657278E+03</pdfrwt>
<pdfrwt beam="2">  1       -2 0.26519599E-02 0.21657278E+03</pdfrwt>
<totfact> 0.25773765E+04</totfact>
</mgrwt>
</event>
<event>
 4    1  0.6919593E-004  0.3542103E+03  0.7818608E-02  0.1060900E+00
         -2   -1    0    0    0  501 -0.00000000000E+00  0.00000000000E+00  0.24670067074E+02  0.24670067206E+02  0.25500000000E-02 0. -1.
          2   -1    0    0  501    0  0.00000000000E+00 -0.00000000000E+00 -0.12714288685E+04  0.12714288685E+04  0.25500000000E-02 0.  1.
    5000001    1    1    2    0    0  0.71594571766E+00 -0.15939927351E+03 -0.60381264516E+03  0.62922758318E+03  0.77000000000E+02 0.  0.
   -5000001    1    1    2    0    0 -0.71594571766E+00  0.15939927351E+03 -0.64294615631E+03  0.66687135258E+03  0.77000000000E+02 0.  0.
<mgrwt>
<rscale>  0 0.35421031E+03</rscale>
<asrwt>0</asrwt>
<pdfrwt beam="1">  1        2 0.18163265E+00 0.35421031E+03</pdfrwt>
<pdfrwt beam="2">  1       -2 0.35242961E-02 0.35421031E+03</pdfrwt>
<totfact> 0.68539175E+03</totfact>
</mgrwt>
</event>
<event>
 4    1  0.6919593E-004  0.3959712E+03  0.7818608E-02  0.1045184E+00
         -2   -1    0    0    0  501 -0.00000000000E+00  0.00000000000E+00  0.50917380071E+02  0.50917380135E+02  0.25500000000E-02 0. -1.
          2   -1    0    0  501    0  0.00000000000E+00 -0.00000000000E+00 -0.76984125567E+03  0.76984125567E+03  0.25500000000E-02 0.  1.
    5000001    1    1    2    0    0 -0.49114300146E+02 -0.45661588814E+02 -0.71105286997E+03  0.71834697679E+03  0.77000000000E+02 0.  0.
   -5000001    1    1    2    0    0  0.49114300146E+02  0.45661588814E+02 -0.78710056209E+01  0.10241165901E+03  0.77000000000E+02 0.  0.
<mgrwt>
<rscale>  0 0.39597121E+03</rscale>
<asrwt>0</asrwt>
<pdfrwt beam="1">  1        2 0.10997732E+00 0.39597121E+03</pdfrwt>
<pdfrwt beam="2">  1       -2 0.72739119E-02 0.39597121E+03</pdfrwt>
<totfact> 0.45163997E+03</totfact>
</mgrwt>
</event>
<event>
 4    1  0.6919593E-004  0.3425176E+03  0.7818608E-02  0.1065729E+00
         -2   -1    0    0    0  501 -0.00000000000E+00  0.00000000000E+00  0.13757382706E+03  0.13757382708E+03  0.25500000000E-02 0. -1.
          2   -1    0    0  501    0  0.00000000000E+00 -0.00000000000E+00 -0.21319155009E+03  0.21319155011E+03  0.25500000000E-02 0.  1.
    5000001    1    1    2    0    0  0.94734968457E+02 -0.16290178181E+02 -0.15967218321E+03  0.20165388726E+03  0.77000000000E+02 0.  0.
   -5000001    1    1    2    0    0 -0.94734968457E+02  0.16290178181E+02  0.84054460181E+02  0.14911148993E+03  0.77000000000E+02 0.  0.
<mgrwt>
<rscale>  0 0.34251761E+03</rscale>
<asrwt>0</asrwt>
<pdfrwt beam="1">  1        2 0.30455935E-01 0.34251761E+03</pdfrwt>
<pdfrwt beam="2">  1       -2 0.19653404E-01 0.34251761E+03</pdfrwt>
<totfact> 0.37479077E+03</totfact>
</mgrwt>
</event>
<event>
 4    1  0.6919593E-004  0.7208064E+03  0.7818608E-02  0.9682298E-01
         -2   -1    0    0    0  501 -0.00000000000E+00  0.00000000000E+00  0.49429895109E+02  0.49429895175E+02  0.25500000000E-02 0. -1.
          2   -1    0    0  501    0  0.00000000000E+00 -0.00000000000E+00 -0.26277713272E+04  0.26277713272E+04  0.25500000000E-02 0.  1.
    5000001    1    1    2    0    0  0.32112900013E+03 -0.11745796428E+03 -0.16008352372E+04  0.16387564385E+04  0.77000000000E+02 0.  0.
   -5000001    1    1    2    0    0 -0.32112900013E+03  0.11745796428E+03 -0.97750619493E+03  0.10384447839E+04  0.77000000000E+02 0.  0.
<mgrwt>
<rscale>  0 0.72080639E+03</rscale>
<asrwt>0</asrwt>
<pdfrwt beam="1">  1        2 0.37539582E+00 0.72080639E+03</pdfrwt>
<pdfrwt beam="2">  1       -2 0.70614152E-02 0.72080639E+03</pdfrwt>
<totfact> 0.47009420E+02</totfact>
</mgrwt>
</event>
<event>
 4    1  0.6919593E-004  0.1861591E+03  0.7818608E-02  0.1161972E+00
          2   -1    0    0  501    0  0.00000000000E+00  0.00000000000E+00  0.51499471944E+01  0.51499478257E+01  0.25500000000E-02 0.  1.
         -2   -1    0    0    0  501 -0.00000000000E+00 -0.00000000000E+00 -0.16823096143E+04  0.16823096143E+04  0.25500000000E-02 0. -1.
    5000001    1    1    2    0    0 -0.51812560700E+02 -0.70894302322E+01 -0.83920425044E+03  0.84435038664E+03  0.77000000000E+02 0.  0.
   -5000001    1    1    2    0    0  0.51812560700E+02  0.70894302322E+01 -0.83795541664E+03  0.84310917546E+03  0.77000000000E+02 0.  0.
<mgrwt>
<rscale>  0 0.18615914E+03</rscale>
<asrwt>0</asrwt>
<pdfrwt beam="1">  1        2 0.73570787E-03 0.18615914E+03</pdfrwt>
<pdfrwt beam="2">  1       -2 0.24032959E+00 0.18615914E+03</pdfrwt>
<totfact> 0.17858697E+03</totfact>
</mgrwt>
</event>
<event>
 4    1  0.6919593E-004  0.3214845E+03  0.7818608E-02  0.1074968E+00
         -2   -1    0    0    0  501 -0.00000000000E+00  0.00000000000E+00  0.18718510207E+02  0.18718510380E+02  0.25500000000E-02 0. -1.
          2   -1    0    0  501    0  0.00000000000E+00 -0.00000000000E+00 -0.13803482594E+04  0.13803482594E+04  0.25500000000E-02 0.  1.
    5000001    1    1    2    0    0 -0.63645250328E+02 -0.12026256322E+03 -0.51825767383E+03  0.54132598172E+03  0.77000000000E+02 0.  0.
   -5000001    1    1    2    0    0  0.63645250328E+02  0.12026256322E+03 -0.84337207537E+03  0.85774078807E+03  0.77000000000E+02 0.  0.
<mgrwt>
<rscale>  0 0.32148445E+03</rscale>
<asrwt>0</asrwt>
<pdfrwt beam="1">  1        2 0.19719254E+00 0.32148445E+03</pdfrwt>
<pdfrwt beam="2">  1       -2 0.26740738E-02 0.32148445E+03</pdfrwt>
<totfact> 0.90644524E+03</totfact>
</mgrwt>
</event>
<event>
 4    1  0.6919593E-004  0.2817116E+03  0.7818608E-02  0.1094758E+00
          2   -1    0    0  501    0  0.00000000000E+00  0.00000000000E+00  0.61990914548E+03  0.61990914548E+03  0.25500000000E-02 0.  1.
         -2   -1    0    0    0  501 -0.00000000000E+00 -0.00000000000E+00 -0.32005259025E+02  0.32005259127E+02  0.25500000000E-02 0. -1.
    5000001    1    1    2    0    0 -0.11680667635E+03  0.82959513245E+01  0.32657450008E+03  0.35537659821E+03  0.77000000000E+02 0.  0.
   -5000001    1    1    2    0    0  0.11680667635E+03 -0.82959513245E+01  0.26132938637E+03  0.29653780640E+03  0.77000000000E+02 0.  0.
<mgrwt>
<rscale>  0 0.28171157E+03</rscale>
<asrwt>0</asrwt>
<pdfrwt beam="1">  1        2 0.88558455E-01 0.28171157E+03</pdfrwt>
<pdfrwt beam="2">  1       -2 0.45721796E-02 0.28171157E+03</pdfrwt>
<totfact> 0.11840576E+04</totfact>
</mgrwt>
</event>
<event>
 4    1  0.6919593E-004  0.2237026E+03  0.7818608E-02  0.1131152E+00
         -2   -1    0    0    0  501 -0.00000000000E+00  0.00000000000E+00  0.36399950285E+02  0.36399950375E+02  0.25500000000E-02 0.  1.
          2   -1    0    0  501    0  0.00000000000E+00 -0.00000000000E+00 -0.34370152322E+03  0.34370152323E+03  0.25500000000E-02 0. -1.
    5000001    1    1    2    0    0 -0.74558665904E+02  0.25789561917E+02 -0.18578300234E+03  0.21602874837E+03  0.77000000000E+02 0.  0.
   -5000001    1    1    2    0    0  0.74558665904E+02 -0.25789561917E+02 -0.12151857060E+03  0.16407272523E+03  0.77000000000E+02 0.  0.
<mgrwt>
<rscale>  0 0.22370265E+03</rscale>
<asrwt>0</asrwt>
<pdfrwt beam="1">  1        2 0.49100216E-01 0.22370265E+03</pdfrwt>
<pdfrwt beam="2">  1       -2 0.51999931E-02 0.22370265E+03</pdfrwt>
<totfact> 0.18402559E+04</totfact>
</mgrwt>
</event>
<event>
 4    1  0.6919593E-004  0.2359822E+03  0.7818608E-02  0.1122499E+00
          2   -1    0    0  501    0  0.00000000000E+00  0.00000000000E+00  0.12939937297E+03  0.12939937300E+03  0.25500000000E-02 0.  1.
         -2   -1    0    0    0  501 -0.00000000000E+00 -0.00000000000E+00 -0.10758860655E+03  0.10758860658E+03  0.25500000000E-02 0. -1.
    5000001    1    1    2    0    0 -0.85141051115E+02 -0.19577004997E+02  0.29976861491E+02  0.12024919931E+03  0.77000000000E+02 0.  0.
   -5000001    1    1    2    0    0  0.85141051115E+02  0.19577004997E+02 -0.81660950690E+01  0.11673878027E+03  0.77000000000E+02 0.  0.
<mgrwt>
<rscale>  0 0.23598219E+03</rscale>
<asrwt>0</asrwt>
<pdfrwt beam="1">  1        2 0.18485625E-01 0.23598219E+03</pdfrwt>
<pdfrwt beam="2">  1       -2 0.15369801E-01 0.23598219E+03</pdfrwt>
<totfact> 0.98047011E+03</totfact>
</mgrwt>
</event>
<event>
 4    1  0.6919593E-004  0.2325496E+03  0.7818608E-02  0.1124858E+00
          2   -1    0    0  501    0  0.00000000000E+00  0.00000000000E+00  0.27103432155E+04  0.27103432155E+04  0.25500000000E-02 0.  1.
         -2   -1    0    0    0  501 -0.00000000000E+00 -0.00000000000E+00 -0.49882354854E+01  0.49882361372E+01  0.25500000000E-02 0. -1.
    5000001    1    1    2    0    0 -0.62518266252E+02  0.58938366099E+02  0.15213054069E+04  0.15256740824E+04  0.77000000000E+02 0.  0.
   -5000001    1    1    2    0    0  0.62518266252E+02 -0.58938366099E+02  0.11840495730E+04  0.11896573692E+04  0.77000000000E+02 0.  0.
<mgrwt>
<rscale>  0 0.23254962E+03</rscale>
<asrwt>0</asrwt>
<pdfrwt beam="1">  1        2 0.38719245E+00 0.23254962E+03</pdfrwt>
<pdfrwt beam="2">  1       -2 0.71260408E-03 0.23254962E+03</pdfrwt>
<totfact> 0.13647583E+04</totfact>
</mgrwt>
</event>
<event>
 4    1  0.6919593E-004  0.2609339E+03  0.7818608E-02  0.1106583E+00
         -2   -1    0    0    0  501 -0.00000000000E+00  0.00000000000E+00  0.28587723609E+03  0.28587723610E+03  0.25500000000E-02 0. -1.
          2   -1    0    0  501    0  0.00000000000E+00 -0.00000000000E+00 -0.59541713633E+02  0.59541713688E+02  0.25500000000E-02 0.  1.
    5000001    1    1    2    0    0  0.82296116121E+02 -0.54496491574E+02  0.16180837385E+03  0.20458120190E+03  0.77000000000E+02 0.  0.
   -5000001    1    1    2    0    0 -0.82296116121E+02  0.54496491574E+02  0.64527148600E+02  0.14083774788E+03  0.77000000000E+02 0.  0.
<mgrwt>
<rscale>  0 0.26093387E+03</rscale>
<asrwt>0</asrwt>
<pdfrwt beam="1">  1        2 0.85059591E-02 0.26093387E+03</pdfrwt>
<pdfrwt beam="2">  1       -2 0.40839605E-01 0.26093387E+03</pdfrwt>
<totfact> 0.44640487E+03</totfact>
</mgrwt>
</event>
<event>
 4    1  0.6919593E-004  0.3347816E+03  0.7818608E-02  0.1069041E+00
         -2   -1    0    0    0  501 -0.00000000000E+00  0.00000000000E+00  0.21610855739E+03  0.21610855741E+03  0.25500000000E-02 0. -1.
          2   -1    0    0  501    0  0.00000000000E+00 -0.00000000000E+00 -0.12965557723E+03  0.12965557726E+03  0.25500000000E-02 0.  1.
    5000001    1    1    2    0    0  0.26502934589E+02  0.14609654151E+03  0.36369817300E+02  0.17116766223E+03  0.77000000000E+02 0.  0.
   -5000001    1    1    2    0    0 -0.26502934589E+02 -0.14609654151E+03  0.50083162862E+02  0.17459647243E+03  0.77000000000E+02 0.  0.
<mgrwt>
<rscale>  0 0.33478160E+03</rscale>
<asrwt>0</asrwt>
<pdfrwt beam="1">  1        2 0.18522225E-01 0.33478160E+03</pdfrwt>
<pdfrwt beam="2">  1       -2 0.30872651E-01 0.33478160E+03</pdfrwt>
<totfact> 0.29551238E+03</totfact>
</mgrwt>
</event>
<event>
 4    1  0.6919593E-004  0.3381488E+03  0.7818608E-02  0.1067587E+00
         -2   -1    0    0    0  501 -0.00000000000E+00  0.00000000000E+00  0.56689961366E+02  0.56689961424E+02  0.25500000000E-02 0. -1.
          2   -1    0    0  501    0  0.00000000000E+00 -0.00000000000E+00 -0.50425435199E+03  0.50425435199E+03  0.25500000000E-02 0.  1.
    5000001    1    1    2    0    0  0.10737720069E+03  0.10548491412E+03 -0.22457674762E+03  0.28110611147E+03  0.77000000000E+02 0.  0.
   -5000001    1    1    2    0    0 -0.10737720069E+03 -0.10548491412E+03 -0.22298764300E+03  0.27983820194E+03  0.77000000000E+02 0.  0.
<mgrwt>
<rscale>  0 0.33814884E+03</rscale>
<asrwt>0</asrwt>
<pdfrwt beam="1">  1        2 0.72036333E-01 0.33814884E+03</pdfrwt>
<pdfrwt beam="2">  1       -2 0.80985662E-02 0.33814884E+03</pdfrwt>
<totfact> 0.62366012E+03</totfact>
</mgrwt>
</event>
<event>
 4    1  0.6919593E-004  0.3494614E+03  0.7818608E-02  0.1062836E+00
         -2   -1    0    0    0  501 -0.00000000000E+00  0.00000000000E+00  0.14661388951E+02  0.14661389172E+02  0.25500000000E-02 0. -1.
          2   -1    0    0  501    0  0.00000000000E+00 -0.00000000000E+00 -0.20823954183E+04  0.20823954183E+04  0.25500000000E-02 0.  1.
    5000001    1    1    2    0    0 -0.10800595637E+03 -0.65819804730E+02 -0.15904990657E+04  0.15973771663E+04  0.77000000000E+02 0.  0.
   -5000001    1    1    2    0    0  0.10800595637E+03  0.65819804730E+02 -0.47723496356E+03  0.49967964112E+03  0.77000000000E+02 0.  0.
<mgrwt>
<rscale>  0 0.34946135E+03</rscale>
<asrwt>0</asrwt>
<pdfrwt beam="1">  1        2 0.29748487E+00 0.34946135E+03</pdfrwt>
<pdfrwt beam="2">  1       -2 0.20944855E-02 0.34946135E+03</pdfrwt>
<totfact> 0.58190470E+03</totfact>
</mgrwt>
</event>
<event>
 4    1  0.6919593E-004  0.3500982E+03  0.7818608E-02  0.1062575E+00
         -2   -1    0    0    0  501 -0.00000000000E+00  0.00000000000E+00  0.18926448456E+02  0.18926448627E+02  0.25500000000E-02 0. -1.
          2   -1    0    0  501    0  0.00000000000E+00 -0.00000000000E+00 -0.16190137847E+04  0.16190137847E+04  0.25500000000E-02 0.  1.
    5000001    1    1    2    0    0  0.11657172782E+03  0.80692251596E+02 -0.48228404182E+03  0.50855393440E+03  0.77000000000E+02 0.  0.
   -5000001    1    1    2    0    0 -0.11657172782E+03 -0.80692251596E+02 -0.11178032944E+04  0.11293862989E+04  0.77000000000E+02 0.  0.
<mgrwt>
<rscale>  0 0.35009816E+03</rscale>
<asrwt>0</asrwt>
<pdfrwt beam="1">  1        2 0.23128760E+00 0.35009816E+03</pdfrwt>
<pdfrwt beam="2">  1       -2 0.27037794E-02 0.35009816E+03</pdfrwt>
<totfact> 0.67458486E+03</totfact>
</mgrwt>
</event>
<event>
 4    1  0.6919593E-004  0.3320519E+03  0.7818608E-02  0.1070233E+00
         -2   -1    0    0    0  501 -0.00000000000E+00  0.00000000000E+00  0.72988305470E+02  0.72988305515E+02  0.25500000000E-02 0. -1.
          2   -1    0    0  501    0  0.00000000000E+00 -0.00000000000E+00 -0.37765808534E+03  0.37765808535E+03  0.25500000000E-02 0.  1.
    5000001    1    1    2    0    0  0.82094903489E+02  0.11428592424E+03 -0.21046774265E+03  0.26462523756E+03  0.77000000000E+02 0.  0.
   -5000001    1    1    2    0    0 -0.82094903489E+02 -0.11428592424E+03 -0.94202037221E+02  0.18602115330E+03  0.77000000000E+02 0.  0.
<mgrwt>
<rscale>  0 0.33205195E+03</rscale>
<asrwt>0</asrwt>
<pdfrwt beam="1">  1        2 0.53951154E-01 0.33205195E+03</pdfrwt>
<pdfrwt beam="2">  1       -2 0.10426901E-01 0.33205195E+03</pdfrwt>
<totfact> 0.57336721E+03</totfact>
</mgrwt>
</event>
<event>
 4    1  0.6919593E-004  0.3189781E+03  0.7818608E-02  0.1076121E+00
         -2   -1    0    0    0  501 -0.00000000000E+00  0.00000000000E+00  0.11547620659E+03  0.11547620662E+03  0.25500000000E-02 0. -1.
          2   -1    0    0  501    0  0.00000000000E+00 -0.00000000000E+00 -0.22027699521E+03  0.22027699522E+03  0.25500000000E-02 0.  1.
    5000001    1    1    2    0    0 -0.35353134753E+02  0.13502520550E+03 -0.47022744147E+02  0.16619804067E+03  0.77000000000E+02 0.  0.
   -5000001    1    1    2    0    0  0.35353134753E+02 -0.13502520550E+03 -0.57778044468E+02  0.16955516117E+03  0.77000000000E+02 0.  0.
<mgrwt>
<rscale>  0 0.31897807E+03</rscale>
<asrwt>0</asrwt>
<pdfrwt beam="1">  1        2 0.31468142E-01 0.31897807E+03</pdfrwt>
<pdfrwt beam="2">  1       -2 0.16496601E-01 0.31897807E+03</pdfrwt>
<totfact> 0.48549321E+03</totfact>
</mgrwt>
</event>
<event>
 4    1  0.6919593E-004  0.5709805E+03  0.7818608E-02  0.9967511E-01
          2   -1    0    0  501    0  0.00000000000E+00  0.00000000000E+00  0.15549471763E+03  0.15549471765E+03  0.25500000000E-02 0.  1.
         -2   -1    0    0    0  501 -0.00000000000E+00 -0.00000000000E+00 -0.52416367600E+03  0.52416367600E+03  0.25500000000E-02 0. -1.
    5000001    1    1    2    0    0 -0.43824908634E+02  0.23468187826E+03 -0.34658501560E+03  0.42783919834E+03  0.77000000000E+02 0.  0.
   -5000001    1    1    2    0    0  0.43824908634E+02 -0.23468187826E+03 -0.22083942771E+02  0.25181919531E+03  0.77000000000E+02 0.  0.
<mgrwt>
<rscale>  0 0.57098050E+03</rscale>
<asrwt>0</asrwt>
<pdfrwt beam="1">  1        2 0.22213531E-01 0.57098050E+03</pdfrwt>
<pdfrwt beam="2">  1       -2 0.74880524E-01 0.57098050E+03</pdfrwt>
<totfact> 0.40655362E+02</totfact>
</mgrwt>
</event>
<event>
 4    1  0.6919593E-004  0.3347530E+03  0.7818608E-02  0.1069053E+00
         -2   -1    0    0    0  501 -0.00000000000E+00  0.00000000000E+00  0.33465481604E+02  0.33465481701E+02  0.25500000000E-02 0. -1.
          2   -1    0    0  501    0  0.00000000000E+00 -0.00000000000E+00 -0.83712818708E+03  0.83712818708E+03  0.25500000000E-02 0.  1.
    5000001    1    1    2    0    0  0.12772505881E+03  0.69651518028E+02 -0.48075205575E+03  0.50815013895E+03  0.77000000000E+02 0.  0.
   -5000001    1    1    2    0    0 -0.12772505881E+03 -0.69651518028E+02 -0.32291064972E+03  0.36244352983E+03  0.77000000000E+02 0.  0.
<mgrwt>
<rscale>  0 0.33475303E+03</rscale>
<asrwt>0</asrwt>
<pdfrwt beam="1">  1        2 0.11958973E+00 0.33475303E+03</pdfrwt>
<pdfrwt beam="2">  1       -2 0.47807836E-02 0.33475303E+03</pdfrwt>
<totfact> 0.77486786E+03</totfact>
</mgrwt>
</event>
<event>
 4    1  0.6919593E-004  0.2896657E+03  0.7818608E-02  0.1090524E+00
         -2   -1    0    0    0  501 -0.00000000000E+00  0.00000000000E+00  0.13843469317E+02  0.13843469552E+02  0.25500000000E-02 0. -1.
          2   -1    0    0  501    0  0.00000000000E+00 -0.00000000000E+00 -0.15152669496E+04  0.15152669496E+04  0.25500000000E-02 0.  1.
    5000001    1    1    2    0    0 -0.10290444720E+03  0.53263645726E+02 -0.96326193460E+03  0.97325684989E+03  0.77000000000E+02 0.  0.
   -5000001    1    1    2    0    0  0.10290444720E+03 -0.53263645726E+02 -0.53816154566E+03  0.55585356924E+03  0.77000000000E+02 0.  0.
<mgrwt>
<rscale>  0 0.28966568E+03</rscale>
<asrwt>0</asrwt>
<pdfrwt beam="1">  1        2 0.21646660E+00 0.28966568E+03</pdfrwt>
<pdfrwt beam="2">  1       -2 0.19776394E-02 0.28966568E+03</pdfrwt>
<totfact> 0.12059143E+04</totfact>
</mgrwt>
</event>
<event>
 4    1  0.6919593E-004  0.3036058E+03  0.7818608E-02  0.1083452E+00
          2   -1    0    0  501    0  0.00000000000E+00  0.00000000000E+00  0.72960944696E+03  0.72960944697E+03  0.25500000000E-02 0.  1.
         -2   -1    0    0    0  501 -0.00000000000E+00 -0.00000000000E+00 -0.31584182978E+02  0.31584183081E+02  0.25500000000E-02 0. -1.
    5000001    1    1    2    0    0  0.90447190798E+02 -0.87676096887E+02  0.26046537875E+03  0.29939773849E+03  0.77000000000E+02 0.  0.
   -5000001    1    1    2    0    0 -0.90447190798E+02  0.87676096887E+02  0.43755988524E+03  0.46179589156E+03  0.77000000000E+02 0.  0.
<mgrwt>
<rscale>  0 0.30360579E+03</rscale>
<asrwt>0</asrwt>
<pdfrwt beam="1">  1        2 0.10422992E+00 0.30360579E+03</pdfrwt>
<pdfrwt beam="2">  1       -2 0.45120262E-02 0.30360579E+03</pdfrwt>
<totfact> 0.99991953E+03</totfact>
</mgrwt>
</event>
<event>
 4    1  0.6919593E-004  0.3513183E+03  0.7818608E-02  0.1062075E+00
          2   -1    0    0  501    0  0.00000000000E+00  0.00000000000E+00  0.44573780430E+03  0.44573780431E+03  0.25500000000E-02 0.  1.
         -2   -1    0    0    0  501 -0.00000000000E+00 -0.00000000000E+00 -0.69224871193E+02  0.69224871240E+02  0.25500000000E-02 0. -1.
    5000001    1    1    2    0    0 -0.60859116078E+02  0.12657893249E+03  0.29396787897E+03  0.33477182084E+03  0.77000000000E+02 0.  0.
   -5000001    1    1    2    0    0  0.60859116078E+02 -0.12657893249E+03  0.82545054140E+02  0.18019085471E+03  0.77000000000E+02 0.  0.
<mgrwt>
<rscale>  0 0.35131833E+03</rscale>
<asrwt>0</asrwt>
<pdfrwt beam="1">  1        2 0.63676827E-01 0.35131833E+03</pdfrwt>
<pdfrwt beam="2">  1       -2 0.98892676E-02 0.35131833E+03</pdfrwt>
<totfact> 0.52148643E+03</totfact>
</mgrwt>
</event>
<event>
 4    1  0.6919593E-004  0.6079233E+03  0.7818608E-02  0.9889103E-01
          2   -1    0    0  501    0  0.00000000000E+00  0.00000000000E+00  0.78357888043E+03  0.78357888043E+03  0.25500000000E-02 0.  1.
         -2   -1    0    0    0  501 -0.00000000000E+00 -0.00000000000E+00 -0.11791114423E+03  0.11791114426E+03  0.25500000000E-02 0. -1.
    5000001    1    1    2    0    0  0.13545923444E+03  0.18842894877E+03  0.60061559951E+03  0.64847727123E+03  0.77000000000E+02 0.  0.
   -5000001    1    1    2    0    0 -0.13545923444E+03 -0.18842894877E+03  0.65052136696E+02  0.25301275347E+03  0.77000000000E+02 0.  0.
<mgrwt>
<rscale>  0 0.60792329E+03</rscale>
<asrwt>0</asrwt>
<pdfrwt beam="1">  1        2 0.11193984E+00 0.60792329E+03</pdfrwt>
<pdfrwt beam="2">  1       -2 0.16844450E-01 0.60792329E+03</pdfrwt>
<totfact> 0.11251041E+03</totfact>
</mgrwt>
</event>
<event>
 4    1  0.6919593E-004  0.2203019E+03  0.7818608E-02  0.1133658E+00
         -2   -1    0    0    0  501 -0.00000000000E+00  0.00000000000E+00  0.12289431845E+02  0.12289432109E+02  0.25500000000E-02 0. -1.
          2   -1    0    0  501    0  0.00000000000E+00 -0.00000000000E+00 -0.98729030128E+03  0.98729030128E+03  0.25500000000E-02 0.  1.
    5000001    1    1    2    0    0 -0.53640563005E+02 -0.54922465880E+02 -0.56744607028E+03  0.57776970319E+03  0.77000000000E+02 0.  0.
   -5000001    1    1    2    0    0  0.53640563005E+02  0.54922465880E+02 -0.40755479916E+03  0.42181003020E+03  0.77000000000E+02 0.  0.
<mgrwt>
<rscale>  0 0.22030195E+03</rscale>
<asrwt>0</asrwt>
<pdfrwt beam="1">  1        2 0.14104142E+00 0.22030195E+03</pdfrwt>
<pdfrwt beam="2">  1       -2 0.17556338E-02 0.22030195E+03</pdfrwt>
<totfact> 0.27277837E+04</totfact>
</mgrwt>
</event>
<event>
 4    1  0.6919593E-004  0.3643343E+03  0.7818608E-02  0.1056881E+00
         -2   -1    0    0    0  501 -0.00000000000E+00  0.00000000000E+00  0.37054575001E+02  0.37054575089E+02  0.25500000000E-02 0. -1.
          2   -1    0    0  501    0  0.00000000000E+00 -0.00000000000E+00 -0.89556735619E+03  0.89556735620E+03  0.25500000000E-02 0.  1.
    5000001    1    1    2    0    0 -0.15354273767E+03  0.15091299416E+02 -0.57967031282E+03  0.60477251192E+03  0.77000000000E+02 0.  0.
   -5000001    1    1    2    0    0  0.15354273767E+03 -0.15091299416E+02 -0.27884246837E+03  0.32784941936E+03  0.77000000000E+02 0.  0.
<mgrwt>
<rscale>  0 0.36433429E+03</rscale>
<asrwt>0</asrwt>
<pdfrwt beam="1">  1        2 0.12793818E+00 0.36433429E+03</pdfrwt>
<pdfrwt beam="2">  1       -2 0.52935113E-02 0.36433429E+03</pdfrwt>
<totfact> 0.60895771E+03</totfact>
</mgrwt>
</event>
<event>
 4    1  0.6919593E-004  0.3569451E+03  0.7818608E-02  0.1059800E+00
         -2   -1    0    0    0  501 -0.00000000000E+00  0.00000000000E+00  0.13582136481E+03  0.13582136483E+03  0.25500000000E-02 0.  1.
          2   -1    0    0  501    0  0.00000000000E+00 -0.00000000000E+00 -0.23451723675E+03  0.23451723677E+03  0.25500000000E-02 0. -1.
    5000001    1    1    2    0    0 -0.14275325890E+03 -0.70367653670E+02 -0.74620750074E+02  0.19190454907E+03  0.77000000000E+02 0.  0.
   -5000001    1    1    2    0    0  0.14275325890E+03  0.70367653670E+02 -0.24075121870E+02  0.17843405253E+03  0.77000000000E+02 0.  0.
<mgrwt>
<rscale>  0 0.35694510E+03</rscale>
<asrwt>0</asrwt>
<pdfrwt beam="1">  1        2 0.33502462E-01 0.35694510E+03</pdfrwt>
<pdfrwt beam="2">  1       -2 0.19403052E-01 0.35694510E+03</pdfrwt>
<totfact> 0.34527217E+03</totfact>
</mgrwt>
</event>
<event>
 4    1  0.6919593E-004  0.2856887E+03  0.7818608E-02  0.1092622E+00
         -2   -1    0    0    0  501 -0.00000000000E+00  0.00000000000E+00  0.19167757031E+02  0.19167757201E+02  0.25500000000E-02 0. -1.
          2   -1    0    0  501    0  0.00000000000E+00 -0.00000000000E+00 -0.10645222800E+04  0.10645222800E+04  0.25500000000E-02 0.  1.
    5000001    1    1    2    0    0  0.11329082601E+03  0.79780525446E+01 -0.37203946507E+03  0.39653603134E+03  0.77000000000E+02 0.  0.
   -5000001    1    1    2    0    0 -0.11329082601E+03 -0.79780525446E+01 -0.67331505787E+03  0.68715400583E+03  0.77000000000E+02 0.  0.
<mgrwt>
<rscale>  0 0.28568867E+03</rscale>
<asrwt>0</asrwt>
<pdfrwt beam="1">  1        2 0.15207457E+00 0.28568867E+03</pdfrwt>
<pdfrwt beam="2">  1       -2 0.27382517E-02 0.28568867E+03</pdfrwt>
<totfact> 0.12944818E+04</totfact>
</mgrwt>
</event>
<event>
 4    1  0.6919593E-004  0.2991119E+03  0.7818608E-02  0.1085685E+00
          2   -1    0    0  501    0  0.00000000000E+00  0.00000000000E+00  0.74229791637E+03  0.74229791637E+03  0.25500000000E-02 0.  1.
         -2   -1    0    0    0  501 -0.00000000000E+00 -0.00000000000E+00 -0.30132082826E+02  0.30132082934E+02  0.25500000000E-02 0. -1.
    5000001    1    1    2    0    0  0.11689966144E+03 -0.41691591488E+02  0.43913315249E+03  0.46278574445E+03  0.77000000000E+02 0.  0.
   -5000001    1    1    2    0    0 -0.11689966144E+03  0.41691591488E+02  0.27303268105E+03  0.30964425486E+03  0.77000000000E+02 0.  0.
<mgrwt>
<rscale>  0 0.29911190E+03</rscale>
<asrwt>0</asrwt>
<pdfrwt beam="1">  1        2 0.10604256E+00 0.29911190E+03</pdfrwt>
<pdfrwt beam="2">  1       -2 0.43045832E-02 0.29911190E+03</pdfrwt>
<totfact> 0.10511087E+04</totfact>
</mgrwt>
</event>
<event>
 4    1  0.6919593E-004  0.2393982E+03  0.7818608E-02  0.1120194E+00
          2   -1    0    0  501    0  0.00000000000E+00  0.00000000000E+00  0.88178406910E+03  0.88178406910E+03  0.25500000000E-02 0.  1.
         -2   -1    0    0    0  501 -0.00000000000E+00 -0.00000000000E+00 -0.16248730377E+02  0.16248730577E+02  0.25500000000E-02 0. -1.
    5000001    1    1    2    0    0  0.79512173292E+01  0.70795842993E+02  0.64902738863E+03  0.65745024484E+03  0.77000000000E+02 0.  0.
   -5000001    1    1    2    0    0 -0.79512173292E+01 -0.70795842993E+02  0.21650795009E+03  0.24058255484E+03  0.77000000000E+02 0.  0.
<mgrwt>
<rscale>  0 0.23939818E+03</rscale>
<asrwt>0</asrwt>
<pdfrwt beam="1">  1        2 0.12596915E+00 0.23939818E+03</pdfrwt>
<pdfrwt beam="2">  1       -2 0.23212473E-02 0.23939818E+03</pdfrwt>
<totfact> 0.21102077E+04</totfact>
</mgrwt>
</event>
<event>
 4    1  0.6919593E-004  0.1646327E+03  0.7818608E-02  0.1183564E+00
         -2   -1    0    0    0  501 -0.00000000000E+00  0.00000000000E+00  0.30812682229E+02  0.30812682335E+02  0.25500000000E-02 0. -1.
          2   -1    0    0  501    0  0.00000000000E+00 -0.00000000000E+00 -0.21990871834E+03  0.21990871835E+03  0.25500000000E-02 0.  1.
    5000001    1    1    2    0    0  0.28219659115E+02 -0.27930756337E+01 -0.10451432975E+03  0.13287737037E+03  0.77000000000E+02 0.  0.
   -5000001    1    1    2    0    0 -0.28219659115E+02  0.27930756337E+01 -0.84581706356E+02  0.11784403032E+03  0.77000000000E+02 0.  0.
<mgrwt>
<rscale>  0 0.16463265E+03</rscale>
<asrwt>0</asrwt>
<pdfrwt beam="1">  1        2 0.31415530E-01 0.16463265E+03</pdfrwt>
<pdfrwt beam="2">  1       -2 0.44018119E-02 0.16463265E+03</pdfrwt>
<totfact> 0.37257368E+04</totfact>
</mgrwt>
</event>
<event>
 4    1  0.6919593E-004  0.2449045E+03  0.7818608E-02  0.1116568E+00
          2   -1    0    0  501    0  0.00000000000E+00  0.00000000000E+00  0.19400456717E+03  0.19400456718E+03  0.25500000000E-02 0.  1.
         -2   -1    0    0    0  501 -0.00000000000E+00 -0.00000000000E+00 -0.77289667392E+02  0.77289667434E+02  0.25500000000E-02 0. -1.
    5000001    1    1    2    0    0  0.90859778063E+02  0.97453292547E+01  0.87979868132E+02  0.14839113150E+03  0.77000000000E+02 0.  0.
   -5000001    1    1    2    0    0 -0.90859778063E+02 -0.97453292547E+01  0.28735031643E+02  0.12290310312E+03  0.77000000000E+02 0.  0.
<mgrwt>
<rscale>  0 0.24490446E+03</rscale>
<asrwt>0</asrwt>
<pdfrwt beam="1">  1        2 0.27714938E-01 0.24490446E+03</pdfrwt>
<pdfrwt beam="2">  1       -2 0.11041381E-01 0.24490446E+03</pdfrwt>
<totfact> 0.10653189E+04</totfact>
</mgrwt>
</event>
<event>
 4    1  0.6919593E-004  0.3247043E+03  0.7818608E-02  0.1073504E+00
          2   -1    0    0  501    0  0.00000000000E+00  0.00000000000E+00  0.18100956841E+04  0.18100956841E+04  0.25500000000E-02 0.  1.
         -2   -1    0    0    0  501 -0.00000000000E+00 -0.00000000000E+00 -0.14561784183E+02  0.14561784406E+02  0.25500000000E-02 0. -1.
    5000001    1    1    2    0    0  0.13479826418E+03  0.45674515570E+02  0.82396384486E+03  0.83970360904E+03  0.77000000000E+02 0.  0.
   -5000001    1    1    2    0    0 -0.13479826418E+03 -0.45674515570E+02  0.97157005505E+03  0.98495385946E+03  0.77000000000E+02 0.  0.
<mgrwt>
<rscale>  0 0.32470431E+03</rscale>
<asrwt>0</asrwt>
<pdfrwt beam="1">  1        2 0.25858508E+00 0.32470431E+03</pdfrwt>
<pdfrwt beam="2">  1       -2 0.20802550E-02 0.32470431E+03</pdfrwt>
<totfact> 0.79988569E+03</totfact>
</mgrwt>
</event>
<event>
 4    1  0.6919593E-004  0.7225133E+03  0.7818608E-02  0.9679488E-01
         -2   -1    0    0    0  501 -0.00000000000E+00  0.00000000000E+00  0.55577437626E+02  0.55577437684E+02  0.25500000000E-02 0. -1.
          2   -1    0    0  501    0  0.00000000000E+00 -0.00000000000E+00 -0.23481894125E+04  0.23481894125E+04  0.25500000000E-02 0.  1.
    5000001    1    1    2    0    0 -0.13319312960E+02 -0.25447013450E+03 -0.19588243233E+04  0.19768293258E+04  0.77000000000E+02 0.  0.
   -5000001    1    1    2    0    0  0.13319312960E+02  0.25447013450E+03 -0.33378765151E+03  0.42693752441E+03  0.77000000000E+02 0.  0.
<mgrwt>
<rscale>  0 0.72251325E+03</rscale>
<asrwt>0</asrwt>
<pdfrwt beam="1">  1        2 0.33545557E+00 0.72251325E+03</pdfrwt>
<pdfrwt beam="2">  1       -2 0.79396354E-02 0.72251325E+03</pdfrwt>
<totfact> 0.54358720E+02</totfact>
</mgrwt>
</event>
<event>
 4    1  0.6919593E-004  0.1764058E+03  0.7818608E-02  0.1171328E+00
         -2   -1    0    0    0  501 -0.00000000000E+00  0.00000000000E+00  0.59314280658E+01  0.59314286140E+01  0.25500000000E-02 0. -1.
          2   -1    0    0  501    0  0.00000000000E+00 -0.00000000000E+00 -0.13116153015E+04  0.13116153015E+04  0.25500000000E-02 0.  1.
    5000001    1    1    2    0    0  0.23927811023E+02  0.18265016058E+02 -0.42329188127E+03  0.43129012011E+03  0.77000000000E+02 0.  0.
   -5000001    1    1    2    0    0 -0.23927811023E+02 -0.18265016058E+02 -0.88239199215E+03  0.88625661000E+03  0.77000000000E+02 0.  0.
<mgrwt>
<rscale>  0 0.17640581E+03</rscale>
<asrwt>0</asrwt>
<pdfrwt beam="1">  1        2 0.18737343E+00 0.17640581E+03</pdfrwt>
<pdfrwt beam="2">  1       -2 0.84734775E-03 0.17640581E+03</pdfrwt>
<totfact> 0.51136632E+04</totfact>
</mgrwt>
</event>
<event>
 4    1  0.6919593E-004  0.2274861E+03  0.7818608E-02  0.1128422E+00
          2   -1    0    0  501    0  0.00000000000E+00  0.00000000000E+00  0.62937645911E+03  0.62937645911E+03  0.25500000000E-02 0.  1.
         -2   -1    0    0    0  501 -0.00000000000E+00 -0.00000000000E+00 -0.20556031620E+02  0.20556031778E+02  0.25500000000E-02 0. -1.
    5000001    1    1    2    0    0  0.43556860986E+02 -0.69949519914E+02  0.34662717334E+03  0.36451273335E+03  0.77000000000E+02 0.  0.
   -5000001    1    1    2    0    0 -0.43556860986E+02  0.69949519914E+02  0.26219325415E+03  0.28541975754E+03  0.77000000000E+02 0.  0.
<mgrwt>
<rscale>  0 0.22748611E+03</rscale>
<asrwt>0</asrwt>
<pdfrwt beam="1">  1        2 0.89910915E-01 0.22748611E+03</pdfrwt>
<pdfrwt beam="2">  1       -2 0.29365762E-02 0.22748611E+03</pdfrwt>
<totfact> 0.22331713E+04</totfact>
</mgrwt>
</event>
<event>
 4    1  0.6919593E-004  0.3817834E+03  0.7818608E-02  0.1050277E+00
          2   -1    0    0  501    0  0.00000000000E+00  0.00000000000E+00  0.12252191996E+04  0.12252191996E+04  0.25500000000E-02 0.  1.
         -2   -1    0    0    0  501 -0.00000000000E+00 -0.00000000000E+00 -0.29741323573E+02  0.29741323682E+02  0.25500000000E-02 0. -1.
    5000001    1    1    2    0    0 -0.11823631991E+03 -0.23408460707E+02  0.18217271853E+03  0.23161105923E+03  0.77000000000E+02 0.  0.
   -5000001    1    1    2    0    0  0.11823631991E+03  0.23408460707E+02  0.10133051575E+04  0.10233494640E+04  0.77000000000E+02 0.  0.
<mgrwt>
<rscale>  0 0.38178340E+03</rscale>
<asrwt>0</asrwt>
<pdfrwt beam="1">  1        2 0.17503129E+00 0.38178340E+03</pdfrwt>
<pdfrwt beam="2">  1       -2 0.42487612E-02 0.38178340E+03</pdfrwt>
<totfact> 0.54752908E+03</totfact>
</mgrwt>
</event>
<event>
 4    1  0.6919593E-004  0.2645307E+03  0.7818608E-02  0.1104451E+00
          2   -1    0    0  501    0  0.00000000000E+00  0.00000000000E+00  0.15075866159E+03  0.15075866161E+03  0.25500000000E-02 0.  1.
         -2   -1    0    0    0  501 -0.00000000000E+00 -0.00000000000E+00 -0.11604058089E+03  0.11604058092E+03  0.25500000000E-02 0. -1.
    5000001    1    1    2    0    0  0.89795879162E+02  0.28161227239E+02  0.69851197577E+02  0.14023032638E+03  0.77000000000E+02 0.  0.
   -5000001    1    1    2    0    0 -0.89795879162E+02 -0.28161227239E+02 -0.35133116875E+02  0.12656891615E+03  0.77000000000E+02 0.  0.
<mgrwt>
<rscale>  0 0.26453070E+03</rscale>
<asrwt>0</asrwt>
<pdfrwt beam="1">  1        2 0.21536952E-01 0.26453070E+03</pdfrwt>
<pdfrwt beam="2">  1       -2 0.16577226E-01 0.26453070E+03</pdfrwt>
<totfact> 0.73011450E+03</totfact>
</mgrwt>
</event>
<event>
 4    1  0.6919593E-004  0.2019957E+03  0.7818608E-02  0.1148066E+00
         -2   -1    0    0    0  501 -0.00000000000E+00  0.00000000000E+00  0.87551504638E+01  0.87551508352E+01  0.25500000000E-02 0. -1.
          2   -1    0    0  501    0  0.00000000000E+00 -0.00000000000E+00 -0.11650930712E+04  0.11650930712E+04  0.25500000000E-02 0.  1.
    5000001    1    1    2    0    0  0.59068831224E+02  0.20444391096E+02 -0.46722644974E+03  0.47763653051E+03  0.77000000000E+02 0.  0.
   -5000001    1    1    2    0    0 -0.59068831224E+02 -0.20444391096E+02 -0.68911147102E+03  0.69621169154E+03  0.77000000000E+02 0.  0.
<mgrwt>
<rscale>  0 0.20199570E+03</rscale>
<asrwt>0</asrwt>
<pdfrwt beam="1">  1        2 0.16644177E+00 0.20199570E+03</pdfrwt>
<pdfrwt beam="2">  1       -2 0.12507366E-02 0.20199570E+03</pdfrwt>
<totfact> 0.35237288E+04</totfact>
</mgrwt>
</event>
<event>
 4    1  0.6919593E-004  0.2102730E+03  0.7818608E-02  0.1141350E+00
          2   -1    0    0  501    0  0.00000000000E+00  0.00000000000E+00  0.41500736372E+04  0.41500736372E+04  0.25500000000E-02 0.  1.
         -2   -1    0    0    0  501 -0.00000000000E+00 -0.00000000000E+00 -0.26634906956E+01  0.26634919163E+01  0.25500000000E-02 0. -1.
    5000001    1    1    2    0    0  0.24858319826E+02  0.67122843481E+02  0.20514236199E+04  0.20541156931E+04  0.77000000000E+02 0.  0.
   -5000001    1    1    2    0    0 -0.24858319826E+02 -0.67122843481E+02  0.20959865266E+04  0.20986214360E+04  0.77000000000E+02 0.  0.
<mgrwt>
<rscale>  0 0.21027301E+03</rscale>
<asrwt>0</asrwt>
<pdfrwt beam="1">  1        2 0.59287017E+00 0.21027301E+03</pdfrwt>
<pdfrwt beam="2">  1       -2 0.38049715E-03 0.21027301E+03</pdfrwt>
<totfact> 0.49866374E+03</totfact>
</mgrwt>
</event>
<event>
 4    1  0.6919593E-004  0.4056021E+03  0.7818608E-02  0.1041857E+00
         -2   -1    0    0    0  501 -0.00000000000E+00  0.00000000000E+00  0.30665738382E+02  0.30665738488E+02  0.25500000000E-02 0. -1.
          2   -1    0    0  501    0  0.00000000000E+00 -0.00000000000E+00 -0.13411796663E+04  0.13411796663E+04  0.25500000000E-02 0.  1.
    5000001    1    1    2    0    0 -0.10688226516E+03  0.14893983422E+03 -0.79022385777E+03  0.81485559347E+03  0.77000000000E+02 0.  0.
   -5000001    1    1    2    0    0  0.10688226516E+03 -0.14893983422E+03 -0.52029007019E+03  0.55698981136E+03  0.77000000000E+02 0.  0.
<mgrwt>
<rscale>  0 0.40560209E+03</rscale>
<asrwt>0</asrwt>
<pdfrwt beam="1">  1        2 0.19159706E+00 0.40560209E+03</pdfrwt>
<pdfrwt beam="2">  1       -2 0.43808206E-02 0.40560209E+03</pdfrwt>
<totfact> 0.45294279E+03</totfact>
</mgrwt>
</event>
<event>
 4    1  0.6919593E-004  0.3065997E+03  0.7818608E-02  0.1081987E+00
          2   -1    0    0  501    0  0.00000000000E+00  0.00000000000E+00  0.99976725707E+03  0.99976725708E+03  0.25500000000E-02 0.  1.
         -2   -1    0    0    0  501 -0.00000000000E+00 -0.00000000000E+00 -0.23506314588E+02  0.23506314726E+02  0.25500000000E-02 0. -1.
    5000001    1    1    2    0    0  0.13848999121E+02 -0.90309569423E+02  0.80867259577E+03  0.81745212719E+03  0.77000000000E+02 0.  0.
   -5000001    1    1    2    0    0 -0.13848999121E+02  0.90309569423E+02  0.16758834672E+03  0.20582144461E+03  0.77000000000E+02 0.  0.
<mgrwt>
<rscale>  0 0.30659970E+03</rscale>
<asrwt>0</asrwt>
<pdfrwt beam="1">  1        2 0.14282390E+00 0.30659970E+03</pdfrwt>
<pdfrwt beam="2">  1       -2 0.33580448E-02 0.30659970E+03</pdfrwt>
<totfact> 0.10437296E+04</totfact>
</mgrwt>
</event>
<event>
 4    1  0.6919593E-004  0.3688686E+03  0.7818608E-02  0.1055126E+00
         -2   -1    0    0    0  501 -0.00000000000E+00  0.00000000000E+00  0.21663786398E+03  0.21663786399E+03  0.25500000000E-02 0.  1.
          2   -1    0    0  501    0  0.00000000000E+00 -0.00000000000E+00 -0.15701784427E+03  0.15701784429E+03  0.25500000000E-02 0. -1.
    5000001    1    1    2    0    0 -0.16576255519E+03  0.79718804132E+01  0.53484990137E+02  0.19060540326E+03  0.77000000000E+02 0.  0.
   -5000001    1    1    2    0    0  0.16576255519E+03 -0.79718804132E+01  0.61350295733E+01  0.18305030502E+03  0.77000000000E+02 0.  0.
<mgrwt>
<rscale>  0 0.36886860E+03</rscale>
<asrwt>0</asrwt>
<pdfrwt beam="1">  1        2 0.22431121E-01 0.36886860E+03</pdfrwt>
<pdfrwt beam="2">  1       -2 0.30948266E-01 0.36886860E+03</pdfrwt>
<totfact> 0.23645270E+03</totfact>
</mgrwt>
</event>
<event>
 4    1  0.6919593E-004  0.2034016E+03  0.7818608E-02  0.1146900E+00
          2   -1    0    0  501    0  0.00000000000E+00  0.00000000000E+00  0.12574681555E+04  0.12574681555E+04  0.25500000000E-02 0.  1.
         -2   -1    0    0    0  501 -0.00000000000E+00 -0.00000000000E+00 -0.82253016410E+01  0.82253020363E+01  0.25500000000E-02 0. -1.
    5000001    1    1    2    0    0  0.13967055240E+02  0.45179200036E+02  0.91501349551E+03  0.91946448311E+03  0.77000000000E+02 0.  0.
   -5000001    1    1    2    0    0 -0.13967055240E+02 -0.45179200036E+02  0.33422935840E+03  0.34622897447E+03  0.77000000000E+02 0.  0.
<mgrwt>
<rscale>  0 0.20340162E+03</rscale>
<asrwt>0</asrwt>
<pdfrwt beam="1">  1        2 0.17963847E+00 0.20340162E+03</pdfrwt>
<pdfrwt beam="2">  1       -2 0.11750420E-02 0.20340162E+03</pdfrwt>
<totfact> 0.34434997E+04</totfact>
</mgrwt>
</event>
<event>
 4    1  0.6919593E-004  0.2252901E+03  0.7818608E-02  0.1129999E+00
          2   -1    0    0  501    0  0.00000000000E+00  0.00000000000E+00  0.36781967317E+03  0.36781967318E+03  0.25500000000E-02 0.  1.
         -2   -1    0    0    0  501 -0.00000000000E+00 -0.00000000000E+00 -0.34497625337E+02  0.34497625431E+02  0.25500000000E-02 0. -1.
    5000001    1    1    2    0    0  0.30116753444E+02 -0.56137482628E+02  0.25947784017E+03  0.27805788126E+03  0.77000000000E+02 0.  0.
   -5000001    1    1    2    0    0 -0.30116753444E+02  0.56137482628E+02  0.73844207665E+02  0.12425941735E+03  0.77000000000E+02 0.  0.
<mgrwt>
<rscale>  0 0.22529008E+03</rscale>
<asrwt>0</asrwt>
<pdfrwt beam="1">  1        2 0.52545669E-01 0.22529008E+03</pdfrwt>
<pdfrwt beam="2">  1       -2 0.49282321E-02 0.22529008E+03</pdfrwt>
<totfact> 0.18570099E+04</totfact>
</mgrwt>
</event>
<event>
 4    1  0.6919593E-004  0.2323190E+03  0.7818608E-02  0.1125018E+00
          2   -1    0    0  501    0  0.00000000000E+00  0.00000000000E+00  0.72577494096E+02  0.72577494141E+02  0.25500000000E-02 0.  1.
         -2   -1    0    0    0  501 -0.00000000000E+00 -0.00000000000E+00 -0.18591203045E+03  0.18591203047E+03  0.25500000000E-02 0. -1.
    5000001    1    1    2    0    0 -0.55966420084E+02  0.55448821555E+02 -0.97657739844E+02  0.14721700357E+03  0.77000000000E+02 0.  0.
   -5000001    1    1    2    0    0  0.55966420084E+02 -0.55448821555E+02 -0.15676796507E+02  0.11127252104E+03  0.77000000000E+02 0.  0.
<mgrwt>
<rscale>  0 0.23231900E+03</rscale>
<asrwt>0</asrwt>
<pdfrwt beam="1">  1        2 0.10368214E-01 0.23231900E+03</pdfrwt>
<pdfrwt beam="2">  1       -2 0.26558861E-01 0.23231900E+03</pdfrwt>
<totfact> 0.76658819E+03</totfact>
</mgrwt>
</event>
<event>
 4    1  0.6919593E-004  0.2480259E+03  0.7818608E-02  0.1114559E+00
          2   -1    0    0  501    0  0.00000000000E+00  0.00000000000E+00  0.12693436852E+03  0.12693436854E+03  0.25500000000E-02 0.  1.
         -2   -1    0    0    0  501 -0.00000000000E+00 -0.00000000000E+00 -0.12115878690E+03  0.12115878692E+03  0.25500000000E-02 0. -1.
    5000001    1    1    2    0    0  0.36515476136E+02 -0.86467126116E+02 -0.22422629961E+02  0.12345735389E+03  0.77000000000E+02 0.  0.
   -5000001    1    1    2    0    0 -0.36515476136E+02  0.86467126116E+02  0.28198211581E+02  0.12463580157E+03  0.77000000000E+02 0.  0.
<mgrwt>
<rscale>  0 0.24802592E+03</rscale>
<asrwt>0</asrwt>
<pdfrwt beam="1">  1        2 0.18133481E-01 0.24802592E+03</pdfrwt>
<pdfrwt beam="2">  1       -2 0.17308398E-01 0.24802592E+03</pdfrwt>
<totfact> 0.82473232E+03</totfact>
</mgrwt>
</event>
<event>
 4    1  0.6919593E-004  0.1889982E+03  0.7818608E-02  0.1159368E+00
         -2   -1    0    0    0  501 -0.00000000000E+00  0.00000000000E+00  0.17751242737E+03  0.17751242739E+03  0.25500000000E-02 0. -1.
          2   -1    0    0  501    0  0.00000000000E+00 -0.00000000000E+00 -0.50306801872E+02  0.50306801937E+02  0.25500000000E-02 0.  1.
    5000001    1    1    2    0    0  0.25857043946E+02 -0.33819346038E+02  0.22042627037E+02  0.90703981692E+02  0.77000000000E+02 0.  0.
   -5000001    1    1    2    0    0 -0.25857043946E+02  0.33819346038E+02  0.10516299846E+03  0.13711524763E+03  0.77000000000E+02 0.  0.
<mgrwt>
<rscale>  0 0.18899823E+03</rscale>
<asrwt>0</asrwt>
<pdfrwt beam="1">  1        2 0.71866861E-02 0.18899823E+03</pdfrwt>
<pdfrwt beam="2">  1       -2 0.25358918E-01 0.18899823E+03</pdfrwt>
<totfact> 0.13004175E+04</totfact>
</mgrwt>
</event>
<event>
 4    1  0.6919593E-004  0.4870463E+03  0.7818608E-02  0.1017216E+00
         -2   -1    0    0    0  501 -0.00000000000E+00  0.00000000000E+00  0.14704486089E+02  0.14704486310E+02  0.25500000000E-02 0. -1.
          2   -1    0    0  501    0  0.00000000000E+00 -0.00000000000E+00 -0.40330233746E+04  0.40330233746E+04  0.25500000000E-02 0.  1.
    5000001    1    1    2    0    0 -0.13794767033E+03 -0.17904397592E+03 -0.16116101440E+04  0.16292030449E+04  0.77000000000E+02 0.  0.
   -5000001    1    1    2    0    0  0.13794767033E+03  0.17904397592E+03 -0.24067087445E+04  0.24185248161E+04  0.77000000000E+02 0.  0.
<mgrwt>
<rscale>  0 0.48704635E+03</rscale>
<asrwt>0</asrwt>
<pdfrwt beam="1">  1        2 0.57614549E+00 0.48704635E+03</pdfrwt>
<pdfrwt beam="2">  1       -2 0.21006435E-02 0.48704635E+03</pdfrwt>
<totfact> 0.47371375E+02</totfact>
</mgrwt>
</event>
<event>
 4    1  0.6919593E-004  0.2205735E+03  0.7818608E-02  0.1133456E+00
         -2   -1    0    0    0  501 -0.00000000000E+00  0.00000000000E+00  0.71364515630E+01  0.71364520186E+01  0.25500000000E-02 0. -1.
          2   -1    0    0  501    0  0.00000000000E+00 -0.00000000000E+00 -0.17043724575E+04  0.17043724575E+04  0.25500000000E-02 0.  1.
    5000001    1    1    2    0    0  0.59126875578E+02 -0.14984741453E+02 -0.45959305101E+03  0.46997372525E+03  0.77000000000E+02 0.  0.
   -5000001    1    1    2    0    0 -0.59126875578E+02  0.14984741453E+02 -0.12376429549E+04  0.12415351842E+04  0.77000000000E+02 0.  0.
<mgrwt>
<rscale>  0 0.22057354E+03</rscale>
<asrwt>0</asrwt>
<pdfrwt beam="1">  1        2 0.24348152E+00 0.22057354E+03</pdfrwt>
<pdfrwt beam="2">  1       -2 0.10194942E-02 0.22057354E+03</pdfrwt>
<totfact> 0.25288766E+04</totfact>
</mgrwt>
</event>
<event>
 4    1  0.6919593E-004  0.2291434E+03  0.7818608E-02  0.1127244E+00
          2   -1    0    0  501    0  0.00000000000E+00  0.00000000000E+00  0.22058018970E+04  0.22058018970E+04  0.25500000000E-02 0.  1.
         -2   -1    0    0    0  501 -0.00000000000E+00 -0.00000000000E+00 -0.59509777350E+01  0.59509782814E+01  0.25500000000E-02 0. -1.
    5000001    1    1    2    0    0 -0.55307272784E+02  0.55962707952E+02  0.14062171230E+04  0.14105198744E+04  0.77000000000E+02 0.  0.
   -5000001    1    1    2    0    0  0.55307272784E+02 -0.55962707952E+02  0.79363379627E+03  0.80123300087E+03  0.77000000000E+02 0.  0.
<mgrwt>
<rscale>  0 0.22914344E+03</rscale>
<asrwt>0</asrwt>
<pdfrwt beam="1">  1        2 0.31511395E+00 0.22914344E+03</pdfrwt>
<pdfrwt beam="2">  1       -2 0.85014135E-03 0.22914344E+03</pdfrwt>
<totfact> 0.18802921E+04</totfact>
</mgrwt>
</event>
<event>
 4    1  0.6919593E-004  0.2432689E+03  0.7818608E-02  0.1117634E+00
         -2   -1    0    0    0  501 -0.00000000000E+00  0.00000000000E+00  0.63593516272E+01  0.63593521384E+01  0.25500000000E-02 0. -1.
          2   -1    0    0  501    0  0.00000000000E+00 -0.00000000000E+00 -0.23264848539E+04  0.23264848539E+04  0.25500000000E-02 0.  1.
    5000001    1    1    2    0    0  0.22016098961E+02 -0.90546481782E+02 -0.10304928204E+04  0.10375585896E+04  0.77000000000E+02 0.  0.
   -5000001    1    1    2    0    0 -0.22016098961E+02  0.90546481782E+02 -0.12896326818E+04  0.12952856164E+04  0.77000000000E+02 0.  0.
<mgrwt>
<rscale>  0 0.24326887E+03</rscale>
<asrwt>0</asrwt>
<pdfrwt beam="1">  1        2 0.33235444E+00 0.24326887E+03</pdfrwt>
<pdfrwt beam="2">  1       -2 0.90848033E-03 0.24326887E+03</pdfrwt>
<totfact> 0.14940251E+04</totfact>
</mgrwt>
</event>
<event>
 4    1  0.6919593E-004  0.1921045E+03  0.7818608E-02  0.1156577E+00
         -2   -1    0    0    0  501 -0.00000000000E+00  0.00000000000E+00  0.10139785259E+02  0.10139785579E+02  0.25500000000E-02 0. -1.
          2   -1    0    0  501    0  0.00000000000E+00 -0.00000000000E+00 -0.90988439738E+03  0.90988439738E+03  0.25500000000E-02 0.  1.
    5000001    1    1    2    0    0  0.37389306463E+02  0.34727501323E+02 -0.32379084449E+03  0.33670977200E+03  0.77000000000E+02 0.  0.
   -5000001    1    1    2    0    0 -0.37389306463E+02 -0.34727501323E+02 -0.57595376763E+03  0.58331441096E+03  0.77000000000E+02 0.  0.
<mgrwt>
<rscale>  0 0.19210448E+03</rscale>
<asrwt>0</asrwt>
<pdfrwt beam="1">  1        2 0.12998343E+00 0.19210448E+03</pdfrwt>
<pdfrwt beam="2">  1       -2 0.14485413E-02 0.19210448E+03</pdfrwt>
<totfact> 0.39786659E+04</totfact>
</mgrwt>
</event>
<event>
 4    1  0.6919593E-004  0.3012763E+03  0.7818608E-02  0.1084604E+00
         -2   -1    0    0    0  501 -0.00000000000E+00  0.00000000000E+00  0.26692497532E+02  0.26692497654E+02  0.25500000000E-02 0.  1.
          2   -1    0    0  501    0  0.00000000000E+00 -0.00000000000E+00 -0.85012110138E+03  0.85012110139E+03  0.25500000000E-02 0. -1.
    5000001    1    1    2    0    0  0.11313826190E+03  0.45026788694E+02 -0.28368697606E+03  0.31817444648E+03  0.77000000000E+02 0.  0.
   -5000001    1    1    2    0    0 -0.11313826190E+03 -0.45026788694E+02 -0.53974162779E+03  0.55863915256E+03  0.77000000000E+02 0.  0.
<mgrwt>
<rscale>  0 0.30127632E+03</rscale>
<asrwt>0</asrwt>
<pdfrwt beam="1">  1        2 0.12144585E+00 0.30127632E+03</pdfrwt>
<pdfrwt beam="2">  1       -2 0.38132145E-02 0.30127632E+03</pdfrwt>
<totfact> 0.10668705E+04</totfact>
</mgrwt>
</event>
<event>
 4    1  0.6919593E-004  0.1711168E+03  0.7818608E-02  0.1176688E+00
          2   -1    0    0  501    0  0.00000000000E+00  0.00000000000E+00  0.44952456749E+01  0.44952463982E+01  0.25500000000E-02 0.  1.
         -2   -1    0    0    0  501 -0.00000000000E+00 -0.00000000000E+00 -0.16284399782E+04  0.16284399782E+04  0.25500000000E-02 0. -1.
    5000001    1    1    2    0    0  0.24174373960E+01  0.29065339005E+02 -0.10338505194E+04  0.10371241654E+04  0.77000000000E+02 0.  0.
   -5000001    1    1    2    0    0 -0.24174373960E+01 -0.29065339005E+02 -0.59009421313E+03  0.59581105924E+03  0.77000000000E+02 0.  0.
<mgrwt>
<rscale>  0 0.17111678E+03</rscale>
<asrwt>0</asrwt>
<pdfrwt beam="1">  1        2 0.64217904E-03 0.17111678E+03</pdfrwt>
<pdfrwt beam="2">  1       -2 0.23263391E+00 0.17111678E+03</pdfrwt>
<totfact> 0.23846253E+03</totfact>
</mgrwt>
</event>
<event>
 4    1  0.6919593E-004  0.2452699E+03  0.7818608E-02  0.1116331E+00
         -2   -1    0    0    0  501 -0.00000000000E+00  0.00000000000E+00  0.16728276281E+02  0.16728276475E+02  0.25500000000E-02 0. -1.
          2   -1    0    0  501    0  0.00000000000E+00 -0.00000000000E+00 -0.89903681546E+03  0.89903681546E+03  0.25500000000E-02 0.  1.
    5000001    1    1    2    0    0  0.38015228936E+02 -0.80471265512E+02 -0.56992935787E+03  0.58195296646E+03  0.77000000000E+02 0.  0.
   -5000001    1    1    2    0    0 -0.38015228936E+02  0.80471265512E+02 -0.31237918131E+03  0.33381212548E+03  0.77000000000E+02 0.  0.
<mgrwt>
<rscale>  0 0.24526994E+03</rscale>
<asrwt>0</asrwt>
<pdfrwt beam="1">  1        2 0.12843380E+00 0.24526994E+03</pdfrwt>
<pdfrwt beam="2">  1       -2 0.23897543E-02 0.24526994E+03</pdfrwt>
<totfact> 0.19744412E+04</totfact>
</mgrwt>
</event>
<event>
 4    1  0.6919593E-004  0.2791024E+03  0.7818608E-02  0.1096180E+00
          2   -1    0    0  501    0  0.00000000000E+00  0.00000000000E+00  0.35951301550E+03  0.35951301551E+03  0.25500000000E-02 0.  1.
         -2   -1    0    0    0  501 -0.00000000000E+00 -0.00000000000E+00 -0.54169195311E+02  0.54169195371E+02  0.25500000000E-02 0. -1.
    5000001    1    1    2    0    0  0.58211194488E+02 -0.76215012418E+02  0.54934443987E+02  0.13469990504E+03  0.77000000000E+02 0.  0.
   -5000001    1    1    2    0    0 -0.58211194488E+02  0.76215012418E+02  0.25040937621E+03  0.27898230584E+03  0.77000000000E+02 0.  0.
<mgrwt>
<rscale>  0 0.27910235E+03</rscale>
<asrwt>0</asrwt>
<pdfrwt beam="1">  1        2 0.51359001E-01 0.27910235E+03</pdfrwt>
<pdfrwt beam="2">  1       -2 0.77384567E-02 0.27910235E+03</pdfrwt>
<totfact> 0.96288733E+03</totfact>
</mgrwt>
</event>
<event>
 4    1  0.6919593E-004  0.1791763E+03  0.7818608E-02  0.1168603E+00
          2   -1    0    0  501    0  0.00000000000E+00  0.00000000000E+00  0.23946270548E+03  0.23946270549E+03  0.25500000000E-02 0.  1.
         -2   -1    0    0    0  501 -0.00000000000E+00 -0.00000000000E+00 -0.33516855254E+02  0.33516855351E+02  0.25500000000E-02 0. -1.
    5000001    1    1    2    0    0  0.34065322475E+02  0.15827116290E+02  0.14287918897E+03  0.16659653792E+03  0.77000000000E+02 0.  0.
   -5000001    1    1    2    0    0 -0.34065322475E+02 -0.15827116290E+02  0.63066661258E+02  0.10638302293E+03  0.77000000000E+02 0.  0.
<mgrwt>
<rscale>  0 0.17917630E+03</rscale>
<asrwt>0</asrwt>
<pdfrwt beam="1">  1        2 0.34208959E-01 0.17917630E+03</pdfrwt>
<pdfrwt beam="2">  1       -2 0.47881220E-02 0.17917630E+03</pdfrwt>
<totfact> 0.30188577E+04</totfact>
</mgrwt>
</event>
<event>
 4    1  0.6919593E-004  0.2416393E+03  0.7818608E-02  0.1118706E+00
          2   -1    0    0  501    0  0.00000000000E+00  0.00000000000E+00  0.51422065431E+02  0.51422065494E+02  0.25500000000E-02 0.  1.
         -2   -1    0    0    0  501 -0.00000000000E+00 -0.00000000000E+00 -0.28387390191E+03  0.28387390192E+03  0.25500000000E-02 0. -1.
    5000001    1    1    2    0    0  0.71197964531E+02 -0.43843074056E+02 -0.17304962816E+03  0.20704236065E+03  0.77000000000E+02 0.  0.
   -5000001    1    1    2    0    0 -0.71197964531E+02  0.43843074056E+02 -0.59402208320E+02  0.12825360677E+03  0.77000000000E+02 0.  0.
<mgrwt>
<rscale>  0 0.24163925E+03</rscale>
<asrwt>0</asrwt>
<pdfrwt beam="1">  1        2 0.73460095E-02 0.24163925E+03</pdfrwt>
<pdfrwt beam="2">  1       -2 0.40553414E-01 0.24163925E+03</pdfrwt>
<totfact> 0.54330835E+03</totfact>
</mgrwt>
</event>
<event>
 4    1  0.6919593E-004  0.2124241E+03  0.7818608E-02  0.1139661E+00
         -2   -1    0    0    0  501 -0.00000000000E+00  0.00000000000E+00  0.82283160485E+02  0.82283160524E+02  0.25500000000E-02 0. -1.
          2   -1    0    0  501    0  0.00000000000E+00 -0.00000000000E+00 -0.13709977984E+03  0.13709977987E+03  0.25500000000E-02 0.  1.
    5000001    1    1    2    0    0 -0.70254933506E+02  0.62900873025E+01 -0.73642073578E+01  0.10468310480E+03  0.77000000000E+02 0.  0.
   -5000001    1    1    2    0    0  0.70254933506E+02 -0.62900873025E+01 -0.47452411999E+02  0.11469983559E+03  0.77000000000E+02 0.  0.
<mgrwt>
<rscale>  0 0.21242413E+03</rscale>
<asrwt>0</asrwt>
<pdfrwt beam="1">  1        2 0.19585683E-01 0.21242413E+03</pdfrwt>
<pdfrwt beam="2">  1       -2 0.11754737E-01 0.21242413E+03</pdfrwt>
<totfact> 0.14107276E+04</totfact>
</mgrwt>
</event>
<event>
 4    1  0.6919593E-004  0.1823139E+03  0.7818608E-02  0.1165582E+00
         -2   -1    0    0    0  501 -0.00000000000E+00  0.00000000000E+00  0.81688630141E+02  0.81688630180E+02  0.25500000000E-02 0. -1.
          2   -1    0    0  501    0  0.00000000000E+00 -0.00000000000E+00 -0.10172276157E+03  0.10172276160E+03  0.25500000000E-02 0.  1.
    5000001    1    1    2    0    0  0.60443012300E+01  0.31651475208E+02 -0.46874245647E+02  0.95731626776E+02  0.77000000000E+02 0.  0.
   -5000001    1    1    2    0    0 -0.60443012300E+01 -0.31651475208E+02  0.26840114218E+02  0.87679765006E+02  0.77000000000E+02 0.  0.
<mgrwt>
<rscale>  0 0.18231394E+03</rscale>
<asrwt>0</asrwt>
<pdfrwt beam="1">  1        2 0.14531823E-01 0.18231394E+03</pdfrwt>
<pdfrwt beam="2">  1       -2 0.11669804E-01 0.18231394E+03</pdfrwt>
<totfact> 0.19959687E+04</totfact>
</mgrwt>
</event>
<event>
 4    1  0.6919593E-004  0.2928664E+03  0.7818608E-02  0.1088862E+00
          2   -1    0    0  501    0  0.00000000000E+00  0.00000000000E+00  0.81530638593E+03  0.81530638594E+03  0.25500000000E-02 0.  1.
         -2   -1    0    0    0  501 -0.00000000000E+00 -0.00000000000E+00 -0.26300148976E+02  0.26300149099E+02  0.25500000000E-02 0. -1.
    5000001    1    1    2    0    0 -0.22193573690E+02 -0.89570290973E+02  0.63490367773E+03  0.64617882334E+03  0.77000000000E+02 0.  0.
   -5000001    1    1    2    0    0  0.22193573690E+02  0.89570290973E+02  0.15410255922E+03  0.19542771169E+03  0.77000000000E+02 0.  0.
<mgrwt>
<rscale>  0 0.29286638E+03</rscale>
<asrwt>0</asrwt>
<pdfrwt beam="1">  1        2 0.11647231E+00 0.29286638E+03</pdfrwt>
<pdfrwt beam="2">  1       -2 0.37571652E-02 0.29286638E+03</pdfrwt>
<totfact> 0.11488352E+04</totfact>
</mgrwt>
</event>
<event>
 4    1  0.6919593E-004  0.2224199E+03  0.7818608E-02  0.1132092E+00
          2   -1    0    0  501    0  0.00000000000E+00  0.00000000000E+00  0.36450954751E+03  0.36450954752E+03  0.25500000000E-02 0.  1.
         -2   -1    0    0    0  501 -0.00000000000E+00 -0.00000000000E+00 -0.33929586564E+02  0.33929586660E+02  0.25500000000E-02 0. -1.
    5000001    1    1    2    0    0  0.57918368090E+02  0.54692795314E+02  0.18254862967E+03  0.21353885224E+03  0.77000000000E+02 0.  0.
   -5000001    1    1    2    0    0 -0.57918368090E+02 -0.54692795314E+02  0.14803133128E+03  0.18490028194E+03  0.77000000000E+02 0.  0.
<mgrwt>
<rscale>  0 0.22241995E+03</rscale>
<asrwt>0</asrwt>
<pdfrwt beam="1">  1        2 0.52072791E-01 0.22241995E+03</pdfrwt>
<pdfrwt beam="2">  1       -2 0.48470839E-02 0.22241995E+03</pdfrwt>
<totfact> 0.19211774E+04</totfact>
</mgrwt>
</event>
<event>
 4    1  0.6919593E-004  0.2534808E+03  0.7818608E-02  0.1111125E+00
          2   -1    0    0  501    0  0.00000000000E+00  0.00000000000E+00  0.21525256397E+02  0.21525256548E+02  0.25500000000E-02 0.  1.
         -2   -1    0    0    0  501 -0.00000000000E+00 -0.00000000000E+00 -0.74624538255E+03  0.74624538256E+03  0.25500000000E-02 0. -1.
    5000001    1    1    2    0    0 -0.95054679978E+02 -0.33051953044E+02 -0.35475787751E+03  0.37670940450E+03  0.77000000000E+02 0.  0.
   -5000001    1    1    2    0    0  0.95054679978E+02  0.33051953044E+02 -0.36996224865E+03  0.39106123460E+03  0.77000000000E+02 0.  0.
<mgrwt>
<rscale>  0 0.25348075E+03</rscale>
<asrwt>0</asrwt>
<pdfrwt beam="1">  1        2 0.30750371E-02 0.25348075E+03</pdfrwt>
<pdfrwt beam="2">  1       -2 0.10660647E+00 0.25348075E+03</pdfrwt>
<totfact> 0.22243698E+03</totfact>
</mgrwt>
</event>
<event>
 4    1  0.6919593E-004  0.2794914E+03  0.7818608E-02  0.1095967E+00
         -2   -1    0    0    0  501 -0.00000000000E+00  0.00000000000E+00  0.82703539119E+02  0.82703539158E+02  0.25500000000E-02 0. -1.
          2   -1    0    0  501    0  0.00000000000E+00 -0.00000000000E+00 -0.23613095487E+03  0.23613095489E+03  0.25500000000E-02 0.  1.
    5000001    1    1    2    0    0 -0.17609158653E+02 -0.96739306871E+02 -0.51876449005E+01  0.12499795047E+03  0.77000000000E+02 0.  0.
   -5000001    1    1    2    0    0  0.17609158653E+02  0.96739306871E+02 -0.14823977086E+03  0.19383654358E+03  0.77000000000E+02 0.  0.
<mgrwt>
<rscale>  0 0.27949144E+03</rscale>
<asrwt>0</asrwt>
<pdfrwt beam="1">  1        2 0.33732993E-01 0.27949144E+03</pdfrwt>
<pdfrwt beam="2">  1       -2 0.11814791E-01 0.27949144E+03</pdfrwt>
<totfact> 0.77524472E+03</totfact>
</mgrwt>
</event>
<event>
 4    1  0.6919593E-004  0.1676612E+03  0.7818608E-02  0.1180309E+00
          2   -1    0    0  501    0  0.00000000000E+00  0.00000000000E+00  0.14895097046E+04  0.14895097046E+04  0.25500000000E-02 0.  1.
         -2   -1    0    0    0  501 -0.00000000000E+00 -0.00000000000E+00 -0.47180421946E+01  0.47180428837E+01  0.25500000000E-02 0. -1.
    5000001    1    1    2    0    0  0.14131106397E+02 -0.29964802213E+02  0.75127503480E+03  0.75593700495E+03  0.77000000000E+02 0.  0.
   -5000001    1    1    2    0    0 -0.14131106397E+02  0.29964802213E+02  0.73351662757E+03  0.73829074250E+03  0.77000000000E+02 0.  0.
<mgrwt>
<rscale>  0 0.16766121E+03</rscale>
<asrwt>0</asrwt>
<pdfrwt beam="1">  1        2 0.21278666E+00 0.16766121E+03</pdfrwt>
<pdfrwt beam="2">  1       -2 0.67400746E-03 0.16766121E+03</pdfrwt>
<totfact> 0.57440931E+04</totfact>
</mgrwt>
</event>
<event>
 4    1  0.6919593E-004  0.2091008E+03  0.7818608E-02  0.1142280E+00
          2   -1    0    0  501    0  0.00000000000E+00  0.00000000000E+00  0.31293564165E+03  0.31293564166E+03  0.25500000000E-02 0.  1.
         -2   -1    0    0    0  501 -0.00000000000E+00 -0.00000000000E+00 -0.34929836168E+02  0.34929836261E+02  0.25500000000E-02 0. -1.
    5000001    1    1    2    0    0  0.83925144137E+01  0.69380348663E+02  0.15705332535E+03  0.18835820683E+03  0.77000000000E+02 0.  0.
   -5000001    1    1    2    0    0 -0.83925144137E+01 -0.69380348663E+02  0.12095248013E+03  0.15950727108E+03  0.77000000000E+02 0.  0.
<mgrwt>
<rscale>  0 0.20910084E+03</rscale>
<asrwt>0</asrwt>
<pdfrwt beam="1">  1        2 0.44705093E-01 0.20910084E+03</pdfrwt>
<pdfrwt beam="2">  1       -2 0.49899765E-02 0.20910084E+03</pdfrwt>
<totfact> 0.21555590E+04</totfact>
</mgrwt>
</event>
<event>
 4    1  0.6919593E-004  0.2231538E+03  0.7818608E-02  0.1131553E+00
         -2   -1    0    0    0  501 -0.00000000000E+00  0.00000000000E+00  0.66810294168E+01  0.66810299034E+01  0.25500000000E-02 0. -1.
          2   -1    0    0  501    0  0.00000000000E+00 -0.00000000000E+00 -0.18633956763E+04  0.18633956763E+04  0.25500000000E-02 0.  1.
    5000001    1    1    2    0    0 -0.67624320056E+02 -0.38860797210E+02 -0.11035803063E+04  0.11090093339E+04  0.77000000000E+02 0.  0.
   -5000001    1    1    2    0    0  0.67624320056E+02  0.38860797210E+02 -0.75313434058E+03  0.76106737230E+03  0.77000000000E+02 0.  0.
<mgrwt>
<rscale>  0 0.22315377E+03</rscale>
<asrwt>0</asrwt>
<pdfrwt beam="1">  1        2 0.26619905E+00 0.22315377E+03</pdfrwt>
<pdfrwt beam="2">  1       -2 0.95443400E-03 0.22315377E+03</pdfrwt>
<totfact> 0.23289459E+04</totfact>
</mgrwt>
</event>
<event>
 4    1  0.6919593E-004  0.3140511E+03  0.7818608E-02  0.1078420E+00
         -2   -1    0    0    0  501 -0.00000000000E+00  0.00000000000E+00  0.26577264753E+02  0.26577264876E+02  0.25500000000E-02 0. -1.
          2   -1    0    0  501    0  0.00000000000E+00 -0.00000000000E+00 -0.92774869803E+03  0.92774869804E+03  0.25500000000E-02 0.  1.
    5000001    1    1    2    0    0  0.24166213748E+02 -0.13210747443E+03 -0.37066966666E+03  0.40169813600E+03  0.77000000000E+02 0.  0.
   -5000001    1    1    2    0    0 -0.24166213748E+02  0.13210747443E+03 -0.53050176662E+03  0.55262782691E+03  0.77000000000E+02 0.  0.
<mgrwt>
<rscale>  0 0.31405110E+03</rscale>
<asrwt>0</asrwt>
<pdfrwt beam="1">  1        2 0.13253551E+00 0.31405110E+03</pdfrwt>
<pdfrwt beam="2">  1       -2 0.37967527E-02 0.31405110E+03</pdfrwt>
<totfact> 0.96017083E+03</totfact>
</mgrwt>
</event>
<event>
 4    1  0.6919593E-004  0.3723120E+03  0.7818608E-02  0.1053812E+00
          2   -1    0    0  501    0  0.00000000000E+00  0.00000000000E+00  0.35543652879E+02  0.35543652970E+02  0.25500000000E-02 0. -1.
         -2   -1    0    0    0  501 -0.00000000000E+00 -0.00000000000E+00 -0.97497181266E+03  0.97497181266E+03  0.25500000000E-02 0.  1.
    5000001    1    1    2    0    0 -0.12938949828E+03 -0.95459609885E+02 -0.32428761247E+03  0.37006166376E+03  0.77000000000E+02 0.  0.
   -5000001    1    1    2    0    0  0.12938949828E+03  0.95459609885E+02 -0.61514054731E+03  0.64045380187E+03  0.77000000000E+02 0.  0.
<mgrwt>
<rscale>  0 0.37231202E+03</rscale>
<asrwt>0</asrwt>
<pdfrwt beam="1">  1        2 0.50776653E-02 0.37231202E+03</pdfrwt>
<pdfrwt beam="2">  1       -2 0.13928167E+00 0.37231202E+03</pdfrwt>
<totfact> 0.59421625E+02</totfact>
</mgrwt>
</event>
<event>
 4    1  0.6919593E-004  0.2417861E+03  0.7818608E-02  0.1118609E+00
          2   -1    0    0  501    0  0.00000000000E+00  0.00000000000E+00  0.30639785780E+02  0.30639785886E+02  0.25500000000E-02 0.  1.
         -2   -1    0    0    0  501 -0.00000000000E+00 -0.00000000000E+00 -0.47699823570E+03  0.47699823571E+03  0.25500000000E-02 0. -1.
    5000001    1    1    2    0    0  0.49137737214E+02 -0.57776678881E+02 -0.10946543677E+03  0.15383219328E+03  0.77000000000E+02 0.  0.
   -5000001    1    1    2    0    0 -0.49137737214E+02  0.57776678881E+02 -0.33689301315E+03  0.35380582832E+03  0.77000000000E+02 0.  0.
<mgrwt>
<rscale>  0 0.24178605E+03</rscale>
<asrwt>0</asrwt>
<pdfrwt beam="1">  1        2 0.43771126E-02 0.24178605E+03</pdfrwt>
<pdfrwt beam="2">  1       -2 0.68142600E-01 0.24178605E+03</pdfrwt>
<totfact> 0.37568265E+03</totfact>
</mgrwt>
</event>
<event>
 4    1  0.6919593E-004  0.3035707E+03  0.7818608E-02  0.1083469E+00
          2   -1    0    0  501    0  0.00000000000E+00  0.00000000000E+00  0.11969479994E+04  0.11969479994E+04  0.25500000000E-02 0.  1.
         -2   -1    0    0    0  501 -0.00000000000E+00 -0.00000000000E+00 -0.19247952793E+02  0.19247952962E+02  0.25500000000E-02 0. -1.
    5000001    1    1    2    0    0  0.30153738179E+02 -0.94262746118E+02  0.93150208171E+03  0.93990416611E+03  0.77000000000E+02 0.  0.
   -5000001    1    1    2    0    0 -0.30153738179E+02  0.94262746118E+02  0.24619796485E+03  0.27629178621E+03  0.77000000000E+02 0.  0.
<mgrwt>
<rscale>  0 0.30357074E+03</rscale>
<asrwt>0</asrwt>
<pdfrwt beam="1">  1        2 0.17099262E+00 0.30357074E+03</pdfrwt>
<pdfrwt beam="2">  1       -2 0.27497068E-02 0.30357074E+03</pdfrwt>
<totfact> 0.10870241E+04</totfact>
</mgrwt>
</event>
<event>
 4    1  0.6919593E-004  0.1761024E+03  0.7818608E-02  0.1171629E+00
          2   -1    0    0  501    0  0.00000000000E+00  0.00000000000E+00  0.71104825556E+03  0.71104825557E+03  0.25500000000E-02 0.  1.
         -2   -1    0    0    0  501 -0.00000000000E+00 -0.00000000000E+00 -0.10903640523E+02  0.10903640821E+02  0.25500000000E-02 0. -1.
    5000001    1    1    2    0    0  0.40605522585E+02  0.20071898847E+01  0.29643509700E+03  0.30895890343E+03  0.77000000000E+02 0.  0.
   -5000001    1    1    2    0    0 -0.40605522585E+02 -0.20071898847E+01  0.40370951804E+03  0.41299299296E+03  0.77000000000E+02 0.  0.
<mgrwt>
<rscale>  0 0.17610241E+03</rscale>
<asrwt>0</asrwt>
<pdfrwt beam="1">  1        2 0.10157835E+00 0.17610241E+03</pdfrwt>
<pdfrwt beam="2">  1       -2 0.15576625E-02 0.17610241E+03</pdfrwt>
<totfact> 0.48108247E+04</totfact>
</mgrwt>
</event>
<event>
 4    1  0.6919593E-004  0.2454145E+03  0.7818608E-02  0.1116237E+00
         -2   -1    0    0    0  501 -0.00000000000E+00  0.00000000000E+00  0.71998357106E+01  0.71998361622E+01  0.25500000000E-02 0. -1.
          2   -1    0    0  501    0  0.00000000000E+00 -0.00000000000E+00 -0.20913077512E+04  0.20913077512E+04  0.25500000000E-02 0.  1.
    5000001    1    1    2    0    0 -0.58928188558E+02  0.42423792894E+02 -0.15730184090E+04  0.15765748395E+04  0.77000000000E+02 0.  0.
   -5000001    1    1    2    0    0  0.58928188558E+02 -0.42423792894E+02 -0.51108950652E+03  0.52193274785E+03  0.77000000000E+02 0.  0.
<mgrwt>
<rscale>  0 0.24541453E+03</rscale>
<asrwt>0</asrwt>
<pdfrwt beam="1">  1        2 0.29875786E+00 0.24541453E+03</pdfrwt>
<pdfrwt beam="2">  1       -2 0.10285493E-02 0.24541453E+03</pdfrwt>
<totfact> 0.16259496E+04</totfact>
</mgrwt>
</event>
<event>
 4    1  0.6919593E-004  0.2453865E+03  0.7818608E-02  0.1116256E+00
          2   -1    0    0  501    0  0.00000000000E+00  0.00000000000E+00  0.35678446734E+02  0.35678446825E+02  0.25500000000E-02 0.  1.
         -2   -1    0    0    0  501 -0.00000000000E+00 -0.00000000000E+00 -0.42192508660E+03  0.42192508661E+03  0.25500000000E-02 0. -1.
    5000001    1    1    2    0    0 -0.95071666086E+02  0.29470025654E+01 -0.20952163972E+03  0.24264299707E+03  0.77000000000E+02 0.  0.
   -5000001    1    1    2    0    0  0.95071666086E+02 -0.29470025654E+01 -0.17672500015E+03  0.21496053636E+03  0.77000000000E+02 0.  0.
<mgrwt>
<rscale>  0 0.24538648E+03</rscale>
<asrwt>0</asrwt>
<pdfrwt beam="1">  1        2 0.50969212E-02 0.24538648E+03</pdfrwt>
<pdfrwt beam="2">  1       -2 0.60275010E-01 0.24538648E+03</pdfrwt>
<totfact> 0.39745773E+03</totfact>
</mgrwt>
</event>
<event>
 4    1  0.6919593E-004  0.2232264E+03  0.7818608E-02  0.1131500E+00
         -2   -1    0    0    0  501 -0.00000000000E+00  0.00000000000E+00  0.62529067655E+03  0.62529067656E+03  0.25500000000E-02 0. -1.
          2   -1    0    0  501    0  0.00000000000E+00 -0.00000000000E+00 -0.19922742347E+02  0.19922742510E+02  0.25500000000E-02 0.  1.
    5000001    1    1    2    0    0 -0.37535920022E+02 -0.70685337719E+02  0.33475865451E+03  0.35270060821E+03  0.77000000000E+02 0.  0.
   -5000001    1    1    2    0    0  0.37535920022E+02  0.70685337719E+02  0.27060927969E+03  0.29251281086E+03  0.77000000000E+02 0.  0.
<mgrwt>
<rscale>  0 0.22322639E+03</rscale>
<asrwt>0</asrwt>
<pdfrwt beam="1">  1        2 0.28461069E-02 0.22322639E+03</pdfrwt>
<pdfrwt beam="2">  1       -2 0.89327213E-01 0.22322639E+03</pdfrwt>
<totfact> 0.36925683E+03</totfact>
</mgrwt>
</event>
<event>
 4    1  0.6919593E-004  0.2651161E+03  0.7818608E-02  0.1104108E+00
         -2   -1    0    0    0  501 -0.00000000000E+00  0.00000000000E+00  0.60090563670E+02  0.60090563724E+02  0.25500000000E-02 0. -1.
          2   -1    0    0  501    0  0.00000000000E+00 -0.00000000000E+00 -0.29241934025E+03  0.29241934026E+03  0.25500000000E-02 0.  1.
    5000001    1    1    2    0    0 -0.30326026956E+02  0.98471993550E+02 -0.73569258736E+02  0.14818177100E+03  0.77000000000E+02 0.  0.
   -5000001    1    1    2    0    0  0.30326026956E+02 -0.98471993550E+02 -0.15875951785E+03  0.20432813299E+03  0.77000000000E+02 0.  0.
<mgrwt>
<rscale>  0 0.26511615E+03</rscale>
<asrwt>0</asrwt>
<pdfrwt beam="1">  1        2 0.41774191E-01 0.26511615E+03</pdfrwt>
<pdfrwt beam="2">  1       -2 0.85843664E-02 0.26511615E+03</pdfrwt>
<totfact> 0.10200285E+04</totfact>
</mgrwt>
</event>
<event>
 4    1  0.6919593E-004  0.2610242E+03  0.7818608E-02  0.1106529E+00
          2   -1    0    0  501    0  0.00000000000E+00  0.00000000000E+00  0.13234251279E+04  0.13234251279E+04  0.25500000000E-02 0.  1.
         -2   -1    0    0    0  501 -0.00000000000E+00 -0.00000000000E+00 -0.12870696905E+02  0.12870697158E+02  0.25500000000E-02 0. -1.
    5000001    1    1    2    0    0 -0.92948475632E+02 -0.49010929522E+02  0.69588356358E+03  0.70797205057E+03  0.77000000000E+02 0.  0.
   -5000001    1    1    2    0    0  0.92948475632E+02  0.49010929522E+02  0.61467086745E+03  0.62832377452E+03  0.77000000000E+02 0.  0.
<mgrwt>
<rscale>  0 0.26102417E+03</rscale>
<asrwt>0</asrwt>
<pdfrwt beam="1">  1        2 0.18906062E+00 0.26102417E+03</pdfrwt>
<pdfrwt beam="2">  1       -2 0.18386721E-02 0.26102417E+03</pdfrwt>
<totfact> 0.16780660E+04</totfact>
</mgrwt>
</event>
<event>
 4    1  0.6919593E-004  0.3343002E+03  0.7818608E-02  0.1069250E+00
          2   -1    0    0  501    0  0.00000000000E+00  0.00000000000E+00  0.56960386846E+03  0.56960386847E+03  0.25500000000E-02 0.  1.
         -2   -1    0    0    0  501 -0.00000000000E+00 -0.00000000000E+00 -0.49050154559E+02  0.49050154625E+02  0.25500000000E-02 0. -1.
    5000001    1    1    2    0    0  0.10315240013E+03  0.76585582439E+02  0.12297837405E+03  0.19380002470E+03  0.77000000000E+02 0.  0.
   -5000001    1    1    2    0    0 -0.10315240013E+03 -0.76585582439E+02  0.39757533985E+03  0.42485399839E+03  0.77000000000E+02 0.  0.
<mgrwt>
<rscale>  0 0.33430021E+03</rscale>
<asrwt>0</asrwt>
<pdfrwt beam="1">  1        2 0.81371976E-01 0.33430021E+03</pdfrwt>
<pdfrwt beam="2">  1       -2 0.70071654E-02 0.33430021E+03</pdfrwt>
<totfact> 0.68154885E+03</totfact>
</mgrwt>
</event>
<event>
 4    1  0.6919593E-004  0.2640917E+03  0.7818608E-02  0.1104709E+00
          2   -1    0    0  501    0  0.00000000000E+00  0.00000000000E+00  0.15122273944E+03  0.15122273946E+03  0.25500000000E-02 0.  1.
         -2   -1    0    0    0  501 -0.00000000000E+00 -0.00000000000E+00 -0.11530081173E+03  0.11530081176E+03  0.25500000000E-02 0. -1.
    5000001    1    1    2    0    0  0.80916767688E+02 -0.30850848648E+02  0.81851161715E+02  0.14187286855E+03  0.77000000000E+02 0.  0.
   -5000001    1    1    2    0    0 -0.80916767688E+02  0.30850848648E+02 -0.45929234006E+02  0.12465068268E+03  0.77000000000E+02 0.  0.
<mgrwt>
<rscale>  0 0.26409169E+03</rscale>
<asrwt>0</asrwt>
<pdfrwt beam="1">  1        2 0.21603248E-01 0.26409169E+03</pdfrwt>
<pdfrwt beam="2">  1       -2 0.16471545E-01 0.26409169E+03</pdfrwt>
<totfact> 0.73532816E+03</totfact>
</mgrwt>
</event>
<event>
 4    1  0.6919593E-004  0.1671945E+03  0.7818608E-02  0.1180806E+00
         -2   -1    0    0    0  501 -0.00000000000E+00  0.00000000000E+00  0.39646234266E+01  0.39646242467E+01  0.25500000000E-02 0. -1.
          2   -1    0    0  501    0  0.00000000000E+00 -0.00000000000E+00 -0.17627147281E+04  0.17627147281E+04  0.25500000000E-02 0.  1.
    5000001    1    1    2    0    0 -0.19128993253E+02 -0.26064121251E+02 -0.91925478118E+03  0.92304041597E+03  0.77000000000E+02 0.  0.
   -5000001    1    1    2    0    0  0.19128993253E+02  0.26064121251E+02 -0.83949532348E+03  0.84363893636E+03  0.77000000000E+02 0.  0.
<mgrwt>
<rscale>  0 0.16719451E+03</rscale>
<asrwt>0</asrwt>
<pdfrwt beam="1">  1        2 0.25181589E+00 0.16719451E+03</pdfrwt>
<pdfrwt beam="2">  1       -2 0.56637596E-03 0.16719451E+03</pdfrwt>
<totfact> 0.54150648E+04</totfact>
</mgrwt>
</event>
<event>
 4    1  0.6919593E-004  0.2530007E+03  0.7818608E-02  0.1111423E+00
         -2   -1    0    0    0  501 -0.00000000000E+00  0.00000000000E+00  0.56787835859E+01  0.56787841584E+01  0.25500000000E-02 0. -1.
          2   -1    0    0  501    0  0.00000000000E+00 -0.00000000000E+00 -0.28179161476E+04  0.28179161476E+04  0.25500000000E-02 0.  1.
    5000001    1    1    2    0    0 -0.54981392831E+02  0.69315283331E+02 -0.87723059008E+03  0.88503676208E+03  0.77000000000E+02 0.  0.
   -5000001    1    1    2    0    0  0.54981392831E+02 -0.69315283331E+02 -0.19350067740E+04  0.19385581697E+04  0.77000000000E+02 0.  0.
<mgrwt>
<rscale>  0 0.25300069E+03</rscale>
<asrwt>0</asrwt>
<pdfrwt beam="1">  1        2 0.40255855E+00 0.25300069E+03</pdfrwt>
<pdfrwt beam="2">  1       -2 0.81125664E-03 0.25300069E+03</pdfrwt>
<totfact> 0.99828350E+03</totfact>
</mgrwt>
</event>
<event>
 4    1  0.6919593E-004  0.2723440E+03  0.7818608E-02  0.1099946E+00
         -2   -1    0    0    0  501 -0.00000000000E+00  0.00000000000E+00  0.41519690611E+02  0.41519690689E+02  0.25500000000E-02 0. -1.
          2   -1    0    0  501    0  0.00000000000E+00 -0.00000000000E+00 -0.44660272112E+03  0.44660272113E+03  0.25500000000E-02 0.  1.
    5000001    1    1    2    0    0 -0.31646843332E+02 -0.10461025095E+03 -0.24889874027E+03  0.28253214013E+03  0.77000000000E+02 0.  0.
   -5000001    1    1    2    0    0  0.31646843332E+02  0.10461025095E+03 -0.15618429024E+03  0.20559027169E+03  0.77000000000E+02 0.  0.
<mgrwt>
<rscale>  0 0.27234395E+03</rscale>
<asrwt>0</asrwt>
<pdfrwt beam="1">  1        2 0.63800386E-01 0.27234395E+03</pdfrwt>
<pdfrwt beam="2">  1       -2 0.59313847E-02 0.27234395E+03</pdfrwt>
<totfact> 0.11471654E+04</totfact>
</mgrwt>
</event>
<event>
 4    1  0.6919593E-004  0.2120668E+03  0.7818608E-02  0.1139940E+00
         -2   -1    0    0    0  501 -0.00000000000E+00  0.00000000000E+00  0.97399232514E+02  0.97399232547E+02  0.25500000000E-02 0. -1.
          2   -1    0    0  501    0  0.00000000000E+00 -0.00000000000E+00 -0.11543298375E+03  0.11543298378E+03  0.25500000000E-02 0.  1.
    5000001    1    1    2    0    0 -0.66816393101E+02 -0.25747596849E+02  0.46968082023E+01  0.10525411696E+03  0.77000000000E+02 0.  0.
   -5000001    1    1    2    0    0  0.66816393101E+02  0.25747596849E+02 -0.22730559443E+02  0.10757809937E+03  0.77000000000E+02 0.  0.
<mgrwt>
<rscale>  0 0.21206682E+03</rscale>
<asrwt>0</asrwt>
<pdfrwt beam="1">  1        2 0.16490426E-01 0.21206682E+03</pdfrwt>
<pdfrwt beam="2">  1       -2 0.13914176E-01 0.21206682E+03</pdfrwt>
<totfact> 0.13095591E+04</totfact>
</mgrwt>
</event>
<event>
 4    1  0.6919593E-004  0.3054075E+03  0.7818608E-02  0.1082568E+00
         -2   -1    0    0    0  501 -0.00000000000E+00  0.00000000000E+00  0.16109243303E+02  0.16109243504E+02  0.25500000000E-02 0. -1.
          2   -1    0    0  501    0  0.00000000000E+00 -0.00000000000E+00 -0.14475192635E+04  0.14475192635E+04  0.25500000000E-02 0.  1.
    5000001    1    1    2    0    0  0.73736144362E+02  0.98749625347E+02 -0.94053513072E+03  0.95169524513E+03  0.77000000000E+02 0.  0.
   -5000001    1    1    2    0    0 -0.73736144362E+02 -0.98749625347E+02 -0.49087488946E+03  0.51193326185E+03  0.77000000000E+02 0.  0.
<mgrwt>
<rscale>  0 0.30540753E+03</rscale>
<asrwt>0</asrwt>
<pdfrwt beam="1">  1        2 0.20678838E+00 0.30540753E+03</pdfrwt>
<pdfrwt beam="2">  1       -2 0.23013214E-02 0.30540753E+03</pdfrwt>
<totfact> 0.10448488E+04</totfact>
</mgrwt>
</event>
<event>
 4    1  0.6919593E-004  0.1904505E+03  0.7818608E-02  0.1158056E+00
          2   -1    0    0  501    0  0.00000000000E+00  0.00000000000E+00  0.19131860815E+02  0.19131860985E+02  0.25500000000E-02 0.  1.
         -2   -1    0    0    0  501 -0.00000000000E+00 -0.00000000000E+00 -0.47396606115E+03  0.47396606115E+03  0.25500000000E-02 0. -1.
    5000001    1    1    2    0    0 -0.51909045767E+02 -0.10661341252E+02 -0.18033798062E+03  0.20312311656E+03  0.77000000000E+02 0.  0.
   -5000001    1    1    2    0    0  0.51909045767E+02  0.10661341252E+02 -0.27449621972E+03  0.28997480557E+03  0.77000000000E+02 0.  0.
<mgrwt>
<rscale>  0 0.19045055E+03</rscale>
<asrwt>0</asrwt>
<pdfrwt beam="1">  1        2 0.27331233E-02 0.19045055E+03</pdfrwt>
<pdfrwt beam="2">  1       -2 0.67709430E-01 0.19045055E+03</pdfrwt>
<totfact> 0.70743325E+03</totfact>
</mgrwt>
</event>
<event>
 4    1  0.6919593E-004  0.5845726E+03  0.7818608E-02  0.9937940E-01
          2   -1    0    0  501    0  0.00000000000E+00  0.00000000000E+00  0.45465841994E+04  0.45465841994E+04  0.25500000000E-02 0.  1.
         -2   -1    0    0    0  501 -0.00000000000E+00 -0.00000000000E+00 -0.18790213655E+02  0.18790213828E+02  0.25500000000E-02 0. -1.
    5000001    1    1    2    0    0  0.19030220735E+03  0.19651530539E+03  0.17302498207E+04  0.17534328152E+04  0.77000000000E+02 0.  0.
   -5000001    1    1    2    0    0 -0.19030220735E+03 -0.19651530539E+03  0.27975441650E+04  0.28119415980E+04  0.77000000000E+02 0.  0.
<mgrwt>
<rscale>  0 0.58457263E+03</rscale>
<asrwt>0</asrwt>
<pdfrwt beam="1">  1        2 0.64951204E+00 0.58457263E+03</pdfrwt>
<pdfrwt beam="2">  1       -2 0.26843162E-02 0.58457263E+03</pdfrwt>
<totfact> 0.13689203E+02</totfact>
</mgrwt>
</event>
<event>
 4    1  0.6919593E-004  0.2804371E+03  0.7818608E-02  0.1095450E+00
         -2   -1    0    0    0  501 -0.00000000000E+00  0.00000000000E+00  0.15532983160E+03  0.15532983163E+03  0.25500000000E-02 0. -1.
          2   -1    0    0  501    0  0.00000000000E+00 -0.00000000000E+00 -0.12657734268E+03  0.12657734270E+03  0.25500000000E-02 0.  1.
    5000001    1    1    2    0    0  0.59989733561E+02  0.57773934106E+02 -0.68491581918E+02  0.13250166938E+03  0.77000000000E+02 0.  0.
   -5000001    1    1    2    0    0 -0.59989733561E+02 -0.57773934106E+02  0.97244070845E+02  0.14940550495E+03  0.77000000000E+02 0.  0.
<mgrwt>
<rscale>  0 0.28043707E+03</rscale>
<asrwt>0</asrwt>
<pdfrwt beam="1">  1        2 0.18082477E-01 0.28043707E+03</pdfrwt>
<pdfrwt beam="2">  1       -2 0.22189976E-01 0.28043707E+03</pdfrwt>
<totfact> 0.54453401E+03</totfact>
</mgrwt>
</event>
<event>
 4    1  0.6919593E-004  0.2086359E+03  0.7818608E-02  0.1142651E+00
         -2   -1    0    0    0  501 -0.00000000000E+00  0.00000000000E+00  0.46238941848E+02  0.46238941919E+02  0.25500000000E-02 0. -1.
          2   -1    0    0  501    0  0.00000000000E+00 -0.00000000000E+00 -0.23534777586E+03  0.23534777587E+03  0.25500000000E-02 0.  1.
    5000001    1    1    2    0    0  0.64413802785E+02 -0.28326834758E+02 -0.96306152949E+02  0.14196979486E+03  0.77000000000E+02 0.  0.
   -5000001    1    1    2    0    0 -0.64413802785E+02  0.28326834758E+02 -0.92802681060E+02  0.13961692293E+03  0.77000000000E+02 0.  0.
<mgrwt>
<rscale>  0 0.20863588E+03</rscale>
<asrwt>0</asrwt>
<pdfrwt beam="1">  1        2 0.33621110E-01 0.20863588E+03</pdfrwt>
<pdfrwt beam="2">  1       -2 0.66055632E-02 0.20863588E+03</pdfrwt>
<totfact> 0.19093340E+04</totfact>
</mgrwt>
</event>
<event>
 4    1  0.6919593E-004  0.2528914E+03  0.7818608E-02  0.1111491E+00
         -2   -1    0    0    0  501 -0.00000000000E+00  0.00000000000E+00  0.35699763279E+03  0.35699763280E+03  0.25500000000E-02 0. -1.
          2   -1    0    0  501    0  0.00000000000E+00 -0.00000000000E+00 -0.44786035704E+02  0.44786035777E+02  0.25500000000E-02 0.  1.
    5000001    1    1    2    0    0 -0.16722291391E+02 -0.98756153605E+02  0.14783572023E+03  0.19446545472E+03  0.77000000000E+02 0.  0.
   -5000001    1    1    2    0    0  0.16722291391E+02  0.98756153605E+02  0.16437587686E+03  0.20731821386E+03  0.77000000000E+02 0.  0.
<mgrwt>
<rscale>  0 0.25289135E+03</rscale>
<asrwt>0</asrwt>
<pdfrwt beam="1">  1        2 0.63980054E-02 0.25289135E+03</pdfrwt>
<pdfrwt beam="2">  1       -2 0.50999660E-01 0.25289135E+03</pdfrwt>
<totfact> 0.41544961E+03</totfact>
</mgrwt>
</event>
<event>
 4    1  0.6919593E-004  0.7639422E+03  0.7818608E-02  0.9613728E-01
         -2   -1    0    0    0  501 -0.00000000000E+00  0.00000000000E+00  0.90617007399E+02  0.90617007435E+02  0.25500000000E-02 0.  1.
          2   -1    0    0  501    0  0.00000000000E+00 -0.00000000000E+00 -0.16100944249E+04  0.16100944249E+04  0.25500000000E-02 0. -1.
    5000001    1    1    2    0    0  0.31719107171E+03  0.19767988565E+03 -0.72212758360E+03  0.81675256972E+03  0.77000000000E+02 0.  0.
   -5000001    1    1    2    0    0 -0.31719107171E+03 -0.19767988565E+03 -0.79734983387E+03  0.88395886258E+03  0.77000000000E+02 0.  0.
<mgrwt>
<rscale>  0 0.76394225E+03</rscale>
<asrwt>0</asrwt>
<pdfrwt beam="1">  1        2 0.23001347E+00 0.76394225E+03</pdfrwt>
<pdfrwt beam="2">  1       -2 0.12945288E-01 0.76394225E+03</pdfrwt>
<totfact> 0.57988545E+02</totfact>
</mgrwt>
</event>
<event>
 4    1  0.6919593E-004  0.3295133E+03  0.7818608E-02  0.1071352E+00
          2   -1    0    0  501    0  0.00000000000E+00  0.00000000000E+00  0.92065283346E+03  0.92065283346E+03  0.25500000000E-02 0.  1.
         -2   -1    0    0    0  501 -0.00000000000E+00 -0.00000000000E+00 -0.29484239931E+02  0.29484240041E+02  0.25500000000E-02 0. -1.
    5000001    1    1    2    0    0  0.10406718466E+03  0.15018945173E+02  0.73623040509E+03  0.74767623810E+03  0.77000000000E+02 0.  0.
   -5000001    1    1    2    0    0 -0.10406718466E+03 -0.15018945173E+02  0.15493818844E+03  0.20246083540E+03  0.77000000000E+02 0.  0.
<mgrwt>
<rscale>  0 0.32951327E+03</rscale>
<asrwt>0</asrwt>
<pdfrwt beam="1">  1        2 0.13152180E+00 0.32951327E+03</pdfrwt>
<pdfrwt beam="2">  1       -2 0.42120354E-02 0.32951327E+03</pdfrwt>
<totfact> 0.83028410E+03</totfact>
</mgrwt>
</event>
<event>
 4    1  0.6919593E-004  0.2600048E+03  0.7818608E-02  0.1107140E+00
          2   -1    0    0  501    0  0.00000000000E+00  0.00000000000E+00  0.32042444437E+04  0.32042444437E+04  0.25500000000E-02 0. -1.
         -2   -1    0    0    0  501 -0.00000000000E+00 -0.00000000000E+00 -0.52744478732E+01  0.52744484897E+01  0.25500000000E-02 0.  1.
    5000001    1    1    2    0    0 -0.49648967346E+02  0.90739105722E+02  0.18034485978E+04  0.18080526680E+04  0.77000000000E+02 0.  0.
   -5000001    1    1    2    0    0  0.49648967346E+02 -0.90739105722E+02  0.13955213980E+04  0.14014662242E+04  0.77000000000E+02 0.  0.
<mgrwt>
<rscale>  0 0.26000478E+03</rscale>
<asrwt>0</asrwt>
<pdfrwt beam="1">  1        2 0.45775242E+00 0.26000478E+03</pdfrwt>
<pdfrwt beam="2">  1       -2 0.75348732E-03 0.26000478E+03</pdfrwt>
<totfact> 0.69298451E+03</totfact>
</mgrwt>
</event>
<event>
 4    1  0.6919593E-004  0.2137747E+03  0.7818608E-02  0.1138611E+00
         -2   -1    0    0    0  501 -0.00000000000E+00  0.00000000000E+00  0.30313868878E+02  0.30313868985E+02  0.25500000000E-02 0. -1.
          2   -1    0    0  501    0  0.00000000000E+00 -0.00000000000E+00 -0.37688719939E+03  0.37688719940E+03  0.25500000000E-02 0.  1.
    5000001    1    1    2    0    0 -0.24285837348E+02  0.79310884640E+01 -0.30584864029E+03  0.31642549649E+03  0.77000000000E+02 0.  0.
   -5000001    1    1    2    0    0  0.24285837348E+02 -0.79310884640E+01 -0.40724690226E+02  0.90775571901E+02  0.77000000000E+02 0.  0.
<mgrwt>
<rscale>  0 0.21377473E+03</rscale>
<asrwt>0</asrwt>
<pdfrwt beam="1">  1        2 0.53841026E-01 0.21377473E+03</pdfrwt>
<pdfrwt beam="2">  1       -2 0.43305529E-02 0.21377473E+03</pdfrwt>
<totfact> 0.21907183E+04</totfact>
</mgrwt>
</event>
<event>
 4    1  0.6919593E-004  0.2023772E+03  0.7818608E-02  0.1147749E+00
         -2   -1    0    0    0  501 -0.00000000000E+00  0.00000000000E+00  0.17593671386E+02  0.17593671571E+02  0.25500000000E-02 0. -1.
          2   -1    0    0  501    0  0.00000000000E+00 -0.00000000000E+00 -0.58197843854E+03  0.58197843855E+03  0.25500000000E-02 0.  1.
    5000001    1    1    2    0    0  0.24445050669E+02  0.56045613067E+02 -0.35301549780E+03  0.36645274311E+03  0.77000000000E+02 0.  0.
   -5000001    1    1    2    0    0 -0.24445050669E+02 -0.56045613067E+02 -0.21136926936E+03  0.23311936701E+03  0.77000000000E+02 0.  0.
<mgrwt>
<rscale>  0 0.20237725E+03</rscale>
<asrwt>0</asrwt>
<pdfrwt beam="1">  1        2 0.83139765E-01 0.20237725E+03</pdfrwt>
<pdfrwt beam="2">  1       -2 0.25133820E-02 0.20237725E+03</pdfrwt>
<totfact> 0.30466322E+04</totfact>
</mgrwt>
</event>
<event>
 4    1  0.6919593E-004  0.2865660E+03  0.7818608E-02  0.1092156E+00
         -2   -1    0    0    0  501 -0.00000000000E+00  0.00000000000E+00  0.41792823089E+02  0.41792823167E+02  0.25500000000E-02 0. -1.
          2   -1    0    0  501    0  0.00000000000E+00 -0.00000000000E+00 -0.49123301989E+03  0.49123301990E+03  0.25500000000E-02 0.  1.
    5000001    1    1    2    0    0 -0.76412717118E+02 -0.68353832139E+01 -0.51073201948E+02  0.12009620210E+03  0.77000000000E+02 0.  0.
   -5000001    1    1    2    0    0  0.76412717118E+02  0.68353832139E+01 -0.39836699485E+03  0.41292964097E+03  0.77000000000E+02 0.  0.
<mgrwt>
<rscale>  0 0.28656598E+03</rscale>
<asrwt>0</asrwt>
<pdfrwt beam="1">  1        2 0.70176143E-01 0.28656598E+03</pdfrwt>
<pdfrwt beam="2">  1       -2 0.59704036E-02 0.28656598E+03</pdfrwt>
<totfact> 0.10251588E+04</totfact>
</mgrwt>
</event>
<event>
 4    1  0.6919593E-004  0.2180535E+03  0.7818608E-02  0.1135343E+00
          2   -1    0    0  501    0  0.00000000000E+00  0.00000000000E+00  0.13865303247E+04  0.13865303247E+04  0.25500000000E-02 0.  1.
         -2   -1    0    0    0  501 -0.00000000000E+00 -0.00000000000E+00 -0.85730740523E+01  0.85730744315E+01  0.25500000000E-02 0. -1.
    5000001    1    1    2    0    0  0.14018570503E+02 -0.75709662623E+02  0.72364254572E+03  0.73178959224E+03  0.77000000000E+02 0.  0.
   -5000001    1    1    2    0    0 -0.14018570503E+02  0.75709662623E+02  0.65431470498E+03  0.66331380694E+03  0.77000000000E+02 0.  0.
<mgrwt>
<rscale>  0 0.21805346E+03</rscale>
<asrwt>0</asrwt>
<pdfrwt beam="1">  1        2 0.19807566E+00 0.21805346E+03</pdfrwt>
<pdfrwt beam="2">  1       -2 0.12247255E-02 0.21805346E+03</pdfrwt>
<totfact> 0.27912705E+04</totfact>
</mgrwt>
</event>
<event>
 4    1  0.6919593E-004  0.1695742E+03  0.7818608E-02  0.1178293E+00
          2   -1    0    0  501    0  0.00000000000E+00  0.00000000000E+00  0.10888677020E+04  0.10888677020E+04  0.25500000000E-02 0.  1.
         -2   -1    0    0    0  501 -0.00000000000E+00 -0.00000000000E+00 -0.66021392257E+01  0.66021397181E+01  0.25500000000E-02 0. -1.
    5000001    1    1    2    0    0  0.35008365997E+02  0.23268267173E+01  0.50643007874E+03  0.51345050829E+03  0.77000000000E+02 0.  0.
   -5000001    1    1    2    0    0 -0.35008365997E+02 -0.23268267173E+01  0.57583548402E+03  0.58201933342E+03  0.77000000000E+02 0.  0.
<mgrwt>
<rscale>  0 0.16957425E+03</rscale>
<asrwt>0</asrwt>
<pdfrwt beam="1">  1        2 0.15555249E+00 0.16957425E+03</pdfrwt>
<pdfrwt beam="2">  1       -2 0.94316300E-03 0.16957425E+03</pdfrwt>
<totfact> 0.57494799E+04</totfact>
</mgrwt>
</event>
<event>
 4    1  0.6919593E-004  0.2880830E+03  0.7818608E-02  0.1091354E+00
         -2   -1    0    0    0  501 -0.00000000000E+00  0.00000000000E+00  0.97777204447E+02  0.97777204481E+02  0.25500000000E-02 0. -1.
          2   -1    0    0  501    0  0.00000000000E+00 -0.00000000000E+00 -0.21219629488E+03  0.21219629489E+03  0.25500000000E-02 0.  1.
    5000001    1    1    2    0    0 -0.11135831897E+03  0.45204182347E+01 -0.45207858814E+01  0.13553799058E+03  0.77000000000E+02 0.  0.
   -5000001    1    1    2    0    0  0.11135831897E+03 -0.45204182347E+01 -0.10989830455E+03  0.17443550879E+03  0.77000000000E+02 0.  0.
<mgrwt>
<rscale>  0 0.28808305E+03</rscale>
<asrwt>0</asrwt>
<pdfrwt beam="1">  1        2 0.30313756E-01 0.28808305E+03</pdfrwt>
<pdfrwt beam="2">  1       -2 0.13968172E-01 0.28808305E+03</pdfrwt>
<totfact> 0.66431816E+03</totfact>
</mgrwt>
</event>
<event>
 4    1  0.6919593E-004  0.4415512E+03  0.7818608E-02  0.1030272E+00
         -2   -1    0    0    0  501 -0.00000000000E+00  0.00000000000E+00  0.37808822113E+02  0.37808822199E+02  0.25500000000E-02 0. -1.
          2   -1    0    0  501    0  0.00000000000E+00 -0.00000000000E+00 -0.12891666832E+04  0.12891666832E+04  0.25500000000E-02 0.  1.
    5000001    1    1    2    0    0  0.17343872943E+02  0.20559730036E+03 -0.67241180909E+03  0.70755756009E+03  0.77000000000E+02 0.  0.
   -5000001    1    1    2    0    0 -0.17343872943E+02 -0.20559730036E+03 -0.57894605195E+03  0.61941794526E+03  0.77000000000E+02 0.  0.
<mgrwt>
<rscale>  0 0.44155124E+03</rscale>
<asrwt>0</asrwt>
<pdfrwt beam="1">  1        2 0.18416664E+00 0.44155124E+03</pdfrwt>
<pdfrwt beam="2">  1       -2 0.54012611E-02 0.44155124E+03</pdfrwt>
<totfact> 0.35016742E+03</totfact>
</mgrwt>
</event>
<event>
 4    1  0.6919593E-004  0.2661239E+03  0.7818608E-02  0.1103519E+00
         -2   -1    0    0    0  501 -0.00000000000E+00  0.00000000000E+00  0.51043164545E+01  0.51043170914E+01  0.25500000000E-02 0. -1.
          2   -1    0    0  501    0  0.00000000000E+00 -0.00000000000E+00 -0.34687278316E+04  0.34687278316E+04  0.25500000000E-02 0.  1.
    5000001    1    1    2    0    0  0.83827921059E+02  0.42740751388E+02 -0.24374938840E+04  0.24405243959E+04  0.77000000000E+02 0.  0.
   -5000001    1    1    2    0    0 -0.83827921059E+02 -0.42740751388E+02 -0.10261296311E+04  0.10333077528E+04  0.77000000000E+02 0.  0.
<mgrwt>
<rscale>  0 0.26612392E+03</rscale>
<asrwt>0</asrwt>
<pdfrwt beam="1">  1        2 0.49553104E+00 0.26612392E+03</pdfrwt>
<pdfrwt beam="2">  1       -2 0.72919033E-03 0.26612392E+03</pdfrwt>
<totfact> 0.51626769E+03</totfact>
</mgrwt>
</event>
<event>
 4    1  0.6919593E-004  0.2618853E+03  0.7818608E-02  0.1106016E+00
          2   -1    0    0  501    0  0.00000000000E+00  0.00000000000E+00  0.61173683057E+03  0.61173683057E+03  0.25500000000E-02 0.  1.
         -2   -1    0    0    0  501 -0.00000000000E+00 -0.00000000000E+00 -0.28028360642E+02  0.28028360758E+02  0.25500000000E-02 0. -1.
    5000001    1    1    2    0    0 -0.21336169070E+02  0.10373850022E+03  0.29119870055E+03  0.31928449969E+03  0.77000000000E+02 0.  0.
   -5000001    1    1    2    0    0  0.21336169070E+02 -0.10373850022E+03  0.29250976938E+03  0.32048069165E+03  0.77000000000E+02 0.  0.
<mgrwt>
<rscale>  0 0.26188532E+03</rscale>
<asrwt>0</asrwt>
<pdfrwt beam="1">  1        2 0.87390969E-01 0.26188532E+03</pdfrwt>
<pdfrwt beam="2">  1       -2 0.40040519E-02 0.26188532E+03</pdfrwt>
<totfact> 0.14638591E+04</totfact>
</mgrwt>
</event>
<event>
 4    1  0.6919593E-004  0.1844361E+03  0.7818608E-02  0.1163578E+00
         -2   -1    0    0    0  501 -0.00000000000E+00  0.00000000000E+00  0.28620705242E+03  0.28620705243E+03  0.25500000000E-02 0. -1.
          2   -1    0    0  501    0  0.00000000000E+00 -0.00000000000E+00 -0.29713349286E+02  0.29713349396E+02  0.25500000000E-02 0.  1.
    5000001    1    1    2    0    0 -0.33015636287E+02 -0.38282066614E+02  0.13583429191E+03  0.16412039399E+03  0.77000000000E+02 0.  0.
   -5000001    1    1    2    0    0  0.33015636287E+02  0.38282066614E+02  0.12065941123E+03  0.15180000784E+03  0.77000000000E+02 0.  0.
<mgrwt>
<rscale>  0 0.18443612E+03</rscale>
<asrwt>0</asrwt>
<pdfrwt beam="1">  1        2 0.42447643E-02 0.18443612E+03</pdfrwt>
<pdfrwt beam="2">  1       -2 0.40886721E-01 0.18443612E+03</pdfrwt>
<totfact> 0.10756332E+04</totfact>
</mgrwt>
</event>
<event>
 4    1  0.6919593E-004  0.3732882E+03  0.7818608E-02  0.1053443E+00
         -2   -1    0    0    0  501 -0.00000000000E+00  0.00000000000E+00  0.19821100109E+03  0.19821100111E+03  0.25500000000E-02 0. -1.
          2   -1    0    0  501    0  0.00000000000E+00 -0.00000000000E+00 -0.17575218622E+03  0.17575218623E+03  0.25500000000E-02 0.  1.
    5000001    1    1    2    0    0  0.15806820200E+03 -0.13994606051E+02  0.72377565903E+02  0.19065392083E+03  0.77000000000E+02 0.  0.
   -5000001    1    1    2    0    0 -0.15806820200E+03  0.13994606051E+02 -0.49918751029E+02  0.18330926651E+03  0.77000000000E+02 0.  0.
<mgrwt>
<rscale>  0 0.37328818E+03</rscale>
<asrwt>0</asrwt>
<pdfrwt beam="1">  1        2 0.25107455E-01 0.37328818E+03</pdfrwt>
<pdfrwt beam="2">  1       -2 0.28315857E-01 0.37328818E+03</pdfrwt>
<totfact> 0.24477425E+03</totfact>
</mgrwt>
</event>
<event>
 4    1  0.6919593E-004  0.3713777E+03  0.7818608E-02  0.1054167E+00
         -2   -1    0    0    0  501 -0.00000000000E+00  0.00000000000E+00  0.56446107859E+03  0.56446107859E+03  0.25500000000E-02 0. -1.
          2   -1    0    0  501    0  0.00000000000E+00 -0.00000000000E+00 -0.61085417475E+02  0.61085417528E+02  0.25500000000E-02 0.  1.
    5000001    1    1    2    0    0 -0.59708877880E+02 -0.14872993672E+03  0.16152005751E+03  0.24021547234E+03  0.77000000000E+02 0.  0.
   -5000001    1    1    2    0    0  0.59708877880E+02  0.14872993672E+03  0.34185560360E+03  0.38533102378E+03  0.77000000000E+02 0.  0.
<mgrwt>
<rscale>  0 0.37137765E+03</rscale>
<asrwt>0</asrwt>
<pdfrwt beam="1">  1        2 0.87264885E-02 0.37137765E+03</pdfrwt>
<pdfrwt beam="2">  1       -2 0.80637294E-01 0.37137765E+03</pdfrwt>
<totfact> 0.10725725E+03</totfact>
</mgrwt>
</event>
<event>
 4    1  0.6919593E-004  0.2296498E+03  0.7818608E-02  0.1126886E+00
          2   -1    0    0  501    0  0.00000000000E+00  0.00000000000E+00  0.35250297574E+03  0.35250297575E+03  0.25500000000E-02 0.  1.
         -2   -1    0    0    0  501 -0.00000000000E+00 -0.00000000000E+00 -0.37403259577E+02  0.37403259664E+02  0.25500000000E-02 0. -1.
    5000001    1    1    2    0    0 -0.32187891670E+02 -0.10962403490E+02  0.24950293939E+02  0.87793802903E+02  0.77000000000E+02 0.  0.
   -5000001    1    1    2    0    0  0.32187891670E+02  0.10962403490E+02  0.29014942223E+03  0.30211243251E+03  0.77000000000E+02 0.  0.
<mgrwt>
<rscale>  0 0.22964982E+03</rscale>
<asrwt>0</asrwt>
<pdfrwt beam="1">  1        2 0.50357569E-01 0.22964982E+03</pdfrwt>
<pdfrwt beam="2">  1       -2 0.53433227E-02 0.22964982E+03</pdfrwt>
<totfact> 0.17215129E+04</totfact>
</mgrwt>
</event>
<event>
 4    1  0.6919593E-004  0.2035215E+03  0.7818608E-02  0.1146802E+00
         -2   -1    0    0    0  501 -0.00000000000E+00  0.00000000000E+00  0.40834018271E+03  0.40834018272E+03  0.25500000000E-02 0. -1.
          2   -1    0    0  501    0  0.00000000000E+00 -0.00000000000E+00 -0.25359359808E+02  0.25359359936E+02  0.25500000000E-02 0.  1.
    5000001    1    1    2    0    0  0.20103474023E+02 -0.55135759723E+02  0.25827347613E+03  0.27582293258E+03  0.77000000000E+02 0.  0.
   -5000001    1    1    2    0    0 -0.20103474023E+02  0.55135759723E+02  0.12470734678E+03  0.15787661008E+03  0.77000000000E+02 0.  0.
<mgrwt>
<rscale>  0 0.20352145E+03</rscale>
<asrwt>0</asrwt>
<pdfrwt beam="1">  1        2 0.36227659E-02 0.20352145E+03</pdfrwt>
<pdfrwt beam="2">  1       -2 0.58334308E-01 0.20352145E+03</pdfrwt>
<totfact> 0.66270407E+03</totfact>
</mgrwt>
</event>
<event>
 4    1  0.6919593E-004  0.2181407E+03  0.7818608E-02  0.1135277E+00
          2   -1    0    0  501    0  0.00000000000E+00  0.00000000000E+00  0.39904753645E+02  0.39904753727E+02  0.25500000000E-02 0.  1.
         -2   -1    0    0    0  501 -0.00000000000E+00 -0.00000000000E+00 -0.29811839472E+03  0.29811839473E+03  0.25500000000E-02 0. -1.
    5000001    1    1    2    0    0 -0.13657694502E+02  0.65176672342E+02 -0.18977401167E+03  0.21535483915E+03  0.77000000000E+02 0.  0.
   -5000001    1    1    2    0    0  0.13657694502E+02 -0.65176672342E+02 -0.68439629398E+02  0.12266830931E+03  0.77000000000E+02 0.  0.
<mgrwt>
<rscale>  0 0.21814070E+03</rscale>
<asrwt>0</asrwt>
<pdfrwt beam="1">  1        2 0.57006792E-02 0.21814070E+03</pdfrwt>
<pdfrwt beam="2">  1       -2 0.42588341E-01 0.21814070E+03</pdfrwt>
<totfact> 0.68254006E+03</totfact>
</mgrwt>
</event>
<event>
 4    1  0.6919593E-004  0.3164225E+03  0.7818608E-02  0.1077308E+00
         -2   -1    0    0    0  501 -0.00000000000E+00  0.00000000000E+00  0.51406308052E+02  0.51406308115E+02  0.25500000000E-02 0.  1.
          2   -1    0    0  501    0  0.00000000000E+00 -0.00000000000E+00 -0.48692068272E+03  0.48692068272E+03  0.25500000000E-02 0. -1.
    5000001    1    1    2    0    0  0.67510118364E+02  0.11438456532E+03 -0.15274312792E+03  0.21656617462E+03  0.77000000000E+02 0.  0.
   -5000001    1    1    2    0    0 -0.67510118364E+02 -0.11438456532E+03 -0.28277124675E+03  0.32176081622E+03  0.77000000000E+02 0.  0.
<mgrwt>
<rscale>  0 0.31642247E+03</rscale>
<asrwt>0</asrwt>
<pdfrwt beam="1">  1        2 0.69560095E-01 0.31642247E+03</pdfrwt>
<pdfrwt beam="2">  1       -2 0.73437586E-02 0.31642247E+03</pdfrwt>
<totfact> 0.75415637E+03</totfact>
</mgrwt>
</event>
<event>
 4    1  0.6919593E-004  0.2402677E+03  0.7818608E-02  0.1119615E+00
         -2   -1    0    0    0  501 -0.00000000000E+00  0.00000000000E+00  0.43223012691E+01  0.43223020213E+01  0.25500000000E-02 0. -1.
          2   -1    0    0  501    0  0.00000000000E+00 -0.00000000000E+00 -0.33389955549E+04  0.33389955549E+04  0.25500000000E-02 0.  1.
    5000001    1    1    2    0    0  0.77183936335E+02  0.24066993147E+02 -0.22844095019E+04  0.22871362776E+04  0.77000000000E+02 0.  0.
   -5000001    1    1    2    0    0 -0.77183936335E+02 -0.24066993147E+02 -0.10502637518E+04  0.10561815793E+04  0.77000000000E+02 0.  0.
<mgrwt>
<rscale>  0 0.24026773E+03</rscale>
<asrwt>0</asrwt>
<pdfrwt beam="1">  1        2 0.47699771E+00 0.24026773E+03</pdfrwt>
<pdfrwt beam="2">  1       -2 0.61747380E-03 0.24026773E+03</pdfrwt>
<totfact> 0.77823475E+03</totfact>
</mgrwt>
</event>
<event>
 4    1  0.6919593E-004  0.1807139E+03  0.7818608E-02  0.1167114E+00
         -2   -1    0    0    0  501 -0.00000000000E+00  0.00000000000E+00  0.24295970291E+02  0.24295970425E+02  0.25500000000E-02 0. -1.
          2   -1    0    0  501    0  0.00000000000E+00 -0.00000000000E+00 -0.33603830692E+03  0.33603830693E+03  0.25500000000E-02 0.  1.
    5000001    1    1    2    0    0  0.31233730160E+02 -0.31525655316E+02 -0.18838928707E+03  0.20830011120E+03  0.77000000000E+02 0.  0.
   -5000001    1    1    2    0    0 -0.31233730160E+02  0.31525655316E+02 -0.12335304955E+03  0.15203416615E+03  0.77000000000E+02 0.  0.
<mgrwt>
<rscale>  0 0.18071388E+03</rscale>
<asrwt>0</asrwt>
<pdfrwt beam="1">  1        2 0.48005469E-01 0.18071388E+03</pdfrwt>
<pdfrwt beam="2">  1       -2 0.34708531E-02 0.18071388E+03</pdfrwt>
<totfact> 0.34007961E+04</totfact>
</mgrwt>
</event>
<event>
 4    1  0.6919593E-004  0.2198561E+03  0.7818608E-02  0.1133990E+00
         -2   -1    0    0    0  501 -0.00000000000E+00  0.00000000000E+00  0.35330672179E+02  0.35330672271E+02  0.25500000000E-02 0. -1.
          2   -1    0    0  501    0  0.00000000000E+00 -0.00000000000E+00 -0.34203060303E+03  0.34203060304E+03  0.25500000000E-02 0.  1.
    5000001    1    1    2    0    0 -0.36828402889E+01  0.78082854424E+02 -0.16482236864E+03  0.19800481982E+03  0.77000000000E+02 0.  0.
   -5000001    1    1    2    0    0  0.36828402889E+01 -0.78082854424E+02 -0.14187756222E+03  0.17935645550E+03  0.77000000000E+02 0.  0.
<mgrwt>
<rscale>  0 0.21985605E+03</rscale>
<asrwt>0</asrwt>
<pdfrwt beam="1">  1        2 0.48861513E-01 0.21985605E+03</pdfrwt>
<pdfrwt beam="2">  1       -2 0.50472391E-02 0.21985605E+03</pdfrwt>
<totfact> 0.19331745E+04</totfact>
</mgrwt>
</event>
<event>
 4    1  0.6919593E-004  0.2593223E+03  0.7818608E-02  0.1107551E+00
          2   -1    0    0  501    0  0.00000000000E+00  0.00000000000E+00  0.89691544628E+02  0.89691544664E+02  0.25500000000E-02 0.  1.
         -2   -1    0    0    0  501 -0.00000000000E+00 -0.00000000000E+00 -0.18744254184E+03  0.18744254185E+03  0.25500000000E-02 0. -1.
    5000001    1    1    2    0    0  0.50063345080E+02  0.80008761020E+02 -0.13787990376E+01  0.12181396245E+03  0.77000000000E+02 0.  0.
   -5000001    1    1    2    0    0 -0.50063345080E+02 -0.80008761020E+02 -0.96372198169E+02  0.15532012407E+03  0.77000000000E+02 0.  0.
<mgrwt>
<rscale>  0 0.25932228E+03</rscale>
<asrwt>0</asrwt>
<pdfrwt beam="1">  1        2 0.12813078E-01 0.25932228E+03</pdfrwt>
<pdfrwt beam="2">  1       -2 0.26777506E-01 0.25932228E+03</pdfrwt>
<totfact> 0.58645372E+03</totfact>
</mgrwt>
</event>
<event>
 4    1  0.6919593E-004  0.1745340E+03  0.7818608E-02  0.1173200E+00
         -2   -1    0    0    0  501 -0.00000000000E+00  0.00000000000E+00  0.72411946040E+01  0.72411950530E+01  0.25500000000E-02 0. -1.
          2   -1    0    0  501    0  0.00000000000E+00 -0.00000000000E+00 -0.10516951330E+04  0.10516951330E+04  0.25500000000E-02 0.  1.
    5000001    1    1    2    0    0  0.12495584829E+02  0.36592183261E+02 -0.60616578992E+03  0.61225900760E+03  0.77000000000E+02 0.  0.
   -5000001    1    1    2    0    0 -0.12495584829E+02 -0.36592183261E+02 -0.43828814844E+03  0.44667732042E+03  0.77000000000E+02 0.  0.
<mgrwt>
<rscale>  0 0.17453400E+03</rscale>
<asrwt>0</asrwt>
<pdfrwt beam="1">  1        2 0.15024206E+00 0.17453400E+03</pdfrwt>
<pdfrwt beam="2">  1       -2 0.10344571E-02 0.17453400E+03</pdfrwt>
<totfact> 0.52958710E+04</totfact>
</mgrwt>
</event>
<event>
 4    1  0.6919593E-004  0.2797769E+03  0.7818608E-02  0.1095811E+00
          2   -1    0    0  501    0  0.00000000000E+00  0.00000000000E+00  0.11050313275E+04  0.11050313275E+04  0.25500000000E-02 0.  1.
         -2   -1    0    0    0  501 -0.00000000000E+00 -0.00000000000E+00 -0.17708803909E+02  0.17708804092E+02  0.25500000000E-02 0. -1.
    5000001    1    1    2    0    0 -0.20231635651E+02  0.10388969332E+03  0.74178219442E+03  0.75324113763E+03  0.77000000000E+02 0.  0.
   -5000001    1    1    2    0    0  0.20231635651E+02 -0.10388969332E+03  0.34554032918E+03  0.36949899398E+03  0.77000000000E+02 0.  0.
<mgrwt>
<rscale>  0 0.27977693E+03</rscale>
<asrwt>0</asrwt>
<pdfrwt beam="1">  1        2 0.15786160E+00 0.27977693E+03</pdfrwt>
<pdfrwt beam="2">  1       -2 0.25298294E-02 0.27977693E+03</pdfrwt>
<totfact> 0.13796987E+04</totfact>
</mgrwt>
</event>
<event>
 4    1  0.6919593E-004  0.2312863E+03  0.7818608E-02  0.1125738E+00
         -2   -1    0    0    0  501 -0.00000000000E+00  0.00000000000E+00  0.59172334734E+02  0.59172334789E+02  0.25500000000E-02 0. -1.
          2   -1    0    0  501    0  0.00000000000E+00 -0.00000000000E+00 -0.22600658067E+03  0.22600658068E+03  0.25500000000E-02 0.  1.
    5000001    1    1    2    0    0  0.46290874095E+02 -0.65770644519E+02 -0.44902214689E+02  0.12005761779E+03  0.77000000000E+02 0.  0.
   -5000001    1    1    2    0    0 -0.46290874095E+02  0.65770644519E+02 -0.12193203125E+03  0.16512129768E+03  0.77000000000E+02 0.  0.
<mgrwt>
<rscale>  0 0.23128629E+03</rscale>
<asrwt>0</asrwt>
<pdfrwt beam="1">  1        2 0.32286654E-01 0.23128629E+03</pdfrwt>
<pdfrwt beam="2">  1       -2 0.84531908E-02 0.23128629E+03</pdfrwt>
<totfact> 0.13707372E+04</totfact>
</mgrwt>
</event>
<event>
 4    1  0.6919593E-004  0.4450354E+03  0.7818608E-02  0.1029213E+00
          2   -1    0    0  501    0  0.00000000000E+00  0.00000000000E+00  0.12948346285E+04  0.12948346285E+04  0.25500000000E-02 0.  1.
         -2   -1    0    0    0  501 -0.00000000000E+00 -0.00000000000E+00 -0.38239735963E+02  0.38239736048E+02  0.25500000000E-02 0. -1.
    5000001    1    1    2    0    0 -0.12063049928E+02  0.19434558918E+03  0.40275479240E+03  0.45393407893E+03  0.77000000000E+02 0.  0.
   -5000001    1    1    2    0    0  0.12063049928E+02 -0.19434558918E+03  0.85384010013E+03  0.87914028561E+03  0.77000000000E+02 0.  0.
<mgrwt>
<rscale>  0 0.44503543E+03</rscale>
<asrwt>0</asrwt>
<pdfrwt beam="1">  1        2 0.18497642E+00 0.44503543E+03</pdfrwt>
<pdfrwt beam="2">  1       -2 0.54628182E-02 0.44503543E+03</pdfrwt>
<totfact> 0.34167780E+03</totfact>
</mgrwt>
</event>
<event>
 4    1  0.6919593E-004  0.4576309E+03  0.7818608E-02  0.1025471E+00
          2   -1    0    0  501    0  0.00000000000E+00  0.00000000000E+00  0.28831557767E+03  0.28831557768E+03  0.25500000000E-02 0.  1.
         -2   -1    0    0    0  501 -0.00000000000E+00 -0.00000000000E+00 -0.18159444402E+03  0.18159444403E+03  0.25500000000E-02 0. -1.
    5000001    1    1    2    0    0  0.47746747986E+02  0.14221787618E+03 -0.10545628620E+03  0.19888615977E+03  0.77000000000E+02 0.  0.
   -5000001    1    1    2    0    0 -0.47746747986E+02 -0.14221787618E+03  0.21217741985E+03  0.27102386195E+03  0.77000000000E+02 0.  0.
<mgrwt>
<rscale>  0 0.45763089E+03</rscale>
<asrwt>0</asrwt>
<pdfrwt beam="1">  1        2 0.41187939E-01 0.45763089E+03</pdfrwt>
<pdfrwt beam="2">  1       -2 0.25942064E-01 0.45763089E+03</pdfrwt>
<totfact> 0.16605659E+03</totfact>
</mgrwt>
</event>
<event>
 4    1  0.6919593E-004  0.3366047E+03  0.7818608E-02  0.1068251E+00
         -2   -1    0    0    0  501 -0.00000000000E+00  0.00000000000E+00  0.79673290775E+02  0.79673290815E+02  0.25500000000E-02 0. -1.
          2   -1    0    0  501    0  0.00000000000E+00 -0.00000000000E+00 -0.35552288938E+03  0.35552288938E+03  0.25500000000E-02 0.  1.
    5000001    1    1    2    0    0  0.84493261946E+02  0.11442726302E+03 -0.19806853599E+03  0.25572026667E+03  0.77000000000E+02 0.  0.
   -5000001    1    1    2    0    0 -0.84493261946E+02 -0.11442726302E+03 -0.77781062608E+02  0.17947591353E+03  0.77000000000E+02 0.  0.
<mgrwt>
<rscale>  0 0.33660469E+03</rscale>
<asrwt>0</asrwt>
<pdfrwt beam="1">  1        2 0.50788983E-01 0.33660469E+03</pdfrwt>
<pdfrwt beam="2">  1       -2 0.11381899E-01 0.33660469E+03</pdfrwt>
<totfact> 0.53193420E+03</totfact>
</mgrwt>
</event>
<event>
 4    1  0.6919593E-004  0.2301505E+03  0.7818608E-02  0.1126534E+00
          2   -1    0    0  501    0  0.00000000000E+00  0.00000000000E+00  0.10674040926E+04  0.10674040926E+04  0.25500000000E-02 0.  1.
         -2   -1    0    0    0  501 -0.00000000000E+00 -0.00000000000E+00 -0.12406092447E+02  0.12406092709E+02  0.25500000000E-02 0. -1.
    5000001    1    1    2    0    0 -0.16486105780E+02  0.78410342722E+02  0.38726801450E+03  0.40289637449E+03  0.77000000000E+02 0.  0.
   -5000001    1    1    2    0    0  0.16486105780E+02 -0.78410342722E+02  0.66772998565E+03  0.67691381081E+03  0.77000000000E+02 0.  0.
<mgrwt>
<rscale>  0 0.23015051E+03</rscale>
<asrwt>0</asrwt>
<pdfrwt beam="1">  1        2 0.15248626E+00 0.23015051E+03</pdfrwt>
<pdfrwt beam="2">  1       -2 0.17722994E-02 0.23015051E+03</pdfrwt>
<totfact> 0.24243346E+04</totfact>
</mgrwt>
</event>
<event>
 4    1  0.6919593E-004  0.4452925E+03  0.7818608E-02  0.1029135E+00
          2   -1    0    0  501    0  0.00000000000E+00  0.00000000000E+00  0.39285410085E+03  0.39285410085E+03  0.25500000000E-02 0.  1.
         -2   -1    0    0    0  501 -0.00000000000E+00 -0.00000000000E+00 -0.12618262450E+03  0.12618262453E+03  0.25500000000E-02 0. -1.
    5000001    1    1    2    0    0  0.14919739320E+03 -0.14471844670E+03  0.15775990858E+03  0.27206705002E+03  0.77000000000E+02 0.  0.
   -5000001    1    1    2    0    0 -0.14919739320E+03  0.14471844670E+03  0.10891156777E+03  0.24696967536E+03  0.77000000000E+02 0.  0.
<mgrwt>
<rscale>  0 0.44529254E+03</rscale>
<asrwt>0</asrwt>
<pdfrwt beam="1">  1        2 0.56122014E-01 0.44529254E+03</pdfrwt>
<pdfrwt beam="2">  1       -2 0.18026089E-01 0.44529254E+03</pdfrwt>
<totfact> 0.22362518E+03</totfact>
</mgrwt>
</event>
<event>
 4    1  0.6919593E-004  0.3142421E+03  0.7818608E-02  0.1078330E+00
         -2   -1    0    0    0  501 -0.00000000000E+00  0.00000000000E+00  0.56653447390E+02  0.56653447448E+02  0.25500000000E-02 0. -1.
          2   -1    0    0  501    0  0.00000000000E+00 -0.00000000000E+00 -0.43575507582E+03  0.43575507583E+03  0.25500000000E-02 0.  1.
    5000001    1    1    2    0    0  0.95900164009E+02 -0.55775965384E+02 -0.63702128603E+02  0.14931430260E+03  0.77000000000E+02 0.  0.
   -5000001    1    1    2    0    0 -0.95900164009E+02  0.55775965384E+02 -0.31539949983E+03  0.34309422068E+03  0.77000000000E+02 0.  0.
<mgrwt>
<rscale>  0 0.31424212E+03</rscale>
<asrwt>0</asrwt>
<pdfrwt beam="1">  1        2 0.62250723E-01 0.31424212E+03</pdfrwt>
<pdfrwt beam="2">  1       -2 0.80933499E-02 0.31424212E+03</pdfrwt>
<totfact> 0.73180694E+03</totfact>
</mgrwt>
</event>
<event>
 4    1  0.6919593E-004  0.2198352E+03  0.7818608E-02  0.1134006E+00
         -2   -1    0    0    0  501 -0.00000000000E+00  0.00000000000E+00  0.11122262164E+02  0.11122262456E+02  0.25500000000E-02 0. -1.
          2   -1    0    0  501    0  0.00000000000E+00 -0.00000000000E+00 -0.10862784037E+04  0.10862784037E+04  0.25500000000E-02 0.  1.
    5000001    1    1    2    0    0  0.47330595584E+02 -0.53577549343E+02 -0.69872792798E+03  0.70658365139E+03  0.77000000000E+02 0.  0.
   -5000001    1    1    2    0    0 -0.47330595584E+02  0.53577549343E+02 -0.37642821353E+03  0.39081701474E+03  0.77000000000E+02 0.  0.
<mgrwt>
<rscale>  0 0.21983515E+03</rscale>
<asrwt>0</asrwt>
<pdfrwt beam="1">  1        2 0.15518256E+00 0.21983515E+03</pdfrwt>
<pdfrwt beam="2">  1       -2 0.15888953E-02 0.21983515E+03</pdfrwt>
<totfact> 0.27668992E+04</totfact>
</mgrwt>
</event>
<event>
 4    1  0.6919593E-004  0.2683858E+03  0.7818608E-02  0.1102207E+00
         -2   -1    0    0    0  501 -0.00000000000E+00  0.00000000000E+00  0.17018256175E+02  0.17018256366E+02  0.25500000000E-02 0. -1.
          2   -1    0    0  501    0  0.00000000000E+00 -0.00000000000E+00 -0.10581420394E+04  0.10581420394E+04  0.25500000000E-02 0.  1.
    5000001    1    1    2    0    0  0.16619553484E+02  0.10402260470E+03 -0.39503702510E+03  0.41602904111E+03  0.77000000000E+02 0.  0.
   -5000001    1    1    2    0    0 -0.16619553484E+02 -0.10402260470E+03 -0.64608675814E+03  0.65913125467E+03  0.77000000000E+02 0.  0.
<mgrwt>
<rscale>  0 0.26838579E+03</rscale>
<asrwt>0</asrwt>
<pdfrwt beam="1">  1        2 0.15116311E+00 0.26838579E+03</pdfrwt>
<pdfrwt beam="2">  1       -2 0.24311801E-02 0.26838579E+03</pdfrwt>
<totfact> 0.15534157E+04</totfact>
</mgrwt>
</event>
<event>
 4    1  0.6919593E-004  0.3642122E+03  0.7818608E-02  0.1056928E+00
          2   -1    0    0  501    0  0.00000000000E+00  0.00000000000E+00  0.82147456586E+03  0.82147456587E+03  0.25500000000E-02 0.  1.
         -2   -1    0    0    0  501 -0.00000000000E+00 -0.00000000000E+00 -0.40369647210E+02  0.40369647290E+02  0.25500000000E-02 0. -1.
    5000001    1    1    2    0    0 -0.13089009378E+03 -0.95144039600E+02  0.46719482847E+03  0.50038446486E+03  0.77000000000E+02 0.  0.
   -5000001    1    1    2    0    0  0.13089009378E+03  0.95144039600E+02  0.31391009019E+03  0.36145974830E+03  0.77000000000E+02 0.  0.
<mgrwt>
<rscale>  0 0.36421224E+03</rscale>
<asrwt>0</asrwt>
<pdfrwt beam="1">  1        2 0.11735350E+00 0.36421224E+03</pdfrwt>
<pdfrwt beam="2">  1       -2 0.57670928E-02 0.36421224E+03</pdfrwt>
<totfact> 0.59642273E+03</totfact>
</mgrwt>
</event>
<event>
 4    1  0.6919593E-004  0.1843978E+03  0.7818608E-02  0.1163613E+00
          2   -1    0    0  501    0  0.00000000000E+00  0.00000000000E+00  0.31851017019E+03  0.31851017020E+03  0.25500000000E-02 0.  1.
         -2   -1    0    0    0  501 -0.00000000000E+00 -0.00000000000E+00 -0.26688737561E+02  0.26688737682E+02  0.25500000000E-02 0. -1.
    5000001    1    1    2    0    0  0.52155532439E+01 -0.28773310504E+02  0.68350445255E+02  0.10703218562E+03  0.77000000000E+02 0.  0.
   -5000001    1    1    2    0    0 -0.52155532439E+01  0.28773310504E+02  0.22347098737E+03  0.23816672226E+03  0.77000000000E+02 0.  0.
<mgrwt>
<rscale>  0 0.18439777E+03</rscale>
<asrwt>0</asrwt>
<pdfrwt beam="1">  1        2 0.45501450E-01 0.18439777E+03</pdfrwt>
<pdfrwt beam="2">  1       -2 0.38126770E-02 0.18439777E+03</pdfrwt>
<totfact> 0.31367291E+04</totfact>
</mgrwt>
</event>
<event>
 4    1  0.6919593E-004  0.2320052E+03  0.7818608E-02  0.1125236E+00
          2   -1    0    0  501    0  0.00000000000E+00  0.00000000000E+00  0.15235342281E+04  0.15235342281E+04  0.25500000000E-02 0.  1.
         -2   -1    0    0    0  501 -0.00000000000E+00 -0.00000000000E+00 -0.88324944954E+01  0.88324948635E+01  0.25500000000E-02 0. -1.
    5000001    1    1    2    0    0  0.70802290781E+02 -0.48870166597E+02  0.68310825629E+03  0.69279661328E+03  0.77000000000E+02 0.  0.
   -5000001    1    1    2    0    0 -0.70802290781E+02  0.48870166597E+02  0.83159347736E+03  0.83957010973E+03  0.77000000000E+02 0.  0.
<mgrwt>
<rscale>  0 0.23200524E+03</rscale>
<asrwt>0</asrwt>
<pdfrwt beam="1">  1        2 0.21764796E+00 0.23200524E+03</pdfrwt>
<pdfrwt beam="2">  1       -2 0.12617837E-02 0.23200524E+03</pdfrwt>
<totfact> 0.22863173E+04</totfact>
</mgrwt>
</event>
<event>
 4    1  0.6919593E-004  0.2343076E+03  0.7818608E-02  0.1123644E+00
         -2   -1    0    0    0  501 -0.00000000000E+00  0.00000000000E+00  0.16029033512E+02  0.16029033715E+02  0.25500000000E-02 0. -1.
          2   -1    0    0  501    0  0.00000000000E+00 -0.00000000000E+00 -0.85625981795E+03  0.85625981795E+03  0.25500000000E-02 0.  1.
    5000001    1    1    2    0    0 -0.61133209670E+02  0.28253778769E+02 -0.63269133622E+03  0.64090785006E+03  0.77000000000E+02 0.  0.
   -5000001    1    1    2    0    0  0.61133209670E+02 -0.28253778769E+02 -0.20753944821E+03  0.23138100161E+03  0.77000000000E+02 0.  0.
<mgrwt>
<rscale>  0 0.23430764E+03</rscale>
<asrwt>0</asrwt>
<pdfrwt beam="1">  1        2 0.12232280E+00 0.23430764E+03</pdfrwt>
<pdfrwt beam="2">  1       -2 0.22898625E-02 0.23430764E+03</pdfrwt>
<totfact> 0.22322356E+04</totfact>
</mgrwt>
</event>
<event>
 4    1  0.6919593E-004  0.2192787E+03  0.7818608E-02  0.1134422E+00
          2   -1    0    0  501    0  0.00000000000E+00  0.00000000000E+00  0.94760843339E+03  0.94760843339E+03  0.25500000000E-02 0.  1.
         -2   -1    0    0    0  501 -0.00000000000E+00 -0.00000000000E+00 -0.12685398679E+02  0.12685398936E+02  0.25500000000E-02 0. -1.
    5000001    1    1    2    0    0 -0.64736153401E+02 -0.36485431308E+02  0.36292162575E+03  0.37836895048E+03  0.77000000000E+02 0.  0.
   -5000001    1    1    2    0    0  0.64736153401E+02  0.36485431308E+02  0.57200140896E+03  0.58192488184E+03  0.77000000000E+02 0.  0.
<mgrwt>
<rscale>  0 0.21927873E+03</rscale>
<asrwt>0</asrwt>
<pdfrwt beam="1">  1        2 0.13537264E+00 0.21927873E+03</pdfrwt>
<pdfrwt beam="2">  1       -2 0.18121997E-02 0.21927873E+03</pdfrwt>
<totfact> 0.27493504E+04</totfact>
</mgrwt>
</event>
<event>
 4    1  0.6919593E-004  0.4503420E+03  0.7818608E-02  0.1027620E+00
          2   -1    0    0  501    0  0.00000000000E+00  0.00000000000E+00  0.64345779209E+03  0.64345779209E+03  0.25500000000E-02 0.  1.
         -2   -1    0    0    0  501 -0.00000000000E+00 -0.00000000000E+00 -0.78796124304E+02  0.78796124345E+02  0.25500000000E-02 0. -1.
    5000001    1    1    2    0    0  0.19621323410E+03 -0.70469017092E+02  0.34032207662E+03  0.40646479730E+03  0.77000000000E+02 0.  0.
   -5000001    1    1    2    0    0 -0.19621323410E+03  0.70469017092E+02  0.22433959116E+03  0.31578911914E+03  0.77000000000E+02 0.  0.
<mgrwt>
<rscale>  0 0.45034200E+03</rscale>
<asrwt>0</asrwt>
<pdfrwt beam="1">  1        2 0.91922539E-01 0.45034200E+03</pdfrwt>
<pdfrwt beam="2">  1       -2 0.11256590E-01 0.45034200E+03</pdfrwt>
<totfact> 0.28006606E+03</totfact>
</mgrwt>
</event>
<event>
 4    1  0.6919593E-004  0.2161857E+03  0.7818608E-02  0.1136759E+00
         -2   -1    0    0    0  501 -0.00000000000E+00  0.00000000000E+00  0.18765313594E+02  0.18765313767E+02  0.25500000000E-02 0. -1.
          2   -1    0    0  501    0  0.00000000000E+00 -0.00000000000E+00 -0.62264169720E+03  0.62264169720E+03  0.25500000000E-02 0.  1.
    5000001    1    1    2    0    0  0.37666490675E+02  0.21059233800E+02 -0.48705180028E+03  0.49498556747E+03  0.77000000000E+02 0.  0.
   -5000001    1    1    2    0    0 -0.37666490675E+02 -0.21059233800E+02 -0.11682458333E+03  0.14642144350E+03  0.77000000000E+02 0.  0.
<mgrwt>
<rscale>  0 0.21618572E+03</rscale>
<asrwt>0</asrwt>
<pdfrwt beam="1">  1        2 0.88948801E-01 0.21618572E+03</pdfrwt>
<pdfrwt beam="2">  1       -2 0.26807595E-02 0.21618572E+03</pdfrwt>
<totfact> 0.25784282E+04</totfact>
</mgrwt>
</event>
<event>
 4    1  0.6919593E-004  0.2548578E+03  0.7818608E-02  0.1110273E+00
         -2   -1    0    0    0  501 -0.00000000000E+00  0.00000000000E+00  0.29397524407E+03  0.29397524408E+03  0.25500000000E-02 0. -1.
          2   -1    0    0  501    0  0.00000000000E+00 -0.00000000000E+00 -0.55236387473E+02  0.55236387532E+02  0.25500000000E-02 0.  1.
    5000001    1    1    2    0    0 -0.85913401946E+01  0.10114946868E+03  0.12214538979E+03  0.17650360446E+03  0.77000000000E+02 0.  0.
   -5000001    1    1    2    0    0  0.85913401946E+01 -0.10114946868E+03  0.11659346680E+03  0.17270802715E+03  0.77000000000E+02 0.  0.
<mgrwt>
<rscale>  0 0.25485785E+03</rscale>
<asrwt>0</asrwt>
<pdfrwt beam="1">  1        2 0.78909123E-02 0.25485785E+03</pdfrwt>
<pdfrwt beam="2">  1       -2 0.41996464E-01 0.25485785E+03</pdfrwt>
<totfact> 0.46484268E+03</totfact>
</mgrwt>
</event>
<event>
 4    1  0.6919593E-004  0.2412048E+03  0.7818608E-02  0.1118993E+00
          2   -1    0    0  501    0  0.00000000000E+00  0.00000000000E+00  0.12237322964E+04  0.12237322964E+04  0.25500000000E-02 0.  1.
         -2   -1    0    0    0  501 -0.00000000000E+00 -0.00000000000E+00 -0.11885720146E+02  0.11885720420E+02  0.25500000000E-02 0. -1.
    5000001    1    1    2    0    0  0.42477255075E+02  0.59179792040E+02  0.90061725865E+03  0.90683350818E+03  0.77000000000E+02 0.  0.
   -5000001    1    1    2    0    0 -0.42477255075E+02 -0.59179792040E+02  0.31122931757E+03  0.32878450861E+03  0.77000000000E+02 0.  0.
<mgrwt>
<rscale>  0 0.24120481E+03</rscale>
<asrwt>0</asrwt>
<pdfrwt beam="1">  1        2 0.17481883E+00 0.24120481E+03</pdfrwt>
<pdfrwt beam="2">  1       -2 0.16979608E-02 0.24120481E+03</pdfrwt>
<totfact> 0.21218429E+04</totfact>
</mgrwt>
</event>
<event>
 4    1  0.6919593E-004  0.2573690E+03  0.7818608E-02  0.1108734E+00
          2   -1    0    0  501    0  0.00000000000E+00  0.00000000000E+00  0.75982207241E+03  0.75982207242E+03  0.25500000000E-02 0.  1.
         -2   -1    0    0    0  501 -0.00000000000E+00 -0.00000000000E+00 -0.21794189370E+02  0.21794189519E+02  0.25500000000E-02 0. -1.
    5000001    1    1    2    0    0  0.69051222891E+02 -0.76196508143E+02  0.34614047308E+03  0.36921024680E+03  0.77000000000E+02 0.  0.
   -5000001    1    1    2    0    0 -0.69051222891E+02  0.76196508143E+02  0.39188740997E+03  0.41240601514E+03  0.77000000000E+02 0.  0.
<mgrwt>
<rscale>  0 0.25736904E+03</rscale>
<asrwt>0</asrwt>
<pdfrwt beam="1">  1        2 0.10854602E+00 0.25736904E+03</pdfrwt>
<pdfrwt beam="2">  1       -2 0.31134555E-02 0.25736904E+03</pdfrwt>
<totfact> 0.16507250E+04</totfact>
</mgrwt>
</event>
<event>
 4    1  0.6919593E-004  0.5163929E+03  0.7818608E-02  0.1009587E+00
         -2   -1    0    0    0  501 -0.00000000000E+00  0.00000000000E+00  0.14548483434E+03  0.14548483436E+03  0.25500000000E-02 0. -1.
          2   -1    0    0  501    0  0.00000000000E+00 -0.00000000000E+00 -0.45822926031E+03  0.45822926032E+03  0.25500000000E-02 0.  1.
    5000001    1    1    2    0    0 -0.20728678956E+03  0.10565423929E+03 -0.25139176768E+03  0.35108040712E+03  0.77000000000E+02 0.  0.
   -5000001    1    1    2    0    0  0.20728678956E+03 -0.10565423929E+03 -0.61352658297E+02  0.25263368756E+03  0.77000000000E+02 0.  0.
<mgrwt>
<rscale>  0 0.51639290E+03</rscale>
<asrwt>0</asrwt>
<pdfrwt beam="1">  1        2 0.65461322E-01 0.51639290E+03</pdfrwt>
<pdfrwt beam="2">  1       -2 0.20783548E-01 0.51639290E+03</pdfrwt>
<totfact> 0.14761246E+03</totfact>
</mgrwt>
</event>
<event>
 4    1  0.6919593E-004  0.2122364E+03  0.7818608E-02  0.1139807E+00
         -2   -1    0    0    0  501 -0.00000000000E+00  0.00000000000E+00  0.25400653805E+02  0.25400653933E+02  0.25500000000E-02 0. -1.
          2   -1    0    0  501    0  0.00000000000E+00 -0.00000000000E+00 -0.44333789322E+03  0.44333789323E+03  0.25500000000E-02 0.  1.
    5000001    1    1    2    0    0 -0.66045462465E+02  0.27659121931E+02 -0.24059376036E+03  0.26256692035E+03  0.77000000000E+02 0.  0.
   -5000001    1    1    2    0    0  0.66045462465E+02 -0.27659121931E+02 -0.17734347906E+03  0.20617162681E+03  0.77000000000E+02 0.  0.
<mgrwt>
<rscale>  0 0.21223640E+03</rscale>
<asrwt>0</asrwt>
<pdfrwt beam="1">  1        2 0.63333980E-01 0.21223640E+03</pdfrwt>
<pdfrwt beam="2">  1       -2 0.36286651E-02 0.21223640E+03</pdfrwt>
<totfact> 0.23952137E+04</totfact>
</mgrwt>
</event>
<event>
 4    1  0.6919593E-004  0.3071986E+03  0.7818608E-02  0.1081696E+00
         -2   -1    0    0    0  501 -0.00000000000E+00  0.00000000000E+00  0.24359070543E+02  0.24359070676E+02  0.25500000000E-02 0. -1.
          2   -1    0    0  501    0  0.00000000000E+00 -0.00000000000E+00 -0.96854050702E+03  0.96854050702E+03  0.25500000000E-02 0.  1.
    5000001    1    1    2    0    0 -0.94747291971E+02  0.86831550203E+02 -0.36262860168E+03  0.39235859899E+03  0.77000000000E+02 0.  0.
   -5000001    1    1    2    0    0  0.94747291971E+02 -0.86831550203E+02 -0.58155283479E+03  0.60054097870E+03  0.77000000000E+02 0.  0.
<mgrwt>
<rscale>  0 0.30719861E+03</rscale>
<asrwt>0</asrwt>
<pdfrwt beam="1">  1        2 0.13836290E+00 0.30719861E+03</pdfrwt>
<pdfrwt beam="2">  1       -2 0.34798679E-02 0.30719861E+03</pdfrwt>
<totfact> 0.10329417E+04</totfact>
</mgrwt>
</event>
<event>
 4    1  0.6919593E-004  0.1871859E+03  0.7818608E-02  0.1161024E+00
         -2   -1    0    0    0  501 -0.00000000000E+00  0.00000000000E+00  0.13929153742E+02  0.13929153976E+02  0.25500000000E-02 0. -1.
          2   -1    0    0  501    0  0.00000000000E+00 -0.00000000000E+00 -0.62887092643E+03  0.62887092644E+03  0.25500000000E-02 0.  1.
    5000001    1    1    2    0    0 -0.16135230976E+02 -0.42691723791E+02 -0.21357000541E+03  0.23156872882E+03  0.77000000000E+02 0.  0.
   -5000001    1    1    2    0    0  0.16135230976E+02  0.42691723791E+02 -0.40137176728E+03  0.41123135159E+03  0.77000000000E+02 0.  0.
<mgrwt>
<rscale>  0 0.18718590E+03</rscale>
<asrwt>0</asrwt>
<pdfrwt beam="1">  1        2 0.89838686E-01 0.18718590E+03</pdfrwt>
<pdfrwt beam="2">  1       -2 0.19898795E-02 0.18718590E+03</pdfrwt>
<totfact> 0.39050430E+04</totfact>
</mgrwt>
</event>
<event>
 4    1  0.6919593E-004  0.2154285E+03  0.7818608E-02  0.1137338E+00
          2   -1    0    0  501    0  0.00000000000E+00  0.00000000000E+00  0.39661729922E+04  0.39661729922E+04  0.25500000000E-02 0.  1.
         -2   -1    0    0    0  501 -0.00000000000E+00 -0.00000000000E+00 -0.29253281098E+01  0.29253292212E+01  0.25500000000E-02 0. -1.
    5000001    1    1    2    0    0 -0.63953297853E+02 -0.29925276052E+02  0.14984271737E+04  0.15020647594E+04  0.77000000000E+02 0.  0.
   -5000001    1    1    2    0    0  0.63953297853E+02  0.29925276052E+02  0.24648204904E+04  0.24670335621E+04  0.77000000000E+02 0.  0.
<mgrwt>
<rscale>  0 0.21542850E+03</rscale>
<asrwt>0</asrwt>
<pdfrwt beam="1">  1        2 0.56659089E+00 0.21542850E+03</pdfrwt>
<pdfrwt beam="2">  1       -2 0.41790797E-03 0.21542850E+03</pdfrwt>
<totfact> 0.57590901E+03</totfact>
</mgrwt>
</event>
<event>
 4    1  0.6919593E-004  0.2166338E+03  0.7818608E-02  0.1136418E+00
         -2   -1    0    0    0  501 -0.00000000000E+00  0.00000000000E+00  0.25393005313E+01  0.25393018117E+01  0.25500000000E-02 0. -1.
          2   -1    0    0  501    0  0.00000000000E+00 -0.00000000000E+00 -0.46203863244E+04  0.46203863244E+04  0.25500000000E-02 0.  1.
    5000001    1    1    2    0    0 -0.12407220417E+02 -0.74868237323E+02 -0.24510542627E+04  0.24534374235E+04  0.77000000000E+02 0.  0.
   -5000001    1    1    2    0    0  0.12407220417E+02  0.74868237323E+02 -0.21667927612E+04  0.21694882028E+04  0.77000000000E+02 0.  0.
<mgrwt>
<rscale>  0 0.21663381E+03</rscale>
<asrwt>0</asrwt>
<pdfrwt beam="1">  1        2 0.66004980E+00 0.21663381E+03</pdfrwt>
<pdfrwt beam="2">  1       -2 0.36276027E-03 0.21663381E+03</pdfrwt>
<totfact> 0.24296737E+03</totfact>
</mgrwt>
</event>
<event>
 4    1  0.6919593E-004  0.4719114E+03  0.7818608E-02  0.1021382E+00
          2   -1    0    0  501    0  0.00000000000E+00  0.00000000000E+00  0.77697726936E+03  0.77697726937E+03  0.25500000000E-02 0.  1.
         -2   -1    0    0    0  501 -0.00000000000E+00 -0.00000000000E+00 -0.71655999354E+02  0.71655999400E+02  0.25500000000E-02 0. -1.
    5000001    1    1    2    0    0  0.10397813256E+03  0.14286256524E+03  0.59741912816E+03  0.62774180942E+03  0.77000000000E+02 0.  0.
   -5000001    1    1    2    0    0 -0.10397813256E+03 -0.14286256524E+03  0.10790214185E+03  0.22089145935E+03  0.77000000000E+02 0.  0.
<mgrwt>
<rscale>  0 0.47191136E+03</rscale>
<asrwt>0</asrwt>
<pdfrwt beam="1">  1        2 0.11099676E+00 0.47191136E+03</pdfrwt>
<pdfrwt beam="2">  1       -2 0.10236571E-01 0.47191136E+03</pdfrwt>
<totfact> 0.25979754E+03</totfact>
</mgrwt>
</event>
<event>
 4    1  0.6919593E-004  0.2095613E+03  0.7818608E-02  0.1141914E+00
         -2   -1    0    0    0  501 -0.00000000000E+00  0.00000000000E+00  0.27472063198E+02  0.27472063317E+02  0.25500000000E-02 0. -1.
          2   -1    0    0  501    0  0.00000000000E+00 -0.00000000000E+00 -0.39964163824E+03  0.39964163824E+03  0.25500000000E-02 0.  1.
    5000001    1    1    2    0    0 -0.40927805163E+02 -0.57539743716E+02 -0.20239915063E+03  0.22777252582E+03  0.77000000000E+02 0.  0.
   -5000001    1    1    2    0    0  0.40927805163E+02  0.57539743716E+02 -0.16977042441E+03  0.19934117574E+03  0.77000000000E+02 0.  0.
<mgrwt>
<rscale>  0 0.20956126E+03</rscale>
<asrwt>0</asrwt>
<pdfrwt beam="1">  1        2 0.57091659E-01 0.20956126E+03</pdfrwt>
<pdfrwt beam="2">  1       -2 0.39245807E-02 0.20956126E+03</pdfrwt>
<totfact> 0.23806620E+04</totfact>
</mgrwt>
</event>
<event>
 4    1  0.6919593E-004  0.4464400E+03  0.7818608E-02  0.1028789E+00
          2   -1    0    0  501    0  0.00000000000E+00  0.00000000000E+00  0.10288061248E+04  0.10288061248E+04  0.25500000000E-02 0.  1.
         -2   -1    0    0    0  501 -0.00000000000E+00 -0.00000000000E+00 -0.48432018629E+02  0.48432018696E+02  0.25500000000E-02 0. -1.
    5000001    1    1    2    0    0  0.20554544166E+03  0.18219649224E+02  0.57776335549E+03  0.61832061195E+03  0.77000000000E+02 0.  0.
   -5000001    1    1    2    0    0 -0.20554544166E+03 -0.18219649224E+02  0.40261075067E+03  0.45891753155E+03  0.77000000000E+02 0.  0.
<mgrwt>
<rscale>  0 0.44643995E+03</rscale>
<asrwt>0</asrwt>
<pdfrwt beam="1">  1        2 0.14697230E+00 0.44643995E+03</pdfrwt>
<pdfrwt beam="2">  1       -2 0.69188601E-02 0.44643995E+03</pdfrwt>
<totfact> 0.33389430E+03</totfact>
</mgrwt>
</event>
<event>
 4    1  0.6919593E-004  0.2189743E+03  0.7818608E-02  0.1134650E+00
          2   -1    0    0  501    0  0.00000000000E+00  0.00000000000E+00  0.37009868118E+03  0.37009868119E+03  0.25500000000E-02 0.  1.
         -2   -1    0    0    0  501 -0.00000000000E+00 -0.00000000000E+00 -0.32389847444E+02  0.32389847545E+02  0.25500000000E-02 0. -1.
    5000001    1    1    2    0    0 -0.73843511731E+02  0.17662486110E+02  0.13735900131E+03  0.17481797071E+03  0.77000000000E+02 0.  0.
   -5000001    1    1    2    0    0  0.73843511731E+02 -0.17662486110E+02  0.20034983242E+03  0.22767055802E+03  0.77000000000E+02 0.  0.
<mgrwt>
<rscale>  0 0.21897433E+03</rscale>
<asrwt>0</asrwt>
<pdfrwt beam="1">  1        2 0.52871241E-01 0.21897433E+03</pdfrwt>
<pdfrwt beam="2">  1       -2 0.46271210E-02 0.21897433E+03</pdfrwt>
<totfact> 0.20252262E+04</totfact>
</mgrwt>
</event>
<event>
 4    1  0.6919593E-004  0.2238710E+03  0.7818608E-02  0.1131030E+00
          2   -1    0    0  501    0  0.00000000000E+00  0.00000000000E+00  0.51905841130E+03  0.51905841131E+03  0.25500000000E-02 0.  1.
         -2   -1    0    0    0  501 -0.00000000000E+00 -0.00000000000E+00 -0.24139009791E+02  0.24139009926E+02  0.25500000000E-02 0. -1.
    5000001    1    1    2    0    0 -0.71158487210E+02 -0.17515928489E+02  0.33256388437E+03  0.34913904857E+03  0.77000000000E+02 0.  0.
   -5000001    1    1    2    0    0  0.71158487210E+02  0.17515928489E+02  0.16235551714E+03  0.19405837266E+03  0.77000000000E+02 0.  0.
<mgrwt>
<rscale>  0 0.22387100E+03</rscale>
<asrwt>0</asrwt>
<pdfrwt beam="1">  1        2 0.74151198E-01 0.22387100E+03</pdfrwt>
<pdfrwt beam="2">  1       -2 0.34484302E-02 0.22387100E+03</pdfrwt>
<totfact> 0.21827296E+04</totfact>
</mgrwt>
</event>
<event>
 4    1  0.6919593E-004  0.5867210E+03  0.7818608E-02  0.9933345E-01
         -2   -1    0    0    0  501 -0.00000000000E+00  0.00000000000E+00  0.40995276737E+02  0.40995276816E+02  0.25500000000E-02 0. -1.
          2   -1    0    0  501    0  0.00000000000E+00 -0.00000000000E+00 -0.20992757285E+04  0.20992757285E+04  0.25500000000E-02 0.  1.
    5000001    1    1    2    0    0 -0.17403214648E+03 -0.12149688396E+03 -0.17123965771E+04  0.17272173338E+04  0.77000000000E+02 0.  0.
   -5000001    1    1    2    0    0  0.17403214648E+03  0.12149688396E+03 -0.34588387462E+03  0.41305367150E+03  0.77000000000E+02 0.  0.
<mgrwt>
<rscale>  0 0.58672102E+03</rscale>
<asrwt>0</asrwt>
<pdfrwt beam="1">  1        2 0.29989646E+00 0.58672102E+03</pdfrwt>
<pdfrwt beam="2">  1       -2 0.58564694E-02 0.58672102E+03</pdfrwt>
<totfact> 0.11857555E+03</totfact>
</mgrwt>
</event>
<event>
 4    1  0.6919593E-004  0.2237250E+03  0.7818608E-02  0.1131136E+00
          2   -1    0    0  501    0  0.00000000000E+00  0.00000000000E+00  0.52768138213E+02  0.52768138274E+02  0.25500000000E-02 0.  1.
         -2   -1    0    0    0  501 -0.00000000000E+00 -0.00000000000E+00 -0.23713589589E+03  0.23713589590E+03  0.25500000000E-02 0. -1.
    5000001    1    1    2    0    0  0.66696407491E+02 -0.15987392606E+02 -0.35995931582E+02  0.10921865493E+03  0.77000000000E+02 0.  0.
   -5000001    1    1    2    0    0 -0.66696407491E+02  0.15987392606E+02 -0.14837182609E+03  0.18068537924E+03  0.77000000000E+02 0.  0.
<mgrwt>
<rscale>  0 0.22372501E+03</rscale>
<asrwt>0</asrwt>
<pdfrwt beam="1">  1        2 0.75383056E-02 0.22372501E+03</pdfrwt>
<pdfrwt beam="2">  1       -2 0.33876556E-01 0.22372501E+03</pdfrwt>
<totfact> 0.73419983E+03</totfact>
</mgrwt>
</event>
<event>
 4    1  0.6919593E-004  0.4061637E+03  0.7818608E-02  0.1041666E+00
         -2   -1    0    0    0  501 -0.00000000000E+00  0.00000000000E+00  0.16030685601E+02  0.16030685804E+02  0.25500000000E-02 0. -1.
          2   -1    0    0  501    0  0.00000000000E+00 -0.00000000000E+00 -0.25727062206E+04  0.25727062206E+04  0.25500000000E-02 0.  1.
    5000001    1    1    2    0    0  0.19903486907E+02 -0.15789309959E+03 -0.64139360123E+03  0.66531280717E+03  0.77000000000E+02 0.  0.
   -5000001    1    1    2    0    0 -0.19903486907E+02  0.15789309959E+03 -0.19152819337E+04  0.19234240992E+04  0.77000000000E+02 0.  0.
<mgrwt>
<rscale>  0 0.40616373E+03</rscale>
<asrwt>0</asrwt>
<pdfrwt beam="1">  1        2 0.36752920E+00 0.40616373E+03</pdfrwt>
<pdfrwt beam="2">  1       -2 0.22900996E-02 0.40616373E+03</pdfrwt>
<totfact> 0.28942293E+03</totfact>
</mgrwt>
</event>
<event>
 4    1  0.6919593E-004  0.4970506E+03  0.7818608E-02  0.1014552E+00
         -2   -1    0    0    0  501 -0.00000000000E+00  0.00000000000E+00  0.95192991244E+02  0.95192991278E+02  0.25500000000E-02 0. -1.
          2   -1    0    0  501    0  0.00000000000E+00 -0.00000000000E+00 -0.64883803312E+03  0.64883803313E+03  0.25500000000E-02 0.  1.
    5000001    1    1    2    0    0 -0.47993057572E+02 -0.21817773677E+03 -0.16154265759E+03  0.28623397531E+03  0.77000000000E+02 0.  0.
   -5000001    1    1    2    0    0  0.47993057572E+02  0.21817773677E+03 -0.39210238428E+03  0.45779704910E+03  0.77000000000E+02 0.  0.
<mgrwt>
<rscale>  0 0.49705063E+03</rscale>
<asrwt>0</asrwt>
<pdfrwt beam="1">  1        2 0.92691145E-01 0.49705063E+03</pdfrwt>
<pdfrwt beam="2">  1       -2 0.13598999E-01 0.49705063E+03</pdfrwt>
<totfact> 0.20344221E+03</totfact>
</mgrwt>
</event>
<event>
 4    1  0.6919593E-004  0.3104531E+03  0.7818608E-02  0.1080129E+00
         -2   -1    0    0    0  501 -0.00000000000E+00  0.00000000000E+00  0.39421588863E+03  0.39421588864E+03  0.25500000000E-02 0. -1.
          2   -1    0    0  501    0  0.00000000000E+00 -0.00000000000E+00 -0.61122059812E+02  0.61122059865E+02  0.25500000000E-02 0.  1.
    5000001    1    1    2    0    0 -0.87791939509E+02  0.10204942810E+03  0.17636131853E+03  0.23484851520E+03  0.77000000000E+02 0.  0.
   -5000001    1    1    2    0    0  0.87791939509E+02 -0.10204942810E+03  0.15673251029E+03  0.22048943330E+03  0.77000000000E+02 0.  0.
<mgrwt>
<rscale>  0 0.31045313E+03</rscale>
<asrwt>0</asrwt>
<pdfrwt beam="1">  1        2 0.87317230E-02 0.31045313E+03</pdfrwt>
<pdfrwt beam="2">  1       -2 0.56316554E-01 0.31045313E+03</pdfrwt>
<totfact> 0.22977262E+03</totfact>
</mgrwt>
</event>
<event>
 4    1  0.6919593E-004  0.4097440E+03  0.7818608E-02  0.1040457E+00
          2   -1    0    0  501    0  0.00000000000E+00  0.00000000000E+00  0.46341058786E+03  0.46341058787E+03  0.25500000000E-02 0.  1.
         -2   -1    0    0    0  501 -0.00000000000E+00 -0.00000000000E+00 -0.90573126923E+02  0.90573126959E+02  0.25500000000E-02 0. -1.
    5000001    1    1    2    0    0 -0.14284609152E+03  0.68303596591E+02  0.44790386056E+02  0.18167434010E+03  0.77000000000E+02 0.  0.
   -5000001    1    1    2    0    0  0.14284609152E+03 -0.68303596591E+02  0.32804707488E+03  0.37230937473E+03  0.77000000000E+02 0.  0.
<mgrwt>
<rscale>  0 0.40974405E+03</rscale>
<asrwt>0</asrwt>
<pdfrwt beam="1">  1        2 0.66201512E-01 0.40974405E+03</pdfrwt>
<pdfrwt beam="2">  1       -2 0.12939018E-01 0.40974405E+03</pdfrwt>
<totfact> 0.32425005E+03</totfact>
</mgrwt>
</event>
<event>
 4    1  0.6919593E-004  0.3624252E+03  0.7818608E-02  0.1057628E+00
         -2   -1    0    0    0  501 -0.00000000000E+00  0.00000000000E+00  0.13674060349E+03  0.13674060351E+03  0.25500000000E-02 0. -1.
          2   -1    0    0  501    0  0.00000000000E+00 -0.00000000000E+00 -0.24014818908E+03  0.24014818909E+03  0.25500000000E-02 0.  1.
    5000001    1    1    2    0    0 -0.32312873535E+02 -0.16076235358E+03 -0.47012415869E+02  0.18715721565E+03  0.77000000000E+02 0.  0.
   -5000001    1    1    2    0    0  0.32312873535E+02  0.16076235358E+03 -0.56395169720E+02  0.18973157695E+03  0.77000000000E+02 0.  0.
<mgrwt>
<rscale>  0 0.36242521E+03</rscale>
<asrwt>0</asrwt>
<pdfrwt beam="1">  1        2 0.34306884E-01 0.36242521E+03</pdfrwt>
<pdfrwt beam="2">  1       -2 0.19534372E-01 0.36242521E+03</pdfrwt>
<totfact> 0.33263561E+03</totfact>
</mgrwt>
</event>
<event>
 4    1  0.6919593E-004  0.3468326E+03  0.7818608E-02  0.1063923E+00
          2   -1    0    0  501    0  0.00000000000E+00  0.00000000000E+00  0.10272534109E+04  0.10272534109E+04  0.25500000000E-02 0.  1.
         -2   -1    0    0    0  501 -0.00000000000E+00 -0.00000000000E+00 -0.29275361255E+02  0.29275361366E+02  0.25500000000E-02 0. -1.
    5000001    1    1    2    0    0  0.12507937990E+03  0.32906896064E+02  0.76132683942E+03  0.77606396096E+03  0.77000000000E+02 0.  0.
   -5000001    1    1    2    0    0 -0.12507937990E+03 -0.32906896064E+02  0.23665121027E+03  0.28046481135E+03  0.77000000000E+02 0.  0.
<mgrwt>
<rscale>  0 0.34683261E+03</rscale>
<asrwt>0</asrwt>
<pdfrwt beam="1">  1        2 0.14675049E+00 0.34683261E+03</pdfrwt>
<pdfrwt beam="2">  1       -2 0.41821943E-02 0.34683261E+03</pdfrwt>
<totfact> 0.72448136E+03</totfact>
</mgrwt>
</event>
<event>
 4    1  0.6919593E-004  0.6395487E+03  0.7818608E-02  0.9826590E-01
         -2   -1    0    0    0  501 -0.00000000000E+00  0.00000000000E+00  0.85146976592E+02  0.85146976630E+02  0.25500000000E-02 0. -1.
          2   -1    0    0  501    0  0.00000000000E+00 -0.00000000000E+00 -0.12009310753E+04  0.12009310753E+04  0.25500000000E-02 0.  1.
    5000001    1    1    2    0    0 -0.68871050135E+02  0.29068738467E+03 -0.72714697608E+03  0.78988233426E+03  0.77000000000E+02 0.  0.
   -5000001    1    1    2    0    0  0.68871050135E+02 -0.29068738467E+03 -0.38863712262E+03  0.49619571767E+03  0.77000000000E+02 0.  0.
<mgrwt>
<rscale>  0 0.63954875E+03</rscale>
<asrwt>0</asrwt>
<pdfrwt beam="1">  1        2 0.17156157E+00 0.63954875E+03</pdfrwt>
<pdfrwt beam="2">  1       -2 0.12163855E-01 0.63954875E+03</pdfrwt>
<totfact> 0.10704054E+03</totfact>
</mgrwt>
</event>
<event>
 4    1  0.6919593E-004  0.2166499E+03  0.7818608E-02  0.1136406E+00
         -2   -1    0    0    0  501 -0.00000000000E+00  0.00000000000E+00  0.28931995982E+02  0.28931996095E+02  0.25500000000E-02 0. -1.
          2   -1    0    0  501    0  0.00000000000E+00 -0.00000000000E+00 -0.40558175392E+03  0.40558175393E+03  0.25500000000E-02 0.  1.
    5000001    1    1    2    0    0 -0.13713763293E+01  0.61875861532E+02 -0.27745104646E+03  0.29451415262E+03  0.77000000000E+02 0.  0.
   -5000001    1    1    2    0    0  0.13713763293E+01 -0.61875861532E+02 -0.99198711477E+02  0.13999959740E+03  0.77000000000E+02 0.  0.
<mgrwt>
<rscale>  0 0.21664985E+03</rscale>
<asrwt>0</asrwt>
<pdfrwt beam="1">  1        2 0.57940247E-01 0.21664985E+03</pdfrwt>
<pdfrwt beam="2">  1       -2 0.41331426E-02 0.21664985E+03</pdfrwt>
<totfact> 0.21734408E+04</totfact>
</mgrwt>
</event>
<event>
 4    1  0.6919593E-004  0.2456375E+03  0.7818608E-02  0.1116093E+00
          2   -1    0    0  501    0  0.00000000000E+00  0.00000000000E+00  0.19290044443E+03  0.19290044444E+03  0.25500000000E-02 0.  1.
         -2   -1    0    0    0  501 -0.00000000000E+00 -0.00000000000E+00 -0.78198058321E+02  0.78198058363E+02  0.25500000000E-02 0. -1.
    5000001    1    1    2    0    0 -0.45103245022E+02 -0.63523700494E+02  0.11865985368E+03  0.16148908357E+03  0.77000000000E+02 0.  0.
   -5000001    1    1    2    0    0  0.45103245022E+02  0.63523700494E+02 -0.39574675773E+01  0.10960941924E+03  0.77000000000E+02 0.  0.
<mgrwt>
<rscale>  0 0.24563746E+03</rscale>
<asrwt>0</asrwt>
<pdfrwt beam="1">  1        2 0.27557206E-01 0.24563746E+03</pdfrwt>
<pdfrwt beam="2">  1       -2 0.11171151E-01 0.24563746E+03</pdfrwt>
<totfact> 0.10523452E+04</totfact>
</mgrwt>
</event>
<event>
 4    1  0.6919593E-004  0.3751375E+03  0.7818608E-02  0.1052746E+00
         -2   -1    0    0    0  501 -0.00000000000E+00  0.00000000000E+00  0.19673330778E+02  0.19673330943E+02  0.25500000000E-02 0. -1.
          2   -1    0    0  501    0  0.00000000000E+00 -0.00000000000E+00 -0.17883112742E+04  0.17883112742E+04  0.25500000000E-02 0.  1.
    5000001    1    1    2    0    0  0.25939524673E+02  0.16420669074E+03 -0.69055589940E+03  0.71444604164E+03  0.77000000000E+02 0.  0.
   -5000001    1    1    2    0    0 -0.25939524673E+02 -0.16420669074E+03 -0.10780820440E+04  0.10935385635E+04  0.77000000000E+02 0.  0.
<mgrwt>
<rscale>  0 0.37513752E+03</rscale>
<asrwt>0</asrwt>
<pdfrwt beam="1">  1        2 0.25547294E+00 0.37513752E+03</pdfrwt>
<pdfrwt beam="2">  1       -2 0.28104770E-02 0.37513752E+03</pdfrwt>
<totfact> 0.52432978E+03</totfact>
</mgrwt>
</event>
<event>
 4    1  0.6919593E-004  0.1889470E+03  0.7818608E-02  0.1159415E+00
         -2   -1    0    0    0  501 -0.00000000000E+00  0.00000000000E+00  0.30867315723E+02  0.30867315828E+02  0.25500000000E-02 0. -1.
          2   -1    0    0  501    0  0.00000000000E+00 -0.00000000000E+00 -0.28914861074E+03  0.28914861075E+03  0.25500000000E-02 0.  1.
    5000001    1    1    2    0    0  0.43385552268E+02 -0.17170994241E+02 -0.80667856319E+02  0.12088611265E+03  0.77000000000E+02 0.  0.
   -5000001    1    1    2    0    0 -0.43385552268E+02  0.17170994241E+02 -0.17761343870E+03  0.19912981393E+03  0.77000000000E+02 0.  0.
<mgrwt>
<rscale>  0 0.18894699E+03</rscale>
<asrwt>0</asrwt>
<pdfrwt beam="1">  1        2 0.41306943E-01 0.18894699E+03</pdfrwt>
<pdfrwt beam="2">  1       -2 0.44096167E-02 0.18894699E+03</pdfrwt>
<totfact> 0.28037189E+04</totfact>
</mgrwt>
</event>
<event>
 4    1  0.6919593E-004  0.3267228E+03  0.7818608E-02  0.1072596E+00
         -2   -1    0    0    0  501 -0.00000000000E+00  0.00000000000E+00  0.68540756093E+01  0.68540760837E+01  0.25500000000E-02 0. -1.
          2   -1    0    0  501    0  0.00000000000E+00 -0.00000000000E+00 -0.38935888247E+04  0.38935888247E+04  0.25500000000E-02 0.  1.
    5000001    1    1    2    0    0 -0.11345078387E+03 -0.74044506406E+02 -0.25287331145E+04  0.25335299157E+04  0.77000000000E+02 0.  0.
   -5000001    1    1    2    0    0  0.11345078387E+03  0.74044506406E+02 -0.13580016346E+04  0.13669129851E+04  0.77000000000E+02 0.  0.
<mgrwt>
<rscale>  0 0.32672284E+03</rscale>
<asrwt>0</asrwt>
<pdfrwt beam="1">  1        2 0.55622556E+00 0.32672284E+03</pdfrwt>
<pdfrwt beam="2">  1       -2 0.97915618E-03 0.32672284E+03</pdfrwt>
<totfact> 0.18494122E+03</totfact>
</mgrwt>
</event>
<event>
 4    1  0.6919593E-004  0.2283228E+03  0.7818608E-02  0.1127826E+00
          2   -1    0    0  501    0  0.00000000000E+00  0.00000000000E+00  0.18344174321E+04  0.18344174321E+04  0.25500000000E-02 0.  1.
         -2   -1    0    0    0  501 -0.00000000000E+00 -0.00000000000E+00 -0.71046108116E+01  0.71046112693E+01  0.25500000000E-02 0. -1.
    5000001    1    1    2    0    0 -0.39602076068E+02  0.26752661924E+02  0.14735969117E+04  0.14763810103E+04  0.77000000000E+02 0.  0.
   -5000001    1    1    2    0    0  0.39602076068E+02 -0.26752661924E+02  0.35371590956E+03  0.36514103306E+03  0.77000000000E+02 0.  0.
<mgrwt>
<rscale>  0 0.22832277E+03</rscale>
<asrwt>0</asrwt>
<pdfrwt beam="1">  1        2 0.26206000E+00 0.22832277E+03</pdfrwt>
<pdfrwt beam="2">  1       -2 0.10149430E-02 0.22832277E+03</pdfrwt>
<totfact> 0.22031325E+04</totfact>
</mgrwt>
</event>
<event>
 4    1  0.6919593E-004  0.2116653E+03  0.7818608E-02  0.1140254E+00
          2   -1    0    0  501    0  0.00000000000E+00  0.00000000000E+00  0.19156388954E+04  0.19156388954E+04  0.25500000000E-02 0.  1.
         -2   -1    0    0    0  501 -0.00000000000E+00 -0.00000000000E+00 -0.58468996925E+01  0.58469002486E+01  0.25500000000E-02 0. -1.
    5000001    1    1    2    0    0 -0.32972436997E+02  0.62557551715E+02  0.80547619398E+03  0.81223243468E+03  0.77000000000E+02 0.  0.
   -5000001    1    1    2    0    0  0.32972436997E+02 -0.62557551715E+02  0.11043158017E+04  0.11092533610E+04  0.77000000000E+02 0.  0.
<mgrwt>
<rscale>  0 0.21166529E+03</rscale>
<asrwt>0</asrwt>
<pdfrwt beam="1">  1        2 0.27366260E+00 0.21166529E+03</pdfrwt>
<pdfrwt beam="2">  1       -2 0.83527173E-03 0.21166529E+03</pdfrwt>
<totfact> 0.26569592E+04</totfact>
</mgrwt>
</event>
<event>
 4    1  0.6919593E-004  0.2868210E+03  0.7818608E-02  0.1092021E+00
         -2   -1    0    0    0  501 -0.00000000000E+00  0.00000000000E+00  0.14948339175E+02  0.14948339393E+02  0.25500000000E-02 0. -1.
          2   -1    0    0  501    0  0.00000000000E+00 -0.00000000000E+00 -0.13758432151E+04  0.13758432151E+04  0.25500000000E-02 0.  1.
    5000001    1    1    2    0    0 -0.89432325625E+02 -0.10007436205E+02 -0.10725648434E+04  0.10790841640E+04  0.77000000000E+02 0.  0.
   -5000001    1    1    2    0    0  0.89432325625E+02  0.10007436205E+02 -0.28833003247E+03  0.31170739047E+03  0.77000000000E+02 0.  0.
<mgrwt>
<rscale>  0 0.28682100E+03</rscale>
<asrwt>0</asrwt>
<pdfrwt beam="1">  1        2 0.19654895E+00 0.28682100E+03</pdfrwt>
<pdfrwt beam="2">  1       -2 0.21354779E-02 0.28682100E+03</pdfrwt>
<totfact> 0.12684984E+04</totfact>
</mgrwt>
</event>
<event>
 4    1  0.6919593E-004  0.2577667E+03  0.7818608E-02  0.1108492E+00
          2   -1    0    0  501    0  0.00000000000E+00  0.00000000000E+00  0.11896606542E+04  0.11896606542E+04  0.25500000000E-02 0.  1.
         -2   -1    0    0    0  501 -0.00000000000E+00 -0.00000000000E+00 -0.13962738209E+02  0.13962738442E+02  0.25500000000E-02 0. -1.
    5000001    1    1    2    0    0 -0.10219081016E+03 -0.15329217514E+02  0.57854070764E+03  0.59271940831E+03  0.77000000000E+02 0.  0.
   -5000001    1    1    2    0    0  0.10219081016E+03  0.15329217514E+02  0.59715720838E+03  0.61090398437E+03  0.77000000000E+02 0.  0.
<mgrwt>
<rscale>  0 0.25776672E+03</rscale>
<asrwt>0</asrwt>
<pdfrwt beam="1">  1        2 0.16995149E+00 0.25776672E+03</pdfrwt>
<pdfrwt beam="2">  1       -2 0.19946772E-02 0.25776672E+03</pdfrwt>
<totfact> 0.17534480E+04</totfact>
</mgrwt>
</event>
<event>
 4    1  0.6919593E-004  0.2087649E+03  0.7818608E-02  0.1142548E+00
          2   -1    0    0  501    0  0.00000000000E+00  0.00000000000E+00  0.23114771980E+03  0.23114771981E+03  0.25500000000E-02 0.  1.
         -2   -1    0    0    0  501 -0.00000000000E+00 -0.00000000000E+00 -0.47137359319E+02  0.47137359387E+02  0.25500000000E-02 0. -1.
    5000001    1    1    2    0    0 -0.26441910011E+02 -0.60158948219E+02  0.58061375486E+02  0.11669788764E+03  0.77000000000E+02 0.  0.
   -5000001    1    1    2    0    0  0.26441910011E+02  0.60158948219E+02  0.12594898499E+03  0.16158719156E+03  0.77000000000E+02 0.  0.
<mgrwt>
<rscale>  0 0.20876487E+03</rscale>
<asrwt>0</asrwt>
<pdfrwt beam="1">  1        2 0.33021102E-01 0.20876487E+03</pdfrwt>
<pdfrwt beam="2">  1       -2 0.67339086E-02 0.20876487E+03</pdfrwt>
<totfact> 0.18902946E+04</totfact>
</mgrwt>
</event>
<event>
 4    1  0.6919593E-004  0.4439073E+03  0.7818608E-02  0.1029555E+00
         -2   -1    0    0    0  501 -0.00000000000E+00  0.00000000000E+00  0.16741750861E+02  0.16741751055E+02  0.25500000000E-02 0. -1.
          2   -1    0    0  501    0  0.00000000000E+00 -0.00000000000E+00 -0.29425488262E+04  0.29425488262E+04  0.25500000000E-02 0.  1.
    5000001    1    1    2    0    0  0.13093854833E+03 -0.14442045182E+03 -0.19497035276E+04  0.19609372800E+04  0.77000000000E+02 0.  0.
   -5000001    1    1    2    0    0 -0.13093854833E+03  0.14442045182E+03 -0.97610354772E+03  0.99835329729E+03  0.77000000000E+02 0.  0.
<mgrwt>
<rscale>  0 0.44390729E+03</rscale>
<asrwt>0</asrwt>
<pdfrwt beam="1">  1        2 0.42036379E+00 0.44390729E+03</pdfrwt>
<pdfrwt beam="2">  1       -2 0.23916806E-02 0.44390729E+03</pdfrwt>
<totfact> 0.17355359E+03</totfact>
</mgrwt>
</event>
<event>
 4    1  0.6919593E-004  0.2290859E+03  0.7818608E-02  0.1127285E+00
          2   -1    0    0  501    0  0.00000000000E+00  0.00000000000E+00  0.11402191042E+04  0.11402191042E+04  0.25500000000E-02 0.  1.
         -2   -1    0    0    0  501 -0.00000000000E+00 -0.00000000000E+00 -0.11506632550E+02  0.11506632833E+02  0.25500000000E-02 0. -1.
    5000001    1    1    2    0    0  0.61153109682E+02  0.14237313028E+02  0.85090871017E+03  0.85668958027E+03  0.77000000000E+02 0.  0.
   -5000001    1    1    2    0    0 -0.61153109682E+02 -0.14237313028E+02  0.27780376152E+03  0.29503615680E+03  0.77000000000E+02 0.  0.
<mgrwt>
<rscale>  0 0.22908586E+03</rscale>
<asrwt>0</asrwt>
<pdfrwt beam="1">  1        2 0.16288851E+00 0.22908586E+03</pdfrwt>
<pdfrwt beam="2">  1       -2 0.16438040E-02 0.22908586E+03</pdfrwt>
<totfact> 0.24631871E+04</totfact>
</mgrwt>
</event>
<event>
 4    1  0.6919593E-004  0.1956716E+03  0.7818608E-02  0.1153443E+00
          2   -1    0    0  501    0  0.00000000000E+00  0.00000000000E+00  0.33432313116E+03  0.33432313117E+03  0.25500000000E-02 0.  1.
         -2   -1    0    0    0  501 -0.00000000000E+00 -0.00000000000E+00 -0.28630510638E+02  0.28630510752E+02  0.25500000000E-02 0. -1.
    5000001    1    1    2    0    0 -0.37395398827E+02 -0.46230278717E+02  0.13364214670E+03  0.16530238322E+03  0.77000000000E+02 0.  0.
   -5000001    1    1    2    0    0  0.37395398827E+02  0.46230278717E+02  0.17205047382E+03  0.19765125870E+03  0.77000000000E+02 0.  0.
<mgrwt>
<rscale>  0 0.19567158E+03</rscale>
<asrwt>0</asrwt>
<pdfrwt beam="1">  1        2 0.47760447E-01 0.19567158E+03</pdfrwt>
<pdfrwt beam="2">  1       -2 0.40900730E-02 0.19567158E+03</pdfrwt>
<totfact> 0.26954889E+04</totfact>
</mgrwt>
</event>
<event>
 4    1  0.6919593E-004  0.5482662E+03  0.7818608E-02  0.1001896E+00
         -2   -1    0    0    0  501 -0.00000000000E+00  0.00000000000E+00  0.36940019654E+02  0.36940019742E+02  0.25500000000E-02 0. -1.
          2   -1    0    0  501    0  0.00000000000E+00 -0.00000000000E+00 -0.20343509839E+04  0.20343509839E+04  0.25500000000E-02 0.  1.
    5000001    1    1    2    0    0 -0.18215422166E+03  0.17328765336E+03 -0.12916126486E+04  0.13181050812E+04  0.77000000000E+02 0.  0.
   -5000001    1    1    2    0    0  0.18215422166E+03 -0.17328765336E+03 -0.70579831565E+03  0.75318592236E+03  0.77000000000E+02 0.  0.
<mgrwt>
<rscale>  0 0.54826623E+03</rscale>
<asrwt>0</asrwt>
<pdfrwt beam="1">  1        2 0.29062150E+00 0.54826623E+03</pdfrwt>
<pdfrwt beam="2">  1       -2 0.52771470E-02 0.54826623E+03</pdfrwt>
<totfact> 0.15062751E+03</totfact>
</mgrwt>
</event>
<event>
 4    1  0.6919593E-004  0.2311199E+03  0.7818608E-02  0.1125854E+00
          2   -1    0    0  501    0  0.00000000000E+00  0.00000000000E+00  0.22865786394E+04  0.22865786394E+04  0.25500000000E-02 0.  1.
         -2   -1    0    0    0  501 -0.00000000000E+00 -0.00000000000E+00 -0.58402084514E+01  0.58402090081E+01  0.25500000000E-02 0. -1.
    5000001    1    1    2    0    0  0.79358290603E+02  0.21846049220E+02  0.88746876580E+03  0.89459756227E+03  0.77000000000E+02 0.  0.
   -5000001    1    1    2    0    0 -0.79358290603E+02 -0.21846049220E+02  0.13932696652E+04  0.13978212862E+04  0.77000000000E+02 0.  0.
<mgrwt>
<rscale>  0 0.23111985E+03</rscale>
<asrwt>0</asrwt>
<pdfrwt beam="1">  1        2 0.32665343E+00 0.23111985E+03</pdfrwt>
<pdfrwt beam="2">  1       -2 0.83431721E-03 0.23111985E+03</pdfrwt>
<totfact> 0.17649922E+04</totfact>
</mgrwt>
</event>
<event>
 4    1  0.6919593E-004  0.2917098E+03  0.7818608E-02  0.1089460E+00
         -2   -1    0    0    0  501 -0.00000000000E+00  0.00000000000E+00  0.67568465513E+01  0.67568470325E+01  0.25500000000E-02 0. -1.
          2   -1    0    0  501    0  0.00000000000E+00 -0.00000000000E+00 -0.31484590819E+04  0.31484590819E+04  0.25500000000E-02 0.  1.
    5000001    1    1    2    0    0  0.11783922154E+03 -0.21180241637E+02 -0.12271092330E+04  0.12353383158E+04  0.77000000000E+02 0.  0.
   -5000001    1    1    2    0    0 -0.11783922154E+03  0.21180241637E+02 -0.19145930024E+04  0.19198776132E+04  0.77000000000E+02 0.  0.
<mgrwt>
<rscale>  0 0.29170983E+03</rscale>
<asrwt>0</asrwt>
<pdfrwt beam="1">  1        2 0.44977893E+00 0.29170983E+03</pdfrwt>
<pdfrwt beam="2">  1       -2 0.96526584E-03 0.29170983E+03</pdfrwt>
<totfact> 0.51834186E+03</totfact>
</mgrwt>
</event>
<event>
 4    1  0.6919593E-004  0.2493862E+03  0.7818608E-02  0.1113693E+00
          2   -1    0    0  501    0  0.00000000000E+00  0.00000000000E+00  0.11125948668E+04  0.11125948668E+04  0.25500000000E-02 0.  1.
         -2   -1    0    0    0  501 -0.00000000000E+00 -0.00000000000E+00 -0.13974872450E+02  0.13974872683E+02  0.25500000000E-02 0. -1.
    5000001    1    1    2    0    0 -0.88628612577E+02 -0.98926251800E+01  0.36489967497E+03  0.38344969396E+03  0.77000000000E+02 0.  0.
   -5000001    1    1    2    0    0  0.88628612577E+02  0.98926251800E+01  0.73372031936E+03  0.74312004552E+03  0.77000000000E+02 0.  0.
<mgrwt>
<rscale>  0 0.24938622E+03</rscale>
<asrwt>0</asrwt>
<pdfrwt beam="1">  1        2 0.15894216E+00 0.24938622E+03</pdfrwt>
<pdfrwt beam="2">  1       -2 0.19964099E-02 0.24938622E+03</pdfrwt>
<totfact> 0.19282133E+04</totfact>
</mgrwt>
</event>
<event>
 4    1  0.6919593E-004  0.2412974E+03  0.7818608E-02  0.1118932E+00
          2   -1    0    0  501    0  0.00000000000E+00  0.00000000000E+00  0.87164841728E+03  0.87164841728E+03  0.25500000000E-02 0.  1.
         -2   -1    0    0    0  501 -0.00000000000E+00 -0.00000000000E+00 -0.16699521292E+02  0.16699521487E+02  0.25500000000E-02 0. -1.
    5000001    1    1    2    0    0 -0.81162494943E+02 -0.15716411815E+02  0.27159426237E+03  0.29415438045E+03  0.77000000000E+02 0.  0.
   -5000001    1    1    2    0    0  0.81162494943E+02  0.15716411815E+02  0.58335463362E+03  0.59419355832E+03  0.77000000000E+02 0.  0.
<mgrwt>
<rscale>  0 0.24129742E+03</rscale>
<asrwt>0</asrwt>
<pdfrwt beam="1">  1        2 0.12452124E+00 0.24129742E+03</pdfrwt>
<pdfrwt beam="2">  1       -2 0.23856451E-02 0.24129742E+03</pdfrwt>
<totfact> 0.20578150E+04</totfact>
</mgrwt>
</event>
<event>
 4    1  0.6919593E-004  0.4266009E+03  0.7818608E-02  0.1034939E+00
         -2   -1    0    0    0  501 -0.00000000000E+00  0.00000000000E+00  0.22032645861E+04  0.22032645861E+04  0.25500000000E-02 0. -1.
          2   -1    0    0  501    0  0.00000000000E+00 -0.00000000000E+00 -0.20649853791E+02  0.20649853949E+02  0.25500000000E-02 0.  1.
    5000001    1    1    2    0    0  0.24874124370E+02  0.14039215956E+03  0.18143970229E+04  0.18216185762E+04  0.77000000000E+02 0.  0.
   -5000001    1    1    2    0    0 -0.24874124370E+02 -0.14039215956E+03  0.36821770936E+03  0.40229586378E+03  0.77000000000E+02 0.  0.
<mgrwt>
<rscale>  0 0.42660095E+03</rscale>
<asrwt>0</asrwt>
<pdfrwt beam="1">  1        2 0.29499810E-02 0.42660095E+03</pdfrwt>
<pdfrwt beam="2">  1       -2 0.31475189E+00 0.42660095E+03</pdfrwt>
<totfact> 0.94698896E+01</totfact>
</mgrwt>
</event>
<event>
 4    1  0.6919593E-004  0.2321562E+03  0.7818608E-02  0.1125131E+00
         -2   -1    0    0    0  501 -0.00000000000E+00  0.00000000000E+00  0.34430910790E+03  0.34430910791E+03  0.25500000000E-02 0. -1.
          2   -1    0    0  501    0  0.00000000000E+00 -0.00000000000E+00 -0.39133791018E+02  0.39133791101E+02  0.25500000000E-02 0.  1.
    5000001    1    1    2    0    0 -0.65387603809E+02  0.72845993329E+01  0.24626043296E+03  0.26627392843E+03  0.77000000000E+02 0.  0.
   -5000001    1    1    2    0    0  0.65387603809E+02 -0.72845993329E+01  0.58914883919E+02  0.11716897058E+03  0.77000000000E+02 0.  0.
<mgrwt>
<rscale>  0 0.23215616E+03</rscale>
<asrwt>0</asrwt>
<pdfrwt beam="1">  1        2 0.55905421E-02 0.23215616E+03</pdfrwt>
<pdfrwt beam="2">  1       -2 0.49187011E-01 0.23215616E+03</pdfrwt>
<totfact> 0.53014189E+03</totfact>
</mgrwt>
</event>
<event>
 4    1  0.6919593E-004  0.2528180E+03  0.7818608E-02  0.1111537E+00
          2   -1    0    0  501    0  0.00000000000E+00  0.00000000000E+00  0.24680863635E+03  0.24680863637E+03  0.25500000000E-02 0.  1.
         -2   -1    0    0    0  501 -0.00000000000E+00 -0.00000000000E+00 -0.64743443642E+02  0.64743443692E+02  0.25500000000E-02 0. -1.
    5000001    1    1    2    0    0  0.63876617769E+02  0.65543384886E+02  0.40611633292E+02  0.12631097481E+03  0.77000000000E+02 0.  0.
   -5000001    1    1    2    0    0 -0.63876617769E+02 -0.65543384886E+02  0.14145355942E+03  0.18524110524E+03  0.77000000000E+02 0.  0.
<mgrwt>
<rscale>  0 0.25281805E+03</rscale>
<asrwt>0</asrwt>
<pdfrwt beam="1">  1        2 0.35258377E-01 0.25281805E+03</pdfrwt>
<pdfrwt beam="2">  1       -2 0.92490634E-02 0.25281805E+03</pdfrwt>
<totfact> 0.10868140E+04</totfact>
</mgrwt>
</event>
<event>
 4    1  0.6919593E-004  0.7010533E+03  0.7818608E-02  0.9715433E-01
         -2   -1    0    0    0  501 -0.00000000000E+00  0.00000000000E+00  0.10793017654E+03  0.10793017657E+03  0.25500000000E-02 0. -1.
          2   -1    0    0  501    0  0.00000000000E+00 -0.00000000000E+00 -0.11384112256E+04  0.11384112256E+04  0.25500000000E-02 0.  1.
    5000001    1    1    2    0    0  0.23685808404E+03 -0.22809821313E+03 -0.68210297406E+03  0.76113337467E+03  0.77000000000E+02 0.  0.
   -5000001    1    1    2    0    0 -0.23685808404E+03  0.22809821313E+03 -0.34837807498E+03  0.48520802748E+03  0.77000000000E+02 0.  0.
<mgrwt>
<rscale>  0 0.70105328E+03</rscale>
<asrwt>0</asrwt>
<pdfrwt beam="1">  1        2 0.16263017E+00 0.70105328E+03</pdfrwt>
<pdfrwt beam="2">  1       -2 0.15418597E-01 0.70105328E+03</pdfrwt>
<totfact> 0.77997465E+02</totfact>
</mgrwt>
</event>
<event>
 4    1  0.6919593E-004  0.2194597E+03  0.7818608E-02  0.1134286E+00
         -2   -1    0    0    0  501 -0.00000000000E+00  0.00000000000E+00  0.97305957208E+02  0.97305957242E+02  0.25500000000E-02 0. -1.
          2   -1    0    0  501    0  0.00000000000E+00 -0.00000000000E+00 -0.12374003858E+03  0.12374003861E+03  0.25500000000E-02 0.  1.
    5000001    1    1    2    0    0 -0.12918990653E+02 -0.70899589986E+02 -0.43734400992E+02  0.11417245732E+03  0.77000000000E+02 0.  0.
   -5000001    1    1    2    0    0  0.12918990653E+02  0.70899589986E+02  0.17300319618E+02  0.10687353853E+03  0.77000000000E+02 0.  0.
<mgrwt>
<rscale>  0 0.21945973E+03</rscale>
<asrwt>0</asrwt>
<pdfrwt beam="1">  1        2 0.17677148E-01 0.21945973E+03</pdfrwt>
<pdfrwt beam="2">  1       -2 0.13900851E-01 0.21945973E+03</pdfrwt>
<totfact> 0.12125046E+04</totfact>
</mgrwt>
</event>
<event>
 4    1  0.6919593E-004  0.3388454E+03  0.7818608E-02  0.1067289E+00
          2   -1    0    0  501    0  0.00000000000E+00  0.00000000000E+00  0.11530961927E+04  0.11530961927E+04  0.25500000000E-02 0.  1.
         -2   -1    0    0    0  501 -0.00000000000E+00 -0.00000000000E+00 -0.24893019470E+02  0.24893019601E+02  0.25500000000E-02 0. -1.
    5000001    1    1    2    0    0 -0.86397284897E+02  0.11229222269E+03  0.74477864477E+03  0.76203560535E+03  0.77000000000E+02 0.  0.
   -5000001    1    1    2    0    0  0.86397284897E+02 -0.11229222269E+03  0.38342452848E+03  0.41595360698E+03  0.77000000000E+02 0.  0.
<mgrwt>
<rscale>  0 0.33884537E+03</rscale>
<asrwt>0</asrwt>
<pdfrwt beam="1">  1        2 0.16472808E+00 0.33884537E+03</pdfrwt>
<pdfrwt beam="2">  1       -2 0.35561446E-02 0.33884537E+03</pdfrwt>
<totfact> 0.78404562E+03</totfact>
</mgrwt>
</event>
<event>
 4    1  0.6919593E-004  0.1769928E+03  0.7818608E-02  0.1170746E+00
         -2   -1    0    0    0  501 -0.00000000000E+00  0.00000000000E+00  0.21222397881E+02  0.21222398034E+02  0.25500000000E-02 0. -1.
          2   -1    0    0  501    0  0.00000000000E+00 -0.00000000000E+00 -0.36902573786E+03  0.36902573787E+03  0.25500000000E-02 0.  1.
    5000001    1    1    2    0    0  0.99680559768E+01 -0.34064162408E+02 -0.22980669430E+03  0.24494866002E+03  0.77000000000E+02 0.  0.
   -5000001    1    1    2    0    0 -0.99680559768E+01  0.34064162408E+02 -0.11799664568E+03  0.14529947589E+03  0.77000000000E+02 0.  0.
<mgrwt>
<rscale>  0 0.17699278E+03</rscale>
<asrwt>0</asrwt>
<pdfrwt beam="1">  1        2 0.52717959E-01 0.17699278E+03</pdfrwt>
<pdfrwt beam="2">  1       -2 0.30317714E-02 0.17699278E+03</pdfrwt>
<totfact> 0.37527685E+04</totfact>
</mgrwt>
</event>
<event>
 4    1  0.6919593E-004  0.2636817E+03  0.7818608E-02  0.1104951E+00
          2   -1    0    0  501    0  0.00000000000E+00  0.00000000000E+00  0.18734667236E+03  0.18734667238E+03  0.25500000000E-02 0.  1.
         -2   -1    0    0    0  501 -0.00000000000E+00 -0.00000000000E+00 -0.92779917086E+02  0.92779917121E+02  0.25500000000E-02 0. -1.
    5000001    1    1    2    0    0  0.29679788554E+02  0.10226562886E+03  0.35947372758E+02  0.13623642062E+03  0.77000000000E+02 0.  0.
   -5000001    1    1    2    0    0 -0.29679788554E+02 -0.10226562886E+03  0.58619382515E+02  0.14389016888E+03  0.77000000000E+02 0.  0.
<mgrwt>
<rscale>  0 0.26368169E+03</rscale>
<asrwt>0</asrwt>
<pdfrwt beam="1">  1        2 0.26763810E-01 0.26368169E+03</pdfrwt>
<pdfrwt beam="2">  1       -2 0.13254274E-01 0.26368169E+03</pdfrwt>
<totfact> 0.82743652E+03</totfact>
</mgrwt>
</event>
<event>
 4    1  0.6919593E-004  0.2756438E+03  0.7818608E-02  0.1098092E+00
          2   -1    0    0  501    0  0.00000000000E+00  0.00000000000E+00  0.10502680752E+03  0.10502680755E+03  0.25500000000E-02 0.  1.
         -2   -1    0    0    0  501 -0.00000000000E+00 -0.00000000000E+00 -0.18085742035E+03  0.18085742036E+03  0.25500000000E-02 0. -1.
    5000001    1    1    2    0    0 -0.52046074613E+02  0.94222939567E+02 -0.77803451592E+02  0.15352241955E+03  0.77000000000E+02 0.  0.
   -5000001    1    1    2    0    0  0.52046074613E+02 -0.94222939567E+02  0.19728387695E+01  0.13236180837E+03  0.77000000000E+02 0.  0.
<mgrwt>
<rscale>  0 0.27564381E+03</rscale>
<asrwt>0</asrwt>
<pdfrwt beam="1">  1        2 0.15003830E-01 0.27564381E+03</pdfrwt>
<pdfrwt beam="2">  1       -2 0.25836774E-01 0.27564381E+03</pdfrwt>
<totfact> 0.51868317E+03</totfact>
</mgrwt>
</event>
<event>
 4    1  0.6919593E-004  0.1615106E+03  0.7818608E-02  0.1187002E+00
         -2   -1    0    0    0  501 -0.00000000000E+00  0.00000000000E+00  0.14130311212E+02  0.14130311442E+02  0.25500000000E-02 0. -1.
          2   -1    0    0  501    0  0.00000000000E+00 -0.00000000000E+00 -0.46151984854E+03  0.46151984855E+03  0.25500000000E-02 0.  1.
    5000001    1    1    2    0    0 -0.77563314176E+01 -0.14695604617E+02 -0.27607104196E+03  0.28708943150E+03  0.77000000000E+02 0.  0.
   -5000001    1    1    2    0    0  0.77563314176E+01  0.14695604617E+02 -0.17131849537E+03  0.18856072849E+03  0.77000000000E+02 0.  0.
<mgrwt>
<rscale>  0 0.16151061E+03</rscale>
<asrwt>0</asrwt>
<pdfrwt beam="1">  1        2 0.65931398E-01 0.16151061E+03</pdfrwt>
<pdfrwt beam="2">  1       -2 0.20186162E-02 0.16151061E+03</pdfrwt>
<totfact> 0.53126792E+04</totfact>
</mgrwt>
</event>
<event>
 4    1  0.6919593E-004  0.3429014E+03  0.7818608E-02  0.1065567E+00
          2   -1    0    0  501    0  0.00000000000E+00  0.00000000000E+00  0.14433040561E+04  0.14433040562E+04  0.25500000000E-02 0.  1.
         -2   -1    0    0    0  501 -0.00000000000E+00 -0.00000000000E+00 -0.20366703597E+02  0.20366703757E+02  0.25500000000E-02 0. -1.
    5000001    1    1    2    0    0 -0.10059298647E+03 -0.35985331323E+02  0.11800789834E+04  0.11874044383E+04  0.77000000000E+02 0.  0.
   -5000001    1    1    2    0    0  0.10059298647E+03  0.35985331323E+02  0.24285836918E+03  0.27626632165E+03  0.77000000000E+02 0.  0.
<mgrwt>
<rscale>  0 0.34290142E+03</rscale>
<asrwt>0</asrwt>
<pdfrwt beam="1">  1        2 0.20618640E+00 0.34290142E+03</pdfrwt>
<pdfrwt beam="2">  1       -2 0.29095276E-02 0.34290142E+03</pdfrwt>
<totfact> 0.74224212E+03</totfact>
</mgrwt>
</event>
<event>
 4    1  0.6919593E-004  0.2596308E+03  0.7818608E-02  0.1107365E+00
          2   -1    0    0  501    0  0.00000000000E+00  0.00000000000E+00  0.77525310935E+03  0.77525310936E+03  0.25500000000E-02 0.  1.
         -2   -1    0    0    0  501 -0.00000000000E+00 -0.00000000000E+00 -0.21737464320E+02  0.21737464470E+02  0.25500000000E-02 0. -1.
    5000001    1    1    2    0    0 -0.95751661310E+02 -0.22031464006E+02  0.26739388550E+03  0.29509702820E+03  0.77000000000E+02 0.  0.
   -5000001    1    1    2    0    0  0.95751661310E+02  0.22031464006E+02  0.48612175953E+03  0.50189354562E+03  0.77000000000E+02 0.  0.
<mgrwt>
<rscale>  0 0.25963079E+03</rscale>
<asrwt>0</asrwt>
<pdfrwt beam="1">  1        2 0.11075044E+00 0.25963079E+03</pdfrwt>
<pdfrwt beam="2">  1       -2 0.31053522E-02 0.25963079E+03</pdfrwt>
<totfact> 0.16177069E+04</totfact>
</mgrwt>
</event>
<event>
 4    1  0.6919593E-004  0.4111390E+03  0.7818608E-02  0.1039989E+00
          2   -1    0    0  501    0  0.00000000000E+00  0.00000000000E+00  0.30390636304E+03  0.30390636305E+03  0.25500000000E-02 0.  1.
         -2   -1    0    0    0  501 -0.00000000000E+00 -0.00000000000E+00 -0.13905210924E+03  0.13905210926E+03  0.25500000000E-02 0. -1.
    5000001    1    1    2    0    0 -0.80358882307E+02 -0.16879455301E+03  0.42394026294E+02  0.20658026178E+03  0.77000000000E+02 0.  0.
   -5000001    1    1    2    0    0  0.80358882307E+02  0.16879455301E+03  0.12246022751E+03  0.23637821053E+03  0.77000000000E+02 0.  0.
<mgrwt>
<rscale>  0 0.41113901E+03</rscale>
<asrwt>0</asrwt>
<pdfrwt beam="1">  1        2 0.43415194E-01 0.41113901E+03</pdfrwt>
<pdfrwt beam="2">  1       -2 0.19864587E-01 0.41113901E+03</pdfrwt>
<totfact> 0.25043045E+03</totfact>
</mgrwt>
</event>
<event>
 4    1  0.6919593E-004  0.3420306E+03  0.7818608E-02  0.1065934E+00
          2   -1    0    0  501    0  0.00000000000E+00  0.00000000000E+00  0.15283922120E+03  0.15283922122E+03  0.25500000000E-02 0.  1.
         -2   -1    0    0    0  501 -0.00000000000E+00 -0.00000000000E+00 -0.19135291799E+03  0.19135291801E+03  0.25500000000E-02 0. -1.
    5000001    1    1    2    0    0  0.91450274418E+02 -0.12083311786E+03 -0.33814661434E+00  0.16997914404E+03  0.77000000000E+02 0.  0.
   -5000001    1    1    2    0    0 -0.91450274418E+02  0.12083311786E+03 -0.38175550179E+02  0.17421299520E+03  0.77000000000E+02 0.  0.
<mgrwt>
<rscale>  0 0.34203059E+03</rscale>
<asrwt>0</asrwt>
<pdfrwt beam="1">  1        2 0.21834175E-01 0.34203059E+03</pdfrwt>
<pdfrwt beam="2">  1       -2 0.27336131E-01 0.34203059E+03</pdfrwt>
<totfact> 0.30509376E+03</totfact>
</mgrwt>
</event>
<event>
 4    1  0.6919593E-004  0.4526701E+03  0.7818608E-02  0.1026929E+00
          2   -1    0    0  501    0  0.00000000000E+00  0.00000000000E+00  0.21685959250E+04  0.21685959250E+04  0.25500000000E-02 0.  1.
         -2   -1    0    0    0  501 -0.00000000000E+00 -0.00000000000E+00 -0.23622451539E+02  0.23622451676E+02  0.25500000000E-02 0. -1.
    5000001    1    1    2    0    0 -0.16829211327E+03 -0.12861784733E+03  0.97162419717E+03  0.99742035600E+03  0.77000000000E+02 0.  0.
   -5000001    1    1    2    0    0  0.16829211327E+03  0.12861784733E+03  0.11733492763E+04  0.11947980207E+04  0.77000000000E+02 0.  0.
<mgrwt>
<rscale>  0 0.45267009E+03</rscale>
<asrwt>0</asrwt>
<pdfrwt beam="1">  1        2 0.30979954E+00 0.45267009E+03</pdfrwt>
<pdfrwt beam="2">  1       -2 0.33746346E-02 0.45267009E+03</pdfrwt>
<totfact> 0.25735437E+03</totfact>
</mgrwt>
</event>
<event>
 4    1  0.6919593E-004  0.1986710E+03  0.7818608E-02  0.1150865E+00
          2   -1    0    0  501    0  0.00000000000E+00  0.00000000000E+00  0.58018909098E+02  0.58018909154E+02  0.25500000000E-02 0.  1.
         -2   -1    0    0    0  501 -0.00000000000E+00 -0.00000000000E+00 -0.17007466450E+03  0.17007466452E+03  0.25500000000E-02 0. -1.
    5000001    1    1    2    0    0 -0.53709135857E+00 -0.29362491420E+02 -0.11970432705E+03  0.14532917905E+03  0.77000000000E+02 0.  0.
   -5000001    1    1    2    0    0  0.53709135857E+00  0.29362491420E+02  0.76485716438E+01  0.82764394625E+02  0.77000000000E+02 0.  0.
<mgrwt>
<rscale>  0 0.19867105E+03</rscale>
<asrwt>0</asrwt>
<pdfrwt beam="1">  1        2 0.82884157E-02 0.19867105E+03</pdfrwt>
<pdfrwt beam="2">  1       -2 0.24296380E-01 0.19867105E+03</pdfrwt>
<totfact> 0.11741775E+04</totfact>
</mgrwt>
</event>
<event>
 4    1  0.6919593E-004  0.1942749E+03  0.7818608E-02  0.1154661E+00
         -2   -1    0    0    0  501 -0.00000000000E+00  0.00000000000E+00  0.13337701029E+02  0.13337701273E+02  0.25500000000E-02 0. -1.
          2   -1    0    0  501    0  0.00000000000E+00 -0.00000000000E+00 -0.70744492558E+03  0.70744492558E+03  0.25500000000E-02 0.  1.
    5000001    1    1    2    0    0 -0.16596578370E+02 -0.45122614436E+02 -0.47531808803E+03  0.48390885666E+03  0.77000000000E+02 0.  0.
   -5000001    1    1    2    0    0  0.16596578370E+02  0.45122614436E+02 -0.21878913651E+03  0.23687377019E+03  0.77000000000E+02 0.  0.
<mgrwt>
<rscale>  0 0.19427495E+03</rscale>
<asrwt>0</asrwt>
<pdfrwt beam="1">  1        2 0.10106354E+00 0.19427495E+03</pdfrwt>
<pdfrwt beam="2">  1       -2 0.19053863E-02 0.19427495E+03</pdfrwt>
<totfact> 0.36407789E+04</totfact>
</mgrwt>
</event>
<event>
 4    1  0.6919593E-004  0.2221308E+03  0.7818608E-02  0.1132304E+00
         -2   -1    0    0    0  501 -0.00000000000E+00  0.00000000000E+00  0.13115693669E+02  0.13115693917E+02  0.25500000000E-02 0. -1.
          2   -1    0    0  501    0  0.00000000000E+00 -0.00000000000E+00 -0.94051651032E+03  0.94051651033E+03  0.25500000000E-02 0.  1.
    5000001    1    1    2    0    0 -0.68631542276E+02 -0.30683195560E+02 -0.34575470957E+03  0.36211471425E+03  0.77000000000E+02 0.  0.
   -5000001    1    1    2    0    0  0.68631542276E+02  0.30683195560E+02 -0.58164610709E+03  0.59151749000E+03  0.77000000000E+02 0.  0.
<mgrwt>
<rscale>  0 0.22213083E+03</rscale>
<asrwt>0</asrwt>
<pdfrwt beam="1">  1        2 0.13435946E+00 0.22213083E+03</pdfrwt>
<pdfrwt beam="2">  1       -2 0.18736711E-02 0.22213083E+03</pdfrwt>
<totfact> 0.26466148E+04</totfact>
</mgrwt>
</event>
<event>
 4    1  0.6919593E-004  0.2180132E+03  0.7818608E-02  0.1135373E+00
         -2   -1    0    0    0  501 -0.00000000000E+00  0.00000000000E+00  0.10807565359E+02  0.10807565660E+02  0.25500000000E-02 0. -1.
          2   -1    0    0  501    0  0.00000000000E+00 -0.00000000000E+00 -0.10994559934E+04  0.10994559934E+04  0.25500000000E-02 0.  1.
    5000001    1    1    2    0    0  0.69969782257E+02  0.25400166981E+02 -0.64775675278E+03  0.65655064518E+03  0.77000000000E+02 0.  0.
   -5000001    1    1    2    0    0 -0.69969782257E+02 -0.25400166981E+02 -0.44089167528E+03  0.45371291391E+03  0.77000000000E+02 0.  0.
<mgrwt>
<rscale>  0 0.21801324E+03</rscale>
<asrwt>0</asrwt>
<pdfrwt beam="1">  1        2 0.15706507E+00 0.21801324E+03</pdfrwt>
<pdfrwt beam="2">  1       -2 0.15439386E-02 0.21801324E+03</pdfrwt>
<totfact> 0.28349058E+04</totfact>
</mgrwt>
</event>
<event>
 4    1  0.6919593E-004  0.2117931E+03  0.7818608E-02  0.1140154E+00
          2   -1    0    0  501    0  0.00000000000E+00  0.00000000000E+00  0.28238859675E+03  0.28238859676E+03  0.25500000000E-02 0.  1.
         -2   -1    0    0    0  501 -0.00000000000E+00 -0.00000000000E+00 -0.39711528859E+02  0.39711528941E+02  0.25500000000E-02 0. -1.
    5000001    1    1    2    0    0 -0.61555774579E+01 -0.63589184385E+02  0.17410055770E+03  0.20080209087E+03  0.77000000000E+02 0.  0.
   -5000001    1    1    2    0    0  0.61555774579E+01  0.63589184385E+02  0.68576510186E+02  0.12129803483E+03  0.77000000000E+02 0.  0.
<mgrwt>
<rscale>  0 0.21179313E+03</rscale>
<asrwt>0</asrwt>
<pdfrwt beam="1">  1        2 0.40341229E-01 0.21179313E+03</pdfrwt>
<pdfrwt beam="2">  1       -2 0.56730754E-02 0.21179313E+03</pdfrwt>
<totfact> 0.19821992E+04</totfact>
</mgrwt>
</event>
<event>
 4    1  0.6919593E-004  0.2552745E+03  0.7818608E-02  0.1110016E+00
         -2   -1    0    0    0  501 -0.00000000000E+00  0.00000000000E+00  0.19525429675E+02  0.19525429841E+02  0.25500000000E-02 0. -1.
          2   -1    0    0  501    0  0.00000000000E+00 -0.00000000000E+00 -0.83436134721E+03  0.83436134722E+03  0.25500000000E-02 0.  1.
    5000001    1    1    2    0    0 -0.35642730743E+02  0.84112872756E+02 -0.25719600981E+03  0.28359154974E+03  0.77000000000E+02 0.  0.
   -5000001    1    1    2    0    0  0.35642730743E+02 -0.84112872756E+02 -0.55763990773E+03  0.57029522732E+03  0.77000000000E+02 0.  0.
<mgrwt>
<rscale>  0 0.25527447E+03</rscale>
<asrwt>0</asrwt>
<pdfrwt beam="1">  1        2 0.11919446E+00 0.25527447E+03</pdfrwt>
<pdfrwt beam="2">  1       -2 0.27893476E-02 0.25527447E+03</pdfrwt>
<totfact> 0.17309030E+04</totfact>
</mgrwt>
</event>
<event>
 4    1  0.6919593E-004  0.1804587E+03  0.7818608E-02  0.1167360E+00
          2   -1    0    0  501    0  0.00000000000E+00  0.00000000000E+00  0.36665087668E+04  0.36665087668E+04  0.25500000000E-02 0.  1.
         -2   -1    0    0    0  501 -0.00000000000E+00 -0.00000000000E+00 -0.22204593599E+01  0.22204608241E+01  0.25500000000E-02 0. -1.
    5000001    1    1    2    0    0  0.38790861809E+02  0.12031350272E+02  0.23144637854E+04  0.23161004076E+04  0.77000000000E+02 0.  0.
   -5000001    1    1    2    0    0 -0.38790861809E+02 -0.12031350272E+02  0.13498245221E+04  0.13526288200E+04  0.77000000000E+02 0.  0.
<mgrwt>
<rscale>  0 0.18045871E+03</rscale>
<asrwt>0</asrwt>
<pdfrwt beam="1">  1        2 0.52378321E+00 0.18045871E+03</pdfrwt>
<pdfrwt beam="2">  1       -2 0.31721086E-03 0.18045871E+03</pdfrwt>
<totfact> 0.13055447E+04</totfact>
</mgrwt>
</event>
<event>
 4    1  0.6919593E-004  0.2827402E+03  0.7818608E-02  0.1094202E+00
          2   -1    0    0  501    0  0.00000000000E+00  0.00000000000E+00  0.23080749937E+03  0.23080749939E+03  0.25500000000E-02 0.  1.
         -2   -1    0    0    0  501 -0.00000000000E+00 -0.00000000000E+00 -0.86589489975E+02  0.86589490012E+02  0.25500000000E-02 0. -1.
    5000001    1    1    2    0    0  0.20687290092E+02  0.11638362876E+03  0.61857823074E+02  0.15404058975E+03  0.77000000000E+02 0.  0.
   -5000001    1    1    2    0    0 -0.20687290092E+02 -0.11638362876E+03  0.82360186325E+02  0.16335639965E+03  0.77000000000E+02 0.  0.
<mgrwt>
<rscale>  0 0.28274019E+03</rscale>
<asrwt>0</asrwt>
<pdfrwt beam="1">  1        2 0.32972500E-01 0.28274019E+03</pdfrwt>
<pdfrwt beam="2">  1       -2 0.12369927E-01 0.28274019E+03</pdfrwt>
<totfact> 0.73822520E+03</totfact>
</mgrwt>
</event>
<event>
 4    1  0.6919593E-004  0.2299778E+03  0.7818608E-02  0.1126655E+00
          2   -1    0    0  501    0  0.00000000000E+00  0.00000000000E+00  0.28977198511E+04  0.28977198511E+04  0.25500000000E-02 0.  1.
         -2   -1    0    0    0  501 -0.00000000000E+00 -0.00000000000E+00 -0.45630503437E+01  0.45630510562E+01  0.25500000000E-02 0. -1.
    5000001    1    1    2    0    0 -0.62385706902E+02  0.13190181909E+02  0.72963307537E+03  0.73645052923E+03  0.77000000000E+02 0.  0.
   -5000001    1    1    2    0    0  0.62385706902E+02 -0.13190181909E+02  0.21635237254E+04  0.21658323729E+04  0.77000000000E+02 0.  0.
<mgrwt>
<rscale>  0 0.22997776E+03</rscale>
<asrwt>0</asrwt>
<pdfrwt beam="1">  1        2 0.41396057E+00 0.22997776E+03</pdfrwt>
<pdfrwt beam="2">  1       -2 0.65186345E-03 0.22997776E+03</pdfrwt>
<totfact> 0.12432605E+04</totfact>
</mgrwt>
</event>
<event>
 4    1  0.6919593E-004  0.2128665E+03  0.7818608E-02  0.1139316E+00
         -2   -1    0    0    0  501 -0.00000000000E+00  0.00000000000E+00  0.44793361329E+02  0.44793361401E+02  0.25500000000E-02 0. -1.
          2   -1    0    0  501    0  0.00000000000E+00 -0.00000000000E+00 -0.25289550583E+03  0.25289550584E+03  0.25500000000E-02 0.  1.
    5000001    1    1    2    0    0  0.45355243297E+02  0.52050141393E+02 -0.68873769992E+02  0.12425341648E+03  0.77000000000E+02 0.  0.
   -5000001    1    1    2    0    0 -0.45355243297E+02 -0.52050141393E+02 -0.13922837451E+03  0.17343545076E+03  0.77000000000E+02 0.  0.
<mgrwt>
<rscale>  0 0.21286653E+03</rscale>
<asrwt>0</asrwt>
<pdfrwt beam="1">  1        2 0.36127929E-01 0.21286653E+03</pdfrwt>
<pdfrwt beam="2">  1       -2 0.63990517E-02 0.21286653E+03</pdfrwt>
<totfact> 0.18574450E+04</totfact>
</mgrwt>
</event>
<event>
 4    1  0.6919593E-004  0.3054063E+03  0.7818608E-02  0.1082569E+00
          2   -1    0    0  501    0  0.00000000000E+00  0.00000000000E+00  0.21500611301E+04  0.21500611301E+04  0.25500000000E-02 0.  1.
         -2   -1    0    0    0  501 -0.00000000000E+00 -0.00000000000E+00 -0.10845392801E+02  0.10845393100E+02  0.25500000000E-02 0. -1.
    5000001    1    1    2    0    0 -0.11268578713E+03  0.26532793189E+02  0.62283070169E+03  0.63816076243E+03  0.77000000000E+02 0.  0.
   -5000001    1    1    2    0    0  0.11268578713E+03 -0.26532793189E+02  0.15163850356E+04  0.15227457608E+04  0.77000000000E+02 0.  0.
<mgrwt>
<rscale>  0 0.30540634E+03</rscale>
<asrwt>0</asrwt>
<pdfrwt beam="1">  1        2 0.30715163E+00 0.30540634E+03</pdfrwt>
<pdfrwt beam="2">  1       -2 0.15493417E-02 0.30540634E+03</pdfrwt>
<totfact> 0.84061061E+03</totfact>
</mgrwt>
</event>
<event>
 4    1  0.6919593E-004  0.2283184E+03  0.7818608E-02  0.1127829E+00
          2   -1    0    0  501    0  0.00000000000E+00  0.00000000000E+00  0.60706223824E+02  0.60706223877E+02  0.25500000000E-02 0.  1.
         -2   -1    0    0    0  501 -0.00000000000E+00 -0.00000000000E+00 -0.21467862047E+03  0.21467862049E+03  0.25500000000E-02 0. -1.
    5000001    1    1    2    0    0  0.40348678020E+02  0.73287806352E+02 -0.64673485110E+02  0.13080817273E+03  0.77000000000E+02 0.  0.
   -5000001    1    1    2    0    0 -0.40348678020E+02 -0.73287806352E+02 -0.89298911539E+02  0.14457667163E+03  0.77000000000E+02 0.  0.
<mgrwt>
<rscale>  0 0.22831845E+03</rscale>
<asrwt>0</asrwt>
<pdfrwt beam="1">  1        2 0.86723178E-02 0.22831845E+03</pdfrwt>
<pdfrwt beam="2">  1       -2 0.30668374E-01 0.22831845E+03</pdfrwt>
<totfact> 0.73873134E+03</totfact>
</mgrwt>
</event>
<event>
 4    1  0.6919593E-004  0.2140521E+03  0.7818608E-02  0.1138397E+00
          2   -1    0    0  501    0  0.00000000000E+00  0.00000000000E+00  0.42822755266E+02  0.42822755341E+02  0.25500000000E-02 0.  1.
         -2   -1    0    0    0  501 -0.00000000000E+00 -0.00000000000E+00 -0.26748800814E+03  0.26748800815E+03  0.25500000000E-02 0. -1.
    5000001    1    1    2    0    0  0.47312818970E+02  0.42037049583E+02 -0.16885144225E+03  0.19607505177E+03  0.77000000000E+02 0.  0.
   -5000001    1    1    2    0    0 -0.47312818970E+02 -0.42037049583E+02 -0.55813810623E+02  0.11423571172E+03  0.77000000000E+02 0.  0.
<mgrwt>
<rscale>  0 0.21405208E+03</rscale>
<asrwt>0</asrwt>
<pdfrwt beam="1">  1        2 0.61175366E-02 0.21405208E+03</pdfrwt>
<pdfrwt beam="2">  1       -2 0.38212572E-01 0.21405208E+03</pdfrwt>
<totfact> 0.76484146E+03</totfact>
</mgrwt>
</event>
<event>
 4    1  0.6919593E-004  0.3181629E+03  0.7818608E-02  0.1076498E+00
          2   -1    0    0  501    0  0.00000000000E+00  0.00000000000E+00  0.40053488302E+04  0.40053488302E+04  0.25500000000E-02 0.  1.
         -2   -1    0    0    0  501 -0.00000000000E+00 -0.00000000000E+00 -0.63182776334E+01  0.63182781479E+01  0.25500000000E-02 0. -1.
    5000001    1    1    2    0    0  0.99255336424E+02 -0.23596343165E+01  0.76921763261E+03  0.77941128809E+03  0.77000000000E+02 0.  0.
   -5000001    1    1    2    0    0 -0.99255336424E+02  0.23596343165E+01  0.32298129200E+04  0.32322558203E+04  0.77000000000E+02 0.  0.
<mgrwt>
<rscale>  0 0.31816290E+03</rscale>
<asrwt>0</asrwt>
<pdfrwt beam="1">  1        2 0.57219310E+00 0.31816290E+03</pdfrwt>
<pdfrwt beam="2">  1       -2 0.90261048E-03 0.31816290E+03</pdfrwt>
<totfact> 0.17655361E+03</totfact>
</mgrwt>
</event>
<event>
 4    1  0.6919593E-004  0.3681493E+03  0.7818608E-02  0.1055403E+00
          2   -1    0    0  501    0  0.00000000000E+00  0.00000000000E+00  0.33959402874E+03  0.33959402875E+03  0.25500000000E-02 0.  1.
         -2   -1    0    0    0  501 -0.00000000000E+00 -0.00000000000E+00 -0.99776439051E+02  0.99776439084E+02  0.25500000000E-02 0. -1.
    5000001    1    1    2    0    0  0.43894048004E+02  0.96627600159E+02  0.27409543764E+03  0.30384352799E+03  0.77000000000E+02 0.  0.
   -5000001    1    1    2    0    0 -0.43894048004E+02 -0.96627600159E+02 -0.34277847958E+02  0.13552693984E+03  0.77000000000E+02 0.  0.
<mgrwt>
<rscale>  0 0.36814933E+03</rscale>
<asrwt>0</asrwt>
<pdfrwt beam="1">  1        2 0.48513432E-01 0.36814933E+03</pdfrwt>
<pdfrwt beam="2">  1       -2 0.14253777E-01 0.36814933E+03</pdfrwt>
<totfact> 0.38788574E+03</totfact>
</mgrwt>
</event>
<event>
 4    1  0.6919593E-004  0.2265227E+03  0.7818608E-02  0.1129111E+00
         -2   -1    0    0    0  501 -0.00000000000E+00  0.00000000000E+00  0.11367839600E+04  0.11367839600E+04  0.25500000000E-02 0. -1.
          2   -1    0    0  501    0  0.00000000000E+00 -0.00000000000E+00 -0.11284584533E+02  0.11284584821E+02  0.25500000000E-02 0.  1.
    5000001    1    1    2    0    0 -0.60500309086E+02  0.32290390035E+02  0.80026403535E+03  0.80687947239E+03  0.77000000000E+02 0.  0.
   -5000001    1    1    2    0    0  0.60500309086E+02 -0.32290390035E+02  0.32523534013E+03  0.34118907245E+03  0.77000000000E+02 0.  0.
<mgrwt>
<rscale>  0 0.22652271E+03</rscale>
<asrwt>0</asrwt>
<pdfrwt beam="1">  1        2 0.16120835E-02 0.22652271E+03</pdfrwt>
<pdfrwt beam="2">  1       -2 0.16239771E+00 0.22652271E+03</pdfrwt>
<totfact> 0.18855266E+03</totfact>
</mgrwt>
</event>
<event>
 4    1  0.6919593E-004  0.2781473E+03  0.7818608E-02  0.1096705E+00
          2   -1    0    0  501    0  0.00000000000E+00  0.00000000000E+00  0.36534853511E+04  0.36534853511E+04  0.25500000000E-02 0.  1.
         -2   -1    0    0    0  501 -0.00000000000E+00 -0.00000000000E+00 -0.52939801245E+01  0.52939807387E+01  0.25500000000E-02 0. -1.
    5000001    1    1    2    0    0  0.73014391102E+02 -0.59041252650E+02  0.27158150285E+04  0.27185285063E+04  0.77000000000E+02 0.  0.
   -5000001    1    1    2    0    0 -0.73014391102E+02  0.59041252650E+02  0.93237634251E+03  0.94025082552E+03  0.77000000000E+02 0.  0.
<mgrwt>
<rscale>  0 0.27814730E+03</rscale>
<asrwt>0</asrwt>
<pdfrwt beam="1">  1        2 0.52192536E+00 0.27814730E+03</pdfrwt>
<pdfrwt beam="2">  1       -2 0.75628455E-03 0.27814730E+03</pdfrwt>
<totfact> 0.38107550E+03</totfact>
</mgrwt>
</event>
<event>
 4    1  0.6919593E-004  0.2399425E+03  0.7818608E-02  0.1119831E+00
          2   -1    0    0  501    0  0.00000000000E+00  0.00000000000E+00  0.32948494222E+03  0.32948494223E+03  0.25500000000E-02 0.  1.
         -2   -1    0    0    0  501 -0.00000000000E+00 -0.00000000000E+00 -0.43683646322E+02  0.43683646397E+02  0.25500000000E-02 0. -1.
    5000001    1    1    2    0    0  0.56844067024E+00 -0.65892123745E+02  0.24275162160E+03  0.26305787364E+03  0.77000000000E+02 0.  0.
   -5000001    1    1    2    0    0 -0.56844067024E+00  0.65892123745E+02  0.43049674294E+02  0.11011071498E+03  0.77000000000E+02 0.  0.
<mgrwt>
<rscale>  0 0.23994252E+03</rscale>
<asrwt>0</asrwt>
<pdfrwt beam="1">  1        2 0.47069278E-01 0.23994252E+03</pdfrwt>
<pdfrwt beam="2">  1       -2 0.62405209E-02 0.23994252E+03</pdfrwt>
<totfact> 0.14640726E+04</totfact>
</mgrwt>
</event>
<event>
 4    1  0.6919593E-004  0.1898672E+03  0.7818608E-02  0.1158581E+00
          2   -1    0    0  501    0  0.00000000000E+00  0.00000000000E+00  0.10781273463E+02  0.10781273765E+02  0.25500000000E-02 0.  1.
         -2   -1    0    0    0  501 -0.00000000000E+00 -0.00000000000E+00 -0.83592983252E+03  0.83592983253E+03  0.25500000000E-02 0. -1.
    5000001    1    1    2    0    0  0.19861099775E+02  0.50488082733E+02 -0.35983177521E+03  0.37195620204E+03  0.77000000000E+02 0.  0.
   -5000001    1    1    2    0    0 -0.19861099775E+02 -0.50488082733E+02 -0.46531678385E+03  0.47475490426E+03  0.77000000000E+02 0.  0.
<mgrwt>
<rscale>  0 0.18986720E+03</rscale>
<asrwt>0</asrwt>
<pdfrwt beam="1">  1        2 0.15401825E-02 0.18986720E+03</pdfrwt>
<pdfrwt beam="2">  1       -2 0.11941851E+00 0.18986720E+03</pdfrwt>
<totfact> 0.43139770E+03</totfact>
</mgrwt>
</event>
<event>
 4    1  0.6919593E-004  0.2115286E+03  0.7818608E-02  0.1140361E+00
          2   -1    0    0  501    0  0.00000000000E+00  0.00000000000E+00  0.35688999399E+03  0.35688999400E+03  0.25500000000E-02 0.  1.
         -2   -1    0    0    0  501 -0.00000000000E+00 -0.00000000000E+00 -0.31343247843E+02  0.31343247947E+02  0.25500000000E-02 0. -1.
    5000001    1    1    2    0    0  0.36136259265E+02  0.15019978724E+02  0.50745704757E+02  0.10017761998E+03  0.77000000000E+02 0.  0.
   -5000001    1    1    2    0    0 -0.36136259265E+02 -0.15019978724E+02  0.27480104139E+03  0.28805562196E+03  0.77000000000E+02 0.  0.
<mgrwt>
<rscale>  0 0.21152864E+03</rscale>
<asrwt>0</asrwt>
<pdfrwt beam="1">  1        2 0.50984281E-01 0.21152864E+03</pdfrwt>
<pdfrwt beam="2">  1       -2 0.44776072E-02 0.21152864E+03</pdfrwt>
<totfact> 0.22071815E+04</totfact>
</mgrwt>
</event>
<event>
 4    1  0.6919593E-004  0.2679350E+03  0.7818608E-02  0.1102467E+00
          2   -1    0    0  501    0  0.00000000000E+00  0.00000000000E+00  0.66783145750E+03  0.66783145751E+03  0.25500000000E-02 0.  1.
         -2   -1    0    0    0  501 -0.00000000000E+00 -0.00000000000E+00 -0.26873988037E+02  0.26873988158E+02  0.25500000000E-02 0. -1.
    5000001    1    1    2    0    0  0.52148217842E+02 -0.89090673789E+02  0.22480042315E+03  0.25907685159E+03  0.77000000000E+02 0.  0.
   -5000001    1    1    2    0    0 -0.52148217842E+02  0.89090673789E+02  0.41615704632E+03  0.43562859408E+03  0.77000000000E+02 0.  0.
<mgrwt>
<rscale>  0 0.26793503E+03</rscale>
<asrwt>0</asrwt>
<pdfrwt beam="1">  1        2 0.95404497E-01 0.26793503E+03</pdfrwt>
<pdfrwt beam="2">  1       -2 0.38391410E-02 0.26793503E+03</pdfrwt>
<totfact> 0.14102293E+04</totfact>
</mgrwt>
</event>
<event>
 4    1  0.6919593E-004  0.2139283E+03  0.7818608E-02  0.1138492E+00
          2   -1    0    0  501    0  0.00000000000E+00  0.00000000000E+00  0.12855446155E+03  0.12855446158E+03  0.25500000000E-02 0.  1.
         -2   -1    0    0    0  501 -0.00000000000E+00 -0.00000000000E+00 -0.88999865362E+02  0.88999865399E+02  0.25500000000E-02 0. -1.
    5000001    1    1    2    0    0  0.51657799836E+02 -0.20366200587E+00  0.74008090432E+02  0.11863712409E+03  0.77000000000E+02 0.  0.
   -5000001    1    1    2    0    0 -0.51657799836E+02  0.20366200587E+00 -0.34453494242E+02  0.98917202890E+02  0.77000000000E+02 0.  0.
<mgrwt>
<rscale>  0 0.21392830E+03</rscale>
<asrwt>0</asrwt>
<pdfrwt beam="1">  1        2 0.18364923E-01 0.21392830E+03</pdfrwt>
<pdfrwt beam="2">  1       -2 0.12714266E-01 0.21392830E+03</pdfrwt>
<totfact> 0.13390745E+04</totfact>
</mgrwt>
</event>
<event>
 4    1  0.6919593E-004  0.4805770E+03  0.7818608E-02  0.1018977E+00
         -2   -1    0    0    0  501 -0.00000000000E+00  0.00000000000E+00  0.56871161243E+02  0.56871161300E+02  0.25500000000E-02 0. -1.
          2   -1    0    0  501    0  0.00000000000E+00 -0.00000000000E+00 -0.10152519276E+04  0.10152519276E+04  0.25500000000E-02 0.  1.
    5000001    1    1    2    0    0  0.19959272541E+03 -0.73602037035E+02 -0.29856891255E+03  0.37460233773E+03  0.77000000000E+02 0.  0.
   -5000001    1    1    2    0    0 -0.19959272541E+03  0.73602037035E+02 -0.65981185380E+03  0.69752075117E+03  0.77000000000E+02 0.  0.
<mgrwt>
<rscale>  0 0.48057697E+03</rscale>
<asrwt>0</asrwt>
<pdfrwt beam="1">  1        2 0.14503598E+00 0.48057697E+03</pdfrwt>
<pdfrwt beam="2">  1       -2 0.81244522E-02 0.48057697E+03</pdfrwt>
<totfact> 0.26409982E+03</totfact>
</mgrwt>
</event>
<event>
 4    1  0.6919593E-004  0.2303784E+03  0.7818608E-02  0.1126374E+00
          2   -1    0    0  501    0  0.00000000000E+00  0.00000000000E+00  0.33096874518E+02  0.33096874616E+02  0.25500000000E-02 0.  1.
         -2   -1    0    0    0  501 -0.00000000000E+00 -0.00000000000E+00 -0.40090061410E+03  0.40090061411E+03  0.25500000000E-02 0. -1.
    5000001    1    1    2    0    0 -0.37892070089E+02 -0.73176851447E+02 -0.22803763993E+03  0.25440288086E+03  0.77000000000E+02 0.  0.
   -5000001    1    1    2    0    0  0.37892070089E+02  0.73176851447E+02 -0.13976609965E+03  0.17959460787E+03  0.77000000000E+02 0.  0.
<mgrwt>
<rscale>  0 0.23037845E+03</rscale>
<asrwt>0</asrwt>
<pdfrwt beam="1">  1        2 0.47281252E-02 0.23037845E+03</pdfrwt>
<pdfrwt beam="2">  1       -2 0.57271514E-01 0.23037845E+03</pdfrwt>
<totfact> 0.48612333E+03</totfact>
</mgrwt>
</event>
<event>
 4    1  0.6919593E-004  0.3561330E+03  0.7818608E-02  0.1060126E+00
          2   -1    0    0  501    0  0.00000000000E+00  0.00000000000E+00  0.68640219532E+03  0.68640219532E+03  0.25500000000E-02 0.  1.
         -2   -1    0    0    0  501 -0.00000000000E+00 -0.00000000000E+00 -0.46194033738E+02  0.46194033808E+02  0.25500000000E-02 0. -1.
    5000001    1    1    2    0    0  0.60838462297E+02 -0.88874237452E+02  0.56505055382E+03  0.58035426848E+03  0.77000000000E+02 0.  0.
   -5000001    1    1    2    0    0 -0.60838462297E+02  0.88874237452E+02  0.75157607765E+02  0.15224196065E+03  0.77000000000E+02 0.  0.
<mgrwt>
<rscale>  0 0.35613304E+03</rscale>
<asrwt>0</asrwt>
<pdfrwt beam="1">  1        2 0.98057447E-01 0.35613304E+03</pdfrwt>
<pdfrwt beam="2">  1       -2 0.65991483E-02 0.35613304E+03</pdfrwt>
<totfact> 0.60317222E+03</totfact>
</mgrwt>
</event>
<event>
 4    1  0.6919593E-004  0.1732156E+03  0.7818608E-02  0.1174535E+00
         -2   -1    0    0    0  501 -0.00000000000E+00  0.00000000000E+00  0.15126162302E+02  0.15126162517E+02  0.25500000000E-02 0. -1.
          2   -1    0    0  501    0  0.00000000000E+00 -0.00000000000E+00 -0.49588971216E+03  0.49588971217E+03  0.25500000000E-02 0.  1.
    5000001    1    1    2    0    0  0.28809048135E+02 -0.23867953692E+02 -0.20166050475E+03  0.21907898038E+03  0.77000000000E+02 0.  0.
   -5000001    1    1    2    0    0 -0.28809048135E+02  0.23867953692E+02 -0.27910304511E+03  0.29193689430E+03  0.77000000000E+02 0.  0.
<mgrwt>
<rscale>  0 0.17321557E+03</rscale>
<asrwt>0</asrwt>
<pdfrwt beam="1">  1        2 0.70841377E-01 0.17321557E+03</pdfrwt>
<pdfrwt beam="2">  1       -2 0.21608807E-02 0.17321557E+03</pdfrwt>
<totfact> 0.44800141E+04</totfact>
</mgrwt>
</event>
<event>
 4    1  0.6919593E-004  0.2381289E+03  0.7818608E-02  0.1121046E+00
         -2   -1    0    0    0  501 -0.00000000000E+00  0.00000000000E+00  0.18809141212E+02  0.18809141385E+02  0.25500000000E-02 0. -1.
          2   -1    0    0  501    0  0.00000000000E+00 -0.00000000000E+00 -0.75369428445E+03  0.75369428446E+03  0.25500000000E-02 0.  1.
    5000001    1    1    2    0    0  0.31241418101E+02 -0.73058218853E+02 -0.51010037496E+03  0.52196256770E+03  0.77000000000E+02 0.  0.
   -5000001    1    1    2    0    0 -0.31241418101E+02  0.73058218853E+02 -0.22478476828E+03  0.25054085814E+03  0.77000000000E+02 0.  0.
<mgrwt>
<rscale>  0 0.23812889E+03</rscale>
<asrwt>0</asrwt>
<pdfrwt beam="1">  1        2 0.10767059E+00 0.23812889E+03</pdfrwt>
<pdfrwt beam="2">  1       -2 0.26870207E-02 0.23812889E+03</pdfrwt>
<totfact> 0.20658182E+04</totfact>
</mgrwt>
</event>
<event>
 4    1  0.6919593E-004  0.3232718E+03  0.7818608E-02  0.1074153E+00
          2   -1    0    0  501    0  0.00000000000E+00  0.00000000000E+00  0.23804427412E+03  0.23804427414E+03  0.25500000000E-02 0.  1.
         -2   -1    0    0    0  501 -0.00000000000E+00 -0.00000000000E+00 -0.10975338638E+03  0.10975338641E+03  0.25500000000E-02 0. -1.
    5000001    1    1    2    0    0 -0.13972744006E+03  0.18975159827E+02  0.83190154207E+02  0.18092378493E+03  0.77000000000E+02 0.  0.
   -5000001    1    1    2    0    0  0.13972744006E+03 -0.18975159827E+02  0.45100733539E+02  0.16687387561E+03  0.77000000000E+02 0.  0.
<mgrwt>
<rscale>  0 0.32327181E+03</rscale>
<asrwt>0</asrwt>
<pdfrwt beam="1">  1        2 0.34006325E-01 0.32327181E+03</pdfrwt>
<pdfrwt beam="2">  1       -2 0.15679055E-01 0.32327181E+03</pdfrwt>
<totfact> 0.48565131E+03</totfact>
</mgrwt>
</event>
<event>
 4    1  0.6919593E-004  0.3069314E+03  0.7818608E-02  0.1081826E+00
         -2   -1    0    0    0  501 -0.00000000000E+00  0.00000000000E+00  0.80991888209E+02  0.80991888249E+02  0.25500000000E-02 0. -1.
          2   -1    0    0  501    0  0.00000000000E+00 -0.00000000000E+00 -0.29079109645E+03  0.29079109647E+03  0.25500000000E-02 0.  1.
    5000001    1    1    2    0    0 -0.12795033119E+03  0.29898556547E+02 -0.81996638580E+02  0.17296722139E+03  0.77000000000E+02 0.  0.
   -5000001    1    1    2    0    0  0.12795033119E+03 -0.29898556547E+02 -0.12780256967E+03  0.19881576333E+03  0.77000000000E+02 0.  0.
<mgrwt>
<rscale>  0 0.30693139E+03</rscale>
<asrwt>0</asrwt>
<pdfrwt beam="1">  1        2 0.41541585E-01 0.30693139E+03</pdfrwt>
<pdfrwt beam="2">  1       -2 0.11570270E-01 0.30693139E+03</pdfrwt>
<totfact> 0.64195140E+03</totfact>
</mgrwt>
</event>
<event>
 4    1  0.6919593E-004  0.1716318E+03  0.7818608E-02  0.1176157E+00
          2   -1    0    0  501    0  0.00000000000E+00  0.00000000000E+00  0.63248198343E+01  0.63248203484E+01  0.25500000000E-02 0.  1.
         -2   -1    0    0    0  501 -0.00000000000E+00 -0.00000000000E+00 -0.11643603679E+04  0.11643603679E+04  0.25500000000E-02 0. -1.
    5000001    1    1    2    0    0 -0.20268370584E+01 -0.14677351068E+02 -0.34118043535E+03  0.35007516645E+03  0.77000000000E+02 0.  0.
   -5000001    1    1    2    0    0  0.20268370584E+01  0.14677351068E+02 -0.81685511277E+03  0.82061002185E+03  0.77000000000E+02 0.  0.
<mgrwt>
<rscale>  0 0.17163181E+03</rscale>
<asrwt>0</asrwt>
<pdfrwt beam="1">  1        2 0.90354647E-03 0.17163181E+03</pdfrwt>
<pdfrwt beam="2">  1       -2 0.16633706E+00 0.17163181E+03</pdfrwt>
<totfact> 0.38866239E+03</totfact>
</mgrwt>
</event>
<event>
 4    1  0.6919593E-004  0.2191679E+03  0.7818608E-02  0.1134505E+00
         -2   -1    0    0    0  501 -0.00000000000E+00  0.00000000000E+00  0.15098941693E+02  0.15098941908E+02  0.25500000000E-02 0. -1.
          2   -1    0    0  501    0  0.00000000000E+00 -0.00000000000E+00 -0.79532971147E+03  0.79532971147E+03  0.25500000000E-02 0.  1.
    5000001    1    1    2    0    0 -0.72272226634E+02 -0.24761105018E+02 -0.33244347613E+03  0.34969136661E+03  0.77000000000E+02 0.  0.
   -5000001    1    1    2    0    0  0.72272226634E+02  0.24761105018E+02 -0.44778729365E+03  0.46073728677E+03  0.77000000000E+02 0.  0.
<mgrwt>
<rscale>  0 0.21916785E+03</rscale>
<asrwt>0</asrwt>
<pdfrwt beam="1">  1        2 0.11361850E+00 0.21916785E+03</pdfrwt>
<pdfrwt beam="2">  1       -2 0.21569922E-02 0.21916785E+03</pdfrwt>
<totfact> 0.26608519E+04</totfact>
</mgrwt>
</event>
<event>
 4    1  0.6919593E-004  0.3379796E+03  0.7818608E-02  0.1067660E+00
         -2   -1    0    0    0  501 -0.00000000000E+00  0.00000000000E+00  0.61466439406E+02  0.61466439459E+02  0.25500000000E-02 0. -1.
          2   -1    0    0  501    0  0.00000000000E+00 -0.00000000000E+00 -0.46460398859E+03  0.46460398859E+03  0.25500000000E-02 0.  1.
    5000001    1    1    2    0    0  0.80479261238E+02  0.12659659351E+03 -0.18417030638E+03  0.24970244438E+03  0.77000000000E+02 0.  0.
   -5000001    1    1    2    0    0 -0.80479261238E+02 -0.12659659351E+03 -0.21896724280E+03  0.27636798367E+03  0.77000000000E+02 0.  0.
<mgrwt>
<rscale>  0 0.33797960E+03</rscale>
<asrwt>0</asrwt>
<pdfrwt beam="1">  1        2 0.66371997E-01 0.33797960E+03</pdfrwt>
<pdfrwt beam="2">  1       -2 0.87809202E-02 0.33797960E+03</pdfrwt>
<totfact> 0.60120944E+03</totfact>
</mgrwt>
</event>
<event>
 4    1  0.6919593E-004  0.2627509E+03  0.7818608E-02  0.1105502E+00
         -2   -1    0    0    0  501 -0.00000000000E+00  0.00000000000E+00  0.25776052838E+02  0.25776052964E+02  0.25500000000E-02 0. -1.
          2   -1    0    0  501    0  0.00000000000E+00 -0.00000000000E+00 -0.66959459584E+03  0.66959459584E+03  0.25500000000E-02 0.  1.
    5000001    1    1    2    0    0  0.98430359892E+02  0.38269490306E+02 -0.28665849520E+03  0.31504790510E+03  0.77000000000E+02 0.  0.
   -5000001    1    1    2    0    0 -0.98430359892E+02 -0.38269490306E+02 -0.35716004780E+03  0.38032274371E+03  0.77000000000E+02 0.  0.
<mgrwt>
<rscale>  0 0.26275088E+03</rscale>
<asrwt>0</asrwt>
<pdfrwt beam="1">  1        2 0.95656360E-01 0.26275088E+03</pdfrwt>
<pdfrwt beam="2">  1       -2 0.36822937E-02 0.26275088E+03</pdfrwt>
<totfact> 0.14952771E+04</totfact>
</mgrwt>
</event>
<event>
 4    1  0.6919593E-004  0.2637862E+03  0.7818608E-02  0.1104890E+00
         -2   -1    0    0    0  501 -0.00000000000E+00  0.00000000000E+00  0.70913888870E+01  0.70913893455E+01  0.25500000000E-02 0. -1.
          2   -1    0    0  501    0  0.00000000000E+00 -0.00000000000E+00 -0.24530856860E+04  0.24530856860E+04  0.25500000000E-02 0.  1.
    5000001    1    1    2    0    0 -0.41273597372E+02  0.90598193093E+02 -0.85519569534E+03  0.86440743852E+03  0.77000000000E+02 0.  0.
   -5000001    1    1    2    0    0  0.41273597372E+02 -0.90598193093E+02 -0.15907986018E+04  0.15957696368E+04  0.77000000000E+02 0.  0.
<mgrwt>
<rscale>  0 0.26378616E+03</rscale>
<asrwt>0</asrwt>
<pdfrwt beam="1">  1        2 0.35044027E+00 0.26378616E+03</pdfrwt>
<pdfrwt beam="2">  1       -2 0.10130572E-02 0.26378616E+03</pdfrwt>
<totfact> 0.11064737E+04</totfact>
</mgrwt>
</event>
<event>
 4    1  0.6919593E-004  0.2351386E+03  0.7818608E-02  0.1123074E+00
          2   -1    0    0  501    0  0.00000000000E+00  0.00000000000E+00  0.70836534523E+03  0.70836534524E+03  0.25500000000E-02 0.  1.
         -2   -1    0    0    0  501 -0.00000000000E+00 -0.00000000000E+00 -0.19513295715E+02  0.19513295881E+02  0.25500000000E-02 0. -1.
    5000001    1    1    2    0    0 -0.64156299102E+02 -0.42312644599E+01  0.53423043837E+03  0.54356701113E+03  0.77000000000E+02 0.  0.
   -5000001    1    1    2    0    0  0.64156299102E+02  0.42312644599E+01  0.15462161115E+03  0.18431162999E+03  0.77000000000E+02 0.  0.
<mgrwt>
<rscale>  0 0.23513862E+03</rscale>
<asrwt>0</asrwt>
<pdfrwt beam="1">  1        2 0.10119504E+00 0.23513862E+03</pdfrwt>
<pdfrwt beam="2">  1       -2 0.27876140E-02 0.23513862E+03</pdfrwt>
<totfact> 0.21057430E+04</totfact>
</mgrwt>
</event>
<event>
 4    1  0.6919593E-004  0.2652805E+03  0.7818608E-02  0.1104011E+00
          2   -1    0    0  501    0  0.00000000000E+00  0.00000000000E+00  0.18263823474E+03  0.18263823476E+03  0.25500000000E-02 0.  1.
         -2   -1    0    0    0  501 -0.00000000000E+00 -0.00000000000E+00 -0.96329404915E+02  0.96329404949E+02  0.25500000000E-02 0. -1.
    5000001    1    1    2    0    0  0.51255639951E+02 -0.74085166676E+02 -0.19489942392E+02  0.12010249957E+03  0.77000000000E+02 0.  0.
   -5000001    1    1    2    0    0 -0.51255639951E+02  0.74085166676E+02  0.10579877221E+03  0.15886514014E+03  0.77000000000E+02 0.  0.
<mgrwt>
<rscale>  0 0.26528047E+03</rscale>
<asrwt>0</asrwt>
<pdfrwt beam="1">  1        2 0.26091176E-01 0.26528047E+03</pdfrwt>
<pdfrwt beam="2">  1       -2 0.13761344E-01 0.26528047E+03</pdfrwt>
<totfact> 0.80075577E+03</totfact>
</mgrwt>
</event>
<event>
 4    1  0.6919593E-004  0.3551638E+03  0.7818608E-02  0.1060515E+00
         -2   -1    0    0    0  501 -0.00000000000E+00  0.00000000000E+00  0.35044889671E+02  0.35044889764E+02  0.25500000000E-02 0. -1.
          2   -1    0    0  501    0  0.00000000000E+00 -0.00000000000E+00 -0.89985533891E+03  0.89985533891E+03  0.25500000000E-02 0.  1.
    5000001    1    1    2    0    0 -0.10587847302E+03 -0.11502655919E+03 -0.34256018945E+03  0.38434079118E+03  0.77000000000E+02 0.  0.
   -5000001    1    1    2    0    0  0.10587847302E+03  0.11502655919E+03 -0.52225025979E+03  0.55055943750E+03  0.77000000000E+02 0.  0.
<mgrwt>
<rscale>  0 0.35516380E+03</rscale>
<asrwt>0</asrwt>
<pdfrwt beam="1">  1        2 0.12855075E+00 0.35516380E+03</pdfrwt>
<pdfrwt beam="2">  1       -2 0.50064134E-02 0.35516380E+03</pdfrwt>
<totfact> 0.65883066E+03</totfact>
</mgrwt>
</event>
<event>
 4    1  0.6919593E-004  0.2524845E+03  0.7818608E-02  0.1111745E+00
          2   -1    0    0  501    0  0.00000000000E+00  0.00000000000E+00  0.11237984042E+03  0.11237984045E+03  0.25500000000E-02 0.  1.
         -2   -1    0    0    0  501 -0.00000000000E+00 -0.00000000000E+00 -0.14181465835E+03  0.14181465837E+03  0.25500000000E-02 0. -1.
    5000001    1    1    2    0    0  0.56668592152E+02  0.58344455910E+02 -0.73358812725E+02  0.13388771518E+03  0.77000000000E+02 0.  0.
   -5000001    1    1    2    0    0 -0.56668592152E+02 -0.58344455910E+02  0.43923994799E+02  0.12030678365E+03  0.77000000000E+02 0.  0.
<mgrwt>
<rscale>  0 0.25248452E+03</rscale>
<asrwt>0</asrwt>
<pdfrwt beam="1">  1        2 0.16054263E-01 0.25248452E+03</pdfrwt>
<pdfrwt beam="2">  1       -2 0.20259237E-01 0.25248452E+03</pdfrwt>
<totfact> 0.72869540E+03</totfact>
</mgrwt>
</event>
<event>
 4    1  0.6919593E-004  0.2836816E+03  0.7818608E-02  0.1093695E+00
         -2   -1    0    0    0  501 -0.00000000000E+00  0.00000000000E+00  0.31997613796E+02  0.31997613898E+02  0.25500000000E-02 0. -1.
          2   -1    0    0  501    0  0.00000000000E+00 -0.00000000000E+00 -0.62875974333E+03  0.62875974334E+03  0.25500000000E-02 0.  1.
    5000001    1    1    2    0    0 -0.10836491802E+03  0.41417155705E+02 -0.23538540002E+03  0.27348422768E+03  0.77000000000E+02 0.  0.
   -5000001    1    1    2    0    0  0.10836491802E+03 -0.41417155705E+02 -0.36137672951E+03  0.38727312956E+03  0.77000000000E+02 0.  0.
<mgrwt>
<rscale>  0 0.28368159E+03</rscale>
<asrwt>0</asrwt>
<pdfrwt beam="1">  1        2 0.89822813E-01 0.28368159E+03</pdfrwt>
<pdfrwt beam="2">  1       -2 0.45710881E-02 0.28368159E+03</pdfrwt>
<totfact> 0.11655942E+04</totfact>
</mgrwt>
</event>
<event>
 4    1  0.6919593E-004  0.2474820E+03  0.7818608E-02  0.1114907E+00
          2   -1    0    0  501    0  0.00000000000E+00  0.00000000000E+00  0.31225978921E+01  0.31225989333E+01  0.25500000000E-02 0. -1.
         -2   -1    0    0    0  501 -0.00000000000E+00 -0.00000000000E+00 -0.49035560019E+04  0.49035560019E+04  0.25500000000E-02 0.  1.
    5000001    1    1    2    0    0  0.95292280695E+02 -0.14937178713E+02 -0.22738863522E+04  0.22772333830E+04  0.77000000000E+02 0.  0.
   -5000001    1    1    2    0    0 -0.95292280695E+02  0.14937178713E+02 -0.26265470518E+04  0.26294452178E+04  0.77000000000E+02 0.  0.
<mgrwt>
<rscale>  0 0.24748201E+03</rscale>
<asrwt>0</asrwt>
<pdfrwt beam="1">  1        2 0.44608863E-03 0.24748201E+03</pdfrwt>
<pdfrwt beam="2">  1       -2 0.70050307E+00 0.24748201E+03</pdfrwt>
<totfact> 0.12752879E+01</totfact>
</mgrwt>
</event>
<event>
 4    1  0.6919593E-004  0.2030811E+03  0.7818608E-02  0.1147165E+00
         -2   -1    0    0    0  501 -0.00000000000E+00  0.00000000000E+00  0.44118500310E+01  0.44118507679E+01  0.25500000000E-02 0. -1.
          2   -1    0    0  501    0  0.00000000000E+00 -0.00000000000E+00 -0.23369971286E+04  0.23369971286E+04  0.25500000000E-02 0.  1.
    5000001    1    1    2    0    0  0.50885736570E+02  0.42284881814E+02 -0.11429123267E+04  0.11474122869E+04  0.77000000000E+02 0.  0.
   -5000001    1    1    2    0    0 -0.50885736570E+02 -0.42284881814E+02 -0.11896729518E+04  0.11939966925E+04  0.77000000000E+02 0.  0.
<mgrwt>
<rscale>  0 0.20308108E+03</rscale>
<asrwt>0</asrwt>
<pdfrwt beam="1">  1        2 0.33385594E+00 0.20308108E+03</pdfrwt>
<pdfrwt beam="2">  1       -2 0.63026584E-03 0.20308108E+03</pdfrwt>
<totfact> 0.24855345E+04</totfact>
</mgrwt>
</event>
<event>
 4    1  0.6919593E-004  0.4933535E+03  0.7818608E-02  0.1015528E+00
          2   -1    0    0  501    0  0.00000000000E+00  0.00000000000E+00  0.46096964575E+04  0.46096964575E+04  0.25500000000E-02 0.  1.
         -2   -1    0    0    0  501 -0.00000000000E+00 -0.00000000000E+00 -0.13200310085E+02  0.13200310331E+02  0.25500000000E-02 0. -1.
    5000001    1    1    2    0    0 -0.63771069995E+02 -0.16568705450E+03  0.86481450149E+03  0.88620092043E+03  0.77000000000E+02 0.  0.
   -5000001    1    1    2    0    0  0.63771069995E+02  0.16568705450E+03  0.37316816459E+04  0.37366958474E+04  0.77000000000E+02 0.  0.
<mgrwt>
<rscale>  0 0.49335352E+03</rscale>
<asrwt>0</asrwt>
<pdfrwt beam="1">  1        2 0.65852887E+00 0.49335352E+03</pdfrwt>
<pdfrwt beam="2">  1       -2 0.18857563E-02 0.49335352E+03</pdfrwt>
<totfact> 0.21102898E+02</totfact>
</mgrwt>
</event>
<event>
 4    1  0.6919593E-004  0.2420622E+03  0.7818608E-02  0.1118427E+00
          2   -1    0    0  501    0  0.00000000000E+00  0.00000000000E+00  0.24069949589E+04  0.24069949589E+04  0.25500000000E-02 0.  1.
         -2   -1    0    0    0  501 -0.00000000000E+00 -0.00000000000E+00 -0.60858127094E+01  0.60858132437E+01  0.25500000000E-02 0. -1.
    5000001    1    1    2    0    0 -0.17182813760E+02  0.87031860056E+02  0.14910473296E+04  0.14956673871E+04  0.77000000000E+02 0.  0.
   -5000001    1    1    2    0    0  0.17182813760E+02 -0.87031860056E+02  0.90986181654E+03  0.91741338499E+03  0.77000000000E+02 0.  0.
<mgrwt>
<rscale>  0 0.24206215E+03</rscale>
<asrwt>0</asrwt>
<pdfrwt beam="1">  1        2 0.34385688E+00 0.24206215E+03</pdfrwt>
<pdfrwt beam="2">  1       -2 0.86940069E-03 0.24206215E+03</pdfrwt>
<totfact> 0.14531929E+04</totfact>
</mgrwt>
</event>
<event>
 4    1  0.6919593E-004  0.4867644E+03  0.7818608E-02  0.1017293E+00
          2   -1    0    0  501    0  0.00000000000E+00  0.00000000000E+00  0.32476211594E+04  0.32476211594E+04  0.25500000000E-02 0.  1.
         -2   -1    0    0    0  501 -0.00000000000E+00 -0.00000000000E+00 -0.18239473422E+02  0.18239473600E+02  0.25500000000E-02 0. -1.
    5000001    1    1    2    0    0  0.21673306690E+03  0.57125816168E+02  0.12429846196E+04  0.12653759701E+04  0.77000000000E+02 0.  0.
   -5000001    1    1    2    0    0 -0.21673306690E+03 -0.57125816168E+02  0.19863970664E+04  0.20004846629E+04  0.77000000000E+02 0.  0.
<mgrwt>
<rscale>  0 0.48676442E+03</rscale>
<asrwt>0</asrwt>
<pdfrwt beam="1">  1        2 0.46394622E+00 0.48676442E+03</pdfrwt>
<pdfrwt beam="2">  1       -2 0.26056372E-02 0.48676442E+03</pdfrwt>
<totfact> 0.10341379E+03</totfact>
</mgrwt>
</event>
<event>
 4    1  0.6919593E-004  0.1674285E+03  0.7818608E-02  0.1180556E+00
         -2   -1    0    0    0  501 -0.00000000000E+00  0.00000000000E+00  0.10617208418E+02  0.10617208724E+02  0.25500000000E-02 0. -1.
          2   -1    0    0  501    0  0.00000000000E+00 -0.00000000000E+00 -0.66006757433E+03  0.66006757433E+03  0.25500000000E-02 0.  1.
    5000001    1    1    2    0    0 -0.52018660270E+00  0.31470014272E+02 -0.28705305735E+03  0.29886299558E+03  0.77000000000E+02 0.  0.
   -5000001    1    1    2    0    0  0.52018660270E+00 -0.31470014272E+02 -0.36239730856E+03  0.37182178748E+03  0.77000000000E+02 0.  0.
<mgrwt>
<rscale>  0 0.16742849E+03</rscale>
<asrwt>0</asrwt>
<pdfrwt beam="1">  1        2 0.94295342E-01 0.16742849E+03</pdfrwt>
<pdfrwt beam="2">  1       -2 0.15167445E-02 0.16742849E+03</pdfrwt>
<totfact> 0.54262757E+04</totfact>
</mgrwt>
</event>
<event>
 4    1  0.6919593E-004  0.1869151E+03  0.7818608E-02  0.1161273E+00
          2   -1    0    0  501    0  0.00000000000E+00  0.00000000000E+00  0.19955729065E+03  0.19955729067E+03  0.25500000000E-02 0.  1.
         -2   -1    0    0    0  501 -0.00000000000E+00 -0.00000000000E+00 -0.43768452299E+02  0.43768452373E+02  0.25500000000E-02 0. -1.
    5000001    1    1    2    0    0 -0.11143889744E+02  0.50140997103E+02  0.61071081052E+02  0.11089176169E+03  0.77000000000E+02 0.  0.
   -5000001    1    1    2    0    0  0.11143889744E+02 -0.50140997103E+02  0.94717757299E+02  0.13243398135E+03  0.77000000000E+02 0.  0.
<mgrwt>
<rscale>  0 0.18691510E+03</rscale>
<asrwt>0</asrwt>
<pdfrwt beam="1">  1        2 0.28508185E-01 0.18691510E+03</pdfrwt>
<pdfrwt beam="2">  1       -2 0.62526359E-02 0.18691510E+03</pdfrwt>
<totfact> 0.24643142E+04</totfact>
</mgrwt>
</event>
<event>
 4    1  0.6919593E-004  0.3948648E+03  0.7818608E-02  0.1045572E+00
         -2   -1    0    0    0  501 -0.00000000000E+00  0.00000000000E+00  0.15298468240E+02  0.15298468453E+02  0.25500000000E-02 0. -1.
          2   -1    0    0  501    0  0.00000000000E+00 -0.00000000000E+00 -0.25479384203E+04  0.25479384203E+04  0.25500000000E-02 0.  1.
    5000001    1    1    2    0    0  0.11156405032E+03  0.13839842336E+03 -0.10191427297E+04  0.10373917122E+04  0.77000000000E+02 0.  0.
   -5000001    1    1    2    0    0 -0.11156405032E+03 -0.13839842336E+03 -0.15134972224E+04  0.15258451766E+04  0.77000000000E+02 0.  0.
<mgrwt>
<rscale>  0 0.39486481E+03</rscale>
<asrwt>0</asrwt>
<pdfrwt beam="1">  1        2 0.36399093E+00 0.39486481E+03</pdfrwt>
<pdfrwt beam="2">  1       -2 0.21854971E-02 0.39486481E+03</pdfrwt>
<totfact> 0.31966447E+03</totfact>
</mgrwt>
</event>
<event>
 4    1  0.6919593E-004  0.2364789E+03  0.7818608E-02  0.1122161E+00
         -2   -1    0    0    0  501 -0.00000000000E+00  0.00000000000E+00  0.48832748548E+02  0.48832748615E+02  0.25500000000E-02 0. -1.
          2   -1    0    0  501    0  0.00000000000E+00 -0.00000000000E+00 -0.28629483629E+03  0.28629483630E+03  0.25500000000E-02 0.  1.
    5000001    1    1    2    0    0 -0.20559706762E+02 -0.67177580609E+02 -0.39623300785E+02  0.11151024547E+03  0.77000000000E+02 0.  0.
   -5000001    1    1    2    0    0  0.20559706762E+02  0.67177580609E+02 -0.19783878696E+03  0.22361733945E+03  0.77000000000E+02 0.  0.
<mgrwt>
<rscale>  0 0.23647887E+03</rscale>
<asrwt>0</asrwt>
<pdfrwt beam="1">  1        2 0.40899261E-01 0.23647887E+03</pdfrwt>
<pdfrwt beam="2">  1       -2 0.69761071E-02 0.23647887E+03</pdfrwt>
<totfact> 0.14327353E+04</totfact>
</mgrwt>
</event>
<event>
 4    1  0.6919593E-004  0.2022552E+03  0.7818608E-02  0.1147850E+00
         -2   -1    0    0    0  501 -0.00000000000E+00  0.00000000000E+00  0.25844140111E+03  0.25844140112E+03  0.25500000000E-02 0. -1.
          2   -1    0    0  501    0  0.00000000000E+00 -0.00000000000E+00 -0.39571044670E+02  0.39571044752E+02  0.25500000000E-02 0.  1.
    5000001    1    1    2    0    0 -0.65145149421E+02 -0.22993356786E+01  0.11970911150E+03  0.15655174484E+03  0.77000000000E+02 0.  0.
   -5000001    1    1    2    0    0  0.65145149421E+02  0.22993356786E+01  0.99161244940E+02  0.14146070103E+03  0.77000000000E+02 0.  0.
<mgrwt>
<rscale>  0 0.20225525E+03</rscale>
<asrwt>0</asrwt>
<pdfrwt beam="1">  1        2 0.56530065E-02 0.20225525E+03</pdfrwt>
<pdfrwt beam="2">  1       -2 0.36920199E-01 0.20225525E+03</pdfrwt>
<totfact> 0.90091008E+03</totfact>
</mgrwt>
</event>
<event>
 4    1  0.6919593E-004  0.2889098E+03  0.7818608E-02  0.1090920E+00
         -2   -1    0    0    0  501 -0.00000000000E+00  0.00000000000E+00  0.65607609029E+02  0.65607609079E+02  0.25500000000E-02 0. -1.
          2   -1    0    0  501    0  0.00000000000E+00 -0.00000000000E+00 -0.31806090321E+03  0.31806090323E+03  0.25500000000E-02 0.  1.
    5000001    1    1    2    0    0  0.10283159682E+03 -0.65824402188E+02 -0.11882960680E+03  0.18696701496E+03  0.77000000000E+02 0.  0.
   -5000001    1    1    2    0    0 -0.10283159682E+03  0.65824402188E+02 -0.13362368738E+03  0.19670149735E+03  0.77000000000E+02 0.  0.
<mgrwt>
<rscale>  0 0.28890978E+03</rscale>
<asrwt>0</asrwt>
<pdfrwt beam="1">  1        2 0.45437271E-01 0.28890978E+03</pdfrwt>
<pdfrwt beam="2">  1       -2 0.93725158E-02 0.28890978E+03</pdfrwt>
<totfact> 0.81429832E+03</totfact>
</mgrwt>
</event>
<event>
 4    1  0.6919593E-004  0.2566615E+03  0.7818608E-02  0.1109166E+00
         -2   -1    0    0    0  501 -0.00000000000E+00  0.00000000000E+00  0.12920086044E+03  0.12920086047E+03  0.25500000000E-02 0. -1.
          2   -1    0    0  501    0  0.00000000000E+00 -0.00000000000E+00 -0.12746645901E+03  0.12746645904E+03  0.25500000000E-02 0.  1.
    5000001    1    1    2    0    0 -0.65554667500E+02 -0.25545094464E+02 -0.73899537622E+02  0.12782843167E+03  0.77000000000E+02 0.  0.
   -5000001    1    1    2    0    0  0.65554667500E+02  0.25545094464E+02  0.75633939054E+02  0.12883888784E+03  0.77000000000E+02 0.  0.
<mgrwt>
<rscale>  0 0.25666146E+03</rscale>
<asrwt>0</asrwt>
<pdfrwt beam="1">  1        2 0.18209494E-01 0.25666146E+03</pdfrwt>
<pdfrwt beam="2">  1       -2 0.18457266E-01 0.25666146E+03</pdfrwt>
<totfact> 0.73776839E+03</totfact>
</mgrwt>
</event>
<event>
 4    1  0.6919593E-004  0.2583815E+03  0.7818608E-02  0.1108120E+00
         -2   -1    0    0    0  501 -0.00000000000E+00  0.00000000000E+00  0.70692257415E+01  0.70692262014E+01  0.25500000000E-02 0. -1.
          2   -1    0    0  501    0  0.00000000000E+00 -0.00000000000E+00 -0.23609731096E+04  0.23609731096E+04  0.25500000000E-02 0.  1.
    5000001    1    1    2    0    0  0.73411067854E+02 -0.33617230210E+02 -0.58003933016E+03  0.59067243679E+03  0.77000000000E+02 0.  0.
   -5000001    1    1    2    0    0 -0.73411067854E+02  0.33617230210E+02 -0.17738645537E+04  0.17773698990E+04  0.77000000000E+02 0.  0.
<mgrwt>
<rscale>  0 0.25838152E+03</rscale>
<asrwt>0</asrwt>
<pdfrwt beam="1">  1        2 0.33728137E+00 0.25838152E+03</pdfrwt>
<pdfrwt beam="2">  1       -2 0.10098909E-02 0.25838152E+03</pdfrwt>
<totfact> 0.12340667E+04</totfact>
</mgrwt>
</event>
<event>
 4    1  0.6919593E-004  0.3764140E+03  0.7818608E-02  0.1052267E+00
         -2   -1    0    0    0  501 -0.00000000000E+00  0.00000000000E+00  0.18109567277E+03  0.18109567279E+03  0.25500000000E-02 0. -1.
          2   -1    0    0  501    0  0.00000000000E+00 -0.00000000000E+00 -0.19559752780E+03  0.19559752781E+03  0.25500000000E-02 0.  1.
    5000001    1    1    2    0    0  0.19412975004E+02 -0.17057253394E+03 -0.11838317804E+02  0.18852320468E+03  0.77000000000E+02 0.  0.
   -5000001    1    1    2    0    0 -0.19412975004E+02  0.17057253394E+03 -0.26635372231E+01  0.18816999592E+03  0.77000000000E+02 0.  0.
<mgrwt>
<rscale>  0 0.37641395E+03</rscale>
<asrwt>0</asrwt>
<pdfrwt beam="1">  1        2 0.27942504E-01 0.37641395E+03</pdfrwt>
<pdfrwt beam="2">  1       -2 0.25870811E-01 0.37641395E+03</pdfrwt>
<totfact> 0.25542586E+03</totfact>
</mgrwt>
</event>
<event>
 4    1  0.6919593E-004  0.3699769E+03  0.7818608E-02  0.1054702E+00
          2   -1    0    0  501    0  0.00000000000E+00  0.00000000000E+00  0.55589464217E+03  0.55589464218E+03  0.25500000000E-02 0.  1.
         -2   -1    0    0    0  501 -0.00000000000E+00 -0.00000000000E+00 -0.61559747868E+02  0.61559747921E+02  0.25500000000E-02 0. -1.
    5000001    1    1    2    0    0 -0.15660655405E+03  0.55162238416E+02  0.20228525495E+03  0.27279444585E+03  0.77000000000E+02 0.  0.
   -5000001    1    1    2    0    0  0.15660655405E+03 -0.55162238416E+02  0.29204963936E+03  0.34465994425E+03  0.77000000000E+02 0.  0.
<mgrwt>
<rscale>  0 0.36997694E+03</rscale>
<asrwt>0</asrwt>
<pdfrwt beam="1">  1        2 0.79413516E-01 0.36997694E+03</pdfrwt>
<pdfrwt beam="2">  1       -2 0.87942501E-02 0.36997694E+03</pdfrwt>
<totfact> 0.49169298E+03</totfact>
</mgrwt>
</event>
<event>
 4    1  0.6919593E-004  0.2186621E+03  0.7818608E-02  0.1134884E+00
          2   -1    0    0  501    0  0.00000000000E+00  0.00000000000E+00  0.13083641674E+04  0.13083641674E+04  0.25500000000E-02 0.  1.
         -2   -1    0    0    0  501 -0.00000000000E+00 -0.00000000000E+00 -0.91360493062E+01  0.91360496620E+01  0.25500000000E-02 0. -1.
    5000001    1    1    2    0    0  0.25291323076E+01  0.53037012698E+02  0.30850883854E+03  0.32237559567E+03  0.77000000000E+02 0.  0.
   -5000001    1    1    2    0    0 -0.25291323076E+01 -0.53037012698E+02  0.99071927953E+03  0.99512462137E+03  0.77000000000E+02 0.  0.
<mgrwt>
<rscale>  0 0.21866211E+03</rscale>
<asrwt>0</asrwt>
<pdfrwt beam="1">  1        2 0.18690921E+00 0.21866211E+03</pdfrwt>
<pdfrwt beam="2">  1       -2 0.13051497E-02 0.21866211E+03</pdfrwt>
<totfact> 0.27936361E+04</totfact>
</mgrwt>
</event>
<event>
 4    1  0.6919593E-004  0.4510434E+03  0.7818608E-02  0.1027411E+00
         -2   -1    0    0    0  501 -0.00000000000E+00  0.00000000000E+00  0.74212893774E+02  0.74212893818E+02  0.25500000000E-02 0. -1.
          2   -1    0    0  501    0  0.00000000000E+00 -0.00000000000E+00 -0.68532613848E+03  0.68532613848E+03  0.25500000000E-02 0.  1.
    5000001    1    1    2    0    0  0.14224620183E+03  0.12510491142E+03 -0.14539604562E+03  0.25090681712E+03  0.77000000000E+02 0.  0.
   -5000001    1    1    2    0    0 -0.14224620183E+03 -0.12510491142E+03 -0.46571719908E+03  0.50863221518E+03  0.77000000000E+02 0.  0.
<mgrwt>
<rscale>  0 0.45104339E+03</rscale>
<asrwt>0</asrwt>
<pdfrwt beam="1">  1        2 0.97903730E-01 0.45104339E+03</pdfrwt>
<pdfrwt beam="2">  1       -2 0.10601842E-01 0.45104339E+03</pdfrwt>
<totfact> 0.28628446E+03</totfact>
</mgrwt>
</event>
<event>
 4    1  0.6919593E-004  0.2863921E+03  0.7818608E-02  0.1092248E+00
         -2   -1    0    0    0  501 -0.00000000000E+00  0.00000000000E+00  0.26868334523E+02  0.26868334644E+02  0.25500000000E-02 0. -1.
          2   -1    0    0  501    0  0.00000000000E+00 -0.00000000000E+00 -0.76317024793E+03  0.76317024793E+03  0.25500000000E-02 0.  1.
    5000001    1    1    2    0    0 -0.68839529846E+02 -0.96320415873E+02 -0.30289351845E+03  0.33420051900E+03  0.77000000000E+02 0.  0.
   -5000001    1    1    2    0    0  0.68839529846E+02  0.96320415873E+02 -0.43340839496E+03  0.45583806357E+03  0.77000000000E+02 0.  0.
<mgrwt>
<rscale>  0 0.28639213E+03</rscale>
<asrwt>0</asrwt>
<pdfrwt beam="1">  1        2 0.10902431E+00 0.28639213E+03</pdfrwt>
<pdfrwt beam="2">  1       -2 0.38383340E-02 0.28639213E+03</pdfrwt>
<totfact> 0.12061354E+04</totfact>
</mgrwt>
</event>
<event>
 4    1  0.6919593E-004  0.2347616E+03  0.7818608E-02  0.1123333E+00
          2   -1    0    0  501    0  0.00000000000E+00  0.00000000000E+00  0.13377842391E+03  0.13377842394E+03  0.25500000000E-02 0.  1.
         -2   -1    0    0    0  501 -0.00000000000E+00 -0.00000000000E+00 -0.10299309329E+03  0.10299309332E+03  0.25500000000E-02 0. -1.
    5000001    1    1    2    0    0  0.80150314902E+02 -0.35905625428E+02  0.36323548795E+01  0.11685666827E+03  0.77000000000E+02 0.  0.
   -5000001    1    1    2    0    0 -0.80150314902E+02  0.35905625428E+02  0.27152975744E+02  0.11991484899E+03  0.77000000000E+02 0.  0.
<mgrwt>
<rscale>  0 0.23476161E+03</rscale>
<asrwt>0</asrwt>
<pdfrwt beam="1">  1        2 0.19111204E-01 0.23476161E+03</pdfrwt>
<pdfrwt beam="2">  1       -2 0.14713299E-01 0.23476161E+03</pdfrwt>
<totfact> 0.10137715E+04</totfact>
</mgrwt>
</event>
<event>
 4    1  0.6919593E-004  0.7670115E+03  0.7818608E-02  0.9609034E-01
         -2   -1    0    0    0  501 -0.00000000000E+00  0.00000000000E+00  0.26348156104E+03  0.26348156105E+03  0.25500000000E-02 0. -1.
          2   -1    0    0  501    0  0.00000000000E+00 -0.00000000000E+00 -0.55820478295E+03  0.55820478296E+03  0.25500000000E-02 0.  1.
    5000001    1    1    2    0    0 -0.32506486401E+02  0.25766808943E+03 -0.43818710926E+03  0.51515673216E+03  0.77000000000E+02 0.  0.
   -5000001    1    1    2    0    0  0.32506486401E+02 -0.25766808943E+03  0.14346388735E+03  0.30652961185E+03  0.77000000000E+02 0.  0.
<mgrwt>
<rscale>  0 0.76701152E+03</rscale>
<asrwt>0</asrwt>
<pdfrwt beam="1">  1        2 0.79743540E-01 0.76701152E+03</pdfrwt>
<pdfrwt beam="2">  1       -2 0.37640223E-01 0.76701152E+03</pdfrwt>
<totfact> 0.39547020E+02</totfact>
</mgrwt>
</event>
<event>
 4    1  0.6919593E-004  0.2138985E+03  0.7818608E-02  0.1138515E+00
          2   -1    0    0  501    0  0.00000000000E+00  0.00000000000E+00  0.23080067520E+04  0.23080067520E+04  0.25500000000E-02 0. -1.
         -2   -1    0    0    0  501 -0.00000000000E+00 -0.00000000000E+00 -0.49558543835E+01  0.49558550395E+01  0.25500000000E-02 0.  1.
    5000001    1    1    2    0    0  0.23276041478E+01  0.61679065294E+02  0.70575494882E+03  0.71262105822E+03  0.77000000000E+02 0.  0.
   -5000001    1    1    2    0    0 -0.23276041478E+01 -0.61679065294E+02  0.15972959488E+04  0.16003415489E+04  0.77000000000E+02 0.  0.
<mgrwt>
<rscale>  0 0.21389854E+03</rscale>
<asrwt>0</asrwt>
<pdfrwt beam="1">  1        2 0.32971521E+00 0.21389854E+03</pdfrwt>
<pdfrwt beam="2">  1       -2 0.70797934E-03 0.21389854E+03</pdfrwt>
<totfact> 0.21773202E+04</totfact>
</mgrwt>
</event>
<event>
 4    1  0.6919593E-004  0.5283637E+03  0.7818608E-02  0.1006630E+00
         -2   -1    0    0    0  501 -0.00000000000E+00  0.00000000000E+00  0.49277439009E+02  0.49277439075E+02  0.25500000000E-02 0. -1.
          2   -1    0    0  501    0  0.00000000000E+00 -0.00000000000E+00 -0.14163084541E+04  0.14163084541E+04  0.25500000000E-02 0.  1.
    5000001    1    1    2    0    0 -0.20969117449E+03 -0.13997953973E+03 -0.63560035960E+03  0.68809990359E+03  0.77000000000E+02 0.  0.
   -5000001    1    1    2    0    0  0.20969117449E+03  0.13997953973E+03 -0.73143065546E+03  0.77748598955E+03  0.77000000000E+02 0.  0.
<mgrwt>
<rscale>  0 0.52836371E+03</rscale>
<asrwt>0</asrwt>
<pdfrwt beam="1">  1        2 0.20232975E+00 0.52836371E+03</pdfrwt>
<pdfrwt beam="2">  1       -2 0.70396350E-02 0.52836371E+03</pdfrwt>
<totfact> 0.19798080E+03</totfact>
</mgrwt>
</event>
<event>
 4    1  0.6919593E-004  0.4131094E+03  0.7818608E-02  0.1039333E+00
         -2   -1    0    0    0  501 -0.00000000000E+00  0.00000000000E+00  0.84371982822E+03  0.84371982823E+03  0.25500000000E-02 0. -1.
          2   -1    0    0  501    0  0.00000000000E+00 -0.00000000000E+00 -0.50567554781E+02  0.50567554845E+02  0.25500000000E-02 0.  1.
    5000001    1    1    2    0    0  0.11899962542E+03 -0.61730509036E+02  0.69311251536E+03  0.71014472155E+03  0.77000000000E+02 0.  0.
   -5000001    1    1    2    0    0 -0.11899962542E+03  0.61730509036E+02  0.10003975808E+03  0.18414266152E+03  0.77000000000E+02 0.  0.
<mgrwt>
<rscale>  0 0.41310942E+03</rscale>
<asrwt>0</asrwt>
<pdfrwt beam="1">  1        2 0.72239362E-02 0.41310942E+03</pdfrwt>
<pdfrwt beam="2">  1       -2 0.12053141E+00 0.41310942E+03</pdfrwt>
<totfact> 0.53619274E+02</totfact>
</mgrwt>
</event>
<event>
 4    1  0.6919593E-004  0.2366595E+03  0.7818608E-02  0.1122038E+00
          2   -1    0    0  501    0  0.00000000000E+00  0.00000000000E+00  0.20062900721E+02  0.20062900883E+02  0.25500000000E-02 0.  1.
         -2   -1    0    0    0  501 -0.00000000000E+00 -0.00000000000E+00 -0.69790133688E+03  0.69790133689E+03  0.25500000000E-02 0. -1.
    5000001    1    1    2    0    0  0.66229074051E+02 -0.33636397966E+02 -0.18556569826E+03  0.21419926678E+03  0.77000000000E+02 0.  0.
   -5000001    1    1    2    0    0 -0.66229074051E+02  0.33636397966E+02 -0.49227273790E+03  0.50376497099E+03  0.77000000000E+02 0.  0.
<mgrwt>
<rscale>  0 0.23665946E+03</rscale>
<asrwt>0</asrwt>
<pdfrwt beam="1">  1        2 0.28661291E-02 0.23665946E+03</pdfrwt>
<pdfrwt beam="2">  1       -2 0.99700176E-01 0.23665946E+03</pdfrwt>
<totfact> 0.28544987E+03</totfact>
</mgrwt>
</event>
<event>
 4    1  0.6919593E-004  0.3064588E+03  0.7818608E-02  0.1082056E+00
         -2   -1    0    0    0  501 -0.00000000000E+00  0.00000000000E+00  0.24659136219E+03  0.24659136221E+03  0.25500000000E-02 0. -1.
          2   -1    0    0  501    0  0.00000000000E+00 -0.00000000000E+00 -0.95215237772E+02  0.95215237806E+02  0.25500000000E-02 0.  1.
    5000001    1    1    2    0    0 -0.10093349868E+03  0.59404243554E+02  0.14474767570E+03  0.20148777861E+03  0.77000000000E+02 0.  0.
   -5000001    1    1    2    0    0  0.10093349868E+03 -0.59404243554E+02  0.66284487226E+01  0.14031882141E+03  0.77000000000E+02 0.  0.
<mgrwt>
<rscale>  0 0.30645884E+03</rscale>
<asrwt>0</asrwt>
<pdfrwt beam="1">  1        2 0.13602177E-01 0.30645884E+03</pdfrwt>
<pdfrwt beam="2">  1       -2 0.35227338E-01 0.30645884E+03</pdfrwt>
<totfact> 0.33272601E+03</totfact>
</mgrwt>
</event>
<event>
 4    1  0.6919593E-004  0.4360008E+03  0.7818608E-02  0.1031981E+00
          2   -1    0    0  501    0  0.00000000000E+00  0.00000000000E+00  0.23280340424E+04  0.23280340424E+04  0.25500000000E-02 0.  1.
         -2   -1    0    0    0  501 -0.00000000000E+00 -0.00000000000E+00 -0.20413869577E+02  0.20413869737E+02  0.25500000000E-02 0. -1.
    5000001    1    1    2    0    0  0.18544246571E+03  0.46783393161E+02  0.15353510479E+04  0.15491318325E+04  0.77000000000E+02 0.  0.
   -5000001    1    1    2    0    0 -0.18544246571E+03 -0.46783393161E+02  0.77226912485E+03  0.79931607964E+03  0.77000000000E+02 0.  0.
<mgrwt>
<rscale>  0 0.43600084E+03</rscale>
<asrwt>0</asrwt>
<pdfrwt beam="1">  1        2 0.33257624E+00 0.43600084E+03</pdfrwt>
<pdfrwt beam="2">  1       -2 0.29162676E-02 0.43600084E+03</pdfrwt>
<totfact> 0.26731459E+03</totfact>
</mgrwt>
</event>
<event>
 4    1  0.6919593E-004  0.7036755E+03  0.7818608E-02  0.9710967E-01
         -2   -1    0    0    0  501 -0.00000000000E+00  0.00000000000E+00  0.17787258729E+03  0.17787258730E+03  0.25500000000E-02 0. -1.
          2   -1    0    0  501    0  0.00000000000E+00 -0.00000000000E+00 -0.69594655876E+03  0.69594655877E+03  0.25500000000E-02 0.  1.
    5000001    1    1    2    0    0  0.30066009241E+03  0.16276278135E+03 -0.22030975617E+03  0.41394879252E+03  0.77000000000E+02 0.  0.
   -5000001    1    1    2    0    0 -0.30066009241E+03 -0.16276278135E+03 -0.29776421531E+03  0.45987035355E+03  0.77000000000E+02 0.  0.
<mgrwt>
<rscale>  0 0.70367554E+03</rscale>
<asrwt>0</asrwt>
<pdfrwt beam="1">  1        2 0.99420936E-01 0.70367554E+03</pdfrwt>
<pdfrwt beam="2">  1       -2 0.25410370E-01 0.70367554E+03</pdfrwt>
<totfact> 0.63313401E+02</totfact>
</mgrwt>
</event>
<event>
 4    1  0.6919593E-004  0.2477381E+03  0.7818608E-02  0.1114743E+00
         -2   -1    0    0    0  501 -0.00000000000E+00  0.00000000000E+00  0.15368143362E+02  0.15368143573E+02  0.25500000000E-02 0. -1.
          2   -1    0    0  501    0  0.00000000000E+00 -0.00000000000E+00 -0.99839934627E+03  0.99839934627E+03  0.25500000000E-02 0.  1.
    5000001    1    1    2    0    0 -0.52739394881E+02 -0.80534711904E+02 -0.54117358682E+03  0.55503615618E+03  0.77000000000E+02 0.  0.
   -5000001    1    1    2    0    0  0.52739394881E+02  0.80534711904E+02 -0.44185761609E+03  0.45873133367E+03  0.77000000000E+02 0.  0.
<mgrwt>
<rscale>  0 0.24773812E+03</rscale>
<asrwt>0</asrwt>
<pdfrwt beam="1">  1        2 0.14262844E+00 0.24773812E+03</pdfrwt>
<pdfrwt beam="2">  1       -2 0.21954497E-02 0.24773812E+03</pdfrwt>
<totfact> 0.19488222E+04</totfact>
</mgrwt>
</event>
<event>
 4    1  0.6919593E-004  0.3354659E+03  0.7818608E-02  0.1068744E+00
          2   -1    0    0  501    0  0.00000000000E+00  0.00000000000E+00  0.11117134947E+04  0.11117134947E+04  0.25500000000E-02 0.  1.
         -2   -1    0    0    0  501 -0.00000000000E+00 -0.00000000000E+00 -0.25307187073E+02  0.25307187201E+02  0.25500000000E-02 0. -1.
    5000001    1    1    2    0    0 -0.13446369980E+03  0.67358244364E+01  0.75968554955E+03  0.77535604214E+03  0.77000000000E+02 0.  0.
   -5000001    1    1    2    0    0  0.13446369980E+03 -0.67358244364E+01  0.32672075811E+03  0.36166463979E+03  0.77000000000E+02 0.  0.
<mgrwt>
<rscale>  0 0.33546589E+03</rscale>
<asrwt>0</asrwt>
<pdfrwt beam="1">  1        2 0.15881620E+00 0.33546589E+03</pdfrwt>
<pdfrwt beam="2">  1       -2 0.36153128E-02 0.33546589E+03</pdfrwt>
<totfact> 0.80661709E+03</totfact>
</mgrwt>
</event>
<event>
 4    1  0.6919593E-004  0.1745150E+03  0.7818608E-02  0.1173220E+00
          2   -1    0    0  501    0  0.00000000000E+00  0.00000000000E+00  0.12398047736E+02  0.12398047998E+02  0.25500000000E-02 0.  1.
         -2   -1    0    0    0  501 -0.00000000000E+00 -0.00000000000E+00 -0.61411828966E+03  0.61411828967E+03  0.25500000000E-02 0. -1.
    5000001    1    1    2    0    0 -0.99906616022E+01  0.39008112624E+02 -0.27226980437E+03  0.28579939213E+03  0.77000000000E+02 0.  0.
   -5000001    1    1    2    0    0  0.99906616022E+01 -0.39008112624E+02 -0.32945043756E+03  0.34071694554E+03  0.77000000000E+02 0.  0.
<mgrwt>
<rscale>  0 0.17451496E+03</rscale>
<asrwt>0</asrwt>
<pdfrwt beam="1">  1        2 0.17711501E-02 0.17451496E+03</pdfrwt>
<pdfrwt beam="2">  1       -2 0.87731165E-01 0.17451496E+03</pdfrwt>
<totfact> 0.72330456E+03</totfact>
</mgrwt>
</event>
<event>
 4    1  0.6919593E-004  0.2093258E+03  0.7818608E-02  0.1142101E+00
         -2   -1    0    0    0  501 -0.00000000000E+00  0.00000000000E+00  0.34499775341E+02  0.34499775435E+02  0.25500000000E-02 0. -1.
          2   -1    0    0  501    0  0.00000000000E+00 -0.00000000000E+00 -0.31751857683E+03  0.31751857684E+03  0.25500000000E-02 0.  1.
    5000001    1    1    2    0    0  0.24304215422E+02 -0.50426004587E+02 -0.68364319745E+02  0.11720135255E+03  0.77000000000E+02 0.  0.
   -5000001    1    1    2    0    0 -0.24304215422E+02  0.50426004587E+02 -0.21465448174E+03  0.23481699972E+03  0.77000000000E+02 0.  0.
<mgrwt>
<rscale>  0 0.20932577E+03</rscale>
<asrwt>0</asrwt>
<pdfrwt beam="1">  1        2 0.45359795E-01 0.20932577E+03</pdfrwt>
<pdfrwt beam="2">  1       -2 0.49285395E-02 0.20932577E+03</pdfrwt>
<totfact> 0.21626014E+04</totfact>
</mgrwt>
</event>
<event>
 4    1  0.6919593E-004  0.2158483E+03  0.7818608E-02  0.1137017E+00
          2   -1    0    0  501    0  0.00000000000E+00  0.00000000000E+00  0.15561320869E+03  0.15561320871E+03  0.25500000000E-02 0.  1.
         -2   -1    0    0    0  501 -0.00000000000E+00 -0.00000000000E+00 -0.74849848853E+02  0.74849848896E+02  0.25500000000E-02 0. -1.
    5000001    1    1    2    0    0  0.64012959826E+02 -0.24809134318E+02  0.65255093226E+01  0.10336698914E+03  0.77000000000E+02 0.  0.
   -5000001    1    1    2    0    0 -0.64012959826E+02  0.24809134318E+02  0.74237850512E+02  0.12709606847E+03  0.77000000000E+02 0.  0.
<mgrwt>
<rscale>  0 0.21584833E+03</rscale>
<asrwt>0</asrwt>
<pdfrwt beam="1">  1        2 0.22230458E-01 0.21584833E+03</pdfrwt>
<pdfrwt beam="2">  1       -2 0.10692836E-01 0.21584833E+03</pdfrwt>
<totfact> 0.14230835E+04</totfact>
</mgrwt>
</event>
<event>
 4    1  0.6919593E-004  0.4755536E+03  0.7818608E-02  0.1020364E+00
          2   -1    0    0  501    0  0.00000000000E+00  0.00000000000E+00  0.18698588556E+04  0.18698588556E+04  0.25500000000E-02 0.  1.
         -2   -1    0    0    0  501 -0.00000000000E+00 -0.00000000000E+00 -0.30236400350E+02  0.30236400457E+02  0.25500000000E-02 0. -1.
    5000001    1    1    2    0    0  0.81980841092E+02 -0.20701823116E+03  0.10481294614E+04  0.10742819808E+04  0.77000000000E+02 0.  0.
   -5000001    1    1    2    0    0 -0.81980841092E+02  0.20701823116E+03  0.79149299382E+03  0.82581327527E+03  0.77000000000E+02 0.  0.
<mgrwt>
<rscale>  0 0.47555358E+03</rscale>
<asrwt>0</asrwt>
<pdfrwt beam="1">  1        2 0.26712272E+00 0.47555358E+03</pdfrwt>
<pdfrwt beam="2">  1       -2 0.43194853E-02 0.47555358E+03</pdfrwt>
<totfact> 0.24861846E+03</totfact>
</mgrwt>
</event>
<event>
 4    1  0.6919593E-004  0.5049494E+03  0.7818608E-02  0.1012495E+00
          2   -1    0    0  501    0  0.00000000000E+00  0.00000000000E+00  0.25378447480E+03  0.25378447481E+03  0.25500000000E-02 0.  1.
         -2   -1    0    0    0  501 -0.00000000000E+00 -0.00000000000E+00 -0.25117171717E+03  0.25117171718E+03  0.25500000000E-02 0. -1.
    5000001    1    1    2    0    0  0.19887819941E+03  0.98714860417E+02 -0.90984186791E+02  0.25200056372E+03  0.77000000000E+02 0.  0.
   -5000001    1    1    2    0    0 -0.19887819941E+03 -0.98714860417E+02  0.93596944422E+02  0.25295562827E+03  0.77000000000E+02 0.  0.
<mgrwt>
<rscale>  0 0.50494943E+03</rscale>
<asrwt>0</asrwt>
<pdfrwt beam="1">  1        2 0.36254925E-01 0.50494943E+03</pdfrwt>
<pdfrwt beam="2">  1       -2 0.35881674E-01 0.50494943E+03</pdfrwt>
<totfact> 0.10509306E+03</totfact>
</mgrwt>
</event>
<event>
 4    1  0.6919593E-004  0.2035846E+03  0.7818608E-02  0.1146749E+00
         -2   -1    0    0    0  501 -0.00000000000E+00  0.00000000000E+00  0.16622597831E+02  0.16622598027E+02  0.25500000000E-02 0. -1.
          2   -1    0    0  501    0  0.00000000000E+00 -0.00000000000E+00 -0.62334834089E+03  0.62334834089E+03  0.25500000000E-02 0.  1.
    5000001    1    1    2    0    0  0.60939446905E+02  0.25061318091E+02 -0.27337846165E+03  0.29155868903E+03  0.77000000000E+02 0.  0.
   -5000001    1    1    2    0    0 -0.60939446905E+02 -0.25061318091E+02 -0.33334728141E+03  0.34841224989E+03  0.77000000000E+02 0.  0.
<mgrwt>
<rscale>  0 0.20358457E+03</rscale>
<asrwt>0</asrwt>
<pdfrwt beam="1">  1        2 0.89049748E-01 0.20358457E+03</pdfrwt>
<pdfrwt beam="2">  1       -2 0.23746572E-02 0.20358457E+03</pdfrwt>
<totfact> 0.30652729E+04</totfact>
</mgrwt>
</event>
<event>
 4    1  0.6919593E-004  0.2655299E+03  0.7818608E-02  0.1103866E+00
         -2   -1    0    0    0  501 -0.00000000000E+00  0.00000000000E+00  0.27977467032E+02  0.27977467149E+02  0.25500000000E-02 0. -1.
          2   -1    0    0  501    0  0.00000000000E+00 -0.00000000000E+00 -0.63002623572E+03  0.63002623572E+03  0.25500000000E-02 0.  1.
    5000001    1    1    2    0    0  0.45938970231E+02  0.87583978997E+02 -0.40950066420E+03  0.42825358883E+03  0.77000000000E+02 0.  0.
   -5000001    1    1    2    0    0 -0.45938970231E+02 -0.87583978997E+02 -0.19254810449E+03  0.22975011405E+03  0.77000000000E+02 0.  0.
<mgrwt>
<rscale>  0 0.26552995E+03</rscale>
<asrwt>0</asrwt>
<pdfrwt beam="1">  1        2 0.90003739E-01 0.26552995E+03</pdfrwt>
<pdfrwt beam="2">  1       -2 0.39967814E-02 0.26552995E+03</pdfrwt>
<totfact> 0.14199239E+04</totfact>
</mgrwt>
</event>
<event>
 4    1  0.6919593E-004  0.1787993E+03  0.7818608E-02  0.1168970E+00
          2   -1    0    0  501    0  0.00000000000E+00  0.00000000000E+00  0.11246952317E+04  0.11246952317E+04  0.25500000000E-02 0.  1.
         -2   -1    0    0    0  501 -0.00000000000E+00 -0.00000000000E+00 -0.71061891190E+01  0.71061895765E+01  0.25500000000E-02 0. -1.
    5000001    1    1    2    0    0 -0.30748255014E+02  0.49706917845E+01  0.34950803415E+03  0.35924229832E+03  0.77000000000E+02 0.  0.
   -5000001    1    1    2    0    0  0.30748255014E+02 -0.49706917845E+01  0.76808100842E+03  0.77255912295E+03  0.77000000000E+02 0.  0.
<mgrwt>
<rscale>  0 0.17879930E+03</rscale>
<asrwt>0</asrwt>
<pdfrwt beam="1">  1        2 0.16067086E+00 0.17879930E+03</pdfrwt>
<pdfrwt beam="2">  1       -2 0.10151692E-02 0.17879930E+03</pdfrwt>
<totfact> 0.49644610E+04</totfact>
</mgrwt>
</event>
<event>
 4    1  0.6919593E-004  0.3798656E+03  0.7818608E-02  0.1050983E+00
          2   -1    0    0  501    0  0.00000000000E+00  0.00000000000E+00  0.58822952527E+03  0.58822952527E+03  0.25500000000E-02 0.  1.
         -2   -1    0    0    0  501 -0.00000000000E+00 -0.00000000000E+00 -0.61327184977E+02  0.61327185030E+02  0.25500000000E-02 0. -1.
    5000001    1    1    2    0    0 -0.40358419970E+02  0.14375199316E+03  0.41497395492E+03  0.44768942456E+03  0.77000000000E+02 0.  0.
   -5000001    1    1    2    0    0  0.40358419970E+02 -0.14375199316E+03  0.11192838537E+03  0.20186728574E+03  0.77000000000E+02 0.  0.
<mgrwt>
<rscale>  0 0.37986556E+03</rscale>
<asrwt>0</asrwt>
<pdfrwt beam="1">  1        2 0.84032791E-01 0.37986556E+03</pdfrwt>
<pdfrwt beam="2">  1       -2 0.87610263E-02 0.37986556E+03</pdfrwt>
<totfact> 0.46390450E+03</totfact>
</mgrwt>
</event>
<event>
 4    1  0.6919593E-004  0.2304087E+03  0.7818608E-02  0.1126352E+00
         -2   -1    0    0    0  501 -0.00000000000E+00  0.00000000000E+00  0.10096063276E+02  0.10096063598E+02  0.25500000000E-02 0. -1.
          2   -1    0    0  501    0  0.00000000000E+00 -0.00000000000E+00 -0.13145759528E+04  0.13145759528E+04  0.25500000000E-02 0.  1.
    5000001    1    1    2    0    0  0.10925080932E+02  0.84941631169E+02 -0.63537586537E+03  0.64572898990E+03  0.77000000000E+02 0.  0.
   -5000001    1    1    2    0    0 -0.10925080932E+02 -0.84941631169E+02 -0.66910402413E+03  0.67894302648E+03  0.77000000000E+02 0.  0.
<mgrwt>
<rscale>  0 0.23040870E+03</rscale>
<asrwt>0</asrwt>
<pdfrwt beam="1">  1        2 0.18779646E+00 0.23040870E+03</pdfrwt>
<pdfrwt beam="2">  1       -2 0.14422956E-02 0.23040870E+03</pdfrwt>
<totfact> 0.24049046E+04</totfact>
</mgrwt>
</event>
<event>
 4    1  0.6919593E-004  0.3364831E+03  0.7818608E-02  0.1068304E+00
          2   -1    0    0  501    0  0.00000000000E+00  0.00000000000E+00  0.30015026060E+03  0.30015026061E+03  0.25500000000E-02 0.  1.
         -2   -1    0    0    0  501 -0.00000000000E+00 -0.00000000000E+00 -0.94303487208E+02  0.94303487242E+02  0.25500000000E-02 0. -1.
    5000001    1    1    2    0    0 -0.59523676614E+01  0.65116303290E+02  0.26064091757E+03  0.27953220127E+03  0.77000000000E+02 0.  0.
   -5000001    1    1    2    0    0  0.59523676614E+01 -0.65116303290E+02 -0.54794144172E+02  0.11492154659E+03  0.77000000000E+02 0.  0.
<mgrwt>
<rscale>  0 0.33648308E+03</rscale>
<asrwt>0</asrwt>
<pdfrwt beam="1">  1        2 0.42878609E-01 0.33648308E+03</pdfrwt>
<pdfrwt beam="2">  1       -2 0.13471927E-01 0.33648308E+03</pdfrwt>
<totfact> 0.48563804E+03</totfact>
</mgrwt>
</event>
<event>
 4    1  0.6919593E-004  0.2756695E+03  0.7818608E-02  0.1098078E+00
          2   -1    0    0  501    0  0.00000000000E+00  0.00000000000E+00  0.17859804380E+03  0.17859804382E+03  0.25500000000E-02 0.  1.
         -2   -1    0    0    0  501 -0.00000000000E+00 -0.00000000000E+00 -0.10637529291E+03  0.10637529294E+03  0.25500000000E-02 0. -1.
    5000001    1    1    2    0    0 -0.56245190725E+01  0.65236334110E+02  0.13298651291E+03  0.16703840013E+03  0.77000000000E+02 0.  0.
   -5000001    1    1    2    0    0  0.56245190725E+01 -0.65236334110E+02 -0.60763762014E+02  0.11793493663E+03  0.77000000000E+02 0.  0.
<mgrwt>
<rscale>  0 0.27566951E+03</rscale>
<asrwt>0</asrwt>
<pdfrwt beam="1">  1        2 0.25514006E-01 0.27566951E+03</pdfrwt>
<pdfrwt beam="2">  1       -2 0.15196471E-01 0.27566951E+03</pdfrwt>
<totfact> 0.69846007E+03</totfact>
</mgrwt>
</event>
<event>
 4    1  0.6919593E-004  0.3282288E+03  0.7818608E-02  0.1071923E+00
          2   -1    0    0  501    0  0.00000000000E+00  0.00000000000E+00  0.82258919032E+02  0.82258919071E+02  0.25500000000E-02 0.  1.
         -2   -1    0    0    0  501 -0.00000000000E+00 -0.00000000000E+00 -0.32742388010E+03  0.32742388011E+03  0.25500000000E-02 0. -1.
    5000001    1    1    2    0    0 -0.12459885075E+03  0.50654049666E+02 -0.18995813912E+03  0.24516076557E+03  0.77000000000E+02 0.  0.
   -5000001    1    1    2    0    0  0.12459885075E+03 -0.50654049666E+02 -0.55206821956E+02  0.16452203362E+03  0.77000000000E+02 0.  0.
<mgrwt>
<rscale>  0 0.32822879E+03</rscale>
<asrwt>0</asrwt>
<pdfrwt beam="1">  1        2 0.11751274E-01 0.32822879E+03</pdfrwt>
<pdfrwt beam="2">  1       -2 0.46774839E-01 0.32822879E+03</pdfrwt>
<totfact> 0.23087814E+03</totfact>
</mgrwt>
</event>
<event>
 4    1  0.6919593E-004  0.2459639E+03  0.7818608E-02  0.1115882E+00
          2   -1    0    0  501    0  0.00000000000E+00  0.00000000000E+00  0.18276117166E+04  0.18276117166E+04  0.25500000000E-02 0.  1.
         -2   -1    0    0    0  501 -0.00000000000E+00 -0.00000000000E+00 -0.82755859718E+01  0.82755863646E+01  0.25500000000E-02 0. -1.
    5000001    1    1    2    0    0  0.81081240511E+02  0.48750151022E+02  0.10264544779E+04  0.10336771934E+04  0.77000000000E+02 0.  0.
   -5000001    1    1    2    0    0 -0.81081240511E+02 -0.48750151022E+02  0.79288165272E+03  0.80221010964E+03  0.77000000000E+02 0.  0.
<mgrwt>
<rscale>  0 0.24596389E+03</rscale>
<asrwt>0</asrwt>
<pdfrwt beam="1">  1        2 0.26108743E+00 0.24596389E+03</pdfrwt>
<pdfrwt beam="2">  1       -2 0.11822264E-02 0.24596389E+03</pdfrwt>
<totfact> 0.17844747E+04</totfact>
</mgrwt>
</event>
<event>
 4    1  0.6919593E-004  0.3345813E+03  0.7818608E-02  0.1069128E+00
          2   -1    0    0  501    0  0.00000000000E+00  0.00000000000E+00  0.44329051920E+02  0.44329051993E+02  0.25500000000E-02 0.  1.
         -2   -1    0    0    0  501 -0.00000000000E+00 -0.00000000000E+00 -0.63132775629E+03  0.63132775630E+03  0.25500000000E-02 0. -1.
    5000001    1    1    2    0    0  0.12126614244E+03  0.85731004764E+02 -0.29073163003E+03  0.33542385601E+03  0.77000000000E+02 0.  0.
   -5000001    1    1    2    0    0 -0.12126614244E+03 -0.85731004764E+02 -0.29626707434E+03  0.34023295228E+03  0.77000000000E+02 0.  0.
<mgrwt>
<rscale>  0 0.33458130E+03</rscale>
<asrwt>0</asrwt>
<pdfrwt beam="1">  1        2 0.63327221E-02 0.33458130E+03</pdfrwt>
<pdfrwt beam="2">  1       -2 0.90189674E-01 0.33458130E+03</pdfrwt>
<totfact> 0.12590472E+03</totfact>
</mgrwt>
</event>
<event>
 4    1  0.6919593E-004  0.2477215E+03  0.7818608E-02  0.1114753E+00
         -2   -1    0    0    0  501 -0.00000000000E+00  0.00000000000E+00  0.12906973119E+02  0.12906973370E+02  0.25500000000E-02 0. -1.
          2   -1    0    0  501    0  0.00000000000E+00 -0.00000000000E+00 -0.11886198738E+04  0.11886198738E+04  0.25500000000E-02 0.  1.
    5000001    1    1    2    0    0  0.82611656833E+02  0.48127282396E+02 -0.50792720935E+03  0.52255140527E+03  0.77000000000E+02 0.  0.
   -5000001    1    1    2    0    0 -0.82611656833E+02 -0.48127282396E+02 -0.66778569134E+03  0.67897544190E+03  0.77000000000E+02 0.  0.
<mgrwt>
<rscale>  0 0.24772150E+03</rscale>
<asrwt>0</asrwt>
<pdfrwt beam="1">  1        2 0.16980277E+00 0.24772150E+03</pdfrwt>
<pdfrwt beam="2">  1       -2 0.18438541E-02 0.24772150E+03</pdfrwt>
<totfact> 0.19669941E+04</totfact>
</mgrwt>
</event>
<event>
 4    1  0.6919593E-004  0.1944960E+03  0.7818608E-02  0.1154468E+00
         -2   -1    0    0    0  501 -0.00000000000E+00  0.00000000000E+00  0.28293527406E+03  0.28293527407E+03  0.25500000000E-02 0. -1.
          2   -1    0    0  501    0  0.00000000000E+00 -0.00000000000E+00 -0.33425211075E+02  0.33425211172E+02  0.25500000000E-02 0.  1.
    5000001    1    1    2    0    0  0.54755900022E+02  0.15570140147E+02  0.97173665165E+02  0.13642711993E+03  0.77000000000E+02 0.  0.
   -5000001    1    1    2    0    0 -0.54755900022E+02 -0.15570140147E+02  0.15233639782E+03  0.17993336531E+03  0.77000000000E+02 0.  0.
<mgrwt>
<rscale>  0 0.19449598E+03</rscale>
<asrwt>0</asrwt>
<pdfrwt beam="1">  1        2 0.47750303E-02 0.19449598E+03</pdfrwt>
<pdfrwt beam="2">  1       -2 0.40419324E-01 0.19449598E+03</pdfrwt>
<totfact> 0.94474586E+03</totfact>
</mgrwt>
</event>
<event>
 4    1  0.6919593E-004  0.2964285E+03  0.7818608E-02  0.1087040E+00
          2   -1    0    0  501    0  0.00000000000E+00  0.00000000000E+00  0.55850890342E+03  0.55850890342E+03  0.25500000000E-02 0.  1.
         -2   -1    0    0    0  501 -0.00000000000E+00 -0.00000000000E+00 -0.39332352918E+02  0.39332353001E+02  0.25500000000E-02 0. -1.
    5000001    1    1    2    0    0 -0.64592728547E+02 -0.10153455135E+03  0.18000754968E+03  0.22981123480E+03  0.77000000000E+02 0.  0.
   -5000001    1    1    2    0    0  0.64592728547E+02  0.10153455135E+03  0.33916900082E+03  0.36803002162E+03  0.77000000000E+02 0.  0.
<mgrwt>
<rscale>  0 0.29642854E+03</rscale>
<asrwt>0</asrwt>
<pdfrwt beam="1">  1        2 0.79786989E-01 0.29642854E+03</pdfrwt>
<pdfrwt beam="2">  1       -2 0.56189074E-02 0.29642854E+03</pdfrwt>
<totfact> 0.97614213E+03</totfact>
</mgrwt>
</event>
<event>
 4    1  0.6919593E-004  0.2239772E+03  0.7818608E-02  0.1130952E+00
          2   -1    0    0  501    0  0.00000000000E+00  0.00000000000E+00  0.14471003847E+04  0.14471003847E+04  0.25500000000E-02 0.  1.
         -2   -1    0    0    0  501 -0.00000000000E+00 -0.00000000000E+00 -0.86666059139E+01  0.86666062891E+01  0.25500000000E-02 0. -1.
    5000001    1    1    2    0    0  0.45621589381E+02 -0.63607340253E+02  0.86238951502E+03  0.86935142420E+03  0.77000000000E+02 0.  0.
   -5000001    1    1    2    0    0 -0.45621589381E+02  0.63607340253E+02  0.57604426381E+03  0.58641556683E+03  0.77000000000E+02 0.  0.
<mgrwt>
<rscale>  0 0.22397722E+03</rscale>
<asrwt>0</asrwt>
<pdfrwt beam="1">  1        2 0.20672859E+00 0.22397722E+03</pdfrwt>
<pdfrwt beam="2">  1       -2 0.12380868E-02 0.22397722E+03</pdfrwt>
<totfact> 0.25631869E+04</totfact>
</mgrwt>
</event>
<event>
 4    1  0.6919593E-004  0.2529291E+03  0.7818608E-02  0.1111468E+00
         -2   -1    0    0    0  501 -0.00000000000E+00  0.00000000000E+00  0.34898079105E+02  0.34898079198E+02  0.25500000000E-02 0. -1.
          2   -1    0    0  501    0  0.00000000000E+00 -0.00000000000E+00 -0.45828552942E+03  0.45828552942E+03  0.25500000000E-02 0.  1.
    5000001    1    1    2    0    0 -0.82967639313E+02 -0.22381696827E+02 -0.11075585868E+03  0.15993883130E+03  0.77000000000E+02 0.  0.
   -5000001    1    1    2    0    0  0.82967639313E+02  0.22381696827E+02 -0.31263159163E+03  0.33324477732E+03  0.77000000000E+02 0.  0.
<mgrwt>
<rscale>  0 0.25292912E+03</rscale>
<asrwt>0</asrwt>
<pdfrwt beam="1">  1        2 0.65469358E-01 0.25292912E+03</pdfrwt>
<pdfrwt beam="2">  1       -2 0.49854402E-02 0.25292912E+03</pdfrwt>
<totfact> 0.14484210E+04</totfact>
</mgrwt>
</event>
<event>
 4    1  0.6919593E-004  0.1980461E+03  0.7818608E-02  0.1151398E+00
          2   -1    0    0  501    0  0.00000000000E+00  0.00000000000E+00  0.30483625342E+04  0.30483625342E+04  0.25500000000E-02 0.  1.
         -2   -1    0    0    0  501 -0.00000000000E+00 -0.00000000000E+00 -0.32166642156E+01  0.32166652264E+01  0.25500000000E-02 0. -1.
    5000001    1    1    2    0    0 -0.23345828141E+02  0.47514598439E+02  0.20275125555E+04  0.20296647081E+04  0.77000000000E+02 0.  0.
   -5000001    1    1    2    0    0  0.23345828141E+02 -0.47514598439E+02  0.10176333145E+04  0.10219144913E+04  0.77000000000E+02 0.  0.
<mgrwt>
<rscale>  0 0.19804606E+03</rscale>
<asrwt>0</asrwt>
<pdfrwt beam="1">  1        2 0.43548106E+00 0.19804606E+03</pdfrwt>
<pdfrwt beam="2">  1       -2 0.45952280E-03 0.19804606E+03</pdfrwt>
<totfact> 0.17067899E+04</totfact>
</mgrwt>
</event>
<event>
 4    1  0.6919593E-004  0.1883898E+03  0.7818608E-02  0.1159922E+00
          2   -1    0    0  501    0  0.00000000000E+00  0.00000000000E+00  0.27403551748E+04  0.27403551748E+04  0.25500000000E-02 0.  1.
         -2   -1    0    0    0  501 -0.00000000000E+00 -0.00000000000E+00 -0.32377845533E+01  0.32377855575E+01  0.25500000000E-02 0. -1.
    5000001    1    1    2    0    0  0.34949654292E+02  0.15663240667E+02  0.80888778321E+03  0.81344653252E+03  0.77000000000E+02 0.  0.
   -5000001    1    1    2    0    0 -0.34949654292E+02 -0.15663240667E+02  0.19282296071E+04  0.19301464279E+04  0.77000000000E+02 0.  0.
<mgrwt>
<rscale>  0 0.18838982E+03</rscale>
<asrwt>0</asrwt>
<pdfrwt beam="1">  1        2 0.39148011E+00 0.18838982E+03</pdfrwt>
<pdfrwt beam="2">  1       -2 0.46253978E-03 0.18838982E+03</pdfrwt>
<totfact> 0.24348920E+04</totfact>
</mgrwt>
</event>
<event>
 4    1  0.6919593E-004  0.2053266E+03  0.7818608E-02  0.1145321E+00
          2   -1    0    0  501    0  0.00000000000E+00  0.00000000000E+00  0.67842102392E+03  0.67842102392E+03  0.25500000000E-02 0.  1.
         -2   -1    0    0    0  501 -0.00000000000E+00 -0.00000000000E+00 -0.15535717461E+02  0.15535717671E+02  0.25500000000E-02 0. -1.
    5000001    1    1    2    0    0 -0.31372112897E+02 -0.69778947791E+01  0.12928109268E+03  0.15386845488E+03  0.77000000000E+02 0.  0.
   -5000001    1    1    2    0    0  0.31372112897E+02  0.69778947791E+01  0.53360421377E+03  0.54008828671E+03  0.77000000000E+02 0.  0.
<mgrwt>
<rscale>  0 0.20532664E+03</rscale>
<asrwt>0</asrwt>
<pdfrwt beam="1">  1        2 0.96917285E-01 0.20532664E+03</pdfrwt>
<pdfrwt beam="2">  1       -2 0.22193883E-02 0.20532664E+03</pdfrwt>
<totfact> 0.30720240E+04</totfact>
</mgrwt>
</event>
<event>
 4    1  0.6919593E-004  0.1810075E+03  0.7818608E-02  0.1166832E+00
          2   -1    0    0  501    0  0.00000000000E+00  0.00000000000E+00  0.53361919435E+03  0.53361919435E+03  0.25500000000E-02 0.  1.
         -2   -1    0    0    0  501 -0.00000000000E+00 -0.00000000000E+00 -0.15349756854E+02  0.15349757066E+02  0.25500000000E-02 0. -1.
    5000001    1    1    2    0    0 -0.19327809972E+02  0.36259258118E+02  0.33177308556E+03  0.34306075022E+03  0.77000000000E+02 0.  0.
   -5000001    1    1    2    0    0  0.19327809972E+02 -0.36259258118E+02  0.18649635193E+03  0.20590820120E+03  0.77000000000E+02 0.  0.
<mgrwt>
<rscale>  0 0.18100746E+03</rscale>
<asrwt>0</asrwt>
<pdfrwt beam="1">  1        2 0.76231314E-01 0.18100746E+03</pdfrwt>
<pdfrwt beam="2">  1       -2 0.21928224E-02 0.18100746E+03</pdfrwt>
<totfact> 0.40620978E+04</totfact>
</mgrwt>
</event>
<event>
 4    1  0.6919593E-004  0.2638088E+03  0.7818608E-02  0.1104876E+00
         -2   -1    0    0    0  501 -0.00000000000E+00  0.00000000000E+00  0.65155154847E+03  0.65155154848E+03  0.25500000000E-02 0. -1.
          2   -1    0    0  501    0  0.00000000000E+00 -0.00000000000E+00 -0.26703589035E+02  0.26703589157E+02  0.25500000000E-02 0.  1.
    5000001    1    1    2    0    0  0.57272281560E+02 -0.90175542923E+02  0.29284002346E+03  0.32108569279E+03  0.77000000000E+02 0.  0.
   -5000001    1    1    2    0    0 -0.57272281560E+02  0.90175542923E+02  0.33200793598E+03  0.35716944484E+03  0.77000000000E+02 0.  0.
<mgrwt>
<rscale>  0 0.26380876E+03</rscale>
<asrwt>0</asrwt>
<pdfrwt beam="1">  1        2 0.38147987E-02 0.26380876E+03</pdfrwt>
<pdfrwt beam="2">  1       -2 0.93078785E-01 0.26380876E+03</pdfrwt>
<totfact> 0.22807499E+03</totfact>
</mgrwt>
</event>
<event>
 4    1  0.6919593E-004  0.2034057E+03  0.7818608E-02  0.1146897E+00
         -2   -1    0    0    0  501 -0.00000000000E+00  0.00000000000E+00  0.14116148808E+02  0.14116149038E+02  0.25500000000E-02 0. -1.
          2   -1    0    0  501    0  0.00000000000E+00 -0.00000000000E+00 -0.73274033632E+03  0.73274033632E+03  0.25500000000E-02 0.  1.
    5000001    1    1    2    0    0 -0.41406888655E+02  0.20102164798E+02 -0.18337994502E+03  0.20414659364E+03  0.77000000000E+02 0.  0.
   -5000001    1    1    2    0    0  0.41406888655E+02 -0.20102164798E+02 -0.53524424249E+03  0.54270989172E+03  0.77000000000E+02 0.  0.
<mgrwt>
<rscale>  0 0.20340572E+03</rscale>
<asrwt>0</asrwt>
<pdfrwt beam="1">  1        2 0.10467717E+00 0.20340572E+03</pdfrwt>
<pdfrwt beam="2">  1       -2 0.20165932E-02 0.20340572E+03</pdfrwt>
<totfact> 0.32258067E+04</totfact>
</mgrwt>
</event>
<event>
 4    1  0.6919593E-004  0.2524369E+03  0.7818608E-02  0.1111774E+00
         -2   -1    0    0    0  501 -0.00000000000E+00  0.00000000000E+00  0.51763969366E+02  0.51763969429E+02  0.25500000000E-02 0. -1.
          2   -1    0    0  501    0  0.00000000000E+00 -0.00000000000E+00 -0.30776421471E+03  0.30776421472E+03  0.25500000000E-02 0.  1.
    5000001    1    1    2    0    0 -0.97139701683E+01 -0.62177989746E+02 -0.23870258915E+03  0.25858922965E+03  0.77000000000E+02 0.  0.
   -5000001    1    1    2    0    0  0.97139701683E+01  0.62177989746E+02 -0.17297656195E+02  0.10093895450E+03  0.77000000000E+02 0.  0.
<mgrwt>
<rscale>  0 0.25243690E+03</rscale>
<asrwt>0</asrwt>
<pdfrwt beam="1">  1        2 0.43966315E-01 0.25243690E+03</pdfrwt>
<pdfrwt beam="2">  1       -2 0.73948529E-02 0.25243690E+03</pdfrwt>
<totfact> 0.12155925E+04</totfact>
</mgrwt>
</event>
<event>
 4    1  0.6919593E-004  0.2985224E+03  0.7818608E-02  0.1085982E+00
         -2   -1    0    0    0  501 -0.00000000000E+00  0.00000000000E+00  0.16413657585E+02  0.16413657783E+02  0.25500000000E-02 0. -1.
          2   -1    0    0  501    0  0.00000000000E+00 -0.00000000000E+00 -0.13573391438E+04  0.13573391438E+04  0.25500000000E-02 0.  1.
    5000001    1    1    2    0    0  0.10447985101E+03  0.71039200974E+02 -0.57989961947E+03  0.59847738136E+03  0.77000000000E+02 0.  0.
   -5000001    1    1    2    0    0 -0.10447985101E+03 -0.71039200974E+02 -0.76102586670E+03  0.77527542018E+03  0.77000000000E+02 0.  0.
<mgrwt>
<rscale>  0 0.29852236E+03</rscale>
<asrwt>0</asrwt>
<pdfrwt beam="1">  1        2 0.19390552E+00 0.29852236E+03</pdfrwt>
<pdfrwt beam="2">  1       -2 0.23448091E-02 0.29852236E+03</pdfrwt>
<totfact> 0.11306678E+04</totfact>
</mgrwt>
</event>
<event>
 4    1  0.6919593E-004  0.1788438E+03  0.7818608E-02  0.1168927E+00
         -2   -1    0    0    0  501 -0.00000000000E+00  0.00000000000E+00  0.60846114094E+01  0.60846119438E+01  0.25500000000E-02 0. -1.
          2   -1    0    0  501    0  0.00000000000E+00 -0.00000000000E+00 -0.13141806411E+04  0.13141806411E+04  0.25500000000E-02 0.  1.
    5000001    1    1    2    0    0  0.29652970932E+02 -0.25639577388E+02 -0.82409451132E+03  0.82861176084E+03  0.77000000000E+02 0.  0.
   -5000001    1    1    2    0    0 -0.29652970932E+02  0.25639577388E+02 -0.48400151835E+03  0.49165349218E+03  0.77000000000E+02 0.  0.
<mgrwt>
<rscale>  0 0.17884383E+03</rscale>
<asrwt>0</asrwt>
<pdfrwt beam="1">  1        2 0.18773991E+00 0.17884383E+03</pdfrwt>
<pdfrwt beam="2">  1       -2 0.86923108E-03 0.17884383E+03</pdfrwt>
<totfact> 0.49202915E+04</totfact>
</mgrwt>
</event>
<event>
 4    1  0.6919593E-004  0.2068502E+03  0.7818608E-02  0.1144085E+00
         -2   -1    0    0    0  501 -0.00000000000E+00  0.00000000000E+00  0.13257048524E+03  0.13257048526E+03  0.25500000000E-02 0. -1.
          2   -1    0    0  501    0  0.00000000000E+00 -0.00000000000E+00 -0.80687256207E+02  0.80687256247E+02  0.25500000000E-02 0.  1.
    5000001    1    1    2    0    0 -0.66383273900E+02 -0.11895455155E+02  0.41216357076E+02  0.11034504519E+03  0.77000000000E+02 0.  0.
   -5000001    1    1    2    0    0  0.66383273900E+02  0.11895455155E+02  0.10666871957E+02  0.10291269632E+03  0.77000000000E+02 0.  0.
<mgrwt>
<rscale>  0 0.20685017E+03</rscale>
<asrwt>0</asrwt>
<pdfrwt beam="1">  1        2 0.11526751E-01 0.20685017E+03</pdfrwt>
<pdfrwt beam="2">  1       -2 0.18938641E-01 0.20685017E+03</pdfrwt>
<totfact> 0.12008386E+04</totfact>
</mgrwt>
</event>
<event>
 4    1  0.6919593E-004  0.2731990E+03  0.7818608E-02  0.1099463E+00
          2   -1    0    0  501    0  0.00000000000E+00  0.00000000000E+00  0.25927452167E+04  0.25927452167E+04  0.25500000000E-02 0.  1.
         -2   -1    0    0    0  501 -0.00000000000E+00 -0.00000000000E+00 -0.71967830760E+01  0.71967835277E+01  0.25500000000E-02 0. -1.
    5000001    1    1    2    0    0 -0.93813304286E+02 -0.62586769855E+02  0.13262664536E+04  0.13332778202E+04  0.77000000000E+02 0.  0.
   -5000001    1    1    2    0    0  0.93813304286E+02  0.62586769855E+02  0.12592819800E+04  0.12666641800E+04  0.77000000000E+02 0.  0.
<mgrwt>
<rscale>  0 0.27319902E+03</rscale>
<asrwt>0</asrwt>
<pdfrwt beam="1">  1        2 0.37039172E+00 0.27319902E+03</pdfrwt>
<pdfrwt beam="2">  1       -2 0.10281132E-02 0.27319902E+03</pdfrwt>
<totfact> 0.92246090E+03</totfact>
</mgrwt>
</event>
<event>
 4    1  0.6919593E-004  0.3767670E+03  0.7818608E-02  0.1052135E+00
         -2   -1    0    0    0  501 -0.00000000000E+00  0.00000000000E+00  0.17532083239E+02  0.17532083425E+02  0.25500000000E-02 0. -1.
          2   -1    0    0  501    0  0.00000000000E+00 -0.00000000000E+00 -0.20241939999E+04  0.20241939999E+04  0.25500000000E-02 0.  1.
    5000001    1    1    2    0    0 -0.53541315800E+02  0.16240579820E+03 -0.90684382102E+03  0.92603295379E+03  0.77000000000E+02 0.  0.
   -5000001    1    1    2    0    0  0.53541315800E+02 -0.16240579820E+03 -0.10998180956E+04  0.11156931295E+04  0.77000000000E+02 0.  0.
<mgrwt>
<rscale>  0 0.37676697E+03</rscale>
<asrwt>0</asrwt>
<pdfrwt beam="1">  1        2 0.28917042E+00 0.37676697E+03</pdfrwt>
<pdfrwt beam="2">  1       -2 0.25045846E-02 0.37676697E+03</pdfrwt>
<totfact> 0.47628103E+03</totfact>
</mgrwt>
</event>
<event>
 4    1  0.6919593E-004  0.2341222E+03  0.7818608E-02  0.1123772E+00
          2   -1    0    0  501    0  0.00000000000E+00  0.00000000000E+00  0.16452447980E+04  0.16452447980E+04  0.25500000000E-02 0.  1.
         -2   -1    0    0    0  501 -0.00000000000E+00 -0.00000000000E+00 -0.83290326146E+01  0.83290330050E+01  0.25500000000E-02 0. -1.
    5000001    1    1    2    0    0 -0.54220056964E+02 -0.40379077475E+02  0.12182444605E+04  0.12225460523E+04  0.77000000000E+02 0.  0.
   -5000001    1    1    2    0    0  0.54220056964E+02  0.40379077475E+02  0.41867130485E+03  0.43102777866E+03  0.77000000000E+02 0.  0.
<mgrwt>
<rscale>  0 0.23412217E+03</rscale>
<asrwt>0</asrwt>
<pdfrwt beam="1">  1        2 0.23503496E+00 0.23412217E+03</pdfrwt>
<pdfrwt beam="2">  1       -2 0.11898619E-02 0.23412217E+03</pdfrwt>
<totfact> 0.21672834E+04</totfact>
</mgrwt>
</event>
<event>
 4    1  0.6919593E-004  0.2014779E+03  0.7818608E-02  0.1148498E+00
         -2   -1    0    0    0  501 -0.00000000000E+00  0.00000000000E+00  0.38552617934E+02  0.38552618019E+02  0.25500000000E-02 0. -1.
          2   -1    0    0  501    0  0.00000000000E+00 -0.00000000000E+00 -0.26323336450E+03  0.26323336451E+03  0.25500000000E-02 0.  1.
    5000001    1    1    2    0    0 -0.35693028820E+02  0.38003711871E+02 -0.17037281214E+03  0.19409835017E+03  0.77000000000E+02 0.  0.
   -5000001    1    1    2    0    0  0.35693028820E+02 -0.38003711871E+02 -0.54307934429E+02  0.10768763236E+03  0.77000000000E+02 0.  0.
<mgrwt>
<rscale>  0 0.20147789E+03</rscale>
<asrwt>0</asrwt>
<pdfrwt beam="1">  1        2 0.37604765E-01 0.20147789E+03</pdfrwt>
<pdfrwt beam="2">  1       -2 0.55075170E-02 0.20147789E+03</pdfrwt>
<totfact> 0.22278625E+04</totfact>
</mgrwt>
</event>
<event>
 4    1  0.6919593E-004  0.3810104E+03  0.7818608E-02  0.1050561E+00
         -2   -1    0    0    0  501 -0.00000000000E+00  0.00000000000E+00  0.19650577076E+02  0.19650577242E+02  0.25500000000E-02 0. -1.
          2   -1    0    0  501    0  0.00000000000E+00 -0.00000000000E+00 -0.18468790336E+04  0.18468790336E+04  0.25500000000E-02 0.  1.
    5000001    1    1    2    0    0 -0.30574008682E+02 -0.12408496392E+03 -0.14939086102E+04  0.15013406621E+04  0.77000000000E+02 0.  0.
   -5000001    1    1    2    0    0  0.30574008682E+02  0.12408496392E+03 -0.33331984638E+03  0.36518894873E+03  0.77000000000E+02 0.  0.
<mgrwt>
<rscale>  0 0.38101044E+03</rscale>
<asrwt>0</asrwt>
<pdfrwt beam="1">  1        2 0.26383975E+00 0.38101044E+03</pdfrwt>
<pdfrwt beam="2">  1       -2 0.28072265E-02 0.38101044E+03</pdfrwt>
<totfact> 0.49127162E+03</totfact>
</mgrwt>
</event>
<event>
 4    1  0.6919593E-004  0.2951878E+03  0.7818608E-02  0.1087671E+00
          2   -1    0    0  501    0  0.00000000000E+00  0.00000000000E+00  0.36765164184E+04  0.36765164184E+04  0.25500000000E-02 0.  1.
         -2   -1    0    0    0  501 -0.00000000000E+00 -0.00000000000E+00 -0.59251647414E+01  0.59251652901E+01  0.25500000000E-02 0. -1.
    5000001    1    1    2    0    0  0.75979024065E+02 -0.44966818561E+02  0.71531974000E+03  0.72484905829E+03  0.77000000000E+02 0.  0.
   -5000001    1    1    2    0    0 -0.75979024065E+02  0.44966818561E+02  0.29552715137E+04  0.29575925254E+04  0.77000000000E+02 0.  0.
<mgrwt>
<rscale>  0 0.29518785E+03</rscale>
<asrwt>0</asrwt>
<pdfrwt beam="1">  1        2 0.52521451E+00 0.29518785E+03</pdfrwt>
<pdfrwt beam="2">  1       -2 0.84645557E-03 0.29518785E+03</pdfrwt>
<totfact> 0.31295854E+03</totfact>
</mgrwt>
</event>
<event>
 4    1  0.6919593E-004  0.2487276E+03  0.7818608E-02  0.1114112E+00
          2   -1    0    0  501    0  0.00000000000E+00  0.00000000000E+00  0.17111394612E+03  0.17111394614E+03  0.25500000000E-02 0.  1.
         -2   -1    0    0    0  501 -0.00000000000E+00 -0.00000000000E+00 -0.90386262499E+02  0.90386262535E+02  0.25500000000E-02 0. -1.
    5000001    1    1    2    0    0 -0.91310250886E+02  0.11397478848E+02  0.74752624363E+02  0.14136625938E+03  0.77000000000E+02 0.  0.
   -5000001    1    1    2    0    0  0.91310250886E+02 -0.11397478848E+02  0.59750592605E+01  0.12013394930E+03  0.77000000000E+02 0.  0.
<mgrwt>
<rscale>  0 0.24872756E+03</rscale>
<asrwt>0</asrwt>
<pdfrwt beam="1">  1        2 0.24444850E-01 0.24872756E+03</pdfrwt>
<pdfrwt beam="2">  1       -2 0.12912323E-01 0.24872756E+03</pdfrwt>
<totfact> 0.95243900E+03</totfact>
</mgrwt>
</event>
<event>
 4    1  0.6919593E-004  0.3502551E+03  0.7818608E-02  0.1062510E+00
          2   -1    0    0  501    0  0.00000000000E+00  0.00000000000E+00  0.24518462722E+04  0.24518462722E+04  0.25500000000E-02 0.  1.
         -2   -1    0    0    0  501 -0.00000000000E+00 -0.00000000000E+00 -0.12508804639E+02  0.12508804899E+02  0.25500000000E-02 0. -1.
    5000001    1    1    2    0    0  0.69112774814E+02  0.97775733074E+02  0.19373289398E+04  0.19425522106E+04  0.77000000000E+02 0.  0.
   -5000001    1    1    2    0    0 -0.69112774814E+02 -0.97775733074E+02  0.50200852770E+03  0.52180286652E+03  0.77000000000E+02 0.  0.
<mgrwt>
<rscale>  0 0.35025514E+03</rscale>
<asrwt>0</asrwt>
<pdfrwt beam="1">  1        2 0.35026408E+00 0.35025514E+03</pdfrwt>
<pdfrwt beam="2">  1       -2 0.17869704E-02 0.35025514E+03</pdfrwt>
<totfact> 0.48274690E+03</totfact>
</mgrwt>
</event>
<event>
 4    1  0.6919593E-004  0.6852675E+03  0.7818608E-02  0.9742764E-01
         -2   -1    0    0    0  501 -0.00000000000E+00  0.00000000000E+00  0.65981403370E+02  0.65981403419E+02  0.25500000000E-02 0. -1.
          2   -1    0    0  501    0  0.00000000000E+00 -0.00000000000E+00 -0.17792574365E+04  0.17792574365E+04  0.25500000000E-02 0.  1.
    5000001    1    1    2    0    0 -0.80042758625E+02  0.30072728902E+03 -0.53099430771E+03  0.62026421821E+03  0.77000000000E+02 0.  0.
   -5000001    1    1    2    0    0  0.80042758625E+02 -0.30072728902E+03 -0.11822817254E+04  0.12249746217E+04  0.77000000000E+02 0.  0.
<mgrwt>
<rscale>  0 0.68526755E+03</rscale>
<asrwt>0</asrwt>
<pdfrwt beam="1">  1        2 0.25417960E+00 0.68526755E+03</pdfrwt>
<pdfrwt beam="2">  1       -2 0.94259159E-02 0.68526755E+03</pdfrwt>
<totfact> 0.80267877E+02</totfact>
</mgrwt>
</event>
<event>
 4    1  0.6919593E-004  0.2127789E+03  0.7818608E-02  0.1139384E+00
         -2   -1    0    0    0  501 -0.00000000000E+00  0.00000000000E+00  0.16703739107E+02  0.16703739302E+02  0.25500000000E-02 0. -1.
          2   -1    0    0  501    0  0.00000000000E+00 -0.00000000000E+00 -0.67761570133E+03  0.67761570133E+03  0.25500000000E-02 0.  1.
    5000001    1    1    2    0    0 -0.57263646153E+02 -0.42865631766E+02 -0.27652799766E+03  0.29582650498E+03  0.77000000000E+02 0.  0.
   -5000001    1    1    2    0    0  0.57263646153E+02  0.42865631766E+02 -0.38438396456E+03  0.39849293566E+03  0.77000000000E+02 0.  0.
<mgrwt>
<rscale>  0 0.21277891E+03</rscale>
<asrwt>0</asrwt>
<pdfrwt beam="1">  1        2 0.96802226E-01 0.21277891E+03</pdfrwt>
<pdfrwt beam="2">  1       -2 0.23862489E-02 0.21277891E+03</pdfrwt>
<totfact> 0.27726536E+04</totfact>
</mgrwt>
</event>
<event>
 4    1  0.6919593E-004  0.4979034E+03  0.7818608E-02  0.1014328E+00
         -2   -1    0    0    0  501 -0.00000000000E+00  0.00000000000E+00  0.30009713805E+02  0.30009713914E+02  0.25500000000E-02 0. -1.
          2   -1    0    0  501    0  0.00000000000E+00 -0.00000000000E+00 -0.20652292085E+04  0.20652292085E+04  0.25500000000E-02 0.  1.
    5000001    1    1    2    0    0  0.79318103742E+02  0.19083983672E+03 -0.15035839605E+04  0.15196726394E+04  0.77000000000E+02 0.  0.
   -5000001    1    1    2    0    0 -0.79318103742E+02 -0.19083983672E+03 -0.53163553427E+03  0.57556628303E+03  0.77000000000E+02 0.  0.
<mgrwt>
<rscale>  0 0.49790335E+03</rscale>
<asrwt>0</asrwt>
<pdfrwt beam="1">  1        2 0.29503265E+00 0.49790335E+03</pdfrwt>
<pdfrwt beam="2">  1       -2 0.42871033E-02 0.49790335E+03</pdfrwt>
<totfact> 0.20078969E+03</totfact>
</mgrwt>
</event>
<event>
 4    1  0.6919593E-004  0.2165452E+03  0.7818608E-02  0.1136485E+00
          2   -1    0    0  501    0  0.00000000000E+00  0.00000000000E+00  0.18386251783E+03  0.18386251785E+03  0.25500000000E-02 0.  1.
         -2   -1    0    0    0  501 -0.00000000000E+00 -0.00000000000E+00 -0.63759327976E+02  0.63759328027E+02  0.25500000000E-02 0. -1.
    5000001    1    1    2    0    0 -0.47448159315E+02  0.45765957279E+02  0.10356667212E+03  0.14491689426E+03  0.77000000000E+02 0.  0.
   -5000001    1    1    2    0    0  0.47448159315E+02 -0.45765957279E+02  0.16536517740E+02  0.10270495162E+03  0.77000000000E+02 0.  0.
<mgrwt>
<rscale>  0 0.21654515E+03</rscale>
<asrwt>0</asrwt>
<pdfrwt beam="1">  1        2 0.26266074E-01 0.21654515E+03</pdfrwt>
<pdfrwt beam="2">  1       -2 0.91084753E-02 0.21654515E+03</pdfrwt>
<totfact> 0.15225886E+04</totfact>
</mgrwt>
</event>
<event>
 4    1  0.6919593E-004  0.1958610E+03  0.7818608E-02  0.1153279E+00
          2   -1    0    0  501    0  0.00000000000E+00  0.00000000000E+00  0.64283821177E+03  0.64283821177E+03  0.25500000000E-02 0.  1.
         -2   -1    0    0    0  501 -0.00000000000E+00 -0.00000000000E+00 -0.14918811946E+02  0.14918812164E+02  0.25500000000E-02 0. -1.
    5000001    1    1    2    0    0  0.43108891009E+02 -0.42345487716E+02  0.32450795061E+03  0.33894826570E+03  0.77000000000E+02 0.  0.
   -5000001    1    1    2    0    0 -0.43108891009E+02  0.42345487716E+02  0.30341144921E+03  0.31880875824E+03  0.77000000000E+02 0.  0.
<mgrwt>
<rscale>  0 0.19586100E+03</rscale>
<asrwt>0</asrwt>
<pdfrwt beam="1">  1        2 0.91834009E-01 0.19586100E+03</pdfrwt>
<pdfrwt beam="2">  1       -2 0.21312594E-02 0.19586100E+03</pdfrwt>
<totfact> 0.34573497E+04</totfact>
</mgrwt>
</event>
<event>
 4    1  0.6919593E-004  0.2331396E+03  0.7818608E-02  0.1124449E+00
          2   -1    0    0  501    0  0.00000000000E+00  0.00000000000E+00  0.43968056784E+03  0.43968056784E+03  0.25500000000E-02 0.  1.
         -2   -1    0    0    0  501 -0.00000000000E+00 -0.00000000000E+00 -0.30905419761E+02  0.30905419866E+02  0.25500000000E-02 0. -1.
    5000001    1    1    2    0    0  0.70888416620E+02 -0.36621011931E+02  0.27697538121E+03  0.29834648971E+03  0.77000000000E+02 0.  0.
   -5000001    1    1    2    0    0 -0.70888416620E+02  0.36621011931E+02  0.13179976687E+03  0.17223949800E+03  0.77000000000E+02 0.  0.
<mgrwt>
<rscale>  0 0.23313955E+03</rscale>
<asrwt>0</asrwt>
<pdfrwt beam="1">  1        2 0.62811503E-01 0.23313955E+03</pdfrwt>
<pdfrwt beam="2">  1       -2 0.44150605E-02 0.23313955E+03</pdfrwt>
<totfact> 0.18125549E+04</totfact>
</mgrwt>
</event>
<event>
 4    1  0.6919593E-004  0.2227820E+03  0.7818608E-02  0.1131826E+00
         -2   -1    0    0    0  501 -0.00000000000E+00  0.00000000000E+00  0.63600732954E+01  0.63600738066E+01  0.25500000000E-02 0. -1.
          2   -1    0    0  501    0  0.00000000000E+00 -0.00000000000E+00 -0.19509137974E+04  0.19509137974E+04  0.25500000000E-02 0.  1.
    5000001    1    1    2    0    0  0.62928978685E+02  0.29320331958E+02 -0.13301450472E+04  0.13341793675E+04  0.77000000000E+02 0.  0.
   -5000001    1    1    2    0    0 -0.62928978685E+02 -0.29320331958E+02 -0.61440867690E+03  0.62309450365E+03  0.77000000000E+02 0.  0.
<mgrwt>
<rscale>  0 0.22278200E+03</rscale>
<asrwt>0</asrwt>
<pdfrwt beam="1">  1        2 0.27870159E+00 0.22278200E+03</pdfrwt>
<pdfrwt beam="2">  1       -2 0.90858318E-03 0.22278200E+03</pdfrwt>
<totfact> 0.22678938E+04</totfact>
</mgrwt>
</event>
<event>
 4    1  0.6919593E-004  0.2656915E+03  0.7818608E-02  0.1103771E+00
         -2   -1    0    0    0  501 -0.00000000000E+00  0.00000000000E+00  0.33598473943E+02  0.33598474039E+02  0.25500000000E-02 0. -1.
          2   -1    0    0  501    0  0.00000000000E+00 -0.00000000000E+00 -0.52526188195E+03  0.52526188196E+03  0.25500000000E-02 0.  1.
    5000001    1    1    2    0    0 -0.28121809838E+02 -0.10437279490E+03 -0.25818311690E+03  0.29029646632E+03  0.77000000000E+02 0.  0.
   -5000001    1    1    2    0    0  0.28121809838E+02  0.10437279490E+03 -0.23348029111E+03  0.26856388968E+03  0.77000000000E+02 0.  0.
<mgrwt>
<rscale>  0 0.26569153E+03</rscale>
<asrwt>0</asrwt>
<pdfrwt beam="1">  1        2 0.75037407E-01 0.26569153E+03</pdfrwt>
<pdfrwt beam="2">  1       -2 0.47997823E-02 0.26569153E+03</pdfrwt>
<totfact> 0.13233423E+04</totfact>
</mgrwt>
</event>
<event>
 4    1  0.6919593E-004  0.1748084E+03  0.7818608E-02  0.1172924E+00
          2   -1    0    0  501    0  0.00000000000E+00  0.00000000000E+00  0.40318530806E+02  0.40318530887E+02  0.25500000000E-02 0.  1.
         -2   -1    0    0    0  501 -0.00000000000E+00 -0.00000000000E+00 -0.18947856348E+03  0.18947856349E+03  0.25500000000E-02 0. -1.
    5000001    1    1    2    0    0 -0.23589949695E+02  0.33625856328E+02 -0.68232779992E+02  0.11077859092E+03  0.77000000000E+02 0.  0.
   -5000001    1    1    2    0    0  0.23589949695E+02 -0.33625856328E+02 -0.80927252680E+02  0.11901850346E+03  0.77000000000E+02 0.  0.
<mgrwt>
<rscale>  0 0.17480844E+03</rscale>
<asrwt>0</asrwt>
<pdfrwt beam="1">  1        2 0.57597902E-02 0.17480844E+03</pdfrwt>
<pdfrwt beam="2">  1       -2 0.27068366E-01 0.17480844E+03</pdfrwt>
<totfact> 0.15310742E+04</totfact>
</mgrwt>
</event>
<event>
 4    1  0.6919593E-004  0.1705115E+03  0.7818608E-02  0.1177316E+00
         -2   -1    0    0    0  501 -0.00000000000E+00  0.00000000000E+00  0.17200892297E+02  0.17200892486E+02  0.25500000000E-02 0. -1.
          2   -1    0    0  501    0  0.00000000000E+00 -0.00000000000E+00 -0.42256767718E+03  0.42256767718E+03  0.25500000000E-02 0.  1.
    5000001    1    1    2    0    0 -0.14748090451E+02  0.33373888441E+02 -0.21007719815E+03  0.22669969516E+03  0.77000000000E+02 0.  0.
   -5000001    1    1    2    0    0  0.14748090451E+02 -0.33373888441E+02 -0.19528958673E+03  0.21306887451E+03  0.77000000000E+02 0.  0.
<mgrwt>
<rscale>  0 0.17051148E+03</rscale>
<asrwt>0</asrwt>
<pdfrwt beam="1">  1        2 0.60366805E-01 0.17051148E+03</pdfrwt>
<pdfrwt beam="2">  1       -2 0.24572706E-02 0.17051148E+03</pdfrwt>
<totfact> 0.44064650E+04</totfact>
</mgrwt>
</event>
<event>
 4    1  0.6919593E-004  0.2104589E+03  0.7818608E-02  0.1141203E+00
          2   -1    0    0  501    0  0.00000000000E+00  0.00000000000E+00  0.70022208387E+03  0.70022208387E+03  0.25500000000E-02 0.  1.
         -2   -1    0    0    0  501 -0.00000000000E+00 -0.00000000000E+00 -0.15813898421E+02  0.15813898627E+02  0.25500000000E-02 0. -1.
    5000001    1    1    2    0    0 -0.16496587985E+02  0.68598689893E+02  0.29832637424E+03  0.31607838147E+03  0.77000000000E+02 0.  0.
   -5000001    1    1    2    0    0  0.16496587985E+02 -0.68598689893E+02  0.38608181121E+03  0.39995760103E+03  0.77000000000E+02 0.  0.
<mgrwt>
<rscale>  0 0.21045894E+03</rscale>
<asrwt>0</asrwt>
<pdfrwt beam="1">  1        2 0.10003172E+00 0.21045894E+03</pdfrwt>
<pdfrwt beam="2">  1       -2 0.22591284E-02 0.21045894E+03</pdfrwt>
<totfact> 0.28892471E+04</totfact>
</mgrwt>
</event>
<event>
 4    1  0.6919593E-004  0.5118861E+03  0.7818608E-02  0.1010722E+00
         -2   -1    0    0    0  501 -0.00000000000E+00  0.00000000000E+00  0.20158703221E+03  0.20158703223E+03  0.25500000000E-02 0. -1.
          2   -1    0    0  501    0  0.00000000000E+00 -0.00000000000E+00 -0.32495564422E+03  0.32495564423E+03  0.25500000000E-02 0.  1.
    5000001    1    1    2    0    0  0.67384661309E+02 -0.22661943056E+03  0.72228656926E+00  0.24864951354E+03  0.77000000000E+02 0.  0.
   -5000001    1    1    2    0    0 -0.67384661309E+02  0.22661943056E+03 -0.12409089858E+03  0.27789316292E+03  0.77000000000E+02 0.  0.
<mgrwt>
<rscale>  0 0.51188610E+03</rscale>
<asrwt>0</asrwt>
<pdfrwt beam="1">  1        2 0.46422235E-01 0.51188610E+03</pdfrwt>
<pdfrwt beam="2">  1       -2 0.28798147E-01 0.51188610E+03</pdfrwt>
<totfact> 0.12059307E+03</totfact>
</mgrwt>
</event>
<event>
 4    1  0.6919593E-004  0.2183004E+03  0.7818608E-02  0.1135157E+00
          2   -1    0    0  501    0  0.00000000000E+00  0.00000000000E+00  0.67876889526E+02  0.67876889574E+02  0.25500000000E-02 0.  1.
         -2   -1    0    0    0  501 -0.00000000000E+00 -0.00000000000E+00 -0.17552028432E+03  0.17552028433E+03  0.25500000000E-02 0. -1.
    5000001    1    1    2    0    0  0.72005273825E+01 -0.76243102227E+02 -0.66031075611E+02  0.12709823436E+03  0.77000000000E+02 0.  0.
   -5000001    1    1    2    0    0 -0.72005273825E+01  0.76243102227E+02 -0.41612319179E+02  0.11629893954E+03  0.77000000000E+02 0.  0.
<mgrwt>
<rscale>  0 0.21830044E+03</rscale>
<asrwt>0</asrwt>
<pdfrwt beam="1">  1        2 0.96966986E-02 0.21830044E+03</pdfrwt>
<pdfrwt beam="2">  1       -2 0.25074326E-01 0.21830044E+03</pdfrwt>
<totfact> 0.91864280E+03</totfact>
</mgrwt>
</event>
<event>
 4    1  0.6919593E-004  0.1902743E+03  0.7818608E-02  0.1158214E+00
          2   -1    0    0  501    0  0.00000000000E+00  0.00000000000E+00  0.66908483361E+03  0.66908483362E+03  0.25500000000E-02 0.  1.
         -2   -1    0    0    0  501 -0.00000000000E+00 -0.00000000000E+00 -0.13527550013E+02  0.13527550253E+02  0.25500000000E-02 0. -1.
    5000001    1    1    2    0    0  0.78723628565E+01 -0.48044941121E+02  0.42614390123E+03  0.43577277912E+03  0.77000000000E+02 0.  0.
   -5000001    1    1    2    0    0 -0.78723628565E+01  0.48044941121E+02  0.22941338237E+03  0.24683960475E+03  0.77000000000E+02 0.  0.
<mgrwt>
<rscale>  0 0.19027431E+03</rscale>
<asrwt>0</asrwt>
<pdfrwt beam="1">  1        2 0.95583567E-01 0.19027431E+03</pdfrwt>
<pdfrwt beam="2">  1       -2 0.19325068E-02 0.19027431E+03</pdfrwt>
<totfact> 0.38001509E+04</totfact>
</mgrwt>
</event>
<event>
 4    1  0.6919593E-004  0.3058107E+03  0.7818608E-02  0.1082371E+00
         -2   -1    0    0    0  501 -0.00000000000E+00  0.00000000000E+00  0.11651155134E+03  0.11651155137E+03  0.25500000000E-02 0. -1.
          2   -1    0    0  501    0  0.00000000000E+00 -0.00000000000E+00 -0.20066713047E+03  0.20066713049E+03  0.25500000000E-02 0.  1.
    5000001    1    1    2    0    0  0.29334651729E+02 -0.98278344438E+02 -0.12843070840E+03  0.18150096869E+03  0.77000000000E+02 0.  0.
   -5000001    1    1    2    0    0 -0.29334651729E+02  0.98278344438E+02  0.44275129268E+02  0.13567771316E+03  0.77000000000E+02 0.  0.
<mgrwt>
<rscale>  0 0.30581065E+03</rscale>
<asrwt>0</asrwt>
<pdfrwt beam="1">  1        2 0.28666733E-01 0.30581065E+03</pdfrwt>
<pdfrwt beam="2">  1       -2 0.16644507E-01 0.30581065E+03</pdfrwt>
<totfact> 0.52934473E+03</totfact>
</mgrwt>
</event>
<event>
 4    1  0.6919593E-004  0.4503361E+03  0.7818608E-02  0.1027622E+00
         -2   -1    0    0    0  501 -0.00000000000E+00  0.00000000000E+00  0.10102726289E+03  0.10102726292E+03  0.25500000000E-02 0. -1.
          2   -1    0    0  501    0  0.00000000000E+00 -0.00000000000E+00 -0.50185118278E+03  0.50185118278E+03  0.25500000000E-02 0.  1.
    5000001    1    1    2    0    0 -0.89184922680E+02 -0.15065110532E+03 -0.41322921749E+02  0.19566882693E+03  0.77000000000E+02 0.  0.
   -5000001    1    1    2    0    0  0.89184922680E+02  0.15065110532E+03 -0.35950099814E+03  0.40720961878E+03  0.77000000000E+02 0.  0.
<mgrwt>
<rscale>  0 0.45033610E+03</rscale>
<asrwt>0</asrwt>
<pdfrwt beam="1">  1        2 0.71693025E-01 0.45033610E+03</pdfrwt>
<pdfrwt beam="2">  1       -2 0.14432466E-01 0.45033610E+03</pdfrwt>
<totfact> 0.24783664E+03</totfact>
</mgrwt>
</event>
<event>
 4    1  0.6919593E-004  0.1879423E+03  0.7818608E-02  0.1160330E+00
          2   -1    0    0  501    0  0.00000000000E+00  0.00000000000E+00  0.93596589006E+01  0.93596592479E+01  0.25500000000E-02 0.  1.
         -2   -1    0    0    0  501 -0.00000000000E+00 -0.00000000000E+00 -0.94347241361E+03  0.94347241361E+03  0.25500000000E-02 0. -1.
    5000001    1    1    2    0    0 -0.50100138576E+02 -0.10123248435E+02 -0.55325450736E+03  0.56092071985E+03  0.77000000000E+02 0.  0.
   -5000001    1    1    2    0    0  0.50100138576E+02  0.10123248435E+02 -0.38085824735E+03  0.39191135301E+03  0.77000000000E+02 0.  0.
<mgrwt>
<rscale>  0 0.18794233E+03</rscale>
<asrwt>0</asrwt>
<pdfrwt beam="1">  1        2 0.13370948E-02 0.18794233E+03</pdfrwt>
<pdfrwt beam="2">  1       -2 0.13478171E+00 0.18794233E+03</pdfrwt>
<totfact> 0.38976478E+03</totfact>
</mgrwt>
</event>
<event>
 4    1  0.6919593E-004  0.4426149E+03  0.7818608E-02  0.1029948E+00
          2   -1    0    0  501    0  0.00000000000E+00  0.00000000000E+00  0.73795360332E+03  0.73795360333E+03  0.25500000000E-02 0.  1.
         -2   -1    0    0    0  501 -0.00000000000E+00 -0.00000000000E+00 -0.66368639520E+02  0.66368639569E+02  0.25500000000E-02 0. -1.
    5000001    1    1    2    0    0 -0.11152168238E+03 -0.12483881955E+03  0.55854781167E+03  0.58815514487E+03  0.77000000000E+02 0.  0.
   -5000001    1    1    2    0    0  0.11152168238E+03  0.12483881955E+03  0.11303715213E+03  0.21616709803E+03  0.77000000000E+02 0.  0.
<mgrwt>
<rscale>  0 0.44261485E+03</rscale>
<asrwt>0</asrwt>
<pdfrwt beam="1">  1        2 0.10542193E+00 0.44261485E+03</pdfrwt>
<pdfrwt beam="2">  1       -2 0.94812354E-02 0.44261485E+03</pdfrwt>
<totfact> 0.31314624E+03</totfact>
</mgrwt>
</event>
<event>
 4    1  0.6919593E-004  0.2628466E+03  0.7818608E-02  0.1105445E+00
         -2   -1    0    0    0  501 -0.00000000000E+00  0.00000000000E+00  0.26200344769E+02  0.26200344894E+02  0.25500000000E-02 0. -1.
          2   -1    0    0  501    0  0.00000000000E+00 -0.00000000000E+00 -0.65923133264E+03  0.65923133265E+03  0.25500000000E-02 0.  1.
    5000001    1    1    2    0    0 -0.73331390177E+02  0.76265267507E+02 -0.28466232761E+03  0.31329782089E+03  0.77000000000E+02 0.  0.
   -5000001    1    1    2    0    0  0.73331390177E+02 -0.76265267507E+02 -0.34836866026E+03  0.37213385665E+03  0.77000000000E+02 0.  0.
<mgrwt>
<rscale>  0 0.26284663E+03</rscale>
<asrwt>0</asrwt>
<pdfrwt beam="1">  1        2 0.94175895E-01 0.26284663E+03</pdfrwt>
<pdfrwt beam="2">  1       -2 0.37429068E-02 0.26284663E+03</pdfrwt>
<totfact> 0.14860020E+04</totfact>
</mgrwt>
</event>
<event>
 4    1  0.6919593E-004  0.2521123E+03  0.7818608E-02  0.1111977E+00
          2   -1    0    0  501    0  0.00000000000E+00  0.00000000000E+00  0.10811237596E+03  0.10811237599E+03  0.25500000000E-02 0.  1.
         -2   -1    0    0    0  501 -0.00000000000E+00 -0.00000000000E+00 -0.14697814589E+03  0.14697814592E+03  0.25500000000E-02 0. -1.
    5000001    1    1    2    0    0  0.45583370073E+02  0.35136218463E+02 -0.10193603627E+03  0.14011549866E+03  0.77000000000E+02 0.  0.
   -5000001    1    1    2    0    0 -0.45583370073E+02 -0.35136218463E+02  0.63070266330E+02  0.11497502324E+03  0.77000000000E+02 0.  0.
<mgrwt>
<rscale>  0 0.25211233E+03</rscale>
<asrwt>0</asrwt>
<pdfrwt beam="1">  1        2 0.15444625E-01 0.25211233E+03</pdfrwt>
<pdfrwt beam="2">  1       -2 0.20996878E-01 0.25211233E+03</pdfrwt>
<totfact> 0.71723813E+03</totfact>
</mgrwt>
</event>
<event>
 4    1  0.6919593E-004  0.1708093E+03  0.7818608E-02  0.1177006E+00
          2   -1    0    0  501    0  0.00000000000E+00  0.00000000000E+00  0.15234931089E+03  0.15234931091E+03  0.25500000000E-02 0.  1.
         -2   -1    0    0    0  501 -0.00000000000E+00 -0.00000000000E+00 -0.47876524635E+02  0.47876524703E+02  0.25500000000E-02 0. -1.
    5000001    1    1    2    0    0 -0.12403605850E+02 -0.34189107806E+02  0.59852297042E+02  0.10408670420E+03  0.77000000000E+02 0.  0.
   -5000001    1    1    2    0    0  0.12403605850E+02  0.34189107806E+02  0.44620489209E+02  0.96139131408E+02  0.77000000000E+02 0.  0.
<mgrwt>
<rscale>  0 0.17080932E+03</rscale>
<asrwt>0</asrwt>
<pdfrwt beam="1">  1        2 0.21764187E-01 0.17080932E+03</pdfrwt>
<pdfrwt beam="2">  1       -2 0.68395035E-02 0.17080932E+03</pdfrwt>
<totfact> 0.28747473E+04</totfact>
</mgrwt>
</event>
<event>
 4    1  0.6919593E-004  0.1741355E+03  0.7818608E-02  0.1173603E+00
          2   -1    0    0  501    0  0.00000000000E+00  0.00000000000E+00  0.22930019085E+04  0.22930019085E+04  0.25500000000E-02 0.  1.
         -2   -1    0    0    0  501 -0.00000000000E+00 -0.00000000000E+00 -0.33060538415E+01  0.33060548250E+01  0.25500000000E-02 0. -1.
    5000001    1    1    2    0    0  0.19909525935E+02 -0.12608408198E+02  0.70819845679E+03  0.71276182233E+03  0.77000000000E+02 0.  0.
   -5000001    1    1    2    0    0 -0.19909525935E+02  0.12608408198E+02  0.15814973979E+04  0.15835461410E+04  0.77000000000E+02 0.  0.
<mgrwt>
<rscale>  0 0.17413545E+03</rscale>
<asrwt>0</asrwt>
<pdfrwt beam="1">  1        2 0.32757197E+00 0.17413545E+03</pdfrwt>
<pdfrwt beam="2">  1       -2 0.47229309E-03 0.17413545E+03</pdfrwt>
<totfact> 0.39136270E+04</totfact>
</mgrwt>
</event>
<event>
 4    1  0.6919593E-004  0.2056773E+03  0.7818608E-02  0.1145036E+00
          2   -1    0    0  501    0  0.00000000000E+00  0.00000000000E+00  0.39220401800E+03  0.39220401801E+03  0.25500000000E-02 0.  1.
         -2   -1    0    0    0  501 -0.00000000000E+00 -0.00000000000E+00 -0.26965008860E+02  0.26965008981E+02  0.25500000000E-02 0. -1.
    5000001    1    1    2    0    0  0.20064619625E+02  0.59972932843E+02  0.13076294182E+03  0.16439978281E+03  0.77000000000E+02 0.  0.
   -5000001    1    1    2    0    0 -0.20064619625E+02 -0.59972932843E+02  0.23447606731E+03  0.25476924418E+03  0.77000000000E+02 0.  0.
<mgrwt>
<rscale>  0 0.20567727E+03</rscale>
<asrwt>0</asrwt>
<pdfrwt beam="1">  1        2 0.56029143E-01 0.20567727E+03</pdfrwt>
<pdfrwt beam="2">  1       -2 0.38521443E-02 0.20567727E+03</pdfrwt>
<totfact> 0.24944307E+04</totfact>
</mgrwt>
</event>
<event>
 4    1  0.6919593E-004  0.2447528E+03  0.7818608E-02  0.1116667E+00
          2   -1    0    0  501    0  0.00000000000E+00  0.00000000000E+00  0.55443244275E+03  0.55443244275E+03  0.25500000000E-02 0.  1.
         -2   -1    0    0    0  501 -0.00000000000E+00 -0.00000000000E+00 -0.27011385986E+02  0.27011386107E+02  0.25500000000E-02 0. -1.
    5000001    1    1    2    0    0 -0.81920817507E+02 -0.31381479011E+02  0.35103484683E+03  0.36993280640E+03  0.77000000000E+02 0.  0.
   -5000001    1    1    2    0    0  0.81920817507E+02  0.31381479011E+02  0.17638620993E+03  0.21151102245E+03  0.77000000000E+02 0.  0.
<mgrwt>
<rscale>  0 0.24475284E+03</rscale>
<asrwt>0</asrwt>
<pdfrwt beam="1">  1        2 0.79204631E-01 0.24475284E+03</pdfrwt>
<pdfrwt beam="2">  1       -2 0.38587696E-02 0.24475284E+03</pdfrwt>
<totfact> 0.17237380E+04</totfact>
</mgrwt>
</event>
<event>
 4    1  0.6919593E-004  0.2114449E+03  0.7818608E-02  0.1140427E+00
          2   -1    0    0  501    0  0.00000000000E+00  0.00000000000E+00  0.25611910508E+04  0.25611910508E+04  0.25500000000E-02 0.  1.
         -2   -1    0    0    0  501 -0.00000000000E+00 -0.00000000000E+00 -0.43640773085E+01  0.43640780535E+01  0.25500000000E-02 0. -1.
    5000001    1    1    2    0    0 -0.30745059849E+02  0.18676421622E+01  0.20740095008E+04  0.20756669184E+04  0.77000000000E+02 0.  0.
   -5000001    1    1    2    0    0  0.30745059849E+02 -0.18676421622E+01  0.48281747272E+03  0.48988821046E+03  0.77000000000E+02 0.  0.
<mgrwt>
<rscale>  0 0.21144490E+03</rscale>
<asrwt>0</asrwt>
<pdfrwt beam="1">  1        2 0.36588470E+00 0.21144490E+03</pdfrwt>
<pdfrwt beam="2">  1       -2 0.62343921E-03 0.21144490E+03</pdfrwt>
<totfact> 0.19610006E+04</totfact>
</mgrwt>
</event>
<event>
 4    1  0.6919593E-004  0.2911911E+03  0.7818608E-02  0.1089729E+00
         -2   -1    0    0    0  501 -0.00000000000E+00  0.00000000000E+00  0.21346564469E+02  0.21346564621E+02  0.25500000000E-02 0. -1.
          2   -1    0    0  501    0  0.00000000000E+00 -0.00000000000E+00 -0.99304345380E+03  0.99304345381E+03  0.25500000000E-02 0.  1.
    5000001    1    1    2    0    0 -0.57942678175E+02  0.10712009599E+03 -0.55867104956E+03  0.57695269350E+03  0.77000000000E+02 0.  0.
   -5000001    1    1    2    0    0  0.57942678175E+02 -0.10712009599E+03 -0.41302583977E+03  0.43743732492E+03  0.77000000000E+02 0.  0.
<mgrwt>
<rscale>  0 0.29119111E+03</rscale>
<asrwt>0</asrwt>
<pdfrwt beam="1">  1        2 0.14186332E+00 0.29119111E+03</pdfrwt>
<pdfrwt beam="2">  1       -2 0.30495098E-02 0.29119111E+03</pdfrwt>
<totfact> 0.12146619E+04</totfact>
</mgrwt>
</event>
<event>
 4    1  0.6919593E-004  0.1858449E+03  0.7818608E-02  0.1162263E+00
         -2   -1    0    0    0  501 -0.00000000000E+00  0.00000000000E+00  0.19452489838E+04  0.19452489838E+04  0.25500000000E-02 0. -1.
          2   -1    0    0  501    0  0.00000000000E+00 -0.00000000000E+00 -0.44388047969E+01  0.44388055293E+01  0.25500000000E-02 0.  1.
    5000001    1    1    2    0    0  0.28630398140E+02  0.16602099156E+02  0.54942521093E+03  0.55578088470E+03  0.77000000000E+02 0.  0.
   -5000001    1    1    2    0    0 -0.28630398140E+02 -0.16602099156E+02  0.13913849681E+04  0.13939069046E+04  0.77000000000E+02 0.  0.
<mgrwt>
<rscale>  0 0.18584489E+03</rscale>
<asrwt>0</asrwt>
<pdfrwt beam="1">  1        2 0.63411589E-03 0.18584489E+03</pdfrwt>
<pdfrwt beam="2">  1       -2 0.27789233E+00 0.18584489E+03</pdfrwt>
<totfact> 0.13315102E+03</totfact>
</mgrwt>
</event>
<event>
 4    1  0.6919593E-004  0.4109991E+03  0.7818608E-02  0.1040036E+00
         -2   -1    0    0    0  501 -0.00000000000E+00  0.00000000000E+00  0.17151825186E+03  0.17151825188E+03  0.25500000000E-02 0.  1.
          2   -1    0    0  501    0  0.00000000000E+00 -0.00000000000E+00 -0.24621328255E+03  0.24621328256E+03  0.25500000000E-02 0. -1.
    5000001    1    1    2    0    0  0.12499464186E+03 -0.14088716902E+03 -0.80973445210E+01  0.20363551232E+03  0.77000000000E+02 0.  0.
   -5000001    1    1    2    0    0 -0.12499464186E+03  0.14088716902E+03 -0.66597686165E+02  0.21409602213E+03  0.77000000000E+02 0.  0.
<mgrwt>
<rscale>  0 0.41099913E+03</rscale>
<asrwt>0</asrwt>
<pdfrwt beam="1">  1        2 0.35173326E-01 0.41099913E+03</pdfrwt>
<pdfrwt beam="2">  1       -2 0.24502608E-01 0.41099913E+03</pdfrwt>
<totfact> 0.21841585E+03</totfact>
</mgrwt>
</event>
<event>
 4    1  0.6919593E-004  0.5956223E+03  0.7818608E-02  0.9914530E-01
         -2   -1    0    0    0  501 -0.00000000000E+00  0.00000000000E+00  0.60243798795E+02  0.60243798849E+02  0.25500000000E-02 0. -1.
          2   -1    0    0  501    0  0.00000000000E+00 -0.00000000000E+00 -0.14722092457E+04  0.14722092457E+04  0.25500000000E-02 0.  1.
    5000001    1    1    2    0    0  0.19750524999E+03 -0.16702448448E+03 -0.10299688489E+04  0.10647395606E+04  0.77000000000E+02 0.  0.
   -5000001    1    1    2    0    0 -0.19750524999E+03  0.16702448448E+03 -0.38199659800E+03  0.46771348396E+03  0.77000000000E+02 0.  0.
<mgrwt>
<rscale>  0 0.59562229E+03</rscale>
<asrwt>0</asrwt>
<pdfrwt beam="1">  1        2 0.21031558E+00 0.59562229E+03</pdfrwt>
<pdfrwt beam="2">  1       -2 0.86062579E-02 0.59562229E+03</pdfrwt>
<totfact> 0.13421014E+03</totfact>
</mgrwt>
</event>
<event>
 4    1  0.6919593E-004  0.2372591E+03  0.7818608E-02  0.1121632E+00
         -2   -1    0    0    0  501 -0.00000000000E+00  0.00000000000E+00  0.18491402387E+03  0.18491402389E+03  0.25500000000E-02 0. -1.
          2   -1    0    0  501    0  0.00000000000E+00 -0.00000000000E+00 -0.76105471639E+02  0.76105471682E+02  0.25500000000E-02 0.  1.
    5000001    1    1    2    0    0 -0.50648546284E+02 -0.74567602023E+02  0.49689476585E+02  0.12854433708E+03  0.77000000000E+02 0.  0.
   -5000001    1    1    2    0    0  0.50648546284E+02  0.74567602023E+02  0.59119075648E+02  0.13247515849E+03  0.77000000000E+02 0.  0.
<mgrwt>
<rscale>  0 0.23725909E+03</rscale>
<asrwt>0</asrwt>
<pdfrwt beam="1">  1        2 0.10872210E-01 0.23725909E+03</pdfrwt>
<pdfrwt beam="2">  1       -2 0.26416289E-01 0.23725909E+03</pdfrwt>
<totfact> 0.73080876E+03</totfact>
</mgrwt>
</event>
<event>
 4    1  0.6919593E-004  0.2530214E+03  0.7818608E-02  0.1111410E+00
         -2   -1    0    0    0  501 -0.00000000000E+00  0.00000000000E+00  0.96026453205E+02  0.96026453239E+02  0.25500000000E-02 0. -1.
          2   -1    0    0  501    0  0.00000000000E+00 -0.00000000000E+00 -0.16667243047E+03  0.16667243049E+03  0.25500000000E-02 0.  1.
    5000001    1    1    2    0    0 -0.97252043322E+02 -0.98771204056E+01 -0.11637176099E+02  0.12497976358E+03  0.77000000000E+02 0.  0.
   -5000001    1    1    2    0    0  0.97252043322E+02  0.98771204056E+01 -0.59008801163E+02  0.13771912014E+03  0.77000000000E+02 0.  0.
<mgrwt>
<rscale>  0 0.25302144E+03</rscale>
<asrwt>0</asrwt>
<pdfrwt beam="1">  1        2 0.23810347E-01 0.25302144E+03</pdfrwt>
<pdfrwt beam="2">  1       -2 0.13718065E-01 0.25302144E+03</pdfrwt>
<totfact> 0.88951848E+03</totfact>
</mgrwt>
</event>
<event>
 4    1  0.6919593E-004  0.3345789E+03  0.7818608E-02  0.1069129E+00
         -2   -1    0    0    0  501 -0.00000000000E+00  0.00000000000E+00  0.86350940897E+02  0.86350940934E+02  0.25500000000E-02 0. -1.
          2   -1    0    0  501    0  0.00000000000E+00 -0.00000000000E+00 -0.32409331705E+03  0.32409331706E+03  0.25500000000E-02 0.  1.
    5000001    1    1    2    0    0  0.14740778403E+03 -0.17802995337E+02 -0.12289549239E+03  0.20755313413E+03  0.77000000000E+02 0.  0.
   -5000001    1    1    2    0    0 -0.14740778403E+03  0.17802995337E+02 -0.11484688376E+03  0.20289112386E+03  0.77000000000E+02 0.  0.
<mgrwt>
<rscale>  0 0.33457892E+03</rscale>
<asrwt>0</asrwt>
<pdfrwt beam="1">  1        2 0.46299045E-01 0.33457892E+03</pdfrwt>
<pdfrwt beam="2">  1       -2 0.12335849E-01 0.33457892E+03</pdfrwt>
<totfact> 0.51603203E+03</totfact>
</mgrwt>
</event>
<event>
 4    1  0.6919593E-004  0.1749928E+03  0.7818608E-02  0.1172739E+00
          2   -1    0    0  501    0  0.00000000000E+00  0.00000000000E+00  0.49221307795E+03  0.49221307795E+03  0.25500000000E-02 0.  1.
         -2   -1    0    0    0  501 -0.00000000000E+00 -0.00000000000E+00 -0.15553462181E+02  0.15553462390E+02  0.25500000000E-02 0. -1.
    5000001    1    1    2    0    0  0.29948403700E+02  0.98525765910E+01  0.31686937639E+03  0.32761132741E+03  0.77000000000E+02 0.  0.
   -5000001    1    1    2    0    0 -0.29948403700E+02 -0.98525765910E+01  0.15979023937E+03  0.18015521294E+03  0.77000000000E+02 0.  0.
<mgrwt>
<rscale>  0 0.17499277E+03</rscale>
<asrwt>0</asrwt>
<pdfrwt beam="1">  1        2 0.70316148E-01 0.17499277E+03</pdfrwt>
<pdfrwt beam="2">  1       -2 0.22219234E-02 0.17499277E+03</pdfrwt>
<totfact> 0.43404945E+04</totfact>
</mgrwt>
</event>
<event>
 4    1  0.6919593E-004  0.2035346E+03  0.7818608E-02  0.1146791E+00
          2   -1    0    0  501    0  0.00000000000E+00  0.00000000000E+00  0.25587566444E+02  0.25587566571E+02  0.25500000000E-02 0.  1.
         -2   -1    0    0    0  501 -0.00000000000E+00 -0.00000000000E+00 -0.40475057131E+03  0.40475057131E+03  0.25500000000E-02 0. -1.
    5000001    1    1    2    0    0 -0.14734749098E+02 -0.13961425597E+02 -0.55600254029E+02  0.97120659408E+02  0.77000000000E+02 0.  0.
   -5000001    1    1    2    0    0  0.14734749098E+02  0.13961425597E+02 -0.32356275083E+03  0.33321747848E+03  0.77000000000E+02 0.  0.
<mgrwt>
<rscale>  0 0.20353459E+03</rscale>
<asrwt>0</asrwt>
<pdfrwt beam="1">  1        2 0.36553669E-02 0.20353459E+03</pdfrwt>
<pdfrwt beam="2">  1       -2 0.57821506E-01 0.20353459E+03</pdfrwt>
<totfact> 0.66674711E+03</totfact>
</mgrwt>
</event>
<event>
 4    1  0.6919593E-004  0.5155659E+03  0.7818608E-02  0.1009794E+00
          2   -1    0    0  501    0  0.00000000000E+00  0.00000000000E+00  0.66369253269E+03  0.66369253270E+03  0.25500000000E-02 0.  1.
         -2   -1    0    0    0  501 -0.00000000000E+00 -0.00000000000E+00 -0.10012473914E+03  0.10012473917E+03  0.25500000000E-02 0. -1.
    5000001    1    1    2    0    0 -0.20172372790E+03  0.16003230429E+02  0.74507244254E+02  0.22897356884E+03  0.77000000000E+02 0.  0.
   -5000001    1    1    2    0    0  0.20172372790E+03 -0.16003230429E+02  0.48906054930E+03  0.53484370303E+03  0.77000000000E+02 0.  0.
<mgrwt>
<rscale>  0 0.51556587E+03</rscale>
<asrwt>0</asrwt>
<pdfrwt beam="1">  1        2 0.94813224E-01 0.51556587E+03</pdfrwt>
<pdfrwt beam="2">  1       -2 0.14303533E-01 0.51556587E+03</pdfrwt>
<totfact> 0.18205730E+03</totfact>
</mgrwt>
</event>
<event>
 4    1  0.6919593E-004  0.3135840E+03  0.7818608E-02  0.1078641E+00
          2   -1    0    0  501    0  0.00000000000E+00  0.00000000000E+00  0.41505088979E+02  0.41505089057E+02  0.25500000000E-02 0.  1.
         -2   -1    0    0    0  501 -0.00000000000E+00 -0.00000000000E+00 -0.59230655700E+03  0.59230655700E+03  0.25500000000E-02 0. -1.
    5000001    1    1    2    0    0 -0.32306553289E+02 -0.13260242259E+03 -0.28602312214E+03  0.32613699922E+03  0.77000000000E+02 0.  0.
   -5000001    1    1    2    0    0  0.32306553289E+02  0.13260242259E+03 -0.26477834588E+03  0.30767464684E+03  0.77000000000E+02 0.  0.
<mgrwt>
<rscale>  0 0.31358403E+03</rscale>
<asrwt>0</asrwt>
<pdfrwt beam="1">  1        2 0.59292988E-02 0.31358403E+03</pdfrwt>
<pdfrwt beam="2">  1       -2 0.84615217E-01 0.31358403E+03</pdfrwt>
<totfact> 0.15824970E+03</totfact>
</mgrwt>
</event>
<event>
 4    1  0.6919593E-004  0.3023791E+03  0.7818608E-02  0.1084057E+00
          2   -1    0    0  501    0  0.00000000000E+00  0.00000000000E+00  0.37230489988E+03  0.37230489989E+03  0.25500000000E-02 0.  1.
         -2   -1    0    0    0  501 -0.00000000000E+00 -0.00000000000E+00 -0.61396663369E+02  0.61396663422E+02  0.25500000000E-02 0. -1.
    5000001    1    1    2    0    0  0.11102446738E+02  0.10009287475E+03  0.37288281172E+02  0.13214107542E+03  0.77000000000E+02 0.  0.
   -5000001    1    1    2    0    0 -0.11102446738E+02 -0.10009287475E+03  0.27361995534E+03  0.30156048790E+03  0.77000000000E+02 0.  0.
<mgrwt>
<rscale>  0 0.30237909E+03</rscale>
<asrwt>0</asrwt>
<pdfrwt beam="1">  1        2 0.53186414E-01 0.30237909E+03</pdfrwt>
<pdfrwt beam="2">  1       -2 0.87709519E-02 0.30237909E+03</pdfrwt>
<totfact> 0.76421170E+03</totfact>
</mgrwt>
</event>
<event>
 4    1  0.6919593E-004  0.2131198E+03  0.7818608E-02  0.1139119E+00
          2   -1    0    0  501    0  0.00000000000E+00  0.00000000000E+00  0.19322100629E+03  0.19322100631E+03  0.25500000000E-02 0.  1.
         -2   -1    0    0    0  501 -0.00000000000E+00 -0.00000000000E+00 -0.58766944207E+02  0.58766944263E+02  0.25500000000E-02 0. -1.
    5000001    1    1    2    0    0  0.37245533169E+02  0.62982420528E+02  0.57194710543E+02  0.12064099614E+03  0.77000000000E+02 0.  0.
   -5000001    1    1    2    0    0 -0.37245533169E+02 -0.62982420528E+02  0.77259351541E+02  0.13134695443E+03  0.77000000000E+02 0.  0.
<mgrwt>
<rscale>  0 0.21311976E+03</rscale>
<asrwt>0</asrwt>
<pdfrwt beam="1">  1        2 0.27603001E-01 0.21311976E+03</pdfrwt>
<pdfrwt beam="2">  1       -2 0.83952777E-02 0.21311976E+03</pdfrwt>
<totfact> 0.16359621E+04</totfact>
</mgrwt>
</event>
<event>
 4    1  0.6919593E-004  0.4805814E+03  0.7818608E-02  0.1018976E+00
          2   -1    0    0  501    0  0.00000000000E+00  0.00000000000E+00  0.25441440127E+04  0.25441440127E+04  0.25500000000E-02 0.  1.
         -2   -1    0    0    0  501 -0.00000000000E+00 -0.00000000000E+00 -0.22695106624E+02  0.22695106767E+02  0.25500000000E-02 0. -1.
    5000001    1    1    2    0    0 -0.13133667319E+03 -0.18588666384E+03  0.12752992342E+04  0.12977366105E+04  0.77000000000E+02 0.  0.
   -5000001    1    1    2    0    0  0.13133667319E+03  0.18588666384E+03  0.12461496718E+04  0.12691025089E+04  0.77000000000E+02 0.  0.
<mgrwt>
<rscale>  0 0.48058140E+03</rscale>
<asrwt>0</asrwt>
<pdfrwt beam="1">  1        2 0.36344904E+00 0.48058140E+03</pdfrwt>
<pdfrwt beam="2">  1       -2 0.32421591E-02 0.48058140E+03</pdfrwt>
<totfact> 0.17661257E+03</totfact>
</mgrwt>
</event>
<event>
 4    1  0.6919593E-004  0.1822920E+03  0.7818608E-02  0.1165603E+00
         -2   -1    0    0    0  501 -0.00000000000E+00  0.00000000000E+00  0.53449849668E+01  0.53449855751E+01  0.25500000000E-02 0. -1.
          2   -1    0    0  501    0  0.00000000000E+00 -0.00000000000E+00 -0.15542772776E+04  0.15542772776E+04  0.25500000000E-02 0.  1.
    5000001    1    1    2    0    0  0.18651928985E+02  0.39673676424E+02 -0.95730337373E+03  0.96139515518E+03  0.77000000000E+02 0.  0.
   -5000001    1    1    2    0    0 -0.18651928985E+02 -0.39673676424E+02 -0.59162891891E+03  0.59822710800E+03  0.77000000000E+02 0.  0.
<mgrwt>
<rscale>  0 0.18229195E+03</rscale>
<asrwt>0</asrwt>
<pdfrwt beam="1">  1        2 0.22203932E+00 0.18229195E+03</pdfrwt>
<pdfrwt beam="2">  1       -2 0.76357032E-03 0.18229195E+03</pdfrwt>
<totfact> 0.44916508E+04</totfact>
</mgrwt>
</event>
<event>
 4    1  0.6919593E-004  0.1891859E+03  0.7818608E-02  0.1159198E+00
          2   -1    0    0  501    0  0.00000000000E+00  0.00000000000E+00  0.19042378816E+04  0.19042378816E+04  0.25500000000E-02 0.  1.
         -2   -1    0    0    0  501 -0.00000000000E+00 -0.00000000000E+00 -0.46988987112E+01  0.46988994031E+01  0.25500000000E-02 0. -1.
    5000001    1    1    2    0    0 -0.43679373221E+02  0.47342781044E+01  0.12826751749E+04  0.12857351614E+04  0.77000000000E+02 0.  0.
   -5000001    1    1    2    0    0  0.43679373221E+02 -0.47342781044E+01  0.61686380805E+03  0.62320161963E+03  0.77000000000E+02 0.  0.
<mgrwt>
<rscale>  0 0.18918585E+03</rscale>
<asrwt>0</asrwt>
<pdfrwt beam="1">  1        2 0.27203454E+00 0.18918585E+03</pdfrwt>
<pdfrwt beam="2">  1       -2 0.67126992E-03 0.18918585E+03</pdfrwt>
<totfact> 0.36613916E+04</totfact>
</mgrwt>
</event>
<event>
 4    1  0.6919593E-004  0.2236065E+03  0.7818608E-02  0.1131222E+00
         -2   -1    0    0    0  501 -0.00000000000E+00  0.00000000000E+00  0.11883039831E+02  0.11883040105E+02  0.25500000000E-02 0. -1.
          2   -1    0    0  501    0  0.00000000000E+00 -0.00000000000E+00 -0.10519163114E+04  0.10519163114E+04  0.25500000000E-02 0.  1.
    5000001    1    1    2    0    0  0.12699561440E+02  0.80059792712E+02 -0.52162508366E+03  0.53347218969E+03  0.77000000000E+02 0.  0.
   -5000001    1    1    2    0    0 -0.12699561440E+02 -0.80059792712E+02 -0.51840818787E+03  0.53032716178E+03  0.77000000000E+02 0.  0.
<mgrwt>
<rscale>  0 0.22360647E+03</rscale>
<asrwt>0</asrwt>
<pdfrwt beam="1">  1        2 0.15027370E+00 0.22360647E+03</pdfrwt>
<pdfrwt beam="2">  1       -2 0.16975778E-02 0.22360647E+03</pdfrwt>
<totfact> 0.26303558E+04</totfact>
</mgrwt>
</event>
<event>
 4    1  0.6919593E-004  0.2110759E+03  0.7818608E-02  0.1140717E+00
          2   -1    0    0  501    0  0.00000000000E+00  0.00000000000E+00  0.28420190276E+04  0.28420190276E+04  0.25500000000E-02 0.  1.
         -2   -1    0    0    0  501 -0.00000000000E+00 -0.00000000000E+00 -0.39191366342E+01  0.39191374637E+01  0.25500000000E-02 0. -1.
    5000001    1    1    2    0    0 -0.13057654085E+02  0.53397096653E+02  0.20496612510E+04  0.20518435603E+04  0.77000000000E+02 0.  0.
   -5000001    1    1    2    0    0  0.13057654085E+02 -0.53397096653E+02  0.78843864001E+03  0.79409460477E+03  0.77000000000E+02 0.  0.
<mgrwt>
<rscale>  0 0.21107593E+03</rscale>
<asrwt>0</asrwt>
<pdfrwt beam="1">  1        2 0.40600275E+00 0.21107593E+03</pdfrwt>
<pdfrwt beam="2">  1       -2 0.55987668E-03 0.21107593E+03</pdfrwt>
<totfact> 0.16503346E+04</totfact>
</mgrwt>
</event>
<event>
 4    1  0.6919593E-004  0.2679885E+03  0.7818608E-02  0.1102436E+00
          2   -1    0    0  501    0  0.00000000000E+00  0.00000000000E+00  0.93025957152E+03  0.93025957152E+03  0.25500000000E-02 0.  1.
         -2   -1    0    0    0  501 -0.00000000000E+00 -0.00000000000E+00 -0.19300488663E+02  0.19300488831E+02  0.25500000000E-02 0. -1.
    5000001    1    1    2    0    0 -0.81685187488E+02 -0.53033374830E+02  0.63407155312E+03  0.64611202061E+03  0.77000000000E+02 0.  0.
   -5000001    1    1    2    0    0  0.81685187488E+02  0.53033374830E+02  0.27688752974E+03  0.30344803975E+03  0.77000000000E+02 0.  0.
<mgrwt>
<rscale>  0 0.26798854E+03</rscale>
<asrwt>0</asrwt>
<pdfrwt beam="1">  1        2 0.13289420E+00 0.26798854E+03</pdfrwt>
<pdfrwt beam="2">  1       -2 0.27572131E-02 0.26798854E+03</pdfrwt>
<totfact> 0.15348216E+04</totfact>
</mgrwt>
</event>
<event>
 4    1  0.6919593E-004  0.2397504E+03  0.7818608E-02  0.1119959E+00
         -2   -1    0    0    0  501 -0.00000000000E+00  0.00000000000E+00  0.10331111808E+02  0.10331112123E+02  0.25500000000E-02 0. -1.
          2   -1    0    0  501    0  0.00000000000E+00 -0.00000000000E+00 -0.13909498340E+04  0.13909498340E+04  0.25500000000E-02 0.  1.
    5000001    1    1    2    0    0 -0.66611178888E+02  0.53886668170E+02 -0.49644010606E+03  0.50962986673E+03  0.77000000000E+02 0.  0.
   -5000001    1    1    2    0    0  0.66611178888E+02 -0.53886668170E+02 -0.88417861609E+03  0.89165107936E+03  0.77000000000E+02 0.  0.
<mgrwt>
<rscale>  0 0.23975036E+03</rscale>
<asrwt>0</asrwt>
<pdfrwt beam="1">  1        2 0.19870700E+00 0.23975036E+03</pdfrwt>
<pdfrwt beam="2">  1       -2 0.14758740E-02 0.23975036E+03</pdfrwt>
<totfact> 0.21275549E+04</totfact>
</mgrwt>
</event>
<event>
 4    1  0.6919593E-004  0.1868903E+03  0.7818608E-02  0.1161296E+00
         -2   -1    0    0    0  501 -0.00000000000E+00  0.00000000000E+00  0.31660545391E+03  0.31660545392E+03  0.25500000000E-02 0. -1.
          2   -1    0    0  501    0  0.00000000000E+00 -0.00000000000E+00 -0.27580051740E+02  0.27580051857E+02  0.25500000000E-02 0.  1.
    5000001    1    1    2    0    0 -0.99238477165E+01  0.51999931855E+02  0.14583965133E+03  0.17320704249E+03  0.77000000000E+02 0.  0.
   -5000001    1    1    2    0    0  0.99238477165E+01 -0.51999931855E+02  0.14318575084E+03  0.17097846330E+03  0.77000000000E+02 0.  0.
<mgrwt>
<rscale>  0 0.18689029E+03</rscale>
<asrwt>0</asrwt>
<pdfrwt beam="1">  1        2 0.39400077E-02 0.18689029E+03</pdfrwt>
<pdfrwt beam="2">  1       -2 0.45229347E-01 0.18689029E+03</pdfrwt>
<totfact> 0.97879843E+03</totfact>
</mgrwt>
</event>
<event>
 4    1  0.6919593E-004  0.2211473E+03  0.7818608E-02  0.1133031E+00
          2   -1    0    0  501    0  0.00000000000E+00  0.00000000000E+00  0.72569724671E+03  0.72569724672E+03  0.25500000000E-02 0.  1.
         -2   -1    0    0    0  501 -0.00000000000E+00 -0.00000000000E+00 -0.16847983819E+02  0.16847984012E+02  0.25500000000E-02 0. -1.
    5000001    1    1    2    0    0  0.78712774769E+02 -0.53481186348E+01  0.32569087386E+03  0.34384276727E+03  0.77000000000E+02 0.  0.
   -5000001    1    1    2    0    0 -0.78712774769E+02  0.53481186348E+01  0.38315838903E+03  0.39870246346E+03  0.77000000000E+02 0.  0.
<mgrwt>
<rscale>  0 0.22114733E+03</rscale>
<asrwt>0</asrwt>
<pdfrwt beam="1">  1        2 0.10367106E+00 0.22114733E+03</pdfrwt>
<pdfrwt beam="2">  1       -2 0.24068543E-02 0.22114733E+03</pdfrwt>
<totfact> 0.25317488E+04</totfact>
</mgrwt>
</event>
<event>
 4    1  0.6919593E-004  0.2398866E+03  0.7818608E-02  0.1119868E+00
         -2   -1    0    0    0  501 -0.00000000000E+00  0.00000000000E+00  0.11661931393E+02  0.11661931672E+02  0.25500000000E-02 0. -1.
          2   -1    0    0  501    0  0.00000000000E+00 -0.00000000000E+00 -0.12336197683E+04  0.12336197683E+04  0.25500000000E-02 0.  1.
    5000001    1    1    2    0    0 -0.90787344302E+02  0.26182124862E+01 -0.53607680085E+03  0.54914163322E+03  0.77000000000E+02 0.  0.
   -5000001    1    1    2    0    0  0.90787344302E+02 -0.26182124862E+01 -0.68588103603E+03  0.69614006673E+03  0.77000000000E+02 0.  0.
<mgrwt>
<rscale>  0 0.23988655E+03</rscale>
<asrwt>0</asrwt>
<pdfrwt beam="1">  1        2 0.17623131E+00 0.23988655E+03</pdfrwt>
<pdfrwt beam="2">  1       -2 0.16659910E-02 0.23988655E+03</pdfrwt>
<totfact> 0.21546237E+04</totfact>
</mgrwt>
</event>
<event>
 4    1  0.6919593E-004  0.2697418E+03  0.7818608E-02  0.1101427E+00
         -2   -1    0    0    0  501 -0.00000000000E+00  0.00000000000E+00  0.92328891422E+01  0.92328894943E+01  0.25500000000E-02 0. -1.
          2   -1    0    0  501    0  0.00000000000E+00 -0.00000000000E+00 -0.19701476366E+04  0.19701476366E+04  0.25500000000E-02 0.  1.
    5000001    1    1    2    0    0 -0.92386973515E+02  0.33966445296E+02 -0.13526121256E+04  0.13583731574E+04  0.77000000000E+02 0.  0.
   -5000001    1    1    2    0    0  0.92386973515E+02 -0.33966445296E+02 -0.60830262186E+03  0.62100736875E+03  0.77000000000E+02 0.  0.
<mgrwt>
<rscale>  0 0.26974177E+03</rscale>
<asrwt>0</asrwt>
<pdfrwt beam="1">  1        2 0.28144939E+00 0.26974177E+03</pdfrwt>
<pdfrwt beam="2">  1       -2 0.13189854E-02 0.26974177E+03</pdfrwt>
<totfact> 0.13001927E+04</totfact>
</mgrwt>
</event>
<event>
 4    1  0.6919593E-004  0.2596565E+03  0.7818608E-02  0.1107350E+00
         -2   -1    0    0    0  501 -0.00000000000E+00  0.00000000000E+00  0.11751491300E+02  0.11751491577E+02  0.25500000000E-02 0. -1.
          2   -1    0    0  501    0  0.00000000000E+00 -0.00000000000E+00 -0.14343173761E+04  0.14343173761E+04  0.25500000000E-02 0.  1.
    5000001    1    1    2    0    0 -0.61781998273E+01  0.99312813232E+02 -0.88959733184E+03  0.89845067636E+03  0.77000000000E+02 0.  0.
   -5000001    1    1    2    0    0  0.61781998273E+01 -0.99312813232E+02 -0.53296855296E+03  0.54761819132E+03  0.77000000000E+02 0.  0.
<mgrwt>
<rscale>  0 0.25965645E+03</rscale>
<asrwt>0</asrwt>
<pdfrwt beam="1">  1        2 0.20490237E+00 0.25965645E+03</pdfrwt>
<pdfrwt beam="2">  1       -2 0.16787854E-02 0.25965645E+03</pdfrwt>
<totfact> 0.16803581E+04</totfact>
</mgrwt>
</event>
<event>
 4    1  0.6919593E-004  0.2042815E+03  0.7818608E-02  0.1146176E+00
          2   -1    0    0  501    0  0.00000000000E+00  0.00000000000E+00  0.13473284005E+04  0.13473284005E+04  0.25500000000E-02 0.  1.
         -2   -1    0    0    0  501 -0.00000000000E+00 -0.00000000000E+00 -0.77432741744E+01  0.77432745943E+01  0.25500000000E-02 0. -1.
    5000001    1    1    2    0    0  0.40962100568E+02  0.47346582396E+02  0.83011416376E+03  0.83602518947E+03  0.77000000000E+02 0.  0.
   -5000001    1    1    2    0    0 -0.40962100568E+02 -0.47346582396E+02  0.50947096256E+03  0.51904648563E+03  0.77000000000E+02 0.  0.
<mgrwt>
<rscale>  0 0.20428151E+03</rscale>
<asrwt>0</asrwt>
<pdfrwt beam="1">  1        2 0.19247543E+00 0.20428151E+03</pdfrwt>
<pdfrwt beam="2">  1       -2 0.11061824E-02 0.20428151E+03</pdfrwt>
<totfact> 0.33745958E+04</totfact>
</mgrwt>
</event>
<event>
 4    1  0.6919593E-004  0.1705288E+03  0.7818608E-02  0.1177298E+00
          2   -1    0    0  501    0  0.00000000000E+00  0.00000000000E+00  0.11592299594E+04  0.11592299594E+04  0.25500000000E-02 0.  1.
         -2   -1    0    0    0  501 -0.00000000000E+00 -0.00000000000E+00 -0.62714187380E+01  0.62714192565E+01  0.25500000000E-02 0. -1.
    5000001    1    1    2    0    0 -0.15399307175E+02  0.30559060699E+02  0.66559770985E+03  0.67091005821E+03  0.77000000000E+02 0.  0.
   -5000001    1    1    2    0    0  0.15399307175E+02 -0.30559060699E+02  0.48736083082E+03  0.49459132045E+03  0.77000000000E+02 0.  0.
<mgrwt>
<rscale>  0 0.17052879E+03</rscale>
<asrwt>0</asrwt>
<pdfrwt beam="1">  1        2 0.16560419E+00 0.17052879E+03</pdfrwt>
<pdfrwt beam="2">  1       -2 0.89591750E-03 0.17052879E+03</pdfrwt>
<totfact> 0.56658406E+04</totfact>
</mgrwt>
</event>
<event>
 4    1  0.6919593E-004  0.2462461E+03  0.7818608E-02  0.1115700E+00
          2   -1    0    0  501    0  0.00000000000E+00  0.00000000000E+00  0.49684982386E+03  0.49684982386E+03  0.25500000000E-02 0.  1.
         -2   -1    0    0    0  501 -0.00000000000E+00 -0.00000000000E+00 -0.30510790461E+02  0.30510790568E+02  0.25500000000E-02 0. -1.
    5000001    1    1    2    0    0  0.60638930738E+02 -0.70631712794E+02  0.28404602820E+03  0.30866983155E+03  0.77000000000E+02 0.  0.
   -5000001    1    1    2    0    0 -0.60638930738E+02  0.70631712794E+02  0.18229300519E+03  0.21869078288E+03  0.77000000000E+02 0.  0.
<mgrwt>
<rscale>  0 0.24624606E+03</rscale>
<asrwt>0</asrwt>
<pdfrwt beam="1">  1        2 0.70978545E-01 0.24624606E+03</pdfrwt>
<pdfrwt beam="2">  1       -2 0.43586845E-02 0.24624606E+03</pdfrwt>
<totfact> 0.16219074E+04</totfact>
</mgrwt>
</event>
<event>
 4    1  0.6919593E-004  0.2480265E+03  0.7818608E-02  0.1114558E+00
          2   -1    0    0  501    0  0.00000000000E+00  0.00000000000E+00  0.51482851457E+02  0.51482851521E+02  0.25500000000E-02 0.  1.
         -2   -1    0    0    0  501 -0.00000000000E+00 -0.00000000000E+00 -0.29872642635E+03  0.29872642636E+03  0.25500000000E-02 0. -1.
    5000001    1    1    2    0    0 -0.51660228551E+01 -0.34777094633E+02 -0.25159260884E+03  0.26545051314E+03  0.77000000000E+02 0.  0.
   -5000001    1    1    2    0    0  0.51660228551E+01  0.34777094633E+02  0.43490339529E+01  0.84758764736E+02  0.77000000000E+02 0.  0.
<mgrwt>
<rscale>  0 0.24802652E+03</rscale>
<asrwt>0</asrwt>
<pdfrwt beam="1">  1        2 0.73546933E-02 0.24802652E+03</pdfrwt>
<pdfrwt beam="2">  1       -2 0.42675203E-01 0.24802652E+03</pdfrwt>
<totfact> 0.49243516E+03</totfact>
</mgrwt>
</event>
<event>
 4    1  0.6919593E-004  0.4390513E+03  0.7818608E-02  0.1031038E+00
          2   -1    0    0  501    0  0.00000000000E+00  0.00000000000E+00  0.66117100574E+02  0.66117100623E+02  0.25500000000E-02 0.  1.
         -2   -1    0    0    0  501 -0.00000000000E+00 -0.00000000000E+00 -0.72888134579E+03  0.72888134579E+03  0.25500000000E-02 0. -1.
    5000001    1    1    2    0    0 -0.94516200311E+02  0.13904120791E+03 -0.11715986358E+03  0.21890912099E+03  0.77000000000E+02 0.  0.
   -5000001    1    1    2    0    0  0.94516200311E+02 -0.13904120791E+03 -0.54560438163E+03  0.57608932543E+03  0.77000000000E+02 0.  0.
<mgrwt>
<rscale>  0 0.43905135E+03</rscale>
<asrwt>0</asrwt>
<pdfrwt beam="1">  1        2 0.94453005E-02 0.43905135E+03</pdfrwt>
<pdfrwt beam="2">  1       -2 0.10412590E+00 0.43905135E+03</pdfrwt>
<totfact> 0.54043952E+02</totfact>
</mgrwt>
</event>
<event>
 4    1  0.6919593E-004  0.2657701E+03  0.7818608E-02  0.1103725E+00
          2   -1    0    0  501    0  0.00000000000E+00  0.00000000000E+00  0.41712707739E+03  0.41712707740E+03  0.25500000000E-02 0.  1.
         -2   -1    0    0    0  501 -0.00000000000E+00 -0.00000000000E+00 -0.42333457034E+02  0.42333457111E+02  0.25500000000E-02 0. -1.
    5000001    1    1    2    0    0 -0.69229867037E+02 -0.82921203433E+02  0.20086925809E+03  0.24072008498E+03  0.77000000000E+02 0.  0.
   -5000001    1    1    2    0    0  0.69229867037E+02  0.82921203433E+02  0.17392436227E+03  0.21874044953E+03  0.77000000000E+02 0.  0.
<mgrwt>
<rscale>  0 0.26577006E+03</rscale>
<asrwt>0</asrwt>
<pdfrwt beam="1">  1        2 0.59589580E-01 0.26577006E+03</pdfrwt>
<pdfrwt beam="2">  1       -2 0.60476370E-02 0.26577006E+03</pdfrwt>
<totfact> 0.11979530E+04</totfact>
</mgrwt>
</event>
<event>
 4    1  0.6919593E-004  0.2340857E+03  0.7818608E-02  0.1123797E+00
          2   -1    0    0  501    0  0.00000000000E+00  0.00000000000E+00  0.14546232394E+02  0.14546232618E+02  0.25500000000E-02 0.  1.
         -2   -1    0    0    0  501 -0.00000000000E+00 -0.00000000000E+00 -0.94175777492E+03  0.94175777493E+03  0.25500000000E-02 0. -1.
    5000001    1    1    2    0    0  0.71134653004E+02 -0.51134961249E+02 -0.50344597134E+03  0.51678019426E+03  0.77000000000E+02 0.  0.
   -5000001    1    1    2    0    0 -0.71134653004E+02  0.51134961249E+02 -0.42376557119E+03  0.43952381328E+03  0.77000000000E+02 0.  0.
<mgrwt>
<rscale>  0 0.23408569E+03</rscale>
<asrwt>0</asrwt>
<pdfrwt beam="1">  1        2 0.20780338E-02 0.23408569E+03</pdfrwt>
<pdfrwt beam="2">  1       -2 0.13453679E+00 0.23408569E+03</pdfrwt>
<totfact> 0.21568579E+03</totfact>
</mgrwt>
</event>
<event>
 4    1  0.6919593E-004  0.3030975E+03  0.7818608E-02  0.1083702E+00
         -2   -1    0    0    0  501 -0.00000000000E+00  0.00000000000E+00  0.16564101229E+02  0.16564101425E+02  0.25500000000E-02 0. -1.
          2   -1    0    0  501    0  0.00000000000E+00 -0.00000000000E+00 -0.13865544967E+04  0.13865544967E+04  0.25500000000E-02 0.  1.
    5000001    1    1    2    0    0  0.61831917348E+02 -0.11487084263E+03 -0.66453579138E+03  0.68158294764E+03  0.77000000000E+02 0.  0.
   -5000001    1    1    2    0    0 -0.61831917348E+02  0.11487084263E+03 -0.70545460405E+03  0.72153565044E+03  0.77000000000E+02 0.  0.
<mgrwt>
<rscale>  0 0.30309754E+03</rscale>
<asrwt>0</asrwt>
<pdfrwt beam="1">  1        2 0.19807914E+00 0.30309754E+03</pdfrwt>
<pdfrwt beam="2">  1       -2 0.23663011E-02 0.30309754E+03</pdfrwt>
<totfact> 0.10775831E+04</totfact>
</mgrwt>
</event>
<event>
 4    1  0.6919593E-004  0.1920693E+03  0.7818608E-02  0.1156608E+00
          2   -1    0    0  501    0  0.00000000000E+00  0.00000000000E+00  0.48767636050E+03  0.48767636051E+03  0.25500000000E-02 0.  1.
         -2   -1    0    0    0  501 -0.00000000000E+00 -0.00000000000E+00 -0.18911420483E+02  0.18911420655E+02  0.25500000000E-02 0. -1.
    5000001    1    1    2    0    0 -0.32396509823E+02  0.48882685203E+01  0.35866072803E+03  0.36829328917E+03  0.77000000000E+02 0.  0.
   -5000001    1    1    2    0    0  0.32396509823E+02 -0.48882685203E+01  0.11010421199E+03  0.13829449199E+03  0.77000000000E+02 0.  0.
<mgrwt>
<rscale>  0 0.19206929E+03</rscale>
<asrwt>0</asrwt>
<pdfrwt beam="1">  1        2 0.69668040E-01 0.19206929E+03</pdfrwt>
<pdfrwt beam="2">  1       -2 0.27016320E-02 0.19206929E+03</pdfrwt>
<totfact> 0.33182614E+04</totfact>
</mgrwt>
</event>
<event>
 4    1  0.6919593E-004  0.2003810E+03  0.7818608E-02  0.1149418E+00
         -2   -1    0    0    0  501 -0.00000000000E+00  0.00000000000E+00  0.31491809106E+02  0.31491809210E+02  0.25500000000E-02 0. -1.
          2   -1    0    0  501    0  0.00000000000E+00 -0.00000000000E+00 -0.31875373786E+03  0.31875373787E+03  0.25500000000E-02 0.  1.
    5000001    1    1    2    0    0  0.13763834403E+02  0.52480094522E+02 -0.20330392879E+03  0.22406492568E+03  0.77000000000E+02 0.  0.
   -5000001    1    1    2    0    0 -0.13763834403E+02 -0.52480094522E+02 -0.83957999957E+02  0.12618062139E+03  0.77000000000E+02 0.  0.
<mgrwt>
<rscale>  0 0.20038096E+03</rscale>
<asrwt>0</asrwt>
<pdfrwt beam="1">  1        2 0.45536247E-01 0.20038096E+03</pdfrwt>
<pdfrwt beam="2">  1       -2 0.44988300E-02 0.20038096E+03</pdfrwt>
<totfact> 0.24631840E+04</totfact>
</mgrwt>
</event>
<event>
 4    1  0.6919593E-004  0.2169526E+03  0.7818608E-02  0.1136176E+00
         -2   -1    0    0    0  501 -0.00000000000E+00  0.00000000000E+00  0.92962895336E+01  0.92962898833E+01  0.25500000000E-02 0. -1.
          2   -1    0    0  501    0  0.00000000000E+00 -0.00000000000E+00 -0.12657856926E+04  0.12657856926E+04  0.25500000000E-02 0.  1.
    5000001    1    1    2    0    0 -0.51686190304E+02  0.56192959740E+02 -0.64587594003E+03  0.65491514023E+03  0.77000000000E+02 0.  0.
   -5000001    1    1    2    0    0  0.51686190304E+02 -0.56192959740E+02 -0.61061346302E+03  0.62016684224E+03  0.77000000000E+02 0.  0.
<mgrwt>
<rscale>  0 0.21695263E+03</rscale>
<asrwt>0</asrwt>
<pdfrwt beam="1">  1        2 0.18082642E+00 0.21695263E+03</pdfrwt>
<pdfrwt beam="2">  1       -2 0.13280422E-02 0.21695263E+03</pdfrwt>
<totfact> 0.28664068E+04</totfact>
</mgrwt>
</event>
<event>
 4    1  0.6919593E-004  0.2664019E+03  0.7818608E-02  0.1103357E+00
          2   -1    0    0  501    0  0.00000000000E+00  0.00000000000E+00  0.90603768598E+02  0.90603768634E+02  0.25500000000E-02 0.  1.
         -2   -1    0    0    0  501 -0.00000000000E+00 -0.00000000000E+00 -0.19582504969E+03  0.19582504971E+03  0.25500000000E-02 0. -1.
    5000001    1    1    2    0    0 -0.54405299198E+02 -0.52015884225E+02 -0.13691359855E+03  0.17418358781E+03  0.77000000000E+02 0.  0.
   -5000001    1    1    2    0    0  0.54405299198E+02  0.52015884225E+02  0.31692317458E+02  0.11224523054E+03  0.77000000000E+02 0.  0.
<mgrwt>
<rscale>  0 0.26640186E+03</rscale>
<asrwt>0</asrwt>
<pdfrwt beam="1">  1        2 0.12943396E-01 0.26640186E+03</pdfrwt>
<pdfrwt beam="2">  1       -2 0.27975007E-01 0.26640186E+03</pdfrwt>
<totfact> 0.53633373E+03</totfact>
</mgrwt>
</event>
<event>
 4    1  0.6919593E-004  0.3039295E+03  0.7818608E-02  0.1083293E+00
         -2   -1    0    0    0  501 -0.00000000000E+00  0.00000000000E+00  0.63803361746E+02  0.63803361797E+02  0.25500000000E-02 0. -1.
          2   -1    0    0  501    0  0.00000000000E+00 -0.00000000000E+00 -0.36194467861E+03  0.36194467862E+03  0.25500000000E-02 0.  1.
    5000001    1    1    2    0    0 -0.16784957114E+02  0.84473192829E+02 -0.28736726611E+03  0.30971987460E+03  0.77000000000E+02 0.  0.
   -5000001    1    1    2    0    0  0.16784957114E+02 -0.84473192829E+02 -0.10774050752E+02  0.11602816581E+03  0.77000000000E+02 0.  0.
<mgrwt>
<rscale>  0 0.30392951E+03</rscale>
<asrwt>0</asrwt>
<pdfrwt beam="1">  1        2 0.51706382E-01 0.30392951E+03</pdfrwt>
<pdfrwt beam="2">  1       -2 0.91147661E-02 0.30392951E+03</pdfrwt>
<totfact> 0.74162230E+03</totfact>
</mgrwt>
</event>
<event>
 4    1  0.6919593E-004  0.3442483E+03  0.7818608E-02  0.1065001E+00
          2   -1    0    0  501    0  0.00000000000E+00  0.00000000000E+00  0.19261036568E+04  0.19261036569E+04  0.25500000000E-02 0.  1.
         -2   -1    0    0    0  501 -0.00000000000E+00 -0.00000000000E+00 -0.15381689189E+02  0.15381689401E+02  0.25500000000E-02 0. -1.
    5000001    1    1    2    0    0 -0.50158986828E+02  0.14085507653E+03  0.74878390604E+03  0.76743886694E+03  0.77000000000E+02 0.  0.
   -5000001    1    1    2    0    0  0.50158986828E+02 -0.14085507653E+03  0.11619380616E+04  0.11740464793E+04  0.77000000000E+02 0.  0.
<mgrwt>
<rscale>  0 0.34424833E+03</rscale>
<asrwt>0</asrwt>
<pdfrwt beam="1">  1        2 0.27515798E+00 0.34424833E+03</pdfrwt>
<pdfrwt beam="2">  1       -2 0.21973817E-02 0.34424833E+03</pdfrwt>
<totfact> 0.64688047E+03</totfact>
</mgrwt>
</event>
<event>
 4    1  0.6919593E-004  0.5220052E+03  0.7818608E-02  0.1008190E+00
         -2   -1    0    0    0  501 -0.00000000000E+00  0.00000000000E+00  0.16828515225E+03  0.16828515227E+03  0.25500000000E-02 0. -1.
          2   -1    0    0  501    0  0.00000000000E+00 -0.00000000000E+00 -0.40480313252E+03  0.40480313253E+03  0.25500000000E-02 0.  1.
    5000001    1    1    2    0    0  0.21538410515E+03 -0.88810146480E+02 -0.21593640611E+03  0.32685636960E+03  0.77000000000E+02 0.  0.
   -5000001    1    1    2    0    0 -0.21538410515E+03  0.88810146480E+02 -0.20581574163E+02  0.24623191520E+03  0.77000000000E+02 0.  0.
<mgrwt>
<rscale>  0 0.52200520E+03</rscale>
<asrwt>0</asrwt>
<pdfrwt beam="1">  1        2 0.57829019E-01 0.52200520E+03</pdfrwt>
<pdfrwt beam="2">  1       -2 0.24040736E-01 0.52200520E+03</pdfrwt>
<totfact> 0.13110427E+03</totfact>
</mgrwt>
</event>
<event>
 4    1  0.6919593E-004  0.4694459E+03  0.7818608E-02  0.1022077E+00
         -2   -1    0    0    0  501 -0.00000000000E+00  0.00000000000E+00  0.17665873585E+03  0.17665873587E+03  0.25500000000E-02 0. -1.
          2   -1    0    0  501    0  0.00000000000E+00 -0.00000000000E+00 -0.31187173404E+03  0.31187173405E+03  0.25500000000E-02 0.  1.
    5000001    1    1    2    0    0  0.17541048523E+03 -0.87487163282E+02 -0.17546872320E+03  0.27411879704E+03  0.77000000000E+02 0.  0.
   -5000001    1    1    2    0    0 -0.17541048523E+03  0.87487163282E+02  0.40255725011E+02  0.21441167288E+03  0.77000000000E+02 0.  0.
<mgrwt>
<rscale>  0 0.46944591E+03</rscale>
<asrwt>0</asrwt>
<pdfrwt beam="1">  1        2 0.44553105E-01 0.46944591E+03</pdfrwt>
<pdfrwt beam="2">  1       -2 0.25236962E-01 0.46944591E+03</pdfrwt>
<totfact> 0.16011337E+03</totfact>
</mgrwt>
</event>
<event>
 4    1  0.6919593E-004  0.2139266E+03  0.7818608E-02  0.1138494E+00
         -2   -1    0    0    0  501 -0.00000000000E+00  0.00000000000E+00  0.59070938657E+03  0.59070938657E+03  0.25500000000E-02 0. -1.
          2   -1    0    0  501    0  0.00000000000E+00 -0.00000000000E+00 -0.19368491538E+02  0.19368491706E+02  0.25500000000E-02 0.  1.
    5000001    1    1    2    0    0 -0.32480839773E+02 -0.48408582859E+02  0.41678402367E+03  0.42782743978E+03  0.77000000000E+02 0.  0.
   -5000001    1    1    2    0    0  0.32480839773E+02  0.48408582859E+02  0.15455687136E+03  0.18225043850E+03  0.77000000000E+02 0.  0.
<mgrwt>
<rscale>  0 0.21392662E+03</rscale>
<asrwt>0</asrwt>
<pdfrwt beam="1">  1        2 0.27669269E-02 0.21392662E+03</pdfrwt>
<pdfrwt beam="2">  1       -2 0.84387070E-01 0.21392662E+03</pdfrwt>
<totfact> 0.43474001E+03</totfact>
</mgrwt>
</event>
<event>
 4    1  0.6919593E-004  0.2156300E+03  0.7818608E-02  0.1137184E+00
          2   -1    0    0  501    0  0.00000000000E+00  0.00000000000E+00  0.71675010111E+02  0.71675010156E+02  0.25500000000E-02 0.  1.
         -2   -1    0    0    0  501 -0.00000000000E+00 -0.00000000000E+00 -0.16217754433E+03  0.16217754435E+03  0.25500000000E-02 0. -1.
    5000001    1    1    2    0    0 -0.43352696645E+02 -0.61757974547E+02 -0.43890906695E+02  0.11639980849E+03  0.77000000000E+02 0.  0.
   -5000001    1    1    2    0    0  0.43352696645E+02  0.61757974547E+02 -0.46611627528E+02  0.11745274602E+03  0.77000000000E+02 0.  0.
<mgrwt>
<rscale>  0 0.21563003E+03</rscale>
<asrwt>0</asrwt>
<pdfrwt beam="1">  1        2 0.10239287E-01 0.21563003E+03</pdfrwt>
<pdfrwt beam="2">  1       -2 0.23168220E-01 0.21563003E+03</pdfrwt>
<totfact> 0.98536730E+03</totfact>
</mgrwt>
</event>
<event>
 4    1  0.6919593E-004  0.3877999E+03  0.7818608E-02  0.1048088E+00
         -2   -1    0    0    0  501 -0.00000000000E+00  0.00000000000E+00  0.31885336783E+02  0.31885336885E+02  0.25500000000E-02 0. -1.
          2   -1    0    0  501    0  0.00000000000E+00 -0.00000000000E+00 -0.11791370288E+04  0.11791370288E+04  0.25500000000E-02 0.  1.
    5000001    1    1    2    0    0  0.57958826569E+02 -0.16184589224E+03 -0.71723616180E+03  0.74155918860E+03  0.77000000000E+02 0.  0.
   -5000001    1    1    2    0    0 -0.57958826569E+02  0.16184589224E+03 -0.43001553026E+03  0.46946317712E+03  0.77000000000E+02 0.  0.
<mgrwt>
<rscale>  0 0.38779985E+03</rscale>
<asrwt>0</asrwt>
<pdfrwt beam="1">  1        2 0.16844812E+00 0.38779985E+03</pdfrwt>
<pdfrwt beam="2">  1       -2 0.45550489E-02 0.38779985E+03</pdfrwt>
<totfact> 0.52208420E+03</totfact>
</mgrwt>
</event>
<event>
 4    1  0.6919593E-004  0.2087783E+03  0.7818608E-02  0.1142537E+00
         -2   -1    0    0    0  501 -0.00000000000E+00  0.00000000000E+00  0.25009671675E+02  0.25009671805E+02  0.25500000000E-02 0. -1.
          2   -1    0    0  501    0  0.00000000000E+00 -0.00000000000E+00 -0.43571505388E+03  0.43571505389E+03  0.25500000000E-02 0.  1.
    5000001    1    1    2    0    0 -0.68353302916E+02 -0.13726109873E+02 -0.22823402861E+03  0.25075955002E+03  0.77000000000E+02 0.  0.
   -5000001    1    1    2    0    0  0.68353302916E+02  0.13726109873E+02 -0.18247135360E+03  0.20996517568E+03  0.77000000000E+02 0.  0.
<mgrwt>
<rscale>  0 0.20877826E+03</rscale>
<asrwt>0</asrwt>
<pdfrwt beam="1">  1        2 0.62245003E-01 0.20877826E+03</pdfrwt>
<pdfrwt beam="2">  1       -2 0.35728105E-02 0.20877826E+03</pdfrwt>
<totfact> 0.24947386E+04</totfact>
</mgrwt>
</event>
<event>
 4    1  0.6919593E-004  0.1869815E+03  0.7818608E-02  0.1161212E+00
          2   -1    0    0  501    0  0.00000000000E+00  0.00000000000E+00  0.43807831301E+04  0.43807831301E+04  0.25500000000E-02 0.  1.
         -2   -1    0    0    0  501 -0.00000000000E+00 -0.00000000000E+00 -0.19951958354E+01  0.19951974649E+01  0.25500000000E-02 0. -1.
    5000001    1    1    2    0    0 -0.19177393793E+02 -0.47028313820E+02  0.18323035895E+04  0.18346239066E+04  0.77000000000E+02 0.  0.
   -5000001    1    1    2    0    0  0.19177393793E+02  0.47028313820E+02  0.25464843448E+04  0.25481544209E+04  0.77000000000E+02 0.  0.
<mgrwt>
<rscale>  0 0.18698154E+03</rscale>
<asrwt>0</asrwt>
<pdfrwt beam="1">  1        2 0.62582773E+00 0.18698154E+03</pdfrwt>
<pdfrwt beam="2">  1       -2 0.28502738E-03 0.18698154E+03</pdfrwt>
<totfact> 0.52083155E+03</totfact>
</mgrwt>
</event>
<event>
 4    1  0.6919593E-004  0.1933740E+03  0.7818608E-02  0.1155453E+00
          2   -1    0    0  501    0  0.00000000000E+00  0.00000000000E+00  0.77805036517E+03  0.77805036517E+03  0.25500000000E-02 0.  1.
         -2   -1    0    0    0  501 -0.00000000000E+00 -0.00000000000E+00 -0.12015127463E+02  0.12015127733E+02  0.25500000000E-02 0. -1.
    5000001    1    1    2    0    0  0.57296316390E+02 -0.41209115150E+01  0.33834990126E+03  0.35172362086E+03  0.77000000000E+02 0.  0.
   -5000001    1    1    2    0    0 -0.57296316390E+02  0.41209115150E+01  0.42768533644E+03  0.43834187205E+03  0.77000000000E+02 0.  0.
<mgrwt>
<rscale>  0 0.19337398E+03</rscale>
<asrwt>0</asrwt>
<pdfrwt beam="1">  1        2 0.11115001E+00 0.19337398E+03</pdfrwt>
<pdfrwt beam="2">  1       -2 0.17164474E-02 0.19337398E+03</pdfrwt>
<totfact> 0.37822494E+04</totfact>
</mgrwt>
</event>
<event>
 4    1  0.6919593E-004  0.2817077E+03  0.7818608E-02  0.1094760E+00
          2   -1    0    0  501    0  0.00000000000E+00  0.00000000000E+00  0.15264081145E+04  0.15264081145E+04  0.25500000000E-02 0.  1.
         -2   -1    0    0    0  501 -0.00000000000E+00 -0.00000000000E+00 -0.12997707709E+02  0.12997707959E+02  0.25500000000E-02 0. -1.
    5000001    1    1    2    0    0  0.11545668915E+03  0.11942696552E+02  0.87106083927E+03  0.88212746289E+03  0.77000000000E+02 0.  0.
   -5000001    1    1    2    0    0 -0.11545668915E+03 -0.11942696552E+02  0.64234956750E+03  0.65727835956E+03  0.77000000000E+02 0.  0.
<mgrwt>
<rscale>  0 0.28170770E+03</rscale>
<asrwt>0</asrwt>
<pdfrwt beam="1">  1        2 0.21805832E+00 0.28170770E+03</pdfrwt>
<pdfrwt beam="2">  1       -2 0.18568152E-02 0.28170770E+03</pdfrwt>
<totfact> 0.13051847E+04</totfact>
</mgrwt>
</event>
<event>
 4    1  0.6919593E-004  0.4563700E+03  0.7818608E-02  0.1025839E+00
          2   -1    0    0  501    0  0.00000000000E+00  0.00000000000E+00  0.15900118779E+04  0.15900118779E+04  0.25500000000E-02 0.  1.
         -2   -1    0    0    0  501 -0.00000000000E+00 -0.00000000000E+00 -0.32747171882E+02  0.32747171982E+02  0.25500000000E-02 0. -1.
    5000001    1    1    2    0    0  0.14359978514E+03  0.15125955636E+03  0.96129931274E+03  0.98667406998E+03  0.77000000000E+02 0.  0.
   -5000001    1    1    2    0    0 -0.14359978514E+03 -0.15125955636E+03  0.59596539328E+03  0.63608497991E+03  0.77000000000E+02 0.  0.
<mgrwt>
<rscale>  0 0.45636999E+03</rscale>
<asrwt>0</asrwt>
<pdfrwt beam="1">  1        2 0.22714465E+00 0.45636999E+03</pdfrwt>
<pdfrwt beam="2">  1       -2 0.46781654E-02 0.45636999E+03</pdfrwt>
<totfact> 0.30434737E+03</totfact>
</mgrwt>
</event>
<event>
 4    1  0.6919593E-004  0.1953179E+03  0.7818608E-02  0.1153751E+00
         -2   -1    0    0    0  501 -0.00000000000E+00  0.00000000000E+00  0.65305246596E+02  0.65305246646E+02  0.25500000000E-02 0. -1.
          2   -1    0    0  501    0  0.00000000000E+00 -0.00000000000E+00 -0.14604137467E+03  0.14604137469E+03  0.25500000000E-02 0.  1.
    5000001    1    1    2    0    0  0.98743141349E+01 -0.58297938606E+02 -0.28910622833E+02  0.10129647495E+03  0.77000000000E+02 0.  0.
   -5000001    1    1    2    0    0 -0.98743141349E+01  0.58297938606E+02 -0.51825505239E+02  0.11005014638E+03  0.77000000000E+02 0.  0.
<mgrwt>
<rscale>  0 0.19531787E+03</rscale>
<asrwt>0</asrwt>
<pdfrwt beam="1">  1        2 0.20863053E-01 0.19531787E+03</pdfrwt>
<pdfrwt beam="2">  1       -2 0.93293210E-02 0.19531787E+03</pdfrwt>
<totfact> 0.18837713E+04</totfact>
</mgrwt>
</event>
<event>
 4    1  0.6919593E-004  0.1952180E+03  0.7818608E-02  0.1153837E+00
         -2   -1    0    0    0  501 -0.00000000000E+00  0.00000000000E+00  0.42186186565E+01  0.42186194272E+01  0.25500000000E-02 0. -1.
          2   -1    0    0  501    0  0.00000000000E+00 -0.00000000000E+00 -0.22584451969E+04  0.22584451969E+04  0.25500000000E-02 0.  1.
    5000001    1    1    2    0    0  0.24940402458E+02  0.54456885915E+02 -0.11654561511E+04  0.11695317936E+04  0.77000000000E+02 0.  0.
   -5000001    1    1    2    0    0 -0.24940402458E+02 -0.54456885915E+02 -0.10887704272E+04  0.10931320228E+04  0.77000000000E+02 0.  0.
<mgrwt>
<rscale>  0 0.19521803E+03</rscale>
<asrwt>0</asrwt>
<pdfrwt beam="1">  1        2 0.32263425E+00 0.19521803E+03</pdfrwt>
<pdfrwt beam="2">  1       -2 0.60266131E-03 0.19521803E+03</pdfrwt>
<totfact> 0.28887864E+04</totfact>
</mgrwt>
</event>
<event>
 4    1  0.6919593E-004  0.3969926E+03  0.7818608E-02  0.1044826E+00
         -2   -1    0    0    0  501 -0.00000000000E+00  0.00000000000E+00  0.32880155075E+02  0.32880155173E+02  0.25500000000E-02 0. -1.
          2   -1    0    0  501    0  0.00000000000E+00 -0.00000000000E+00 -0.11983146994E+04  0.11983146994E+04  0.25500000000E-02 0.  1.
    5000001    1    1    2    0    0  0.68273497161E+02 -0.14280927023E+03 -0.86722736522E+03  0.88491132950E+03  0.77000000000E+02 0.  0.
   -5000001    1    1    2    0    0 -0.68273497161E+02  0.14280927023E+03 -0.29820717915E+03  0.34628352512E+03  0.77000000000E+02 0.  0.
<mgrwt>
<rscale>  0 0.39699256E+03</rscale>
<asrwt>0</asrwt>
<pdfrwt beam="1">  1        2 0.17118779E+00 0.39699256E+03</pdfrwt>
<pdfrwt beam="2">  1       -2 0.46971658E-02 0.39699256E+03</pdfrwt>
<totfact> 0.48622613E+03</totfact>
</mgrwt>
</event>
<event>
 4    1  0.6919593E-004  0.1720177E+03  0.7818608E-02  0.1175760E+00
          2   -1    0    0  501    0  0.00000000000E+00  0.00000000000E+00  0.69345798576E+03  0.69345798577E+03  0.25500000000E-02 0.  1.
         -2   -1    0    0    0  501 -0.00000000000E+00 -0.00000000000E+00 -0.10667586904E+02  0.10667587209E+02  0.25500000000E-02 0. -1.
    5000001    1    1    2    0    0 -0.28422510984E+02  0.24224874320E+02  0.37656922822E+03  0.38617103375E+03  0.77000000000E+02 0.  0.
   -5000001    1    1    2    0    0  0.28422510984E+02 -0.24224874320E+02  0.30622117064E+03  0.31795453922E+03  0.77000000000E+02 0.  0.
<mgrwt>
<rscale>  0 0.17201771E+03</rscale>
<asrwt>0</asrwt>
<pdfrwt beam="1">  1        2 0.99065458E-01 0.17201771E+03</pdfrwt>
<pdfrwt beam="2">  1       -2 0.15239405E-02 0.17201771E+03</pdfrwt>
<totfact> 0.51027226E+04</totfact>
</mgrwt>
</event>
<event>
 4    1  0.6919593E-004  0.5283615E+03  0.7818608E-02  0.1006630E+00
          2   -1    0    0  501    0  0.00000000000E+00  0.00000000000E+00  0.28527779562E+04  0.28527779562E+04  0.25500000000E-02 0.  1.
         -2   -1    0    0    0  501 -0.00000000000E+00 -0.00000000000E+00 -0.24464386992E+02  0.24464387125E+02  0.25500000000E-02 0. -1.
    5000001    1    1    2    0    0  0.22690495936E+03 -0.10745854752E+03  0.12573402961E+04  0.12844714166E+04  0.77000000000E+02 0.  0.
   -5000001    1    1    2    0    0 -0.22690495936E+03  0.10745854752E+03  0.15709732732E+04  0.15927709267E+04  0.77000000000E+02 0.  0.
<mgrwt>
<rscale>  0 0.52836148E+03</rscale>
<asrwt>0</asrwt>
<pdfrwt beam="1">  1        2 0.40753932E+00 0.52836148E+03</pdfrwt>
<pdfrwt beam="2">  1       -2 0.34949158E-02 0.52836148E+03</pdfrwt>
<totfact> 0.10844978E+03</totfact>
</mgrwt>
</event>
<event>
 4    1  0.6919593E-004  0.2518912E+03  0.7818608E-02  0.1112115E+00
         -2   -1    0    0    0  501 -0.00000000000E+00  0.00000000000E+00  0.99640488943E+01  0.99640492206E+01  0.25500000000E-02 0. -1.
          2   -1    0    0  501    0  0.00000000000E+00 -0.00000000000E+00 -0.15919522490E+04  0.15919522490E+04  0.25500000000E-02 0.  1.
    5000001    1    1    2    0    0  0.97251666321E+02 -0.11903785669E+01 -0.92944951901E+03  0.93769116024E+03  0.77000000000E+02 0.  0.
   -5000001    1    1    2    0    0 -0.97251666321E+02  0.11903785669E+01 -0.65253868112E+03  0.66422513801E+03  0.77000000000E+02 0.  0.
<mgrwt>
<rscale>  0 0.25189117E+03</rscale>
<asrwt>0</asrwt>
<pdfrwt beam="1">  1        2 0.22742159E+00 0.25189117E+03</pdfrwt>
<pdfrwt beam="2">  1       -2 0.14234366E-02 0.25189117E+03</pdfrwt>
<totfact> 0.17796007E+04</totfact>
</mgrwt>
</event>
<event>
 4    1  0.6919593E-004  0.3179250E+03  0.7818608E-02  0.1076608E+00
          2   -1    0    0  501    0  0.00000000000E+00  0.00000000000E+00  0.23922274378E+02  0.23922274514E+02  0.25500000000E-02 0.  1.
         -2   -1    0    0    0  501 -0.00000000000E+00 -0.00000000000E+00 -0.10562988415E+04  0.10562988415E+04  0.25500000000E-02 0. -1.
    5000001    1    1    2    0    0  0.69549112728E+02  0.84546049599E+02 -0.80758060663E+03  0.81859669544E+03  0.77000000000E+02 0.  0.
   -5000001    1    1    2    0    0 -0.69549112728E+02 -0.84546049599E+02 -0.22479596045E+03  0.26162442053E+03  0.77000000000E+02 0.  0.
<mgrwt>
<rscale>  0 0.31792496E+03</rscale>
<asrwt>0</asrwt>
<pdfrwt beam="1">  1        2 0.34174684E-02 0.31792496E+03</pdfrwt>
<pdfrwt beam="2">  1       -2 0.15089981E+00 0.31792496E+03</pdfrwt>
<totfact> 0.82264729E+02</totfact>
</mgrwt>
</event>
<event>
 4    1  0.6919593E-004  0.3134654E+03  0.7818608E-02  0.1078697E+00
          2   -1    0    0  501    0  0.00000000000E+00  0.00000000000E+00  0.26014703242E+02  0.26014703367E+02  0.25500000000E-02 0.  1.
         -2   -1    0    0    0  501 -0.00000000000E+00 -0.00000000000E+00 -0.94427883162E+03  0.94427883162E+03  0.25500000000E-02 0. -1.
    5000001    1    1    2    0    0 -0.20637846126E+01  0.12956826443E+03 -0.59205100918E+03  0.61093828807E+03  0.77000000000E+02 0.  0.
   -5000001    1    1    2    0    0  0.20637846126E+01 -0.12956826443E+03 -0.32621311919E+03  0.35935524692E+03  0.77000000000E+02 0.  0.
<mgrwt>
<rscale>  0 0.31346536E+03</rscale>
<asrwt>0</asrwt>
<pdfrwt beam="1">  1        2 0.37163868E-02 0.31346536E+03</pdfrwt>
<pdfrwt beam="2">  1       -2 0.13489695E+00 0.31346536E+03</pdfrwt>
<totfact> 0.97758379E+02</totfact>
</mgrwt>
</event>
<event>
 4    1  0.6919593E-004  0.2007964E+03  0.7818608E-02  0.1149069E+00
          2   -1    0    0  501    0  0.00000000000E+00  0.00000000000E+00  0.47154026228E+02  0.47154026297E+02  0.25500000000E-02 0.  1.
         -2   -1    0    0    0  501 -0.00000000000E+00 -0.00000000000E+00 -0.21376335659E+03  0.21376335660E+03  0.25500000000E-02 0. -1.
    5000001    1    1    2    0    0 -0.62048193773E+01  0.61996016342E+02 -0.10460857394E+03  0.14406234611E+03  0.77000000000E+02 0.  0.
   -5000001    1    1    2    0    0  0.62048193773E+01 -0.61996016342E+02 -0.62000756421E+02  0.11685503679E+03  0.77000000000E+02 0.  0.
<mgrwt>
<rscale>  0 0.20079644E+03</rscale>
<asrwt>0</asrwt>
<pdfrwt beam="1">  1        2 0.67362896E-02 0.20079644E+03</pdfrwt>
<pdfrwt beam="2">  1       -2 0.30537622E-01 0.20079644E+03</pdfrwt>
<totfact> 0.10182900E+04</totfact>
</mgrwt>
</event>
<event>
 4    1  0.6919593E-004  0.1724033E+03  0.7818608E-02  0.1175364E+00
         -2   -1    0    0    0  501 -0.00000000000E+00  0.00000000000E+00  0.14125963249E+02  0.14125963479E+02  0.25500000000E-02 0. -1.
          2   -1    0    0  501    0  0.00000000000E+00 -0.00000000000E+00 -0.52603338112E+03  0.52603338113E+03  0.25500000000E-02 0.  1.
    5000001    1    1    2    0    0  0.50530647647E+01  0.33212998220E+02 -0.31647161872E+03  0.32743231693E+03  0.77000000000E+02 0.  0.
   -5000001    1    1    2    0    0 -0.50530647647E+01 -0.33212998220E+02 -0.19543579915E+03  0.21272702767E+03  0.77000000000E+02 0.  0.
<mgrwt>
<rscale>  0 0.17240334E+03</rscale>
<asrwt>0</asrwt>
<pdfrwt beam="1">  1        2 0.75147614E-01 0.17240334E+03</pdfrwt>
<pdfrwt beam="2">  1       -2 0.20179951E-02 0.17240334E+03</pdfrwt>
<totfact> 0.46382748E+04</totfact>
</mgrwt>
</event>
<event>
 4    1  0.6919593E-004  0.2344993E+03  0.7818608E-02  0.1123512E+00
         -2   -1    0    0    0  501 -0.00000000000E+00  0.00000000000E+00  0.20396776480E+03  0.20396776482E+03  0.25500000000E-02 0. -1.
          2   -1    0    0  501    0  0.00000000000E+00 -0.00000000000E+00 -0.67400233322E+02  0.67400233370E+02  0.25500000000E-02 0.  1.
    5000001    1    1    2    0    0  0.59458343324E+01  0.84295704329E+02  0.38165793237E+02  0.12052695337E+03  0.77000000000E+02 0.  0.
   -5000001    1    1    2    0    0 -0.59458343324E+01 -0.84295704329E+02  0.98401738243E+02  0.15084104482E+03  0.77000000000E+02 0.  0.
<mgrwt>
<rscale>  0 0.23449925E+03</rscale>
<asrwt>0</asrwt>
<pdfrwt beam="1">  1        2 0.96286047E-02 0.23449925E+03</pdfrwt>
<pdfrwt beam="2">  1       -2 0.29138252E-01 0.23449925E+03</pdfrwt>
<totfact> 0.71210861E+03</totfact>
</mgrwt>
</event>
<event>
 4    1  0.6919593E-004  0.2091452E+03  0.7818608E-02  0.1142245E+00
          2   -1    0    0  501    0  0.00000000000E+00  0.00000000000E+00  0.22502467592E+02  0.22502467736E+02  0.25500000000E-02 0.  1.
         -2   -1    0    0    0  501 -0.00000000000E+00 -0.00000000000E+00 -0.48596574282E+03  0.48596574283E+03  0.25500000000E-02 0. -1.
    5000001    1    1    2    0    0  0.59896963157E+02 -0.92675290244E+01 -0.14297233129E+03  0.17333095743E+03  0.77000000000E+02 0.  0.
   -5000001    1    1    2    0    0 -0.59896963157E+02  0.92675290244E+01 -0.32049094394E+03  0.33513725313E+03  0.77000000000E+02 0.  0.
<mgrwt>
<rscale>  0 0.20914520E+03</rscale>
<asrwt>0</asrwt>
<pdfrwt beam="1">  1        2 0.32146385E-02 0.20914520E+03</pdfrwt>
<pdfrwt beam="2">  1       -2 0.69423671E-01 0.20914520E+03</pdfrwt>
<totfact> 0.54194185E+03</totfact>
</mgrwt>
</event>
<event>
 4    1  0.6919593E-004  0.5203862E+03  0.7818608E-02  0.1008591E+00
          2   -1    0    0  501    0  0.00000000000E+00  0.00000000000E+00  0.39431884336E+03  0.39431884337E+03  0.25500000000E-02 0.  1.
         -2   -1    0    0    0  501 -0.00000000000E+00 -0.00000000000E+00 -0.17168963281E+03  0.17168963283E+03  0.25500000000E-02 0. -1.
    5000001    1    1    2    0    0 -0.22906934723E+03  0.66955074115E+02  0.18679380462E+03  0.31269261781E+03  0.77000000000E+02 0.  0.
   -5000001    1    1    2    0    0  0.22906934723E+03 -0.66955074115E+02  0.35835405936E+02  0.25331585839E+03  0.77000000000E+02 0.  0.
<mgrwt>
<rscale>  0 0.52038623E+03</rscale>
<asrwt>0</asrwt>
<pdfrwt beam="1">  1        2 0.56331262E-01 0.52038623E+03</pdfrwt>
<pdfrwt beam="2">  1       -2 0.24527091E-01 0.52038623E+03</pdfrwt>
<totfact> 0.13023440E+03</totfact>
</mgrwt>
</event>
<event>
 4    1  0.6919593E-004  0.2982290E+03  0.7818608E-02  0.1086129E+00
          2   -1    0    0  501    0  0.00000000000E+00  0.00000000000E+00  0.22911175486E+03  0.22911175488E+03  0.25500000000E-02 0.  1.
         -2   -1    0    0    0  501 -0.00000000000E+00 -0.00000000000E+00 -0.97049274960E+02  0.97049274993E+02  0.25500000000E-02 0. -1.
    5000001    1    1    2    0    0 -0.98313889952E+02 -0.81401835499E+02  0.61902776172E+02  0.16140890148E+03  0.77000000000E+02 0.  0.
   -5000001    1    1    2    0    0  0.98313889952E+02  0.81401835499E+02  0.70159703731E+02  0.16475212839E+03  0.77000000000E+02 0.  0.
<mgrwt>
<rscale>  0 0.29822897E+03</rscale>
<asrwt>0</asrwt>
<pdfrwt beam="1">  1        2 0.32730251E-01 0.29822897E+03</pdfrwt>
<pdfrwt beam="2">  1       -2 0.13864182E-01 0.29822897E+03</pdfrwt>
<totfact> 0.61906000E+03</totfact>
</mgrwt>
</event>
<event>
 4    1  0.6919593E-004  0.4465543E+03  0.7818608E-02  0.1028755E+00
          2   -1    0    0  501    0  0.00000000000E+00  0.00000000000E+00  0.12158848903E+04  0.12158848903E+04  0.25500000000E-02 0.  1.
         -2   -1    0    0    0  501 -0.00000000000E+00 -0.00000000000E+00 -0.41001156730E+02  0.41001156809E+02  0.25500000000E-02 0. -1.
    5000001    1    1    2    0    0 -0.11667035218E+03  0.17389851183E+03  0.61116230439E+03  0.65061588192E+03  0.77000000000E+02 0.  0.
   -5000001    1    1    2    0    0  0.11667035218E+03 -0.17389851183E+03  0.56372142920E+03  0.60627016522E+03  0.77000000000E+02 0.  0.
<mgrwt>
<rscale>  0 0.44655431E+03</rscale>
<asrwt>0</asrwt>
<pdfrwt beam="1">  1        2 0.17369783E+00 0.44655431E+03</pdfrwt>
<pdfrwt beam="2">  1       -2 0.58573085E-02 0.44655431E+03</pdfrwt>
<totfact> 0.33859723E+03</totfact>
</mgrwt>
</event>
<event>
 4    1  0.6919593E-004  0.5111401E+03  0.7818608E-02  0.1010911E+00
         -2   -1    0    0    0  501 -0.00000000000E+00  0.00000000000E+00  0.23176809037E+03  0.23176809038E+03  0.25500000000E-02 0. -1.
          2   -1    0    0  501    0  0.00000000000E+00 -0.00000000000E+00 -0.28181639256E+03  0.28181639257E+03  0.25500000000E-02 0.  1.
    5000001    1    1    2    0    0 -0.23519489362E+03  0.51038716831E+01  0.38875257083E+02  0.25056530707E+03  0.77000000000E+02 0.  0.
   -5000001    1    1    2    0    0  0.23519489362E+03 -0.51038716831E+01 -0.88923559275E+02  0.26301917589E+03  0.77000000000E+02 0.  0.
<mgrwt>
<rscale>  0 0.51114009E+03</rscale>
<asrwt>0</asrwt>
<pdfrwt beam="1">  1        2 0.40259485E-01 0.51114009E+03</pdfrwt>
<pdfrwt beam="2">  1       -2 0.33109727E-01 0.51114009E+03</pdfrwt>
<totfact> 0.10893874E+03</totfact>
</mgrwt>
</event>
<event>
 4    1  0.6919593E-004  0.2097668E+03  0.7818608E-02  0.1141751E+00
          2   -1    0    0  501    0  0.00000000000E+00  0.00000000000E+00  0.13059333716E+04  0.13059333716E+04  0.25500000000E-02 0.  1.
         -2   -1    0    0    0  501 -0.00000000000E+00 -0.00000000000E+00 -0.84234984060E+01  0.84234987919E+01  0.25500000000E-02 0. -1.
    5000001    1    1    2    0    0  0.51392726608E+02 -0.47177497842E+02  0.55913005624E+03  0.56870233730E+03  0.77000000000E+02 0.  0.
   -5000001    1    1    2    0    0 -0.51392726608E+02  0.47177497842E+02  0.73837981696E+03  0.74565453311E+03  0.77000000000E+02 0.  0.
<mgrwt>
<rscale>  0 0.20976680E+03</rscale>
<asrwt>0</asrwt>
<pdfrwt beam="1">  1        2 0.18656213E+00 0.20976680E+03</pdfrwt>
<pdfrwt beam="2">  1       -2 0.12033556E-02 0.20976680E+03</pdfrwt>
<totfact> 0.31440256E+04</totfact>
</mgrwt>
</event>
<event>
 4    1  0.6919593E-004  0.2901840E+03  0.7818608E-02  0.1090253E+00
         -2   -1    0    0    0  501 -0.00000000000E+00  0.00000000000E+00  0.16615005126E+02  0.16615005322E+02  0.25500000000E-02 0. -1.
          2   -1    0    0  501    0  0.00000000000E+00 -0.00000000000E+00 -0.12670283085E+04  0.12670283085E+04  0.25500000000E-02 0.  1.
    5000001    1    1    2    0    0 -0.38079300328E+02  0.86807179767E+02 -0.97174777183E+03  0.97939177637E+03  0.77000000000E+02 0.  0.
   -5000001    1    1    2    0    0  0.38079300328E+02 -0.86807179767E+02 -0.27866553159E+03  0.30425153750E+03  0.77000000000E+02 0.  0.
<mgrwt>
<rscale>  0 0.29018396E+03</rscale>
<asrwt>0</asrwt>
<pdfrwt beam="1">  1        2 0.18100398E+00 0.29018396E+03</pdfrwt>
<pdfrwt beam="2">  1       -2 0.23735730E-02 0.29018396E+03</pdfrwt>
<totfact> 0.12380171E+04</totfact>
</mgrwt>
</event>
<event>
 4    1  0.6919593E-004  0.3328267E+03  0.7818608E-02  0.1069893E+00
          2   -1    0    0  501    0  0.00000000000E+00  0.00000000000E+00  0.90228492240E+03  0.90228492240E+03  0.25500000000E-02 0.  1.
         -2   -1    0    0    0  501 -0.00000000000E+00 -0.00000000000E+00 -0.30692529457E+02  0.30692529563E+02  0.25500000000E-02 0. -1.
    5000001    1    1    2    0    0 -0.68553377163E+02 -0.12960942317E+03  0.48153537954E+03  0.50921850894E+03  0.77000000000E+02 0.  0.
   -5000001    1    1    2    0    0  0.68553377163E+02  0.12960942317E+03  0.39005701340E+03  0.42375894303E+03  0.77000000000E+02 0.  0.
<mgrwt>
<rscale>  0 0.33282672E+03</rscale>
<asrwt>0</asrwt>
<pdfrwt beam="1">  1        2 0.12889782E+00 0.33282672E+03</pdfrwt>
<pdfrwt beam="2">  1       -2 0.43846481E-02 0.33282672E+03</pdfrwt>
<totfact> 0.80237462E+03</totfact>
</mgrwt>
</event>
<event>
 4    1  0.6919593E-004  0.1710177E+03  0.7818608E-02  0.1176791E+00
         -2   -1    0    0    0  501 -0.00000000000E+00  0.00000000000E+00  0.15591456587E+03  0.15591456589E+03  0.25500000000E-02 0. -1.
          2   -1    0    0  501    0  0.00000000000E+00 -0.00000000000E+00 -0.46895987733E+02  0.46895987802E+02  0.25500000000E-02 0.  1.
    5000001    1    1    2    0    0  0.23270128801E+02  0.69213151046E+01  0.21106276802E+02  0.83449855708E+02  0.77000000000E+02 0.  0.
   -5000001    1    1    2    0    0 -0.23270128801E+02 -0.69213151046E+01  0.87912301331E+02  0.11936069798E+03  0.77000000000E+02 0.  0.
<mgrwt>
<rscale>  0 0.17101775E+03</rscale>
<asrwt>0</asrwt>
<pdfrwt beam="1">  1        2 0.66994268E-02 0.17101775E+03</pdfrwt>
<pdfrwt beam="2">  1       -2 0.22273509E-01 0.17101775E+03</pdfrwt>
<totfact> 0.17681969E+04</totfact>
</mgrwt>
</event>
<event>
 4    1  0.6919593E-004  0.3334381E+03  0.7818608E-02  0.1069626E+00
         -2   -1    0    0    0  501 -0.00000000000E+00  0.00000000000E+00  0.13588720890E+02  0.13588721129E+02  0.25500000000E-02 0. -1.
          2   -1    0    0  501    0  0.00000000000E+00 -0.00000000000E+00 -0.20454639148E+04  0.20454639148E+04  0.25500000000E-02 0.  1.
    5000001    1    1    2    0    0  0.32363681523E+02  0.10166877349E+03 -0.16481752528E+04  0.16534190671E+04  0.77000000000E+02 0.  0.
   -5000001    1    1    2    0    0 -0.32363681523E+02 -0.10166877349E+03 -0.38369994110E+03  0.40563356886E+03  0.77000000000E+02 0.  0.
<mgrwt>
<rscale>  0 0.33343808E+03</rscale>
<asrwt>0</asrwt>
<pdfrwt beam="1">  1        2 0.29220893E+00 0.33343808E+03</pdfrwt>
<pdfrwt beam="2">  1       -2 0.19412472E-02 0.33343808E+03</pdfrwt>
<totfact> 0.67897653E+03</totfact>
</mgrwt>
</event>
<event>
 4    1  0.6919593E-004  0.3375313E+03  0.7818608E-02  0.1067852E+00
          2   -1    0    0  501    0  0.00000000000E+00  0.00000000000E+00  0.64083076267E+03  0.64083076268E+03  0.25500000000E-02 0.  1.
         -2   -1    0    0    0  501 -0.00000000000E+00 -0.00000000000E+00 -0.44445181489E+02  0.44445181563E+02  0.25500000000E-02 0. -1.
    5000001    1    1    2    0    0  0.14512590902E+03  0.14163692506E+02  0.37113251449E+03  0.40611634167E+03  0.77000000000E+02 0.  0.
   -5000001    1    1    2    0    0 -0.14512590902E+03 -0.14163692506E+02  0.22525306669E+03  0.27915960257E+03  0.77000000000E+02 0.  0.
<mgrwt>
<rscale>  0 0.33753127E+03</rscale>
<asrwt>0</asrwt>
<pdfrwt beam="1">  1        2 0.91547246E-01 0.33753127E+03</pdfrwt>
<pdfrwt beam="2">  1       -2 0.63493121E-02 0.33753127E+03</pdfrwt>
<totfact> 0.69354904E+03</totfact>
</mgrwt>
</event>
<event>
 4    1  0.6919593E-004  0.2787102E+03  0.7818608E-02  0.1096395E+00
         -2   -1    0    0    0  501 -0.00000000000E+00  0.00000000000E+00  0.56644334752E+03  0.56644334753E+03  0.25500000000E-02 0. -1.
          2   -1    0    0  501    0  0.00000000000E+00 -0.00000000000E+00 -0.34283833917E+02  0.34283834012E+02  0.25500000000E-02 0.  1.
    5000001    1    1    2    0    0  0.23193421309E+02 -0.92409814887E+02  0.12289127049E+03  0.17351879737E+03  0.77000000000E+02 0.  0.
   -5000001    1    1    2    0    0 -0.23193421309E+02  0.92409814887E+02  0.40926824312E+03  0.42720838417E+03  0.77000000000E+02 0.  0.
<mgrwt>
<rscale>  0 0.27871024E+03</rscale>
<asrwt>0</asrwt>
<pdfrwt beam="1">  1        2 0.48976905E-02 0.27871024E+03</pdfrwt>
<pdfrwt beam="2">  1       -2 0.80920479E-01 0.27871024E+03</pdfrwt>
<totfact> 0.22414817E+03</totfact>
</mgrwt>
</event>
<event>
 4    1  0.6919593E-004  0.1787604E+03  0.7818608E-02  0.1169008E+00
         -2   -1    0    0    0  501 -0.00000000000E+00  0.00000000000E+00  0.77164043902E+03  0.77164043903E+03  0.25500000000E-02 0. -1.
          2   -1    0    0  501    0  0.00000000000E+00 -0.00000000000E+00 -0.10353039219E+02  0.10353039533E+02  0.25500000000E-02 0.  1.
    5000001    1    1    2    0    0  0.42062170211E+02 -0.23423159467E+01  0.45450873128E+03  0.46290592934E+03  0.77000000000E+02 0.  0.
   -5000001    1    1    2    0    0 -0.42062170211E+02  0.23423159467E+01  0.30677866852E+03  0.31908754922E+03  0.77000000000E+02 0.  0.
<mgrwt>
<rscale>  0 0.17876044E+03</rscale>
<asrwt>0</asrwt>
<pdfrwt beam="1">  1        2 0.14790051E-02 0.17876044E+03</pdfrwt>
<pdfrwt beam="2">  1       -2 0.11023439E+00 0.17876044E+03</pdfrwt>
<totfact> 0.54949082E+03</totfact>
</mgrwt>
</event>
<event>
 4    1  0.6919593E-004  0.2280992E+03  0.7818608E-02  0.1127985E+00
          2   -1    0    0  501    0  0.00000000000E+00  0.00000000000E+00  0.11526744835E+04  0.11526744835E+04  0.25500000000E-02 0.  1.
         -2   -1    0    0    0  501 -0.00000000000E+00 -0.00000000000E+00 -0.11284458615E+02  0.11284458903E+02  0.25500000000E-02 0. -1.
    5000001    1    1    2    0    0 -0.70508401413E+02  0.14639821881E+02  0.79268709318E+03  0.79966717248E+03  0.77000000000E+02 0.  0.
   -5000001    1    1    2    0    0  0.70508401413E+02 -0.14639821881E+02  0.34870293174E+03  0.36429176996E+03  0.77000000000E+02 0.  0.
<mgrwt>
<rscale>  0 0.22809917E+03</rscale>
<asrwt>0</asrwt>
<pdfrwt beam="1">  1        2 0.16466766E+00 0.22809917E+03</pdfrwt>
<pdfrwt beam="2">  1       -2 0.16120668E-02 0.22809917E+03</pdfrwt>
<totfact> 0.24940194E+04</totfact>
</mgrwt>
</event>
<event>
 4    1  0.6919593E-004  0.3834757E+03  0.7818608E-02  0.1049657E+00
         -2   -1    0    0    0  501 -0.00000000000E+00  0.00000000000E+00  0.54921266015E+02  0.54921266074E+02  0.25500000000E-02 0. -1.
          2   -1    0    0  501    0  0.00000000000E+00 -0.00000000000E+00 -0.66938358152E+03  0.66938358152E+03  0.25500000000E-02 0.  1.
    5000001    1    1    2    0    0  0.76751929066E+02 -0.87621773979E+02 -0.59044196368E+02  0.15160359829E+03  0.77000000000E+02 0.  0.
   -5000001    1    1    2    0    0 -0.76751929066E+02  0.87621773979E+02 -0.55541811914E+03  0.57270124930E+03  0.77000000000E+02 0.  0.
<mgrwt>
<rscale>  0 0.38347565E+03</rscale>
<asrwt>0</asrwt>
<pdfrwt beam="1">  1        2 0.95626221E-01 0.38347565E+03</pdfrwt>
<pdfrwt beam="2">  1       -2 0.78458955E-02 0.38347565E+03</pdfrwt>
<totfact> 0.47487942E+03</totfact>
</mgrwt>
</event>
<event>
 4    1  0.6919593E-004  0.3284923E+03  0.7818608E-02  0.1071806E+00
          2   -1    0    0  501    0  0.00000000000E+00  0.00000000000E+00  0.10445060530E+04  0.10445060530E+04  0.25500000000E-02 0.  1.
         -2   -1    0    0    0  501 -0.00000000000E+00 -0.00000000000E+00 -0.25827332180E+02  0.25827332306E+02  0.25500000000E-02 0. -1.
    5000001    1    1    2    0    0  0.10473151582E+03  0.90546736351E+02  0.65063191847E+03  0.66964042232E+03  0.77000000000E+02 0.  0.
   -5000001    1    1    2    0    0 -0.10473151582E+03 -0.90546736351E+02  0.36804680235E+03  0.40069296299E+03  0.77000000000E+02 0.  0.
<mgrwt>
<rscale>  0 0.32849234E+03</rscale>
<asrwt>0</asrwt>
<pdfrwt beam="1">  1        2 0.14921518E+00 0.32849234E+03</pdfrwt>
<pdfrwt beam="2">  1       -2 0.36896182E-02 0.32849234E+03</pdfrwt>
<totfact> 0.85442604E+03</totfact>
</mgrwt>
</event>
<event>
 4    1  0.6919593E-004  0.1856033E+03  0.7818608E-02  0.1162488E+00
         -2   -1    0    0    0  501 -0.00000000000E+00  0.00000000000E+00  0.45109100414E+01  0.45109107621E+01  0.25500000000E-02 0. -1.
          2   -1    0    0  501    0  0.00000000000E+00 -0.00000000000E+00 -0.19091808179E+04  0.19091808179E+04  0.25500000000E-02 0.  1.
    5000001    1    1    2    0    0 -0.13922380000E+02  0.46180128867E+02 -0.11470690294E+04  0.11506618944E+04  0.77000000000E+02 0.  0.
   -5000001    1    1    2    0    0  0.13922380000E+02 -0.46180128867E+02 -0.75760087842E+03  0.76302983424E+03  0.77000000000E+02 0.  0.
<mgrwt>
<rscale>  0 0.18560327E+03</rscale>
<asrwt>0</asrwt>
<pdfrwt beam="1">  1        2 0.27273960E+00 0.18560327E+03</pdfrwt>
<pdfrwt beam="2">  1       -2 0.64441699E-03 0.18560327E+03</pdfrwt>
<totfact> 0.38562386E+04</totfact>
</mgrwt>
</event>
<event>
 4    1  0.6919593E-004  0.2598183E+03  0.7818608E-02  0.1107252E+00
          2   -1    0    0  501    0  0.00000000000E+00  0.00000000000E+00  0.32099556177E+03  0.32099556178E+03  0.25500000000E-02 0.  1.
         -2   -1    0    0    0  501 -0.00000000000E+00 -0.00000000000E+00 -0.52575138682E+02  0.52575138743E+02  0.25500000000E-02 0. -1.
    5000001    1    1    2    0    0 -0.76388463875E+02  0.68322668739E+02  0.16451373990E+03  0.20855923642E+03  0.77000000000E+02 0.  0.
   -5000001    1    1    2    0    0  0.76388463875E+02 -0.68322668739E+02  0.10390668318E+03  0.16501146411E+03  0.77000000000E+02 0.  0.
<mgrwt>
<rscale>  0 0.25981829E+03</rscale>
<asrwt>0</asrwt>
<pdfrwt beam="1">  1        2 0.45856510E-01 0.25981829E+03</pdfrwt>
<pdfrwt beam="2">  1       -2 0.75107338E-02 0.25981829E+03</pdfrwt>
<totfact> 0.11357780E+04</totfact>
</mgrwt>
</event>
<event>
 4    1  0.6919593E-004  0.2641418E+03  0.7818608E-02  0.1104680E+00
          2   -1    0    0  501    0  0.00000000000E+00  0.00000000000E+00  0.12480016043E+04  0.12480016043E+04  0.25500000000E-02 0.  1.
         -2   -1    0    0    0  501 -0.00000000000E+00 -0.00000000000E+00 -0.13976522270E+02  0.13976522502E+02  0.25500000000E-02 0. -1.
    5000001    1    1    2    0    0 -0.70935014543E+02 -0.57302319072E+02  0.88720948208E+03  0.89520109314E+03  0.77000000000E+02 0.  0.
   -5000001    1    1    2    0    0  0.70935014543E+02  0.57302319072E+02  0.34681559997E+03  0.36677703369E+03  0.77000000000E+02 0.  0.
<mgrwt>
<rscale>  0 0.26414180E+03</rscale>
<asrwt>0</asrwt>
<pdfrwt beam="1">  1        2 0.17828578E+00 0.26414180E+03</pdfrwt>
<pdfrwt beam="2">  1       -2 0.19966479E-02 0.26414180E+03</pdfrwt>
<totfact> 0.16303125E+04</totfact>
</mgrwt>
</event>
<event>
 4    1  0.6919593E-004  0.2729307E+03  0.7818608E-02  0.1099614E+00
         -2   -1    0    0    0  501 -0.00000000000E+00  0.00000000000E+00  0.11095718718E+03  0.11095718721E+03  0.25500000000E-02 0. -1.
          2   -1    0    0  501    0  0.00000000000E+00 -0.00000000000E+00 -0.16783759281E+03  0.16783759283E+03  0.25500000000E-02 0.  1.
    5000001    1    1    2    0    0 -0.61769253990E+02  0.76561908557E+02 -0.84544050932E+02  0.15084383689E+03  0.77000000000E+02 0.  0.
   -5000001    1    1    2    0    0  0.61769253990E+02 -0.76561908557E+02  0.27663645307E+02  0.12795094315E+03  0.77000000000E+02 0.  0.
<mgrwt>
<rscale>  0 0.27293067E+03</rscale>
<asrwt>0</asrwt>
<pdfrwt beam="1">  1        2 0.23976799E-01 0.27293067E+03</pdfrwt>
<pdfrwt beam="2">  1       -2 0.15851027E-01 0.27293067E+03</pdfrwt>
<totfact> 0.69788594E+03</totfact>
</mgrwt>
</event>
<event>
 4    1  0.6919593E-004  0.4471117E+03  0.7818608E-02  0.1028587E+00
          2   -1    0    0  501    0  0.00000000000E+00  0.00000000000E+00  0.19404687080E+03  0.19404687082E+03  0.25500000000E-02 0.  1.
         -2   -1    0    0    0  501 -0.00000000000E+00 -0.00000000000E+00 -0.25755228723E+03  0.25755228725E+03  0.25500000000E-02 0. -1.
    5000001    1    1    2    0    0 -0.15795022769E+03 -0.81357335074E+02  0.81086618848E+02  0.20993172736E+03  0.77000000000E+02 0.  0.
   -5000001    1    1    2    0    0  0.15795022769E+03  0.81357335074E+02 -0.14459203528E+03  0.24166743070E+03  0.77000000000E+02 0.  0.
<mgrwt>
<rscale>  0 0.44711169E+03</rscale>
<asrwt>0</asrwt>
<pdfrwt beam="1">  1        2 0.27720982E-01 0.44711169E+03</pdfrwt>
<pdfrwt beam="2">  1       -2 0.36793184E-01 0.44711169E+03</pdfrwt>
<totfact> 0.13500444E+03</totfact>
</mgrwt>
</event>
<event>
 4    1  0.6919593E-004  0.2453030E+03  0.7818608E-02  0.1116310E+00
          2   -1    0    0  501    0  0.00000000000E+00  0.00000000000E+00  0.20616951982E+04  0.20616951982E+04  0.25500000000E-02 0.  1.
         -2   -1    0    0    0  501 -0.00000000000E+00 -0.00000000000E+00 -0.72966148826E+01  0.72966153282E+01  0.25500000000E-02 0. -1.
    5000001    1    1    2    0    0  0.74596150615E+02 -0.43738952897E+01  0.52602938302E+03  0.53686090233E+03  0.77000000000E+02 0.  0.
   -5000001    1    1    2    0    0 -0.74596150615E+02  0.43738952897E+01  0.15283692003E+04  0.15321309112E+04  0.77000000000E+02 0.  0.
<mgrwt>
<rscale>  0 0.24530305E+03</rscale>
<asrwt>0</asrwt>
<pdfrwt beam="1">  1        2 0.29452828E+00 0.24530305E+03</pdfrwt>
<pdfrwt beam="2">  1       -2 0.10423722E-02 0.24530305E+03</pdfrwt>
<totfact> 0.16484605E+04</totfact>
</mgrwt>
</event>
<event>
 4    1  0.6919593E-004  0.2256351E+03  0.7818608E-02  0.1129750E+00
         -2   -1    0    0    0  501 -0.00000000000E+00  0.00000000000E+00  0.14761801743E+03  0.14761801745E+03  0.25500000000E-02 0. -1.
          2   -1    0    0  501    0  0.00000000000E+00 -0.00000000000E+00 -0.86221167024E+02  0.86221167061E+02  0.25500000000E-02 0.  1.
    5000001    1    1    2    0    0 -0.51594852108E+02  0.55445649479E+02  0.64480407446E+02  0.12578939444E+03  0.77000000000E+02 0.  0.
   -5000001    1    1    2    0    0  0.51594852108E+02 -0.55445649479E+02 -0.30835570379E+01  0.10804979007E+03  0.77000000000E+02 0.  0.
<mgrwt>
<rscale>  0 0.22563508E+03</rscale>
<asrwt>0</asrwt>
<pdfrwt beam="1">  1        2 0.12317309E-01 0.22563508E+03</pdfrwt>
<pdfrwt beam="2">  1       -2 0.21088288E-01 0.22563508E+03</pdfrwt>
<totfact> 0.92751641E+03</totfact>
</mgrwt>
</event>
<event>
 4    1  0.6919593E-004  0.2055834E+03  0.7818608E-02  0.1145112E+00
         -2   -1    0    0    0  501 -0.00000000000E+00  0.00000000000E+00  0.30832950231E+02  0.30832950337E+02  0.25500000000E-02 0. -1.
          2   -1    0    0  501    0  0.00000000000E+00 -0.00000000000E+00 -0.34268977120E+03  0.34268977121E+03  0.25500000000E-02 0.  1.
    5000001    1    1    2    0    0 -0.22783755116E+02  0.62536096747E+02 -0.12977061681E+03  0.16492202970E+03  0.77000000000E+02 0.  0.
   -5000001    1    1    2    0    0  0.22783755116E+02 -0.62536096747E+02 -0.18208620416E+03  0.20860069184E+03  0.77000000000E+02 0.  0.
<mgrwt>
<rscale>  0 0.20558343E+03</rscale>
<asrwt>0</asrwt>
<pdfrwt beam="1">  1        2 0.48955679E-01 0.20558343E+03</pdfrwt>
<pdfrwt beam="2">  1       -2 0.44047074E-02 0.20558343E+03</pdfrwt>
<totfact> 0.23579352E+04</totfact>
</mgrwt>
</event>
<event>
 4    1  0.6919593E-004  0.3505062E+03  0.7818608E-02  0.1062407E+00
          2   -1    0    0  501    0  0.00000000000E+00  0.00000000000E+00  0.84024438841E+03  0.84024438841E+03  0.25500000000E-02 0.  1.
         -2   -1    0    0    0  501 -0.00000000000E+00 -0.00000000000E+00 -0.36553227648E+02  0.36553227737E+02  0.25500000000E-02 0. -1.
    5000001    1    1    2    0    0 -0.20115642591E+02 -0.11752213007E+03  0.14468080580E+03  0.20267615968E+03  0.77000000000E+02 0.  0.
   -5000001    1    1    2    0    0  0.20115642591E+02  0.11752213007E+03  0.65901035496E+03  0.67412145647E+03  0.77000000000E+02 0.  0.
<mgrwt>
<rscale>  0 0.35050617E+03</rscale>
<asrwt>0</asrwt>
<pdfrwt beam="1">  1        2 0.12003491E+00 0.35050617E+03</pdfrwt>
<pdfrwt beam="2">  1       -2 0.52218896E-02 0.35050617E+03</pdfrwt>
<totfact> 0.67462671E+03</totfact>
</mgrwt>
</event>
<event>
 4    1  0.6919593E-004  0.2776700E+03  0.7818608E-02  0.1096968E+00
         -2   -1    0    0    0  501 -0.00000000000E+00  0.00000000000E+00  0.32566369433E+02  0.32566369533E+02  0.25500000000E-02 0. -1.
          2   -1    0    0  501    0  0.00000000000E+00 -0.00000000000E+00 -0.59187313316E+03  0.59187313316E+03  0.25500000000E-02 0.  1.
    5000001    1    1    2    0    0  0.44585455959E+02 -0.10522264883E+03 -0.24158920425E+03  0.27812589294E+03  0.77000000000E+02 0.  0.
   -5000001    1    1    2    0    0 -0.44585455959E+02  0.10522264883E+03 -0.31771755947E+03  0.34631360976E+03  0.77000000000E+02 0.  0.
<mgrwt>
<rscale>  0 0.27767001E+03</rscale>
<asrwt>0</asrwt>
<pdfrwt beam="1">  1        2 0.84553298E-01 0.27767001E+03</pdfrwt>
<pdfrwt beam="2">  1       -2 0.46523389E-02 0.27767001E+03</pdfrwt>
<totfact> 0.12153225E+04</totfact>
</mgrwt>
</event>
<event>
 4    1  0.6919593E-004  0.1679446E+03  0.7818608E-02  0.1180008E+00
         -2   -1    0    0    0  501 -0.00000000000E+00  0.00000000000E+00  0.31129036386E+02  0.31129036490E+02  0.25500000000E-02 0. -1.
          2   -1    0    0  501    0  0.00000000000E+00 -0.00000000000E+00 -0.22651995119E+03  0.22651995121E+03  0.25500000000E-02 0.  1.
    5000001    1    1    2    0    0 -0.18632743032E+02  0.27784887780E+02 -0.94964568372E+02  0.12675349442E+03  0.77000000000E+02 0.  0.
   -5000001    1    1    2    0    0  0.18632743032E+02 -0.27784887780E+02 -0.10042634643E+03  0.13089549328E+03  0.77000000000E+02 0.  0.
<mgrwt>
<rscale>  0 0.16794461E+03</rscale>
<asrwt>0</asrwt>
<pdfrwt beam="1">  1        2 0.32359992E-01 0.16794461E+03</pdfrwt>
<pdfrwt beam="2">  1       -2 0.44470053E-02 0.16794461E+03</pdfrwt>
<totfact> 0.35603165E+04</totfact>
</mgrwt>
</event>
<event>
 4    1  0.6919593E-004  0.3710488E+03  0.7818608E-02  0.1054293E+00
          2   -1    0    0  501    0  0.00000000000E+00  0.00000000000E+00  0.12990008251E+03  0.12990008254E+03  0.25500000000E-02 0.  1.
         -2   -1    0    0    0  501 -0.00000000000E+00 -0.00000000000E+00 -0.26496747160E+03  0.26496747161E+03  0.25500000000E-02 0. -1.
    5000001    1    1    2    0    0 -0.11069020092E+03  0.55899584319E+02 -0.18939757591E+03  0.23911822571E+03  0.77000000000E+02 0.  0.
   -5000001    1    1    2    0    0  0.11069020092E+03 -0.55899584319E+02  0.54330186829E+02  0.15574932843E+03  0.77000000000E+02 0.  0.
<mgrwt>
<rscale>  0 0.37104876E+03</rscale>
<asrwt>0</asrwt>
<pdfrwt beam="1">  1        2 0.18557155E-01 0.37104876E+03</pdfrwt>
<pdfrwt beam="2">  1       -2 0.37852496E-01 0.37104876E+03</pdfrwt>
<totfact> 0.20193471E+03</totfact>
</mgrwt>
</event>
<event>
 4    1  0.6919593E-004  0.3507034E+03  0.7818608E-02  0.1062327E+00
          2   -1    0    0  501    0  0.00000000000E+00  0.00000000000E+00  0.21200794754E+04  0.21200794754E+04  0.25500000000E-02 0.  1.
         -2   -1    0    0    0  501 -0.00000000000E+00 -0.00000000000E+00 -0.14503334989E+02  0.14503335213E+02  0.25500000000E-02 0. -1.
    5000001    1    1    2    0    0  0.25539688412E+02  0.14675764689E+03  0.74069803959E+03  0.75944234044E+03  0.77000000000E+02 0.  0.
   -5000001    1    1    2    0    0 -0.25539688412E+02 -0.14675764689E+03  0.13648781009E+04  0.13751404702E+04  0.77000000000E+02 0.  0.
<mgrwt>
<rscale>  0 0.35070343E+03</rscale>
<asrwt>0</asrwt>
<pdfrwt beam="1">  1        2 0.30286814E+00 0.35070343E+03</pdfrwt>
<pdfrwt beam="2">  1       -2 0.20719074E-02 0.35070343E+03</pdfrwt>
<totfact> 0.56659403E+03</totfact>
</mgrwt>
</event>
<event>
 4    1  0.6919593E-004  0.3560052E+03  0.7818608E-02  0.1060177E+00
          2   -1    0    0  501    0  0.00000000000E+00  0.00000000000E+00  0.13076790598E+04  0.13076790598E+04  0.25500000000E-02 0.  1.
         -2   -1    0    0    0  501 -0.00000000000E+00 -0.00000000000E+00 -0.24229896671E+02  0.24229896805E+02  0.25500000000E-02 0. -1.
    5000001    1    1    2    0    0 -0.14832607728E+03  0.60345712866E+02  0.60183171782E+03  0.62751306507E+03  0.77000000000E+02 0.  0.
   -5000001    1    1    2    0    0  0.14832607728E+03 -0.60345712866E+02  0.68161744530E+03  0.70439589153E+03  0.77000000000E+02 0.  0.
<mgrwt>
<rscale>  0 0.35600522E+03</rscale>
<asrwt>0</asrwt>
<pdfrwt beam="1">  1        2 0.18681132E+00 0.35600522E+03</pdfrwt>
<pdfrwt beam="2">  1       -2 0.34614133E-02 0.35600522E+03</pdfrwt>
<totfact> 0.67359273E+03</totfact>
</mgrwt>
</event>
<event>
 4    1  0.6919593E-004  0.2763804E+03  0.7818608E-02  0.1097682E+00
         -2   -1    0    0    0  501 -0.00000000000E+00  0.00000000000E+00  0.74067384380E+01  0.74067388770E+01  0.25500000000E-02 0. -1.
          2   -1    0    0  501    0  0.00000000000E+00 -0.00000000000E+00 -0.25782641833E+04  0.25782641833E+04  0.25500000000E-02 0.  1.
    5000001    1    1    2    0    0 -0.56351504792E+02  0.99357362453E+02 -0.13879775064E+04  0.13947967364E+04  0.77000000000E+02 0.  0.
   -5000001    1    1    2    0    0  0.56351504792E+02 -0.99357362453E+02 -0.11828799384E+04  0.11908741858E+04  0.77000000000E+02 0.  0.
<mgrwt>
<rscale>  0 0.27638038E+03</rscale>
<asrwt>0</asrwt>
<pdfrwt beam="1">  1        2 0.36832288E+00 0.27638038E+03</pdfrwt>
<pdfrwt beam="2">  1       -2 0.10581072E-02 0.27638038E+03</pdfrwt>
<totfact> 0.89970246E+03</totfact>
</mgrwt>
</event>
<event>
 4    1  0.6919593E-004  0.5850169E+03  0.7818608E-02  0.9936988E-01
         -2   -1    0    0    0  501 -0.00000000000E+00  0.00000000000E+00  0.78084822837E+02  0.78084822879E+02  0.25500000000E-02 0. -1.
          2   -1    0    0  501    0  0.00000000000E+00 -0.00000000000E+00 -0.10957466423E+04  0.10957466423E+04  0.25500000000E-02 0.  1.
    5000001    1    1    2    0    0  0.15100426686E+03  0.20957235930E+03 -0.73680686631E+03  0.78456116437E+03  0.77000000000E+02 0.  0.
   -5000001    1    1    2    0    0 -0.15100426686E+03 -0.20957235930E+03 -0.28085495319E+03  0.38927030085E+03  0.77000000000E+02 0.  0.
<mgrwt>
<rscale>  0 0.58501686E+03</rscale>
<asrwt>0</asrwt>
<pdfrwt beam="1">  1        2 0.15653522E+00 0.58501686E+03</pdfrwt>
<pdfrwt beam="2">  1       -2 0.11154975E-01 0.58501686E+03</pdfrwt>
<totfact> 0.14192044E+03</totfact>
</mgrwt>
</event>
<event>
 4    1  0.6919593E-004  0.3198543E+03  0.7818608E-02  0.1075716E+00
         -2   -1    0    0    0  501 -0.00000000000E+00  0.00000000000E+00  0.62252971538E+02  0.62252971590E+02  0.25500000000E-02 0. -1.
          2   -1    0    0  501    0  0.00000000000E+00 -0.00000000000E+00 -0.41085093444E+03  0.41085093445E+03  0.25500000000E-02 0.  1.
    5000001    1    1    2    0    0  0.22604455283E+02 -0.13685282099E+03 -0.20417710686E+03  0.25856710343E+03  0.77000000000E+02 0.  0.
   -5000001    1    1    2    0    0 -0.22604455283E+02  0.13685282099E+03 -0.14442085604E+03  0.21453680261E+03  0.77000000000E+02 0.  0.
<mgrwt>
<rscale>  0 0.31985429E+03</rscale>
<asrwt>0</asrwt>
<pdfrwt beam="1">  1        2 0.58692989E-01 0.31985429E+03</pdfrwt>
<pdfrwt beam="2">  1       -2 0.88932819E-02 0.31985429E+03</pdfrwt>
<totfact> 0.67310385E+03</totfact>
</mgrwt>
</event>
<event>
 4    1  0.6919593E-004  0.3744682E+03  0.7818608E-02  0.1052997E+00
          2   -1    0    0  501    0  0.00000000000E+00  0.00000000000E+00  0.98944043590E+03  0.98944043591E+03  0.25500000000E-02 0.  1.
         -2   -1    0    0    0  501 -0.00000000000E+00 -0.00000000000E+00 -0.35430748426E+02  0.35430748518E+02  0.25500000000E-02 0. -1.
    5000001    1    1    2    0    0 -0.12188875665E+02  0.14782127362E+03  0.24593906470E+03  0.29734613024E+03  0.77000000000E+02 0.  0.
   -5000001    1    1    2    0    0  0.12188875665E+02 -0.14782127362E+03  0.70807062278E+03  0.72752505419E+03  0.77000000000E+02 0.  0.
<mgrwt>
<rscale>  0 0.37446824E+03</rscale>
<asrwt>0</asrwt>
<pdfrwt beam="1">  1        2 0.14134861E+00 0.37446824E+03</pdfrwt>
<pdfrwt beam="2">  1       -2 0.50615362E-02 0.37446824E+03</pdfrwt>
<totfact> 0.57111540E+03</totfact>
</mgrwt>
</event>
<event>
 4    1  0.6919593E-004  0.1692205E+03  0.7818608E-02  0.1178663E+00
         -2   -1    0    0    0  501 -0.00000000000E+00  0.00000000000E+00  0.30694608187E+02  0.30694608293E+02  0.25500000000E-02 0. -1.
          2   -1    0    0  501    0  0.00000000000E+00 -0.00000000000E+00 -0.23322980127E+03  0.23322980128E+03  0.25500000000E-02 0.  1.
    5000001    1    1    2    0    0  0.33348876985E+02  0.57246045619E+01 -0.11564503474E+03  0.14299542914E+03  0.77000000000E+02 0.  0.
   -5000001    1    1    2    0    0 -0.33348876985E+02 -0.57246045619E+01 -0.86890158338E+02  0.12092898044E+03  0.77000000000E+02 0.  0.
<mgrwt>
<rscale>  0 0.16922054E+03</rscale>
<asrwt>0</asrwt>
<pdfrwt beam="1">  1        2 0.33318542E-01 0.16922054E+03</pdfrwt>
<pdfrwt beam="2">  1       -2 0.43849442E-02 0.16922054E+03</pdfrwt>
<totfact> 0.35257803E+04</totfact>
</mgrwt>
</event>
<event>
 4    1  0.6919593E-004  0.3634156E+03  0.7818608E-02  0.1057240E+00
         -2   -1    0    0    0  501 -0.00000000000E+00  0.00000000000E+00  0.45387387807E+02  0.45387387879E+02  0.25500000000E-02 0. -1.
          2   -1    0    0  501    0  0.00000000000E+00 -0.00000000000E+00 -0.72746485948E+03  0.72746485948E+03  0.25500000000E-02 0.  1.
    5000001    1    1    2    0    0 -0.70528088477E+02 -0.13006068913E+03 -0.18770357972E+03  0.25110083226E+03  0.77000000000E+02 0.  0.
   -5000001    1    1    2    0    0  0.70528088477E+02  0.13006068913E+03 -0.49437389195E+03  0.52175141510E+03  0.77000000000E+02 0.  0.
<mgrwt>
<rscale>  0 0.36341563E+03</rscale>
<asrwt>0</asrwt>
<pdfrwt beam="1">  1        2 0.10392354E+00 0.36341563E+03</pdfrwt>
<pdfrwt beam="2">  1       -2 0.64839130E-02 0.36341563E+03</pdfrwt>
<totfact> 0.57830831E+03</totfact>
</mgrwt>
</event>
<event>
 4    1  0.6919593E-004  0.2055887E+03  0.7818608E-02  0.1145108E+00
         -2   -1    0    0    0  501 -0.00000000000E+00  0.00000000000E+00  0.25407907705E+03  0.25407907707E+03  0.25500000000E-02 0. -1.
          2   -1    0    0  501    0  0.00000000000E+00 -0.00000000000E+00 -0.41588151429E+02  0.41588151507E+02  0.25500000000E-02 0.  1.
    5000001    1    1    2    0    0 -0.53744459201E+01  0.66956521535E+02  0.90126723119E+02  0.13624935473E+03  0.77000000000E+02 0.  0.
   -5000001    1    1    2    0    0  0.53744459201E+01 -0.66956521535E+02  0.12236420251E+03  0.15941787384E+03  0.77000000000E+02 0.  0.
<mgrwt>
<rscale>  0 0.20558871E+03</rscale>
<asrwt>0</asrwt>
<pdfrwt beam="1">  1        2 0.59411643E-02 0.20558871E+03</pdfrwt>
<pdfrwt beam="2">  1       -2 0.36297012E-01 0.20558871E+03</pdfrwt>
<totfact> 0.87276323E+03</totfact>
</mgrwt>
</event>
<event>
 4    1  0.6919593E-004  0.2381987E+03  0.7818608E-02  0.1120999E+00
          2   -1    0    0  501    0  0.00000000000E+00  0.00000000000E+00  0.16355783660E+03  0.16355783662E+03  0.25500000000E-02 0.  1.
         -2   -1    0    0    0  501 -0.00000000000E+00 -0.00000000000E+00 -0.86725643258E+02  0.86725643295E+02  0.25500000000E-02 0. -1.
    5000001    1    1    2    0    0 -0.21444013266E+02  0.58564941569E+02  0.10784377570E+03  0.14645469621E+03  0.77000000000E+02 0.  0.
   -5000001    1    1    2    0    0  0.21444013266E+02 -0.58564941569E+02 -0.31011582352E+02  0.10382878371E+03  0.77000000000E+02 0.  0.
<mgrwt>
<rscale>  0 0.23819873E+03</rscale>
<asrwt>0</asrwt>
<pdfrwt beam="1">  1        2 0.23365405E-01 0.23819873E+03</pdfrwt>
<pdfrwt beam="2">  1       -2 0.12389378E-01 0.23819873E+03</pdfrwt>
<totfact> 0.10688733E+04</totfact>
</mgrwt>
</event>
<event>
 4    1  0.6919593E-004  0.2354458E+03  0.7818608E-02  0.1122864E+00
          2   -1    0    0  501    0  0.00000000000E+00  0.00000000000E+00  0.26198923832E+04  0.26198923832E+04  0.25500000000E-02 0.  1.
         -2   -1    0    0    0  501 -0.00000000000E+00 -0.00000000000E+00 -0.52897901620E+01  0.52897907767E+01  0.25500000000E-02 0. -1.
    5000001    1    1    2    0    0 -0.70273339195E+02 -0.53571388478E+02  0.11844273198E+04  0.11902122969E+04  0.77000000000E+02 0.  0.
   -5000001    1    1    2    0    0  0.70273339195E+02  0.53571388478E+02  0.14301752732E+04  0.14349698771E+04  0.77000000000E+02 0.  0.
<mgrwt>
<rscale>  0 0.23544580E+03</rscale>
<asrwt>0</asrwt>
<pdfrwt beam="1">  1        2 0.37427179E+00 0.23544580E+03</pdfrwt>
<pdfrwt beam="2">  1       -2 0.75568143E-03 0.23544580E+03</pdfrwt>
<totfact> 0.13933543E+04</totfact>
</mgrwt>
</event>
<event>
 4    1  0.6919593E-004  0.2323729E+03  0.7818608E-02  0.1124981E+00
          2   -1    0    0  501    0  0.00000000000E+00  0.00000000000E+00  0.39227910875E+04  0.39227910875E+04  0.25500000000E-02 0.  1.
         -2   -1    0    0    0  501 -0.00000000000E+00 -0.00000000000E+00 -0.34412454253E+01  0.34412463701E+01  0.25500000000E-02 0. -1.
    5000001    1    1    2    0    0  0.16951222974E+02 -0.60993500542E+02  0.29681901933E+04  0.29698635616E+04  0.77000000000E+02 0.  0.
   -5000001    1    1    2    0    0 -0.16951222974E+02  0.60993500542E+02  0.95115964874E+03  0.95636877221E+03  0.77000000000E+02 0.  0.
<mgrwt>
<rscale>  0 0.23237288E+03</rscale>
<asrwt>0</asrwt>
<pdfrwt beam="1">  1        2 0.56039652E+00 0.23237288E+03</pdfrwt>
<pdfrwt beam="2">  1       -2 0.49160849E-03 0.23237288E+03</pdfrwt>
<totfact> 0.48566721E+03</totfact>
</mgrwt>
</event>
<event>
 4    1  0.6919593E-004  0.4611604E+03  0.7818608E-02  0.1024445E+00
          2   -1    0    0  501    0  0.00000000000E+00  0.00000000000E+00  0.35613569272E+04  0.35613569272E+04  0.25500000000E-02 0.  1.
         -2   -1    0    0    0  501 -0.00000000000E+00 -0.00000000000E+00 -0.14928921546E+02  0.14928921764E+02  0.25500000000E-02 0. -1.
    5000001    1    1    2    0    0 -0.17950891244E+03  0.11012001923E+03  0.21899923885E+04  0.22014416935E+04  0.77000000000E+02 0.  0.
   -5000001    1    1    2    0    0  0.17950891244E+03 -0.11012001923E+03  0.13564356172E+04  0.13748441555E+04  0.77000000000E+02 0.  0.
<mgrwt>
<rscale>  0 0.46116036E+03</rscale>
<asrwt>0</asrwt>
<pdfrwt beam="1">  1        2 0.50876580E+00 0.46116036E+03</pdfrwt>
<pdfrwt beam="2">  1       -2 0.21327009E-02 0.46116036E+03</pdfrwt>
<totfact> 0.92211583E+02</totfact>
</mgrwt>
</event>
<event>
 4    1  0.6919593E-004  0.3085195E+03  0.7818608E-02  0.1081058E+00
          2   -1    0    0  501    0  0.00000000000E+00  0.00000000000E+00  0.14820989591E+03  0.14820989593E+03  0.25500000000E-02 0.  1.
         -2   -1    0    0    0  501 -0.00000000000E+00 -0.00000000000E+00 -0.16055653916E+03  0.16055653918E+03  0.25500000000E-02 0. -1.
    5000001    1    1    2    0    0 -0.66248444277E+02  0.34849435248E+02  0.10465704007E+03  0.14995144395E+03  0.77000000000E+02 0.  0.
   -5000001    1    1    2    0    0  0.66248444277E+02 -0.34849435248E+02 -0.11700368332E+03  0.15881499116E+03  0.77000000000E+02 0.  0.
<mgrwt>
<rscale>  0 0.30851948E+03</rscale>
<asrwt>0</asrwt>
<pdfrwt beam="1">  1        2 0.21172842E-01 0.30851948E+03</pdfrwt>
<pdfrwt beam="2">  1       -2 0.22936648E-01 0.30851948E+03</pdfrwt>
<totfact> 0.43003282E+03</totfact>
</mgrwt>
</event>
<event>
 4    1  0.6919593E-004  0.2225704E+03  0.7818608E-02  0.1131981E+00
          2   -1    0    0  501    0  0.00000000000E+00  0.00000000000E+00  0.19665650766E+03  0.19665650767E+03  0.25500000000E-02 0.  1.
         -2   -1    0    0    0  501 -0.00000000000E+00 -0.00000000000E+00 -0.62974779387E+02  0.62974779438E+02  0.25500000000E-02 0. -1.
    5000001    1    1    2    0    0 -0.44005175977E+02 -0.61950805201E+02  0.36398622957E+02  0.11414121749E+03  0.77000000000E+02 0.  0.
   -5000001    1    1    2    0    0  0.44005175977E+02  0.61950805201E+02  0.97283105312E+02  0.14549006962E+03  0.77000000000E+02 0.  0.
<mgrwt>
<rscale>  0 0.22257044E+03</rscale>
<asrwt>0</asrwt>
<pdfrwt beam="1">  1        2 0.28093787E-01 0.22257044E+03</pdfrwt>
<pdfrwt beam="2">  1       -2 0.89963970E-02 0.22257044E+03</pdfrwt>
<totfact> 0.14440298E+04</totfact>
</mgrwt>
</event>
<event>
 4    1  0.6919593E-004  0.2583416E+03  0.7818608E-02  0.1108144E+00
         -2   -1    0    0    0  501 -0.00000000000E+00  0.00000000000E+00  0.12553162218E+02  0.12553162477E+02  0.25500000000E-02 0. -1.
          2   -1    0    0  501    0  0.00000000000E+00 -0.00000000000E+00 -0.13291549951E+04  0.13291549951E+04  0.25500000000E-02 0.  1.
    5000001    1    1    2    0    0  0.46896907411E+02 -0.92315917090E+02 -0.68882815417E+03  0.70081008444E+03  0.77000000000E+02 0.  0.
   -5000001    1    1    2    0    0 -0.46896907411E+02  0.92315917090E+02 -0.62777367874E+03  0.64089807317E+03  0.77000000000E+02 0.  0.
<mgrwt>
<rscale>  0 0.25834162E+03</rscale>
<asrwt>0</asrwt>
<pdfrwt beam="1">  1        2 0.18987920E+00 0.25834162E+03</pdfrwt>
<pdfrwt beam="2">  1       -2 0.17933097E-02 0.25834162E+03</pdfrwt>
<totfact> 0.17280296E+04</totfact>
</mgrwt>
</event>
<event>
 4    1  0.6919593E-004  0.2258657E+03  0.7818608E-02  0.1129584E+00
         -2   -1    0    0    0  501 -0.00000000000E+00  0.00000000000E+00  0.56438203926E+01  0.56438209687E+01  0.25500000000E-02 0. -1.
          2   -1    0    0  501    0  0.00000000000E+00 -0.00000000000E+00 -0.22597868267E+04  0.22597868267E+04  0.25500000000E-02 0.  1.
    5000001    1    1    2    0    0 -0.71059224130E+02  0.66816228955E+01 -0.15443448488E+04  0.15479095805E+04  0.77000000000E+02 0.  0.
   -5000001    1    1    2    0    0  0.71059224130E+02 -0.66816228955E+01 -0.70979815753E+03  0.71752106718E+03  0.77000000000E+02 0.  0.
<mgrwt>
<rscale>  0 0.22586573E+03</rscale>
<asrwt>0</asrwt>
<pdfrwt beam="1">  1        2 0.32282611E+00 0.22586573E+03</pdfrwt>
<pdfrwt beam="2">  1       -2 0.80626154E-03 0.22586573E+03</pdfrwt>
<totfact> 0.19096180E+04</totfact>
</mgrwt>
</event>
<event>
 4    1  0.6919593E-004  0.3717171E+03  0.7818608E-02  0.1054038E+00
          2   -1    0    0  501    0  0.00000000000E+00  0.00000000000E+00  0.12393836909E+04  0.12393836909E+04  0.25500000000E-02 0.  1.
         -2   -1    0    0    0  501 -0.00000000000E+00 -0.00000000000E+00 -0.27871434148E+02  0.27871434265E+02  0.25500000000E-02 0. -1.
    5000001    1    1    2    0    0 -0.68689532661E+02  0.14686915270E+03  0.77016268166E+03  0.79080234960E+03  0.77000000000E+02 0.  0.
   -5000001    1    1    2    0    0  0.68689532661E+02 -0.14686915270E+03  0.44134957512E+03  0.47645277559E+03  0.77000000000E+02 0.  0.
<mgrwt>
<rscale>  0 0.37171710E+03</rscale>
<asrwt>0</asrwt>
<pdfrwt beam="1">  1        2 0.17705487E+00 0.37171710E+03</pdfrwt>
<pdfrwt beam="2">  1       -2 0.39816322E-02 0.37171710E+03</pdfrwt>
<totfact> 0.59347438E+03</totfact>
</mgrwt>
</event>
<event>
 4    1  0.6919593E-004  0.2826896E+03  0.7818608E-02  0.1094229E+00
          2   -1    0    0  501    0  0.00000000000E+00  0.00000000000E+00  0.30293741041E+03  0.30293741042E+03  0.25500000000E-02 0.  1.
         -2   -1    0    0    0  501 -0.00000000000E+00 -0.00000000000E+00 -0.65948794829E+02  0.65948794878E+02  0.25500000000E-02 0. -1.
    5000001    1    1    2    0    0 -0.11057449813E+03  0.55011473547E+01  0.17373981397E+03  0.21993522959E+03  0.77000000000E+02 0.  0.
   -5000001    1    1    2    0    0  0.11057449813E+03 -0.55011473547E+01  0.63248801610E+02  0.14895097570E+03  0.77000000000E+02 0.  0.
<mgrwt>
<rscale>  0 0.28268963E+03</rscale>
<asrwt>0</asrwt>
<pdfrwt beam="1">  1        2 0.43276773E-01 0.28268963E+03</pdfrwt>
<pdfrwt beam="2">  1       -2 0.94212564E-02 0.28268963E+03</pdfrwt>
<totfact> 0.85043720E+03</totfact>
</mgrwt>
</event>
<event>
 4    1  0.6919593E-004  0.1944240E+03  0.7818608E-02  0.1154531E+00
          2   -1    0    0  501    0  0.00000000000E+00  0.00000000000E+00  0.12882137941E+04  0.12882137941E+04  0.25500000000E-02 0.  1.
         -2   -1    0    0    0  501 -0.00000000000E+00 -0.00000000000E+00 -0.73358698830E+01  0.73358703262E+01  0.25500000000E-02 0. -1.
    5000001    1    1    2    0    0 -0.12530670045E+01  0.56115221524E+02  0.76873236573E+03  0.77461534866E+03  0.77000000000E+02 0.  0.
   -5000001    1    1    2    0    0  0.12530670045E+01 -0.56115221524E+02  0.51214555846E+03  0.52093431574E+03  0.77000000000E+02 0.  0.
<mgrwt>
<rscale>  0 0.19442396E+03</rscale>
<asrwt>0</asrwt>
<pdfrwt beam="1">  1        2 0.18403042E+00 0.19442396E+03</pdfrwt>
<pdfrwt beam="2">  1       -2 0.10479822E-02 0.19442396E+03</pdfrwt>
<totfact> 0.39023272E+04</totfact>
</mgrwt>
</event>
<event>
 4    1  0.6919593E-004  0.2234448E+03  0.7818608E-02  0.1131341E+00
          2   -1    0    0  501    0  0.00000000000E+00  0.00000000000E+00  0.17778165485E+03  0.17778165487E+03  0.25500000000E-02 0.  1.
         -2   -1    0    0    0  501 -0.00000000000E+00 -0.00000000000E+00 -0.70209109987E+02  0.70209110033E+02  0.25500000000E-02 0. -1.
    5000001    1    1    2    0    0 -0.54935958078E+02 -0.59436199038E+02  0.52113919044E+02  0.12326995499E+03  0.77000000000E+02 0.  0.
   -5000001    1    1    2    0    0  0.54935958078E+02  0.59436199038E+02  0.55458625816E+02  0.12472080991E+03  0.77000000000E+02 0.  0.
<mgrwt>
<rscale>  0 0.22344477E+03</rscale>
<asrwt>0</asrwt>
<pdfrwt beam="1">  1        2 0.25397379E-01 0.22344477E+03</pdfrwt>
<pdfrwt beam="2">  1       -2 0.10029873E-01 0.22344477E+03</pdfrwt>
<totfact> 0.13602902E+04</totfact>
</mgrwt>
</event>
<event>
 4    1  0.6919593E-004  0.1610403E+03  0.7818608E-02  0.1187527E+00
          2   -1    0    0  501    0  0.00000000000E+00  0.00000000000E+00  0.72805309604E+02  0.72805309649E+02  0.25500000000E-02 0.  1.
         -2   -1    0    0    0  501 -0.00000000000E+00 -0.00000000000E+00 -0.89052457315E+02  0.89052457352E+02  0.25500000000E-02 0. -1.
    5000001    1    1    2    0    0 -0.12834755321E+02 -0.17687910752E+02 -0.16937274363E+02  0.81813595409E+02  0.77000000000E+02 0.  0.
   -5000001    1    1    2    0    0  0.12834755321E+02  0.17687910752E+02  0.69012665244E+00  0.80044171591E+02  0.77000000000E+02 0.  0.
<mgrwt>
<rscale>  0 0.16104026E+03</rscale>
<asrwt>0</asrwt>
<pdfrwt beam="1">  1        2 0.10400759E-01 0.16104026E+03</pdfrwt>
<pdfrwt beam="2">  1       -2 0.12721780E-01 0.16104026E+03</pdfrwt>
<totfact> 0.25704111E+04</totfact>
</mgrwt>
</event>
<event>
 4    1  0.6919593E-004  0.3305966E+03  0.7818608E-02  0.1070873E+00
         -2   -1    0    0    0  501 -0.00000000000E+00  0.00000000000E+00  0.55381354088E+03  0.55381354088E+03  0.25500000000E-02 0. -1.
          2   -1    0    0  501    0  0.00000000000E+00 -0.00000000000E+00 -0.49337042898E+02  0.49337042964E+02  0.25500000000E-02 0.  1.
    5000001    1    1    2    0    0 -0.14490545498E+03 -0.11768033071E+02  0.28156820747E+03  0.32610693483E+03  0.77000000000E+02 0.  0.
   -5000001    1    1    2    0    0  0.14490545498E+03  0.11768033071E+02  0.22290829051E+03  0.27704364902E+03  0.77000000000E+02 0.  0.
<mgrwt>
<rscale>  0 0.33059657E+03</rscale>
<asrwt>0</asrwt>
<pdfrwt beam="1">  1        2 0.70481498E-02 0.33059657E+03</pdfrwt>
<pdfrwt beam="2">  1       -2 0.79116212E-01 0.33059657E+03</pdfrwt>
<totfact> 0.14688127E+03</totfact>
</mgrwt>
</event>
<event>
 4    1  0.6919593E-004  0.3253032E+03  0.7818608E-02  0.1073234E+00
         -2   -1    0    0    0  501 -0.00000000000E+00  0.00000000000E+00  0.55787294240E+01  0.55787300068E+01  0.25500000000E-02 0. -1.
          2   -1    0    0  501    0  0.00000000000E+00 -0.00000000000E+00 -0.47422174192E+04  0.47422174192E+04  0.25500000000E-02 0.  1.
    5000001    1    1    2    0    0 -0.11252169912E+03  0.86249143731E+02 -0.26697337782E+04  0.26746041752E+04  0.77000000000E+02 0.  0.
   -5000001    1    1    2    0    0  0.11252169912E+03 -0.86249143731E+02 -0.20669049116E+04  0.20731919740E+04  0.77000000000E+02 0.  0.
<mgrwt>
<rscale>  0 0.32530324E+03</rscale>
<asrwt>0</asrwt>
<pdfrwt beam="1">  1        2 0.67745705E+00 0.32530324E+03</pdfrwt>
<pdfrwt beam="2">  1       -2 0.79696443E-03 0.32530324E+03</pdfrwt>
<totfact> 0.60755922E+02</totfact>
</mgrwt>
</event>
<event>
 4    1  0.6919593E-004  0.2198025E+03  0.7818608E-02  0.1134030E+00
          2   -1    0    0  501    0  0.00000000000E+00  0.00000000000E+00  0.46703690232E+03  0.46703690233E+03  0.25500000000E-02 0.  1.
         -2   -1    0    0    0  501 -0.00000000000E+00 -0.00000000000E+00 -0.25861512395E+02  0.25861512520E+02  0.25500000000E-02 0. -1.
    5000001    1    1    2    0    0  0.65714797803E+02  0.31081820584E+02  0.28653154256E+03  0.30547313974E+03  0.77000000000E+02 0.  0.
   -5000001    1    1    2    0    0 -0.65714797803E+02 -0.31081820584E+02  0.15464384737E+03  0.18742527511E+03  0.77000000000E+02 0.  0.
<mgrwt>
<rscale>  0 0.21980246E+03</rscale>
<asrwt>0</asrwt>
<pdfrwt beam="1">  1        2 0.66719557E-01 0.21980246E+03</pdfrwt>
<pdfrwt beam="2">  1       -2 0.36945018E-02 0.21980246E+03</pdfrwt>
<totfact> 0.22088749E+04</totfact>
</mgrwt>
</event>
<event>
 4    1  0.6919593E-004  0.1951246E+03  0.7818608E-02  0.1153919E+00
         -2   -1    0    0    0  501 -0.00000000000E+00  0.00000000000E+00  0.61732062218E+03  0.61732062219E+03  0.25500000000E-02 0. -1.
          2   -1    0    0  501    0  0.00000000000E+00 -0.00000000000E+00 -0.15418899933E+02  0.15418900144E+02  0.25500000000E-02 0.  1.
    5000001    1    1    2    0    0 -0.42531468717E+02 -0.39127733223E+02  0.24972988739E+03  0.26764514192E+03  0.77000000000E+02 0.  0.
   -5000001    1    1    2    0    0  0.42531468717E+02  0.39127733223E+02  0.35217183486E+03  0.36509438041E+03  0.77000000000E+02 0.  0.
<mgrwt>
<rscale>  0 0.19512463E+03</rscale>
<asrwt>0</asrwt>
<pdfrwt beam="1">  1        2 0.22027001E-02 0.19512463E+03</pdfrwt>
<pdfrwt beam="2">  1       -2 0.88188658E-01 0.19512463E+03</pdfrwt>
<totfact> 0.53466031E+03</totfact>
</mgrwt>
</event>
<event>
 4    1  0.6919593E-004  0.3441462E+03  0.7818608E-02  0.1065044E+00
          2   -1    0    0  501    0  0.00000000000E+00  0.00000000000E+00  0.20652742323E+04  0.20652742323E+04  0.25500000000E-02 0.  1.
         -2   -1    0    0    0  501 -0.00000000000E+00 -0.00000000000E+00 -0.14336666827E+02  0.14336667054E+02  0.25500000000E-02 0. -1.
    5000001    1    1    2    0    0  0.14087251314E+03  0.71215908869E+01  0.13972057398E+04  0.14064169586E+04  0.77000000000E+02 0.  0.
   -5000001    1    1    2    0    0 -0.14087251314E+03 -0.71215908869E+01  0.65373182565E+03  0.67319394077E+03  0.77000000000E+02 0.  0.
<mgrwt>
<rscale>  0 0.34414618E+03</rscale>
<asrwt>0</asrwt>
<pdfrwt beam="1">  1        2 0.29503905E+00 0.34414618E+03</pdfrwt>
<pdfrwt beam="2">  1       -2 0.20480962E-02 0.34414618E+03</pdfrwt>
<totfact> 0.61333596E+03</totfact>
</mgrwt>
</event>
<event>
 4    1  0.6919593E-004  0.2473500E+03  0.7818608E-02  0.1114991E+00
         -2   -1    0    0    0  501 -0.00000000000E+00  0.00000000000E+00  0.33212900412E+02  0.33212900510E+02  0.25500000000E-02 0. -1.
          2   -1    0    0  501    0  0.00000000000E+00 -0.00000000000E+00 -0.46052906190E+03  0.46052906191E+03  0.25500000000E-02 0.  1.
    5000001    1    1    2    0    0 -0.67102112722E+02 -0.52311085817E+02 -0.30572611843E+03  0.32655260330E+03  0.77000000000E+02 0.  0.
   -5000001    1    1    2    0    0  0.67102112722E+02  0.52311085817E+02 -0.12159004305E+03  0.16718935911E+03  0.77000000000E+02 0.  0.
<mgrwt>
<rscale>  0 0.24735000E+03</rscale>
<asrwt>0</asrwt>
<pdfrwt beam="1">  1        2 0.65789862E-01 0.24735000E+03</pdfrwt>
<pdfrwt beam="2">  1       -2 0.47447003E-02 0.24735000E+03</pdfrwt>
<totfact> 0.15510850E+04</totfact>
</mgrwt>
</event>
<event>
 4    1  0.6919593E-004  0.2716935E+03  0.7818608E-02  0.1100314E+00
         -2   -1    0    0    0  501 -0.00000000000E+00  0.00000000000E+00  0.13933313468E+02  0.13933313701E+02  0.25500000000E-02 0. -1.
          2   -1    0    0  501    0  0.00000000000E+00 -0.00000000000E+00 -0.13244758770E+04  0.13244758770E+04  0.25500000000E-02 0.  1.
    5000001    1    1    2    0    0 -0.10389057322E+03  0.98814096872E+00 -0.45030990565E+03  0.46851066023E+03  0.77000000000E+02 0.  0.
   -5000001    1    1    2    0    0  0.10389057322E+03 -0.98814096872E+00 -0.86023265788E+03  0.86989853047E+03  0.77000000000E+02 0.  0.
<mgrwt>
<rscale>  0 0.27169349E+03</rscale>
<asrwt>0</asrwt>
<pdfrwt beam="1">  1        2 0.18921076E+00 0.27169349E+03</pdfrwt>
<pdfrwt beam="2">  1       -2 0.19904742E-02 0.27169349E+03</pdfrwt>
<totfact> 0.14937795E+04</totfact>
</mgrwt>
</event>
<event>
 4    1  0.6919593E-004  0.5827463E+03  0.7818608E-02  0.9941863E-01
         -2   -1    0    0    0  501 -0.00000000000E+00  0.00000000000E+00  0.45133609327E+02  0.45133609399E+02  0.25500000000E-02 0. -1.
          2   -1    0    0  501    0  0.00000000000E+00 -0.00000000000E+00 -0.18810439577E+04  0.18810439577E+04  0.25500000000E-02 0.  1.
    5000001    1    1    2    0    0  0.26453816972E+02 -0.21787131882E+02  0.39625381033E+01  0.84375264481E+02  0.77000000000E+02 0.  0.
   -5000001    1    1    2    0    0 -0.26453816972E+02  0.21787131882E+02 -0.18398728865E+04  0.18418023027E+04  0.77000000000E+02 0.  0.
<mgrwt>
<rscale>  0 0.58274627E+03</rscale>
<asrwt>0</asrwt>
<pdfrwt beam="1">  1        2 0.26872052E+00 0.58274627E+03</pdfrwt>
<pdfrwt beam="2">  1       -2 0.64476597E-02 0.58274627E+03</pdfrwt>
<totfact> 0.13127125E+03</totfact>
</mgrwt>
</event>
<event>
 4    1  0.6919593E-004  0.1741289E+03  0.7818608E-02  0.1173609E+00
         -2   -1    0    0    0  501 -0.00000000000E+00  0.00000000000E+00  0.12590580569E+03  0.12590580572E+03  0.25500000000E-02 0. -1.
          2   -1    0    0  501    0  0.00000000000E+00 -0.00000000000E+00 -0.60205469750E+02  0.60205469804E+02  0.25500000000E-02 0.  1.
    5000001    1    1    2    0    0  0.31784401405E+02  0.24458546283E+02  0.25861933290E+02  0.90588676182E+02  0.77000000000E+02 0.  0.
   -5000001    1    1    2    0    0 -0.31784401405E+02 -0.24458546283E+02  0.39838402653E+02  0.95522599341E+02  0.77000000000E+02 0.  0.
<mgrwt>
<rscale>  0 0.17412890E+03</rscale>
<asrwt>0</asrwt>
<pdfrwt beam="1">  1        2 0.86007814E-02 0.17412890E+03</pdfrwt>
<pdfrwt beam="2">  1       -2 0.17986544E-01 0.17412890E+03</pdfrwt>
<totfact> 0.18554737E+04</totfact>
</mgrwt>
</event>
<event>
 4    1  0.6919593E-004  0.3381354E+03  0.7818608E-02  0.1067593E+00
          2   -1    0    0  501    0  0.00000000000E+00  0.00000000000E+00  0.30880394186E+04  0.30880394186E+04  0.25500000000E-02 0.  1.
         -2   -1    0    0    0  501 -0.00000000000E+00 -0.00000000000E+00 -0.92563228949E+01  0.92563232462E+01  0.25500000000E-02 0. -1.
    5000001    1    1    2    0    0 -0.10319124890E+03  0.45972087020E+02  0.24504716015E+04  0.24542823669E+04  0.77000000000E+02 0.  0.
   -5000001    1    1    2    0    0  0.10319124890E+03 -0.45972087020E+02  0.62831149426E+03  0.64301337502E+03  0.77000000000E+02 0.  0.
<mgrwt>
<rscale>  0 0.33813542E+03</rscale>
<asrwt>0</asrwt>
<pdfrwt beam="1">  1        2 0.44114780E+00 0.33813542E+03</pdfrwt>
<pdfrwt beam="2">  1       -2 0.13223339E-02 0.33813542E+03</pdfrwt>
<totfact> 0.35187529E+03</totfact>
</mgrwt>
</event>
<event>
 4    1  0.6919593E-004  0.2630071E+03  0.7818608E-02  0.1105350E+00
         -2   -1    0    0    0  501 -0.00000000000E+00  0.00000000000E+00  0.48965044617E+02  0.48965044683E+02  0.25500000000E-02 0. -1.
          2   -1    0    0  501    0  0.00000000000E+00 -0.00000000000E+00 -0.35317405002E+03  0.35317405003E+03  0.25500000000E-02 0.  1.
    5000001    1    1    2    0    0  0.56407325128E+02 -0.82836077908E+02 -0.20766822759E+03  0.24310223134E+03  0.77000000000E+02 0.  0.
   -5000001    1    1    2    0    0 -0.56407325128E+02  0.82836077908E+02 -0.96540777815E+02  0.15903686338E+03  0.77000000000E+02 0.  0.
<mgrwt>
<rscale>  0 0.26300710E+03</rscale>
<asrwt>0</asrwt>
<pdfrwt beam="1">  1        2 0.50453434E-01 0.26300710E+03</pdfrwt>
<pdfrwt beam="2">  1       -2 0.69950066E-02 0.26300710E+03</pdfrwt>
<totfact> 0.11451614E+04</totfact>
</mgrwt>
</event>
<event>
 4    1  0.6919593E-004  0.1644483E+03  0.7818608E-02  0.1183764E+00
          2   -1    0    0  501    0  0.00000000000E+00  0.00000000000E+00  0.21588345411E+04  0.21588345411E+04  0.25500000000E-02 0.  1.
         -2   -1    0    0    0  501 -0.00000000000E+00 -0.00000000000E+00 -0.31316950257E+01  0.31316960639E+01  0.25500000000E-02 0. -1.
    5000001    1    1    2    0    0 -0.61516826998E+01 -0.15600433424E+02  0.13863377434E+04  0.13885757291E+04  0.77000000000E+02 0.  0.
   -5000001    1    1    2    0    0  0.61516826998E+01  0.15600433424E+02  0.76936510265E+03  0.77339050803E+03  0.77000000000E+02 0.  0.
<mgrwt>
<rscale>  0 0.16444832E+03</rscale>
<asrwt>0</asrwt>
<pdfrwt beam="1">  1        2 0.30840538E+00 0.16444832E+03</pdfrwt>
<pdfrwt beam="2">  1       -2 0.44738443E-03 0.16444832E+03</pdfrwt>
<totfact> 0.48874172E+04</totfact>
</mgrwt>
</event>
<event>
 4    1  0.6919593E-004  0.3993911E+03  0.7818608E-02  0.1043991E+00
         -2   -1    0    0    0  501 -0.00000000000E+00  0.00000000000E+00  0.53440308282E+02  0.53440308343E+02  0.25500000000E-02 0. -1.
          2   -1    0    0  501    0  0.00000000000E+00 -0.00000000000E+00 -0.74622143894E+03  0.74622143894E+03  0.25500000000E-02 0.  1.
    5000001    1    1    2    0    0  0.15415540667E+03 -0.16403045168E+02 -0.54577167494E+03  0.57256324582E+03  0.77000000000E+02 0.  0.
   -5000001    1    1    2    0    0 -0.15415540667E+03  0.16403045168E+02 -0.14700945571E+03  0.22709850146E+03  0.77000000000E+02 0.  0.
<mgrwt>
<rscale>  0 0.39939106E+03</rscale>
<asrwt>0</asrwt>
<pdfrwt beam="1">  1        2 0.10660306E+00 0.39939106E+03</pdfrwt>
<pdfrwt beam="2">  1       -2 0.76343302E-02 0.39939106E+03</pdfrwt>
<totfact> 0.43509327E+03</totfact>
</mgrwt>
</event>
<event>
 4    1  0.6919593E-004  0.4677461E+03  0.7818608E-02  0.1022558E+00
          2   -1    0    0  501    0  0.00000000000E+00  0.00000000000E+00  0.10041693054E+04  0.10041693054E+04  0.25500000000E-02 0.  1.
         -2   -1    0    0    0  501 -0.00000000000E+00 -0.00000000000E+00 -0.54469493377E+02  0.54469493436E+02  0.25500000000E-02 0. -1.
    5000001    1    1    2    0    0 -0.13988771192E+03 -0.11205122373E+02  0.86075994952E+03  0.87551745695E+03  0.77000000000E+02 0.  0.
   -5000001    1    1    2    0    0  0.13988771192E+03  0.11205122373E+02  0.88939862494E+02  0.18312134189E+03  0.77000000000E+02 0.  0.
<mgrwt>
<rscale>  0 0.46774606E+03</rscale>
<asrwt>0</asrwt>
<pdfrwt beam="1">  1        2 0.14345275E+00 0.46774606E+03</pdfrwt>
<pdfrwt beam="2">  1       -2 0.77813568E-02 0.46774606E+03</pdfrwt>
<totfact> 0.28713768E+03</totfact>
</mgrwt>
</event>
<event>
 4    1  0.6919593E-004  0.2607903E+03  0.7818608E-02  0.1106669E+00
          2   -1    0    0  501    0  0.00000000000E+00  0.00000000000E+00  0.18087217303E+04  0.18087217303E+04  0.25500000000E-02 0.  1.
         -2   -1    0    0    0  501 -0.00000000000E+00 -0.00000000000E+00 -0.94005061778E+01  0.94005065237E+01  0.25500000000E-02 0. -1.
    5000001    1    1    2    0    0 -0.10155455890E+03  0.25602058413E+02  0.97113425677E+03  0.97979566160E+03  0.77000000000E+02 0.  0.
   -5000001    1    1    2    0    0  0.10155455890E+03 -0.25602058413E+02  0.82818696732E+03  0.83832657518E+03  0.77000000000E+02 0.  0.
<mgrwt>
<rscale>  0 0.26079034E+03</rscale>
<asrwt>0</asrwt>
<pdfrwt beam="1">  1        2 0.25838868E+00 0.26079034E+03</pdfrwt>
<pdfrwt beam="2">  1       -2 0.13429302E-02 0.26079034E+03</pdfrwt>
<totfact> 0.15169610E+04</totfact>
</mgrwt>
</event>
<event>
 4    1  0.6919593E-004  0.2576049E+03  0.7818608E-02  0.1108591E+00
          2   -1    0    0  501    0  0.00000000000E+00  0.00000000000E+00  0.19848536759E+03  0.19848536761E+03  0.25500000000E-02 0.  1.
         -2   -1    0    0    0  501 -0.00000000000E+00 -0.00000000000E+00 -0.83583330270E+02  0.83583330309E+02  0.25500000000E-02 0. -1.
    5000001    1    1    2    0    0 -0.12750301482E+02 -0.93450170282E+02  0.11442050993E+02  0.12229237525E+03  0.77000000000E+02 0.  0.
   -5000001    1    1    2    0    0  0.12750301482E+02  0.93450170282E+02  0.10345998633E+03  0.15977632266E+03  0.77000000000E+02 0.  0.
<mgrwt>
<rscale>  0 0.25760488E+03</rscale>
<asrwt>0</asrwt>
<pdfrwt beam="1">  1        2 0.28355053E-01 0.25760488E+03</pdfrwt>
<pdfrwt beam="2">  1       -2 0.11940476E-01 0.25760488E+03</pdfrwt>
<totfact> 0.91840372E+03</totfact>
</mgrwt>
</event>
<event>
 4    1  0.6919593E-004  0.3082354E+03  0.7818608E-02  0.1081195E+00
          2   -1    0    0  501    0  0.00000000000E+00  0.00000000000E+00  0.65485838216E+03  0.65485838216E+03  0.25500000000E-02 0.  1.
         -2   -1    0    0    0  501 -0.00000000000E+00 -0.00000000000E+00 -0.36270848098E+02  0.36270848188E+02  0.25500000000E-02 0. -1.
    5000001    1    1    2    0    0 -0.99187131521E+02 -0.26386335261E+02  0.50072332533E+03  0.51690151313E+03  0.77000000000E+02 0.  0.
   -5000001    1    1    2    0    0  0.99187131521E+02  0.26386335261E+02  0.11786420873E+03  0.17422771722E+03  0.77000000000E+02 0.  0.
<mgrwt>
<rscale>  0 0.30823542E+03</rscale>
<asrwt>0</asrwt>
<pdfrwt beam="1">  1        2 0.93551188E-01 0.30823542E+03</pdfrwt>
<pdfrwt beam="2">  1       -2 0.51815502E-02 0.30823542E+03</pdfrwt>
<totfact> 0.92156228E+03</totfact>
</mgrwt>
</event>
<event>
 4    1  0.6919593E-004  0.1635129E+03  0.7818608E-02  0.1184787E+00
          2   -1    0    0  501    0  0.00000000000E+00  0.00000000000E+00  0.15296041144E+03  0.15296041146E+03  0.25500000000E-02 0.  1.
         -2   -1    0    0    0  501 -0.00000000000E+00 -0.00000000000E+00 -0.43698355111E+02  0.43698355186E+02  0.25500000000E-02 0. -1.
    5000001    1    1    2    0    0 -0.38155038817E+01 -0.27194921845E+02  0.55831657953E+02  0.98996443743E+02  0.77000000000E+02 0.  0.
   -5000001    1    1    2    0    0  0.38155038817E+01  0.27194921845E+02  0.53430398372E+02  0.97662322900E+02  0.77000000000E+02 0.  0.
<mgrwt>
<rscale>  0 0.16351292E+03</rscale>
<asrwt>0</asrwt>
<pdfrwt beam="1">  1        2 0.21851488E-01 0.16351292E+03</pdfrwt>
<pdfrwt beam="2">  1       -2 0.62426220E-02 0.16351292E+03</pdfrwt>
<totfact> 0.32771769E+04</totfact>
</mgrwt>
</event>
<event>
 4    1  0.6919593E-004  0.3396991E+03  0.7818608E-02  0.1066924E+00
          2   -1    0    0  501    0  0.00000000000E+00  0.00000000000E+00  0.29180042523E+04  0.29180042523E+04  0.25500000000E-02 0.  1.
         -2   -1    0    0    0  501 -0.00000000000E+00 -0.00000000000E+00 -0.98865077603E+01  0.98865080892E+01  0.25500000000E-02 0. -1.
    5000001    1    1    2    0    0  0.77128934947E+02  0.80203054292E+02  0.23388672545E+04  0.23427783585E+04  0.77000000000E+02 0.  0.
   -5000001    1    1    2    0    0 -0.77128934947E+02 -0.80203054292E+02  0.56925048999E+03  0.58511240192E+03  0.77000000000E+02 0.  0.
<mgrwt>
<rscale>  0 0.33969911E+03</rscale>
<asrwt>0</asrwt>
<pdfrwt beam="1">  1        2 0.41685804E+00 0.33969911E+03</pdfrwt>
<pdfrwt beam="2">  1       -2 0.14123573E-02 0.33969911E+03</pdfrwt>
<totfact> 0.39371930E+03</totfact>
</mgrwt>
</event>
<event>
 4    1  0.6919593E-004  0.2583275E+03  0.7818608E-02  0.1108152E+00
          2   -1    0    0  501    0  0.00000000000E+00  0.00000000000E+00  0.18929490919E+04  0.18929490919E+04  0.25500000000E-02 0.  1.
         -2   -1    0    0    0  501 -0.00000000000E+00 -0.00000000000E+00 -0.88133753058E+01  0.88133756747E+01  0.25500000000E-02 0. -1.
    5000001    1    1    2    0    0 -0.47308125184E+02 -0.70658704478E+02  0.50507282367E+03  0.51793654866E+03  0.77000000000E+02 0.  0.
   -5000001    1    1    2    0    0  0.47308125184E+02  0.70658704478E+02  0.13790628929E+04  0.13838259189E+04  0.77000000000E+02 0.  0.
<mgrwt>
<rscale>  0 0.25832748E+03</rscale>
<asrwt>0</asrwt>
<pdfrwt beam="1">  1        2 0.27042164E+00 0.25832748E+03</pdfrwt>
<pdfrwt beam="2">  1       -2 0.12590521E-02 0.25832748E+03</pdfrwt>
<totfact> 0.15155641E+04</totfact>
</mgrwt>
</event>
<event>
 4    1  0.6919593E-004  0.2442360E+03  0.7818608E-02  0.1117003E+00
          2   -1    0    0  501    0  0.00000000000E+00  0.00000000000E+00  0.70940992616E+03  0.70940992617E+03  0.25500000000E-02 0.  1.
         -2   -1    0    0    0  501 -0.00000000000E+00 -0.00000000000E+00 -0.21021430181E+02  0.21021430336E+02  0.25500000000E-02 0. -1.
    5000001    1    1    2    0    0  0.72707707127E+02  0.46671930127E+02  0.22762946914E+03  0.25536024545E+03  0.77000000000E+02 0.  0.
   -5000001    1    1    2    0    0 -0.72707707127E+02 -0.46671930127E+02  0.46075902684E+03  0.47507111105E+03  0.77000000000E+02 0.  0.
<mgrwt>
<rscale>  0 0.24423604E+03</rscale>
<asrwt>0</asrwt>
<pdfrwt beam="1">  1        2 0.10134428E+00 0.24423604E+03</pdfrwt>
<pdfrwt beam="2">  1       -2 0.30030614E-02 0.24423604E+03</pdfrwt>
<totfact> 0.18863562E+04</totfact>
</mgrwt>
</event>
<event>
 4    1  0.6919593E-004  0.2870928E+03  0.7818608E-02  0.1091877E+00
          2   -1    0    0  501    0  0.00000000000E+00  0.00000000000E+00  0.62432059524E+02  0.62432059576E+02  0.25500000000E-02 0.  1.
         -2   -1    0    0    0  501 -0.00000000000E+00 -0.00000000000E+00 -0.33004799521E+03  0.33004799522E+03  0.25500000000E-02 0. -1.
    5000001    1    1    2    0    0  0.63516144726E+02 -0.62273650653E+02 -0.24624402683E+03  0.27290553119E+03  0.77000000000E+02 0.  0.
   -5000001    1    1    2    0    0 -0.63516144726E+02  0.62273650653E+02 -0.21371908856E+02  0.11957452360E+03  0.77000000000E+02 0.  0.
<mgrwt>
<rscale>  0 0.28709285E+03</rscale>
<asrwt>0</asrwt>
<pdfrwt beam="1">  1        2 0.89188658E-02 0.28709285E+03</pdfrwt>
<pdfrwt beam="2">  1       -2 0.47149713E-01 0.28709285E+03</pdfrwt>
<totfact> 0.31909109E+03</totfact>
</mgrwt>
</event>
<event>
 4    1  0.6919593E-004  0.5346232E+03  0.7818608E-02  0.1005117E+00
          2   -1    0    0  501    0  0.00000000000E+00  0.00000000000E+00  0.25455403381E+04  0.25455403381E+04  0.25500000000E-02 0.  1.
         -2   -1    0    0    0  501 -0.00000000000E+00 -0.00000000000E+00 -0.28070851856E+02  0.28070851972E+02  0.25500000000E-02 0. -1.
    5000001    1    1    2    0    0  0.22801169070E+02  0.25468701699E+03  0.12015496030E+04  0.12308679127E+04  0.77000000000E+02 0.  0.
   -5000001    1    1    2    0    0 -0.22801169070E+02 -0.25468701699E+03  0.13159198833E+04  0.13427432775E+04  0.77000000000E+02 0.  0.
<mgrwt>
<rscale>  0 0.53462318E+03</rscale>
<asrwt>0</asrwt>
<pdfrwt beam="1">  1        2 0.36364883E+00 0.53462318E+03</pdfrwt>
<pdfrwt beam="2">  1       -2 0.40101193E-02 0.53462318E+03</pdfrwt>
<totfact> 0.12705557E+03</totfact>
</mgrwt>
</event>
<event>
 4    1  0.6919593E-004  0.5223603E+03  0.7818608E-02  0.1008102E+00
          2   -1    0    0  501    0  0.00000000000E+00  0.00000000000E+00  0.29258933554E+03  0.29258933555E+03  0.25500000000E-02 0.  1.
         -2   -1    0    0    0  501 -0.00000000000E+00 -0.00000000000E+00 -0.23314273300E+03  0.23314273301E+03  0.25500000000E-02 0. -1.
    5000001    1    1    2    0    0  0.13779708969E+03 -0.13377728160E+03 -0.13068450203E+03  0.24472809007E+03  0.77000000000E+02 0.  0.
   -5000001    1    1    2    0    0 -0.13779708969E+03  0.13377728160E+03  0.19013110458E+03  0.28100397849E+03  0.77000000000E+02 0.  0.
<mgrwt>
<rscale>  0 0.52236033E+03</rscale>
<asrwt>0</asrwt>
<pdfrwt beam="1">  1        2 0.41798477E-01 0.52236033E+03</pdfrwt>
<pdfrwt beam="2">  1       -2 0.33306105E-01 0.52236033E+03</pdfrwt>
<totfact> 0.10338428E+03</totfact>
</mgrwt>
</event>
<event>
 4    1  0.6919593E-004  0.3820047E+03  0.7818608E-02  0.1050195E+00
         -2   -1    0    0    0  501 -0.00000000000E+00  0.00000000000E+00  0.86952658349E+02  0.86952658386E+02  0.25500000000E-02 0. -1.
          2   -1    0    0  501    0  0.00000000000E+00 -0.00000000000E+00 -0.41956049688E+03  0.41956049688E+03  0.25500000000E-02 0.  1.
    5000001    1    1    2    0    0  0.24728671906E+02  0.17048739458E+03 -0.20553548159E+03  0.27901844584E+03  0.77000000000E+02 0.  0.
   -5000001    1    1    2    0    0 -0.24728671906E+02 -0.17048739458E+03 -0.12707235693E+03  0.22749470943E+03  0.77000000000E+02 0.  0.
<mgrwt>
<rscale>  0 0.38200471E+03</rscale>
<asrwt>0</asrwt>
<pdfrwt beam="1">  1        2 0.59937213E-01 0.38200471E+03</pdfrwt>
<pdfrwt beam="2">  1       -2 0.12421809E-01 0.38200471E+03</pdfrwt>
<totfact> 0.38638046E+03</totfact>
</mgrwt>
</event>
<event>
 4    1  0.6919593E-004  0.1614405E+03  0.7818608E-02  0.1187080E+00
          2   -1    0    0  501    0  0.00000000000E+00  0.00000000000E+00  0.18484266829E+04  0.18484266829E+04  0.25500000000E-02 0.  1.
         -2   -1    0    0    0  501 -0.00000000000E+00 -0.00000000000E+00 -0.35250279583E+01  0.35250288806E+01  0.25500000000E-02 0. -1.
    5000001    1    1    2    0    0  0.54444334048E+00  0.93956247776E+01  0.11784929570E+04  0.11810432778E+04  0.77000000000E+02 0.  0.
   -5000001    1    1    2    0    0 -0.54444334048E+00 -0.93956247776E+01  0.66640869787E+03  0.67090843398E+03  0.77000000000E+02 0.  0.
<mgrwt>
<rscale>  0 0.16144047E+03</rscale>
<asrwt>0</asrwt>
<pdfrwt beam="1">  1        2 0.26406138E+00 0.16144047E+03</pdfrwt>
<pdfrwt beam="2">  1       -2 0.50357468E-03 0.16144047E+03</pdfrwt>
<totfact> 0.58067899E+04</totfact>
</mgrwt>
</event>
<event>
 4    1  0.6919593E-004  0.3375784E+03  0.7818608E-02  0.1067832E+00
         -2   -1    0    0    0  501 -0.00000000000E+00  0.00000000000E+00  0.47998982551E+02  0.47998982618E+02  0.25500000000E-02 0. -1.
          2   -1    0    0  501    0  0.00000000000E+00 -0.00000000000E+00 -0.59355009935E+03  0.59355009935E+03  0.25500000000E-02 0.  1.
    5000001    1    1    2    0    0  0.40387422294E+02 -0.59201162230E+02 -0.21910557427E+02  0.10744763383E+03  0.77000000000E+02 0.  0.
   -5000001    1    1    2    0    0 -0.40387422294E+02  0.59201162230E+02 -0.52364055937E+03  0.53410144814E+03  0.77000000000E+02 0.  0.
<mgrwt>
<rscale>  0 0.33757844E+03</rscale>
<asrwt>0</asrwt>
<pdfrwt beam="1">  1        2 0.84792867E-01 0.33757844E+03</pdfrwt>
<pdfrwt beam="2">  1       -2 0.68569979E-02 0.33757844E+03</pdfrwt>
<totfact> 0.67267613E+03</totfact>
</mgrwt>
</event>
<event>
 4    1  0.6919593E-004  0.1871120E+03  0.7818608E-02  0.1161092E+00
         -2   -1    0    0    0  501 -0.00000000000E+00  0.00000000000E+00  0.15889818535E+02  0.15889818739E+02  0.25500000000E-02 0. -1.
          2   -1    0    0  501    0  0.00000000000E+00 -0.00000000000E+00 -0.55083856829E+03  0.55083856830E+03  0.25500000000E-02 0.  1.
    5000001    1    1    2    0    0 -0.34240586484E+02 -0.40626550667E+02 -0.26478133096E+03  0.28082216367E+03  0.77000000000E+02 0.  0.
   -5000001    1    1    2    0    0  0.34240586484E+02  0.40626550667E+02 -0.27016741880E+03  0.28590622337E+03  0.77000000000E+02 0.  0.
<mgrwt>
<rscale>  0 0.18711200E+03</rscale>
<asrwt>0</asrwt>
<pdfrwt beam="1">  1        2 0.78691212E-01 0.18711200E+03</pdfrwt>
<pdfrwt beam="2">  1       -2 0.22699744E-02 0.18711200E+03</pdfrwt>
<totfact> 0.37389130E+04</totfact>
</mgrwt>
</event>
<event>
 4    1  0.6919593E-004  0.1653519E+03  0.7818608E-02  0.1182784E+00
         -2   -1    0    0    0  501 -0.00000000000E+00  0.00000000000E+00  0.10155846739E+02  0.10155847059E+02  0.25500000000E-02 0. -1.
          2   -1    0    0  501    0  0.00000000000E+00 -0.00000000000E+00 -0.67304230095E+03  0.67304230096E+03  0.25500000000E-02 0.  1.
    5000001    1    1    2    0    0 -0.58002903688E+01 -0.29040341028E+02 -0.30906673893E+03  0.31988784580E+03  0.77000000000E+02 0.  0.
   -5000001    1    1    2    0    0  0.58002903688E+01  0.29040341028E+02 -0.35381971528E+03  0.36331030222E+03  0.77000000000E+02 0.  0.
<mgrwt>
<rscale>  0 0.16535192E+03</rscale>
<asrwt>0</asrwt>
<pdfrwt beam="1">  1        2 0.96148872E-01 0.16535192E+03</pdfrwt>
<pdfrwt beam="2">  1       -2 0.14508357E-02 0.16535192E+03</pdfrwt>
<totfact> 0.56511100E+04</totfact>
</mgrwt>
</event>
<event>
 4    1  0.6919593E-004  0.3227388E+03  0.7818608E-02  0.1074396E+00
          2   -1    0    0  501    0  0.00000000000E+00  0.00000000000E+00  0.54973440821E+02  0.54973440880E+02  0.25500000000E-02 0.  1.
         -2   -1    0    0    0  501 -0.00000000000E+00 -0.00000000000E+00 -0.47368467820E+03  0.47368467821E+03  0.25500000000E-02 0. -1.
    5000001    1    1    2    0    0  0.40558149904E+02  0.10340961525E+03 -0.35376850618E+03  0.37870789272E+03  0.77000000000E+02 0.  0.
   -5000001    1    1    2    0    0 -0.40558149904E+02 -0.10340961525E+03 -0.64942731205E+02  0.14995022636E+03  0.77000000000E+02 0.  0.
<mgrwt>
<rscale>  0 0.32273876E+03</rscale>
<asrwt>0</asrwt>
<pdfrwt beam="1">  1        2 0.78533490E-02 0.32273876E+03</pdfrwt>
<pdfrwt beam="2">  1       -2 0.67669237E-01 0.32273876E+03</pdfrwt>
<totfact> 0.17930706E+03</totfact>
</mgrwt>
</event>
<event>
 4    1  0.6919593E-004  0.3259134E+03  0.7818608E-02  0.1072959E+00
          2   -1    0    0  501    0  0.00000000000E+00  0.00000000000E+00  0.13653652137E+03  0.13653652139E+03  0.25500000000E-02 0.  1.
         -2   -1    0    0    0  501 -0.00000000000E+00 -0.00000000000E+00 -0.19448928936E+03  0.19448928938E+03  0.25500000000E-02 0. -1.
    5000001    1    1    2    0    0 -0.11976028640E+03 -0.12934642440E+02  0.50455609790E+02  0.15160672720E+03  0.77000000000E+02 0.  0.
   -5000001    1    1    2    0    0  0.11976028640E+03  0.12934642440E+02 -0.10840837779E+03  0.17941908357E+03  0.77000000000E+02 0.  0.
<mgrwt>
<rscale>  0 0.32591343E+03</rscale>
<asrwt>0</asrwt>
<pdfrwt beam="1">  1        2 0.19505217E-01 0.32591343E+03</pdfrwt>
<pdfrwt beam="2">  1       -2 0.27784184E-01 0.32591343E+03</pdfrwt>
<totfact> 0.33684150E+03</totfact>
</mgrwt>
</event>
<event>
 4    1  0.6919593E-004  0.2427417E+03  0.7818608E-02  0.1117980E+00
          2   -1    0    0  501    0  0.00000000000E+00  0.00000000000E+00  0.52407119665E+03  0.52407119665E+03  0.25500000000E-02 0.  1.
         -2   -1    0    0    0  501 -0.00000000000E+00 -0.00000000000E+00 -0.28108546624E+02  0.28108546739E+02  0.25500000000E-02 0. -1.
    5000001    1    1    2    0    0 -0.69333635417E+02 -0.53109736924E+02  0.17003682980E+03  0.20608085948E+03  0.77000000000E+02 0.  0.
   -5000001    1    1    2    0    0  0.69333635417E+02  0.53109736924E+02  0.32592582023E+03  0.34609888391E+03  0.77000000000E+02 0.  0.
<mgrwt>
<rscale>  0 0.24274167E+03</rscale>
<asrwt>0</asrwt>
<pdfrwt beam="1">  1        2 0.74867313E-01 0.24274167E+03</pdfrwt>
<pdfrwt beam="2">  1       -2 0.40155067E-02 0.24274167E+03</pdfrwt>
<totfact> 0.17283307E+04</totfact>
</mgrwt>
</event>
<event>
 4    1  0.6919593E-004  0.1864615E+03  0.7818608E-02  0.1161692E+00
          2   -1    0    0  501    0  0.00000000000E+00  0.00000000000E+00  0.31013388266E+03  0.31013388267E+03  0.25500000000E-02 0.  1.
         -2   -1    0    0    0  501 -0.00000000000E+00 -0.00000000000E+00 -0.28026527242E+02  0.28026527358E+02  0.25500000000E-02 0. -1.
    5000001    1    1    2    0    0  0.12451869792E+02 -0.48608843956E+02  0.16944668116E+03  0.19276681905E+03  0.77000000000E+02 0.  0.
   -5000001    1    1    2    0    0 -0.12451869792E+02  0.48608843956E+02  0.11266067426E+03  0.14539359098E+03  0.77000000000E+02 0.  0.
<mgrwt>
<rscale>  0 0.18646153E+03</rscale>
<asrwt>0</asrwt>
<pdfrwt beam="1">  1        2 0.44304843E-01 0.18646153E+03</pdfrwt>
<pdfrwt beam="2">  1       -2 0.40037894E-02 0.18646153E+03</pdfrwt>
<totfact> 0.30029226E+04</totfact>
</mgrwt>
</event>
<event>
 4    1  0.6919593E-004  0.4934598E+03  0.7818608E-02  0.1015500E+00
         -2   -1    0    0    0  501 -0.00000000000E+00  0.00000000000E+00  0.27768837796E+02  0.27768837913E+02  0.25500000000E-02 0. -1.
          2   -1    0    0  501    0  0.00000000000E+00 -0.00000000000E+00 -0.21922286854E+04  0.21922286854E+04  0.25500000000E-02 0.  1.
    5000001    1    1    2    0    0 -0.21762018465E+03 -0.71754102865E+02 -0.13044311213E+04  0.13266411520E+04  0.77000000000E+02 0.  0.
   -5000001    1    1    2    0    0  0.21762018465E+03  0.71754102865E+02 -0.86002872629E+03  0.89335637127E+03  0.77000000000E+02 0.  0.
<mgrwt>
<rscale>  0 0.49345980E+03</rscale>
<asrwt>0</asrwt>
<pdfrwt beam="1">  1        2 0.31317542E+00 0.49345980E+03</pdfrwt>
<pdfrwt beam="2">  1       -2 0.39669782E-02 0.49345980E+03</pdfrwt>
<totfact> 0.19543653E+03</totfact>
</mgrwt>
</event>
<event>
 4    1  0.6919593E-004  0.2216834E+03  0.7818608E-02  0.1132634E+00
         -2   -1    0    0    0  501 -0.00000000000E+00  0.00000000000E+00  0.35418643065E+01  0.35418652244E+01  0.25500000000E-02 0. -1.
          2   -1    0    0  501    0  0.00000000000E+00 -0.00000000000E+00 -0.34687614249E+04  0.34687614249E+04  0.25500000000E-02 0.  1.
    5000001    1    1    2    0    0  0.30886768576E+02  0.48825651742E+02 -0.25932313113E+04  0.25950174509E+04  0.77000000000E+02 0.  0.
   -5000001    1    1    2    0    0 -0.30886768576E+02 -0.48825651742E+02 -0.87198824929E+03  0.87728583919E+03  0.77000000000E+02 0.  0.
<mgrwt>
<rscale>  0 0.22168341E+03</rscale>
<asrwt>0</asrwt>
<pdfrwt beam="1">  1        2 0.49553517E+00 0.22168341E+03</pdfrwt>
<pdfrwt beam="2">  1       -2 0.50598291E-03 0.22168341E+03</pdfrwt>
<totfact> 0.87511379E+03</totfact>
</mgrwt>
</event>
<event>
 4    1  0.6919593E-004  0.3429149E+03  0.7818608E-02  0.1065561E+00
         -2   -1    0    0    0  501 -0.00000000000E+00  0.00000000000E+00  0.30867936094E+03  0.30867936095E+03  0.25500000000E-02 0. -1.
          2   -1    0    0  501    0  0.00000000000E+00 -0.00000000000E+00 -0.95236884902E+02  0.95236884936E+02  0.25500000000E-02 0.  1.
    5000001    1    1    2    0    0 -0.11548353025E+03 -0.89499545241E+02  0.52460914539E+02  0.17328520396E+03  0.77000000000E+02 0.  0.
   -5000001    1    1    2    0    0  0.11548353025E+03  0.89499545241E+02  0.16098156150E+03  0.23063104193E+03  0.77000000000E+02 0.  0.
<mgrwt>
<rscale>  0 0.34291492E+03</rscale>
<asrwt>0</asrwt>
<pdfrwt beam="1">  1        2 0.13605269E-01 0.34291492E+03</pdfrwt>
<pdfrwt beam="2">  1       -2 0.44097053E-01 0.34291492E+03</pdfrwt>
<totfact> 0.21710953E+03</totfact>
</mgrwt>
</event>
<event>
 4    1  0.6919593E-004  0.3864355E+03  0.7818608E-02  0.1048580E+00
          2   -1    0    0  501    0  0.00000000000E+00  0.00000000000E+00  0.13594034810E+04  0.13594034810E+04  0.25500000000E-02 0.  1.
         -2   -1    0    0    0  501 -0.00000000000E+00 -0.00000000000E+00 -0.27462852411E+02  0.27462852529E+02  0.25500000000E-02 0. -1.
    5000001    1    1    2    0    0  0.17695025506E+03 -0.89603023279E+01  0.65332370556E+03  0.68128741661E+03  0.77000000000E+02 0.  0.
   -5000001    1    1    2    0    0 -0.17695025506E+03  0.89603023279E+01  0.67861692307E+03  0.70557891696E+03  0.77000000000E+02 0.  0.
<mgrwt>
<rscale>  0 0.38643549E+03</rscale>
<asrwt>0</asrwt>
<pdfrwt beam="1">  1        2 0.19420055E+00 0.38643549E+03</pdfrwt>
<pdfrwt beam="2">  1       -2 0.39232636E-02 0.38643549E+03</pdfrwt>
<totfact> 0.52382736E+03</totfact>
</mgrwt>
</event>
<event>
 4    1  0.6919593E-004  0.2388379E+03  0.7818608E-02  0.1120569E+00
          2   -1    0    0  501    0  0.00000000000E+00  0.00000000000E+00  0.15339313104E+04  0.15339313104E+04  0.25500000000E-02 0.  1.
         -2   -1    0    0    0  501 -0.00000000000E+00 -0.00000000000E+00 -0.92969497782E+01  0.92969501279E+01  0.25500000000E-02 0. -1.
    5000001    1    1    2    0    0 -0.77078382264E+02  0.42606328795E+02  0.60730992234E+03  0.61847450880E+03  0.77000000000E+02 0.  0.
   -5000001    1    1    2    0    0  0.77078382264E+02 -0.42606328795E+02  0.91732443831E+03  0.92475375176E+03  0.77000000000E+02 0.  0.
<mgrwt>
<rscale>  0 0.23883787E+03</rscale>
<asrwt>0</asrwt>
<pdfrwt beam="1">  1        2 0.21913291E+00 0.23883787E+03</pdfrwt>
<pdfrwt beam="2">  1       -2 0.13281365E-02 0.23883787E+03</pdfrwt>
<totfact> 0.20996791E+04</totfact>
</mgrwt>
</event>
<event>
 4    1  0.6919593E-004  0.2315174E+03  0.7818608E-02  0.1125576E+00
         -2   -1    0    0    0  501 -0.00000000000E+00  0.00000000000E+00  0.35509226937E+02  0.35509227028E+02  0.25500000000E-02 0. -1.
          2   -1    0    0  501    0  0.00000000000E+00 -0.00000000000E+00 -0.37736881641E+03  0.37736881642E+03  0.25500000000E-02 0.  1.
    5000001    1    1    2    0    0 -0.36745400056E+02 -0.56411302056E+02 -0.74255822514E+02  0.12639377596E+03  0.77000000000E+02 0.  0.
   -5000001    1    1    2    0    0  0.36745400056E+02  0.56411302056E+02 -0.26760376696E+03  0.28648426749E+03  0.77000000000E+02 0.  0.
<mgrwt>
<rscale>  0 0.23151739E+03</rscale>
<asrwt>0</asrwt>
<pdfrwt beam="1">  1        2 0.53909829E-01 0.23151739E+03</pdfrwt>
<pdfrwt beam="2">  1       -2 0.50727469E-02 0.23151739E+03</pdfrwt>
<totfact> 0.17322030E+04</totfact>
</mgrwt>
</event>
<event>
 4    1  0.6919593E-004  0.4032172E+03  0.7818608E-02  0.1042671E+00
         -2   -1    0    0    0  501 -0.00000000000E+00  0.00000000000E+00  0.58392577757E+02  0.58392577813E+02  0.25500000000E-02 0. -1.
          2   -1    0    0  501    0  0.00000000000E+00 -0.00000000000E+00 -0.69608203150E+03  0.69608203151E+03  0.25500000000E-02 0.  1.
    5000001    1    1    2    0    0 -0.95933868809E+02  0.12944980372E+03 -0.49393822251E+03  0.52522807096E+03  0.77000000000E+02 0.  0.
   -5000001    1    1    2    0    0  0.95933868809E+02 -0.12944980372E+03 -0.14375123123E+03  0.22924653836E+03  0.77000000000E+02 0.  0.
<mgrwt>
<rscale>  0 0.40321718E+03</rscale>
<asrwt>0</asrwt>
<pdfrwt beam="1">  1        2 0.99440285E-01 0.40321718E+03</pdfrwt>
<pdfrwt beam="2">  1       -2 0.83417972E-02 0.40321718E+03</pdfrwt>
<totfact> 0.41176647E+03</totfact>
</mgrwt>
</event>
<event>
 4    1  0.6919593E-004  0.3247091E+03  0.7818608E-02  0.1073502E+00
          2   -1    0    0  501    0  0.00000000000E+00  0.00000000000E+00  0.18086155016E+04  0.18086155016E+04  0.25500000000E-02 0.  1.
         -2   -1    0    0    0  501 -0.00000000000E+00 -0.00000000000E+00 -0.14574129734E+02  0.14574129957E+02  0.25500000000E-02 0. -1.
    5000001    1    1    2    0    0  0.73959468058E+02  0.89093951758E+02  0.13675383365E+04  0.13745900614E+04  0.77000000000E+02 0.  0.
   -5000001    1    1    2    0    0 -0.73959468058E+02 -0.89093951758E+02  0.42650303541E+03  0.44859957018E+03  0.77000000000E+02 0.  0.
<mgrwt>
<rscale>  0 0.32470908E+03</rscale>
<asrwt>0</asrwt>
<pdfrwt beam="1">  1        2 0.25837343E+00 0.32470908E+03</pdfrwt>
<pdfrwt beam="2">  1       -2 0.20820203E-02 0.32470908E+03</pdfrwt>
<totfact> 0.80022676E+03</totfact>
</mgrwt>
</event>
<event>
 4    1  0.6919593E-004  0.2930748E+03  0.7818608E-02  0.1088755E+00
         -2   -1    0    0    0  501 -0.00000000000E+00  0.00000000000E+00  0.90826609706E+01  0.90826613286E+01  0.25500000000E-02 0. -1.
          2   -1    0    0  501    0  0.00000000000E+00 -0.00000000000E+00 -0.23641980740E+04  0.23641980740E+04  0.25500000000E-02 0.  1.
    5000001    1    1    2    0    0  0.76631863017E+02  0.13464089517E+02 -0.38867060389E+03  0.40379148389E+03  0.77000000000E+02 0.  0.
   -5000001    1    1    2    0    0 -0.76631863017E+02 -0.13464089517E+02 -0.19664448091E+04  0.19694892514E+04  0.77000000000E+02 0.  0.
<mgrwt>
<rscale>  0 0.29307480E+03</rscale>
<asrwt>0</asrwt>
<pdfrwt beam="1">  1        2 0.33774219E+00 0.29307480E+03</pdfrwt>
<pdfrwt beam="2">  1       -2 0.12975245E-02 0.29307480E+03</pdfrwt>
<totfact> 0.85476659E+03</totfact>
</mgrwt>
</event>
<event>
 4    1  0.6919593E-004  0.2575989E+03  0.7818608E-02  0.1108595E+00
          2   -1    0    0  501    0  0.00000000000E+00  0.00000000000E+00  0.23407000304E+03  0.23407000305E+03  0.25500000000E-02 0.  1.
         -2   -1    0    0    0  501 -0.00000000000E+00 -0.00000000000E+00 -0.70873211853E+02  0.70873211899E+02  0.25500000000E-02 0. -1.
    5000001    1    1    2    0    0  0.75019763655E+02 -0.24987984842E+02  0.16019292477E+03  0.19453312692E+03  0.77000000000E+02 0.  0.
   -5000001    1    1    2    0    0 -0.75019763655E+02  0.24987984842E+02  0.30038664221E+01  0.11041008803E+03  0.77000000000E+02 0.  0.
<mgrwt>
<rscale>  0 0.25759886E+03</rscale>
<asrwt>0</asrwt>
<pdfrwt beam="1">  1        2 0.33438571E-01 0.25759886E+03</pdfrwt>
<pdfrwt beam="2">  1       -2 0.10124745E-01 0.25759886E+03</pdfrwt>
<totfact> 0.99847350E+03</totfact>
</mgrwt>
</event>
<event>
 4    1  0.6919593E-004  0.1831966E+03  0.7818608E-02  0.1164745E+00
          2   -1    0    0  501    0  0.00000000000E+00  0.00000000000E+00  0.71485622581E+02  0.71485622627E+02  0.25500000000E-02 0.  1.
         -2   -1    0    0    0  501 -0.00000000000E+00 -0.00000000000E+00 -0.11736976735E+03  0.11736976738E+03  0.25500000000E-02 0. -1.
    5000001    1    1    2    0    0  0.23800672540E+02  0.14034130370E+00 -0.67815467100E+02  0.10533009678E+03  0.77000000000E+02 0.  0.
   -5000001    1    1    2    0    0 -0.23800672540E+02 -0.14034130370E+00  0.21931322334E+02  0.83525293225E+02  0.77000000000E+02 0.  0.
<mgrwt>
<rscale>  0 0.18319663E+03</rscale>
<asrwt>0</asrwt>
<pdfrwt beam="1">  1        2 0.10212232E-01 0.18319663E+03</pdfrwt>
<pdfrwt beam="2">  1       -2 0.16767109E-01 0.18319663E+03</pdfrwt>
<totfact> 0.16927649E+04</totfact>
</mgrwt>
</event>
<event>
 4    1  0.6919593E-004  0.3224612E+03  0.7818608E-02  0.1074522E+00
         -2   -1    0    0    0  501 -0.00000000000E+00  0.00000000000E+00  0.60359074057E+01  0.60359079443E+01  0.25500000000E-02 0. -1.
          2   -1    0    0  501    0  0.00000000000E+00 -0.00000000000E+00 -0.43067765258E+04  0.43067765258E+04  0.25500000000E-02 0.  1.
    5000001    1    1    2    0    0 -0.31921254091E+02 -0.97526501369E+02 -0.34564342064E+04  0.34588143645E+04  0.77000000000E+02 0.  0.
   -5000001    1    1    2    0    0  0.31921254091E+02  0.97526501369E+02 -0.84430641202E+03  0.85399806926E+03  0.77000000000E+02 0.  0.
<mgrwt>
<rscale>  0 0.32246119E+03</rscale>
<asrwt>0</asrwt>
<pdfrwt beam="1">  1        2 0.61525182E+00 0.32246119E+03</pdfrwt>
<pdfrwt beam="2">  1       -2 0.86227528E-03 0.32246119E+03</pdfrwt>
<totfact> 0.11727149E+03</totfact>
</mgrwt>
</event>
<event>
 4    1  0.6919593E-004  0.2692153E+03  0.7818608E-02  0.1101730E+00
         -2   -1    0    0    0  501 -0.00000000000E+00  0.00000000000E+00  0.29748613344E+02  0.29748613453E+02  0.25500000000E-02 0. -1.
          2   -1    0    0  501    0  0.00000000000E+00 -0.00000000000E+00 -0.60907799184E+03  0.60907799185E+03  0.25500000000E-02 0.  1.
    5000001    1    1    2    0    0  0.93742255668E+02  0.57390581945E+02 -0.31443146824E+03  0.34187342338E+03  0.77000000000E+02 0.  0.
   -5000001    1    1    2    0    0 -0.93742255668E+02 -0.57390581945E+02 -0.26489791026E+03  0.29695318192E+03  0.77000000000E+02 0.  0.
<mgrwt>
<rscale>  0 0.26921535E+03</rscale>
<asrwt>0</asrwt>
<pdfrwt beam="1">  1        2 0.87011134E-01 0.26921535E+03</pdfrwt>
<pdfrwt beam="2">  1       -2 0.42498023E-02 0.26921535E+03</pdfrwt>
<totfact> 0.13467473E+04</totfact>
</mgrwt>
</event>
<event>
 4    1  0.6919593E-004  0.2450000E+03  0.7818608E-02  0.1116506E+00
          2   -1    0    0  501    0  0.00000000000E+00  0.00000000000E+00  0.87033062018E+03  0.87033062018E+03  0.25500000000E-02 0.  1.
         -2   -1    0    0    0  501 -0.00000000000E+00 -0.00000000000E+00 -0.17242003841E+02  0.17242004030E+02  0.25500000000E-02 0. -1.
    5000001    1    1    2    0    0  0.67375152685E+02  0.32519883472E+02  0.64026452974E+03  0.64920306689E+03  0.77000000000E+02 0.  0.
   -5000001    1    1    2    0    0 -0.67375152685E+02 -0.32519883472E+02  0.21282408660E+03  0.23836955732E+03  0.77000000000E+02 0.  0.
<mgrwt>
<rscale>  0 0.24499995E+03</rscale>
<asrwt>0</asrwt>
<pdfrwt beam="1">  1        2 0.12433297E+00 0.24499995E+03</pdfrwt>
<pdfrwt beam="2">  1       -2 0.24631429E-02 0.24499995E+03</pdfrwt>
<totfact> 0.19683821E+04</totfact>
</mgrwt>
</event>
<event>
 4    1  0.6919593E-004  0.1883488E+03  0.7818608E-02  0.1159959E+00
         -2   -1    0    0    0  501 -0.00000000000E+00  0.00000000000E+00  0.36115702431E+01  0.36115711433E+01  0.25500000000E-02 0. -1.
          2   -1    0    0  501    0  0.00000000000E+00 -0.00000000000E+00 -0.24556667202E+04  0.24556667202E+04  0.25500000000E-02 0.  1.
    5000001    1    1    2    0    0 -0.17041978867E+02 -0.33158940487E+02 -0.71199281739E+03  0.71711415855E+03  0.77000000000E+02 0.  0.
   -5000001    1    1    2    0    0  0.17041978867E+02  0.33158940487E+02 -0.17400623326E+04  0.17421641328E+04  0.77000000000E+02 0.  0.
<mgrwt>
<rscale>  0 0.18834876E+03</rscale>
<asrwt>0</asrwt>
<pdfrwt beam="1">  1        2 0.35080846E+00 0.18834876E+03</pdfrwt>
<pdfrwt beam="2">  1       -2 0.51594024E-03 0.18834876E+03</pdfrwt>
<totfact> 0.28864699E+04</totfact>
</mgrwt>
</event>
<event>
 4    1  0.6919593E-004  0.2342862E+03  0.7818608E-02  0.1123659E+00
          2   -1    0    0  501    0  0.00000000000E+00  0.00000000000E+00  0.95270157400E+03  0.95270157400E+03  0.25500000000E-02 0.  1.
         -2   -1    0    0    0  501 -0.00000000000E+00 -0.00000000000E+00 -0.14403778656E+02  0.14403778882E+02  0.25500000000E-02 0. -1.
    5000001    1    1    2    0    0 -0.32223026017E+02  0.81843214233E+02  0.50027749326E+03  0.51375403199E+03  0.77000000000E+02 0.  0.
   -5000001    1    1    2    0    0  0.32223026017E+02 -0.81843214233E+02  0.43802030208E+03  0.45335132089E+03  0.77000000000E+02 0.  0.
<mgrwt>
<rscale>  0 0.23428617E+03</rscale>
<asrwt>0</asrwt>
<pdfrwt beam="1">  1        2 0.13610026E+00 0.23428617E+03</pdfrwt>
<pdfrwt beam="2">  1       -2 0.20576821E-02 0.23428617E+03</pdfrwt>
<totfact> 0.22755876E+04</totfact>
</mgrwt>
</event>
<event>
 4    1  0.6919593E-004  0.2212728E+03  0.7818608E-02  0.1132938E+00
         -2   -1    0    0    0  501 -0.00000000000E+00  0.00000000000E+00  0.69947850101E+02  0.69947850147E+02  0.25500000000E-02 0. -1.
          2   -1    0    0  501    0  0.00000000000E+00 -0.00000000000E+00 -0.17499341389E+03  0.17499341391E+03  0.25500000000E-02 0.  1.
    5000001    1    1    2    0    0 -0.43745030826E+02 -0.55507987099E+02 -0.92689734637E+02  0.13969664012E+03  0.77000000000E+02 0.  0.
   -5000001    1    1    2    0    0  0.43745030826E+02  0.55507987099E+02 -0.12355829155E+02  0.10524462394E+03  0.77000000000E+02 0.  0.
<mgrwt>
<rscale>  0 0.22127280E+03</rscale>
<asrwt>0</asrwt>
<pdfrwt beam="1">  1        2 0.24999059E-01 0.22127280E+03</pdfrwt>
<pdfrwt beam="2">  1       -2 0.99925501E-02 0.22127280E+03</pdfrwt>
<totfact> 0.13917547E+04</totfact>
</mgrwt>
</event>
<event>
 4    1  0.6919593E-004  0.4349102E+03  0.7818608E-02  0.1032320E+00
         -2   -1    0    0    0  501 -0.00000000000E+00  0.00000000000E+00  0.11532427399E+03  0.11532427402E+03  0.25500000000E-02 0. -1.
          2   -1    0    0  501    0  0.00000000000E+00 -0.00000000000E+00 -0.41003259647E+03  0.41003259647E+03  0.25500000000E-02 0.  1.
    5000001    1    1    2    0    0  0.19659742169E+02  0.19829017324E+03 -0.19645488727E+03  0.29022236474E+03  0.77000000000E+02 0.  0.
   -5000001    1    1    2    0    0 -0.19659742169E+02 -0.19829017324E+03 -0.98253435205E+02  0.23513450575E+03  0.77000000000E+02 0.  0.
<mgrwt>
<rscale>  0 0.43491016E+03</rscale>
<asrwt>0</asrwt>
<pdfrwt beam="1">  1        2 0.58576085E-01 0.43491016E+03</pdfrwt>
<pdfrwt beam="2">  1       -2 0.16474896E-01 0.43491016E+03</pdfrwt>
<totfact> 0.24847515E+03</totfact>
</mgrwt>
</event>
<event>
 4    1  0.6919593E-004  0.3870619E+03  0.7818608E-02  0.1048354E+00
          2   -1    0    0  501    0  0.00000000000E+00  0.00000000000E+00  0.15437018863E+04  0.15437018863E+04  0.25500000000E-02 0.  1.
         -2   -1    0    0    0  501 -0.00000000000E+00 -0.00000000000E+00 -0.24262608671E+02  0.24262608805E+02  0.25500000000E-02 0. -1.
    5000001    1    1    2    0    0 -0.17268715514E+03  0.88922131576E+01  0.92303380218E+03  0.94224217958E+03  0.77000000000E+02 0.  0.
   -5000001    1    1    2    0    0  0.17268715514E+03 -0.88922131576E+01  0.59640547543E+03  0.62572231552E+03  0.77000000000E+02 0.  0.
<mgrwt>
<rscale>  0 0.38706193E+03</rscale>
<asrwt>0</asrwt>
<pdfrwt beam="1">  1        2 0.22052882E+00 0.38706193E+03</pdfrwt>
<pdfrwt beam="2">  1       -2 0.34660873E-02 0.38706193E+03</pdfrwt>
<totfact> 0.50743110E+03</totfact>
</mgrwt>
</event>
<event>
 4    1  0.6919593E-004  0.2008005E+03  0.7818608E-02  0.1149065E+00
          2   -1    0    0  501    0  0.00000000000E+00  0.00000000000E+00  0.82959402230E+03  0.82959402230E+03  0.25500000000E-02 0.  1.
         -2   -1    0    0    0  501 -0.00000000000E+00 -0.00000000000E+00 -0.12150778995E+02  0.12150779263E+02  0.25500000000E-02 0. -1.
    5000001    1    1    2    0    0 -0.57029901826E+01 -0.54493500812E+02  0.26661851877E+03  0.28287187962E+03  0.77000000000E+02 0.  0.
   -5000001    1    1    2    0    0  0.57029901826E+01  0.54493500812E+02  0.55082472453E+03  0.55887292194E+03  0.77000000000E+02 0.  0.
<mgrwt>
<rscale>  0 0.20080054E+03</rscale>
<asrwt>0</asrwt>
<pdfrwt beam="1">  1        2 0.11851341E+00 0.20080054E+03</pdfrwt>
<pdfrwt beam="2">  1       -2 0.17358259E-02 0.20080054E+03</pdfrwt>
<totfact> 0.34490303E+04</totfact>
</mgrwt>
</event>
<event>
 4    1  0.6919593E-004  0.4743058E+03  0.7818608E-02  0.1020712E+00
         -2   -1    0    0    0  501 -0.00000000000E+00  0.00000000000E+00  0.39103370424E+02  0.39103370507E+02  0.25500000000E-02 0. -1.
          2   -1    0    0  501    0  0.00000000000E+00 -0.00000000000E+00 -0.14382776495E+04  0.14382776495E+04  0.25500000000E-02 0.  1.
    5000001    1    1    2    0    0 -0.14720451114E+03 -0.14548466793E+03 -0.96893506508E+03  0.99378021567E+03  0.77000000000E+02 0.  0.
   -5000001    1    1    2    0    0  0.14720451114E+03  0.14548466793E+03 -0.43023921397E+03  0.48360080432E+03  0.77000000000E+02 0.  0.
<mgrwt>
<rscale>  0 0.47430582E+03</rscale>
<asrwt>0</asrwt>
<pdfrwt beam="1">  1        2 0.20546820E+00 0.47430582E+03</pdfrwt>
<pdfrwt beam="2">  1       -2 0.55861967E-02 0.47430582E+03</pdfrwt>
<totfact> 0.27703588E+03</totfact>
</mgrwt>
</event>
<event>
 4    1  0.6919593E-004  0.1833032E+03  0.7818608E-02  0.1164644E+00
         -2   -1    0    0    0  501 -0.00000000000E+00  0.00000000000E+00  0.52356405016E+01  0.52356411226E+01  0.25500000000E-02 0. -1.
          2   -1    0    0  501    0  0.00000000000E+00 -0.00000000000E+00 -0.16043914010E+04  0.16043914010E+04  0.25500000000E-02 0.  1.
    5000001    1    1    2    0    0 -0.43385419686E+02 -0.10549255217E+02 -0.60770543422E+03  0.61418928370E+03  0.77000000000E+02 0.  0.
   -5000001    1    1    2    0    0  0.43385419686E+02  0.10549255217E+02 -0.99145032625E+03  0.99543775840E+03  0.77000000000E+02 0.  0.
<mgrwt>
<rscale>  0 0.18330321E+03</rscale>
<asrwt>0</asrwt>
<pdfrwt beam="1">  1        2 0.22919846E+00 0.18330321E+03</pdfrwt>
<pdfrwt beam="2">  1       -2 0.74794971E-03 0.18330321E+03</pdfrwt>
<totfact> 0.43731212E+04</totfact>
</mgrwt>
</event>
<event>
 4    1  0.6919593E-004  0.1782450E+03  0.7818608E-02  0.1169512E+00
         -2   -1    0    0    0  501 -0.00000000000E+00  0.00000000000E+00  0.25970218454E+02  0.25970218580E+02  0.25500000000E-02 0. -1.
          2   -1    0    0  501    0  0.00000000000E+00 -0.00000000000E+00 -0.30584350145E+03  0.30584350146E+03  0.25500000000E-02 0.  1.
    5000001    1    1    2    0    0  0.43693623035E+02 -0.66693260539E+00 -0.12093003048E+03  0.14987544751E+03  0.77000000000E+02 0.  0.
   -5000001    1    1    2    0    0 -0.43693623035E+02  0.66693260539E+00 -0.15894325251E+03  0.18193827253E+03  0.77000000000E+02 0.  0.
<mgrwt>
<rscale>  0 0.17824503E+03</rscale>
<asrwt>0</asrwt>
<pdfrwt beam="1">  1        2 0.43691927E-01 0.17824503E+03</pdfrwt>
<pdfrwt beam="2">  1       -2 0.37100314E-02 0.17824503E+03</pdfrwt>
<totfact> 0.34009333E+04</totfact>
</mgrwt>
</event>
<event>
 4    1  0.6919593E-004  0.2782533E+03  0.7818608E-02  0.1096647E+00
          2   -1    0    0  501    0  0.00000000000E+00  0.00000000000E+00  0.59989594821E+02  0.59989594875E+02  0.25500000000E-02 0.  1.
         -2   -1    0    0    0  501 -0.00000000000E+00 -0.00000000000E+00 -0.32265979438E+03  0.32265979439E+03  0.25500000000E-02 0. -1.
    5000001    1    1    2    0    0 -0.18563683528E+02  0.89114420099E+02 -0.32731088603E+02  0.12363783554E+03  0.77000000000E+02 0.  0.
   -5000001    1    1    2    0    0  0.18563683528E+02 -0.89114420099E+02 -0.22993911095E+03  0.25901155372E+03  0.77000000000E+02 0.  0.
<mgrwt>
<rscale>  0 0.27825334E+03</rscale>
<asrwt>0</asrwt>
<pdfrwt beam="1">  1        2 0.85699423E-02 0.27825334E+03</pdfrwt>
<pdfrwt beam="2">  1       -2 0.46094256E-01 0.27825334E+03</pdfrwt>
<totfact> 0.35051044E+03</totfact>
</mgrwt>
</event>
<event>
 4    1  0.6919593E-004  0.1765871E+03  0.7818608E-02  0.1171148E+00
         -2   -1    0    0    0  501 -0.00000000000E+00  0.00000000000E+00  0.71981323476E+01  0.71981327993E+01  0.25500000000E-02 0. -1.
          2   -1    0    0  501    0  0.00000000000E+00 -0.00000000000E+00 -0.10830243414E+04  0.10830243414E+04  0.25500000000E-02 0.  1.
    5000001    1    1    2    0    0 -0.34323579758E+02  0.20125268736E+02 -0.64188672626E+03  0.64771189885E+03  0.77000000000E+02 0.  0.
   -5000001    1    1    2    0    0  0.34323579758E+02 -0.20125268736E+02 -0.43393948283E+03  0.44251057539E+03  0.77000000000E+02 0.  0.
<mgrwt>
<rscale>  0 0.17658712E+03</rscale>
<asrwt>0</asrwt>
<pdfrwt beam="1">  1        2 0.15471766E+00 0.17658712E+03</pdfrwt>
<pdfrwt beam="2">  1       -2 0.10283053E-02 0.17658712E+03</pdfrwt>
<totfact> 0.51342048E+04</totfact>
</mgrwt>
</event>
<event>
 4    1  0.6919593E-004  0.2699088E+03  0.7818608E-02  0.1101332E+00
         -2   -1    0    0    0  501 -0.00000000000E+00  0.00000000000E+00  0.16413021131E+02  0.16413021330E+02  0.25500000000E-02 0. -1.
          2   -1    0    0  501    0  0.00000000000E+00 -0.00000000000E+00 -0.11096485465E+04  0.11096485465E+04  0.25500000000E-02 0.  1.
    5000001    1    1    2    0    0 -0.70009561997E+02  0.85907308535E+02 -0.55291835844E+03  0.56914770976E+03  0.77000000000E+02 0.  0.
   -5000001    1    1    2    0    0  0.70009561997E+02 -0.85907308535E+02 -0.54031716695E+03  0.55691385809E+03  0.77000000000E+02 0.  0.
<mgrwt>
<rscale>  0 0.26990876E+03</rscale>
<asrwt>0</asrwt>
<pdfrwt beam="1">  1        2 0.15852117E+00 0.26990876E+03</pdfrwt>
<pdfrwt beam="2">  1       -2 0.23447180E-02 0.26990876E+03</pdfrwt>
<totfact> 0.15325622E+04</totfact>
</mgrwt>
</event>
<event>
 4    1  0.6919593E-004  0.1895145E+03  0.7818608E-02  0.1158900E+00
         -2   -1    0    0    0  501 -0.00000000000E+00  0.00000000000E+00  0.38181886859E+01  0.38181895374E+01  0.25500000000E-02 0. -1.
          2   -1    0    0  501    0  0.00000000000E+00 -0.00000000000E+00 -0.23516206868E+04  0.23516206868E+04  0.25500000000E-02 0.  1.
    5000001    1    1    2    0    0  0.30817453103E+02 -0.42841424438E+02 -0.13761624685E+04  0.13793249228E+04  0.77000000000E+02 0.  0.
   -5000001    1    1    2    0    0 -0.30817453103E+02  0.42841424438E+02 -0.97164002965E+03  0.97611395353E+03  0.77000000000E+02 0.  0.
<mgrwt>
<rscale>  0 0.18951446E+03</rscale>
<asrwt>0</asrwt>
<pdfrwt beam="1">  1        2 0.33594489E+00 0.18951446E+03</pdfrwt>
<pdfrwt beam="2">  1       -2 0.54545709E-03 0.18951446E+03</pdfrwt>
<totfact> 0.29978742E+04</totfact>
</mgrwt>
</event>
<event>
 4    1  0.6919593E-004  0.2468497E+03  0.7818608E-02  0.1115312E+00
         -2   -1    0    0    0  501 -0.00000000000E+00  0.00000000000E+00  0.57287203519E+01  0.57287209195E+01  0.25500000000E-02 0. -1.
          2   -1    0    0  501    0  0.00000000000E+00 -0.00000000000E+00 -0.26591799858E+04  0.26591799858E+04  0.25500000000E-02 0.  1.
    5000001    1    1    2    0    0  0.92005549396E+02  0.28958919466E+02 -0.13378358703E+04  0.13435168239E+04  0.77000000000E+02 0.  0.
   -5000001    1    1    2    0    0 -0.92005549396E+02 -0.28958919466E+02 -0.13156153951E+04  0.13213918828E+04  0.77000000000E+02 0.  0.
<mgrwt>
<rscale>  0 0.24684975E+03</rscale>
<asrwt>0</asrwt>
<pdfrwt beam="1">  1        2 0.37988206E+00 0.24684975E+03</pdfrwt>
<pdfrwt beam="2">  1       -2 0.81839037E-03 0.24684975E+03</pdfrwt>
<totfact> 0.11875076E+04</totfact>
</mgrwt>
</event>
<event>
 4    1  0.6919593E-004  0.1728464E+03  0.7818608E-02  0.1174912E+00
          2   -1    0    0  501    0  0.00000000000E+00  0.00000000000E+00  0.24566129287E+03  0.24566129288E+03  0.25500000000E-02 0.  1.
         -2   -1    0    0    0  501 -0.00000000000E+00 -0.00000000000E+00 -0.30403526280E+02  0.30403526387E+02  0.25500000000E-02 0. -1.
    5000001    1    1    2    0    0  0.81275531016E+01  0.38329672077E+02  0.11110935831E+03  0.14074626242E+03  0.77000000000E+02 0.  0.
   -5000001    1    1    2    0    0 -0.81275531016E+01 -0.38329672077E+02  0.10414840828E+03  0.13531855685E+03  0.77000000000E+02 0.  0.
<mgrwt>
<rscale>  0 0.17284640E+03</rscale>
<asrwt>0</asrwt>
<pdfrwt beam="1">  1        2 0.35094471E-01 0.17284640E+03</pdfrwt>
<pdfrwt beam="2">  1       -2 0.43433608E-02 0.17284640E+03</pdfrwt>
<totfact> 0.33886263E+04</totfact>
</mgrwt>
</event>
<event>
 4    1  0.6919593E-004  0.2645176E+03  0.7818608E-02  0.1104459E+00
         -2   -1    0    0    0  501 -0.00000000000E+00  0.00000000000E+00  0.66883708919E+02  0.66883708968E+02  0.25500000000E-02 0. -1.
          2   -1    0    0  501    0  0.00000000000E+00 -0.00000000000E+00 -0.26153441209E+03  0.26153441211E+03  0.25500000000E-02 0.  1.
    5000001    1    1    2    0    0  0.10471008638E+03  0.14228694287E+02 -0.72595472261E+02  0.14955186566E+03  0.77000000000E+02 0.  0.
   -5000001    1    1    2    0    0 -0.10471008638E+03 -0.14228694287E+02 -0.12205523091E+03  0.17886625541E+03  0.77000000000E+02 0.  0.
<mgrwt>
<rscale>  0 0.26451761E+03</rscale>
<asrwt>0</asrwt>
<pdfrwt beam="1">  1        2 0.37362058E-01 0.26451761E+03</pdfrwt>
<pdfrwt beam="2">  1       -2 0.95548157E-02 0.26451761E+03</pdfrwt>
<totfact> 0.97170971E+03</totfact>
</mgrwt>
</event>
<event>
 4    1  0.6919593E-004  0.2233810E+03  0.7818608E-02  0.1131387E+00
          2   -1    0    0  501    0  0.00000000000E+00  0.00000000000E+00  0.26302178396E+03  0.26302178397E+03  0.25500000000E-02 0.  1.
         -2   -1    0    0    0  501 -0.00000000000E+00 -0.00000000000E+00 -0.47428645500E+02  0.47428645568E+02  0.25500000000E-02 0. -1.
    5000001    1    1    2    0    0  0.69273372283E+02 -0.18504000501E+02  0.55710982537E+02  0.11905423855E+03  0.77000000000E+02 0.  0.
   -5000001    1    1    2    0    0 -0.69273372283E+02  0.18504000501E+02  0.15988215592E+03  0.19139619099E+03  0.77000000000E+02 0.  0.
<mgrwt>
<rscale>  0 0.22338099E+03</rscale>
<asrwt>0</asrwt>
<pdfrwt beam="1">  1        2 0.37574541E-01 0.22338099E+03</pdfrwt>
<pdfrwt beam="2">  1       -2 0.67755207E-02 0.22338099E+03</pdfrwt>
<totfact> 0.16360136E+04</totfact>
</mgrwt>
</event>
<event>
 4    1  0.6919593E-004  0.4384654E+03  0.7818608E-02  0.1031219E+00
          2   -1    0    0  501    0  0.00000000000E+00  0.00000000000E+00  0.37272140942E+03  0.37272140943E+03  0.25500000000E-02 0. -1.
         -2   -1    0    0    0  501 -0.00000000000E+00 -0.00000000000E+00 -0.12895145773E+03  0.12895145775E+03  0.25500000000E-02 0.  1.
    5000001    1    1    2    0    0 -0.16353430748E+03  0.12149205383E+03  0.15060717578E+03  0.26479295735E+03  0.77000000000E+02 0.  0.
   -5000001    1    1    2    0    0  0.16353430748E+03 -0.12149205383E+03  0.93162775911E+02  0.23687990983E+03  0.77000000000E+02 0.  0.
<mgrwt>
<rscale>  0 0.43846537E+03</rscale>
<asrwt>0</asrwt>
<pdfrwt beam="1">  1        2 0.53245915E-01 0.43846537E+03</pdfrwt>
<pdfrwt beam="2">  1       -2 0.18421637E-01 0.43846537E+03</pdfrwt>
<totfact> 0.22826655E+03</totfact>
</mgrwt>
</event>
<event>
 4    1  0.6919593E-004  0.1713984E+03  0.7818608E-02  0.1176397E+00
          2   -1    0    0  501    0  0.00000000000E+00  0.00000000000E+00  0.25803322364E+04  0.25803322364E+04  0.25500000000E-02 0.  1.
         -2   -1    0    0    0  501 -0.00000000000E+00 -0.00000000000E+00 -0.28462822321E+01  0.28462833744E+01  0.25500000000E-02 0. -1.
    5000001    1    1    2    0    0 -0.12840750815E+02 -0.31661898207E+02  0.15260817508E+04  0.15284050087E+04  0.77000000000E+02 0.  0.
   -5000001    1    1    2    0    0  0.12840750815E+02  0.31661898207E+02  0.10514042034E+04  0.10547735110E+04  0.77000000000E+02 0.  0.
<mgrwt>
<rscale>  0 0.17139843E+03</rscale>
<asrwt>0</asrwt>
<pdfrwt beam="1">  1        2 0.36861862E+00 0.17139843E+03</pdfrwt>
<pdfrwt beam="2">  1       -2 0.40661213E-03 0.17139843E+03</pdfrwt>
<totfact> 0.35023729E+04</totfact>
</mgrwt>
</event>
<event>
 4    1  0.6919593E-004  0.2467512E+03  0.7818608E-02  0.1115375E+00
          2   -1    0    0  501    0  0.00000000000E+00  0.00000000000E+00  0.11537855327E+03  0.11537855330E+03  0.25500000000E-02 0.  1.
         -2   -1    0    0    0  501 -0.00000000000E+00 -0.00000000000E+00 -0.13192691886E+03  0.13192691889E+03  0.25500000000E-02 0. -1.
    5000001    1    1    2    0    0  0.90217046300E+02  0.24882715733E+02  0.14892065480E+02  0.12210257409E+03  0.77000000000E+02 0.  0.
   -5000001    1    1    2    0    0 -0.90217046300E+02 -0.24882715733E+02 -0.31440431074E+02  0.12520289810E+03  0.77000000000E+02 0.  0.
<mgrwt>
<rscale>  0 0.24675119E+03</rscale>
<asrwt>0</asrwt>
<pdfrwt beam="1">  1        2 0.16482651E-01 0.24675119E+03</pdfrwt>
<pdfrwt beam="2">  1       -2 0.18846703E-01 0.24675119E+03</pdfrwt>
<totfact> 0.79821981E+03</totfact>
</mgrwt>
</event>
<event>
 4    1  0.6919593E-004  0.2390841E+03  0.7818608E-02  0.1120404E+00
         -2   -1    0    0    0  501 -0.00000000000E+00  0.00000000000E+00  0.34606274547E+03  0.34606274548E+03  0.25500000000E-02 0. -1.
          2   -1    0    0  501    0  0.00000000000E+00 -0.00000000000E+00 -0.41293947893E+02  0.41293947971E+02  0.25500000000E-02 0.  1.
    5000001    1    1    2    0    0  0.86091449859E+01 -0.45576101054E+02  0.28005949507E+03  0.29413197573E+03  0.77000000000E+02 0.  0.
   -5000001    1    1    2    0    0 -0.86091449859E+01  0.45576101054E+02  0.24709302507E+02  0.93224717726E+02  0.77000000000E+02 0.  0.
<mgrwt>
<rscale>  0 0.23908406E+03</rscale>
<asrwt>0</asrwt>
<pdfrwt beam="1">  1        2 0.58991353E-02 0.23908406E+03</pdfrwt>
<pdfrwt beam="2">  1       -2 0.49437536E-01 0.23908406E+03</pdfrwt>
<totfact> 0.48997943E+03</totfact>
</mgrwt>
</event>
<event>
 4    1  0.6919593E-004  0.2231547E+03  0.7818608E-02  0.1131553E+00
          2   -1    0    0  501    0  0.00000000000E+00  0.00000000000E+00  0.65960509814E+02  0.65960509863E+02  0.25500000000E-02 0.  1.
         -2   -1    0    0    0  501 -0.00000000000E+00 -0.00000000000E+00 -0.18874181921E+03  0.18874181923E+03  0.25500000000E-02 0. -1.
    5000001    1    1    2    0    0  0.49244986026E+02  0.63785962187E+02 -0.55483135369E+02  0.12450339727E+03  0.77000000000E+02 0.  0.
   -5000001    1    1    2    0    0 -0.49244986026E+02 -0.63785962187E+02 -0.67298174029E+02  0.13019893183E+03  0.77000000000E+02 0.  0.
<mgrwt>
<rscale>  0 0.22315471E+03</rscale>
<asrwt>0</asrwt>
<pdfrwt beam="1">  1        2 0.94229301E-02 0.22315471E+03</pdfrwt>
<pdfrwt beam="2">  1       -2 0.26963117E-01 0.22315471E+03</pdfrwt>
<totfact> 0.83827537E+03</totfact>
</mgrwt>
</event>
<event>
 4    1  0.6919593E-004  0.2607166E+03  0.7818608E-02  0.1106713E+00
          2   -1    0    0  501    0  0.00000000000E+00  0.00000000000E+00  0.13742518802E+03  0.13742518804E+03  0.25500000000E-02 0.  1.
         -2   -1    0    0    0  501 -0.00000000000E+00 -0.00000000000E+00 -0.12365482917E+03  0.12365482919E+03  0.25500000000E-02 0. -1.
    5000001    1    1    2    0    0 -0.85683772151E+02  0.60451984259E+02 -0.13808367469E+01  0.13010402731E+03  0.77000000000E+02 0.  0.
   -5000001    1    1    2    0    0  0.85683772151E+02 -0.60451984259E+02  0.15151195598E+02  0.13097598993E+03  0.77000000000E+02 0.  0.
<mgrwt>
<rscale>  0 0.26071661E+03</rscale>
<asrwt>0</asrwt>
<pdfrwt beam="1">  1        2 0.19632170E-01 0.26071661E+03</pdfrwt>
<pdfrwt beam="2">  1       -2 0.17664976E-01 0.26071661E+03</pdfrwt>
<totfact> 0.72900154E+03</totfact>
</mgrwt>
</event>
<event>
 4    1  0.6919593E-004  0.1651715E+03  0.7818608E-02  0.1182979E+00
          2   -1    0    0  501    0  0.00000000000E+00  0.00000000000E+00  0.56528719280E+03  0.56528719281E+03  0.25500000000E-02 0.  1.
         -2   -1    0    0    0  501 -0.00000000000E+00 -0.00000000000E+00 -0.12065383996E+02  0.12065384265E+02  0.25500000000E-02 0. -1.
    5000001    1    1    2    0    0 -0.13023659884E+01  0.23526939042E+02  0.21251931913E+03  0.22726344630E+03  0.77000000000E+02 0.  0.
   -5000001    1    1    2    0    0  0.13023659884E+01 -0.23526939042E+02  0.34070248967E+03  0.35008913077E+03  0.77000000000E+02 0.  0.
<mgrwt>
<rscale>  0 0.16517151E+03</rscale>
<asrwt>0</asrwt>
<pdfrwt beam="1">  1        2 0.80755345E-01 0.16517151E+03</pdfrwt>
<pdfrwt beam="2">  1       -2 0.17236256E-02 0.16517151E+03</pdfrwt>
<totfact> 0.53648834E+04</totfact>
</mgrwt>
</event>
<event>
 4    1  0.6919593E-004  0.2043090E+03  0.7818608E-02  0.1146154E+00
          2   -1    0    0  501    0  0.00000000000E+00  0.00000000000E+00  0.34651212390E+03  0.34651212391E+03  0.25500000000E-02 0.  1.
         -2   -1    0    0    0  501 -0.00000000000E+00 -0.00000000000E+00 -0.30115937314E+02  0.30115937422E+02  0.25500000000E-02 0. -1.
    5000001    1    1    2    0    0 -0.46918591682E+02 -0.47738670586E+02  0.16763428403E+03  0.19624114782E+03  0.77000000000E+02 0.  0.
   -5000001    1    1    2    0    0  0.46918591682E+02  0.47738670586E+02  0.14876190255E+03  0.18038691351E+03  0.77000000000E+02 0.  0.
<mgrwt>
<rscale>  0 0.20430896E+03</rscale>
<asrwt>0</asrwt>
<pdfrwt beam="1">  1        2 0.49501730E-01 0.20430896E+03</pdfrwt>
<pdfrwt beam="2">  1       -2 0.43022769E-02 0.20430896E+03</pdfrwt>
<totfact> 0.24128448E+04</totfact>
</mgrwt>
</event>
<event>
 4    1  0.6919593E-004  0.1629700E+03  0.7818608E-02  0.1185384E+00
          2   -1    0    0  501    0  0.00000000000E+00  0.00000000000E+00  0.16674087238E+03  0.16674087240E+03  0.25500000000E-02 0.  1.
         -2   -1    0    0    0  501 -0.00000000000E+00 -0.00000000000E+00 -0.39821089548E+02  0.39821089630E+02  0.25500000000E-02 0. -1.
    5000001    1    1    2    0    0 -0.21281290251E+02  0.68943466650E+00  0.83796390742E+02  0.11577652498E+03  0.77000000000E+02 0.  0.
   -5000001    1    1    2    0    0  0.21281290251E+02 -0.68943466650E+00  0.43123392090E+02  0.90785437049E+02  0.77000000000E+02 0.  0.
<mgrwt>
<rscale>  0 0.16296998E+03</rscale>
<asrwt>0</asrwt>
<pdfrwt beam="1">  1        2 0.23820125E-01 0.16296998E+03</pdfrwt>
<pdfrwt beam="2">  1       -2 0.56887270E-02 0.16296998E+03</pdfrwt>
<totfact> 0.34263622E+04</totfact>
</mgrwt>
</event>
<event>
 4    1  0.6919593E-004  0.1852251E+03  0.7818608E-02  0.1162840E+00
         -2   -1    0    0    0  501 -0.00000000000E+00  0.00000000000E+00  0.42226215606E+01  0.42226223305E+01  0.25500000000E-02 0. -1.
          2   -1    0    0  501    0  0.00000000000E+00 -0.00000000000E+00 -0.20312231857E+04  0.20312231857E+04  0.25500000000E-02 0.  1.
    5000001    1    1    2    0    0 -0.93373729329E+01 -0.23665804431E+01 -0.15689958577E+04  0.15709136796E+04  0.77000000000E+02 0.  0.
   -5000001    1    1    2    0    0  0.93373729329E+01  0.23665804431E+01 -0.45800470643E+03  0.46453212844E+03  0.77000000000E+02 0.  0.
<mgrwt>
<rscale>  0 0.18522513E+03</rscale>
<asrwt>0</asrwt>
<pdfrwt beam="1">  1        2 0.29017412E+00 0.18522513E+03</pdfrwt>
<pdfrwt beam="2">  1       -2 0.60323301E-03 0.18522513E+03</pdfrwt>
<totfact> 0.37025488E+04</totfact>
</mgrwt>
</event>
<event>
 4    1  0.6919593E-004  0.2649106E+03  0.7818608E-02  0.1104228E+00
          2   -1    0    0  501    0  0.00000000000E+00  0.00000000000E+00  0.47979228179E+02  0.47979228247E+02  0.25500000000E-02 0.  1.
         -2   -1    0    0    0  501 -0.00000000000E+00 -0.00000000000E+00 -0.36566661121E+03  0.36566661122E+03  0.25500000000E-02 0. -1.
    5000001    1    1    2    0    0  0.81893802034E+01 -0.94686747449E+02 -0.23819809785E+03  0.26776851926E+03  0.77000000000E+02 0.  0.
   -5000001    1    1    2    0    0 -0.81893802034E+01  0.94686747449E+02 -0.79489285188E+02  0.14587732021E+03  0.77000000000E+02 0.  0.
<mgrwt>
<rscale>  0 0.26491056E+03</rscale>
<asrwt>0</asrwt>
<pdfrwt beam="1">  1        2 0.68541756E-02 0.26491056E+03</pdfrwt>
<pdfrwt beam="2">  1       -2 0.52238086E-01 0.26491056E+03</pdfrwt>
<totfact> 0.36287982E+03</totfact>
</mgrwt>
</event>
<event>
 4    1  0.6919593E-004  0.2194011E+03  0.7818608E-02  0.1134330E+00
         -2   -1    0    0    0  501 -0.00000000000E+00  0.00000000000E+00  0.43323985450E+03  0.43323985451E+03  0.25500000000E-02 0. -1.
          2   -1    0    0  501    0  0.00000000000E+00 -0.00000000000E+00 -0.27777242388E+02  0.27777242505E+02  0.25500000000E-02 0.  1.
    5000001    1    1    2    0    0 -0.70635648800E+02 -0.42236434787E+01  0.13310483493E+03  0.16927235784E+03  0.77000000000E+02 0.  0.
   -5000001    1    1    2    0    0  0.70635648800E+02  0.42236434787E+01  0.27235777718E+03  0.29174473917E+03  0.77000000000E+02 0.  0.
<mgrwt>
<rscale>  0 0.21940108E+03</rscale>
<asrwt>0</asrwt>
<pdfrwt beam="1">  1        2 0.39681774E-02 0.21940108E+03</pdfrwt>
<pdfrwt beam="2">  1       -2 0.61891410E-01 0.21940108E+03</pdfrwt>
<totfact> 0.52154204E+03</totfact>
</mgrwt>
</event>
<event>
 4    1  0.6919593E-004  0.2033264E+03  0.7818608E-02  0.1146962E+00
         -2   -1    0    0    0  501 -0.00000000000E+00  0.00000000000E+00  0.76880727202E+02  0.76880727244E+02  0.25500000000E-02 0. -1.
          2   -1    0    0  501    0  0.00000000000E+00 -0.00000000000E+00 -0.13443435682E+03  0.13443435684E+03  0.25500000000E-02 0.  1.
    5000001    1    1    2    0    0  0.64957056492E+02  0.13458351848E+02 -0.31293676923E+02  0.10634303286E+03  0.77000000000E+02 0.  0.
   -5000001    1    1    2    0    0 -0.64957056492E+02 -0.13458351848E+02 -0.26259952691E+02  0.10497205122E+03  0.77000000000E+02 0.  0.
<mgrwt>
<rscale>  0 0.20332645E+03</rscale>
<asrwt>0</asrwt>
<pdfrwt beam="1">  1        2 0.19204908E-01 0.20332645E+03</pdfrwt>
<pdfrwt beam="2">  1       -2 0.10982961E-01 0.20332645E+03</pdfrwt>
<totfact> 0.16034883E+04</totfact>
</mgrwt>
</event>
<event>
 4    1  0.6919593E-004  0.2773805E+03  0.7818608E-02  0.1097128E+00
         -2   -1    0    0    0  501 -0.00000000000E+00  0.00000000000E+00  0.43406580614E+03  0.43406580614E+03  0.25500000000E-02 0. -1.
          2   -1    0    0  501    0  0.00000000000E+00 -0.00000000000E+00 -0.44313539149E+02  0.44313539223E+02  0.25500000000E-02 0.  1.
    5000001    1    1    2    0    0  0.78485230286E+02  0.37478394877E+02  0.32555533743E+03  0.34565855867E+03  0.77000000000E+02 0.  0.
   -5000001    1    1    2    0    0 -0.78485230286E+02 -0.37478394877E+02  0.64196929556E+02  0.13272078669E+03  0.77000000000E+02 0.  0.
<mgrwt>
<rscale>  0 0.27738055E+03</rscale>
<asrwt>0</asrwt>
<pdfrwt beam="1">  1        2 0.63305054E-02 0.27738055E+03</pdfrwt>
<pdfrwt beam="2">  1       -2 0.62009402E-01 0.27738055E+03</pdfrwt>
<totfact> 0.28351302E+03</totfact>
</mgrwt>
</event>
<event>
 4    1  0.6919593E-004  0.1856060E+03  0.7818608E-02  0.1162485E+00
         -2   -1    0    0    0  501 -0.00000000000E+00  0.00000000000E+00  0.24917569531E+02  0.24917569662E+02  0.25500000000E-02 0. -1.
          2   -1    0    0  501    0  0.00000000000E+00 -0.00000000000E+00 -0.34563550582E+03  0.34563550583E+03  0.25500000000E-02 0.  1.
    5000001    1    1    2    0    0  0.39122073434E+02  0.32285712474E+02 -0.13937316343E+03  0.16711308310E+03  0.77000000000E+02 0.  0.
   -5000001    1    1    2    0    0 -0.39122073434E+02 -0.32285712474E+02 -0.18134477286E+03  0.20343999239E+03  0.77000000000E+02 0.  0.
<mgrwt>
<rscale>  0 0.18560600E+03</rscale>
<asrwt>0</asrwt>
<pdfrwt beam="1">  1        2 0.49376498E-01 0.18560600E+03</pdfrwt>
<pdfrwt beam="2">  1       -2 0.35596530E-02 0.18560600E+03</pdfrwt>
<totfact> 0.31861411E+04</totfact>
</mgrwt>
</event>
<event>
 4    1  0.6919593E-004  0.1902820E+03  0.7818608E-02  0.1158207E+00
         -2   -1    0    0    0  501 -0.00000000000E+00  0.00000000000E+00  0.78485773371E+01  0.78485777514E+01  0.25500000000E-02 0. -1.
          2   -1    0    0  501    0  0.00000000000E+00 -0.00000000000E+00 -0.11533058213E+04  0.11533058213E+04  0.25500000000E-02 0.  1.
    5000001    1    1    2    0    0 -0.10137872251E+02  0.49948000853E+02 -0.71258021067E+03  0.71853819375E+03  0.77000000000E+02 0.  0.
   -5000001    1    1    2    0    0  0.10137872251E+02 -0.49948000853E+02 -0.43287703329E+03  0.44261620530E+03  0.77000000000E+02 0.  0.
<mgrwt>
<rscale>  0 0.19028200E+03</rscale>
<asrwt>0</asrwt>
<pdfrwt beam="1">  1        2 0.16475787E+00 0.19028200E+03</pdfrwt>
<pdfrwt beam="2">  1       -2 0.11212261E-02 0.19028200E+03</pdfrwt>
<totfact> 0.41703836E+04</totfact>
</mgrwt>
</event>
<event>
 4    1  0.6919593E-004  0.2381820E+03  0.7818608E-02  0.1121010E+00
         -2   -1    0    0    0  501 -0.00000000000E+00  0.00000000000E+00  0.75027514963E+02  0.75027515006E+02  0.25500000000E-02 0. -1.
          2   -1    0    0  501    0  0.00000000000E+00 -0.00000000000E+00 -0.18903286031E+03  0.18903286033E+03  0.25500000000E-02 0.  1.
    5000001    1    1    2    0    0 -0.53303697145E+02  0.46299274584E+02  0.63822178636E+01  0.10466441449E+03  0.77000000000E+02 0.  0.
   -5000001    1    1    2    0    0  0.53303697145E+02 -0.46299274584E+02 -0.12038756321E+03  0.15939596084E+03  0.77000000000E+02 0.  0.
<mgrwt>
<rscale>  0 0.23818200E+03</rscale>
<asrwt>0</asrwt>
<pdfrwt beam="1">  1        2 0.27004694E-01 0.23818200E+03</pdfrwt>
<pdfrwt beam="2">  1       -2 0.10718217E-01 0.23818200E+03</pdfrwt>
<totfact> 0.11478814E+04</totfact>
</mgrwt>
</event>
<event>
 4    1  0.6919593E-004  0.2674375E+03  0.7818608E-02  0.1102755E+00
         -2   -1    0    0    0  501 -0.00000000000E+00  0.00000000000E+00  0.70128185491E+02  0.70128185538E+02  0.25500000000E-02 0. -1.
          2   -1    0    0  501    0  0.00000000000E+00 -0.00000000000E+00 -0.25497179089E+03  0.25497179090E+03  0.25500000000E-02 0.  1.
    5000001    1    1    2    0    0 -0.10482521625E+03  0.91349080703E+01 -0.56362256876E+02  0.14204744457E+03  0.77000000000E+02 0.  0.
   -5000001    1    1    2    0    0  0.10482521625E+03 -0.91349080703E+01 -0.12848134852E+03  0.18305253188E+03  0.77000000000E+02 0.  0.
<mgrwt>
<rscale>  0 0.26743754E+03</rscale>
<asrwt>0</asrwt>
<pdfrwt beam="1">  1        2 0.36424541E-01 0.26743754E+03</pdfrwt>
<pdfrwt beam="2">  1       -2 0.10018312E-01 0.26743754E+03</pdfrwt>
<totfact> 0.92699272E+03</totfact>
</mgrwt>
</event>
<event>
 4    1  0.6919593E-004  0.2224142E+03  0.7818608E-02  0.1132096E+00
          2   -1    0    0  501    0  0.00000000000E+00  0.00000000000E+00  0.10411110837E+04  0.10411110837E+04  0.25500000000E-02 0.  1.
         -2   -1    0    0    0  501 -0.00000000000E+00 -0.00000000000E+00 -0.11878670014E+02  0.11878670288E+02  0.25500000000E-02 0. -1.
    5000001    1    1    2    0    0  0.30555692644E+02  0.43008710008E+02  0.22840768611E+03  0.24674373460E+03  0.77000000000E+02 0.  0.
   -5000001    1    1    2    0    0 -0.30555692644E+02 -0.43008710008E+02  0.80082472753E+03  0.80624601934E+03  0.77000000000E+02 0.  0.
<mgrwt>
<rscale>  0 0.22241416E+03</rscale>
<asrwt>0</asrwt>
<pdfrwt beam="1">  1        2 0.14873014E+00 0.22241416E+03</pdfrwt>
<pdfrwt beam="2">  1       -2 0.16969530E-02 0.22241416E+03</pdfrwt>
<totfact> 0.26686911E+04</totfact>
</mgrwt>
</event>
<event>
 4    1  0.6919593E-004  0.2119520E+03  0.7818608E-02  0.1140030E+00
         -2   -1    0    0    0  501 -0.00000000000E+00  0.00000000000E+00  0.48428954023E+01  0.48428960736E+01  0.25500000000E-02 0. -1.
          2   -1    0    0  501    0  0.00000000000E+00 -0.00000000000E+00 -0.23190479542E+04  0.23190479542E+04  0.25500000000E-02 0.  1.
    5000001    1    1    2    0    0 -0.51710778870E+02 -0.67264112606E+01 -0.59990167643E+03  0.60706694082E+03  0.77000000000E+02 0.  0.
   -5000001    1    1    2    0    0  0.51710778870E+02  0.67264112606E+01 -0.17143033824E+04  0.17168239095E+04  0.77000000000E+02 0.  0.
<mgrwt>
<rscale>  0 0.21195195E+03</rscale>
<asrwt>0</asrwt>
<pdfrwt beam="1">  1        2 0.33129185E+00 0.21195195E+03</pdfrwt>
<pdfrwt beam="2">  1       -2 0.69184374E-03 0.21195195E+03</pdfrwt>
<totfact> 0.22222136E+04</totfact>
</mgrwt>
</event>
<event>
 4    1  0.6919593E-004  0.2142221E+03  0.7818608E-02  0.1138265E+00
          2   -1    0    0  501    0  0.00000000000E+00  0.00000000000E+00  0.50941283359E+03  0.50941283360E+03  0.25500000000E-02 0.  1.
         -2   -1    0    0    0  501 -0.00000000000E+00 -0.00000000000E+00 -0.22521573113E+02  0.22521573257E+02  0.25500000000E-02 0. -1.
    5000001    1    1    2    0    0  0.70022372221E+02  0.24050049718E+02  0.26303550966E+03  0.28389825087E+03  0.77000000000E+02 0.  0.
   -5000001    1    1    2    0    0 -0.70022372221E+02 -0.24050049718E+02  0.22385575082E+03  0.24803615599E+03  0.77000000000E+02 0.  0.
<mgrwt>
<rscale>  0 0.21422211E+03</rscale>
<asrwt>0</asrwt>
<pdfrwt beam="1">  1        2 0.72773255E-01 0.21422211E+03</pdfrwt>
<pdfrwt beam="2">  1       -2 0.32173679E-02 0.21422211E+03</pdfrwt>
<totfact> 0.24631920E+04</totfact>
</mgrwt>
</event>
<event>
 4    1  0.6919593E-004  0.1853200E+03  0.7818608E-02  0.1162751E+00
         -2   -1    0    0    0  501 -0.00000000000E+00  0.00000000000E+00  0.17633628979E+02  0.17633629164E+02  0.25500000000E-02 0. -1.
          2   -1    0    0  501    0  0.00000000000E+00 -0.00000000000E+00 -0.48690372079E+03  0.48690372079E+03  0.25500000000E-02 0.  1.
    5000001    1    1    2    0    0 -0.92145125789E+01 -0.48526466658E+02 -0.27475452139E+03  0.28958379139E+03  0.77000000000E+02 0.  0.
   -5000001    1    1    2    0    0  0.92145125789E+01  0.48526466658E+02 -0.19451557042E+03  0.21495355857E+03  0.77000000000E+02 0.  0.
<mgrwt>
<rscale>  0 0.18532004E+03</rscale>
<asrwt>0</asrwt>
<pdfrwt beam="1">  1        2 0.69557666E-01 0.18532004E+03</pdfrwt>
<pdfrwt beam="2">  1       -2 0.25190902E-02 0.18532004E+03</pdfrwt>
<totfact> 0.36730599E+04</totfact>
</mgrwt>
</event>
<event>
 4    1  0.6919593E-004  0.3428923E+03  0.7818608E-02  0.1065571E+00
          2   -1    0    0  501    0  0.00000000000E+00  0.00000000000E+00  0.17688047953E+03  0.17688047954E+03  0.25500000000E-02 0.  1.
         -2   -1    0    0    0  501 -0.00000000000E+00 -0.00000000000E+00 -0.16617877777E+03  0.16617877779E+03  0.25500000000E-02 0. -1.
    5000001    1    1    2    0    0  0.81314979468E+02  0.12971115514E+03  0.87847224228E-01  0.17136544976E+03  0.77000000000E+02 0.  0.
   -5000001    1    1    2    0    0 -0.81314979468E+02 -0.12971115514E+03  0.10613854529E+02  0.17169380758E+03  0.77000000000E+02 0.  0.
<mgrwt>
<rscale>  0 0.34289230E+03</rscale>
<asrwt>0</asrwt>
<pdfrwt beam="1">  1        2 0.25268640E-01 0.34289230E+03</pdfrwt>
<pdfrwt beam="2">  1       -2 0.23739825E-01 0.34289230E+03</pdfrwt>
<totfact> 0.33231915E+03</totfact>
</mgrwt>
</event>
<event>
 4    1  0.6919593E-004  0.4341727E+03  0.7818608E-02  0.1032550E+00
         -2   -1    0    0    0  501 -0.00000000000E+00  0.00000000000E+00  0.73633235417E+02  0.73633235461E+02  0.25500000000E-02 0. -1.
          2   -1    0    0  501    0  0.00000000000E+00 -0.00000000000E+00 -0.64001659822E+03  0.64001659823E+03  0.25500000000E-02 0.  1.
    5000001    1    1    2    0    0  0.86884508525E+02 -0.14859707255E+03 -0.10640803537E+03  0.21652177207E+03  0.77000000000E+02 0.  0.
   -5000001    1    1    2    0    0 -0.86884508525E+02  0.14859707255E+03 -0.45997532744E+03  0.49712806162E+03  0.77000000000E+02 0.  0.
<mgrwt>
<rscale>  0 0.43417274E+03</rscale>
<asrwt>0</asrwt>
<pdfrwt beam="1">  1        2 0.91430939E-01 0.43417274E+03</pdfrwt>
<pdfrwt beam="2">  1       -2 0.10519034E-01 0.43417274E+03</pdfrwt>
<totfact> 0.31443903E+03</totfact>
</mgrwt>
</event>
<event>
 4    1  0.6919593E-004  0.3945999E+03  0.7818608E-02  0.1045666E+00
         -2   -1    0    0    0  501 -0.00000000000E+00  0.00000000000E+00  0.68543122892E+02  0.68543122939E+02  0.25500000000E-02 0. -1.
          2   -1    0    0  501    0  0.00000000000E+00 -0.00000000000E+00 -0.56792374160E+03  0.56792374160E+03  0.25500000000E-02 0.  1.
    5000001    1    1    2    0    0  0.84071256428E+02  0.10875065302E+03 -0.44124095694E+03  0.46852669377E+03  0.77000000000E+02 0.  0.
   -5000001    1    1    2    0    0 -0.84071256428E+02 -0.10875065302E+03 -0.58139661767E+02  0.16794017078E+03  0.77000000000E+02 0.  0.
<mgrwt>
<rscale>  0 0.39459988E+03</rscale>
<asrwt>0</asrwt>
<pdfrwt beam="1">  1        2 0.81131960E-01 0.39459988E+03</pdfrwt>
<pdfrwt beam="2">  1       -2 0.97918750E-02 0.39459988E+03</pdfrwt>
<totfact> 0.40483576E+03</totfact>
</mgrwt>
</event>
<event>
 4    1  0.6919593E-004  0.2807703E+03  0.7818608E-02  0.1095269E+00
          2   -1    0    0  501    0  0.00000000000E+00  0.00000000000E+00  0.40805308618E+03  0.40805308619E+03  0.25500000000E-02 0.  1.
         -2   -1    0    0    0  501 -0.00000000000E+00 -0.00000000000E+00 -0.48297607761E+02  0.48297607829E+02  0.25500000000E-02 0. -1.
    5000001    1    1    2    0    0  0.70744819210E+02 -0.82278162670E+02  0.10710871767E+03  0.17080925882E+03  0.77000000000E+02 0.  0.
   -5000001    1    1    2    0    0 -0.70744819210E+02  0.82278162670E+02  0.25264676075E+03  0.28554143520E+03  0.77000000000E+02 0.  0.
<mgrwt>
<rscale>  0 0.28077028E+03</rscale>
<asrwt>0</asrwt>
<pdfrwt beam="1">  1        2 0.58293300E-01 0.28077028E+03</pdfrwt>
<pdfrwt beam="2">  1       -2 0.68996580E-02 0.28077028E+03</pdfrwt>
<totfact> 0.10037942E+04</totfact>
</mgrwt>
</event>
<event>
 4    1  0.6919593E-004  0.3303145E+03  0.7818608E-02  0.1070998E+00
          2   -1    0    0  501    0  0.00000000000E+00  0.00000000000E+00  0.12839847099E+03  0.12839847101E+03  0.25500000000E-02 0.  1.
         -2   -1    0    0    0  501 -0.00000000000E+00 -0.00000000000E+00 -0.21243955217E+03  0.21243955218E+03  0.25500000000E-02 0. -1.
    5000001    1    1    2    0    0  0.11799315644E+03  0.67511034046E+02 -0.97278395871E+02  0.18404404632E+03  0.77000000000E+02 0.  0.
   -5000001    1    1    2    0    0 -0.11799315644E+03 -0.67511034046E+02  0.13237314691E+02  0.15679397687E+03  0.77000000000E+02 0.  0.
<mgrwt>
<rscale>  0 0.33031448E+03</rscale>
<asrwt>0</asrwt>
<pdfrwt beam="1">  1        2 0.18342639E-01 0.33031448E+03</pdfrwt>
<pdfrwt beam="2">  1       -2 0.30348507E-01 0.33031448E+03</pdfrwt>
<totfact> 0.30829177E+03</totfact>
</mgrwt>
</event>
<event>
 4    1  0.6919593E-004  0.4245644E+03  0.7818608E-02  0.1035591E+00
          2   -1    0    0  501    0  0.00000000000E+00  0.00000000000E+00  0.25797068683E+03  0.25797068684E+03  0.25500000000E-02 0.  1.
         -2   -1    0    0    0  501 -0.00000000000E+00 -0.00000000000E+00 -0.17468547171E+03  0.17468547173E+03  0.25500000000E-02 0. -1.
    5000001    1    1    2    0    0 -0.18162523100E+02  0.16288138943E+03  0.15454453267E+03  0.23806141402E+03  0.77000000000E+02 0.  0.
   -5000001    1    1    2    0    0  0.18162523100E+02 -0.16288138943E+03 -0.71259317549E+02  0.19459474455E+03  0.77000000000E+02 0.  0.
<mgrwt>
<rscale>  0 0.42456439E+03</rscale>
<asrwt>0</asrwt>
<pdfrwt beam="1">  1        2 0.36852955E-01 0.42456439E+03</pdfrwt>
<pdfrwt beam="2">  1       -2 0.24955067E-01 0.42456439E+03</pdfrwt>
<totfact> 0.20093146E+03</totfact>
</mgrwt>
</event>
<event>
 4    1  0.6919593E-004  0.4582727E+03  0.7818608E-02  0.1025283E+00
         -2   -1    0    0    0  501 -0.00000000000E+00  0.00000000000E+00  0.10141199179E+03  0.10141199182E+03  0.25500000000E-02 0. -1.
          2   -1    0    0  501    0  0.00000000000E+00 -0.00000000000E+00 -0.51772448434E+03  0.51772448435E+03  0.25500000000E-02 0.  1.
    5000001    1    1    2    0    0  0.69176674304E+02 -0.14256228656E+03 -0.40609387951E+03  0.44266314144E+03  0.77000000000E+02 0.  0.
   -5000001    1    1    2    0    0 -0.69176674304E+02  0.14256228656E+03 -0.10218613050E+02  0.17647333473E+03  0.77000000000E+02 0.  0.
<mgrwt>
<rscale>  0 0.45827272E+03</rscale>
<asrwt>0</asrwt>
<pdfrwt beam="1">  1        2 0.73960639E-01 0.45827272E+03</pdfrwt>
<pdfrwt beam="2">  1       -2 0.14487428E-01 0.45827272E+03</pdfrwt>
<totfact> 0.23779295E+03</totfact>
</mgrwt>
</event>
<event>
 4    1  0.6919593E-004  0.2575062E+03  0.7818608E-02  0.1108651E+00
          2   -1    0    0  501    0  0.00000000000E+00  0.00000000000E+00  0.73450677015E+02  0.73450677059E+02  0.25500000000E-02 0.  1.
         -2   -1    0    0    0  501 -0.00000000000E+00 -0.00000000000E+00 -0.22569374874E+03  0.22569374875E+03  0.25500000000E-02 0. -1.
    5000001    1    1    2    0    0  0.92132563221E+02  0.46043040754E+02 -0.68775428916E+02  0.14583357100E+03  0.77000000000E+02 0.  0.
   -5000001    1    1    2    0    0 -0.92132563221E+02 -0.46043040754E+02 -0.83467642807E+02  0.15331085481E+03  0.77000000000E+02 0.  0.
<mgrwt>
<rscale>  0 0.25750618E+03</rscale>
<asrwt>0</asrwt>
<pdfrwt beam="1">  1        2 0.10492954E-01 0.25750618E+03</pdfrwt>
<pdfrwt beam="2">  1       -2 0.32241964E-01 0.25750618E+03</pdfrwt>
<totfact> 0.53475575E+03</totfact>
</mgrwt>
</event>
<event>
 4    1  0.6919593E-004  0.2738980E+03  0.7818608E-02  0.1099069E+00
         -2   -1    0    0    0  501 -0.00000000000E+00  0.00000000000E+00  0.26688307362E+03  0.26688307363E+03  0.25500000000E-02 0. -1.
          2   -1    0    0  501    0  0.00000000000E+00 -0.00000000000E+00 -0.70274329135E+02  0.70274329181E+02  0.25500000000E-02 0.  1.
    5000001    1    1    2    0    0 -0.49570007219E+02  0.77495354809E+02  0.16992860595E+02  0.12116300155E+03  0.77000000000E+02 0.  0.
   -5000001    1    1    2    0    0  0.49570007219E+02 -0.77495354809E+02  0.17961588389E+03  0.21599440127E+03  0.77000000000E+02 0.  0.
<mgrwt>
<rscale>  0 0.27389800E+03</rscale>
<asrwt>0</asrwt>
<pdfrwt beam="1">  1        2 0.10039190E-01 0.27389800E+03</pdfrwt>
<pdfrwt beam="2">  1       -2 0.38126153E-01 0.27389800E+03</pdfrwt>
<totfact> 0.41424698E+03</totfact>
</mgrwt>
</event>
<event>
 4    1  0.6919593E-004  0.6033909E+03  0.7818608E-02  0.9898396E-01
          2   -1    0    0  501    0  0.00000000000E+00  0.00000000000E+00  0.11962865926E+04  0.11962865926E+04  0.25500000000E-02 0.  1.
         -2   -1    0    0    0  501 -0.00000000000E+00 -0.00000000000E+00 -0.76085565684E+02  0.76085565727E+02  0.25500000000E-02 0. -1.
    5000001    1    1    2    0    0 -0.54160316695E+02  0.27660316039E+03  0.71858316884E+03  0.77571477927E+03  0.77000000000E+02 0.  0.
   -5000001    1    1    2    0    0  0.54160316695E+02 -0.27660316039E+03  0.40161785804E+03  0.49665737902E+03  0.77000000000E+02 0.  0.
<mgrwt>
<rscale>  0 0.60339089E+03</rscale>
<asrwt>0</asrwt>
<pdfrwt beam="1">  1        2 0.17089808E+00 0.60339089E+03</pdfrwt>
<pdfrwt beam="2">  1       -2 0.10869367E-01 0.60339089E+03</pdfrwt>
<totfact> 0.12966250E+03</totfact>
</mgrwt>
</event>
<event>
 4    1  0.6919593E-004  0.1632877E+03  0.7818608E-02  0.1185034E+00
         -2   -1    0    0    0  501 -0.00000000000E+00  0.00000000000E+00  0.59288779238E+03  0.59288779238E+03  0.25500000000E-02 0. -1.
          2   -1    0    0  501    0  0.00000000000E+00 -0.00000000000E+00 -0.11242796258E+02  0.11242796547E+02  0.25500000000E-02 0.  1.
    5000001    1    1    2    0    0  0.24166185380E+02  0.69035809320E+00  0.24517304686E+03  0.25811490468E+03  0.77000000000E+02 0.  0.
   -5000001    1    1    2    0    0 -0.24166185380E+02 -0.69035809320E+00  0.33647194926E+03  0.34601568425E+03  0.77000000000E+02 0.  0.
<mgrwt>
<rscale>  0 0.16328768E+03</rscale>
<asrwt>0</asrwt>
<pdfrwt beam="1">  1        2 0.16061138E-02 0.16328768E+03</pdfrwt>
<pdfrwt beam="2">  1       -2 0.84698256E-01 0.16328768E+03</pdfrwt>
<totfact> 0.88975859E+03</totfact>
</mgrwt>
</event>
<event>
 4    1  0.6919593E-004  0.2354338E+03  0.7818608E-02  0.1122873E+00
         -2   -1    0    0    0  501 -0.00000000000E+00  0.00000000000E+00  0.38564535541E+03  0.38564535542E+03  0.25500000000E-02 0. -1.
          2   -1    0    0  501    0  0.00000000000E+00 -0.00000000000E+00 -0.35932687209E+02  0.35932687300E+02  0.25500000000E-02 0.  1.
    5000001    1    1    2    0    0 -0.71128216451E+02 -0.18500881248E+02  0.26486654611E+03  0.28545541339E+03  0.77000000000E+02 0.  0.
   -5000001    1    1    2    0    0  0.71128216451E+02  0.18500881248E+02  0.84846122088E+02  0.13612262933E+03  0.77000000000E+02 0.  0.
<mgrwt>
<rscale>  0 0.23543385E+03</rscale>
<asrwt>0</asrwt>
<pdfrwt beam="1">  1        2 0.51332413E-02 0.23543385E+03</pdfrwt>
<pdfrwt beam="2">  1       -2 0.55092190E-01 0.23543385E+03</pdfrwt>
<totfact> 0.47257119E+03</totfact>
</mgrwt>
</event>
<event>
 4    1  0.6919593E-004  0.8706384E+03  0.7818608E-02  0.9463048E-01
         -2   -1    0    0    0  501 -0.00000000000E+00  0.00000000000E+00  0.12212104089E+04  0.12212104089E+04  0.25500000000E-02 0. -1.
          2   -1    0    0  501    0  0.00000000000E+00 -0.00000000000E+00 -0.15517621187E+03  0.15517621190E+03  0.25500000000E-02 0.  1.
    5000001    1    1    2    0    0 -0.87400109212E+02  0.40028033270E+03  0.33486433432E+03  0.53472071798E+03  0.77000000000E+02 0.  0.
   -5000001    1    1    2    0    0  0.87400109212E+02 -0.40028033270E+03  0.73116986268E+03  0.84166590279E+03  0.77000000000E+02 0.  0.
<mgrwt>
<rscale>  0 0.87063840E+03</rscale>
<asrwt>0</asrwt>
<pdfrwt beam="1">  1        2 0.22168029E-01 0.87063840E+03</pdfrwt>
<pdfrwt beam="2">  1       -2 0.17445864E+00 0.87063840E+03</pdfrwt>
<totfact> 0.50274235E+01</totfact>
</mgrwt>
</event>
<event>
 4    1  0.6919593E-004  0.1647605E+03  0.7818608E-02  0.1183425E+00
         -2   -1    0    0    0  501 -0.00000000000E+00  0.00000000000E+00  0.44087867205E+02  0.44087867279E+02  0.25500000000E-02 0. -1.
          2   -1    0    0  501    0  0.00000000000E+00 -0.00000000000E+00 -0.15393141772E+03  0.15393141774E+03  0.25500000000E-02 0.  1.
    5000001    1    1    2    0    0  0.52010235744E+01  0.26767652988E+02 -0.42092222555E+02  0.91892943648E+02  0.77000000000E+02 0.  0.
   -5000001    1    1    2    0    0 -0.52010235744E+01 -0.26767652988E+02 -0.67751327961E+02  0.10612634137E+03  0.77000000000E+02 0.  0.
<mgrwt>
<rscale>  0 0.16476053E+03</rscale>
<asrwt>0</asrwt>
<pdfrwt beam="1">  1        2 0.21990202E-01 0.16476053E+03</pdfrwt>
<pdfrwt beam="2">  1       -2 0.62982668E-02 0.16476053E+03</pdfrwt>
<totfact> 0.32125935E+04</totfact>
</mgrwt>
</event>
<event>
 4    1  0.6919593E-004  0.2889747E+03  0.7818608E-02  0.1090886E+00
         -2   -1    0    0    0  501 -0.00000000000E+00  0.00000000000E+00  0.73681602549E+02  0.73681602593E+02  0.25500000000E-02 0. -1.
          2   -1    0    0  501    0  0.00000000000E+00 -0.00000000000E+00 -0.28333526002E+03  0.28333526003E+03  0.25500000000E-02 0.  1.
    5000001    1    1    2    0    0  0.92169573546E+02  0.75193822020E+02 -0.13973279608E+03  0.19900652114E+03  0.77000000000E+02 0.  0.
   -5000001    1    1    2    0    0 -0.92169573546E+02 -0.75193822020E+02 -0.69920861396E+02  0.15801034148E+03  0.77000000000E+02 0.  0.
<mgrwt>
<rscale>  0 0.28897471E+03</rscale>
<asrwt>0</asrwt>
<pdfrwt beam="1">  1        2 0.40476465E-01 0.28897471E+03</pdfrwt>
<pdfrwt beam="2">  1       -2 0.10525943E-01 0.28897471E+03</pdfrwt>
<totfact> 0.76688720E+03</totfact>
</mgrwt>
</event>
<event>
 4    1  0.6919593E-004  0.2600650E+03  0.7818608E-02  0.1107104E+00
         -2   -1    0    0    0  501 -0.00000000000E+00  0.00000000000E+00  0.82095946859E+02  0.82095946899E+02  0.25500000000E-02 0. -1.
          2   -1    0    0  501    0  0.00000000000E+00 -0.00000000000E+00 -0.20595970284E+03  0.20595970285E+03  0.25500000000E-02 0.  1.
    5000001    1    1    2    0    0  0.48029256587E+02  0.72264687654E+02  0.31309679682E+01  0.11605084028E+03  0.77000000000E+02 0.  0.
   -5000001    1    1    2    0    0 -0.48029256587E+02 -0.72264687654E+02 -0.12699472394E+03  0.17200480947E+03  0.77000000000E+02 0.  0.
<mgrwt>
<rscale>  0 0.26006504E+03</rscale>
<asrwt>0</asrwt>
<pdfrwt beam="1">  1        2 0.29422815E-01 0.26006504E+03</pdfrwt>
<pdfrwt beam="2">  1       -2 0.11727992E-01 0.26006504E+03</pdfrwt>
<totfact> 0.90810204E+03</totfact>
</mgrwt>
</event>
<event>
 4    1  0.6919593E-004  0.2045588E+03  0.7818608E-02  0.1145949E+00
         -2   -1    0    0    0  501 -0.00000000000E+00  0.00000000000E+00  0.57438421545E+02  0.57438421602E+02  0.25500000000E-02 0. -1.
          2   -1    0    0  501    0  0.00000000000E+00 -0.00000000000E+00 -0.18212673161E+03  0.18212673163E+03  0.25500000000E-02 0.  1.
    5000001    1    1    2    0    0  0.16335741454E+02  0.57550635822E+02 -0.26187864149E+02  0.10096403499E+03  0.77000000000E+02 0.  0.
   -5000001    1    1    2    0    0 -0.16335741454E+02 -0.57550635822E+02 -0.98500445918E+02  0.13860111824E+03  0.77000000000E+02 0.  0.
<mgrwt>
<rscale>  0 0.20455876E+03</rscale>
<asrwt>0</asrwt>
<pdfrwt beam="1">  1        2 0.26018104E-01 0.20455876E+03</pdfrwt>
<pdfrwt beam="2">  1       -2 0.82054889E-02 0.20455876E+03</pdfrwt>
<totfact> 0.18045280E+04</totfact>
</mgrwt>
</event>
<event>
 4    1  0.6919593E-004  0.1769598E+03  0.7818608E-02  0.1170778E+00
          2   -1    0    0  501    0  0.00000000000E+00  0.00000000000E+00  0.64725601306E+03  0.64725601307E+03  0.25500000000E-02 0.  1.
         -2   -1    0    0    0  501 -0.00000000000E+00 -0.00000000000E+00 -0.12095200485E+02  0.12095200754E+02  0.25500000000E-02 0. -1.
    5000001    1    1    2    0    0 -0.34438700730E+02  0.25128373065E+02  0.28379237401E+03  0.29712719631E+03  0.77000000000E+02 0.  0.
   -5000001    1    1    2    0    0  0.34438700730E+02 -0.25128373065E+02  0.35136843857E+03  0.36222401751E+03  0.77000000000E+02 0.  0.
<mgrwt>
<rscale>  0 0.17695978E+03</rscale>
<asrwt>0</asrwt>
<pdfrwt beam="1">  1        2 0.92465141E-01 0.17695978E+03</pdfrwt>
<pdfrwt beam="2">  1       -2 0.17278859E-02 0.17695978E+03</pdfrwt>
<totfact> 0.46179256E+04</totfact>
</mgrwt>
</event>
<event>
 4    1  0.6919593E-004  0.2220497E+03  0.7818608E-02  0.1132364E+00
          2   -1    0    0  501    0  0.00000000000E+00  0.00000000000E+00  0.28919427791E+03  0.28919427792E+03  0.25500000000E-02 0.  1.
         -2   -1    0    0    0  501 -0.00000000000E+00 -0.00000000000E+00 -0.42623636843E+02  0.42623636920E+02  0.25500000000E-02 0. -1.
    5000001    1    1    2    0    0  0.31217861952E+01  0.79188252684E+02  0.10712244973E+03  0.15389848650E+03  0.77000000000E+02 0.  0.
   -5000001    1    1    2    0    0 -0.31217861952E+01 -0.79188252684E+02  0.13944819133E+03  0.17791942833E+03  0.77000000000E+02 0.  0.
<mgrwt>
<rscale>  0 0.22204965E+03</rscale>
<asrwt>0</asrwt>
<pdfrwt beam="1">  1        2 0.41313468E-01 0.22204965E+03</pdfrwt>
<pdfrwt beam="2">  1       -2 0.60890911E-02 0.22204965E+03</pdfrwt>
<totfact> 0.17400312E+04</totfact>
</mgrwt>
</event>
<event>
 4    1  0.6919593E-004  0.3420575E+03  0.7818608E-02  0.1065923E+00
         -2   -1    0    0    0  501 -0.00000000000E+00  0.00000000000E+00  0.20717982936E+03  0.20717982937E+03  0.25500000000E-02 0. -1.
          2   -1    0    0  501    0  0.00000000000E+00 -0.00000000000E+00 -0.14118570906E+03  0.14118570908E+03  0.25500000000E-02 0.  1.
    5000001    1    1    2    0    0 -0.94279868004E+02 -0.11897594776E+03  0.16020478628E+02  0.17096673767E+03  0.77000000000E+02 0.  0.
   -5000001    1    1    2    0    0  0.94279868004E+02  0.11897594776E+03  0.49973641669E+02  0.17739880078E+03  0.77000000000E+02 0.  0.
<mgrwt>
<rscale>  0 0.34205749E+03</rscale>
<asrwt>0</asrwt>
<pdfrwt beam="1">  1        2 0.20169387E-01 0.34205749E+03</pdfrwt>
<pdfrwt beam="2">  1       -2 0.29597118E-01 0.34205749E+03</pdfrwt>
<totfact> 0.28937749E+03</totfact>
</mgrwt>
</event>
<event>
 4    1  0.6919593E-004  0.3135318E+03  0.7818608E-02  0.1078665E+00
         -2   -1    0    0    0  501 -0.00000000000E+00  0.00000000000E+00  0.81356097758E+02  0.81356097798E+02  0.25500000000E-02 0. -1.
          2   -1    0    0  501    0  0.00000000000E+00 -0.00000000000E+00 -0.30207376111E+03  0.30207376112E+03  0.25500000000E-02 0.  1.
    5000001    1    1    2    0    0  0.30368789520E+02 -0.11946369467E+03 -0.18221831621E+03  0.23308014176E+03  0.77000000000E+02 0.  0.
   -5000001    1    1    2    0    0 -0.30368789520E+02  0.11946369467E+03 -0.38499347147E+02  0.15034971716E+03  0.77000000000E+02 0.  0.
<mgrwt>
<rscale>  0 0.31353177E+03</rscale>
<asrwt>0</asrwt>
<pdfrwt beam="1">  1        2 0.43153394E-01 0.31353177E+03</pdfrwt>
<pdfrwt beam="2">  1       -2 0.11622300E-01 0.31353177E+03</pdfrwt>
<totfact> 0.61206821E+03</totfact>
</mgrwt>
</event>
<event>
 4    1  0.6919593E-004  0.2011196E+03  0.7818608E-02  0.1148798E+00
         -2   -1    0    0    0  501 -0.00000000000E+00  0.00000000000E+00  0.39518088312E+03  0.39518088313E+03  0.25500000000E-02 0. -1.
          2   -1    0    0  501    0  0.00000000000E+00 -0.00000000000E+00 -0.25588961563E+02  0.25588961690E+02  0.25500000000E-02 0.  1.
    5000001    1    1    2    0    0 -0.43441094710E+02  0.10436970385E+02  0.86951668030E+02  0.12444135821E+03  0.77000000000E+02 0.  0.
   -5000001    1    1    2    0    0  0.43441094710E+02 -0.10436970385E+02  0.28264025353E+03  0.29632848661E+03  0.77000000000E+02 0.  0.
<mgrwt>
<rscale>  0 0.20111955E+03</rscale>
<asrwt>0</asrwt>
<pdfrwt beam="1">  1        2 0.36555662E-02 0.20111955E+03</pdfrwt>
<pdfrwt beam="2">  1       -2 0.56454408E-01 0.20111955E+03</pdfrwt>
<totfact> 0.69954021E+03</totfact>
</mgrwt>
</event>
<event>
 4    1  0.6919593E-004  0.3709027E+03  0.7818608E-02  0.1054348E+00
         -2   -1    0    0    0  501 -0.00000000000E+00  0.00000000000E+00  0.28409052585E+02  0.28409052700E+02  0.25500000000E-02 0. -1.
          2   -1    0    0  501    0  0.00000000000E+00 -0.00000000000E+00 -0.12106071564E+04  0.12106071565E+04  0.25500000000E-02 0.  1.
    5000001    1    1    2    0    0  0.52223977140E+02  0.12439200328E+03 -0.92950916488E+03  0.94239959776E+03  0.77000000000E+02 0.  0.
   -5000001    1    1    2    0    0 -0.52223977140E+02 -0.12439200328E+03 -0.25268893898E+03  0.29661661139E+03  0.77000000000E+02 0.  0.
<mgrwt>
<rscale>  0 0.37090270E+03</rscale>
<asrwt>0</asrwt>
<pdfrwt beam="1">  1        2 0.17294385E+00 0.37090270E+03</pdfrwt>
<pdfrwt beam="2">  1       -2 0.40584368E-02 0.37090270E+03</pdfrwt>
<totfact> 0.59771037E+03</totfact>
</mgrwt>
</event>
<event>
 4    1  0.6919593E-004  0.3590811E+03  0.7818608E-02  0.1058948E+00
         -2   -1    0    0    0  501 -0.00000000000E+00  0.00000000000E+00  0.53488104468E+02  0.53488104529E+02  0.25500000000E-02 0. -1.
          2   -1    0    0  501    0  0.00000000000E+00 -0.00000000000E+00 -0.60265363610E+03  0.60265363611E+03  0.25500000000E-02 0.  1.
    5000001    1    1    2    0    0  0.92797919610E+02 -0.26752543840E+02 -0.36484226616E+02  0.12879150313E+03  0.77000000000E+02 0.  0.
   -5000001    1    1    2    0    0 -0.92797919610E+02  0.26752543840E+02 -0.51268130502E+03  0.52735023751E+03  0.77000000000E+02 0.  0.
<mgrwt>
<rscale>  0 0.35908105E+03</rscale>
<asrwt>0</asrwt>
<pdfrwt beam="1">  1        2 0.86093373E-01 0.35908105E+03</pdfrwt>
<pdfrwt beam="2">  1       -2 0.76411581E-02 0.35908105E+03</pdfrwt>
<totfact> 0.55902019E+03</totfact>
</mgrwt>
</event>
<event>
 4    1  0.6919593E-004  0.2571576E+03  0.7818608E-02  0.1108863E+00
          2   -1    0    0  501    0  0.00000000000E+00  0.00000000000E+00  0.13875264138E+03  0.13875264140E+03  0.25500000000E-02 0.  1.
         -2   -1    0    0    0  501 -0.00000000000E+00 -0.00000000000E+00 -0.11915093413E+03  0.11915093416E+03  0.25500000000E-02 0. -1.
    5000001    1    1    2    0    0  0.94108853654E+02 -0.41458127878E+02  0.15131735195E+02  0.12935695618E+03  0.77000000000E+02 0.  0.
   -5000001    1    1    2    0    0 -0.94108853654E+02  0.41458127878E+02  0.44699720538E+01  0.12854661938E+03  0.77000000000E+02 0.  0.
<mgrwt>
<rscale>  0 0.25715759E+03</rscale>
<asrwt>0</asrwt>
<pdfrwt beam="1">  1        2 0.19821806E-01 0.25715759E+03</pdfrwt>
<pdfrwt beam="2">  1       -2 0.17021562E-01 0.25715759E+03</pdfrwt>
<totfact> 0.76686001E+03</totfact>
</mgrwt>
</event>
<event>
 4    1  0.6919593E-004  0.1977750E+03  0.7818608E-02  0.1151630E+00
         -2   -1    0    0    0  501 -0.00000000000E+00  0.00000000000E+00  0.20428684828E+03  0.20428684830E+03  0.25500000000E-02 0. -1.
          2   -1    0    0  501    0  0.00000000000E+00 -0.00000000000E+00 -0.47867677168E+02  0.47867677236E+02  0.25500000000E-02 0.  1.
    5000001    1    1    2    0    0  0.40952467412E+02 -0.18040675179E+02  0.13300552745E+03  0.16006886293E+03  0.77000000000E+02 0.  0.
   -5000001    1    1    2    0    0 -0.40952467412E+02  0.18040675179E+02  0.23413643671E+02  0.92085662608E+02  0.77000000000E+02 0.  0.
<mgrwt>
<rscale>  0 0.19777499E+03</rscale>
<asrwt>0</asrwt>
<pdfrwt beam="1">  1        2 0.68382396E-02 0.19777499E+03</pdfrwt>
<pdfrwt beam="2">  1       -2 0.29183835E-01 0.19777499E+03</pdfrwt>
<totfact> 0.10829827E+04</totfact>
</mgrwt>
</event>
<event>
 4    1  0.6919593E-004  0.3518623E+03  0.7818608E-02  0.1061853E+00
          2   -1    0    0  501    0  0.00000000000E+00  0.00000000000E+00  0.85385094623E+03  0.85385094624E+03  0.25500000000E-02 0.  1.
         -2   -1    0    0    0  501 -0.00000000000E+00 -0.00000000000E+00 -0.36249607836E+02  0.36249607926E+02  0.25500000000E-02 0. -1.
    5000001    1    1    2    0    0 -0.59167016689E+02 -0.24988355834E+01  0.77986136475E+03  0.78588785986E+03  0.77000000000E+02 0.  0.
   -5000001    1    1    2    0    0  0.59167016689E+02  0.24988355834E+01  0.37739973645E+02  0.10421269430E+03  0.77000000000E+02 0.  0.
<mgrwt>
<rscale>  0 0.35186226E+03</rscale>
<asrwt>0</asrwt>
<pdfrwt beam="1">  1        2 0.12197868E+00 0.35186226E+03</pdfrwt>
<pdfrwt beam="2">  1       -2 0.51785165E-02 0.35186226E+03</pdfrwt>
<totfact> 0.66948057E+03</totfact>
</mgrwt>
</event>
<event>
 4    1  0.6919593E-004  0.4696919E+03  0.7818608E-02  0.1022007E+00
          2   -1    0    0  501    0  0.00000000000E+00  0.00000000000E+00  0.56388268467E+03  0.56388268468E+03  0.25500000000E-02 0.  1.
         -2   -1    0    0    0  501 -0.00000000000E+00 -0.00000000000E+00 -0.97808671872E+02  0.97808671905E+02  0.25500000000E-02 0. -1.
    5000001    1    1    2    0    0 -0.31701460289E+02  0.12218984735E+03  0.49006951312E+03  0.51189107148E+03  0.77000000000E+02 0.  0.
   -5000001    1    1    2    0    0  0.31701460289E+02 -0.12218984735E+03 -0.23995500317E+02  0.14980028510E+03  0.77000000000E+02 0.  0.
<mgrwt>
<rscale>  0 0.46969188E+03</rscale>
<asrwt>0</asrwt>
<pdfrwt beam="1">  1        2 0.80554672E-01 0.46969188E+03</pdfrwt>
<pdfrwt beam="2">  1       -2 0.13972667E-01 0.46969188E+03</pdfrwt>
<totfact> 0.22912128E+03</totfact>
</mgrwt>
</event>
<event>
 4    1  0.6919593E-004  0.3262685E+03  0.7818608E-02  0.1072800E+00
          2   -1    0    0  501    0  0.00000000000E+00  0.00000000000E+00  0.54322293258E+03  0.54322293259E+03  0.25500000000E-02 0.  1.
         -2   -1    0    0    0  501 -0.00000000000E+00 -0.00000000000E+00 -0.48990543323E+02  0.48990543390E+02  0.25500000000E-02 0. -1.
    5000001    1    1    2    0    0 -0.11115623249E+03 -0.82333944738E+02  0.17567365568E+03  0.23648429076E+03  0.77000000000E+02 0.  0.
   -5000001    1    1    2    0    0  0.11115623249E+03  0.82333944738E+02  0.31855873358E+03  0.35572918522E+03  0.77000000000E+02 0.  0.
<mgrwt>
<rscale>  0 0.32626852E+03</rscale>
<asrwt>0</asrwt>
<pdfrwt beam="1">  1        2 0.77603274E-01 0.32626852E+03</pdfrwt>
<pdfrwt beam="2">  1       -2 0.69986493E-02 0.32626852E+03</pdfrwt>
<totfact> 0.72001477E+03</totfact>
</mgrwt>
</event>
<event>
 4    1  0.6919593E-004  0.2834764E+03  0.7818608E-02  0.1093805E+00
         -2   -1    0    0    0  501 -0.00000000000E+00  0.00000000000E+00  0.18113542918E+03  0.18113542920E+03  0.25500000000E-02 0. -1.
          2   -1    0    0  501    0  0.00000000000E+00 -0.00000000000E+00 -0.11090992207E+03  0.11090992209E+03  0.25500000000E-02 0.  1.
    5000001    1    1    2    0    0  0.62763802670E+02 -0.79687670729E+02 -0.28987776357E+02  0.13060900034E+03  0.77000000000E+02 0.  0.
   -5000001    1    1    2    0    0 -0.62763802670E+02  0.79687670729E+02  0.99213283474E+02  0.16143635095E+03  0.77000000000E+02 0.  0.
<mgrwt>
<rscale>  0 0.28347639E+03</rscale>
<asrwt>0</asrwt>
<pdfrwt beam="1">  1        2 0.15844275E-01 0.28347639E+03</pdfrwt>
<pdfrwt beam="2">  1       -2 0.25876489E-01 0.28347639E+03</pdfrwt>
<totfact> 0.48548265E+03</totfact>
</mgrwt>
</event>
<event>
 4    1  0.6919593E-004  0.3020712E+03  0.7818608E-02  0.1084210E+00
         -2   -1    0    0    0  501 -0.00000000000E+00  0.00000000000E+00  0.11047984369E+02  0.11047984663E+02  0.25500000000E-02 0. -1.
          2   -1    0    0  501    0  0.00000000000E+00 -0.00000000000E+00 -0.20647890305E+04  0.20647890305E+04  0.25500000000E-02 0.  1.
    5000001    1    1    2    0    0  0.50559383755E+02  0.10707102955E+03 -0.65921465218E+03  0.67417610036E+03  0.77000000000E+02 0.  0.
   -5000001    1    1    2    0    0 -0.50559383755E+02 -0.10707102955E+03 -0.13945263939E+04  0.14016609148E+04  0.77000000000E+02 0.  0.
<mgrwt>
<rscale>  0 0.30207123E+03</rscale>
<asrwt>0</asrwt>
<pdfrwt beam="1">  1        2 0.29496962E+00 0.30207123E+03</pdfrwt>
<pdfrwt beam="2">  1       -2 0.15782848E-02 0.30207123E+03</pdfrwt>
<totfact> 0.90059780E+03</totfact>
</mgrwt>
</event>
<event>
 4    1  0.6919593E-004  0.2395168E+03  0.7818608E-02  0.1120115E+00
          2   -1    0    0  501    0  0.00000000000E+00  0.00000000000E+00  0.31225856749E+03  0.31225856750E+03  0.25500000000E-02 0.  1.
         -2   -1    0    0    0  501 -0.00000000000E+00 -0.00000000000E+00 -0.45930106549E+02  0.45930106620E+02  0.25500000000E-02 0. -1.
    5000001    1    1    2    0    0  0.90349606070E+02  0.13319105072E+02  0.12042033170E+03  0.16961870818E+03  0.77000000000E+02 0.  0.
   -5000001    1    1    2    0    0 -0.90349606070E+02 -0.13319105072E+02  0.14590812923E+03  0.18856996594E+03  0.77000000000E+02 0.  0.
<mgrwt>
<rscale>  0 0.23951676E+03</rscale>
<asrwt>0</asrwt>
<pdfrwt beam="1">  1        2 0.44608368E-01 0.23951676E+03</pdfrwt>
<pdfrwt beam="2">  1       -2 0.65614436E-02 0.23951676E+03</pdfrwt>
<totfact> 0.14356916E+04</totfact>
</mgrwt>
</event>
<event>
 4    1  0.6919593E-004  0.1840807E+03  0.7818608E-02  0.1163911E+00
         -2   -1    0    0    0  501 -0.00000000000E+00  0.00000000000E+00  0.46057584660E+01  0.46057591719E+01  0.25500000000E-02 0. -1.
          2   -1    0    0  501    0  0.00000000000E+00 -0.00000000000E+00 -0.18393113794E+04  0.18393113794E+04  0.25500000000E-02 0.  1.
    5000001    1    1    2    0    0  0.20797919482E+02  0.45801288534E+02 -0.88249009169E+03  0.88727001156E+03  0.77000000000E+02 0.  0.
   -5000001    1    1    2    0    0 -0.20797919482E+02 -0.45801288534E+02 -0.95221552924E+03  0.95664712701E+03  0.77000000000E+02 0.  0.
<mgrwt>
<rscale>  0 0.18408068E+03</rscale>
<asrwt>0</asrwt>
<pdfrwt beam="1">  1        2 0.26275830E+00 0.18408068E+03</pdfrwt>
<pdfrwt beam="2">  1       -2 0.65796672E-03 0.18408068E+03</pdfrwt>
<totfact> 0.40423460E+04</totfact>
</mgrwt>
</event>
<event>
 4    1  0.6919593E-004  0.2847262E+03  0.7818608E-02  0.1093135E+00
          2   -1    0    0  501    0  0.00000000000E+00  0.00000000000E+00  0.10128151841E+03  0.10128151845E+03  0.25500000000E-02 0.  1.
         -2   -1    0    0    0  501 -0.00000000000E+00 -0.00000000000E+00 -0.20010815061E+03  0.20010815063E+03  0.25500000000E-02 0. -1.
    5000001    1    1    2    0    0 -0.11112516308E+01 -0.95078510053E+02 -0.12645396568E+03  0.17595670885E+03  0.77000000000E+02 0.  0.
   -5000001    1    1    2    0    0  0.11112516308E+01  0.95078510053E+02  0.27627333485E+02  0.12543296022E+03  0.77000000000E+02 0.  0.
<mgrwt>
<rscale>  0 0.28472624E+03</rscale>
<asrwt>0</asrwt>
<pdfrwt beam="1">  1        2 0.14468788E-01 0.28472624E+03</pdfrwt>
<pdfrwt beam="2">  1       -2 0.28586879E-01 0.28472624E+03</pdfrwt>
<totfact> 0.45247557E+03</totfact>
</mgrwt>
</event>
<event>
 4    1  0.6919593E-004  0.4152836E+03  0.7818608E-02  0.1038612E+00
          2   -1    0    0  501    0  0.00000000000E+00  0.00000000000E+00  0.11696480578E+03  0.11696480581E+03  0.25500000000E-02 0.  1.
         -2   -1    0    0    0  501 -0.00000000000E+00 -0.00000000000E+00 -0.36861624440E+03  0.36861624441E+03  0.25500000000E-02 0. -1.
    5000001    1    1    2    0    0 -0.14594825168E+03 -0.12356531550E+03 -0.96785091145E+02  0.22774027582E+03  0.77000000000E+02 0.  0.
   -5000001    1    1    2    0    0  0.14594825168E+03  0.12356531550E+03 -0.15486634748E+03  0.25784077440E+03  0.77000000000E+02 0.  0.
<mgrwt>
<rscale>  0 0.41528365E+03</rscale>
<asrwt>0</asrwt>
<pdfrwt beam="1">  1        2 0.16709258E-01 0.41528365E+03</pdfrwt>
<pdfrwt beam="2">  1       -2 0.52659463E-01 0.41528365E+03</pdfrwt>
<totfact> 0.11952791E+03</totfact>
</mgrwt>
</event>
<event>
 4    1  0.6919593E-004  0.2274342E+03  0.7818608E-02  0.1128459E+00
         -2   -1    0    0    0  501 -0.00000000000E+00  0.00000000000E+00  0.16066160869E+02  0.16066161071E+02  0.25500000000E-02 0. -1.
          2   -1    0    0  501    0  0.00000000000E+00 -0.00000000000E+00 -0.80489514159E+03  0.80489514160E+03  0.25500000000E-02 0.  1.
    5000001    1    1    2    0    0 -0.71844388912E+02 -0.86661362355E+01 -0.24272876282E+03  0.26473188406E+03  0.77000000000E+02 0.  0.
   -5000001    1    1    2    0    0  0.71844388912E+02  0.86661362355E+01 -0.54610021790E+03  0.55622941861E+03  0.77000000000E+02 0.  0.
<mgrwt>
<rscale>  0 0.22743417E+03</rscale>
<asrwt>0</asrwt>
<pdfrwt beam="1">  1        2 0.11498500E+00 0.22743417E+03</pdfrwt>
<pdfrwt beam="2">  1       -2 0.22951664E-02 0.22743417E+03</pdfrwt>
<totfact> 0.23990330E+04</totfact>
</mgrwt>
</event>
<event>
 4    1  0.6919593E-004  0.2152533E+03  0.7818608E-02  0.1137472E+00
         -2   -1    0    0    0  501 -0.00000000000E+00  0.00000000000E+00  0.53404872833E+02  0.53404872894E+02  0.25500000000E-02 0. -1.
          2   -1    0    0  501    0  0.00000000000E+00 -0.00000000000E+00 -0.21689962019E+03  0.21689962021E+03  0.25500000000E-02 0.  1.
    5000001    1    1    2    0    0  0.42244400927E+01  0.47256832856E+02 -0.15500665254E+03  0.17946341264E+03  0.77000000000E+02 0.  0.
   -5000001    1    1    2    0    0 -0.42244400927E+01 -0.47256832856E+02 -0.84880948212E+01  0.90841080461E+02  0.77000000000E+02 0.  0.
<mgrwt>
<rscale>  0 0.21525331E+03</rscale>
<asrwt>0</asrwt>
<pdfrwt beam="1">  1        2 0.30985660E-01 0.21525331E+03</pdfrwt>
<pdfrwt beam="2">  1       -2 0.76292677E-02 0.21525331E+03</pdfrwt>
<totfact> 0.16740018E+04</totfact>
</mgrwt>
</event>
<event>
 4    1  0.6919593E-004  0.2395900E+03  0.7818608E-02  0.1120066E+00
         -2   -1    0    0    0  501 -0.00000000000E+00  0.00000000000E+00  0.37005352105E+02  0.37005352192E+02  0.25500000000E-02 0. -1.
          2   -1    0    0  501    0  0.00000000000E+00 -0.00000000000E+00 -0.38780450184E+03  0.38780450185E+03  0.25500000000E-02 0.  1.
    5000001    1    1    2    0    0  0.17065288434E+02 -0.55418946590E+02 -0.30151657082E+03  0.31654972151E+03  0.77000000000E+02 0.  0.
   -5000001    1    1    2    0    0 -0.17065288434E+02  0.55418946590E+02 -0.49282578915E+02  0.10826013253E+03  0.77000000000E+02 0.  0.
<mgrwt>
<rscale>  0 0.23959000E+03</rscale>
<asrwt>0</asrwt>
<pdfrwt beam="1">  1        2 0.55400641E-01 0.23959000E+03</pdfrwt>
<pdfrwt beam="2">  1       -2 0.52864791E-02 0.23959000E+03</pdfrwt>
<totfact> 0.15830955E+04</totfact>
</mgrwt>
</event>
<event>
 4    1  0.6919593E-004  0.2284545E+03  0.7818608E-02  0.1127732E+00
         -2   -1    0    0    0  501 -0.00000000000E+00  0.00000000000E+00  0.16220324097E+02  0.16220324297E+02  0.25500000000E-02 0. -1.
          2   -1    0    0  501    0  0.00000000000E+00 -0.00000000000E+00 -0.80441449785E+03  0.80441449785E+03  0.25500000000E-02 0.  1.
    5000001    1    1    2    0    0  0.48787260931E+02 -0.64636915382E+02 -0.47915790729E+03  0.49201567839E+03  0.77000000000E+02 0.  0.
   -5000001    1    1    2    0    0 -0.48787260931E+02  0.64636915382E+02 -0.30903626646E+03  0.32861914376E+03  0.77000000000E+02 0.  0.
<mgrwt>
<rscale>  0 0.22845449E+03</rscale>
<asrwt>0</asrwt>
<pdfrwt beam="1">  1        2 0.11491633E+00 0.22845449E+03</pdfrwt>
<pdfrwt beam="2">  1       -2 0.23171897E-02 0.22845449E+03</pdfrwt>
<totfact> 0.23679584E+04</totfact>
</mgrwt>
</event>
<event>
 4    1  0.6919593E-004  0.2056109E+03  0.7818608E-02  0.1145090E+00
         -2   -1    0    0    0  501 -0.00000000000E+00  0.00000000000E+00  0.13134903635E+02  0.13134903883E+02  0.25500000000E-02 0. -1.
          2   -1    0    0  501    0  0.00000000000E+00 -0.00000000000E+00 -0.80464704478E+03  0.80464704479E+03  0.25500000000E-02 0.  1.
    5000001    1    1    2    0    0  0.47407197950E+02  0.74452203518E+01 -0.58803375265E+03  0.59499207387E+03  0.77000000000E+02 0.  0.
   -5000001    1    1    2    0    0 -0.47407197950E+02 -0.74452203518E+01 -0.20347838850E+03  0.22278987479E+03  0.77000000000E+02 0.  0.
<mgrwt>
<rscale>  0 0.20561091E+03</rscale>
<asrwt>0</asrwt>
<pdfrwt beam="1">  1        2 0.11494955E+00 0.20561091E+03</pdfrwt>
<pdfrwt beam="2">  1       -2 0.18764153E-02 0.20561091E+03</pdfrwt>
<totfact> 0.32025639E+04</totfact>
</mgrwt>
</event>
<event>
 4    1  0.6919593E-004  0.2079415E+03  0.7818608E-02  0.1143207E+00
         -2   -1    0    0    0  501 -0.00000000000E+00  0.00000000000E+00  0.97270227468E+01  0.97270230811E+01  0.25500000000E-02 0. -1.
          2   -1    0    0  501    0  0.00000000000E+00 -0.00000000000E+00 -0.11113283409E+04  0.11113283409E+04  0.25500000000E-02 0.  1.
    5000001    1    1    2    0    0 -0.48336867549E+02 -0.32731664031E+02 -0.34388075984E+03  0.35719853245E+03  0.77000000000E+02 0.  0.
   -5000001    1    1    2    0    0  0.48336867549E+02  0.32731664031E+02 -0.75772055834E+03  0.76385683156E+03  0.77000000000E+02 0.  0.
<mgrwt>
<rscale>  0 0.20794149E+03</rscale>
<asrwt>0</asrwt>
<pdfrwt beam="1">  1        2 0.15876111E+00 0.20794149E+03</pdfrwt>
<pdfrwt beam="2">  1       -2 0.13895754E-02 0.20794149E+03</pdfrwt>
<totfact> 0.32442801E+04</totfact>
</mgrwt>
</event>
<event>
 4    1  0.6919593E-004  0.2269953E+03  0.7818608E-02  0.1128773E+00
         -2   -1    0    0    0  501 -0.00000000000E+00  0.00000000000E+00  0.16803071850E+02  0.16803072044E+02  0.25500000000E-02 0. -1.
          2   -1    0    0  501    0  0.00000000000E+00 -0.00000000000E+00 -0.76662883771E+03  0.76662883771E+03  0.25500000000E-02 0.  1.
    5000001    1    1    2    0    0  0.72583645382E+02  0.40340445284E+02 -0.34886006073E+03  0.36678069615E+03  0.77000000000E+02 0.  0.
   -5000001    1    1    2    0    0 -0.72583645382E+02 -0.40340445284E+02 -0.40096570514E+03  0.41665121360E+03  0.77000000000E+02 0.  0.
<mgrwt>
<rscale>  0 0.22699533E+03</rscale>
<asrwt>0</asrwt>
<pdfrwt beam="1">  1        2 0.10951838E+00 0.22699533E+03</pdfrwt>
<pdfrwt beam="2">  1       -2 0.24004393E-02 0.22699533E+03</pdfrwt>
<totfact> 0.23834089E+04</totfact>
</mgrwt>
</event>
<event>
 4    1  0.6919593E-004  0.2364668E+03  0.7818608E-02  0.1122169E+00
         -2   -1    0    0    0  501 -0.00000000000E+00  0.00000000000E+00  0.58852286658E+02  0.58852286714E+02  0.25500000000E-02 0. -1.
          2   -1    0    0  501    0  0.00000000000E+00 -0.00000000000E+00 -0.23752930274E+03  0.23752930275E+03  0.25500000000E-02 0.  1.
    5000001    1    1    2    0    0 -0.71862845822E+02  0.43304552331E+02 -0.49494005740E+02  0.12417008282E+03  0.77000000000E+02 0.  0.
   -5000001    1    1    2    0    0  0.71862845822E+02 -0.43304552331E+02 -0.12918301034E+03  0.17221150665E+03  0.77000000000E+02 0.  0.
<mgrwt>
<rscale>  0 0.23646685E+03</rscale>
<asrwt>0</asrwt>
<pdfrwt beam="1">  1        2 0.33932757E-01 0.23646685E+03</pdfrwt>
<pdfrwt beam="2">  1       -2 0.84074696E-02 0.23646685E+03</pdfrwt>
<totfact> 0.13113989E+04</totfact>
</mgrwt>
</event>
<event>
 4    1  0.6919593E-004  0.2270864E+03  0.7818608E-02  0.1128707E+00
          2   -1    0    0  501    0  0.00000000000E+00  0.00000000000E+00  0.23484614558E+03  0.23484614560E+03  0.25500000000E-02 0.  1.
         -2   -1    0    0    0  501 -0.00000000000E+00 -0.00000000000E+00 -0.54895762563E+02  0.54895762622E+02  0.25500000000E-02 0. -1.
    5000001    1    1    2    0    0  0.46127814286E+02  0.68008643859E+02  0.10846961640E+03  0.15635731058E+03  0.77000000000E+02 0.  0.
   -5000001    1    1    2    0    0 -0.46127814286E+02 -0.68008643859E+02  0.71480766622E+02  0.13338459764E+03  0.77000000000E+02 0.  0.
<mgrwt>
<rscale>  0 0.22708640E+03</rscale>
<asrwt>0</asrwt>
<pdfrwt beam="1">  1        2 0.33549449E-01 0.22708640E+03</pdfrwt>
<pdfrwt beam="2">  1       -2 0.78422518E-02 0.22708640E+03</pdfrwt>
<totfact> 0.14762861E+04</totfact>
</mgrwt>
</event>
<event>
 4    1  0.6919593E-004  0.3301867E+03  0.7818608E-02  0.1071054E+00
          2   -1    0    0  501    0  0.00000000000E+00  0.00000000000E+00  0.31907417984E+04  0.31907417984E+04  0.25500000000E-02 0. -1.
         -2   -1    0    0    0  501 -0.00000000000E+00 -0.00000000000E+00 -0.85421548809E+01  0.85421552615E+01  0.25500000000E-02 0.  1.
    5000001    1    1    2    0    0  0.47209547943E+02 -0.13815529262E+03  0.15586949675E+04  0.15674101659E+04  0.77000000000E+02 0.  0.
   -5000001    1    1    2    0    0 -0.47209547943E+02  0.13815529262E+03  0.16235046760E+04  0.16318737878E+04  0.77000000000E+02 0.  0.
<mgrwt>
<rscale>  0 0.33018668E+03</rscale>
<asrwt>0</asrwt>
<pdfrwt beam="1">  1        2 0.45582053E+00 0.33018668E+03</pdfrwt>
<pdfrwt beam="2">  1       -2 0.12203071E-02 0.33018668E+03</pdfrwt>
<totfact> 0.34813798E+03</totfact>
</mgrwt>
</event>
<event>
 4    1  0.6919593E-004  0.2806941E+03  0.7818608E-02  0.1095310E+00
          2   -1    0    0  501    0  0.00000000000E+00  0.00000000000E+00  0.58114508215E+03  0.58114508215E+03  0.25500000000E-02 0.  1.
         -2   -1    0    0    0  501 -0.00000000000E+00 -0.00000000000E+00 -0.33893924512E+02  0.33893924608E+02  0.25500000000E-02 0. -1.
    5000001    1    1    2    0    0 -0.12821316829E+02  0.10896163327E+03  0.18245576106E+03  0.22639816349E+03  0.77000000000E+02 0.  0.
   -5000001    1    1    2    0    0  0.12821316829E+02 -0.10896163327E+03  0.36479539658E+03  0.38864084327E+03  0.77000000000E+02 0.  0.
<mgrwt>
<rscale>  0 0.28069405E+03</rscale>
<asrwt>0</asrwt>
<pdfrwt beam="1">  1        2 0.83020719E-01 0.28069405E+03</pdfrwt>
<pdfrwt beam="2">  1       -2 0.48419896E-02 0.28069405E+03</pdfrwt>
<totfact> 0.11684491E+04</totfact>
</mgrwt>
</event>
<event>
 4    1  0.6919593E-004  0.2442100E+03  0.7818608E-02  0.1117020E+00
         -2   -1    0    0    0  501 -0.00000000000E+00  0.00000000000E+00  0.18756570289E+02  0.18756570462E+02  0.25500000000E-02 0. -1.
          2   -1    0    0  501    0  0.00000000000E+00 -0.00000000000E+00 -0.79490192105E+03  0.79490192106E+03  0.25500000000E-02 0.  1.
    5000001    1    1    2    0    0  0.28450053859E+02 -0.90333416590E+02 -0.37697118117E+03  0.39623957797E+03  0.77000000000E+02 0.  0.
   -5000001    1    1    2    0    0 -0.28450053859E+02  0.90333416590E+02 -0.39917416959E+03  0.41741891355E+03  0.77000000000E+02 0.  0.
<mgrwt>
<rscale>  0 0.24421002E+03</rscale>
<asrwt>0</asrwt>
<pdfrwt beam="1">  1        2 0.11355740E+00 0.24421002E+03</pdfrwt>
<pdfrwt beam="2">  1       -2 0.26795106E-02 0.24421002E+03</pdfrwt>
<totfact> 0.19466529E+04</totfact>
</mgrwt>
</event>
<event>
 4    1  0.6919593E-004  0.3794654E+03  0.7818608E-02  0.1051132E+00
         -2   -1    0    0    0  501 -0.00000000000E+00  0.00000000000E+00  0.25836095476E+02  0.25836095602E+02  0.25500000000E-02 0. -1.
          2   -1    0    0  501    0  0.00000000000E+00 -0.00000000000E+00 -0.13933411955E+04  0.13933411955E+04  0.25500000000E-02 0.  1.
    5000001    1    1    2    0    0  0.15673769286E+03 -0.40774719599E+02 -0.91551453307E+03  0.93291218364E+03  0.77000000000E+02 0.  0.
   -5000001    1    1    2    0    0 -0.15673769286E+03  0.40774719599E+02 -0.45199056697E+03  0.48626510748E+03  0.77000000000E+02 0.  0.
<mgrwt>
<rscale>  0 0.37946539E+03</rscale>
<asrwt>0</asrwt>
<pdfrwt beam="1">  1        2 0.19904869E+00 0.37946539E+03</pdfrwt>
<pdfrwt beam="2">  1       -2 0.36908717E-02 0.37946539E+03</pdfrwt>
<totfact> 0.55145608E+03</totfact>
</mgrwt>
</event>
<event>
 4    1  0.6919593E-004  0.1933509E+03  0.7818608E-02  0.1155473E+00
         -2   -1    0    0    0  501 -0.00000000000E+00  0.00000000000E+00  0.20997929548E+02  0.20997929703E+02  0.25500000000E-02 0. -1.
          2   -1    0    0  501    0  0.00000000000E+00 -0.00000000000E+00 -0.44509833770E+03  0.44509833771E+03  0.25500000000E-02 0.  1.
    5000001    1    1    2    0    0 -0.54644808214E+02  0.13450150520E+02 -0.17392102970E+03  0.19835444584E+03  0.77000000000E+02 0.  0.
   -5000001    1    1    2    0    0  0.54644808214E+02 -0.13450150520E+02 -0.25017937845E+03  0.26774182157E+03  0.77000000000E+02 0.  0.
<mgrwt>
<rscale>  0 0.19335091E+03</rscale>
<asrwt>0</asrwt>
<pdfrwt beam="1">  1        2 0.63585471E-01 0.19335091E+03</pdfrwt>
<pdfrwt beam="2">  1       -2 0.29997045E-02 0.19335091E+03</pdfrwt>
<totfact> 0.31417755E+04</totfact>
</mgrwt>
</event>
<event>
 4    1  0.6919593E-004  0.2198778E+03  0.7818608E-02  0.1133974E+00
         -2   -1    0    0    0  501 -0.00000000000E+00  0.00000000000E+00  0.14274961519E+02  0.14274961747E+02  0.25500000000E-02 0. -1.
          2   -1    0    0  501    0  0.00000000000E+00 -0.00000000000E+00 -0.84669651898E+03  0.84669651899E+03  0.25500000000E-02 0.  1.
    5000001    1    1    2    0    0 -0.50298670020E+02 -0.30653181019E+02 -0.21319912964E+03  0.23420598326E+03  0.77000000000E+02 0.  0.
   -5000001    1    1    2    0    0  0.50298670020E+02  0.30653181019E+02 -0.61922242782E+03  0.62676549748E+03  0.77000000000E+02 0.  0.
<mgrwt>
<rscale>  0 0.21987779E+03</rscale>
<asrwt>0</asrwt>
<pdfrwt beam="1">  1        2 0.12095661E+00 0.21987779E+03</pdfrwt>
<pdfrwt beam="2">  1       -2 0.20392808E-02 0.21987779E+03</pdfrwt>
<totfact> 0.26737180E+04</totfact>
</mgrwt>
</event>
<event>
 4    1  0.6919593E-004  0.2233063E+03  0.7818608E-02  0.1131442E+00
          2   -1    0    0  501    0  0.00000000000E+00  0.00000000000E+00  0.48304915750E+03  0.48304915751E+03  0.25500000000E-02 0.  1.
         -2   -1    0    0    0  501 -0.00000000000E+00 -0.00000000000E+00 -0.25807779328E+02  0.25807779454E+02  0.25500000000E-02 0. -1.
    5000001    1    1    2    0    0  0.55570612748E+02 -0.36174718783E+02  0.33405329460E+03  0.34916658905E+03  0.77000000000E+02 0.  0.
   -5000001    1    1    2    0    0 -0.55570612748E+02  0.36174718783E+02  0.12318808358E+03  0.15969034791E+03  0.77000000000E+02 0.  0.
<mgrwt>
<rscale>  0 0.22330630E+03</rscale>
<asrwt>0</asrwt>
<pdfrwt beam="1">  1        2 0.69007018E-01 0.22330630E+03</pdfrwt>
<pdfrwt beam="2">  1       -2 0.36868259E-02 0.22330630E+03</pdfrwt>
<totfact> 0.21378838E+04</totfact>
</mgrwt>
</event>
<event>
 4    1  0.6919593E-004  0.2916581E+03  0.7818608E-02  0.1089487E+00
          2   -1    0    0  501    0  0.00000000000E+00  0.00000000000E+00  0.46810545344E+03  0.46810545345E+03  0.25500000000E-02 0.  1.
         -2   -1    0    0    0  501 -0.00000000000E+00 -0.00000000000E+00 -0.45430182000E+02  0.45430182072E+02  0.25500000000E-02 0. -1.
    5000001    1    1    2    0    0 -0.39408964321E+01  0.95455543337E+02  0.72586621587E+02  0.14256615675E+03  0.77000000000E+02 0.  0.
   -5000001    1    1    2    0    0  0.39408964321E+01 -0.95455543337E+02  0.35008864986E+03  0.37096947877E+03  0.77000000000E+02 0.  0.
<mgrwt>
<rscale>  0 0.29165813E+03</rscale>
<asrwt>0</asrwt>
<pdfrwt beam="1">  1        2 0.66872208E-01 0.29165813E+03</pdfrwt>
<pdfrwt beam="2">  1       -2 0.64900260E-02 0.29165813E+03</pdfrwt>
<totfact> 0.95139265E+03</totfact>
</mgrwt>
</event>
<event>
 4    1  0.6919593E-004  0.3290863E+03  0.7818608E-02  0.1071542E+00
         -2   -1    0    0    0  501 -0.00000000000E+00  0.00000000000E+00  0.52751549227E+02  0.52751549289E+02  0.25500000000E-02 0. -1.
          2   -1    0    0  501    0  0.00000000000E+00 -0.00000000000E+00 -0.51324459184E+03  0.51324459184E+03  0.25500000000E-02 0.  1.
    5000001    1    1    2    0    0 -0.13123004531E+03  0.59785980094E+02 -0.19808117545E+03  0.25682842575E+03  0.77000000000E+02 0.  0.
   -5000001    1    1    2    0    0  0.13123004531E+03 -0.59785980094E+02 -0.26241186716E+03  0.30916771538E+03  0.77000000000E+02 0.  0.
<mgrwt>
<rscale>  0 0.32908629E+03</rscale>
<asrwt>0</asrwt>
<pdfrwt beam="1">  1        2 0.73320653E-01 0.32908629E+03</pdfrwt>
<pdfrwt beam="2">  1       -2 0.75359359E-02 0.32908629E+03</pdfrwt>
<totfact> 0.68398234E+03</totfact>
</mgrwt>
</event>
<event>
 4    1  0.6919593E-004  0.8120205E+03  0.7818608E-02  0.9542779E-01
         -2   -1    0    0    0  501 -0.00000000000E+00  0.00000000000E+00  0.58005644555E+02  0.58005644611E+02  0.25500000000E-02 0. -1.
          2   -1    0    0  501    0  0.00000000000E+00 -0.00000000000E+00 -0.28418671960E+04  0.28418671960E+04  0.25500000000E-02 0.  1.
    5000001    1    1    2    0    0 -0.35307523891E+03 -0.15121904749E+03 -0.10108668870E+04  0.10841172390E+04  0.77000000000E+02 0.  0.
   -5000001    1    1    2    0    0  0.35307523891E+03  0.15121904749E+03 -0.17729946644E+04  0.18157556016E+04  0.77000000000E+02 0.  0.
<mgrwt>
<rscale>  0 0.81202054E+03</rscale>
<asrwt>0</asrwt>
<pdfrwt beam="1">  1        2 0.40598094E+00 0.81202054E+03</pdfrwt>
<pdfrwt beam="2">  1       -2 0.82865224E-02 0.81202054E+03</pdfrwt>
<totfact> 0.27828155E+02</totfact>
</mgrwt>
</event>
<event>
 4    1  0.6919593E-004  0.2904819E+03  0.7818608E-02  0.1090098E+00
          2   -1    0    0  501    0  0.00000000000E+00  0.00000000000E+00  0.77229968165E+03  0.77229968166E+03  0.25500000000E-02 0.  1.
         -2   -1    0    0    0  501 -0.00000000000E+00 -0.00000000000E+00 -0.27314430885E+02  0.27314431004E+02  0.25500000000E-02 0. -1.
    5000001    1    1    2    0    0 -0.33276503306E+02  0.11855487047E+03  0.37752591312E+03  0.40449647472E+03  0.77000000000E+02 0.  0.
   -5000001    1    1    2    0    0  0.33276503306E+02 -0.11855487047E+03  0.36745933765E+03  0.39511763794E+03  0.77000000000E+02 0.  0.
<mgrwt>
<rscale>  0 0.29048185E+03</rscale>
<asrwt>0</asrwt>
<pdfrwt beam="1">  1        2 0.11032852E+00 0.29048185E+03</pdfrwt>
<pdfrwt beam="2">  1       -2 0.39020619E-02 0.29048185E+03</pdfrwt>
<totfact> 0.11602370E+04</totfact>
</mgrwt>
</event>
<event>
 4    1  0.6919593E-004  0.1992180E+03  0.7818608E-02  0.1150400E+00
         -2   -1    0    0    0  501 -0.00000000000E+00  0.00000000000E+00  0.80730849486E+01  0.80730853513E+01  0.25500000000E-02 0. -1.
          2   -1    0    0  501    0  0.00000000000E+00 -0.00000000000E+00 -0.12290166872E+04  0.12290166872E+04  0.25500000000E-02 0.  1.
    5000001    1    1    2    0    0  0.57058500467E+02 -0.26962447491E+02 -0.63041104213E+03  0.63822388556E+03  0.77000000000E+02 0.  0.
   -5000001    1    1    2    0    0 -0.57058500467E+02  0.26962447491E+02 -0.59053256009E+03  0.59886588697E+03  0.77000000000E+02 0.  0.
<mgrwt>
<rscale>  0 0.19921804E+03</rscale>
<asrwt>0</asrwt>
<pdfrwt beam="1">  1        2 0.17557369E+00 0.19921804E+03</pdfrwt>
<pdfrwt beam="2">  1       -2 0.11532987E-02 0.19921804E+03</pdfrwt>
<totfact> 0.36575362E+04</totfact>
</mgrwt>
</event>
<event>
 4    1  0.6919593E-004  0.2239545E+03  0.7818608E-02  0.1130969E+00
         -2   -1    0    0    0  501 -0.00000000000E+00  0.00000000000E+00  0.41991724543E+01  0.41991732286E+01  0.25500000000E-02 0. -1.
          2   -1    0    0  501    0  0.00000000000E+00 -0.00000000000E+00 -0.29860412586E+04  0.29860412586E+04  0.25500000000E-02 0.  1.
    5000001    1    1    2    0    0  0.63052270999E+02 -0.46464142153E+02 -0.11997990604E+04  0.12048158742E+04  0.77000000000E+02 0.  0.
   -5000001    1    1    2    0    0 -0.63052270999E+02  0.46464142153E+02 -0.17820430257E+04  0.17854245576E+04  0.77000000000E+02 0.  0.
<mgrwt>
<rscale>  0 0.22395449E+03</rscale>
<asrwt>0</asrwt>
<pdfrwt beam="1">  1        2 0.42657596E+00 0.22395449E+03</pdfrwt>
<pdfrwt beam="2">  1       -2 0.59988375E-03 0.22395449E+03</pdfrwt>
<totfact> 0.12594512E+04</totfact>
</mgrwt>
</event>
<event>
 4    1  0.6919593E-004  0.2350048E+03  0.7818608E-02  0.1123166E+00
          2   -1    0    0  501    0  0.00000000000E+00  0.00000000000E+00  0.26047131169E+04  0.26047131169E+04  0.25500000000E-02 0.  1.
         -2   -1    0    0    0  501 -0.00000000000E+00 -0.00000000000E+00 -0.53007039032E+01  0.53007045166E+01  0.25500000000E-02 0. -1.
    5000001    1    1    2    0    0  0.37022032147E+01  0.54423221458E+02  0.52209502616E+03  0.53055424763E+03  0.77000000000E+02 0.  0.
   -5000001    1    1    2    0    0 -0.37022032147E+01 -0.54423221458E+02  0.20773173868E+04  0.20794595737E+04  0.77000000000E+02 0.  0.
<mgrwt>
<rscale>  0 0.23500480E+03</rscale>
<asrwt>0</asrwt>
<pdfrwt beam="1">  1        2 0.37210120E+00 0.23500480E+03</pdfrwt>
<pdfrwt beam="2">  1       -2 0.75724483E-03 0.23500480E+03</pdfrwt>
<totfact> 0.14137648E+04</totfact>
</mgrwt>
</event>
<event>
 4    1  0.6919593E-004  0.2942437E+03  0.7818608E-02  0.1088154E+00
          2   -1    0    0  501    0  0.00000000000E+00  0.00000000000E+00  0.20107108343E+02  0.20107108504E+02  0.25500000000E-02 0.  1.
         -2   -1    0    0    0  501 -0.00000000000E+00 -0.00000000000E+00 -0.10764766922E+04  0.10764766922E+04  0.25500000000E-02 0. -1.
    5000001    1    1    2    0    0  0.34152141356E+02  0.11253994179E+03 -0.68995600308E+03  0.70413059403E+03  0.77000000000E+02 0.  0.
   -5000001    1    1    2    0    0 -0.34152141356E+02 -0.11253994179E+03 -0.36641358081E+03  0.39245320672E+03  0.77000000000E+02 0.  0.
<mgrwt>
<rscale>  0 0.29424366E+03</rscale>
<asrwt>0</asrwt>
<pdfrwt beam="1">  1        2 0.28724447E-02 0.29424366E+03</pdfrwt>
<pdfrwt beam="2">  1       -2 0.15378235E+00 0.29424366E+03</pdfrwt>
<totfact> 0.99097512E+02</totfact>
</mgrwt>
</event>
<event>
 4    1  0.6919593E-004  0.2585443E+03  0.7818608E-02  0.1108021E+00
         -2   -1    0    0    0  501 -0.00000000000E+00  0.00000000000E+00  0.57141999527E+02  0.57141999584E+02  0.25500000000E-02 0. -1.
          2   -1    0    0  501    0  0.00000000000E+00 -0.00000000000E+00 -0.29245187006E+03  0.29245187007E+03  0.25500000000E-02 0.  1.
    5000001    1    1    2    0    0 -0.77668168697E+02 -0.44050951904E+02 -0.45984532503E+02  0.12655594819E+03  0.77000000000E+02 0.  0.
   -5000001    1    1    2    0    0  0.77668168697E+02  0.44050951904E+02 -0.18932533803E+03  0.22303792147E+03  0.77000000000E+02 0.  0.
<mgrwt>
<rscale>  0 0.25854427E+03</rscale>
<asrwt>0</asrwt>
<pdfrwt beam="1">  1        2 0.41778838E-01 0.25854427E+03</pdfrwt>
<pdfrwt beam="2">  1       -2 0.81631429E-02 0.25854427E+03</pdfrwt>
<totfact> 0.11022040E+04</totfact>
</mgrwt>
</event>
<event>
 4    1  0.6919593E-004  0.2200021E+03  0.7818608E-02  0.1133881E+00
          2   -1    0    0  501    0  0.00000000000E+00  0.00000000000E+00  0.23472173736E+03  0.23472173738E+03  0.25500000000E-02 0.  1.
         -2   -1    0    0    0  501 -0.00000000000E+00 -0.00000000000E+00 -0.51551380243E+02  0.51551380306E+02  0.25500000000E-02 0. -1.
    5000001    1    1    2    0    0 -0.46611296940E+02  0.63111924491E+02  0.86461981687E+02  0.13985850812E+03  0.77000000000E+02 0.  0.
   -5000001    1    1    2    0    0  0.46611296940E+02 -0.63111924491E+02  0.96708375432E+02  0.14641460957E+03  0.77000000000E+02 0.  0.
<mgrwt>
<rscale>  0 0.22000209E+03</rscale>
<asrwt>0</asrwt>
<pdfrwt beam="1">  1        2 0.33531677E-01 0.22000209E+03</pdfrwt>
<pdfrwt beam="2">  1       -2 0.73644829E-02 0.22000209E+03</pdfrwt>
<totfact> 0.16251272E+04</totfact>
</mgrwt>
</event>
<event>
 4    1  0.6919593E-004  0.2831721E+03  0.7818608E-02  0.1093969E+00
         -2   -1    0    0    0  501 -0.00000000000E+00  0.00000000000E+00  0.13356810705E+02  0.13356810948E+02  0.25500000000E-02 0. -1.
          2   -1    0    0  501    0  0.00000000000E+00 -0.00000000000E+00 -0.15008526839E+04  0.15008526839E+04  0.25500000000E-02 0.  1.
    5000001    1    1    2    0    0  0.11310375195E+03  0.21524697415E+02 -0.58676683224E+03  0.60289309726E+03  0.77000000000E+02 0.  0.
   -5000001    1    1    2    0    0 -0.11310375195E+03 -0.21524697415E+02 -0.90072904099E+03  0.91131639763E+03  0.77000000000E+02 0.  0.
<mgrwt>
<rscale>  0 0.28317207E+03</rscale>
<asrwt>0</asrwt>
<pdfrwt beam="1">  1        2 0.21440742E+00 0.28317207E+03</pdfrwt>
<pdfrwt beam="2">  1       -2 0.19081168E-02 0.28317207E+03</pdfrwt>
<totfact> 0.12918842E+04</totfact>
</mgrwt>
</event>
<event>
 4    1  0.6919593E-004  0.3467571E+03  0.7818608E-02  0.1063954E+00
          2   -1    0    0  501    0  0.00000000000E+00  0.00000000000E+00  0.71047777804E+02  0.71047777850E+02  0.25500000000E-02 0.  1.
         -2   -1    0    0    0  501 -0.00000000000E+00 -0.00000000000E+00 -0.42309730054E+03  0.42309730054E+03  0.25500000000E-02 0. -1.
    5000001    1    1    2    0    0 -0.13516106218E+03 -0.69379882257E+02 -0.12986903549E+03  0.21418927885E+03  0.77000000000E+02 0.  0.
   -5000001    1    1    2    0    0  0.13516106218E+03  0.69379882257E+02 -0.22218048724E+03  0.27995579955E+03  0.77000000000E+02 0.  0.
<mgrwt>
<rscale>  0 0.34675711E+03</rscale>
<asrwt>0</asrwt>
<pdfrwt beam="1">  1        2 0.10149683E-01 0.34675711E+03</pdfrwt>
<pdfrwt beam="2">  1       -2 0.60442470E-01 0.34675711E+03</pdfrwt>
<totfact> 0.16471620E+03</totfact>
</mgrwt>
</event>
<event>
 4    1  0.6919593E-004  0.2026525E+03  0.7818608E-02  0.1147520E+00
          2   -1    0    0  501    0  0.00000000000E+00  0.00000000000E+00  0.59570605475E+03  0.59570605476E+03  0.25500000000E-02 0.  1.
         -2   -1    0    0    0  501 -0.00000000000E+00 -0.00000000000E+00 -0.17235022446E+02  0.17235022635E+02  0.25500000000E-02 0. -1.
    5000001    1    1    2    0    0 -0.23464211144E+02  0.20584976732E+02  0.11381708665E+03  0.14091713766E+03  0.77000000000E+02 0.  0.
   -5000001    1    1    2    0    0  0.23464211144E+02 -0.20584976732E+02  0.46465394565E+03  0.47202393973E+03  0.77000000000E+02 0.  0.
<mgrwt>
<rscale>  0 0.20265248E+03</rscale>
<asrwt>0</asrwt>
<pdfrwt beam="1">  1        2 0.85100848E-01 0.20265248E+03</pdfrwt>
<pdfrwt beam="2">  1       -2 0.24621466E-02 0.20265248E+03</pdfrwt>
<totfact> 0.30591710E+04</totfact>
</mgrwt>
</event>
<event>
 4    1  0.6919593E-004  0.3549783E+03  0.7818608E-02  0.1060590E+00
          2   -1    0    0  501    0  0.00000000000E+00  0.00000000000E+00  0.10037157083E+04  0.10037157083E+04  0.25500000000E-02 0.  1.
         -2   -1    0    0    0  501 -0.00000000000E+00 -0.00000000000E+00 -0.31385783213E+02  0.31385783317E+02  0.25500000000E-02 0. -1.
    5000001    1    1    2    0    0  0.29408197212E+01 -0.91051792550E+02  0.10291541356E+03  0.15754256471E+03  0.77000000000E+02 0.  0.
   -5000001    1    1    2    0    0 -0.29408197212E+01  0.91051792550E+02  0.86941451150E+03  0.87755892688E+03  0.77000000000E+02 0.  0.
<mgrwt>
<rscale>  0 0.35497833E+03</rscale>
<asrwt>0</asrwt>
<pdfrwt beam="1">  1        2 0.14338798E+00 0.35497833E+03</pdfrwt>
<pdfrwt beam="2">  1       -2 0.44836827E-02 0.35497833E+03</pdfrwt>
<totfact> 0.67330254E+03</totfact>
</mgrwt>
</event>
<event>
 4    1  0.6919593E-004  0.3519882E+03  0.7818608E-02  0.1061802E+00
          2   -1    0    0  501    0  0.00000000000E+00  0.00000000000E+00  0.37592109625E+03  0.37592109626E+03  0.25500000000E-02 0.  1.
         -2   -1    0    0    0  501 -0.00000000000E+00 -0.00000000000E+00 -0.82394728804E+02  0.82394728843E+02  0.25500000000E-02 0. -1.
    5000001    1    1    2    0    0 -0.15641363417E+03 -0.12700254218E+01  0.11545698472E+03  0.20910799420E+03  0.77000000000E+02 0.  0.
   -5000001    1    1    2    0    0  0.15641363417E+03  0.12700254218E+01  0.17806938272E+03  0.24920783090E+03  0.77000000000E+02 0.  0.
<mgrwt>
<rscale>  0 0.35198816E+03</rscale>
<asrwt>0</asrwt>
<pdfrwt beam="1">  1        2 0.53703014E-01 0.35198816E+03</pdfrwt>
<pdfrwt beam="2">  1       -2 0.11770676E-01 0.35198816E+03</pdfrwt>
<totfact> 0.47470191E+03</totfact>
</mgrwt>
</event>
<event>
 4    1  0.6919593E-004  0.2871843E+03  0.7818608E-02  0.1091828E+00
          2   -1    0    0  501    0  0.00000000000E+00  0.00000000000E+00  0.10079250744E+04  0.10079250744E+04  0.25500000000E-02 0.  1.
         -2   -1    0    0    0  501 -0.00000000000E+00 -0.00000000000E+00 -0.20456588109E+02  0.20456588268E+02  0.25500000000E-02 0. -1.
    5000001    1    1    2    0    0  0.11732728506E+03 -0.79910112198E+01  0.59875695976E+03  0.61503532008E+03  0.77000000000E+02 0.  0.
   -5000001    1    1    2    0    0 -0.11732728506E+03  0.79910112198E+01  0.38871152657E+03  0.41334634264E+03  0.77000000000E+02 0.  0.
<mgrwt>
<rscale>  0 0.28718432E+03</rscale>
<asrwt>0</asrwt>
<pdfrwt beam="1">  1        2 0.14398932E+00 0.28718432E+03</pdfrwt>
<pdfrwt beam="2">  1       -2 0.29223692E-02 0.28718432E+03</pdfrwt>
<totfact> 0.12676986E+04</totfact>
</mgrwt>
</event>
<event>
 4    1  0.6919593E-004  0.3074597E+03  0.7818608E-02  0.1081570E+00
          2   -1    0    0  501    0  0.00000000000E+00  0.00000000000E+00  0.27329442943E+04  0.27329442943E+04  0.25500000000E-02 0.  1.
         -2   -1    0    0    0  501 -0.00000000000E+00 -0.00000000000E+00 -0.86473991404E+01  0.86473995163E+01  0.25500000000E-02 0. -1.
    5000001    1    1    2    0    0  0.13048720641E+03  0.11833358668E+02  0.15687672912E+04  0.15761112757E+04  0.77000000000E+02 0.  0.
   -5000001    1    1    2    0    0 -0.13048720641E+03 -0.11833358668E+02  0.11555296039E+04  0.11654804181E+04  0.77000000000E+02 0.  0.
<mgrwt>
<rscale>  0 0.30745966E+03</rscale>
<asrwt>0</asrwt>
<pdfrwt beam="1">  1        2 0.39042050E+00 0.30745966E+03</pdfrwt>
<pdfrwt beam="2">  1       -2 0.12353431E-02 0.30745966E+03</pdfrwt>
<totfact> 0.59892911E+03</totfact>
</mgrwt>
</event>
<event>
 4    1  0.6919593E-004  0.2822532E+03  0.7818608E-02  0.1094465E+00
         -2   -1    0    0    0  501 -0.00000000000E+00  0.00000000000E+00  0.76926153093E+02  0.76926153135E+02  0.25500000000E-02 0. -1.
          2   -1    0    0  501    0  0.00000000000E+00 -0.00000000000E+00 -0.25890703032E+03  0.25890703034E+03  0.25500000000E-02 0.  1.
    5000001    1    1    2    0    0  0.10701177167E+03 -0.37982866116E+02 -0.13033592897E+03  0.18923707822E+03  0.77000000000E+02 0.  0.
   -5000001    1    1    2    0    0 -0.10701177167E+03  0.37982866116E+02 -0.51644948259E+02  0.14659610525E+03  0.77000000000E+02 0.  0.
<mgrwt>
<rscale>  0 0.28225323E+03</rscale>
<asrwt>0</asrwt>
<pdfrwt beam="1">  1        2 0.36986718E-01 0.28225323E+03</pdfrwt>
<pdfrwt beam="2">  1       -2 0.10989451E-01 0.28225323E+03</pdfrwt>
<totfact> 0.78839791E+03</totfact>
</mgrwt>
</event>
<event>
 4    1  0.6919593E-004  0.4959150E+03  0.7818608E-02  0.1014851E+00
          2   -1    0    0  501    0  0.00000000000E+00  0.00000000000E+00  0.29699463194E+02  0.29699463304E+02  0.25500000000E-02 0. -1.
         -2   -1    0    0    0  501 -0.00000000000E+00 -0.00000000000E+00 -0.20701697945E+04  0.20701697945E+04  0.25500000000E-02 0.  1.
    5000001    1    1    2    0    0 -0.15313197869E+03  0.16077095117E+03 -0.13551821241E+04  0.13754069547E+04  0.77000000000E+02 0.  0.
   -5000001    1    1    2    0    0  0.15313197869E+03 -0.16077095117E+03 -0.68528820718E+03  0.72446230305E+03  0.77000000000E+02 0.  0.
<mgrwt>
<rscale>  0 0.49591504E+03</rscale>
<asrwt>0</asrwt>
<pdfrwt beam="1">  1        2 0.42427818E-02 0.49591504E+03</pdfrwt>
<pdfrwt beam="2">  1       -2 0.29573845E+00 0.49591504E+03</pdfrwt>
<totfact> 0.74201889E+01</totfact>
</mgrwt>
</event>
<event>
 4    1  0.6919593E-004  0.2346390E+03  0.7818608E-02  0.1123417E+00
         -2   -1    0    0    0  501 -0.00000000000E+00  0.00000000000E+00  0.15555747800E+02  0.15555748009E+02  0.25500000000E-02 0. -1.
          2   -1    0    0  501    0  0.00000000000E+00 -0.00000000000E+00 -0.88480887136E+03  0.88480887136E+03  0.25500000000E-02 0.  1.
    5000001    1    1    2    0    0  0.58265640506E+02  0.25350340115E+02 -0.19816642549E+03  0.22189289488E+03  0.77000000000E+02 0.  0.
   -5000001    1    1    2    0    0 -0.58265640506E+02 -0.25350340115E+02 -0.67108669807E+03  0.67847172449E+03  0.77000000000E+02 0.  0.
<mgrwt>
<rscale>  0 0.23463899E+03</rscale>
<asrwt>0</asrwt>
<pdfrwt beam="1">  1        2 0.12640124E+00 0.23463899E+03</pdfrwt>
<pdfrwt beam="2">  1       -2 0.22222503E-02 0.23463899E+03</pdfrwt>
<totfact> 0.22377056E+04</totfact>
</mgrwt>
</event>
<event>
 4    1  0.6919593E-004  0.5784672E+03  0.7818608E-02  0.9951115E-01
         -2   -1    0    0    0  501 -0.00000000000E+00  0.00000000000E+00  0.34098234996E+02  0.34098235091E+02  0.25500000000E-02 0.  1.
          2   -1    0    0  501    0  0.00000000000E+00 -0.00000000000E+00 -0.24533839416E+04  0.24533839416E+04  0.25500000000E-02 0. -1.
    5000001    1    1    2    0    0 -0.95698781790E+02 -0.19938195381E+03 -0.19395967350E+04  0.19536826546E+04  0.77000000000E+02 0.  0.
   -5000001    1    1    2    0    0  0.95698781790E+02  0.19938195381E+03 -0.47968897163E+03  0.53379952215E+03  0.77000000000E+02 0.  0.
<mgrwt>
<rscale>  0 0.57846715E+03</rscale>
<asrwt>0</asrwt>
<pdfrwt beam="1">  1        2 0.35048331E+00 0.57846715E+03</pdfrwt>
<pdfrwt beam="2">  1       -2 0.48711780E-02 0.57846715E+03</pdfrwt>
<totfact> 0.10463966E+03</totfact>
</mgrwt>
</event>
<event>
 4    1  0.6919593E-004  0.4890258E+03  0.7818608E-02  0.1016684E+00
         -2   -1    0    0    0  501 -0.00000000000E+00  0.00000000000E+00  0.12623001840E+03  0.12623001843E+03  0.25500000000E-02 0. -1.
          2   -1    0    0  501    0  0.00000000000E+00 -0.00000000000E+00 -0.47363187958E+03  0.47363187959E+03  0.25500000000E-02 0.  1.
    5000001    1    1    2    0    0  0.18707996738E+03  0.12655344528E+03 -0.23910400478E+03  0.33780825006E+03  0.77000000000E+02 0.  0.
   -5000001    1    1    2    0    0 -0.18707996738E+03 -0.12655344528E+03 -0.10829785641E+03  0.26205364796E+03  0.77000000000E+02 0.  0.
<mgrwt>
<rscale>  0 0.48902581E+03</rscale>
<asrwt>0</asrwt>
<pdfrwt beam="1">  1        2 0.67661696E-01 0.48902581E+03</pdfrwt>
<pdfrwt beam="2">  1       -2 0.18032860E-01 0.48902581E+03</pdfrwt>
<totfact> 0.18175431E+03</totfact>
</mgrwt>
</event>
<event>
 4    1  0.6919593E-004  0.1790452E+03  0.7818608E-02  0.1168730E+00
          2   -1    0    0  501    0  0.00000000000E+00  0.00000000000E+00  0.16364120231E+04  0.16364120231E+04  0.25500000000E-02 0.  1.
         -2   -1    0    0    0  501 -0.00000000000E+00 -0.00000000000E+00 -0.48974776516E+01  0.48974783155E+01  0.25500000000E-02 0. -1.
    5000001    1    1    2    0    0 -0.41037493838E+02 -0.12232103078E+02  0.96116115078E+03  0.96519089201E+03  0.77000000000E+02 0.  0.
   -5000001    1    1    2    0    0  0.41037493838E+02  0.12232103078E+02  0.67035339463E+03  0.67611860938E+03  0.77000000000E+02 0.  0.
<mgrwt>
<rscale>  0 0.17904515E+03</rscale>
<asrwt>0</asrwt>
<pdfrwt beam="1">  1        2 0.23377352E+00 0.17904515E+03</pdfrwt>
<pdfrwt beam="2">  1       -2 0.69963858E-03 0.17904515E+03</pdfrwt>
<totfact> 0.46338311E+04</totfact>
</mgrwt>
</event>
<event>
 4    1  0.6919593E-004  0.3249197E+03  0.7818608E-02  0.1073407E+00
         -2   -1    0    0    0  501 -0.00000000000E+00  0.00000000000E+00  0.63529834929E+02  0.63529834980E+02  0.25500000000E-02 0. -1.
          2   -1    0    0  501    0  0.00000000000E+00 -0.00000000000E+00 -0.41544585521E+03  0.41544585522E+03  0.25500000000E-02 0.  1.
    5000001    1    1    2    0    0  0.13489128612E+03  0.40626246212E+02 -0.21260608731E+03  0.26641414999E+03  0.77000000000E+02 0.  0.
   -5000001    1    1    2    0    0 -0.13489128612E+03 -0.40626246212E+02 -0.13930993297E+03  0.21256154021E+03  0.77000000000E+02 0.  0.
<mgrwt>
<rscale>  0 0.32491972E+03</rscale>
<asrwt>0</asrwt>
<pdfrwt beam="1">  1        2 0.59349407E-01 0.32491972E+03</pdfrwt>
<pdfrwt beam="2">  1       -2 0.90756909E-02 0.32491972E+03</pdfrwt>
<totfact> 0.64429167E+03</totfact>
</mgrwt>
</event>
<event>
 4    1  0.6919593E-004  0.4644987E+03  0.7818608E-02  0.1023484E+00
          2   -1    0    0  501    0  0.00000000000E+00  0.00000000000E+00  0.26205835061E+04  0.26205835061E+04  0.25500000000E-02 0.  1.
         -2   -1    0    0    0  501 -0.00000000000E+00 -0.00000000000E+00 -0.20583111596E+02  0.20583111754E+02  0.25500000000E-02 0. -1.
    5000001    1    1    2    0    0  0.15092624825E+03 -0.15881408174E+03  0.12819135331E+04  0.13027785504E+04  0.77000000000E+02 0.  0.
   -5000001    1    1    2    0    0 -0.15092624825E+03  0.15881408174E+03  0.13180868614E+04  0.13383880675E+04  0.77000000000E+02 0.  0.
<mgrwt>
<rscale>  0 0.46449871E+03</rscale>
<asrwt>0</asrwt>
<pdfrwt beam="1">  1        2 0.37436909E+00 0.46449871E+03</pdfrwt>
<pdfrwt beam="2">  1       -2 0.29404444E-02 0.46449871E+03</pdfrwt>
<totfact> 0.18727352E+03</totfact>
</mgrwt>
</event>
<event>
 4    1  0.6919593E-004  0.3997964E+03  0.7818608E-02  0.1043850E+00
         -2   -1    0    0    0  501 -0.00000000000E+00  0.00000000000E+00  0.20227748538E+02  0.20227748698E+02  0.25500000000E-02 0. -1.
          2   -1    0    0  501    0  0.00000000000E+00 -0.00000000000E+00 -0.19754686510E+04  0.19754686510E+04  0.25500000000E-02 0.  1.
    5000001    1    1    2    0    0  0.17843467661E+03 -0.24701256854E+02 -0.77912586110E+03  0.80337736671E+03  0.77000000000E+02 0.  0.
   -5000001    1    1    2    0    0 -0.17843467661E+03  0.24701256854E+02 -0.11761150413E+04  0.11923190330E+04  0.77000000000E+02 0.  0.
<mgrwt>
<rscale>  0 0.39979636E+03</rscale>
<asrwt>0</asrwt>
<pdfrwt beam="1">  1        2 0.28220969E+00 0.39979636E+03</pdfrwt>
<pdfrwt beam="2">  1       -2 0.28896796E-02 0.39979636E+03</pdfrwt>
<totfact> 0.40619937E+03</totfact>
</mgrwt>
</event>
<event>
 4    1  0.6919593E-004  0.3110633E+03  0.7818608E-02  0.1079837E+00
          2   -1    0    0  501    0  0.00000000000E+00  0.00000000000E+00  0.11882333479E+03  0.11882333482E+03  0.25500000000E-02 0.  1.
         -2   -1    0    0    0  501 -0.00000000000E+00 -0.00000000000E+00 -0.20358031301E+03  0.20358031302E+03  0.25500000000E-02 0. -1.
    5000001    1    1    2    0    0  0.75916443777E+02 -0.55350804903E+02 -0.14304866453E+03  0.18766709478E+03  0.77000000000E+02 0.  0.
   -5000001    1    1    2    0    0 -0.75916443777E+02  0.55350804903E+02  0.58291686314E+02  0.13473655307E+03  0.77000000000E+02 0.  0.
<mgrwt>
<rscale>  0 0.31106328E+03</rscale>
<asrwt>0</asrwt>
<pdfrwt beam="1">  1        2 0.16974762E-01 0.31106328E+03</pdfrwt>
<pdfrwt beam="2">  1       -2 0.29082902E-01 0.31106328E+03</pdfrwt>
<totfact> 0.36411976E+03</totfact>
</mgrwt>
</event>
<event>
 4    1  0.6919593E-004  0.2400158E+03  0.7818608E-02  0.1119782E+00
         -2   -1    0    0    0  501 -0.00000000000E+00  0.00000000000E+00  0.62292514206E+02  0.62292514259E+02  0.25500000000E-02 0. -1.
          2   -1    0    0  501    0  0.00000000000E+00 -0.00000000000E+00 -0.23119781933E+03  0.23119781935E+03  0.25500000000E-02 0.  1.
    5000001    1    1    2    0    0  0.23154594160E+02 -0.18977974821E+02  0.21983958260E+02  0.85490310444E+02  0.77000000000E+02 0.  0.
   -5000001    1    1    2    0    0 -0.23154594160E+02  0.18977974821E+02 -0.19088926339E+03  0.20800002316E+03  0.77000000000E+02 0.  0.
<mgrwt>
<rscale>  0 0.24001578E+03</rscale>
<asrwt>0</asrwt>
<pdfrwt beam="1">  1        2 0.33028259E-01 0.24001578E+03</pdfrwt>
<pdfrwt beam="2">  1       -2 0.88989308E-02 0.24001578E+03</pdfrwt>
<totfact> 0.12364068E+04</totfact>
</mgrwt>
</event>
<event>
 4    1  0.6919593E-004  0.2872014E+03  0.7818608E-02  0.1091819E+00
          2   -1    0    0  501    0  0.00000000000E+00  0.00000000000E+00  0.64057280225E+03  0.64057280226E+03  0.25500000000E-02 0.  1.
         -2   -1    0    0    0  501 -0.00000000000E+00 -0.00000000000E+00 -0.32191742473E+02  0.32191742574E+02  0.25500000000E-02 0. -1.
    5000001    1    1    2    0    0 -0.45715701096E+02  0.10253943031E+03  0.19715427676E+03  0.23958937568E+03  0.77000000000E+02 0.  0.
   -5000001    1    1    2    0    0  0.45715701096E+02 -0.10253943031E+03  0.41122678302E+03  0.43317516915E+03  0.77000000000E+02 0.  0.
<mgrwt>
<rscale>  0 0.28720136E+03</rscale>
<asrwt>0</asrwt>
<pdfrwt beam="1">  1        2 0.91510401E-01 0.28720136E+03</pdfrwt>
<pdfrwt beam="2">  1       -2 0.45988203E-02 0.28720136E+03</pdfrwt>
<totfact> 0.11308631E+04</totfact>
</mgrwt>
</event>
<event>
 4    1  0.6919593E-004  0.1614754E+03  0.7818608E-02  0.1187041E+00
          2   -1    0    0  501    0  0.00000000000E+00  0.00000000000E+00  0.16395016566E+04  0.16395016566E+04  0.25500000000E-02 0.  1.
         -2   -1    0    0    0  501 -0.00000000000E+00 -0.00000000000E+00 -0.39759479862E+01  0.39759488039E+01  0.25500000000E-02 0. -1.
    5000001    1    1    2    0    0  0.62991077024E+01 -0.22066904800E+02  0.89851327616E+03  0.90209851706E+03  0.77000000000E+02 0.  0.
   -5000001    1    1    2    0    0 -0.62991077024E+01  0.22066904800E+02  0.73701243240E+03  0.74137908830E+03  0.77000000000E+02 0.  0.
<mgrwt>
<rscale>  0 0.16147537E+03</rscale>
<asrwt>0</asrwt>
<pdfrwt beam="1">  1        2 0.23421527E+00 0.16147537E+03</pdfrwt>
<pdfrwt beam="2">  1       -2 0.56799082E-03 0.16147537E+03</pdfrwt>
<totfact> 0.61693681E+04</totfact>
</mgrwt>
</event>
<event>
 4    1  0.6919593E-004  0.2031262E+03  0.7818608E-02  0.1147128E+00
         -2   -1    0    0    0  501 -0.00000000000E+00  0.00000000000E+00  0.37172325459E+03  0.37172325460E+03  0.25500000000E-02 0. -1.
          2   -1    0    0  501    0  0.00000000000E+00 -0.00000000000E+00 -0.27749301449E+02  0.27749301566E+02  0.25500000000E-02 0.  1.
    5000001    1    1    2    0    0  0.29220238475E+02  0.58579354030E+02  0.15225227076E+03  0.18274330906E+03  0.77000000000E+02 0.  0.
   -5000001    1    1    2    0    0 -0.29220238475E+02 -0.58579354030E+02  0.19172168238E+03  0.21672924710E+03  0.77000000000E+02 0.  0.
<mgrwt>
<rscale>  0 0.20312617E+03</rscale>
<asrwt>0</asrwt>
<pdfrwt beam="1">  1        2 0.39641864E-02 0.20312617E+03</pdfrwt>
<pdfrwt beam="2">  1       -2 0.53103316E-01 0.20312617E+03</pdfrwt>
<totfact> 0.71093068E+03</totfact>
</mgrwt>
</event>
<event>
 4    1  0.6919593E-004  0.2203670E+03  0.7818608E-02  0.1133610E+00
          2   -1    0    0  501    0  0.00000000000E+00  0.00000000000E+00  0.13418936069E+04  0.13418936069E+04  0.25500000000E-02 0.  1.
         -2   -1    0    0    0  501 -0.00000000000E+00 -0.00000000000E+00 -0.90472181977E+01  0.90472185570E+01  0.25500000000E-02 0. -1.
    5000001    1    1    2    0    0 -0.54004536758E+02 -0.53510691843E+02  0.79377068857E+03  0.80111222071E+03  0.77000000000E+02 0.  0.
   -5000001    1    1    2    0    0  0.54004536758E+02  0.53510691843E+02  0.53907570014E+03  0.54982860476E+03  0.77000000000E+02 0.  0.
<mgrwt>
<rscale>  0 0.22036701E+03</rscale>
<asrwt>0</asrwt>
<pdfrwt beam="1">  1        2 0.19169879E+00 0.22036701E+03</pdfrwt>
<pdfrwt beam="2">  1       -2 0.12924617E-02 0.22036701E+03</pdfrwt>
<totfact> 0.27233806E+04</totfact>
</mgrwt>
</event>
<event>
 4    1  0.6919593E-004  0.3591196E+03  0.7818608E-02  0.1058933E+00
          2   -1    0    0  501    0  0.00000000000E+00  0.00000000000E+00  0.27422775567E+04  0.27422775567E+04  0.25500000000E-02 0.  1.
         -2   -1    0    0    0  501 -0.00000000000E+00 -0.00000000000E+00 -0.11757278726E+02  0.11757279002E+02  0.25500000000E-02 0. -1.
    5000001    1    1    2    0    0  0.82921059328E+02 -0.89178111967E+02  0.21870835410E+04  0.21918239101E+04  0.77000000000E+02 0.  0.
   -5000001    1    1    2    0    0 -0.82921059328E+02  0.89178111967E+02  0.54343673699E+03  0.56221092559E+03  0.77000000000E+02 0.  0.
<mgrwt>
<rscale>  0 0.35911960E+03</rscale>
<asrwt>0</asrwt>
<pdfrwt beam="1">  1        2 0.39175407E+00 0.35911960E+03</pdfrwt>
<pdfrwt beam="2">  1       -2 0.16796107E-02 0.35911960E+03</pdfrwt>
<totfact> 0.37635086E+03</totfact>
</mgrwt>
</event>
<event>
 4    1  0.6919593E-004  0.2315599E+03  0.7818608E-02  0.1125547E+00
         -2   -1    0    0    0  501 -0.00000000000E+00  0.00000000000E+00  0.21885712664E+02  0.21885712812E+02  0.25500000000E-02 0. -1.
          2   -1    0    0  501    0  0.00000000000E+00 -0.00000000000E+00 -0.61249999913E+03  0.61249999913E+03  0.25500000000E-02 0.  1.
    5000001    1    1    2    0    0 -0.32151344187E+02  0.80242103542E+02 -0.30042878000E+03  0.32196110940E+03  0.77000000000E+02 0.  0.
   -5000001    1    1    2    0    0  0.32151344187E+02 -0.80242103542E+02 -0.29018550647E+03  0.31242460255E+03  0.77000000000E+02 0.  0.
<mgrwt>
<rscale>  0 0.23155992E+03</rscale>
<asrwt>0</asrwt>
<pdfrwt beam="1">  1        2 0.87499989E-01 0.23155992E+03</pdfrwt>
<pdfrwt beam="2">  1       -2 0.31265308E-02 0.23155992E+03</pdfrwt>
<totfact> 0.21014925E+04</totfact>
</mgrwt>
</event>
<event>
 4    1  0.6919593E-004  0.3931280E+03  0.7818608E-02  0.1046186E+00
         -2   -1    0    0    0  501 -0.00000000000E+00  0.00000000000E+00  0.13724452878E+03  0.13724452880E+03  0.25500000000E-02 0. -1.
          2   -1    0    0  501    0  0.00000000000E+00 -0.00000000000E+00 -0.28152232843E+03  0.28152232844E+03  0.25500000000E-02 0.  1.
    5000001    1    1    2    0    0 -0.67138682363E+02 -0.15304099319E+03 -0.14577966388E+03  0.23475489061E+03  0.77000000000E+02 0.  0.
   -5000001    1    1    2    0    0  0.67138682363E+02  0.15304099319E+03  0.15018642280E+01  0.18401196663E+03  0.77000000000E+02 0.  0.
<mgrwt>
<rscale>  0 0.39312797E+03</rscale>
<asrwt>0</asrwt>
<pdfrwt beam="1">  1        2 0.40217475E-01 0.39312797E+03</pdfrwt>
<pdfrwt beam="2">  1       -2 0.19606361E-01 0.39312797E+03</pdfrwt>
<totfact> 0.27821966E+03</totfact>
</mgrwt>
</event>
<event>
 4    1  0.6919593E-004  0.5003669E+03  0.7818608E-02  0.1013683E+00
          2   -1    0    0  501    0  0.00000000000E+00  0.00000000000E+00  0.11209181890E+04  0.11209181890E+04  0.25500000000E-02 0.  1.
         -2   -1    0    0    0  501 -0.00000000000E+00 -0.00000000000E+00 -0.55839731737E+02  0.55839731795E+02  0.25500000000E-02 0. -1.
    5000001    1    1    2    0    0  0.20732867398E+02  0.18683966925E+03  0.87596382582E+03  0.89921106418E+03  0.77000000000E+02 0.  0.
   -5000001    1    1    2    0    0 -0.20732867398E+02 -0.18683966925E+03  0.18911463145E+03  0.27754685663E+03  0.77000000000E+02 0.  0.
<mgrwt>
<rscale>  0 0.50036695E+03</rscale>
<asrwt>0</asrwt>
<pdfrwt beam="1">  1        2 0.16013114E+00 0.50036695E+03</pdfrwt>
<pdfrwt beam="2">  1       -2 0.79771058E-02 0.50036695E+03</pdfrwt>
<totfact> 0.23576937E+03</totfact>
</mgrwt>
</event>
<event>
 4    1  0.6919593E-004  0.2201186E+03  0.7818608E-02  0.1133795E+00
         -2   -1    0    0    0  501 -0.00000000000E+00  0.00000000000E+00  0.16161508755E+02  0.16161508956E+02  0.25500000000E-02 0. -1.
          2   -1    0    0  501    0  0.00000000000E+00 -0.00000000000E+00 -0.74949959940E+03  0.74949959940E+03  0.25500000000E-02 0.  1.
    5000001    1    1    2    0    0  0.60658527651E+02  0.17449014897E+01 -0.19269522414E+03  0.21620118192E+03  0.77000000000E+02 0.  0.
   -5000001    1    1    2    0    0 -0.60658527651E+02 -0.17449014897E+01 -0.54064286651E+03  0.54945992644E+03  0.77000000000E+02 0.  0.
<mgrwt>
<rscale>  0 0.22011855E+03</rscale>
<asrwt>0</asrwt>
<pdfrwt beam="1">  1        2 0.10707135E+00 0.22011855E+03</pdfrwt>
<pdfrwt beam="2">  1       -2 0.23087874E-02 0.22011855E+03</pdfrwt>
<totfact> 0.25886953E+04</totfact>
</mgrwt>
</event>
<event>
 4    1  0.6919593E-004  0.2246853E+03  0.7818608E-02  0.1130437E+00
         -2   -1    0    0    0  501 -0.00000000000E+00  0.00000000000E+00  0.11694210019E+02  0.11694210297E+02  0.25500000000E-02 0. -1.
          2   -1    0    0  501    0  0.00000000000E+00 -0.00000000000E+00 -0.10792413953E+04  0.10792413953E+04  0.25500000000E-02 0.  1.
    5000001    1    1    2    0    0  0.69373423127E+02 -0.42389193074E+02 -0.57783749758E+03  0.58858702767E+03  0.77000000000E+02 0.  0.
   -5000001    1    1    2    0    0 -0.69373423127E+02  0.42389193074E+02 -0.48970968773E+03  0.50234857797E+03  0.77000000000E+02 0.  0.
<mgrwt>
<rscale>  0 0.22468534E+03</rscale>
<asrwt>0</asrwt>
<pdfrwt beam="1">  1        2 0.15417728E+00 0.22468534E+03</pdfrwt>
<pdfrwt beam="2">  1       -2 0.16706021E-02 0.22468534E+03</pdfrwt>
<totfact> 0.25987847E+04</totfact>
</mgrwt>
</event>
<event>
 4    1  0.6919593E-004  0.2591583E+03  0.7818608E-02  0.1107650E+00
          2   -1    0    0  501    0  0.00000000000E+00  0.00000000000E+00  0.67579268015E+02  0.67579268063E+02  0.25500000000E-02 0.  1.
         -2   -1    0    0    0  501 -0.00000000000E+00 -0.00000000000E+00 -0.24846020205E+03  0.24846020206E+03  0.25500000000E-02 0. -1.
    5000001    1    1    2    0    0  0.66592042732E+02 -0.37311250199E+02 -0.39075242202E+01  0.10849377075E+03  0.77000000000E+02 0.  0.
   -5000001    1    1    2    0    0 -0.66592042732E+02  0.37311250199E+02 -0.17697340981E+03  0.20754569937E+03  0.77000000000E+02 0.  0.
<mgrwt>
<rscale>  0 0.25915832E+03</rscale>
<asrwt>0</asrwt>
<pdfrwt beam="1">  1        2 0.96541813E-02 0.25915832E+03</pdfrwt>
<pdfrwt beam="2">  1       -2 0.35494314E-01 0.25915832E+03</pdfrwt>
<totfact> 0.49643344E+03</totfact>
</mgrwt>
</event>
<event>
 4    1  0.6919593E-004  0.1864671E+03  0.7818608E-02  0.1161687E+00
         -2   -1    0    0    0  501 -0.00000000000E+00  0.00000000000E+00  0.28061295438E+01  0.28061307025E+01  0.25500000000E-02 0. -1.
          2   -1    0    0  501    0  0.00000000000E+00 -0.00000000000E+00 -0.30976791699E+04  0.30976791699E+04  0.25500000000E-02 0.  1.
    5000001    1    1    2    0    0  0.46693948705E+02 -0.16556639638E+02 -0.12551306830E+04  0.12584659227E+04  0.77000000000E+02 0.  0.
   -5000001    1    1    2    0    0 -0.46693948705E+02  0.16556639638E+02 -0.18397423574E+04  0.18420193779E+04  0.77000000000E+02 0.  0.
<mgrwt>
<rscale>  0 0.18646706E+03</rscale>
<asrwt>0</asrwt>
<pdfrwt beam="1">  1        2 0.44252340E+00 0.18646706E+03</pdfrwt>
<pdfrwt beam="2">  1       -2 0.40087772E-03 0.18646706E+03</pdfrwt>
<totfact> 0.19497408E+04</totfact>
</mgrwt>
</event>
<event>
 4    1  0.6919593E-004  0.2057058E+03  0.7818608E-02  0.1145012E+00
          2   -1    0    0  501    0  0.00000000000E+00  0.00000000000E+00  0.29434143788E+03  0.29434143789E+03  0.25500000000E-02 0.  1.
         -2   -1    0    0    0  501 -0.00000000000E+00 -0.00000000000E+00 -0.35940299241E+02  0.35940299331E+02  0.25500000000E-02 0. -1.
    5000001    1    1    2    0    0 -0.64309516480E+02 -0.50441116023E+01  0.93711219977E+02  0.13737521509E+03  0.77000000000E+02 0.  0.
   -5000001    1    1    2    0    0  0.64309516480E+02  0.50441116023E+01  0.16468991866E+03  0.19290652213E+03  0.77000000000E+02 0.  0.
<mgrwt>
<rscale>  0 0.20570580E+03</rscale>
<asrwt>0</asrwt>
<pdfrwt beam="1">  1        2 0.42048778E-01 0.20570580E+03</pdfrwt>
<pdfrwt beam="2">  1       -2 0.51343284E-02 0.20570580E+03</pdfrwt>
<totfact> 0.22016763E+04</totfact>
</mgrwt>
</event>
<event>
 4    1  0.6919593E-004  0.2983334E+03  0.7818608E-02  0.1086077E+00
          2   -1    0    0  501    0  0.00000000000E+00  0.00000000000E+00  0.47609357187E+03  0.47609357187E+03  0.25500000000E-02 0.  1.
         -2   -1    0    0    0  501 -0.00000000000E+00 -0.00000000000E+00 -0.46735988268E+02  0.46735988337E+02  0.25500000000E-02 0. -1.
    5000001    1    1    2    0    0  0.99098726345E+02 -0.15192613173E+02  0.75906269472E+02  0.14745214411E+03  0.77000000000E+02 0.  0.
   -5000001    1    1    2    0    0 -0.99098726345E+02  0.15192613173E+02  0.35345131413E+03  0.37537741610E+03  0.77000000000E+02 0.  0.
<mgrwt>
<rscale>  0 0.29833339E+03</rscale>
<asrwt>0</asrwt>
<pdfrwt beam="1">  1        2 0.68013373E-01 0.29833339E+03</pdfrwt>
<pdfrwt beam="2">  1       -2 0.66765692E-02 0.29833339E+03</pdfrwt>
<totfact> 0.89457003E+03</totfact>
</mgrwt>
</event>
<event>
 4    1  0.6919593E-004  0.2192276E+03  0.7818608E-02  0.1134460E+00
          2   -1    0    0  501    0  0.00000000000E+00  0.00000000000E+00  0.12201410885E+03  0.12201410888E+03  0.25500000000E-02 0.  1.
         -2   -1    0    0    0  501 -0.00000000000E+00 -0.00000000000E+00 -0.98473734079E+02  0.98473734112E+02  0.25500000000E-02 0. -1.
    5000001    1    1    2    0    0  0.18087205225E+02  0.55699915487E+02 -0.40067906102E+02  0.10470942974E+03  0.77000000000E+02 0.  0.
   -5000001    1    1    2    0    0 -0.18087205225E+02 -0.55699915487E+02  0.63608280878E+02  0.11577841325E+03  0.77000000000E+02 0.  0.
<mgrwt>
<rscale>  0 0.21922760E+03</rscale>
<asrwt>0</asrwt>
<pdfrwt beam="1">  1        2 0.17430587E-01 0.21922760E+03</pdfrwt>
<pdfrwt beam="2">  1       -2 0.14067676E-01 0.21922760E+03</pdfrwt>
<totfact> 0.12085298E+04</totfact>
</mgrwt>
</event>
<event>
 4    1  0.6919593E-004  0.2824504E+03  0.7818608E-02  0.1094358E+00
          2   -1    0    0  501    0  0.00000000000E+00  0.00000000000E+00  0.37797209213E+03  0.37797209214E+03  0.25500000000E-02 0.  1.
         -2   -1    0    0    0  501 -0.00000000000E+00 -0.00000000000E+00 -0.52767278185E+02  0.52767278247E+02  0.25500000000E-02 0. -1.
    5000001    1    1    2    0    0  0.63441174562E+02 -0.99939278830E+02  0.16520676482E+03  0.21733595474E+03  0.77000000000E+02 0.  0.
   -5000001    1    1    2    0    0 -0.63441174562E+02  0.99939278830E+02  0.15999804912E+03  0.21340341564E+03  0.77000000000E+02 0.  0.
<mgrwt>
<rscale>  0 0.28245041E+03</rscale>
<asrwt>0</asrwt>
<pdfrwt beam="1">  1        2 0.53996011E-01 0.28245041E+03</pdfrwt>
<pdfrwt beam="2">  1       -2 0.75381829E-02 0.28245041E+03</pdfrwt>
<totfact> 0.95074744E+03</totfact>
</mgrwt>
</event>
<event>
 4    1  0.6919593E-004  0.3277556E+03  0.7818608E-02  0.1072134E+00
         -2   -1    0    0    0  501 -0.00000000000E+00  0.00000000000E+00  0.16007873509E+03  0.16007873511E+03  0.25500000000E-02 0. -1.
          2   -1    0    0  501    0  0.00000000000E+00 -0.00000000000E+00 -0.16776702685E+03  0.16776702687E+03  0.25500000000E-02 0.  1.
    5000001    1    1    2    0    0  0.14277446130E+03 -0.21331099563E+02 -0.13193954533E+02  0.16414214280E+03  0.77000000000E+02 0.  0.
   -5000001    1    1    2    0    0 -0.14277446130E+03  0.21331099563E+02  0.55056627758E+01  0.16370361917E+03  0.77000000000E+02 0.  0.
<mgrwt>
<rscale>  0 0.32775560E+03</rscale>
<asrwt>0</asrwt>
<pdfrwt beam="1">  1        2 0.23966718E-01 0.32775560E+03</pdfrwt>
<pdfrwt beam="2">  1       -2 0.22868391E-01 0.32775560E+03</pdfrwt>
<totfact> 0.37620447E+03</totfact>
</mgrwt>
</event>
<event>
 4    1  0.6919593E-004  0.2109453E+03  0.7818608E-02  0.1140820E+00
          2   -1    0    0  501    0  0.00000000000E+00  0.00000000000E+00  0.44915192377E+03  0.44915192378E+03  0.25500000000E-02 0.  1.
         -2   -1    0    0    0  501 -0.00000000000E+00 -0.00000000000E+00 -0.24767753841E+02  0.24767753973E+02  0.25500000000E-02 0. -1.
    5000001    1    1    2    0    0 -0.41709021067E+02 -0.53577359144E+02  0.15783862374E+03  0.18828756464E+03  0.77000000000E+02 0.  0.
   -5000001    1    1    2    0    0  0.41709021067E+02  0.53577359144E+02  0.26654554619E+03  0.28563211312E+03  0.77000000000E+02 0.  0.
<mgrwt>
<rscale>  0 0.21094534E+03</rscale>
<asrwt>0</asrwt>
<pdfrwt beam="1">  1        2 0.64164556E-01 0.21094534E+03</pdfrwt>
<pdfrwt beam="2">  1       -2 0.35382508E-02 0.21094534E+03</pdfrwt>
<totfact> 0.24510739E+04</totfact>
</mgrwt>
</event>
<event>
 4    1  0.6919593E-004  0.3071095E+03  0.7818608E-02  0.1081740E+00
          2   -1    0    0  501    0  0.00000000000E+00  0.00000000000E+00  0.38462140906E+03  0.38462140906E+03  0.25500000000E-02 0.  1.
         -2   -1    0    0    0  501 -0.00000000000E+00 -0.00000000000E+00 -0.61304592667E+02  0.61304592720E+02  0.25500000000E-02 0. -1.
    5000001    1    1    2    0    0  0.42826760965E+02  0.12160820266E+03  0.11511764305E+03  0.18921881025E+03  0.77000000000E+02 0.  0.
   -5000001    1    1    2    0    0 -0.42826760965E+02 -0.12160820266E+03  0.20819917333E+03  0.25670719154E+03  0.77000000000E+02 0.  0.
<mgrwt>
<rscale>  0 0.30710948E+03</rscale>
<asrwt>0</asrwt>
<pdfrwt beam="1">  1        2 0.54945917E-01 0.30710948E+03</pdfrwt>
<pdfrwt beam="2">  1       -2 0.87577987E-02 0.30710948E+03</pdfrwt>
<totfact> 0.73987751E+03</totfact>
</mgrwt>
</event>
<event>
 4    1  0.6919593E-004  0.2810000E+03  0.7818608E-02  0.1095144E+00
         -2   -1    0    0    0  501 -0.00000000000E+00  0.00000000000E+00  0.29516886062E+02  0.29516886172E+02  0.25500000000E-02 0. -1.
          2   -1    0    0  501    0  0.00000000000E+00 -0.00000000000E+00 -0.66877829336E+03  0.66877829337E+03  0.25500000000E-02 0.  1.
    5000001    1    1    2    0    0  0.72550364319E+02  0.79079686314E+02 -0.43865590398E+03  0.45811041709E+03  0.77000000000E+02 0.  0.
   -5000001    1    1    2    0    0 -0.72550364319E+02 -0.79079686314E+02 -0.20060550332E+03  0.24018476245E+03  0.77000000000E+02 0.  0.
<mgrwt>
<rscale>  0 0.28100002E+03</rscale>
<asrwt>0</asrwt>
<pdfrwt beam="1">  1        2 0.95539747E-01 0.28100002E+03</pdfrwt>
<pdfrwt beam="2">  1       -2 0.42166984E-02 0.28100002E+03</pdfrwt>
<totfact> 0.12250908E+04</totfact>
</mgrwt>
</event>
<event>
 4    1  0.6919593E-004  0.1954481E+03  0.7818608E-02  0.1153637E+00
         -2   -1    0    0    0  501 -0.00000000000E+00  0.00000000000E+00  0.10015366738E+03  0.10015366742E+03  0.25500000000E-02 0. -1.
          2   -1    0    0  501    0  0.00000000000E+00 -0.00000000000E+00 -0.95353360818E+02  0.95353360852E+02  0.25500000000E-02 0.  1.
    5000001    1    1    2    0    0 -0.24101643962E+01 -0.49906604969E+02  0.35943990333E+02  0.98577119825E+02  0.77000000000E+02 0.  0.
   -5000001    1    1    2    0    0  0.24101643962E+01  0.49906604969E+02 -0.31143683768E+02  0.96929908442E+02  0.77000000000E+02 0.  0.
<mgrwt>
<rscale>  0 0.19544809E+03</rscale>
<asrwt>0</asrwt>
<pdfrwt beam="1">  1        2 0.13621909E-01 0.19544809E+03</pdfrwt>
<pdfrwt beam="2">  1       -2 0.14307667E-01 0.19544809E+03</pdfrwt>
<totfact> 0.15587018E+04</totfact>
</mgrwt>
</event>
<event>
 4    1  0.6919593E-004  0.1900195E+03  0.7818608E-02  0.1158444E+00
         -2   -1    0    0    0  501 -0.00000000000E+00  0.00000000000E+00  0.55656871043E+01  0.55656876885E+01  0.25500000000E-02 0. -1.
          2   -1    0    0  501    0  0.00000000000E+00 -0.00000000000E+00 -0.16218761820E+04  0.16218761820E+04  0.25500000000E-02 0.  1.
    5000001    1    1    2    0    0  0.45222554128E+02 -0.16134073308E+02 -0.10492557592E+04  0.10531723676E+04  0.77000000000E+02 0.  0.
   -5000001    1    1    2    0    0 -0.45222554128E+02  0.16134073308E+02 -0.56705473573E+03  0.57426950210E+03  0.77000000000E+02 0.  0.
<mgrwt>
<rscale>  0 0.19001953E+03</rscale>
<asrwt>0</asrwt>
<pdfrwt beam="1">  1        2 0.23169629E+00 0.19001953E+03</pdfrwt>
<pdfrwt beam="2">  1       -2 0.79509924E-03 0.19001953E+03</pdfrwt>
<totfact> 0.39371955E+04</totfact>
</mgrwt>
</event>
<event>
 4    1  0.6919593E-004  0.1745930E+03  0.7818608E-02  0.1173141E+00
          2   -1    0    0  501    0  0.00000000000E+00  0.00000000000E+00  0.11005688276E+03  0.11005688279E+03  0.25500000000E-02 0.  1.
         -2   -1    0    0    0  501 -0.00000000000E+00 -0.00000000000E+00 -0.69243086754E+02  0.69243086801E+02  0.25500000000E-02 0. -1.
    5000001    1    1    2    0    0 -0.28670790126E+02  0.29260036942E+02  0.16631606458E+02  0.88790620573E+02  0.77000000000E+02 0.  0.
   -5000001    1    1    2    0    0  0.28670790126E+02 -0.29260036942E+02  0.24182189548E+02  0.90509349018E+02  0.77000000000E+02 0.  0.
<mgrwt>
<rscale>  0 0.17459299E+03</rscale>
<asrwt>0</asrwt>
<pdfrwt beam="1">  1        2 0.15722412E-01 0.17459299E+03</pdfrwt>
<pdfrwt beam="2">  1       -2 0.98918694E-02 0.17459299E+03</pdfrwt>
<totfact> 0.23568174E+04</totfact>
</mgrwt>
</event>
<event>
 4    1  0.6919593E-004  0.4250679E+03  0.7818608E-02  0.1035429E+00
          2   -1    0    0  501    0  0.00000000000E+00  0.00000000000E+00  0.15955351624E+04  0.15955351624E+04  0.25500000000E-02 0.  1.
         -2   -1    0    0    0  501 -0.00000000000E+00 -0.00000000000E+00 -0.28310669962E+02  0.28310670077E+02  0.25500000000E-02 0. -1.
    5000001    1    1    2    0    0  0.14222932532E+03 -0.67211558455E+02  0.12435478899E+04  0.12558212170E+04  0.77000000000E+02 0.  0.
   -5000001    1    1    2    0    0 -0.14222932532E+03  0.67211558455E+02  0.32367660251E+03  0.36802461546E+03  0.77000000000E+02 0.  0.
<mgrwt>
<rscale>  0 0.42506785E+03</rscale>
<asrwt>0</asrwt>
<pdfrwt beam="1">  1        2 0.22793365E+00 0.42506785E+03</pdfrwt>
<pdfrwt beam="2">  1       -2 0.40443804E-02 0.42506785E+03</pdfrwt>
<totfact> 0.37794260E+03</totfact>
</mgrwt>
</event>
<event>
 4    1  0.6919593E-004  0.3261067E+03  0.7818608E-02  0.1072873E+00
          2   -1    0    0  501    0  0.00000000000E+00  0.00000000000E+00  0.81111908471E+03  0.81111908472E+03  0.25500000000E-02 0.  1.
         -2   -1    0    0    0  501 -0.00000000000E+00 -0.00000000000E+00 -0.32777416903E+02  0.32777417002E+02  0.25500000000E-02 0. -1.
    5000001    1    1    2    0    0  0.14230382842E+03  0.19942586912E+02  0.38127824132E+03  0.41466876379E+03  0.77000000000E+02 0.  0.
   -5000001    1    1    2    0    0 -0.14230382842E+03 -0.19942586912E+02  0.39706342649E+03  0.42922773793E+03  0.77000000000E+02 0.  0.
<mgrwt>
<rscale>  0 0.32610666E+03</rscale>
<asrwt>0</asrwt>
<pdfrwt beam="1">  1        2 0.11587415E+00 0.32610666E+03</pdfrwt>
<pdfrwt beam="2">  1       -2 0.46824884E-02 0.32610666E+03</pdfrwt>
<totfact> 0.83165713E+03</totfact>
</mgrwt>
</event>
<event>
 4    1  0.6919593E-004  0.2060722E+03  0.7818608E-02  0.1144715E+00
         -2   -1    0    0    0  501 -0.00000000000E+00  0.00000000000E+00  0.24941651868E+01  0.24941664904E+01  0.25500000000E-02 0. -1.
          2   -1    0    0  501    0  0.00000000000E+00 -0.00000000000E+00 -0.42565078451E+04  0.42565078451E+04  0.25500000000E-02 0.  1.
    5000001    1    1    2    0    0 -0.52805844545E+02 -0.31807056272E+02 -0.27426390898E+04  0.27444121999E+04  0.77000000000E+02 0.  0.
   -5000001    1    1    2    0    0  0.52805844545E+02  0.31807056272E+02 -0.15113745901E+04  0.15145898117E+04  0.77000000000E+02 0.  0.
<mgrwt>
<rscale>  0 0.20607219E+03</rscale>
<asrwt>0</asrwt>
<pdfrwt beam="1">  1        2 0.60806789E+00 0.20607219E+03</pdfrwt>
<pdfrwt beam="2">  1       -2 0.35631213E-03 0.20607219E+03</pdfrwt>
<totfact> 0.46330849E+03</totfact>
</mgrwt>
</event>
<event>
 4    1  0.6919593E-004  0.1807638E+03  0.7818608E-02  0.1167066E+00
         -2   -1    0    0    0  501 -0.00000000000E+00  0.00000000000E+00  0.13139233282E+03  0.13139233284E+03  0.25500000000E-02 0. -1.
          2   -1    0    0  501    0  0.00000000000E+00 -0.00000000000E+00 -0.62171747527E+02  0.62171747579E+02  0.25500000000E-02 0.  1.
    5000001    1    1    2    0    0 -0.23081051757E+02 -0.35115785087E+02  0.57924445334E+02  0.10511943055E+03  0.77000000000E+02 0.  0.
   -5000001    1    1    2    0    0  0.23081051757E+02  0.35115785087E+02  0.11296139957E+02  0.88444649869E+02  0.77000000000E+02 0.  0.
<mgrwt>
<rscale>  0 0.18076383E+03</rscale>
<asrwt>0</asrwt>
<pdfrwt beam="1">  1        2 0.88816783E-02 0.18076383E+03</pdfrwt>
<pdfrwt beam="2">  1       -2 0.18770333E-01 0.18076383E+03</pdfrwt>
<totfact> 0.16644077E+04</totfact>
</mgrwt>
</event>
<event>
 4    1  0.6919593E-004  0.2236480E+03  0.7818608E-02  0.1131192E+00
          2   -1    0    0  501    0  0.00000000000E+00  0.00000000000E+00  0.11775184285E+04  0.11775184285E+04  0.25500000000E-02 0.  1.
         -2   -1    0    0    0  501 -0.00000000000E+00 -0.00000000000E+00 -0.10619455639E+02  0.10619455945E+02  0.25500000000E-02 0. -1.
    5000001    1    1    2    0    0 -0.80842384155E+02  0.87573797518E+00  0.55012548392E+03  0.56134063282E+03  0.77000000000E+02 0.  0.
   -5000001    1    1    2    0    0  0.80842384155E+02 -0.87573797518E+00  0.61677348894E+03  0.62679725163E+03  0.77000000000E+02 0.  0.
<mgrwt>
<rscale>  0 0.22364798E+03</rscale>
<asrwt>0</asrwt>
<pdfrwt beam="1">  1        2 0.16821693E+00 0.22364798E+03</pdfrwt>
<pdfrwt beam="2">  1       -2 0.15170650E-02 0.22364798E+03</pdfrwt>
<totfact> 0.26381629E+04</totfact>
</mgrwt>
</event>
<event>
 4    1  0.6919593E-004  0.2384877E+03  0.7818608E-02  0.1120804E+00
          2   -1    0    0  501    0  0.00000000000E+00  0.00000000000E+00  0.22974715948E+03  0.22974715949E+03  0.25500000000E-02 0.  1.
         -2   -1    0    0    0  501 -0.00000000000E+00 -0.00000000000E+00 -0.61890198734E+02  0.61890198786E+02  0.25500000000E-02 0. -1.
    5000001    1    1    2    0    0  0.87032678334E+02 -0.24805710772E+02  0.71694551644E+02  0.13877722839E+03  0.77000000000E+02 0.  0.
   -5000001    1    1    2    0    0 -0.87032678334E+02  0.24805710772E+02  0.96162409102E+02  0.15286012989E+03  0.77000000000E+02 0.  0.
<mgrwt>
<rscale>  0 0.23848771E+03</rscale>
<asrwt>0</asrwt>
<pdfrwt beam="1">  1        2 0.32821023E-01 0.23848771E+03</pdfrwt>
<pdfrwt beam="2">  1       -2 0.88414569E-02 0.23848771E+03</pdfrwt>
<totfact> 0.12571895E+04</totfact>
</mgrwt>
</event>
<event>
 4    1  0.6919593E-004  0.1811305E+03  0.7818608E-02  0.1166713E+00
         -2   -1    0    0    0  501 -0.00000000000E+00  0.00000000000E+00  0.19921309035E+02  0.19921309198E+02  0.25500000000E-02 0. -1.
          2   -1    0    0  501    0  0.00000000000E+00 -0.00000000000E+00 -0.41172312343E+03  0.41172312344E+03  0.25500000000E-02 0.  1.
    5000001    1    1    2    0    0  0.45401339985E+02 -0.11928963262E+02 -0.21576505990E+03  0.23385282318E+03  0.77000000000E+02 0.  0.
   -5000001    1    1    2    0    0 -0.45401339985E+02  0.11928963262E+02 -0.17603675450E+03  0.19779160946E+03  0.77000000000E+02 0.  0.
<mgrwt>
<rscale>  0 0.18113049E+03</rscale>
<asrwt>0</asrwt>
<pdfrwt beam="1">  1        2 0.58817584E-01 0.18113049E+03</pdfrwt>
<pdfrwt beam="2">  1       -2 0.28459016E-02 0.18113049E+03</pdfrwt>
<totfact> 0.36720856E+04</totfact>
</mgrwt>
</event>
<event>
 4    1  0.6919593E-004  0.3966530E+03  0.7818608E-02  0.1044945E+00
          2   -1    0    0  501    0  0.00000000000E+00  0.00000000000E+00  0.71798543886E+03  0.71798543886E+03  0.25500000000E-02 0.  1.
         -2   -1    0    0    0  501 -0.00000000000E+00 -0.00000000000E+00 -0.54783016527E+02  0.54783016586E+02  0.25500000000E-02 0. -1.
    5000001    1    1    2    0    0 -0.83306854057E+02  0.54194514374E+02  0.32770704885E+02  0.12992304037E+03  0.77000000000E+02 0.  0.
   -5000001    1    1    2    0    0  0.83306854057E+02 -0.54194514374E+02  0.63043171744E+03  0.64284541507E+03  0.77000000000E+02 0.  0.
<mgrwt>
<rscale>  0 0.39665304E+03</rscale>
<asrwt>0</asrwt>
<pdfrwt beam="1">  1        2 0.10256935E+00 0.39665304E+03</pdfrwt>
<pdfrwt beam="2">  1       -2 0.78261453E-02 0.39665304E+03</pdfrwt>
<totfact> 0.43855547E+03</totfact>
</mgrwt>
</event>
<event>
 4    1  0.6919593E-004  0.2277886E+03  0.7818608E-02  0.1128206E+00
          2   -1    0    0  501    0  0.00000000000E+00  0.00000000000E+00  0.29097812850E+04  0.29097812850E+04  0.25500000000E-02 0.  1.
         -2   -1    0    0    0  501 -0.00000000000E+00 -0.00000000000E+00 -0.44580350070E+01  0.44580357363E+01  0.25500000000E-02 0. -1.
    5000001    1    1    2    0    0 -0.64447905667E+02  0.53700501875E+02  0.14223015133E+04  0.14268524350E+04  0.77000000000E+02 0.  0.
   -5000001    1    1    2    0    0  0.64447905667E+02 -0.53700501875E+02  0.14830217367E+04  0.14873868857E+04  0.77000000000E+02 0.  0.
<mgrwt>
<rscale>  0 0.22778857E+03</rscale>
<asrwt>0</asrwt>
<pdfrwt beam="1">  1        2 0.41568147E+00 0.22778857E+03</pdfrwt>
<pdfrwt beam="2">  1       -2 0.63686461E-03 0.22778857E+03</pdfrwt>
<totfact> 0.12670528E+04</totfact>
</mgrwt>
</event>
<event>
 4    1  0.6919593E-004  0.2496528E+03  0.7818608E-02  0.1113524E+00
          2   -1    0    0  501    0  0.00000000000E+00  0.00000000000E+00  0.17284741668E+04  0.17284741668E+04  0.25500000000E-02 0.  1.
         -2   -1    0    0    0  501 -0.00000000000E+00 -0.00000000000E+00 -0.90146760287E+01  0.90146763894E+01  0.25500000000E-02 0. -1.
    5000001    1    1    2    0    0 -0.66839705357E+02 -0.45719751446E+01  0.13598638208E+04  0.13636887695E+04  0.77000000000E+02 0.  0.
   -5000001    1    1    2    0    0  0.66839705357E+02  0.45719751446E+01  0.35959567006E+03  0.37380007369E+03  0.77000000000E+02 0.  0.
<mgrwt>
<rscale>  0 0.24965284E+03</rscale>
<asrwt>0</asrwt>
<pdfrwt beam="1">  1        2 0.24692501E+00 0.24965284E+03</pdfrwt>
<pdfrwt beam="2">  1       -2 0.12878102E-02 0.24965284E+03</pdfrwt>
<totfact> 0.17626427E+04</totfact>
</mgrwt>
</event>
<event>
 4    1  0.6919593E-004  0.2666231E+03  0.7818608E-02  0.1103228E+00
         -2   -1    0    0    0  501 -0.00000000000E+00  0.00000000000E+00  0.18954701612E+03  0.18954701614E+03  0.25500000000E-02 0. -1.
          2   -1    0    0  501    0  0.00000000000E+00 -0.00000000000E+00 -0.93760206049E+02  0.93760206083E+02  0.25500000000E-02 0.  1.
    5000001    1    1    2    0    0 -0.89511157792E+02  0.60043557892E+02  0.31937384665E+02  0.13625884468E+03  0.77000000000E+02 0.  0.
   -5000001    1    1    2    0    0  0.89511157792E+02 -0.60043557892E+02  0.63849425409E+02  0.14704837755E+03  0.77000000000E+02 0.  0.
<mgrwt>
<rscale>  0 0.26662308E+03</rscale>
<asrwt>0</asrwt>
<pdfrwt beam="1">  1        2 0.13394315E-01 0.26662308E+03</pdfrwt>
<pdfrwt beam="2">  1       -2 0.27078146E-01 0.26662308E+03</pdfrwt>
<totfact> 0.54561816E+03</totfact>
</mgrwt>
</event>
<event>
 4    1  0.6919593E-004  0.2959209E+03  0.7818608E-02  0.1087298E+00
          2   -1    0    0  501    0  0.00000000000E+00  0.00000000000E+00  0.39933981577E+02  0.39933981658E+02  0.25500000000E-02 0.  1.
         -2   -1    0    0    0  501 -0.00000000000E+00 -0.00000000000E+00 -0.54821202481E+03  0.54821202482E+03  0.25500000000E-02 0. -1.
    5000001    1    1    2    0    0 -0.36927111616E+02 -0.91186858010E+02 -0.96577714072E+02  0.15790791463E+03  0.77000000000E+02 0.  0.
   -5000001    1    1    2    0    0  0.36927111616E+02  0.91186858010E+02 -0.41170032916E+03  0.43023809185E+03  0.77000000000E+02 0.  0.
<mgrwt>
<rscale>  0 0.29592086E+03</rscale>
<asrwt>0</asrwt>
<pdfrwt beam="1">  1        2 0.57048549E-02 0.29592086E+03</pdfrwt>
<pdfrwt beam="2">  1       -2 0.78315999E-01 0.29592086E+03</pdfrwt>
<totfact> 0.19735373E+03</totfact>
</mgrwt>
</event>
<event>
 4    1  0.6919593E-004  0.2386995E+03  0.7818608E-02  0.1120662E+00
         -2   -1    0    0    0  501 -0.00000000000E+00  0.00000000000E+00  0.15034618795E+02  0.15034619011E+02  0.25500000000E-02 0. -1.
          2   -1    0    0  501    0  0.00000000000E+00 -0.00000000000E+00 -0.94743765838E+03  0.94743765839E+03  0.25500000000E-02 0.  1.
    5000001    1    1    2    0    0 -0.52754259372E+02  0.29367153181E+01 -0.16652491444E+03  0.19092192988E+03  0.77000000000E+02 0.  0.
   -5000001    1    1    2    0    0  0.52754259372E+02 -0.29367153181E+01 -0.76587812515E+03  0.77155034752E+03  0.77000000000E+02 0.  0.
<mgrwt>
<rscale>  0 0.23869951E+03</rscale>
<asrwt>0</asrwt>
<pdfrwt beam="1">  1        2 0.13534820E+00 0.23869951E+03</pdfrwt>
<pdfrwt beam="2">  1       -2 0.21478033E-02 0.23869951E+03</pdfrwt>
<totfact> 0.21546001E+04</totfact>
</mgrwt>
</event>
<event>
 4    1  0.6919593E-004  0.2810654E+03  0.7818608E-02  0.1095108E+00
         -2   -1    0    0    0  501 -0.00000000000E+00  0.00000000000E+00  0.28442735055E+02  0.28442735170E+02  0.25500000000E-02 0. -1.
          2   -1    0    0  501    0  0.00000000000E+00 -0.00000000000E+00 -0.69435814965E+03  0.69435814966E+03  0.25500000000E-02 0.  1.
    5000001    1    1    2    0    0 -0.57850712994E+02 -0.89457138437E+01 -0.59513593112E+03  0.60294486257E+03  0.77000000000E+02 0.  0.
   -5000001    1    1    2    0    0  0.57850712994E+02  0.89457138437E+01 -0.70779483481E+02  0.11985602226E+03  0.77000000000E+02 0.  0.
<mgrwt>
<rscale>  0 0.28106544E+03</rscale>
<asrwt>0</asrwt>
<pdfrwt beam="1">  1        2 0.99194011E-01 0.28106544E+03</pdfrwt>
<pdfrwt beam="2">  1       -2 0.40632483E-02 0.28106544E+03</pdfrwt>
<totfact> 0.12394175E+04</totfact>
</mgrwt>
</event>
<event>
 4    1  0.6919593E-004  0.1884899E+03  0.7818608E-02  0.1159830E+00
         -2   -1    0    0    0  501 -0.00000000000E+00  0.00000000000E+00  0.24447285178E+03  0.24447285179E+03  0.25500000000E-02 0. -1.
          2   -1    0    0  501    0  0.00000000000E+00 -0.00000000000E+00 -0.36331678547E+02  0.36331678636E+02  0.25500000000E-02 0.  1.
    5000001    1    1    2    0    0  0.47537214694E+02  0.99395518844E+01  0.67745883274E+02  0.11347724958E+03  0.77000000000E+02 0.  0.
   -5000001    1    1    2    0    0 -0.47537214694E+02 -0.99395518844E+01  0.14039528996E+03  0.16732728085E+03  0.77000000000E+02 0.  0.
<mgrwt>
<rscale>  0 0.18848988E+03</rscale>
<asrwt>0</asrwt>
<pdfrwt beam="1">  1        2 0.51902401E-02 0.18848988E+03</pdfrwt>
<pdfrwt beam="2">  1       -2 0.34924691E-01 0.18848988E+03</pdfrwt>
<totfact> 0.11115807E+04</totfact>
</mgrwt>
</event>
<event>
 4    1  0.6919593E-004  0.3037940E+03  0.7818608E-02  0.1083359E+00
         -2   -1    0    0    0  501 -0.00000000000E+00  0.00000000000E+00  0.13715223740E+03  0.13715223743E+03  0.25500000000E-02 0. -1.
          2   -1    0    0  501    0  0.00000000000E+00 -0.00000000000E+00 -0.16822697624E+03  0.16822697626E+03  0.25500000000E-02 0.  1.
    5000001    1    1    2    0    0 -0.12486469957E+03  0.26269837004E+02 -0.45057397219E+02  0.15569350204E+03  0.77000000000E+02 0.  0.
   -5000001    1    1    2    0    0  0.12486469957E+03 -0.26269837004E+02  0.13982658387E+02  0.14968571164E+03  0.77000000000E+02 0.  0.
<mgrwt>
<rscale>  0 0.30379405E+03</rscale>
<asrwt>0</asrwt>
<pdfrwt beam="1">  1        2 0.24032425E-01 0.30379405E+03</pdfrwt>
<pdfrwt beam="2">  1       -2 0.19593177E-01 0.30379405E+03</pdfrwt>
<totfact> 0.48887349E+03</totfact>
</mgrwt>
</event>
<event>
 4    1  0.6919593E-004  0.2019532E+03  0.7818608E-02  0.1148102E+00
         -2   -1    0    0    0  501 -0.00000000000E+00  0.00000000000E+00  0.72054748286E+01  0.72054752798E+01  0.25500000000E-02 0. -1.
          2   -1    0    0  501    0  0.00000000000E+00 -0.00000000000E+00 -0.14150724805E+04  0.14150724805E+04  0.25500000000E-02 0.  1.
    5000001    1    1    2    0    0 -0.14296852741E+02 -0.63740568478E+02 -0.70325093572E+03  0.71046332675E+03  0.77000000000E+02 0.  0.
   -5000001    1    1    2    0    0  0.14296852741E+02  0.63740568478E+02 -0.70461606997E+03  0.71181462905E+03  0.77000000000E+02 0.  0.
<mgrwt>
<rscale>  0 0.20195316E+03</rscale>
<asrwt>0</asrwt>
<pdfrwt beam="1">  1        2 0.20215303E+00 0.20195316E+03</pdfrwt>
<pdfrwt beam="2">  1       -2 0.10293545E-02 0.20195316E+03</pdfrwt>
<totfact> 0.34549008E+04</totfact>
</mgrwt>
</event>
<event>
 4    1  0.6919593E-004  0.2260949E+03  0.7818608E-02  0.1129419E+00
          2   -1    0    0  501    0  0.00000000000E+00  0.00000000000E+00  0.20998314008E+02  0.20998314162E+02  0.25500000000E-02 0.  1.
         -2   -1    0    0    0  501 -0.00000000000E+00 -0.00000000000E+00 -0.60860710931E+03  0.60860710931E+03  0.25500000000E-02 0. -1.
    5000001    1    1    2    0    0 -0.99100020971E+01 -0.81096586740E+02 -0.25687606580E+03  0.28033761378E+03  0.77000000000E+02 0.  0.
   -5000001    1    1    2    0    0  0.99100020971E+01  0.81096586740E+02 -0.33073272950E+03  0.34926780969E+03  0.77000000000E+02 0.  0.
<mgrwt>
<rscale>  0 0.22609488E+03</rscale>
<asrwt>0</asrwt>
<pdfrwt beam="1">  1        2 0.29997595E-02 0.22609488E+03</pdfrwt>
<pdfrwt beam="2">  1       -2 0.86943862E-01 0.22609488E+03</pdfrwt>
<totfact> 0.36560609E+03</totfact>
</mgrwt>
</event>
<event>
 4    1  0.6919593E-004  0.1954290E+03  0.7818608E-02  0.1153654E+00
         -2   -1    0    0    0  501 -0.00000000000E+00  0.00000000000E+00  0.22565451181E+02  0.22565451326E+02  0.25500000000E-02 0. -1.
          2   -1    0    0  501    0  0.00000000000E+00 -0.00000000000E+00 -0.42313007885E+03  0.42313007885E+03  0.25500000000E-02 0.  1.
    5000001    1    1    2    0    0 -0.28267172110E+01  0.58749578691E+02 -0.17146921005E+03  0.19695226153E+03  0.77000000000E+02 0.  0.
   -5000001    1    1    2    0    0  0.28267172110E+01 -0.58749578691E+02 -0.22909541761E+03  0.24874326865E+03  0.77000000000E+02 0.  0.
<mgrwt>
<rscale>  0 0.19542898E+03</rscale>
<asrwt>0</asrwt>
<pdfrwt beam="1">  1        2 0.60447149E-01 0.19542898E+03</pdfrwt>
<pdfrwt beam="2">  1       -2 0.32236362E-02 0.19542898E+03</pdfrwt>
<totfact> 0.29851337E+04</totfact>
</mgrwt>
</event>
<event>
 4    1  0.6919593E-004  0.6658928E+03  0.7818608E-02  0.9777406E-01
          2   -1    0    0  501    0  0.00000000000E+00  0.00000000000E+00  0.87288565446E+03  0.87288565447E+03  0.25500000000E-02 0.  1.
         -2   -1    0    0    0  501 -0.00000000000E+00 -0.00000000000E+00 -0.12699635250E+03  0.12699635253E+03  0.25500000000E-02 0. -1.
    5000001    1    1    2    0    0  0.28699789610E+03  0.10346552694E+03  0.20947804734E+03  0.37799862427E+03  0.77000000000E+02 0.  0.
   -5000001    1    1    2    0    0 -0.28699789610E+03 -0.10346552694E+03  0.53641125462E+03  0.62188338273E+03  0.77000000000E+02 0.  0.
<mgrwt>
<rscale>  0 0.66589277E+03</rscale>
<asrwt>0</asrwt>
<pdfrwt beam="1">  1        2 0.12469795E+00 0.66589277E+03</pdfrwt>
<pdfrwt beam="2">  1       -2 0.18142337E-01 0.66589277E+03</pdfrwt>
<totfact> 0.86021478E+02</totfact>
</mgrwt>
</event>
<event>
 4    1  0.6919593E-004  0.3569639E+03  0.7818608E-02  0.1059793E+00
          2   -1    0    0  501    0  0.00000000000E+00  0.00000000000E+00  0.40881689912E+03  0.40881689913E+03  0.25500000000E-02 0.  1.
         -2   -1    0    0    0  501 -0.00000000000E+00 -0.00000000000E+00 -0.77921955484E+02  0.77921955526E+02  0.25500000000E-02 0. -1.
    5000001    1    1    2    0    0  0.96712264156E+01 -0.10210939041E+03 -0.38030605940E+01  0.12830948328E+03  0.77000000000E+02 0.  0.
   -5000001    1    1    2    0    0 -0.96712264156E+01  0.10210939041E+03  0.33469800423E+03  0.35842937138E+03  0.77000000000E+02 0.  0.
<mgrwt>
<rscale>  0 0.35696393E+03</rscale>
<asrwt>0</asrwt>
<pdfrwt beam="1">  1        2 0.58402413E-01 0.35696393E+03</pdfrwt>
<pdfrwt beam="2">  1       -2 0.11131708E-01 0.35696393E+03</pdfrwt>
<totfact> 0.47428253E+03</totfact>
</mgrwt>
</event>
<event>
 4    1  0.6919593E-004  0.2153368E+03  0.7818608E-02  0.1137408E+00
         -2   -1    0    0    0  501 -0.00000000000E+00  0.00000000000E+00  0.53498048396E+01  0.53498054474E+01  0.25500000000E-02 0. -1.
          2   -1    0    0  501    0  0.00000000000E+00 -0.00000000000E+00 -0.21668975856E+04  0.21668975856E+04  0.25500000000E-02 0.  1.
    5000001    1    1    2    0    0 -0.19564931222E+02 -0.65151099892E+02 -0.14054697537E+04  0.14092202386E+04  0.77000000000E+02 0.  0.
   -5000001    1    1    2    0    0  0.19564931222E+02  0.65151099892E+02 -0.75607802705E+03  0.76302715243E+03  0.77000000000E+02 0.  0.
<mgrwt>
<rscale>  0 0.21533676E+03</rscale>
<asrwt>0</asrwt>
<pdfrwt beam="1">  1        2 0.30955624E+00 0.21533676E+03</pdfrwt>
<pdfrwt beam="2">  1       -2 0.76425927E-03 0.21533676E+03</pdfrwt>
<totfact> 0.22846694E+04</totfact>
</mgrwt>
</event>
<event>
 4    1  0.6919593E-004  0.2553439E+03  0.7818608E-02  0.1109973E+00
          2   -1    0    0  501    0  0.00000000000E+00  0.00000000000E+00  0.29244649928E+02  0.29244650039E+02  0.25500000000E-02 0.  1.
         -2   -1    0    0    0  501 -0.00000000000E+00 -0.00000000000E+00 -0.55737128219E+03  0.55737128219E+03  0.25500000000E-02 0. -1.
    5000001    1    1    2    0    0  0.10611414936E+02 -0.10126999655E+03 -0.26014180685E+03  0.28977745599E+03  0.77000000000E+02 0.  0.
   -5000001    1    1    2    0    0 -0.10611414936E+02  0.10126999655E+03 -0.26798482541E+03  0.29683847625E+03  0.77000000000E+02 0.  0.
<mgrwt>
<rscale>  0 0.25534391E+03</rscale>
<asrwt>0</asrwt>
<pdfrwt beam="1">  1        2 0.41778075E-02 0.25534391E+03</pdfrwt>
<pdfrwt beam="2">  1       -2 0.79624462E-01 0.25534391E+03</pdfrwt>
<totfact> 0.28609509E+03</totfact>
</mgrwt>
</event>
<event>
 4    1  0.6919593E-004  0.3333871E+03  0.7818608E-02  0.1069648E+00
         -2   -1    0    0    0  501 -0.00000000000E+00  0.00000000000E+00  0.40960650761E+02  0.40960650841E+02  0.25500000000E-02 0. -1.
          2   -1    0    0  501    0  0.00000000000E+00 -0.00000000000E+00 -0.67837632649E+03  0.67837632649E+03  0.25500000000E-02 0.  1.
    5000001    1    1    2    0    0  0.13953542759E+03  0.48661877811E+01 -0.21380190347E+03  0.26670970972E+03  0.77000000000E+02 0.  0.
   -5000001    1    1    2    0    0 -0.13953542759E+03 -0.48661877811E+01 -0.42361377226E+03  0.45262726761E+03  0.77000000000E+02 0.  0.
<mgrwt>
<rscale>  0 0.33338708E+03</rscale>
<asrwt>0</asrwt>
<pdfrwt beam="1">  1        2 0.96910897E-01 0.33338708E+03</pdfrwt>
<pdfrwt beam="2">  1       -2 0.58515220E-02 0.33338708E+03</pdfrwt>
<totfact> 0.73545861E+03</totfact>
</mgrwt>
</event>
<event>
 4    1  0.6919593E-004  0.3644453E+03  0.7818608E-02  0.1056837E+00
          2   -1    0    0  501    0  0.00000000000E+00  0.00000000000E+00  0.45251191346E+03  0.45251191347E+03  0.25500000000E-02 0.  1.
         -2   -1    0    0    0  501 -0.00000000000E+00 -0.00000000000E+00 -0.73379498196E+02  0.73379498240E+02  0.25500000000E-02 0. -1.
    5000001    1    1    2    0    0 -0.13419315996E+03  0.36400506685E+02  0.31817305159E+03  0.35566260954E+03  0.77000000000E+02 0.  0.
   -5000001    1    1    2    0    0  0.13419315996E+03 -0.36400506685E+02  0.60959363675E+02  0.17022880217E+03  0.77000000000E+02 0.  0.
<mgrwt>
<rscale>  0 0.36444532E+03</rscale>
<asrwt>0</asrwt>
<pdfrwt beam="1">  1        2 0.64644561E-01 0.36444532E+03</pdfrwt>
<pdfrwt beam="2">  1       -2 0.10482785E-01 0.36444532E+03</pdfrwt>
<totfact> 0.46756171E+03</totfact>
</mgrwt>
</event>
<event>
 4    1  0.6919593E-004  0.3266083E+03  0.7818608E-02  0.1072648E+00
          2   -1    0    0  501    0  0.00000000000E+00  0.00000000000E+00  0.23183969197E+03  0.23183969198E+03  0.25500000000E-02 0.  1.
         -2   -1    0    0    0  501 -0.00000000000E+00 -0.00000000000E+00 -0.11502884687E+03  0.11502884690E+03  0.25500000000E-02 0. -1.
    5000001    1    1    2    0    0  0.13979034611E+03 -0.33806779317E+02  0.66282611260E+02  0.17608697779E+03  0.77000000000E+02 0.  0.
   -5000001    1    1    2    0    0 -0.13979034611E+03  0.33806779317E+02  0.50528233838E+02  0.17078156109E+03  0.77000000000E+02 0.  0.
<mgrwt>
<rscale>  0 0.32660834E+03</rscale>
<asrwt>0</asrwt>
<pdfrwt beam="1">  1        2 0.33119956E-01 0.32660834E+03</pdfrwt>
<pdfrwt beam="2">  1       -2 0.16432692E-01 0.32660834E+03</pdfrwt>
<totfact> 0.46231261E+03</totfact>
</mgrwt>
</event>
<event>
 4    1  0.6919593E-004  0.3752338E+03  0.7818608E-02  0.1052710E+00
         -2   -1    0    0    0  501 -0.00000000000E+00  0.00000000000E+00  0.39408330120E+02  0.39408330202E+02  0.25500000000E-02 0. -1.
          2   -1    0    0  501    0  0.00000000000E+00 -0.00000000000E+00 -0.89321493522E+03  0.89321493523E+03  0.25500000000E-02 0.  1.
    5000001    1    1    2    0    0  0.16841384755E+03 -0.54693297212E+01 -0.50054850229E+03  0.53373302386E+03  0.77000000000E+02 0.  0.
   -5000001    1    1    2    0    0 -0.16841384755E+03  0.54693297212E+01 -0.35325810282E+03  0.39889024157E+03  0.77000000000E+02 0.  0.
<mgrwt>
<rscale>  0 0.37523384E+03</rscale>
<asrwt>0</asrwt>
<pdfrwt beam="1">  1        2 0.12760212E+00 0.37523384E+03</pdfrwt>
<pdfrwt beam="2">  1       -2 0.56297620E-02 0.37523384E+03</pdfrwt>
<totfact> 0.55611709E+03</totfact>
</mgrwt>
</event>
<event>
 4    1  0.6919593E-004  0.6402896E+03  0.7818608E-02  0.9825173E-01
         -2   -1    0    0    0  501 -0.00000000000E+00  0.00000000000E+00  0.37027795973E+02  0.37027796061E+02  0.25500000000E-02 0. -1.
          2   -1    0    0  501    0  0.00000000000E+00 -0.00000000000E+00 -0.27679937528E+04  0.27679937528E+04  0.25500000000E-02 0.  1.
    5000001    1    1    2    0    0  0.39930509409E+02 -0.13921199888E+03 -0.16103005015E+03  0.22985670159E+03  0.77000000000E+02 0.  0.
   -5000001    1    1    2    0    0 -0.39930509409E+02  0.13921199888E+03 -0.25699359067E+04  0.25751648473E+04  0.77000000000E+02 0.  0.
<mgrwt>
<rscale>  0 0.64028965E+03</rscale>
<asrwt>0</asrwt>
<pdfrwt beam="1">  1        2 0.39542755E+00 0.64028965E+03</pdfrwt>
<pdfrwt beam="2">  1       -2 0.52896869E-02 0.64028965E+03</pdfrwt>
<totfact> 0.62910618E+02</totfact>
</mgrwt>
</event>
<event>
 4    1  0.6919593E-004  0.2831594E+03  0.7818608E-02  0.1093976E+00
          2   -1    0    0  501    0  0.00000000000E+00  0.00000000000E+00  0.15241785647E+03  0.15241785649E+03  0.25500000000E-02 0.  1.
         -2   -1    0    0    0  501 -0.00000000000E+00 -0.00000000000E+00 -0.13151223235E+03  0.13151223238E+03  0.25500000000E-02 0. -1.
    5000001    1    1    2    0    0  0.66357558470E+02  0.97442145854E+02 -0.43357257115E+01  0.14087617212E+03  0.77000000000E+02 0.  0.
   -5000001    1    1    2    0    0 -0.66357558470E+02 -0.97442145854E+02  0.25241349823E+02  0.14305391674E+03  0.77000000000E+02 0.  0.
<mgrwt>
<rscale>  0 0.28315941E+03</rscale>
<asrwt>0</asrwt>
<pdfrwt beam="1">  1        2 0.21773980E-01 0.28315941E+03</pdfrwt>
<pdfrwt beam="2">  1       -2 0.18787462E-01 0.28315941E+03</pdfrwt>
<totfact> 0.58572898E+03</totfact>
</mgrwt>
</event>
<event>
 4    1  0.6919593E-004  0.2076216E+03  0.7818608E-02  0.1143463E+00
         -2   -1    0    0    0  501 -0.00000000000E+00  0.00000000000E+00  0.32494714076E+03  0.32494714077E+03  0.25500000000E-02 0. -1.
          2   -1    0    0  501    0  0.00000000000E+00 -0.00000000000E+00 -0.33164407916E+02  0.33164408014E+02  0.25500000000E-02 0.  1.
    5000001    1    1    2    0    0 -0.13303084448E+02  0.68342094992E+02  0.14544978725E+03  0.17869598377E+03  0.77000000000E+02 0.  0.
   -5000001    1    1    2    0    0  0.13303084448E+02 -0.68342094992E+02  0.14633294560E+03  0.17941556502E+03  0.77000000000E+02 0.  0.
<mgrwt>
<rscale>  0 0.20762157E+03</rscale>
<asrwt>0</asrwt>
<pdfrwt beam="1">  1        2 0.47377727E-02 0.20762157E+03</pdfrwt>
<pdfrwt beam="2">  1       -2 0.46421019E-01 0.20762157E+03</pdfrwt>
<totfact> 0.73379875E+03</totfact>
</mgrwt>
</event>
<event>
 4    1  0.6919593E-004  0.2392524E+03  0.7818608E-02  0.1120292E+00
          2   -1    0    0  501    0  0.00000000000E+00  0.00000000000E+00  0.15843729670E+04  0.15843729670E+04  0.25500000000E-02 0.  1.
         -2   -1    0    0    0  501 -0.00000000000E+00 -0.00000000000E+00 -0.90322352295E+01  0.90322355895E+01  0.25500000000E-02 0. -1.
    5000001    1    1    2    0    0 -0.11458712331E+02 -0.87124355272E+02  0.61664173473E+03  0.62761292560E+03  0.77000000000E+02 0.  0.
   -5000001    1    1    2    0    0  0.11458712331E+02  0.87124355272E+02  0.95869899708E+03  0.96579227703E+03  0.77000000000E+02 0.  0.
<mgrwt>
<rscale>  0 0.23925242E+03</rscale>
<asrwt>0</asrwt>
<pdfrwt beam="1">  1        2 0.22633920E+00 0.23925242E+03</pdfrwt>
<pdfrwt beam="2">  1       -2 0.12903182E-02 0.23925242E+03</pdfrwt>
<totfact> 0.20667848E+04</totfact>
</mgrwt>
</event>
<event>
 4    1  0.6919593E-004  0.2371543E+03  0.7818608E-02  0.1121703E+00
          2   -1    0    0  501    0  0.00000000000E+00  0.00000000000E+00  0.87240437398E+02  0.87240437435E+02  0.25500000000E-02 0.  1.
         -2   -1    0    0    0  501 -0.00000000000E+00 -0.00000000000E+00 -0.16117004032E+03  0.16117004034E+03  0.25500000000E-02 0. -1.
    5000001    1    1    2    0    0 -0.73889449356E+02 -0.20916229606E+02 -0.86477868509E+02  0.13894085479E+03  0.77000000000E+02 0.  0.
   -5000001    1    1    2    0    0  0.73889449356E+02  0.20916229606E+02  0.12548265591E+02  0.10946962298E+03  0.77000000000E+02 0.  0.
<mgrwt>
<rscale>  0 0.23715434E+03</rscale>
<asrwt>0</asrwt>
<pdfrwt beam="1">  1        2 0.12462920E-01 0.23715434E+03</pdfrwt>
<pdfrwt beam="2">  1       -2 0.23024291E-01 0.23715434E+03</pdfrwt>
<totfact> 0.78778330E+03</totfact>
</mgrwt>
</event>
<event>
 4    1  0.6919593E-004  0.1324457E+04  0.7818608E-02  0.9010392E-01
          2   -1    0    0  501    0  0.00000000000E+00  0.00000000000E+00  0.25410027697E+04  0.25410027697E+04  0.25500000000E-02 0.  1.
         -2   -1    0    0    0  501 -0.00000000000E+00 -0.00000000000E+00 -0.17258799768E+03  0.17258799770E+03  0.25500000000E-02 0. -1.
    5000001    1    1    2    0    0 -0.10484945796E+03 -0.56378580983E+03  0.52421057000E+03  0.78075192596E+03  0.77000000000E+02 0.  0.
   -5000001    1    1    2    0    0  0.10484945796E+03  0.56378580983E+03  0.18442042020E+04  0.19328388415E+04  0.77000000000E+02 0.  0.
<mgrwt>
<rscale>  0 0.13244570E+04</rscale>
<asrwt>0</asrwt>
<pdfrwt beam="1">  1        2 0.36300038E+00 0.13244570E+04</pdfrwt>
<pdfrwt beam="2">  1       -2 0.24655429E-01 0.13244570E+04</pdfrwt>
<totfact> 0.60601591E+01</totfact>
</mgrwt>
</event>
<event>
 4    1  0.6919593E-004  0.1845916E+03  0.7818608E-02  0.1163432E+00
         -2   -1    0    0    0  501 -0.00000000000E+00  0.00000000000E+00  0.17654924069E+02  0.17654924253E+02  0.25500000000E-02 0. -1.
          2   -1    0    0  501    0  0.00000000000E+00 -0.00000000000E+00 -0.48250059115E+03  0.48250059115E+03  0.25500000000E-02 0.  1.
    5000001    1    1    2    0    0 -0.67079514772E+00  0.34498357992E+02 -0.33376504548E+03  0.34426543866E+03  0.77000000000E+02 0.  0.
   -5000001    1    1    2    0    0  0.67079514772E+00 -0.34498357992E+02 -0.13108062160E+03  0.15589007675E+03  0.77000000000E+02 0.  0.
<mgrwt>
<rscale>  0 0.18459156E+03</rscale>
<asrwt>0</asrwt>
<pdfrwt beam="1">  1        2 0.68928648E-01 0.18459156E+03</pdfrwt>
<pdfrwt beam="2">  1       -2 0.25221323E-02 0.18459156E+03</pdfrwt>
<totfact> 0.37017710E+04</totfact>
</mgrwt>
</event>
<event>
 4    1  0.6919593E-004  0.1840547E+03  0.7818608E-02  0.1163936E+00
         -2   -1    0    0    0  501 -0.00000000000E+00  0.00000000000E+00  0.34344590875E+01  0.34344600342E+01  0.25500000000E-02 0. -1.
          2   -1    0    0  501    0  0.00000000000E+00 -0.00000000000E+00 -0.24658994623E+04  0.24658994623E+04  0.25500000000E-02 0.  1.
    5000001    1    1    2    0    0 -0.42251818589E+02 -0.26630841747E+02 -0.11406211921E+04  0.11443077041E+04  0.77000000000E+02 0.  0.
   -5000001    1    1    2    0    0  0.42251818589E+02  0.26630841747E+02 -0.13218438112E+04  0.13250262183E+04  0.77000000000E+02 0.  0.
<mgrwt>
<rscale>  0 0.18405469E+03</rscale>
<asrwt>0</asrwt>
<pdfrwt beam="1">  1        2 0.35227022E+00 0.18405469E+03</pdfrwt>
<pdfrwt beam="2">  1       -2 0.49063866E-03 0.18405469E+03</pdfrwt>
<totfact> 0.30624291E+04</totfact>
</mgrwt>
</event>
<event>
 4    1  0.6919593E-004  0.2074083E+03  0.7818608E-02  0.1143635E+00
         -2   -1    0    0    0  501 -0.00000000000E+00  0.00000000000E+00  0.27784656561E+02  0.27784656678E+02  0.25500000000E-02 0. -1.
          2   -1    0    0  501    0  0.00000000000E+00 -0.00000000000E+00 -0.38706813359E+03  0.38706813360E+03  0.25500000000E-02 0.  1.
    5000001    1    1    2    0    0  0.98392137198E+01 -0.58552149572E+02 -0.10751359669E+03  0.14495978000E+03  0.77000000000E+02 0.  0.
   -5000001    1    1    2    0    0 -0.98392137198E+01  0.58552149572E+02 -0.25176988034E+03  0.26989301027E+03  0.77000000000E+02 0.  0.
<mgrwt>
<rscale>  0 0.20740834E+03</rscale>
<asrwt>0</asrwt>
<pdfrwt beam="1">  1        2 0.55295445E-01 0.20740834E+03</pdfrwt>
<pdfrwt beam="2">  1       -2 0.39692369E-02 0.20740834E+03</pdfrwt>
<totfact> 0.24207300E+04</totfact>
</mgrwt>
</event>
<event>
 4    1  0.6919593E-004  0.2207745E+03  0.7818608E-02  0.1133307E+00
         -2   -1    0    0    0  501 -0.00000000000E+00  0.00000000000E+00  0.99852521768E+02  0.99852521801E+02  0.25500000000E-02 0. -1.
          2   -1    0    0  501    0  0.00000000000E+00 -0.00000000000E+00 -0.12203340548E+03  0.12203340550E+03  0.25500000000E-02 0.  1.
    5000001    1    1    2    0    0 -0.91039788322E+01  0.66271670565E+02 -0.53511063284E+02  0.11518355197E+03  0.77000000000E+02 0.  0.
   -5000001    1    1    2    0    0  0.91039788322E+01 -0.66271670565E+02  0.31330179576E+02  0.10670237534E+03  0.77000000000E+02 0.  0.
<mgrwt>
<rscale>  0 0.22077448E+03</rscale>
<asrwt>0</asrwt>
<pdfrwt beam="1">  1        2 0.17433344E-01 0.22077448E+03</pdfrwt>
<pdfrwt beam="2">  1       -2 0.14264646E-01 0.22077448E+03</pdfrwt>
<totfact> 0.11816466E+04</totfact>
</mgrwt>
</event>
<event>
 4    1  0.6919593E-004  0.2262915E+03  0.7818608E-02  0.1129277E+00
          2   -1    0    0  501    0  0.00000000000E+00  0.00000000000E+00  0.79490555978E+02  0.79490556019E+02  0.25500000000E-02 0.  1.
         -2   -1    0    0    0  501 -0.00000000000E+00 -0.00000000000E+00 -0.16105015228E+03  0.16105015230E+03  0.25500000000E-02 0. -1.
    5000001    1    1    2    0    0  0.62418010155E+02  0.43778749397E+02 -0.61658717949E+01  0.10853388810E+03  0.77000000000E+02 0.  0.
   -5000001    1    1    2    0    0 -0.62418010155E+02 -0.43778749397E+02 -0.75393724509E+02  0.13200682022E+03  0.77000000000E+02 0.  0.
<mgrwt>
<rscale>  0 0.22629155E+03</rscale>
<asrwt>0</asrwt>
<pdfrwt beam="1">  1        2 0.11355794E-01 0.22629155E+03</pdfrwt>
<pdfrwt beam="2">  1       -2 0.23007165E-01 0.22629155E+03</pdfrwt>
<totfact> 0.88094305E+03</totfact>
</mgrwt>
</event>
<event>
 4    1  0.6919593E-004  0.2958741E+03  0.7818608E-02  0.1087321E+00
         -2   -1    0    0    0  501 -0.00000000000E+00  0.00000000000E+00  0.22197709297E+03  0.22197709298E+03  0.25500000000E-02 0. -1.
          2   -1    0    0  501    0  0.00000000000E+00 -0.00000000000E+00 -0.98592947817E+02  0.98592947850E+02  0.25500000000E-02 0.  1.
    5000001    1    1    2    0    0 -0.65128403478E+02  0.10820865304E+03  0.59138576293E+02  0.15930220569E+03  0.77000000000E+02 0.  0.
   -5000001    1    1    2    0    0  0.65128403478E+02 -0.10820865304E+03  0.64245568858E+02  0.16126783514E+03  0.77000000000E+02 0.  0.
<mgrwt>
<rscale>  0 0.29587414E+03</rscale>
<asrwt>0</asrwt>
<pdfrwt beam="1">  1        2 0.14084707E-01 0.29587414E+03</pdfrwt>
<pdfrwt beam="2">  1       -2 0.31711013E-01 0.29587414E+03</pdfrwt>
<totfact> 0.38735744E+03</totfact>
</mgrwt>
</event>
<event>
 4    1  0.6919593E-004  0.3513906E+03  0.7818608E-02  0.1062046E+00
          2   -1    0    0  501    0  0.00000000000E+00  0.00000000000E+00  0.83787674963E+02  0.83787675001E+02  0.25500000000E-02 0.  1.
         -2   -1    0    0    0  501 -0.00000000000E+00 -0.00000000000E+00 -0.36841751065E+03  0.36841751066E+03  0.25500000000E-02 0. -1.
    5000001    1    1    2    0    0  0.89909340820E+01  0.14719217780E+03 -0.69591055808E+02  0.18032828161E+03  0.77000000000E+02 0.  0.
   -5000001    1    1    2    0    0 -0.89909340820E+01 -0.14719217780E+03 -0.21503877988E+03  0.27187690405E+03  0.77000000000E+02 0.  0.
<mgrwt>
<rscale>  0 0.35139065E+03</rscale>
<asrwt>0</asrwt>
<pdfrwt beam="1">  1        2 0.11969668E-01 0.35139065E+03</pdfrwt>
<pdfrwt beam="2">  1       -2 0.52631072E-01 0.35139065E+03</pdfrwt>
<totfact> 0.17850965E+03</totfact>
</mgrwt>
</event>
<event>
 4    1  0.6919593E-004  0.2031523E+03  0.7818608E-02  0.1147106E+00
         -2   -1    0    0    0  501 -0.00000000000E+00  0.00000000000E+00  0.12023925522E+03  0.12023925525E+03  0.25500000000E-02 0. -1.
          2   -1    0    0  501    0  0.00000000000E+00 -0.00000000000E+00 -0.85809882932E+02  0.85809882970E+02  0.25500000000E-02 0.  1.
    5000001    1    1    2    0    0 -0.42912656912E+01 -0.52642945855E+02  0.57772654638E+02  0.10980152245E+03  0.77000000000E+02 0.  0.
   -5000001    1    1    2    0    0  0.42912656912E+01  0.52642945855E+02 -0.23343282348E+02  0.96247615764E+02  0.77000000000E+02 0.  0.
<mgrwt>
<rscale>  0 0.20315232E+03</rscale>
<asrwt>0</asrwt>
<pdfrwt beam="1">  1        2 0.12258555E-01 0.20315232E+03</pdfrwt>
<pdfrwt beam="2">  1       -2 0.17177036E-01 0.20315232E+03</pdfrwt>
<totfact> 0.13115180E+04</totfact>
</mgrwt>
</event>
<event>
 4    1  0.6919593E-004  0.2667416E+03  0.7818608E-02  0.1103159E+00
          2   -1    0    0  501    0  0.00000000000E+00  0.00000000000E+00  0.14700850856E+04  0.14700850856E+04  0.25500000000E-02 0.  1.
         -2   -1    0    0    0  501 -0.00000000000E+00 -0.00000000000E+00 -0.12099826848E+02  0.12099827116E+02  0.25500000000E-02 0. -1.
    5000001    1    1    2    0    0 -0.81704944234E+02  0.66211443686E+02  0.88607162664E+03  0.89560682262E+03  0.77000000000E+02 0.  0.
   -5000001    1    1    2    0    0  0.81704944234E+02 -0.66211443686E+02  0.57191363210E+03  0.58657809009E+03  0.77000000000E+02 0.  0.
<mgrwt>
<rscale>  0 0.26674164E+03</rscale>
<asrwt>0</asrwt>
<pdfrwt beam="1">  1        2 0.21001226E+00 0.26674164E+03</pdfrwt>
<pdfrwt beam="2">  1       -2 0.17285458E-02 0.26674164E+03</pdfrwt>
<totfact> 0.15453990E+04</totfact>
</mgrwt>
</event>
<event>
 4    1  0.6919593E-004  0.2377533E+03  0.7818608E-02  0.1121299E+00
         -2   -1    0    0    0  501 -0.00000000000E+00  0.00000000000E+00  0.68664871650E+01  0.68664876385E+01  0.25500000000E-02 0. -1.
          2   -1    0    0  501    0  0.00000000000E+00 -0.00000000000E+00 -0.20580613449E+04  0.20580613449E+04  0.25500000000E-02 0.  1.
    5000001    1    1    2    0    0  0.77165998236E+02 -0.30148294647E+02 -0.13434250375E+04  0.13481777858E+04  0.77000000000E+02 0.  0.
   -5000001    1    1    2    0    0 -0.77165998236E+02  0.30148294647E+02 -0.70776982024E+03  0.71675004667E+03  0.77000000000E+02 0.  0.
<mgrwt>
<rscale>  0 0.23775325E+03</rscale>
<asrwt>0</asrwt>
<pdfrwt beam="1">  1        2 0.29400837E+00 0.23775325E+03</pdfrwt>
<pdfrwt beam="2">  1       -2 0.98092809E-03 0.23775325E+03</pdfrwt>
<totfact> 0.18057310E+04</totfact>
</mgrwt>
</event>
<event>
 4    1  0.6919593E-004  0.4329592E+03  0.7818608E-02  0.1032929E+00
          2   -1    0    0  501    0  0.00000000000E+00  0.00000000000E+00  0.14344730191E+04  0.14344730191E+04  0.25500000000E-02 0.  1.
         -2   -1    0    0    0  501 -0.00000000000E+00 -0.00000000000E+00 -0.32669431547E+02  0.32669431647E+02  0.25500000000E-02 0. -1.
    5000001    1    1    2    0    0  0.17908658504E+03 -0.25825022633E+02  0.39413203704E+03  0.44046339162E+03  0.77000000000E+02 0.  0.
   -5000001    1    1    2    0    0 -0.17908658504E+03  0.25825022633E+02  0.10076715505E+04  0.10266790591E+04  0.77000000000E+02 0.  0.
<mgrwt>
<rscale>  0 0.43295920E+03</rscale>
<asrwt>0</asrwt>
<pdfrwt beam="1">  1        2 0.20492476E+00 0.43295920E+03</pdfrwt>
<pdfrwt beam="2">  1       -2 0.46670606E-02 0.43295920E+03</pdfrwt>
<totfact> 0.36733078E+03</totfact>
</mgrwt>
</event>
<event>
 4    1  0.6919593E-004  0.2401833E+03  0.7818608E-02  0.1119671E+00
          2   -1    0    0  501    0  0.00000000000E+00  0.00000000000E+00  0.27472542194E+04  0.27472542194E+04  0.25500000000E-02 0.  1.
         -2   -1    0    0    0  501 -0.00000000000E+00 -0.00000000000E+00 -0.52496050586E+01  0.52496056780E+01  0.25500000000E-02 0. -1.
    5000001    1    1    2    0    0  0.68018022529E+02 -0.45601442191E+02  0.88654617706E+03  0.89364370248E+03  0.77000000000E+02 0.  0.
   -5000001    1    1    2    0    0 -0.68018022529E+02  0.45601442191E+02  0.18554584372E+04  0.18588601226E+04  0.77000000000E+02 0.  0.
<mgrwt>
<rscale>  0 0.24018327E+03</rscale>
<asrwt>0</asrwt>
<pdfrwt beam="1">  1        2 0.39246548E+00 0.24018327E+03</pdfrwt>
<pdfrwt beam="2">  1       -2 0.74994250E-03 0.24018327E+03</pdfrwt>
<totfact> 0.12148844E+04</totfact>
</mgrwt>
</event>
<event>
 4    1  0.6919593E-004  0.2218402E+03  0.7818608E-02  0.1132518E+00
         -2   -1    0    0    0  501 -0.00000000000E+00  0.00000000000E+00  0.63256381810E+01  0.63256386950E+01  0.25500000000E-02 0. -1.
          2   -1    0    0  501    0  0.00000000000E+00 -0.00000000000E+00 -0.19449848231E+04  0.19449848231E+04  0.25500000000E-02 0.  1.
    5000001    1    1    2    0    0  0.52054045223E+02  0.46191195831E+02 -0.13135024349E+04  0.13175966366E+04  0.77000000000E+02 0.  0.
   -5000001    1    1    2    0    0 -0.52054045223E+02 -0.46191195831E+02 -0.62515674999E+03  0.63371382521E+03  0.77000000000E+02 0.  0.
<mgrwt>
<rscale>  0 0.22184022E+03</rscale>
<asrwt>0</asrwt>
<pdfrwt beam="1">  1        2 0.27785459E+00 0.22184022E+03</pdfrwt>
<pdfrwt beam="2">  1       -2 0.90366388E-03 0.22184022E+03</pdfrwt>
<totfact> 0.23004846E+04</totfact>
</mgrwt>
</event>
<event>
 4    1  0.6919593E-004  0.7402272E+03  0.7818608E-02  0.9650808E-01
         -2   -1    0    0    0  501 -0.00000000000E+00  0.00000000000E+00  0.21650029603E+03  0.21650029604E+03  0.25500000000E-02 0. -1.
          2   -1    0    0  501    0  0.00000000000E+00 -0.00000000000E+00 -0.63272005846E+03  0.63272005846E+03  0.25500000000E-02 0.  1.
    5000001    1    1    2    0    0  0.83507218326E+02  0.34696169524E+03 -0.13833330785E+03  0.39041129278E+03  0.77000000000E+02 0.  0.
   -5000001    1    1    2    0    0 -0.83507218326E+02 -0.34696169524E+03 -0.27788645459E+03  0.45880906172E+03  0.77000000000E+02 0.  0.
<mgrwt>
<rscale>  0 0.74022721E+03</rscale>
<asrwt>0</asrwt>
<pdfrwt beam="1">  1        2 0.90388579E-01 0.74022721E+03</pdfrwt>
<pdfrwt beam="2">  1       -2 0.30928614E-01 0.74022721E+03</pdfrwt>
<totfact> 0.49513078E+02</totfact>
</mgrwt>
</event>
<event>
 4    1  0.6919593E-004  0.2858595E+03  0.7818608E-02  0.1092531E+00
          2   -1    0    0  501    0  0.00000000000E+00  0.00000000000E+00  0.40951829112E+03  0.40951829113E+03  0.25500000000E-02 0.  1.
         -2   -1    0    0    0  501 -0.00000000000E+00 -0.00000000000E+00 -0.49885228446E+02  0.49885228511E+02  0.25500000000E-02 0. -1.
    5000001    1    1    2    0    0 -0.11006240627E+01  0.85574522289E+02  0.31595282529E+03  0.33627280301E+03  0.77000000000E+02 0.  0.
   -5000001    1    1    2    0    0  0.11006240627E+01 -0.85574522289E+02  0.43680237382E+02  0.12313071662E+03  0.77000000000E+02 0.  0.
<mgrwt>
<rscale>  0 0.28585950E+03</rscale>
<asrwt>0</asrwt>
<pdfrwt beam="1">  1        2 0.58502616E-01 0.28585950E+03</pdfrwt>
<pdfrwt beam="2">  1       -2 0.71264609E-02 0.28585950E+03</pdfrwt>
<totfact> 0.95168697E+03</totfact>
</mgrwt>
</event>
<event>
 4    1  0.6919593E-004  0.2777913E+03  0.7818608E-02  0.1096901E+00
          2   -1    0    0  501    0  0.00000000000E+00  0.00000000000E+00  0.39919165250E+03  0.39919165251E+03  0.25500000000E-02 0.  1.
         -2   -1    0    0    0  501 -0.00000000000E+00 -0.00000000000E+00 -0.48327671960E+02  0.48327672027E+02  0.25500000000E-02 0. -1.
    5000001    1    1    2    0    0  0.52424175278E+02  0.10227464163E+03  0.19546320990E+03  0.23946453369E+03  0.77000000000E+02 0.  0.
   -5000001    1    1    2    0    0 -0.52424175278E+02 -0.10227464163E+03  0.15540077065E+03  0.20805479084E+03  0.77000000000E+02 0.  0.
<mgrwt>
<rscale>  0 0.27779131E+03</rscale>
<asrwt>0</asrwt>
<pdfrwt beam="1">  1        2 0.57027380E-01 0.27779131E+03</pdfrwt>
<pdfrwt beam="2">  1       -2 0.69039531E-02 0.27779131E+03</pdfrwt>
<totfact> 0.10264789E+04</totfact>
</mgrwt>
</event>
<event>
 4    1  0.6919593E-004  0.3044131E+03  0.7818608E-02  0.1083055E+00
          2   -1    0    0  501    0  0.00000000000E+00  0.00000000000E+00  0.30228795206E+03  0.30228795207E+03  0.25500000000E-02 0.  1.
         -2   -1    0    0    0  501 -0.00000000000E+00 -0.00000000000E+00 -0.76638308275E+02  0.76638308318E+02  0.25500000000E-02 0. -1.
    5000001    1    1    2    0    0  0.52355486555E+02  0.93481659177E+02  0.18369999475E+02  0.13321551882E+03  0.77000000000E+02 0.  0.
   -5000001    1    1    2    0    0 -0.52355486555E+02 -0.93481659177E+02  0.20727964431E+03  0.24571074157E+03  0.77000000000E+02 0.  0.
<mgrwt>
<rscale>  0 0.30441312E+03</rscale>
<asrwt>0</asrwt>
<pdfrwt beam="1">  1        2 0.43183992E-01 0.30441312E+03</pdfrwt>
<pdfrwt beam="2">  1       -2 0.10948330E-01 0.30441312E+03</pdfrwt>
<totfact> 0.67269853E+03</totfact>
</mgrwt>
</event>
<event>
 4    1  0.6919593E-004  0.3185209E+03  0.7818608E-02  0.1076332E+00
         -2   -1    0    0    0  501 -0.00000000000E+00  0.00000000000E+00  0.87726089319E+01  0.87726093025E+01  0.25500000000E-02 0.  1.
          2   -1    0    0  501    0  0.00000000000E+00 -0.00000000000E+00 -0.28912602046E+04  0.28912602046E+04  0.25500000000E-02 0. -1.
    5000001    1    1    2    0    0  0.54005033429E+02  0.68564515271E+02 -0.24309888039E+04  0.24337734490E+04  0.77000000000E+02 0.  0.
   -5000001    1    1    2    0    0 -0.54005033429E+02 -0.68564515271E+02 -0.45149879182E+03  0.46625936495E+03  0.77000000000E+02 0.  0.
<mgrwt>
<rscale>  0 0.31852093E+03</rscale>
<asrwt>0</asrwt>
<pdfrwt beam="1">  1        2 0.41303656E+00 0.31852093E+03</pdfrwt>
<pdfrwt beam="2">  1       -2 0.12532317E-02 0.31852093E+03</pdfrwt>
<totfact> 0.48519908E+03</totfact>
</mgrwt>
</event>
<event>
 4    1  0.6919593E-004  0.6472515E+03  0.7818608E-02  0.9811950E-01
         -2   -1    0    0    0  501 -0.00000000000E+00  0.00000000000E+00  0.39980039200E+02  0.39980039281E+02  0.25500000000E-02 0. -1.
          2   -1    0    0  501    0  0.00000000000E+00 -0.00000000000E+00 -0.26196479645E+04  0.26196479645E+04  0.25500000000E-02 0.  1.
    5000001    1    1    2    0    0 -0.67708538515E+01  0.31372119997E+03 -0.12143120602E+04  0.12565626189E+04  0.77000000000E+02 0.  0.
   -5000001    1    1    2    0    0  0.67708538515E+01 -0.31372119997E+03 -0.13653558651E+04  0.14030653849E+04  0.77000000000E+02 0.  0.
<mgrwt>
<rscale>  0 0.64725151E+03</rscale>
<asrwt>0</asrwt>
<pdfrwt beam="1">  1        2 0.37423531E+00 0.64725151E+03</pdfrwt>
<pdfrwt beam="2">  1       -2 0.57114358E-02 0.64725151E+03</pdfrwt>
<totfact> 0.66715331E+02</totfact>
</mgrwt>
</event>
<event>
 4    1  0.6919593E-004  0.1869803E+03  0.7818608E-02  0.1161213E+00
         -2   -1    0    0    0  501 -0.00000000000E+00  0.00000000000E+00  0.29025768866E+01  0.29025780068E+01  0.25500000000E-02 0. -1.
          2   -1    0    0  501    0  0.00000000000E+00 -0.00000000000E+00 -0.30112574929E+04  0.30112574929E+04  0.25500000000E-02 0.  1.
    5000001    1    1    2    0    0  0.23693885325E+02 -0.31419138038E+02 -0.20770336321E+04  0.20788329109E+04  0.77000000000E+02 0.  0.
   -5000001    1    1    2    0    0 -0.23693885325E+02  0.31419138038E+02 -0.93132128394E+03  0.93532716007E+03  0.77000000000E+02 0.  0.
<mgrwt>
<rscale>  0 0.18698030E+03</rscale>
<asrwt>0</asrwt>
<pdfrwt beam="1">  1        2 0.43017764E+00 0.18698030E+03</pdfrwt>
<pdfrwt beam="2">  1       -2 0.41465585E-03 0.18698030E+03</pdfrwt>
<totfact> 0.20640340E+04</totfact>
</mgrwt>
</event>
