<event>
 4    1  0.1308644E-003  0.3235963E+03  0.7818608E-02  0.1074006E+00
         -2   -1    0    0    0  501 -0.00000000000E+00  0.00000000000E+00  0.84300720736E+02  0.84300720774E+02  0.25500000000E-02 0. -1.
          2   -1    0    0  501    0  0.00000000000E+00 -0.00000000000E+00 -0.31053877955E+03  0.31053877956E+03  0.25500000000E-02 0.  1.
    5000001    1    1    2    0    0 -0.11562072022E+03 -0.59262157301E+01 -0.21407854974E+03  0.25526828325E+03  0.77000000000E+02 0.  0.
   -5000001    1    1    2    0    0  0.11562072022E+03  0.59262157301E+01 -0.12159509081E+02  0.13957121708E+03  0.77000000000E+02 0.  0.
<mgrwt>
<rscale>  0 0.32359631E+03</rscale>
<asrwt>0</asrwt>
<pdfrwt beam="1">  1        2 0.44362682E-01 0.32359631E+03</pdfrwt>
<pdfrwt beam="2">  1       -2 0.12042960E-01 0.32359631E+03</pdfrwt>
<totfact> 0.56139458E+03</totfact>
</mgrwt>
</event>
<event>
 4    1  0.1308644E-003  0.1705337E+03  0.7818608E-02  0.1177292E+00
          2   -1    0    0  501    0  0.00000000000E+00  0.00000000000E+00  0.57374661246E+01  0.57374666913E+01  0.25500000000E-02 0.  1.
         -2   -1    0    0    0  501 -0.00000000000E+00 -0.00000000000E+00 -0.12671850568E+04  0.12671850568E+04  0.25500000000E-02 0. -1.
    5000001    1    1    2    0    0  0.24801939526E+02 -0.14282050289E+02 -0.80131616213E+03  0.80551580050E+03  0.77000000000E+02 0.  0.
   -5000001    1    1    2    0    0 -0.24801939526E+02  0.14282050289E+02 -0.46013142856E+03  0.46740672301E+03  0.77000000000E+02 0.  0.
<mgrwt>
<rscale>  0 0.17053365E+03</rscale>
<asrwt>0</asrwt>
<pdfrwt beam="1">  1        2 0.81963886E-03 0.17053365E+03</pdfrwt>
<pdfrwt beam="2">  1       -2 0.18102626E+00 0.17053365E+03</pdfrwt>
<totfact> 0.35397765E+03</totfact>
</mgrwt>
</event>
<event>
 4    1  0.1308644E-003  0.2560234E+03  0.7818608E-02  0.1109556E+00
         -2   -1    0    0    0  501 -0.00000000000E+00  0.00000000000E+00  0.11490708501E+02  0.11490708784E+02  0.25500000000E-02 0. -1.
          2   -1    0    0  501    0  0.00000000000E+00 -0.00000000000E+00 -0.14261082232E+04  0.14261082232E+04  0.25500000000E-02 0.  1.
    5000001    1    1    2    0    0  0.76061020835E+02  0.52435489761E+02 -0.46105989637E+03  0.47648713259E+03  0.77000000000E+02 0.  0.
   -5000001    1    1    2    0    0 -0.76061020835E+02 -0.52435489761E+02 -0.95355761837E+03  0.96111179944E+03  0.77000000000E+02 0.  0.
<mgrwt>
<rscale>  0 0.25602339E+03</rscale>
<asrwt>0</asrwt>
<pdfrwt beam="1">  1        2 0.20372963E+00 0.25602339E+03</pdfrwt>
<pdfrwt beam="2">  1       -2 0.16415307E-02 0.25602339E+03</pdfrwt>
<totfact> 0.17523588E+04</totfact>
</mgrwt>
</event>
<event>
 4    1  0.1308644E-003  0.1809786E+03  0.7818608E-02  0.1166859E+00
          2   -1    0    0  501    0  0.00000000000E+00  0.00000000000E+00  0.35900684901E+02  0.35900684992E+02  0.25500000000E-02 0.  1.
         -2   -1    0    0    0  501 -0.00000000000E+00 -0.00000000000E+00 -0.22808234736E+03  0.22808234737E+03  0.25500000000E-02 0. -1.
    5000001    1    1    2    0    0 -0.42112656088E+02  0.21814279404E+02 -0.10069744199E+03  0.13534516398E+03  0.77000000000E+02 0.  0.
   -5000001    1    1    2    0    0  0.42112656088E+02 -0.21814279404E+02 -0.91484220468E+02  0.12863786839E+03  0.77000000000E+02 0.  0.
<mgrwt>
<rscale>  0 0.18097859E+03</rscale>
<asrwt>0</asrwt>
<pdfrwt beam="1">  1        2 0.51286694E-02 0.18097859E+03</pdfrwt>
<pdfrwt beam="2">  1       -2 0.32583192E-01 0.18097859E+03</pdfrwt>
<totfact> 0.12789294E+04</totfact>
</mgrwt>
</event>
<event>
 4    1  0.1308644E-003  0.2182257E+03  0.7818608E-02  0.1135213E+00
         -2   -1    0    0    0  501 -0.00000000000E+00  0.00000000000E+00  0.38192580565E+03  0.38192580566E+03  0.25500000000E-02 0. -1.
          2   -1    0    0  501    0  0.00000000000E+00 -0.00000000000E+00 -0.31172572285E+02  0.31172572389E+02  0.25500000000E-02 0.  1.
    5000001    1    1    2    0    0 -0.53681434549E+02 -0.28599077139E+02  0.26570615203E+03  0.28324611710E+03  0.77000000000E+02 0.  0.
   -5000001    1    1    2    0    0  0.53681434549E+02  0.28599077139E+02  0.85047081339E+02  0.12985226095E+03  0.77000000000E+02 0.  0.
<mgrwt>
<rscale>  0 0.21822566E+03</rscale>
<asrwt>0</asrwt>
<pdfrwt beam="1">  1        2 0.44532246E-02 0.21822566E+03</pdfrwt>
<pdfrwt beam="2">  1       -2 0.54560830E-01 0.21822566E+03</pdfrwt>
<totfact> 0.57913863E+03</totfact>
</mgrwt>
</event>
<event>
 4    1  0.1308644E-003  0.2117046E+03  0.7818608E-02  0.1140223E+00
         -2   -1    0    0    0  501 -0.00000000000E+00  0.00000000000E+00  0.26880056926E+02  0.26880057046E+02  0.25500000000E-02 0. -1.
          2   -1    0    0  501    0  0.00000000000E+00 -0.00000000000E+00 -0.41684110530E+03  0.41684110530E+03  0.25500000000E-02 0.  1.
    5000001    1    1    2    0    0  0.96872210954E+01 -0.53253681733E+02 -0.29649687413E+03  0.31107747145E+03  0.77000000000E+02 0.  0.
   -5000001    1    1    2    0    0 -0.96872210954E+01  0.53253681733E+02 -0.93464174236E+02  0.13264369090E+03  0.77000000000E+02 0.  0.
<mgrwt>
<rscale>  0 0.21170463E+03</rscale>
<asrwt>0</asrwt>
<pdfrwt beam="1">  1        2 0.59548726E-01 0.21170463E+03</pdfrwt>
<pdfrwt beam="2">  1       -2 0.38400084E-02 0.21170463E+03</pdfrwt>
<totfact> 0.23521903E+04</totfact>
</mgrwt>
</event>
<event>
 4    1  0.1308644E-003  0.2182235E+03  0.7818608E-02  0.1135214E+00
         -2   -1    0    0    0  501 -0.00000000000E+00  0.00000000000E+00  0.39349277203E+01  0.39349285465E+01  0.25500000000E-02 0. -1.
          2   -1    0    0  501    0  0.00000000000E+00 -0.00000000000E+00 -0.30255646361E+04  0.30255646361E+04  0.25500000000E-02 0.  1.
    5000001    1    1    2    0    0 -0.28768935548E+02 -0.71286450242E+02 -0.13972069160E+04  0.14014369682E+04  0.77000000000E+02 0.  0.
   -5000001    1    1    2    0    0  0.28768935548E+02  0.71286450242E+02 -0.16244227923E+04  0.16280625964E+04  0.77000000000E+02 0.  0.
<mgrwt>
<rscale>  0 0.21822355E+03</rscale>
<asrwt>0</asrwt>
<pdfrwt beam="1">  1        2 0.43222203E+00 0.21822355E+03</pdfrwt>
<pdfrwt beam="2">  1       -2 0.56213453E-03 0.21822355E+03</pdfrwt>
<totfact> 0.13174572E+04</totfact>
</mgrwt>
</event>
<event>
 4    1  0.1308644E-003  0.2177930E+03  0.7818608E-02  0.1135539E+00
          2   -1    0    0  501    0  0.00000000000E+00  0.00000000000E+00  0.75094617893E+03  0.75094617894E+03  0.25500000000E-02 0.  1.
         -2   -1    0    0    0  501 -0.00000000000E+00 -0.00000000000E+00 -0.15791341115E+02  0.15791341321E+02  0.25500000000E-02 0. -1.
    5000001    1    1    2    0    0  0.59970154185E+02  0.21160940197E+02  0.52043480338E+03  0.52992979662E+03  0.77000000000E+02 0.  0.
   -5000001    1    1    2    0    0 -0.59970154185E+02 -0.21160940197E+02  0.21472003444E+03  0.23680772364E+03  0.77000000000E+02 0.  0.
<mgrwt>
<rscale>  0 0.21779300E+03</rscale>
<asrwt>0</asrwt>
<pdfrwt beam="1">  1        2 0.10727807E+00 0.21779300E+03</pdfrwt>
<pdfrwt beam="2">  1       -2 0.22559050E-02 0.21779300E+03</pdfrwt>
<totfact> 0.26702814E+04</totfact>
</mgrwt>
</event>
<event>
 4    1  0.1308644E-003  0.2774631E+03  0.7818608E-02  0.1097083E+00
          2   -1    0    0  501    0  0.00000000000E+00  0.00000000000E+00  0.13915449616E+04  0.13915449616E+04  0.25500000000E-02 0.  1.
         -2   -1    0    0    0  501 -0.00000000000E+00 -0.00000000000E+00 -0.13830988148E+02  0.13830988383E+02  0.25500000000E-02 0. -1.
    5000001    1    1    2    0    0 -0.21103153071E+02  0.74832003623E+02  0.25691810765E+03  0.27925093711E+03  0.77000000000E+02 0.  0.
   -5000001    1    1    2    0    0  0.21103153071E+02 -0.74832003623E+02  0.11207958658E+04  0.11261250129E+04  0.77000000000E+02 0.  0.
<mgrwt>
<rscale>  0 0.27746309E+03</rscale>
<asrwt>0</asrwt>
<pdfrwt beam="1">  1        2 0.19879218E+00 0.27746309E+03</pdfrwt>
<pdfrwt beam="2">  1       -2 0.19758551E-02 0.27746309E+03</pdfrwt>
<totfact> 0.13946497E+04</totfact>
</mgrwt>
</event>
<event>
 4    1  0.1308644E-003  0.2463695E+03  0.7818608E-02  0.1115621E+00
          2   -1    0    0  501    0  0.00000000000E+00  0.00000000000E+00  0.38498433003E+03  0.38498433004E+03  0.25500000000E-02 0.  1.
         -2   -1    0    0    0  501 -0.00000000000E+00 -0.00000000000E+00 -0.39415843639E+02  0.39415843722E+02  0.25500000000E-02 0. -1.
    5000001    1    1    2    0    0  0.42957810009E+02  0.48433335537E+02  0.50316978868E+02  0.11248093080E+03  0.77000000000E+02 0.  0.
   -5000001    1    1    2    0    0 -0.42957810009E+02 -0.48433335537E+02  0.29525150752E+03  0.31191924296E+03  0.77000000000E+02 0.  0.
<mgrwt>
<rscale>  0 0.24636950E+03</rscale>
<asrwt>0</asrwt>
<pdfrwt beam="1">  1        2 0.54997761E-01 0.24636950E+03</pdfrwt>
<pdfrwt beam="2">  1       -2 0.56308348E-02 0.24636950E+03</pdfrwt>
<totfact> 0.14516153E+04</totfact>
</mgrwt>
</event>
<event>
 4    1  0.1308644E-003  0.1609168E+03  0.7818608E-02  0.1187666E+00
          2   -1    0    0  501    0  0.00000000000E+00  0.00000000000E+00  0.29297475370E+04  0.29297475370E+04  0.25500000000E-02 0.  1.
         -2   -1    0    0    0  501 -0.00000000000E+00 -0.00000000000E+00 -0.22095946841E+01  0.22095961555E+01  0.25500000000E-02 0. -1.
    5000001    1    1    2    0    0  0.15285703862E+02 -0.12019602294E+02  0.12287104113E+04  0.12312742986E+04  0.77000000000E+02 0.  0.
   -5000001    1    1    2    0    0 -0.15285703862E+02  0.12019602294E+02  0.16988275310E+04  0.17006828345E+04  0.77000000000E+02 0.  0.
<mgrwt>
<rscale>  0 0.16091683E+03</rscale>
<asrwt>0</asrwt>
<pdfrwt beam="1">  1        2 0.41853512E+00 0.16091683E+03</pdfrwt>
<pdfrwt beam="2">  1       -2 0.31565667E-03 0.16091683E+03</pdfrwt>
<totfact> 0.33327854E+04</totfact>
</mgrwt>
</event>
<event>
 4    1  0.1308644E-003  0.3153425E+03  0.7818608E-02  0.1077813E+00
          2   -1    0    0  501    0  0.00000000000E+00  0.00000000000E+00  0.11674286180E+04  0.11674286180E+04  0.25500000000E-02 0.  1.
         -2   -1    0    0    0  501 -0.00000000000E+00 -0.00000000000E+00 -0.21294852908E+02  0.21294853061E+02  0.25500000000E-02 0. -1.
    5000001    1    1    2    0    0 -0.13136904654E+03 -0.19120942512E+02  0.43674475513E+03  0.46292377123E+03  0.77000000000E+02 0.  0.
   -5000001    1    1    2    0    0  0.13136904654E+03  0.19120942512E+02  0.70938900991E+03  0.72579969979E+03  0.77000000000E+02 0.  0.
<mgrwt>
<rscale>  0 0.31534249E+03</rscale>
<asrwt>0</asrwt>
<pdfrwt beam="1">  1        2 0.16677556E+00 0.31534249E+03</pdfrwt>
<pdfrwt beam="2">  1       -2 0.30421212E-02 0.31534249E+03</pdfrwt>
<totfact> 0.97142591E+03</totfact>
</mgrwt>
</event>
<event>
 4    1  0.1308644E-003  0.2049413E+03  0.7818608E-02  0.1145636E+00
         -2   -1    0    0    0  501 -0.00000000000E+00  0.00000000000E+00  0.34535508598E+03  0.34535508599E+03  0.25500000000E-02 0. -1.
          2   -1    0    0  501    0  0.00000000000E+00 -0.00000000000E+00 -0.30404169922E+02  0.30404170029E+02  0.25500000000E-02 0.  1.
    5000001    1    1    2    0    0  0.43352691241E+02 -0.30936551792E+02  0.23384030072E+03  0.25188650681E+03  0.77000000000E+02 0.  0.
   -5000001    1    1    2    0    0 -0.43352691241E+02  0.30936551792E+02  0.81110615338E+02  0.12387274920E+03  0.77000000000E+02 0.  0.
<mgrwt>
<rscale>  0 0.20494131E+03</rscale>
<asrwt>0</asrwt>
<pdfrwt beam="1">  1        2 0.43434527E-02 0.20494131E+03</pdfrwt>
<pdfrwt beam="2">  1       -2 0.49336443E-01 0.20494131E+03</pdfrwt>
<totfact> 0.72957330E+03</totfact>
</mgrwt>
</event>
<event>
 4    1  0.1308644E-003  0.2092053E+03  0.7818608E-02  0.1142197E+00
          2   -1    0    0  501    0  0.00000000000E+00  0.00000000000E+00  0.12871566058E+04  0.12871566058E+04  0.25500000000E-02 0.  1.
         -2   -1    0    0    0  501 -0.00000000000E+00 -0.00000000000E+00 -0.85006897383E+01  0.85006901207E+01  0.25500000000E-02 0. -1.
    5000001    1    1    2    0    0  0.32628439891E+02 -0.61590467088E+02  0.71636302304E+03  0.72385287283E+03  0.77000000000E+02 0.  0.
   -5000001    1    1    2    0    0 -0.32628439891E+02  0.61590467088E+02  0.56229289302E+03  0.57180442309E+03  0.77000000000E+02 0.  0.
<mgrwt>
<rscale>  0 0.20920535E+03</rscale>
<asrwt>0</asrwt>
<pdfrwt beam="1">  1        2 0.18387961E+00 0.20920535E+03</pdfrwt>
<pdfrwt beam="2">  1       -2 0.12143837E-02 0.20920535E+03</pdfrwt>
<totfact> 0.31730961E+04</totfact>
</mgrwt>
</event>
<event>
 4    1  0.1308644E-003  0.2145593E+03  0.7818608E-02  0.1138006E+00
         -2   -1    0    0    0  501 -0.00000000000E+00  0.00000000000E+00  0.17469126086E+03  0.17469126088E+03  0.25500000000E-02 0. -1.
          2   -1    0    0  501    0  0.00000000000E+00 -0.00000000000E+00 -0.65881522891E+02  0.65881522940E+02  0.25500000000E-02 0.  1.
    5000001    1    1    2    0    0 -0.66603472357E+02  0.33815661165E+02  0.55118281021E+02  0.12060906422E+03  0.77000000000E+02 0.  0.
   -5000001    1    1    2    0    0  0.66603472357E+02 -0.33815661165E+02  0.53691456948E+02  0.11996371960E+03  0.77000000000E+02 0.  0.
<mgrwt>
<rscale>  0 0.21455933E+03</rscale>
<asrwt>0</asrwt>
<pdfrwt beam="1">  1        2 0.94116462E-02 0.21455933E+03</pdfrwt>
<pdfrwt beam="2">  1       -2 0.24955894E-01 0.21455933E+03</pdfrwt>
<totfact> 0.96031052E+03</totfact>
</mgrwt>
</event>
<event>
 4    1  0.1308644E-003  0.2804876E+03  0.7818608E-02  0.1095423E+00
          2   -1    0    0  501    0  0.00000000000E+00  0.00000000000E+00  0.17265724442E+03  0.17265724444E+03  0.25500000000E-02 0. -1.
         -2   -1    0    0    0  501 -0.00000000000E+00 -0.00000000000E+00 -0.11391540057E+03  0.11391540060E+03  0.25500000000E-02 0.  1.
    5000001    1    1    2    0    0 -0.52828126307E+02 -0.99074432263E+02  0.63757665088E+02  0.15033493910E+03  0.77000000000E+02 0.  0.
   -5000001    1    1    2    0    0  0.52828126307E+02  0.99074432263E+02 -0.50158212347E+01  0.13623770594E+03  0.77000000000E+02 0.  0.
<mgrwt>
<rscale>  0 0.28048757E+03</rscale>
<asrwt>0</asrwt>
<pdfrwt beam="1">  1        2 0.24665320E-01 0.28048757E+03</pdfrwt>
<pdfrwt beam="2">  1       -2 0.16273629E-01 0.28048757E+03</pdfrwt>
<totfact> 0.64781953E+03</totfact>
</mgrwt>
</event>
<event>
 4    1  0.1308644E-003  0.2326897E+03  0.7818608E-02  0.1124761E+00
          2   -1    0    0  501    0  0.00000000000E+00  0.00000000000E+00  0.73684344647E+03  0.73684344647E+03  0.25500000000E-02 0. -1.
         -2   -1    0    0    0  501 -0.00000000000E+00 -0.00000000000E+00 -0.18370421916E+02  0.18370422093E+02  0.25500000000E-02 0.  1.
    5000001    1    1    2    0    0 -0.12859163940E+02 -0.85528122111E+02  0.39577020696E+03  0.41236327975E+03  0.77000000000E+02 0.  0.
   -5000001    1    1    2    0    0  0.12859163940E+02  0.85528122111E+02  0.32270281759E+03  0.34285058881E+03  0.77000000000E+02 0.  0.
<mgrwt>
<rscale>  0 0.23268971E+03</rscale>
<asrwt>0</asrwt>
<pdfrwt beam="1">  1        2 0.10526336E+00 0.23268971E+03</pdfrwt>
<pdfrwt beam="2">  1       -2 0.26243458E-02 0.23268971E+03</pdfrwt>
<totfact> 0.21952909E+04</totfact>
</mgrwt>
</event>
<event>
 4    1  0.1308644E-003  0.2722627E+03  0.7818608E-02  0.1099992E+00
          2   -1    0    0  501    0  0.00000000000E+00  0.00000000000E+00  0.52815570543E+03  0.52815570544E+03  0.25500000000E-02 0.  1.
         -2   -1    0    0    0  501 -0.00000000000E+00 -0.00000000000E+00 -0.35087648141E+02  0.35087648233E+02  0.25500000000E-02 0. -1.
    5000001    1    1    2    0    0 -0.10167989929E+03 -0.11786199728E+01  0.34493674900E+03  0.36776426128E+03  0.77000000000E+02 0.  0.
   -5000001    1    1    2    0    0  0.10167989929E+03  0.11786199728E+01  0.14813130829E+03  0.19547909239E+03  0.77000000000E+02 0.  0.
<mgrwt>
<rscale>  0 0.27226268E+03</rscale>
<asrwt>0</asrwt>
<pdfrwt beam="1">  1        2 0.75450808E-01 0.27226268E+03</pdfrwt>
<pdfrwt beam="2">  1       -2 0.50125217E-02 0.27226268E+03</pdfrwt>
<totfact> 0.12328675E+04</totfact>
</mgrwt>
</event>
<event>
 4    1  0.1308644E-003  0.4207312E+03  0.7818608E-02  0.1036829E+00
          2   -1    0    0  501    0  0.00000000000E+00  0.00000000000E+00  0.18239554744E+04  0.18239554744E+04  0.25500000000E-02 0.  1.
         -2   -1    0    0    0  501 -0.00000000000E+00 -0.00000000000E+00 -0.24262477018E+02  0.24262477152E+02  0.25500000000E-02 0. -1.
    5000001    1    1    2    0    0 -0.15735893702E+03 -0.34790527186E+02  0.13880774046E+04  0.13995213814E+04  0.77000000000E+02 0.  0.
   -5000001    1    1    2    0    0  0.15735893702E+03  0.34790527186E+02  0.41161559274E+03  0.44869657011E+03  0.77000000000E+02 0.  0.
<mgrwt>
<rscale>  0 0.42073116E+03</rscale>
<asrwt>0</asrwt>
<pdfrwt beam="1">  1        2 0.26056511E+00 0.42073116E+03</pdfrwt>
<pdfrwt beam="2">  1       -2 0.34660676E-02 0.42073116E+03</pdfrwt>
<totfact> 0.36693716E+03</totfact>
</mgrwt>
</event>
<event>
 4    1  0.1308644E-003  0.1161818E+04  0.7818608E-02  0.9146950E-01
          2   -1    0    0  501    0  0.00000000000E+00  0.00000000000E+00  0.31902074541E+04  0.31902074541E+04  0.25500000000E-02 0.  1.
         -2   -1    0    0    0  501 -0.00000000000E+00 -0.00000000000E+00 -0.10577838278E+03  0.10577838281E+03  0.25500000000E-02 0. -1.
    5000001    1    1    2    0    0  0.64869632201E+01  0.54393166365E+03  0.10067778920E+04  0.11469239117E+04  0.77000000000E+02 0.  0.
   -5000001    1    1    2    0    0 -0.64869632201E+01 -0.54393166365E+03  0.20776511793E+04  0.21490619252E+04  0.77000000000E+02 0.  0.
<mgrwt>
<rscale>  0 0.11618175E+04</rscale>
<asrwt>0</asrwt>
<pdfrwt beam="1">  1        2 0.45574391E+00 0.11618175E+04</pdfrwt>
<pdfrwt beam="2">  1       -2 0.15111198E-01 0.11618175E+04</pdfrwt>
<totfact> 0.64097095E+01</totfact>
</mgrwt>
</event>
<event>
 4    1  0.1308644E-003  0.5237980E+03  0.7818608E-02  0.1007747E+00
         -2   -1    0    0    0  501 -0.00000000000E+00  0.00000000000E+00  0.94502835049E+02  0.94502835084E+02  0.25500000000E-02 0. -1.
          2   -1    0    0  501    0  0.00000000000E+00 -0.00000000000E+00 -0.72580969284E+03  0.72580969284E+03  0.25500000000E-02 0.  1.
    5000001    1    1    2    0    0 -0.17391550600E+03  0.12531883699E+03 -0.51810089426E+03  0.56595843555E+03  0.77000000000E+02 0.  0.
   -5000001    1    1    2    0    0  0.17391550600E+03 -0.12531883699E+03 -0.11320596353E+03  0.25435409238E+03  0.77000000000E+02 0.  0.
<mgrwt>
<rscale>  0 0.52379795E+03</rscale>
<asrwt>0</asrwt>
<pdfrwt beam="1">  1        2 0.10368710E+00 0.52379795E+03</pdfrwt>
<pdfrwt beam="2">  1       -2 0.13500405E-01 0.52379795E+03</pdfrwt>
<totfact> 0.17979994E+03</totfact>
</mgrwt>
</event>
<event>
 4    1  0.1308644E-003  0.2879675E+03  0.7818608E-02  0.1091415E+00
         -2   -1    0    0    0  501 -0.00000000000E+00  0.00000000000E+00  0.81527966686E+02  0.81527966726E+02  0.25500000000E-02 0. -1.
          2   -1    0    0  501    0  0.00000000000E+00 -0.00000000000E+00 -0.25428470231E+03  0.25428470233E+03  0.25500000000E-02 0.  1.
    5000001    1    1    2    0    0 -0.47427251918E+02 -0.50712068564E+02 -0.20288382518E+03  0.22784184129E+03  0.77000000000E+02 0.  0.
   -5000001    1    1    2    0    0  0.47427251918E+02  0.50712068564E+02  0.30127089554E+02  0.10797082776E+03  0.77000000000E+02 0.  0.
<mgrwt>
<rscale>  0 0.28796746E+03</rscale>
<asrwt>0</asrwt>
<pdfrwt beam="1">  1        2 0.36326386E-01 0.28796746E+03</pdfrwt>
<pdfrwt beam="2">  1       -2 0.11646852E-01 0.28796746E+03</pdfrwt>
<totfact> 0.73280949E+03</totfact>
</mgrwt>
</event>
<event>
 4    1  0.1308644E-003  0.1815061E+03  0.7818608E-02  0.1166353E+00
          2   -1    0    0  501    0  0.00000000000E+00  0.00000000000E+00  0.75795223497E+03  0.75795223498E+03  0.25500000000E-02 0.  1.
         -2   -1    0    0    0  501 -0.00000000000E+00 -0.00000000000E+00 -0.10866274544E+02  0.10866274844E+02  0.25500000000E-02 0. -1.
    5000001    1    1    2    0    0 -0.40162679974E+02  0.22395967117E+02  0.43231147198E+03  0.44151651046E+03  0.77000000000E+02 0.  0.
   -5000001    1    1    2    0    0  0.40162679974E+02 -0.22395967117E+02  0.31477448845E+03  0.32730199936E+03  0.77000000000E+02 0.  0.
<mgrwt>
<rscale>  0 0.18150611E+03</rscale>
<asrwt>0</asrwt>
<pdfrwt beam="1">  1        2 0.10827893E+00 0.18150611E+03</pdfrwt>
<pdfrwt beam="2">  1       -2 0.15523243E-02 0.18150611E+03</pdfrwt>
<totfact> 0.44935222E+04</totfact>
</mgrwt>
</event>
<event>
 4    1  0.1308644E-003  0.1884939E+03  0.7818608E-02  0.1159827E+00
         -2   -1    0    0    0  501 -0.00000000000E+00  0.00000000000E+00  0.39996744546E+03  0.39996744547E+03  0.25500000000E-02 0. -1.
          2   -1    0    0  501    0  0.00000000000E+00 -0.00000000000E+00 -0.22208017103E+02  0.22208017249E+02  0.25500000000E-02 0.  1.
    5000001    1    1    2    0    0 -0.32346666961E+02  0.77454061354E+01  0.28514086720E+03  0.29722148699E+03  0.77000000000E+02 0.  0.
   -5000001    1    1    2    0    0  0.32346666961E+02 -0.77454061354E+01  0.92618561155E+02  0.12495397573E+03  0.77000000000E+02 0.  0.
<mgrwt>
<rscale>  0 0.18849386E+03</rscale>
<asrwt>0</asrwt>
<pdfrwt beam="1">  1        2 0.31725742E-02 0.18849386E+03</pdfrwt>
<pdfrwt beam="2">  1       -2 0.57138200E-01 0.18849386E+03</pdfrwt>
<totfact> 0.82205520E+03</totfact>
</mgrwt>
</event>
<event>
 4    1  0.1308644E-003  0.2586398E+03  0.7818608E-02  0.1107963E+00
          2   -1    0    0  501    0  0.00000000000E+00  0.00000000000E+00  0.32261529210E+03  0.32261529211E+03  0.25500000000E-02 0.  1.
         -2   -1    0    0    0  501 -0.00000000000E+00 -0.00000000000E+00 -0.51837720192E+02  0.51837720255E+02  0.25500000000E-02 0. -1.
    5000001    1    1    2    0    0 -0.47458061098E+02  0.88418418403E+02  0.17435948389E+03  0.21540732090E+03  0.77000000000E+02 0.  0.
   -5000001    1    1    2    0    0  0.47458061098E+02 -0.88418418403E+02  0.96418088024E+02  0.15904569147E+03  0.77000000000E+02 0.  0.
<mgrwt>
<rscale>  0 0.25863984E+03</rscale>
<asrwt>0</asrwt>
<pdfrwt beam="1">  1        2 0.46087899E-01 0.25863984E+03</pdfrwt>
<pdfrwt beam="2">  1       -2 0.74053885E-02 0.25863984E+03</pdfrwt>
<totfact> 0.11544601E+04</totfact>
</mgrwt>
</event>
<event>
 4    1  0.1308644E-003  0.4154720E+03  0.7818608E-02  0.1038550E+00
          2   -1    0    0  501    0  0.00000000000E+00  0.00000000000E+00  0.12629490675E+04  0.12629490675E+04  0.25500000000E-02 0.  1.
         -2   -1    0    0    0  501 -0.00000000000E+00 -0.00000000000E+00 -0.34169424032E+02  0.34169424128E+02  0.25500000000E-02 0. -1.
    5000001    1    1    2    0    0 -0.19030370982E+03 -0.26905151196E+02  0.66717468478E+03  0.69856313182E+03  0.77000000000E+02 0.  0.
   -5000001    1    1    2    0    0  0.19030370982E+03  0.26905151196E+02  0.56160495868E+03  0.59855535980E+03  0.77000000000E+02 0.  0.
<mgrwt>
<rscale>  0 0.41547198E+03</rscale>
<asrwt>0</asrwt>
<pdfrwt beam="1">  1        2 0.18042132E+00 0.41547198E+03</pdfrwt>
<pdfrwt beam="2">  1       -2 0.48813456E-02 0.41547198E+03</pdfrwt>
<totfact> 0.42272962E+03</totfact>
</mgrwt>
</event>
<event>
 4    1  0.1308644E-003  0.5301939E+03  0.7818608E-02  0.1006185E+00
          2   -1    0    0  501    0  0.00000000000E+00  0.00000000000E+00  0.21813831987E+04  0.21813831987E+04  0.25500000000E-02 0.  1.
         -2   -1    0    0    0  501 -0.00000000000E+00 -0.00000000000E+00 -0.32216442006E+02  0.32216442107E+02  0.25500000000E-02 0. -1.
    5000001    1    1    2    0    0  0.58104384713E+02  0.17295877356E+03  0.18103513939E+04  0.18211512914E+04  0.77000000000E+02 0.  0.
   -5000001    1    1    2    0    0 -0.58104384713E+02 -0.17295877356E+03  0.33881536288E+03  0.39244834947E+03  0.77000000000E+02 0.  0.
<mgrwt>
<rscale>  0 0.53019395E+03</rscale>
<asrwt>0</asrwt>
<pdfrwt beam="1">  1        2 0.31162624E+00 0.53019395E+03</pdfrwt>
<pdfrwt beam="2">  1       -2 0.46023479E-02 0.53019395E+03</pdfrwt>
<totfact> 0.15724970E+03</totfact>
</mgrwt>
</event>
<event>
 4    1  0.1308644E-003  0.1945489E+03  0.7818608E-02  0.1154421E+00
          2   -1    0    0  501    0  0.00000000000E+00  0.00000000000E+00  0.17124745054E+03  0.17124745056E+03  0.25500000000E-02 0.  1.
         -2   -1    0    0    0  501 -0.00000000000E+00 -0.00000000000E+00 -0.55255263618E+02  0.55255263677E+02  0.25500000000E-02 0. -1.
    5000001    1    1    2    0    0 -0.28177729879E+02 -0.49635394240E+02  0.38665895692E+02  0.10335235030E+03  0.77000000000E+02 0.  0.
   -5000001    1    1    2    0    0  0.28177729879E+02  0.49635394240E+02  0.77326291229E+02  0.12315036394E+03  0.77000000000E+02 0.  0.
<mgrwt>
<rscale>  0 0.19454895E+03</rscale>
<asrwt>0</asrwt>
<pdfrwt beam="1">  1        2 0.24463922E-01 0.19454895E+03</pdfrwt>
<pdfrwt beam="2">  1       -2 0.78936090E-02 0.19454895E+03</pdfrwt>
<totfact> 0.20445977E+04</totfact>
</mgrwt>
</event>
<event>
 4    1  0.1308644E-003  0.2394155E+03  0.7818608E-02  0.1120183E+00
          2   -1    0    0  501    0  0.00000000000E+00  0.00000000000E+00  0.50726769258E+03  0.50726769259E+03  0.25500000000E-02 0.  1.
         -2   -1    0    0    0  501 -0.00000000000E+00 -0.00000000000E+00 -0.28249286053E+02  0.28249286168E+02  0.25500000000E-02 0. -1.
    5000001    1    1    2    0    0  0.65377756863E+02 -0.33614003056E+02  0.11706178404E+03  0.15822962294E+03  0.77000000000E+02 0.  0.
   -5000001    1    1    2    0    0 -0.65377756863E+02  0.33614003056E+02  0.36195662249E+03  0.37728735581E+03  0.77000000000E+02 0.  0.
<mgrwt>
<rscale>  0 0.23941554E+03</rscale>
<asrwt>0</asrwt>
<pdfrwt beam="1">  1        2 0.72466812E-01 0.23941554E+03</pdfrwt>
<pdfrwt beam="2">  1       -2 0.40356124E-02 0.23941554E+03</pdfrwt>
<totfact> 0.17770854E+04</totfact>
</mgrwt>
</event>
<event>
 4    1  0.1308644E-003  0.8008393E+03  0.7818608E-02  0.9558803E-01
          2   -1    0    0  501    0  0.00000000000E+00  0.00000000000E+00  0.18118074016E+04  0.18118074016E+04  0.25500000000E-02 0.  1.
         -2   -1    0    0    0  501 -0.00000000000E+00 -0.00000000000E+00 -0.88494997427E+02  0.88494997464E+02  0.25500000000E-02 0. -1.
    5000001    1    1    2    0    0  0.30677567749E+03 -0.18399001100E+03  0.47579175179E+03  0.60022531729E+03  0.77000000000E+02 0.  0.
   -5000001    1    1    2    0    0 -0.30677567749E+03  0.18399001100E+03  0.12475206524E+04  0.13000770818E+04  0.77000000000E+02 0.  0.
<mgrwt>
<rscale>  0 0.80083929E+03</rscale>
<asrwt>0</asrwt>
<pdfrwt beam="1">  1        2 0.25882965E+00 0.80083929E+03</pdfrwt>
<pdfrwt beam="2">  1       -2 0.12642141E-01 0.80083929E+03</pdfrwt>
<totfact> 0.47433982E+02</totfact>
</mgrwt>
</event>
<event>
 4    1  0.1308644E-003  0.2701374E+03  0.7818608E-02  0.1101201E+00
         -2   -1    0    0    0  501 -0.00000000000E+00  0.00000000000E+00  0.52844225166E+02  0.52844225228E+02  0.25500000000E-02 0. -1.
          2   -1    0    0  501    0  0.00000000000E+00 -0.00000000000E+00 -0.34523281207E+03  0.34523281208E+03  0.25500000000E-02 0.  1.
    5000001    1    1    2    0    0 -0.45319961408E+02 -0.80657007549E+02 -0.55893079827E+02  0.13271204972E+03  0.77000000000E+02 0.  0.
   -5000001    1    1    2    0    0  0.45319961408E+02  0.80657007549E+02 -0.23649550708E+03  0.26536498758E+03  0.77000000000E+02 0.  0.
<mgrwt>
<rscale>  0 0.27013745E+03</rscale>
<asrwt>0</asrwt>
<pdfrwt beam="1">  1        2 0.49318972E-01 0.27013745E+03</pdfrwt>
<pdfrwt beam="2">  1       -2 0.75491752E-02 0.27013745E+03</pdfrwt>
<totfact> 0.10439009E+04</totfact>
</mgrwt>
</event>
<event>
 4    1  0.1308644E-003  0.5411984E+03  0.7818608E-02  0.1003552E+00
          2   -1    0    0  501    0  0.00000000000E+00  0.00000000000E+00  0.33272263786E+04  0.33272263786E+04  0.25500000000E-02 0.  1.
         -2   -1    0    0    0  501 -0.00000000000E+00 -0.00000000000E+00 -0.22007497392E+02  0.22007497539E+02  0.25500000000E-02 0. -1.
    5000001    1    1    2    0    0 -0.16176906166E+03  0.12495396554E+03  0.26410782216E+04  0.26500954502E+04  0.77000000000E+02 0.  0.
   -5000001    1    1    2    0    0  0.16176906166E+03 -0.12495396554E+03  0.66414065957E+03  0.69913842585E+03  0.77000000000E+02 0.  0.
<mgrwt>
<rscale>  0 0.54119840E+03</rscale>
<asrwt>0</asrwt>
<pdfrwt beam="1">  1        2 0.47531770E+00 0.54119840E+03</pdfrwt>
<pdfrwt beam="2">  1       -2 0.31439305E-02 0.54119840E+03</pdfrwt>
<totfact> 0.69746389E+02</totfact>
</mgrwt>
</event>
<event>
 4    1  0.1308644E-003  0.2172143E+03  0.7818608E-02  0.1135977E+00
         -2   -1    0    0    0  501 -0.00000000000E+00  0.00000000000E+00  0.17856637924E+02  0.17856638106E+02  0.25500000000E-02 0. -1.
          2   -1    0    0  501    0  0.00000000000E+00 -0.00000000000E+00 -0.66056710227E+03  0.66056710227E+03  0.25500000000E-02 0.  1.
    5000001    1    1    2    0    0 -0.64476268036E+02 -0.40699375019E+02 -0.34406725654E+03  0.36072829843E+03  0.77000000000E+02 0.  0.
   -5000001    1    1    2    0    0  0.64476268036E+02  0.40699375019E+02 -0.29864320781E+03  0.31769544195E+03  0.77000000000E+02 0.  0.
<mgrwt>
<rscale>  0 0.21721425E+03</rscale>
<asrwt>0</asrwt>
<pdfrwt beam="1">  1        2 0.94366714E-01 0.21721425E+03</pdfrwt>
<pdfrwt beam="2">  1       -2 0.25509487E-02 0.21721425E+03</pdfrwt>
<totfact> 0.25924765E+04</totfact>
</mgrwt>
</event>
<event>
 4    1  0.1308644E-003  0.5611371E+03  0.7818608E-02  0.9989485E-01
         -2   -1    0    0    0  501 -0.00000000000E+00  0.00000000000E+00  0.53845832666E+03  0.53845832667E+03  0.25500000000E-02 0. -1.
          2   -1    0    0  501    0  0.00000000000E+00 -0.00000000000E+00 -0.14619277746E+03  0.14619277748E+03  0.25500000000E-02 0.  1.
    5000001    1    1    2    0    0 -0.30727064732E+02  0.19819126690E+03  0.41631441482E+03  0.46847691808E+03  0.77000000000E+02 0.  0.
   -5000001    1    1    2    0    0  0.30727064732E+02 -0.19819126690E+03 -0.24048865621E+02  0.21617418607E+03  0.77000000000E+02 0.  0.
<mgrwt>
<rscale>  0 0.56113713E+03</rscale>
<asrwt>0</asrwt>
<pdfrwt beam="1">  1        2 0.20884683E-01 0.56113713E+03</pdfrwt>
<pdfrwt beam="2">  1       -2 0.76922618E-01 0.56113713E+03</pdfrwt>
<totfact> 0.41155579E+02</totfact>
</mgrwt>
</event>
<event>
 4    1  0.1308644E-003  0.7593814E+03  0.7818608E-02  0.9620746E-01
         -2   -1    0    0    0  501 -0.00000000000E+00  0.00000000000E+00  0.33364312457E+02  0.33364312554E+02  0.25500000000E-02 0. -1.
          2   -1    0    0  501    0  0.00000000000E+00 -0.00000000000E+00 -0.43209347190E+04  0.43209347190E+04  0.25500000000E-02 0.  1.
    5000001    1    1    2    0    0  0.15255290534E+03  0.33452243077E+03 -0.24608904097E+04  0.24893951583E+04  0.77000000000E+02 0.  0.
   -5000001    1    1    2    0    0 -0.15255290534E+03 -0.33452243077E+03 -0.18266799969E+04  0.18649038733E+04  0.77000000000E+02 0.  0.
<mgrwt>
<rscale>  0 0.75938137E+03</rscale>
<asrwt>0</asrwt>
<pdfrwt beam="1">  1        2 0.61727603E+00 0.75938137E+03</pdfrwt>
<pdfrwt beam="2">  1       -2 0.47663331E-02 0.75938137E+03</pdfrwt>
<totfact> 0.81883920E+01</totfact>
</mgrwt>
</event>
<event>
 4    1  0.1308644E-003  0.2877834E+03  0.7818608E-02  0.1091512E+00
          2   -1    0    0  501    0  0.00000000000E+00  0.00000000000E+00  0.15824305518E+04  0.15824305518E+04  0.25500000000E-02 0.  1.
         -2   -1    0    0    0  501 -0.00000000000E+00 -0.00000000000E+00 -0.13084191143E+02  0.13084191391E+02  0.25500000000E-02 0. -1.
    5000001    1    1    2    0    0  0.86391617406E+02  0.59692594582E+02  0.11241412642E+04  0.11316577659E+04  0.77000000000E+02 0.  0.
   -5000001    1    1    2    0    0 -0.86391617406E+02 -0.59692594582E+02  0.44520509646E+03  0.46385697722E+03  0.77000000000E+02 0.  0.
<mgrwt>
<rscale>  0 0.28778342E+03</rscale>
<asrwt>0</asrwt>
<pdfrwt beam="1">  1        2 0.22606149E+00 0.28778342E+03</pdfrwt>
<pdfrwt beam="2">  1       -2 0.18691703E-02 0.28778342E+03</pdfrwt>
<totfact> 0.12121630E+04</totfact>
</mgrwt>
</event>
<event>
 4    1  0.1308644E-003  0.1871485E+03  0.7818608E-02  0.1161059E+00
          2   -1    0    0  501    0  0.00000000000E+00  0.00000000000E+00  0.27813360691E+04  0.27813360691E+04  0.25500000000E-02 0.  1.
         -2   -1    0    0    0  501 -0.00000000000E+00 -0.00000000000E+00 -0.31481769899E+01  0.31481780227E+01  0.25500000000E-02 0. -1.
    5000001    1    1    2    0    0  0.51929634832E+02 -0.37479337480E+01  0.15496199896E+04  0.15524051811E+04  0.77000000000E+02 0.  0.
   -5000001    1    1    2    0    0 -0.51929634832E+02  0.37479337480E+01  0.12285679025E+04  0.12320790661E+04  0.77000000000E+02 0.  0.
<mgrwt>
<rscale>  0 0.18714849E+03</rscale>
<asrwt>0</asrwt>
<pdfrwt beam="1">  1        2 0.39733304E+00 0.18714849E+03</pdfrwt>
<pdfrwt beam="2">  1       -2 0.44974041E-03 0.18714849E+03</pdfrwt>
<totfact> 0.24155252E+04</totfact>
</mgrwt>
</event>
<event>
 4    1  0.1308644E-003  0.2777479E+03  0.7818608E-02  0.1096925E+00
         -2   -1    0    0    0  501 -0.00000000000E+00  0.00000000000E+00  0.47927578764E+02  0.47927578832E+02  0.25500000000E-02 0. -1.
          2   -1    0    0  501    0  0.00000000000E+00 -0.00000000000E+00 -0.40239817604E+03  0.40239817605E+03  0.25500000000E-02 0.  1.
    5000001    1    1    2    0    0  0.10201623471E+02  0.52330866905E+02 -0.10982935591E+02  0.94298555804E+02  0.77000000000E+02 0.  0.
   -5000001    1    1    2    0    0 -0.10201623471E+02 -0.52330866905E+02 -0.34348766169E+03  0.35602719908E+03  0.77000000000E+02 0.  0.
<mgrwt>
<rscale>  0 0.27774787E+03</rscale>
<asrwt>0</asrwt>
<pdfrwt beam="1">  1        2 0.57485452E-01 0.27774787E+03</pdfrwt>
<pdfrwt beam="2">  1       -2 0.68467972E-02 0.27774787E+03</pdfrwt>
<totfact> 0.10307956E+04</totfact>
</mgrwt>
</event>
<event>
 4    1  0.1308644E-003  0.3051878E+03  0.7818608E-02  0.1082676E+00
          2   -1    0    0  501    0  0.00000000000E+00  0.00000000000E+00  0.13226936914E+03  0.13226936917E+03  0.25500000000E-02 0.  1.
         -2   -1    0    0    0  501 -0.00000000000E+00 -0.00000000000E+00 -0.17604154373E+03  0.17604154375E+03  0.25500000000E-02 0. -1.
    5000001    1    1    2    0    0 -0.10751403202E+03 -0.57311822837E+02  0.28746577716E+02  0.14696692774E+03  0.77000000000E+02 0.  0.
   -5000001    1    1    2    0    0  0.10751403202E+03  0.57311822837E+02 -0.72518752304E+02  0.16134398518E+03  0.77000000000E+02 0.  0.
<mgrwt>
<rscale>  0 0.30518784E+03</rscale>
<asrwt>0</asrwt>
<pdfrwt beam="1">  1        2 0.18895624E-01 0.30518784E+03</pdfrwt>
<pdfrwt beam="2">  1       -2 0.25148792E-01 0.30518784E+03</pdfrwt>
<totfact> 0.41669024E+03</totfact>
</mgrwt>
</event>
<event>
 4    1  0.1308644E-003  0.7689297E+03  0.7818608E-02  0.9606112E-01
         -2   -1    0    0    0  501 -0.00000000000E+00  0.00000000000E+00  0.13059775169E+03  0.13059775172E+03  0.25500000000E-02 0. -1.
          2   -1    0    0  501    0  0.00000000000E+00 -0.00000000000E+00 -0.11318205050E+04  0.11318205050E+04  0.25500000000E-02 0.  1.
    5000001    1    1    2    0    0  0.12775028636E+03  0.33534059884E+03 -0.31262317991E+03  0.48211586316E+03  0.77000000000E+02 0.  0.
   -5000001    1    1    2    0    0 -0.12775028636E+03 -0.33534059884E+03 -0.68859957336E+03  0.78030239352E+03  0.77000000000E+02 0.  0.
<mgrwt>
<rscale>  0 0.76892968E+03</rscale>
<asrwt>0</asrwt>
<pdfrwt beam="1">  1        2 0.16168864E+00 0.76892968E+03</pdfrwt>
<pdfrwt beam="2">  1       -2 0.18656822E-01 0.76892968E+03</pdfrwt>
<totfact> 0.56614369E+02</totfact>
</mgrwt>
</event>
<event>
 4    1  0.1308644E-003  0.2697304E+03  0.7818608E-02  0.1101434E+00
         -2   -1    0    0    0  501 -0.00000000000E+00  0.00000000000E+00  0.17440610788E+02  0.17440610974E+02  0.25500000000E-02 0. -1.
          2   -1    0    0  501    0  0.00000000000E+00 -0.00000000000E+00 -0.10428887349E+04  0.10428887349E+04  0.25500000000E-02 0.  1.
    5000001    1    1    2    0    0  0.93756340082E+02 -0.56813427959E+02 -0.57382658793E+03  0.58925713396E+03  0.77000000000E+02 0.  0.
   -5000001    1    1    2    0    0 -0.93756340082E+02  0.56813427959E+02 -0.45162153621E+03  0.47107221195E+03  0.77000000000E+02 0.  0.
<mgrwt>
<rscale>  0 0.26973036E+03</rscale>
<asrwt>0</asrwt>
<pdfrwt beam="1">  1        2 0.14898407E+00 0.26973036E+03</pdfrwt>
<pdfrwt beam="2">  1       -2 0.24915165E-02 0.26973036E+03</pdfrwt>
<totfact> 0.15290033E+04</totfact>
</mgrwt>
</event>
<event>
 4    1  0.1308644E-003  0.2808773E+03  0.7818608E-02  0.1095211E+00
         -2   -1    0    0    0  501 -0.00000000000E+00  0.00000000000E+00  0.43497778908E+02  0.43497778983E+02  0.25500000000E-02 0. -1.
          2   -1    0    0  501    0  0.00000000000E+00 -0.00000000000E+00 -0.45342592320E+03  0.45342592321E+03  0.25500000000E-02 0.  1.
    5000001    1    1    2    0    0  0.68089991573E+02  0.36119410293E+02 -0.36174573849E+03  0.37779602706E+03  0.77000000000E+02 0.  0.
   -5000001    1    1    2    0    0 -0.68089991573E+02 -0.36119410293E+02 -0.48182405810E+02  0.11912767513E+03  0.77000000000E+02 0.  0.
<mgrwt>
<rscale>  0 0.28087734E+03</rscale>
<asrwt>0</asrwt>
<pdfrwt beam="1">  1        2 0.64775129E-01 0.28087734E+03</pdfrwt>
<pdfrwt beam="2">  1       -2 0.62139687E-02 0.28087734E+03</pdfrwt>
<totfact> 0.10519229E+04</totfact>
</mgrwt>
</event>
<event>
 4    1  0.1308644E-003  0.6575889E+03  0.7818608E-02  0.9792642E-01
          2   -1    0    0  501    0  0.00000000000E+00  0.00000000000E+00  0.15002016252E+04  0.15002016252E+04  0.25500000000E-02 0.  1.
         -2   -1    0    0    0  501 -0.00000000000E+00 -0.00000000000E+00 -0.72060848671E+02  0.72060848717E+02  0.25500000000E-02 0. -1.
    5000001    1    1    2    0    0 -0.61234032935E+02  0.26397361067E+03  0.11194413895E+04  0.11543438390E+04  0.77000000000E+02 0.  0.
   -5000001    1    1    2    0    0  0.61234032935E+02 -0.26397361067E+03  0.30869938699E+03  0.41791863496E+03  0.77000000000E+02 0.  0.
<mgrwt>
<rscale>  0 0.65758894E+03</rscale>
<asrwt>0</asrwt>
<pdfrwt beam="1">  1        2 0.21431449E+00 0.65758894E+03</pdfrwt>
<pdfrwt beam="2">  1       -2 0.10294408E-01 0.65758894E+03</pdfrwt>
<totfact> 0.96939411E+02</totfact>
</mgrwt>
</event>
<event>
 4    1  0.1308644E-003  0.2439649E+03  0.7818608E-02  0.1117179E+00
          2   -1    0    0  501    0  0.00000000000E+00  0.00000000000E+00  0.22821514841E+03  0.22821514843E+03  0.25500000000E-02 0.  1.
         -2   -1    0    0    0  501 -0.00000000000E+00 -0.00000000000E+00 -0.65200415257E+02  0.65200415307E+02  0.25500000000E-02 0. -1.
    5000001    1    1    2    0    0  0.38962434577E+02 -0.52222720706E+02 -0.99298331334E+00  0.10087254276E+03  0.77000000000E+02 0.  0.
   -5000001    1    1    2    0    0 -0.38962434577E+02  0.52222720706E+02  0.16400771647E+03  0.19254302098E+03  0.77000000000E+02 0.  0.
<mgrwt>
<rscale>  0 0.24396494E+03</rscale>
<asrwt>0</asrwt>
<pdfrwt beam="1">  1        2 0.32602164E-01 0.24396494E+03</pdfrwt>
<pdfrwt beam="2">  1       -2 0.93143452E-02 0.24396494E+03</pdfrwt>
<totfact> 0.11680990E+04</totfact>
</mgrwt>
</event>
<event>
 4    1  0.1308644E-003  0.2524532E+03  0.7818608E-02  0.1111764E+00
         -2   -1    0    0    0  501 -0.00000000000E+00  0.00000000000E+00  0.23405518525E+02  0.23405518664E+02  0.25500000000E-02 0. -1.
          2   -1    0    0  501    0  0.00000000000E+00 -0.00000000000E+00 -0.68074325136E+03  0.68074325136E+03  0.25500000000E-02 0.  1.
    5000001    1    1    2    0    0 -0.98762052697E+02 -0.15794113081E+02 -0.33108725493E+03  0.35433200171E+03  0.77000000000E+02 0.  0.
   -5000001    1    1    2    0    0  0.98762052697E+02  0.15794113081E+02 -0.32625047790E+03  0.34981676831E+03  0.77000000000E+02 0.  0.
<mgrwt>
<rscale>  0 0.25245315E+03</rscale>
<asrwt>0</asrwt>
<pdfrwt beam="1">  1        2 0.97249024E-01 0.25245315E+03</pdfrwt>
<pdfrwt beam="2">  1       -2 0.33436459E-02 0.25245315E+03</pdfrwt>
<totfact> 0.16907906E+04</totfact>
</mgrwt>
</event>
<event>
 4    1  0.1308644E-003  0.2260178E+03  0.7818608E-02  0.1129474E+00
          2   -1    0    0  501    0  0.00000000000E+00  0.00000000000E+00  0.79389262320E+03  0.79389262321E+03  0.25500000000E-02 0.  1.
         -2   -1    0    0    0  501 -0.00000000000E+00 -0.00000000000E+00 -0.16086567610E+02  0.16086567812E+02  0.25500000000E-02 0. -1.
    5000001    1    1    2    0    0 -0.46120289862E+02 -0.62354623140E+02  0.49195081848E+03  0.50394423101E+03  0.77000000000E+02 0.  0.
   -5000001    1    1    2    0    0  0.46120289862E+02  0.62354623140E+02  0.28585523711E+03  0.30603496001E+03  0.77000000000E+02 0.  0.
<mgrwt>
<rscale>  0 0.22601776E+03</rscale>
<asrwt>0</asrwt>
<pdfrwt beam="1">  1        2 0.11341326E+00 0.22601776E+03</pdfrwt>
<pdfrwt beam="2">  1       -2 0.22980806E-02 0.22601776E+03</pdfrwt>
<totfact> 0.24345200E+04</totfact>
</mgrwt>
</event>
<event>
 4    1  0.1308644E-003  0.1896982E+03  0.7818608E-02  0.1158734E+00
          2   -1    0    0  501    0  0.00000000000E+00  0.00000000000E+00  0.17148778089E+04  0.17148778089E+04  0.25500000000E-02 0.  1.
         -2   -1    0    0    0  501 -0.00000000000E+00 -0.00000000000E+00 -0.52460579159E+01  0.52460585356E+01  0.25500000000E-02 0. -1.
    5000001    1    1    2    0    0  0.46675731000E+02 -0.12003248119E+02  0.11022569583E+04  0.11059937178E+04  0.77000000000E+02 0.  0.
   -5000001    1    1    2    0    0 -0.46675731000E+02  0.12003248119E+02  0.60737479272E+03  0.61413014961E+03  0.77000000000E+02 0.  0.
<mgrwt>
<rscale>  0 0.18969817E+03</rscale>
<asrwt>0</asrwt>
<pdfrwt beam="1">  1        2 0.24498243E+00 0.18969817E+03</pdfrwt>
<pdfrwt beam="2">  1       -2 0.74943724E-03 0.18969817E+03</pdfrwt>
<totfact> 0.38603701E+04</totfact>
</mgrwt>
</event>
<event>
 4    1  0.1308644E-003  0.4320335E+03  0.7818608E-02  0.1033220E+00
          2   -1    0    0  501    0  0.00000000000E+00  0.00000000000E+00  0.63126094152E+02  0.63126094203E+02  0.25500000000E-02 0.  1.
         -2   -1    0    0    0  501 -0.00000000000E+00 -0.00000000000E+00 -0.73920674337E+03  0.73920674337E+03  0.25500000000E-02 0. -1.
    5000001    1    1    2    0    0 -0.17348218905E+03 -0.52933023556E+02 -0.50243644319E+03  0.53969375978E+03  0.77000000000E+02 0.  0.
   -5000001    1    1    2    0    0  0.17348218905E+03  0.52933023556E+02 -0.17364420603E+03  0.26263907780E+03  0.77000000000E+02 0.  0.
<mgrwt>
<rscale>  0 0.43203349E+03</rscale>
<asrwt>0</asrwt>
<pdfrwt beam="1">  1        2 0.90180139E-02 0.43203349E+03</pdfrwt>
<pdfrwt beam="2">  1       -2 0.10560096E+00 0.43203349E+03</pdfrwt>
<totfact> 0.55433407E+02</totfact>
</mgrwt>
</event>
<event>
 4    1  0.1308644E-003  0.3128809E+03  0.7818608E-02  0.1078973E+00
          2   -1    0    0  501    0  0.00000000000E+00  0.00000000000E+00  0.48175831999E+03  0.48175831999E+03  0.25500000000E-02 0.  1.
         -2   -1    0    0    0  501 -0.00000000000E+00 -0.00000000000E+00 -0.50800621538E+02  0.50800621602E+02  0.25500000000E-02 0. -1.
    5000001    1    1    2    0    0  0.94645775439E+02  0.92739522719E+02  0.26893118705E+03  0.30953420692E+03  0.77000000000E+02 0.  0.
   -5000001    1    1    2    0    0 -0.94645775439E+02 -0.92739522719E+02  0.16202651140E+03  0.22302473468E+03  0.77000000000E+02 0.  0.
<mgrwt>
<rscale>  0 0.31288095E+03</rscale>
<asrwt>0</asrwt>
<pdfrwt beam="1">  1        2 0.68822619E-01 0.31288095E+03</pdfrwt>
<pdfrwt beam="2">  1       -2 0.72572314E-02 0.31288095E+03</pdfrwt>
<totfact> 0.77703920E+03</totfact>
</mgrwt>
</event>
<event>
 4    1  0.1308644E-003  0.2931686E+03  0.7818608E-02  0.1088706E+00
         -2   -1    0    0    0  501 -0.00000000000E+00  0.00000000000E+00  0.72363064327E+01  0.72363068820E+01  0.25500000000E-02 0. -1.
          2   -1    0    0  501    0  0.00000000000E+00 -0.00000000000E+00 -0.29693256511E+04  0.29693256511E+04  0.25500000000E-02 0.  1.
    5000001    1    1    2    0    0 -0.10294135501E+03 -0.68810802221E+02 -0.13283760988E+04  0.13363547092E+04  0.77000000000E+02 0.  0.
   -5000001    1    1    2    0    0  0.10294135501E+03  0.68810802221E+02 -0.16337132459E+04  0.16402072488E+04  0.77000000000E+02 0.  0.
<mgrwt>
<rscale>  0 0.29316856E+03</rscale>
<asrwt>0</asrwt>
<pdfrwt beam="1">  1        2 0.42418860E+00 0.29316856E+03</pdfrwt>
<pdfrwt beam="2">  1       -2 0.10337600E-02 0.29316856E+03</pdfrwt>
<totfact> 0.58522576E+03</totfact>
</mgrwt>
</event>
<event>
 4    1  0.1308644E-003  0.2307148E+03  0.7818608E-02  0.1126138E+00
          2   -1    0    0  501    0  0.00000000000E+00  0.00000000000E+00  0.10212805088E+03  0.10212805091E+03  0.25500000000E-02 0.  1.
         -2   -1    0    0    0  501 -0.00000000000E+00 -0.00000000000E+00 -0.13030040315E+03  0.13030040318E+03  0.25500000000E-02 0. -1.
    5000001    1    1    2    0    0 -0.68039369709E+02  0.49984284014E+02 -0.30032255928E+02  0.11814703075E+03  0.77000000000E+02 0.  0.
   -5000001    1    1    2    0    0  0.68039369709E+02 -0.49984284014E+02  0.18599036572E+01  0.11428142334E+03  0.77000000000E+02 0.  0.
<mgrwt>
<rscale>  0 0.23071477E+03</rscale>
<asrwt>0</asrwt>
<pdfrwt beam="1">  1        2 0.14589722E-01 0.23071477E+03</pdfrwt>
<pdfrwt beam="2">  1       -2 0.18614343E-01 0.23071477E+03</pdfrwt>
<totfact> 0.93787397E+03</totfact>
</mgrwt>
</event>
<event>
 4    1  0.1308644E-003  0.3413032E+03  0.7818608E-02  0.1066242E+00
          2   -1    0    0  501    0  0.00000000000E+00  0.00000000000E+00  0.20790200440E+04  0.20790200440E+04  0.25500000000E-02 0.  1.
         -2   -1    0    0    0  501 -0.00000000000E+00 -0.00000000000E+00 -0.14007549527E+02  0.14007549759E+02  0.25500000000E-02 0. -1.
    5000001    1    1    2    0    0 -0.69758956805E+02 -0.26028206107E+02  0.21780757375E+03  0.24271983592E+03  0.77000000000E+02 0.  0.
   -5000001    1    1    2    0    0  0.69758956805E+02  0.26028206107E+02  0.18472049208E+04  0.18503077579E+04  0.77000000000E+02 0.  0.
<mgrwt>
<rscale>  0 0.34130325E+03</rscale>
<asrwt>0</asrwt>
<pdfrwt beam="1">  1        2 0.29700277E+00 0.34130325E+03</pdfrwt>
<pdfrwt beam="2">  1       -2 0.20010791E-02 0.34130325E+03</pdfrwt>
<totfact> 0.62499130E+03</totfact>
</mgrwt>
</event>
<event>
 4    1  0.1308644E-003  0.2121356E+03  0.7818608E-02  0.1139886E+00
         -2   -1    0    0    0  501 -0.00000000000E+00  0.00000000000E+00  0.39572738562E+02  0.39572738644E+02  0.25500000000E-02 0. -1.
          2   -1    0    0  501    0  0.00000000000E+00 -0.00000000000E+00 -0.28429622406E+03  0.28429622408E+03  0.25500000000E-02 0.  1.
    5000001    1    1    2    0    0  0.40366519271E+02  0.41204740901E+02 -0.54186215251E+02  0.11041934828E+03  0.77000000000E+02 0.  0.
   -5000001    1    1    2    0    0 -0.40366519271E+02 -0.41204740901E+02 -0.19053727025E+03  0.21344961444E+03  0.77000000000E+02 0.  0.
<mgrwt>
<rscale>  0 0.21213562E+03</rscale>
<asrwt>0</asrwt>
<pdfrwt beam="1">  1        2 0.40613745E-01 0.21213562E+03</pdfrwt>
<pdfrwt beam="2">  1       -2 0.56532485E-02 0.21213562E+03</pdfrwt>
<totfact> 0.19786933E+04</totfact>
</mgrwt>
</event>
<event>
 4    1  0.1308644E-003  0.1675257E+03  0.7818608E-02  0.1180453E+00
         -2   -1    0    0    0  501 -0.00000000000E+00  0.00000000000E+00  0.56754712864E+01  0.56754718593E+01  0.25500000000E-02 0. -1.
          2   -1    0    0  501    0  0.00000000000E+00 -0.00000000000E+00 -0.12362341445E+04  0.12362341445E+04  0.25500000000E-02 0.  1.
    5000001    1    1    2    0    0 -0.18245657532E+02 -0.26036893298E+02 -0.55048739684E+03  0.55675506096E+03  0.77000000000E+02 0.  0.
   -5000001    1    1    2    0    0  0.18245657532E+02  0.26036893298E+02 -0.68007127635E+03  0.68515455537E+03  0.77000000000E+02 0.  0.
<mgrwt>
<rscale>  0 0.16752566E+03</rscale>
<asrwt>0</asrwt>
<pdfrwt beam="1">  1        2 0.17660471E+00 0.16752566E+03</pdfrwt>
<pdfrwt beam="2">  1       -2 0.81078244E-03 0.16752566E+03</pdfrwt>
<totfact> 0.59378623E+04</totfact>
</mgrwt>
</event>
<event>
 4    1  0.1308644E-003  0.3174008E+03  0.7818608E-02  0.1076852E+00
         -2   -1    0    0    0  501 -0.00000000000E+00  0.00000000000E+00  0.23591590797E+02  0.23591590935E+02  0.25500000000E-02 0. -1.
          2   -1    0    0  501    0  0.00000000000E+00 -0.00000000000E+00 -0.10675763670E+04  0.10675763670E+04  0.25500000000E-02 0.  1.
    5000001    1    1    2    0    0 -0.94850012560E+02 -0.94748741253E+02 -0.64513058464E+03  0.66339755810E+03  0.77000000000E+02 0.  0.
   -5000001    1    1    2    0    0  0.94850012560E+02  0.94748741253E+02 -0.39885419156E+03  0.42777039984E+03  0.77000000000E+02 0.  0.
<mgrwt>
<rscale>  0 0.31740085E+03</rscale>
<asrwt>0</asrwt>
<pdfrwt beam="1">  1        2 0.15251088E+00 0.31740085E+03</pdfrwt>
<pdfrwt beam="2">  1       -2 0.33702279E-02 0.31740085E+03</pdfrwt>
<totfact> 0.94858643E+03</totfact>
</mgrwt>
</event>
<event>
 4    1  0.1308644E-003  0.3145821E+03  0.7818608E-02  0.1078170E+00
          2   -1    0    0  501    0  0.00000000000E+00  0.00000000000E+00  0.16416929045E+04  0.16416929045E+04  0.25500000000E-02 0.  1.
         -2   -1    0    0    0  501 -0.00000000000E+00 -0.00000000000E+00 -0.15070094929E+02  0.15070095144E+02  0.25500000000E-02 0. -1.
    5000001    1    1    2    0    0  0.11750446350E+03  0.18192265266E+02  0.11733376104E+04  0.11818580310E+04  0.77000000000E+02 0.  0.
   -5000001    1    1    2    0    0 -0.11750446350E+03 -0.18192265266E+02  0.45328519915E+03  0.47490496863E+03  0.77000000000E+02 0.  0.
<mgrwt>
<rscale>  0 0.31458206E+03</rscale>
<asrwt>0</asrwt>
<pdfrwt beam="1">  1        2 0.23452752E+00 0.31458206E+03</pdfrwt>
<pdfrwt beam="2">  1       -2 0.21528710E-02 0.31458206E+03</pdfrwt>
<totfact> 0.92089284E+03</totfact>
</mgrwt>
</event>
<event>
 4    1  0.1308644E-003  0.1887239E+03  0.7818608E-02  0.1159617E+00
          2   -1    0    0  501    0  0.00000000000E+00  0.00000000000E+00  0.50941742933E+02  0.50941742997E+02  0.25500000000E-02 0.  1.
         -2   -1    0    0    0  501 -0.00000000000E+00 -0.00000000000E+00 -0.17479142021E+03  0.17479142023E+03  0.25500000000E-02 0. -1.
    5000001    1    1    2    0    0  0.39815951261E+02 -0.35862901068E+02 -0.74106422690E+02  0.11955007123E+03  0.77000000000E+02 0.  0.
   -5000001    1    1    2    0    0 -0.39815951261E+02  0.35862901068E+02 -0.49743254585E+02  0.10618309199E+03  0.77000000000E+02 0.  0.
<mgrwt>
<rscale>  0 0.18872392E+03</rscale>
<asrwt>0</asrwt>
<pdfrwt beam="1">  1        2 0.72773919E-02 0.18872392E+03</pdfrwt>
<pdfrwt beam="2">  1       -2 0.24970203E-01 0.18872392E+03</pdfrwt>
<totfact> 0.13148352E+04</totfact>
</mgrwt>
</event>
<event>
 4    1  0.1308644E-003  0.2646211E+03  0.7818608E-02  0.1104398E+00
          2   -1    0    0  501    0  0.00000000000E+00  0.00000000000E+00  0.42846463023E+04  0.42846463023E+04  0.25500000000E-02 0.  1.
         -2   -1    0    0    0  501 -0.00000000000E+00 -0.00000000000E+00 -0.40857714491E+01  0.40857722449E+01  0.25500000000E-02 0. -1.
    5000001    1    1    2    0    0 -0.25332609781E+02  0.67854286518E+02  0.85070884260E+03  0.85725170177E+03  0.77000000000E+02 0.  0.
   -5000001    1    1    2    0    0  0.25332609781E+02 -0.67854286518E+02  0.34298516882E+04  0.34314803727E+04  0.77000000000E+02 0.  0.
<mgrwt>
<rscale>  0 0.26462114E+03</rscale>
<asrwt>0</asrwt>
<pdfrwt beam="1">  1        2 0.61209186E+00 0.26462114E+03</pdfrwt>
<pdfrwt beam="2">  1       -2 0.58368214E-03 0.26462114E+03</pdfrwt>
<totfact> 0.21629858E+03</totfact>
</mgrwt>
</event>
<event>
 4    1  0.1308644E-003  0.2339780E+03  0.7818608E-02  0.1123871E+00
          2   -1    0    0  501    0  0.00000000000E+00  0.00000000000E+00  0.41832013193E+03  0.41832013193E+03  0.25500000000E-02 0.  1.
         -2   -1    0    0    0  501 -0.00000000000E+00 -0.00000000000E+00 -0.32717595474E+02  0.32717595573E+02  0.25500000000E-02 0. -1.
    5000001    1    1    2    0    0  0.64580515534E+02 -0.58438409684E+01  0.77903095316E+02  0.12728977070E+03  0.77000000000E+02 0.  0.
   -5000001    1    1    2    0    0 -0.64580515534E+02  0.58438409684E+01  0.30769944114E+03  0.32374795681E+03  0.77000000000E+02 0.  0.
<mgrwt>
<rscale>  0 0.23397802E+03</rscale>
<asrwt>0</asrwt>
<pdfrwt beam="1">  1        2 0.59760020E-01 0.23397802E+03</pdfrwt>
<pdfrwt beam="2">  1       -2 0.46739421E-02 0.23397802E+03</pdfrwt>
<totfact> 0.17557728E+04</totfact>
</mgrwt>
</event>
<event>
 4    1  0.1308644E-003  0.1846331E+03  0.7818608E-02  0.1163393E+00
          2   -1    0    0  501    0  0.00000000000E+00  0.00000000000E+00  0.21545471440E+03  0.21545471442E+03  0.25500000000E-02 0.  1.
         -2   -1    0    0    0  501 -0.00000000000E+00 -0.00000000000E+00 -0.39555179685E+02  0.39555179767E+02  0.25500000000E-02 0. -1.
    5000001    1    1    2    0    0  0.46125643713E+02 -0.21399957008E+02  0.84088218979E+02  0.12484134627E+03  0.77000000000E+02 0.  0.
   -5000001    1    1    2    0    0 -0.46125643713E+02  0.21399957008E+02  0.91811315737E+02  0.13016854791E+03  0.77000000000E+02 0.  0.
<mgrwt>
<rscale>  0 0.18463315E+03</rscale>
<asrwt>0</asrwt>
<pdfrwt beam="1">  1        2 0.30779246E-01 0.18463315E+03</pdfrwt>
<pdfrwt beam="2">  1       -2 0.56507398E-02 0.18463315E+03</pdfrwt>
<totfact> 0.26417663E+04</totfact>
</mgrwt>
</event>
<event>
 4    1  0.1308644E-003  0.2400153E+03  0.7818608E-02  0.1119783E+00
          2   -1    0    0  501    0  0.00000000000E+00  0.00000000000E+00  0.64519493969E+03  0.64519493970E+03  0.25500000000E-02 0.  1.
         -2   -1    0    0    0  501 -0.00000000000E+00 -0.00000000000E+00 -0.22321685555E+02  0.22321685701E+02  0.25500000000E-02 0. -1.
    5000001    1    1    2    0    0 -0.28898095471E+02 -0.86059755107E+02  0.26912511839E+03  0.29427658881E+03  0.77000000000E+02 0.  0.
   -5000001    1    1    2    0    0  0.28898095471E+02  0.86059755107E+02  0.35374813575E+03  0.37324003659E+03  0.77000000000E+02 0.  0.
<mgrwt>
<rscale>  0 0.24001532E+03</rscale>
<asrwt>0</asrwt>
<pdfrwt beam="1">  1        2 0.92170706E-01 0.24001532E+03</pdfrwt>
<pdfrwt beam="2">  1       -2 0.31888122E-02 0.24001532E+03</pdfrwt>
<totfact> 0.19263926E+04</totfact>
</mgrwt>
</event>
<event>
 4    1  0.1308644E-003  0.2115401E+03  0.7818608E-02  0.1140352E+00
          2   -1    0    0  501    0  0.00000000000E+00  0.00000000000E+00  0.23802705184E+03  0.23802705185E+03  0.25500000000E-02 0.  1.
         -2   -1    0    0    0  501 -0.00000000000E+00 -0.00000000000E+00 -0.47000133547E+02  0.47000133616E+02  0.25500000000E-02 0. -1.
    5000001    1    1    2    0    0  0.21787626036E+02  0.61019633684E+02  0.13938560686E+03  0.17191696759E+03  0.77000000000E+02 0.  0.
   -5000001    1    1    2    0    0 -0.21787626036E+02 -0.61019633684E+02  0.51641311426E+02  0.11311021788E+03  0.77000000000E+02 0.  0.
<mgrwt>
<rscale>  0 0.21154010E+03</rscale>
<asrwt>0</asrwt>
<pdfrwt beam="1">  1        2 0.34003865E-01 0.21154010E+03</pdfrwt>
<pdfrwt beam="2">  1       -2 0.67143047E-02 0.21154010E+03</pdfrwt>
<totfact> 0.18411284E+04</totfact>
</mgrwt>
</event>
<event>
 4    1  0.1308644E-003  0.1693195E+03  0.7818608E-02  0.1178559E+00
          2   -1    0    0  501    0  0.00000000000E+00  0.00000000000E+00  0.26069362335E+04  0.26069362335E+04  0.25500000000E-02 0.  1.
         -2   -1    0    0    0  501 -0.00000000000E+00 -0.00000000000E+00 -0.27493088918E+01  0.27493100744E+01  0.25500000000E-02 0. -1.
    5000001    1    1    2    0    0 -0.27471617736E+02  0.71161857367E+00  0.96333516379E+03  0.96679823851E+03  0.77000000000E+02 0.  0.
   -5000001    1    1    2    0    0  0.27471617736E+02 -0.71161857367E+00  0.16408517608E+04  0.16428873051E+04  0.77000000000E+02 0.  0.
<mgrwt>
<rscale>  0 0.16931951E+03</rscale>
<asrwt>0</asrwt>
<pdfrwt beam="1">  1        2 0.37241987E+00 0.16931951E+03</pdfrwt>
<pdfrwt beam="2">  1       -2 0.39275806E-03 0.16931951E+03</pdfrwt>
<totfact> 0.35670118E+04</totfact>
</mgrwt>
</event>
<event>
 4    1  0.1308644E-003  0.5192079E+03  0.7818608E-02  0.1008884E+00
          2   -1    0    0  501    0  0.00000000000E+00  0.00000000000E+00  0.58733517144E+03  0.58733517145E+03  0.25500000000E-02 0.  1.
         -2   -1    0    0    0  501 -0.00000000000E+00 -0.00000000000E+00 -0.11474573203E+03  0.11474573206E+03  0.25500000000E-02 0. -1.
    5000001    1    1    2    0    0 -0.17488569451E+03 -0.68946543149E+02  0.45486298605E+03  0.49816459934E+03  0.77000000000E+02 0.  0.
   -5000001    1    1    2    0    0  0.17488569451E+03  0.68946543149E+02  0.17726453356E+02  0.20391630416E+03  0.77000000000E+02 0.  0.
<mgrwt>
<rscale>  0 0.51920787E+03</rscale>
<asrwt>0</asrwt>
<pdfrwt beam="1">  1        2 0.83905026E-01 0.51920787E+03</pdfrwt>
<pdfrwt beam="2">  1       -2 0.16392247E-01 0.51920787E+03</pdfrwt>
<totfact> 0.16725503E+03</totfact>
</mgrwt>
</event>
<event>
 4    1  0.1308644E-003  0.1919872E+03  0.7818608E-02  0.1156681E+00
         -2   -1    0    0    0  501 -0.00000000000E+00  0.00000000000E+00  0.10495159838E+02  0.10495160147E+02  0.25500000000E-02 0. -1.
          2   -1    0    0  501    0  0.00000000000E+00 -0.00000000000E+00 -0.87800224320E+03  0.87800224321E+03  0.25500000000E-02 0.  1.
    5000001    1    1    2    0    0 -0.23977988254E+02 -0.51882687207E+02 -0.45393503537E+03  0.46395341737E+03  0.77000000000E+02 0.  0.
   -5000001    1    1    2    0    0  0.23977988254E+02  0.51882687207E+02 -0.41357204799E+03  0.42454398598E+03  0.77000000000E+02 0.  0.
<mgrwt>
<rscale>  0 0.19198723E+03</rscale>
<asrwt>0</asrwt>
<pdfrwt beam="1">  1        2 0.12542885E+00 0.19198723E+03</pdfrwt>
<pdfrwt beam="2">  1       -2 0.14993091E-02 0.19198723E+03</pdfrwt>
<totfact> 0.39609764E+04</totfact>
</mgrwt>
</event>
<event>
 4    1  0.1308644E-003  0.3985245E+03  0.7818608E-02  0.1044292E+00
          2   -1    0    0  501    0  0.00000000000E+00  0.00000000000E+00  0.65655394734E+03  0.65655394734E+03  0.25500000000E-02 0.  1.
         -2   -1    0    0    0  501 -0.00000000000E+00 -0.00000000000E+00 -0.60475511680E+02  0.60475511734E+02  0.25500000000E-02 0. -1.
    5000001    1    1    2    0    0  0.10389249098E+03  0.95877663864E+02  0.86754423312E+02  0.18287018914E+03  0.77000000000E+02 0.  0.
   -5000001    1    1    2    0    0 -0.10389249098E+03 -0.95877663864E+02  0.50932401235E+03  0.53415926994E+03  0.77000000000E+02 0.  0.
<mgrwt>
<rscale>  0 0.39852446E+03</rscale>
<asrwt>0</asrwt>
<pdfrwt beam="1">  1        2 0.93793423E-01 0.39852446E+03</pdfrwt>
<pdfrwt beam="2">  1       -2 0.86393587E-02 0.39852446E+03</pdfrwt>
<totfact> 0.41759083E+03</totfact>
</mgrwt>
</event>
<event>
 4    1  0.1308644E-003  0.2468115E+03  0.7818608E-02  0.1115337E+00
         -2   -1    0    0    0  501 -0.00000000000E+00  0.00000000000E+00  0.33190412184E+03  0.33190412185E+03  0.25500000000E-02 0. -1.
          2   -1    0    0  501    0  0.00000000000E+00 -0.00000000000E+00 -0.45883655379E+02  0.45883655450E+02  0.25500000000E-02 0.  1.
    5000001    1    1    2    0    0 -0.28471483843E+02 -0.26176679817E+02  0.77890168499E+01  0.86518857724E+02  0.77000000000E+02 0.  0.
   -5000001    1    1    2    0    0  0.28471483843E+02  0.26176679817E+02  0.27823144961E+03  0.29126891958E+03  0.77000000000E+02 0.  0.
<mgrwt>
<rscale>  0 0.24681146E+03</rscale>
<asrwt>0</asrwt>
<pdfrwt beam="1">  1        2 0.65548080E-02 0.24681146E+03</pdfrwt>
<pdfrwt beam="2">  1       -2 0.47414874E-01 0.24681146E+03</pdfrwt>
<totfact> 0.46485679E+03</totfact>
</mgrwt>
</event>
<event>
 4    1  0.1308644E-003  0.2193591E+03  0.7818608E-02  0.1134362E+00
          2   -1    0    0  501    0  0.00000000000E+00  0.00000000000E+00  0.65232976611E+02  0.65232976661E+02  0.25500000000E-02 0.  1.
         -2   -1    0    0    0  501 -0.00000000000E+00 -0.00000000000E+00 -0.18440992997E+03  0.18440992999E+03  0.25500000000E-02 0. -1.
    5000001    1    1    2    0    0 -0.27945527573E+02 -0.59763035681E+02 -0.10717003219E+03  0.14753639803E+03  0.77000000000E+02 0.  0.
   -5000001    1    1    2    0    0  0.27945527573E+02  0.59763035681E+02 -0.12006921168E+02  0.10210650861E+03  0.77000000000E+02 0.  0.
<mgrwt>
<rscale>  0 0.21935915E+03</rscale>
<asrwt>0</asrwt>
<pdfrwt beam="1">  1        2 0.93189968E-02 0.21935915E+03</pdfrwt>
<pdfrwt beam="2">  1       -2 0.26344275E-01 0.21935915E+03</pdfrwt>
<totfact> 0.88482050E+03</totfact>
</mgrwt>
</event>
<event>
 4    1  0.1308644E-003  0.2397444E+03  0.7818608E-02  0.1119963E+00
          2   -1    0    0  501    0  0.00000000000E+00  0.00000000000E+00  0.10291489920E+04  0.10291489920E+04  0.25500000000E-02 0.  1.
         -2   -1    0    0    0  501 -0.00000000000E+00 -0.00000000000E+00 -0.13962355233E+02  0.13962355466E+02  0.25500000000E-02 0. -1.
    5000001    1    1    2    0    0  0.46913051428E+02 -0.77532989731E+02  0.44187480571E+03  0.45759648470E+03  0.77000000000E+02 0.  0.
   -5000001    1    1    2    0    0 -0.46913051428E+02  0.77532989731E+02  0.57331183105E+03  0.58551486276E+03  0.77000000000E+02 0.  0.
<mgrwt>
<rscale>  0 0.23974440E+03</rscale>
<asrwt>0</asrwt>
<pdfrwt beam="1">  1        2 0.14702138E+00 0.23974440E+03</pdfrwt>
<pdfrwt beam="2">  1       -2 0.19946209E-02 0.23974440E+03</pdfrwt>
<totfact> 0.21494463E+04</totfact>
</mgrwt>
</event>
<event>
 4    1  0.1308644E-003  0.2634471E+03  0.7818608E-02  0.1105090E+00
          2   -1    0    0  501    0  0.00000000000E+00  0.00000000000E+00  0.49277155898E+02  0.49277155964E+02  0.25500000000E-02 0.  1.
         -2   -1    0    0    0  501 -0.00000000000E+00 -0.00000000000E+00 -0.35211231879E+03  0.35211231880E+03  0.25500000000E-02 0. -1.
    5000001    1    1    2    0    0 -0.81827565544E+02  0.52707263307E+02 -0.21866863398E+03  0.25143344561E+03  0.77000000000E+02 0.  0.
   -5000001    1    1    2    0    0  0.81827565544E+02 -0.52707263307E+02 -0.84166528913E+02  0.14995602915E+03  0.77000000000E+02 0.  0.
<mgrwt>
<rscale>  0 0.26344710E+03</rscale>
<asrwt>0</asrwt>
<pdfrwt beam="1">  1        2 0.70395939E-02 0.26344710E+03</pdfrwt>
<pdfrwt beam="2">  1       -2 0.50301759E-01 0.26344710E+03</pdfrwt>
<totfact> 0.37811702E+03</totfact>
</mgrwt>
</event>
<event>
 4    1  0.1308644E-003  0.2560971E+03  0.7818608E-02  0.1109511E+00
          2   -1    0    0  501    0  0.00000000000E+00  0.00000000000E+00  0.21187282375E+03  0.21187282377E+03  0.25500000000E-02 0.  1.
         -2   -1    0    0    0  501 -0.00000000000E+00 -0.00000000000E+00 -0.77388075494E+02  0.77388075536E+02  0.25500000000E-02 0. -1.
    5000001    1    1    2    0    0  0.43159235073E+02  0.84529023775E+02  0.11039381153E+03  0.16469265028E+03  0.77000000000E+02 0.  0.
   -5000001    1    1    2    0    0 -0.43159235073E+02 -0.84529023775E+02  0.24090936731E+02  0.12456824902E+03  0.77000000000E+02 0.  0.
<mgrwt>
<rscale>  0 0.25609709E+03</rscale>
<asrwt>0</asrwt>
<pdfrwt beam="1">  1        2 0.30267546E-01 0.25609709E+03</pdfrwt>
<pdfrwt beam="2">  1       -2 0.11055439E-01 0.25609709E+03</pdfrwt>
<totfact> 0.96719481E+03</totfact>
</mgrwt>
</event>
<event>
 4    1  0.1308644E-003  0.2196152E+03  0.7818608E-02  0.1134170E+00
          2   -1    0    0  501    0  0.00000000000E+00  0.00000000000E+00  0.19000469590E+04  0.19000469590E+04  0.25500000000E-02 0.  1.
         -2   -1    0    0    0  501 -0.00000000000E+00 -0.00000000000E+00 -0.63460067383E+01  0.63460072506E+01  0.25500000000E-02 0. -1.
    5000001    1    1    2    0    0 -0.49610418941E+02  0.59914899417E+02  0.87032196826E+03  0.87717747194E+03  0.77000000000E+02 0.  0.
   -5000001    1    1    2    0    0  0.49610418941E+02 -0.59914899417E+02  0.10233789840E+04  0.10292154943E+04  0.77000000000E+02 0.  0.
<mgrwt>
<rscale>  0 0.21961522E+03</rscale>
<asrwt>0</asrwt>
<pdfrwt beam="1">  1        2 0.27143537E+00 0.21961522E+03</pdfrwt>
<pdfrwt beam="2">  1       -2 0.90657212E-03 0.21961522E+03</pdfrwt>
<totfact> 0.24063802E+04</totfact>
</mgrwt>
</event>
<event>
 4    1  0.1308644E-003  0.2345228E+03  0.7818608E-02  0.1123496E+00
         -2   -1    0    0    0  501 -0.00000000000E+00  0.00000000000E+00  0.72555444921E+02  0.72555444966E+02  0.25500000000E-02 0. -1.
          2   -1    0    0  501    0  0.00000000000E+00 -0.00000000000E+00 -0.18951354791E+03  0.18951354793E+03  0.25500000000E-02 0.  1.
    5000001    1    1    2    0    0 -0.79259005726E+02 -0.38562347902E+02 -0.50405855355E+02  0.12743153032E+03  0.77000000000E+02 0.  0.
   -5000001    1    1    2    0    0  0.79259005726E+02  0.38562347902E+02 -0.66552247634E+02  0.13463746258E+03  0.77000000000E+02 0.  0.
<mgrwt>
<rscale>  0 0.23452283E+03</rscale>
<asrwt>0</asrwt>
<pdfrwt beam="1">  1        2 0.27073364E-01 0.23452283E+03</pdfrwt>
<pdfrwt beam="2">  1       -2 0.10365064E-01 0.23452283E+03</pdfrwt>
<totfact> 0.12063704E+04</totfact>
</mgrwt>
</event>
<event>
 4    1  0.1308644E-003  0.3565747E+03  0.7818608E-02  0.1059948E+00
          2   -1    0    0  501    0  0.00000000000E+00  0.00000000000E+00  0.28989888184E+03  0.28989888185E+03  0.25500000000E-02 0.  1.
         -2   -1    0    0    0  501 -0.00000000000E+00 -0.00000000000E+00 -0.10964643842E+03  0.10964643845E+03  0.25500000000E-02 0. -1.
    5000001    1    1    2    0    0  0.26139936764E+02 -0.12581727324E+03  0.19844012217E+03  0.24863781818E+03  0.77000000000E+02 0.  0.
   -5000001    1    1    2    0    0 -0.26139936764E+02  0.12581727324E+03 -0.18187678758E+02  0.15090750212E+03  0.77000000000E+02 0.  0.
<mgrwt>
<rscale>  0 0.35657470E+03</rscale>
<asrwt>0</asrwt>
<pdfrwt beam="1">  1        2 0.41414125E-01 0.35657470E+03</pdfrwt>
<pdfrwt beam="2">  1       -2 0.15663777E-01 0.35657470E+03</pdfrwt>
<totfact> 0.39345773E+03</totfact>
</mgrwt>
</event>
<event>
 4    1  0.1308644E-003  0.3195368E+03  0.7818608E-02  0.1075863E+00
         -2   -1    0    0    0  501 -0.00000000000E+00  0.00000000000E+00  0.69188000335E+02  0.69188000382E+02  0.25500000000E-02 0. -1.
          2   -1    0    0  501    0  0.00000000000E+00 -0.00000000000E+00 -0.36893606743E+03  0.36893606744E+03  0.25500000000E-02 0.  1.
    5000001    1    1    2    0    0  0.10978023833E+03 -0.86676806311E+02 -0.14207196401E+03  0.21372415034E+03  0.77000000000E+02 0.  0.
   -5000001    1    1    2    0    0 -0.10978023833E+03  0.86676806311E+02 -0.15767610308E+03  0.22439991748E+03  0.77000000000E+02 0.  0.
<mgrwt>
<rscale>  0 0.31953684E+03</rscale>
<asrwt>0</asrwt>
<pdfrwt beam="1">  1        2 0.52705151E-01 0.31953684E+03</pdfrwt>
<pdfrwt beam="2">  1       -2 0.98840003E-02 0.31953684E+03</pdfrwt>
<totfact> 0.63979929E+03</totfact>
</mgrwt>
</event>
<event>
 4    1  0.1308644E-003  0.2019246E+03  0.7818608E-02  0.1148125E+00
         -2   -1    0    0    0  501 -0.00000000000E+00  0.00000000000E+00  0.26138844802E+02  0.26138844927E+02  0.25500000000E-02 0. -1.
          2   -1    0    0  501    0  0.00000000000E+00 -0.00000000000E+00 -0.38997091891E+03  0.38997091891E+03  0.25500000000E-02 0.  1.
    5000001    1    1    2    0    0 -0.53741403292E+02  0.16910748013E+02 -0.24995961383E+03  0.26754984652E+03  0.77000000000E+02 0.  0.
   -5000001    1    1    2    0    0  0.53741403292E+02 -0.16910748013E+02 -0.11387246027E+03  0.14855991732E+03  0.77000000000E+02 0.  0.
<mgrwt>
<rscale>  0 0.20192463E+03</rscale>
<asrwt>0</asrwt>
<pdfrwt beam="1">  1        2 0.55710128E-01 0.20192463E+03</pdfrwt>
<pdfrwt beam="2">  1       -2 0.37341209E-02 0.20192463E+03</pdfrwt>
<totfact> 0.26254945E+04</totfact>
</mgrwt>
</event>
<event>
 4    1  0.1308644E-003  0.2081369E+03  0.7818608E-02  0.1143050E+00
          2   -1    0    0  501    0  0.00000000000E+00  0.00000000000E+00  0.45558142615E+03  0.45558142615E+03  0.25500000000E-02 0.  1.
         -2   -1    0    0    0  501 -0.00000000000E+00 -0.00000000000E+00 -0.23772344034E+02  0.23772344171E+02  0.25500000000E-02 0. -1.
    5000001    1    1    2    0    0  0.75818746495E+01 -0.64621452181E+02  0.27542103648E+03  0.29329023891E+03  0.77000000000E+02 0.  0.
   -5000001    1    1    2    0    0 -0.75818746495E+01  0.64621452181E+02  0.15638804563E+03  0.18606353141E+03  0.77000000000E+02 0.  0.
<mgrwt>
<rscale>  0 0.20813686E+03</rscale>
<asrwt>0</asrwt>
<pdfrwt beam="1">  1        2 0.65083057E-01 0.20813686E+03</pdfrwt>
<pdfrwt beam="2">  1       -2 0.33960494E-02 0.20813686E+03</pdfrwt>
<totfact> 0.25630300E+04</totfact>
</mgrwt>
</event>
<event>
 4    1  0.1308644E-003  0.3232658E+03  0.7818608E-02  0.1074156E+00
          2   -1    0    0  501    0  0.00000000000E+00  0.00000000000E+00  0.93412881781E+03  0.93412881781E+03  0.25500000000E-02 0.  1.
         -2   -1    0    0    0  501 -0.00000000000E+00 -0.00000000000E+00 -0.27967441191E+02  0.27967441307E+02  0.25500000000E-02 0. -1.
    5000001    1    1    2    0    0 -0.89464946226E+02  0.10785479631E+03  0.52348216624E+03  0.54735656757E+03  0.77000000000E+02 0.  0.
   -5000001    1    1    2    0    0  0.89464946226E+02 -0.10785479631E+03  0.38267921038E+03  0.41473969155E+03  0.77000000000E+02 0.  0.
<mgrwt>
<rscale>  0 0.32326579E+03</rscale>
<asrwt>0</asrwt>
<pdfrwt beam="1">  1        2 0.13344699E+00 0.32326579E+03</pdfrwt>
<pdfrwt beam="2">  1       -2 0.39953483E-02 0.32326579E+03</pdfrwt>
<totfact> 0.88177966E+03</totfact>
</mgrwt>
</event>
<event>
 4    1  0.1308644E-003  0.2448424E+03  0.7818608E-02  0.1116608E+00
          2   -1    0    0  501    0  0.00000000000E+00  0.00000000000E+00  0.20157193376E+04  0.20157193376E+04  0.25500000000E-02 0.  1.
         -2   -1    0    0    0  501 -0.00000000000E+00 -0.00000000000E+00 -0.74350367190E+01  0.74350371562E+01  0.25500000000E-02 0. -1.
    5000001    1    1    2    0    0  0.25457169896E+02  0.64186951521E+02  0.46293092137E+03  0.47434383120E+03  0.77000000000E+02 0.  0.
   -5000001    1    1    2    0    0 -0.25457169896E+02 -0.64186951521E+02  0.15453533795E+04  0.15488105436E+04  0.77000000000E+02 0.  0.
<mgrwt>
<rscale>  0 0.24484238E+03</rscale>
<asrwt>0</asrwt>
<pdfrwt beam="1">  1        2 0.28795999E+00 0.24484238E+03</pdfrwt>
<pdfrwt beam="2">  1       -2 0.10621478E-02 0.24484238E+03</pdfrwt>
<totfact> 0.16886585E+04</totfact>
</mgrwt>
</event>
<event>
 4    1  0.1308644E-003  0.2243165E+03  0.7818608E-02  0.1130705E+00
          2   -1    0    0  501    0  0.00000000000E+00  0.00000000000E+00  0.74184127820E+03  0.74184127820E+03  0.25500000000E-02 0. -1.
         -2   -1    0    0    0  501 -0.00000000000E+00 -0.00000000000E+00 -0.16957099312E+02  0.16957099504E+02  0.25500000000E-02 0.  1.
    5000001    1    1    2    0    0 -0.72185060988E+02  0.19926338435E+02  0.47167460846E+03  0.48374960286E+03  0.77000000000E+02 0.  0.
   -5000001    1    1    2    0    0  0.72185060988E+02 -0.19926338435E+02  0.25320957042E+03  0.27504877485E+03  0.77000000000E+02 0.  0.
<mgrwt>
<rscale>  0 0.22431653E+03</rscale>
<asrwt>0</asrwt>
<pdfrwt beam="1">  1        2 0.10597734E+00 0.22431653E+03</pdfrwt>
<pdfrwt beam="2">  1       -2 0.24224424E-02 0.22431653E+03</pdfrwt>
<totfact> 0.24449112E+04</totfact>
</mgrwt>
</event>
<event>
 4    1  0.1308644E-003  0.3366470E+03  0.7818608E-02  0.1068233E+00
          2   -1    0    0  501    0  0.00000000000E+00  0.00000000000E+00  0.19749826889E+04  0.19749826889E+04  0.25500000000E-02 0.  1.
         -2   -1    0    0    0  501 -0.00000000000E+00 -0.00000000000E+00 -0.14345850865E+02  0.14345851092E+02  0.25500000000E-02 0. -1.
    5000001    1    1    2    0    0  0.13617596446E+03 -0.57809386410E+02  0.11148090204E+04  0.11272151394E+04  0.77000000000E+02 0.  0.
   -5000001    1    1    2    0    0 -0.13617596446E+03  0.57809386410E+02  0.84582781764E+03  0.86211340063E+03  0.77000000000E+02 0.  0.
<mgrwt>
<rscale>  0 0.33664704E+03</rscale>
<asrwt>0</asrwt>
<pdfrwt beam="1">  1        2 0.28214025E+00 0.33664704E+03</pdfrwt>
<pdfrwt beam="2">  1       -2 0.20494083E-02 0.33664704E+03</pdfrwt>
<totfact> 0.67865078E+03</totfact>
</mgrwt>
</event>
<event>
 4    1  0.1308644E-003  0.2054149E+03  0.7818608E-02  0.1145249E+00
          2   -1    0    0  501    0  0.00000000000E+00  0.00000000000E+00  0.72009246644E+03  0.72009246644E+03  0.25500000000E-02 0.  1.
         -2   -1    0    0    0  501 -0.00000000000E+00 -0.00000000000E+00 -0.14649253843E+02  0.14649254065E+02  0.25500000000E-02 0. -1.
    5000001    1    1    2    0    0  0.63741754547E+02  0.15815413891E+02  0.41536059146E+03  0.42751205776E+03  0.77000000000E+02 0.  0.
   -5000001    1    1    2    0    0 -0.63741754547E+02 -0.15815413891E+02  0.29008262113E+03  0.30722966275E+03  0.77000000000E+02 0.  0.
<mgrwt>
<rscale>  0 0.20541487E+03</rscale>
<asrwt>0</asrwt>
<pdfrwt beam="1">  1        2 0.10287034E+00 0.20541487E+03</pdfrwt>
<pdfrwt beam="2">  1       -2 0.20927507E-02 0.20541487E+03</pdfrwt>
<totfact> 0.31216227E+04</totfact>
</mgrwt>
</event>
<event>
 4    1  0.1308644E-003  0.4012787E+03  0.7818608E-02  0.1043338E+00
         -2   -1    0    0    0  501 -0.00000000000E+00  0.00000000000E+00  0.11694665984E+03  0.11694665987E+03  0.25500000000E-02 0. -1.
          2   -1    0    0  501    0  0.00000000000E+00 -0.00000000000E+00 -0.34422653366E+03  0.34422653367E+03  0.25500000000E-02 0.  1.
    5000001    1    1    2    0    0  0.75724618441E+02 -0.15309099822E+03 -0.19616340170E+03  0.27125661603E+03  0.77000000000E+02 0.  0.
   -5000001    1    1    2    0    0 -0.75724618441E+02  0.15309099822E+03 -0.31116472129E+02  0.18991657751E+03  0.77000000000E+02 0.  0.
<mgrwt>
<rscale>  0 0.40127867E+03</rscale>
<asrwt>0</asrwt>
<pdfrwt beam="1">  1        2 0.49175219E-01 0.40127867E+03</pdfrwt>
<pdfrwt beam="2">  1       -2 0.16706666E-01 0.40127867E+03</pdfrwt>
<totfact> 0.29362816E+03</totfact>
</mgrwt>
</event>
<event>
 4    1  0.1308644E-003  0.2537521E+03  0.7818608E-02  0.1110956E+00
          2   -1    0    0  501    0  0.00000000000E+00  0.00000000000E+00  0.19479730896E+04  0.19479730896E+04  0.25500000000E-02 0.  1.
         -2   -1    0    0    0  501 -0.00000000000E+00 -0.00000000000E+00 -0.82637369770E+01  0.82637373704E+01  0.25500000000E-02 0. -1.
    5000001    1    1    2    0    0  0.88472769819E+02 -0.41702023285E+02  0.11590137724E+04  0.11656793789E+04  0.77000000000E+02 0.  0.
   -5000001    1    1    2    0    0 -0.88472769819E+02  0.41702023285E+02  0.78069558019E+03  0.79055744806E+03  0.77000000000E+02 0.  0.
<mgrwt>
<rscale>  0 0.25375214E+03</rscale>
<asrwt>0</asrwt>
<pdfrwt beam="1">  1        2 0.27828177E+00 0.25375214E+03</pdfrwt>
<pdfrwt beam="2">  1       -2 0.11805343E-02 0.25375214E+03</pdfrwt>
<totfact> 0.15641166E+04</totfact>
</mgrwt>
</event>
<event>
 4    1  0.1308644E-003  0.2617378E+03  0.7818608E-02  0.1106104E+00
          2   -1    0    0  501    0  0.00000000000E+00  0.00000000000E+00  0.70242428865E+02  0.70242428911E+02  0.25500000000E-02 0.  1.
         -2   -1    0    0    0  501 -0.00000000000E+00 -0.00000000000E+00 -0.24382229303E+03  0.24382229304E+03  0.25500000000E-02 0. -1.
    5000001    1    1    2    0    0  0.57309824453E+02 -0.45924148660E+02 -0.17820649250E+03  0.20755721471E+03  0.77000000000E+02 0.  0.
   -5000001    1    1    2    0    0 -0.57309824453E+02  0.45924148660E+02  0.46266283385E+01  0.10650750724E+03  0.77000000000E+02 0.  0.
<mgrwt>
<rscale>  0 0.26173781E+03</rscale>
<asrwt>0</asrwt>
<pdfrwt beam="1">  1        2 0.10034633E-01 0.26173781E+03</pdfrwt>
<pdfrwt beam="2">  1       -2 0.34831756E-01 0.26173781E+03</pdfrwt>
<totfact> 0.49025320E+03</totfact>
</mgrwt>
</event>
<event>
 4    1  0.1308644E-003  0.2323721E+03  0.7818608E-02  0.1124981E+00
          2   -1    0    0  501    0  0.00000000000E+00  0.00000000000E+00  0.36727803083E+03  0.36727803084E+03  0.25500000000E-02 0.  1.
         -2   -1    0    0    0  501 -0.00000000000E+00 -0.00000000000E+00 -0.36754723343E+02  0.36754723432E+02  0.25500000000E-02 0. -1.
    5000001    1    1    2    0    0  0.19037798952E+02  0.78720481567E+02  0.22054266418E+03  0.24723959782E+03  0.77000000000E+02 0.  0.
   -5000001    1    1    2    0    0 -0.19037798952E+02 -0.78720481567E+02  0.10998064330E+03  0.15679315645E+03  0.77000000000E+02 0.  0.
<mgrwt>
<rscale>  0 0.23237214E+03</rscale>
<asrwt>0</asrwt>
<pdfrwt beam="1">  1        2 0.52468293E-01 0.23237214E+03</pdfrwt>
<pdfrwt beam="2">  1       -2 0.52506745E-02 0.23237214E+03</pdfrwt>
<totfact> 0.16929009E+04</totfact>
</mgrwt>
</event>
<event>
 4    1  0.1308644E-003  0.2304722E+03  0.7818608E-02  0.1126308E+00
         -2   -1    0    0    0  501 -0.00000000000E+00  0.00000000000E+00  0.93250057193E+02  0.93250057228E+02  0.25500000000E-02 0. -1.
          2   -1    0    0  501    0  0.00000000000E+00 -0.00000000000E+00 -0.14240593338E+03  0.14240593340E+03  0.25500000000E-02 0.  1.
    5000001    1    1    2    0    0  0.85096444120E+02  0.82168129808E+01 -0.17995708561E+02  0.11645499708E+03  0.77000000000E+02 0.  0.
   -5000001    1    1    2    0    0 -0.85096444120E+02 -0.82168129808E+01 -0.31160167621E+02  0.11920099355E+03  0.77000000000E+02 0.  0.
<mgrwt>
<rscale>  0 0.23047222E+03</rscale>
<asrwt>0</asrwt>
<pdfrwt beam="1">  1        2 0.20343705E-01 0.23047222E+03</pdfrwt>
<pdfrwt beam="2">  1       -2 0.13321437E-01 0.23047222E+03</pdfrwt>
<totfact> 0.11093103E+04</totfact>
</mgrwt>
</event>
<event>
 4    1  0.1308644E-003  0.2135672E+03  0.7818608E-02  0.1138772E+00
          2   -1    0    0  501    0  0.00000000000E+00  0.00000000000E+00  0.30822543602E+03  0.30822543603E+03  0.25500000000E-02 0.  1.
         -2   -1    0    0    0  501 -0.00000000000E+00 -0.00000000000E+00 -0.36994798455E+02  0.36994798543E+02  0.25500000000E-02 0. -1.
    5000001    1    1    2    0    0 -0.52641080683E+02  0.51601233147E+02  0.12539618972E+03  0.16458121106E+03  0.77000000000E+02 0.  0.
   -5000001    1    1    2    0    0  0.52641080683E+02 -0.51601233147E+02  0.14583444784E+03  0.18063902351E+03  0.77000000000E+02 0.  0.
<mgrwt>
<rscale>  0 0.21356721E+03</rscale>
<asrwt>0</asrwt>
<pdfrwt beam="1">  1        2 0.44032205E-01 0.21356721E+03</pdfrwt>
<pdfrwt beam="2">  1       -2 0.52849713E-02 0.21356721E+03</pdfrwt>
<totfact> 0.20112805E+04</totfact>
</mgrwt>
</event>
<event>
 4    1  0.1308644E-003  0.5492967E+03  0.7818608E-02  0.1001657E+00
         -2   -1    0    0    0  501 -0.00000000000E+00  0.00000000000E+00  0.15739702734E+04  0.15739702734E+04  0.25500000000E-02 0. -1.
          2   -1    0    0  501    0  0.00000000000E+00 -0.00000000000E+00 -0.47924477474E+02  0.47924477542E+02  0.25500000000E-02 0.  1.
    5000001    1    1    2    0    0  0.22565471671E+03 -0.12918456476E+03  0.63452213500E+03  0.69004060949E+03  0.77000000000E+02 0.  0.
   -5000001    1    1    2    0    0 -0.22565471671E+03  0.12918456476E+03  0.89152366091E+03  0.93185414143E+03  0.77000000000E+02 0.  0.
<mgrwt>
<rscale>  0 0.54929665E+03</rscale>
<asrwt>0</asrwt>
<pdfrwt beam="1">  1        2 0.68463529E-02 0.54929665E+03</pdfrwt>
<pdfrwt beam="2">  1       -2 0.22485293E+00 0.54929665E+03</pdfrwt>
<totfact> 0.10353366E+02</totfact>
</mgrwt>
</event>
<event>
 4    1  0.1308644E-003  0.4514907E+03  0.7818608E-02  0.1027278E+00
          2   -1    0    0  501    0  0.00000000000E+00  0.00000000000E+00  0.56206864263E+03  0.56206864264E+03  0.25500000000E-02 0.  1.
         -2   -1    0    0    0  501 -0.00000000000E+00 -0.00000000000E+00 -0.90666796934E+02  0.90666796970E+02  0.25500000000E-02 0. -1.
    5000001    1    1    2    0    0 -0.20016640301E+02  0.20836091158E+03  0.18526514873E+03  0.28994328876E+03  0.77000000000E+02 0.  0.
   -5000001    1    1    2    0    0  0.20016640301E+02 -0.20836091158E+03  0.28613669696E+03  0.36279215084E+03  0.77000000000E+02 0.  0.
<mgrwt>
<rscale>  0 0.45149070E+03</rscale>
<asrwt>0</asrwt>
<pdfrwt beam="1">  1        2 0.80295523E-01 0.45149070E+03</pdfrwt>
<pdfrwt beam="2">  1       -2 0.12952399E-01 0.45149070E+03</pdfrwt>
<totfact> 0.26062223E+03</totfact>
</mgrwt>
</event>
<event>
 4    1  0.1308644E-003  0.1761901E+03  0.7818608E-02  0.1171542E+00
         -2   -1    0    0    0  501 -0.00000000000E+00  0.00000000000E+00  0.31778828690E+02  0.31778828792E+02  0.25500000000E-02 0. -1.
          2   -1    0    0  501    0  0.00000000000E+00 -0.00000000000E+00 -0.24421102434E+03  0.24421102435E+03  0.25500000000E-02 0.  1.
    5000001    1    1    2    0    0  0.39149241268E+02  0.13126168511E+01 -0.13322759344E+03  0.15878594934E+03  0.77000000000E+02 0.  0.
   -5000001    1    1    2    0    0 -0.39149241268E+02 -0.13126168511E+01 -0.79204602205E+02  0.11720390380E+03  0.77000000000E+02 0.  0.
<mgrwt>
<rscale>  0 0.17619013E+03</rscale>
<asrwt>0</asrwt>
<pdfrwt beam="1">  1        2 0.34887288E-01 0.17619013E+03</pdfrwt>
<pdfrwt beam="2">  1       -2 0.45398329E-02 0.17619013E+03</pdfrwt>
<totfact> 0.31970806E+04</totfact>
</mgrwt>
</event>
<event>
 4    1  0.1308644E-003  0.2233416E+03  0.7818608E-02  0.1131416E+00
         -2   -1    0    0    0  501 -0.00000000000E+00  0.00000000000E+00  0.45102209813E+02  0.45102209885E+02  0.25500000000E-02 0. -1.
          2   -1    0    0  501    0  0.00000000000E+00 -0.00000000000E+00 -0.27649136654E+03  0.27649136655E+03  0.25500000000E-02 0.  1.
    5000001    1    1    2    0    0 -0.27022367308E+02 -0.52448728289E+02 -0.36038437606E+02  0.10348355627E+03  0.77000000000E+02 0.  0.
   -5000001    1    1    2    0    0  0.27022367308E+02  0.52448728289E+02 -0.19535071912E+03  0.21811002016E+03  0.77000000000E+02 0.  0.
<mgrwt>
<rscale>  0 0.22334164E+03</rscale>
<asrwt>0</asrwt>
<pdfrwt beam="1">  1        2 0.39498766E-01 0.22334164E+03</pdfrwt>
<pdfrwt beam="2">  1       -2 0.64431730E-02 0.22334164E+03</pdfrwt>
<totfact> 0.16750360E+04</totfact>
</mgrwt>
</event>
<event>
 4    1  0.1308644E-003  0.5138155E+03  0.7818608E-02  0.1010234E+00
          2   -1    0    0  501    0  0.00000000000E+00  0.00000000000E+00  0.38704639426E+04  0.38704639426E+04  0.25500000000E-02 0.  1.
         -2   -1    0    0    0  501 -0.00000000000E+00 -0.00000000000E+00 -0.17052629604E+02  0.17052629795E+02  0.25500000000E-02 0. -1.
    5000001    1    1    2    0    0  0.10839528385E+03  0.21348385154E+03  0.15301086780E+04  0.15506406608E+04  0.77000000000E+02 0.  0.
   -5000001    1    1    2    0    0 -0.10839528385E+03 -0.21348385154E+03  0.23233026349E+04  0.23368759115E+04  0.77000000000E+02 0.  0.
<mgrwt>
<rscale>  0 0.51381549E+03</rscale>
<asrwt>0</asrwt>
<pdfrwt beam="1">  1        2 0.55292274E+00 0.51381549E+03</pdfrwt>
<pdfrwt beam="2">  1       -2 0.24360930E-02 0.51381549E+03</pdfrwt>
<totfact> 0.48279678E+02</totfact>
</mgrwt>
</event>
<event>
 4    1  0.1308644E-003  0.1839505E+03  0.7818608E-02  0.1164034E+00
         -2   -1    0    0    0  501 -0.00000000000E+00  0.00000000000E+00  0.33633354906E+02  0.33633355003E+02  0.25500000000E-02 0. -1.
          2   -1    0    0  501    0  0.00000000000E+00 -0.00000000000E+00 -0.25151965780E+03  0.25151965781E+03  0.25500000000E-02 0.  1.
    5000001    1    1    2    0    0 -0.19324083364E+02  0.45193509138E+02 -0.12553614019E+03  0.15525526065E+03  0.77000000000E+02 0.  0.
   -5000001    1    1    2    0    0  0.19324083364E+02 -0.45193509138E+02 -0.92350162706E+02  0.12989775217E+03  0.77000000000E+02 0.  0.
<mgrwt>
<rscale>  0 0.18395054E+03</rscale>
<asrwt>0</asrwt>
<pdfrwt beam="1">  1        2 0.35931378E-01 0.18395054E+03</pdfrwt>
<pdfrwt beam="2">  1       -2 0.48047652E-02 0.18395054E+03</pdfrwt>
<totfact> 0.28550023E+04</totfact>
</mgrwt>
</event>
<event>
 4    1  0.1308644E-003  0.1925836E+03  0.7818608E-02  0.1156151E+00
          2   -1    0    0  501    0  0.00000000000E+00  0.00000000000E+00  0.78977782482E+02  0.78977782523E+02  0.25500000000E-02 0.  1.
         -2   -1    0    0    0  501 -0.00000000000E+00 -0.00000000000E+00 -0.11740156283E+03  0.11740156285E+03  0.25500000000E-02 0. -1.
    5000001    1    1    2    0    0 -0.32565061830E+02  0.47716591792E+02 -0.16764860837E+02  0.97710884466E+02  0.77000000000E+02 0.  0.
   -5000001    1    1    2    0    0  0.32565061830E+02 -0.47716591792E+02 -0.21658919508E+02  0.98668460911E+02  0.77000000000E+02 0.  0.
<mgrwt>
<rscale>  0 0.19258365E+03</rscale>
<asrwt>0</asrwt>
<pdfrwt beam="1">  1        2 0.11282540E-01 0.19258365E+03</pdfrwt>
<pdfrwt beam="2">  1       -2 0.16771652E-01 0.19258365E+03</pdfrwt>
<totfact> 0.15035745E+04</totfact>
</mgrwt>
</event>
<event>
 4    1  0.1308644E-003  0.7165704E+03  0.7818608E-02  0.9689307E-01
         -2   -1    0    0    0  501 -0.00000000000E+00  0.00000000000E+00  0.12249076150E+03  0.12249076153E+03  0.25500000000E-02 0. -1.
          2   -1    0    0  501    0  0.00000000000E+00 -0.00000000000E+00 -0.10479834269E+04  0.10479834269E+04  0.25500000000E-02 0.  1.
    5000001    1    1    2    0    0  0.14363227001E+03 -0.27152166482E+03 -0.18900490415E+03  0.36879004494E+03  0.77000000000E+02 0.  0.
   -5000001    1    1    2    0    0 -0.14363227001E+03  0.27152166482E+03 -0.73648776129E+03  0.80168414353E+03  0.77000000000E+02 0.  0.
<mgrwt>
<rscale>  0 0.71657041E+03</rscale>
<asrwt>0</asrwt>
<pdfrwt beam="1">  1        2 0.14971191E+00 0.71657041E+03</pdfrwt>
<pdfrwt beam="2">  1       -2 0.17498681E-01 0.71657041E+03</pdfrwt>
<totfact> 0.70987765E+02</totfact>
</mgrwt>
</event>
<event>
 4    1  0.1308644E-003  0.3388440E+03  0.7818608E-02  0.1067289E+00
          2   -1    0    0  501    0  0.00000000000E+00  0.00000000000E+00  0.18444325471E+04  0.18444325471E+04  0.25500000000E-02 0.  1.
         -2   -1    0    0    0  501 -0.00000000000E+00 -0.00000000000E+00 -0.15562407457E+02  0.15562407665E+02  0.25500000000E-02 0. -1.
    5000001    1    1    2    0    0 -0.13104021810E+03 -0.57723786090E+02  0.65283178322E+03  0.67277181230E+03  0.77000000000E+02 0.  0.
   -5000001    1    1    2    0    0  0.13104021810E+03  0.57723786090E+02  0.11760383565E+04  0.11872231425E+04  0.77000000000E+02 0.  0.
<mgrwt>
<rscale>  0 0.33884398E+03</rscale>
<asrwt>0</asrwt>
<pdfrwt beam="1">  1        2 0.26349030E+00 0.33884398E+03</pdfrwt>
<pdfrwt beam="2">  1       -2 0.22232017E-02 0.33884398E+03</pdfrwt>
<totfact> 0.69739440E+03</totfact>
</mgrwt>
</event>
<event>
 4    1  0.1308644E-003  0.3979730E+03  0.7818608E-02  0.1044484E+00
         -2   -1    0    0    0  501 -0.00000000000E+00  0.00000000000E+00  0.30615241558E+02  0.30615241664E+02  0.25500000000E-02 0. -1.
          2   -1    0    0  501    0  0.00000000000E+00 -0.00000000000E+00 -0.12933304184E+04  0.12933304184E+04  0.25500000000E-02 0.  1.
    5000001    1    1    2    0    0 -0.99323433714E+02  0.15250299484E+03 -0.70897190795E+03  0.73599760474E+03  0.77000000000E+02 0.  0.
   -5000001    1    1    2    0    0  0.99323433714E+02 -0.15250299484E+03 -0.55374326892E+03  0.58794805536E+03  0.77000000000E+02 0.  0.
<mgrwt>
<rscale>  0 0.39797298E+03</rscale>
<asrwt>0</asrwt>
<pdfrwt beam="1">  1        2 0.18476145E+00 0.39797298E+03</pdfrwt>
<pdfrwt beam="2">  1       -2 0.43736068E-02 0.39797298E+03</pdfrwt>
<totfact> 0.48148128E+03</totfact>
</mgrwt>
</event>
<event>
 4    1  0.1308644E-003  0.2831480E+03  0.7818608E-02  0.1093982E+00
          2   -1    0    0  501    0  0.00000000000E+00  0.00000000000E+00  0.18179756149E+04  0.18179756149E+04  0.25500000000E-02 0.  1.
         -2   -1    0    0    0  501 -0.00000000000E+00 -0.00000000000E+00 -0.11025010920E+02  0.11025011215E+02  0.25500000000E-02 0. -1.
    5000001    1    1    2    0    0  0.30783970860E+01 -0.98785801413E+02  0.47763213621E+03  0.49379101716E+03  0.77000000000E+02 0.  0.
   -5000001    1    1    2    0    0 -0.30783970860E+01  0.98785801413E+02  0.13293184678E+04  0.13352096090E+04  0.77000000000E+02 0.  0.
<mgrwt>
<rscale>  0 0.28314803E+03</rscale>
<asrwt>0</asrwt>
<pdfrwt beam="1">  1        2 0.25971080E+00 0.28314803E+03</pdfrwt>
<pdfrwt beam="2">  1       -2 0.15750016E-02 0.28314803E+03</pdfrwt>
<totfact> 0.11916383E+04</totfact>
</mgrwt>
</event>
<event>
 4    1  0.1308644E-003  0.3097210E+03  0.7818608E-02  0.1080480E+00
         -2   -1    0    0    0  501 -0.00000000000E+00  0.00000000000E+00  0.81101770329E+03  0.81101770330E+03  0.25500000000E-02 0. -1.
          2   -1    0    0  501    0  0.00000000000E+00 -0.00000000000E+00 -0.29569974782E+02  0.29569974892E+02  0.25500000000E-02 0.  1.
    5000001    1    1    2    0    0 -0.10093132806E+03 -0.10336422913E+02  0.62978535024E+03  0.64253603946E+03  0.77000000000E+02 0.  0.
   -5000001    1    1    2    0    0  0.10093132806E+03  0.10336422913E+02  0.15166237827E+03  0.19805163873E+03  0.77000000000E+02 0.  0.
<mgrwt>
<rscale>  0 0.30972099E+03</rscale>
<asrwt>0</asrwt>
<pdfrwt beam="1">  1        2 0.42242819E-02 0.30972099E+03</pdfrwt>
<pdfrwt beam="2">  1       -2 0.11585968E+00 0.30972099E+03</pdfrwt>
<totfact> 0.11956411E+03</totfact>
</mgrwt>
</event>
<event>
 4    1  0.1308644E-003  0.2845491E+03  0.7818608E-02  0.1093230E+00
          2   -1    0    0  501    0  0.00000000000E+00  0.00000000000E+00  0.26429822412E+04  0.26429822412E+04  0.25500000000E-02 0.  1.
         -2   -1    0    0    0  501 -0.00000000000E+00 -0.00000000000E+00 -0.76587909843E+01  0.76587914088E+01  0.25500000000E-02 0. -1.
    5000001    1    1    2    0    0 -0.11278055733E+03 -0.39712166642E+02  0.12797785705E+04  0.12876562817E+04  0.77000000000E+02 0.  0.
   -5000001    1    1    2    0    0  0.11278055733E+03  0.39712166642E+02  0.13555448797E+04  0.13629847509E+04  0.77000000000E+02 0.  0.
<mgrwt>
<rscale>  0 0.28454911E+03</rscale>
<asrwt>0</asrwt>
<pdfrwt beam="1">  1        2 0.37756970E+00 0.28454911E+03</pdfrwt>
<pdfrwt beam="2">  1       -2 0.10941107E-02 0.28454911E+03</pdfrwt>
<totfact> 0.79487706E+03</totfact>
</mgrwt>
</event>
<event>
 4    1  0.1308644E-003  0.2631357E+03  0.7818608E-02  0.1105274E+00
          2   -1    0    0  501    0  0.00000000000E+00  0.00000000000E+00  0.19222948482E+04  0.19222948482E+04  0.25500000000E-02 0.  1.
         -2   -1    0    0    0  501 -0.00000000000E+00 -0.00000000000E+00 -0.90049148921E+01  0.90049152531E+01  0.25500000000E-02 0. -1.
    5000001    1    1    2    0    0  0.36877360428E+02 -0.87556638333E+02  0.60046861583E+03  0.61279496019E+03  0.77000000000E+02 0.  0.
   -5000001    1    1    2    0    0 -0.36877360428E+02  0.87556638333E+02  0.13128213175E+04  0.13185048033E+04  0.77000000000E+02 0.  0.
<mgrwt>
<rscale>  0 0.26313572E+03</rscale>
<asrwt>0</asrwt>
<pdfrwt beam="1">  1        2 0.27461363E+00 0.26313572E+03</pdfrwt>
<pdfrwt beam="2">  1       -2 0.12864161E-02 0.26313572E+03</pdfrwt>
<totfact> 0.14219819E+04</totfact>
</mgrwt>
</event>
<event>
 4    1  0.1308644E-003  0.2332006E+03  0.7818608E-02  0.1124407E+00
         -2   -1    0    0    0  501 -0.00000000000E+00  0.00000000000E+00  0.59932335741E+01  0.59932341166E+01  0.25500000000E-02 0. -1.
          2   -1    0    0  501    0  0.00000000000E+00 -0.00000000000E+00 -0.22684955330E+04  0.22684955330E+04  0.25500000000E-02 0.  1.
    5000001    1    1    2    0    0 -0.37307965713E+02  0.73236437033E+02 -0.14256611429E+04  0.14301028475E+04  0.77000000000E+02 0.  0.
   -5000001    1    1    2    0    0  0.37307965713E+02 -0.73236437033E+02 -0.83684115646E+03  0.84438591957E+03  0.77000000000E+02 0.  0.
<mgrwt>
<rscale>  0 0.23320055E+03</rscale>
<asrwt>0</asrwt>
<pdfrwt beam="1">  1        2 0.32407024E+00 0.23320055E+03</pdfrwt>
<pdfrwt beam="2">  1       -2 0.85617771E-03 0.23320055E+03</pdfrwt>
<totfact> 0.17356658E+04</totfact>
</mgrwt>
</event>
<event>
 4    1  0.1308644E-003  0.2924034E+03  0.7818608E-02  0.1089101E+00
          2   -1    0    0  501    0  0.00000000000E+00  0.00000000000E+00  0.13562894548E+04  0.13562894548E+04  0.25500000000E-02 0.  1.
         -2   -1    0    0    0  501 -0.00000000000E+00 -0.00000000000E+00 -0.15759860995E+02  0.15759861201E+02  0.25500000000E-02 0. -1.
    5000001    1    1    2    0    0 -0.10349938659E+03 -0.94031074657E+01  0.99007957124E+03  0.99849241301E+03  0.77000000000E+02 0.  0.
   -5000001    1    1    2    0    0  0.10349938659E+03  0.94031074657E+01  0.35045002253E+03  0.37355690296E+03  0.77000000000E+02 0.  0.
<mgrwt>
<rscale>  0 0.29240337E+03</rscale>
<asrwt>0</asrwt>
<pdfrwt beam="1">  1        2 0.19375564E+00 0.29240337E+03</pdfrwt>
<pdfrwt beam="2">  1       -2 0.22514087E-02 0.29240337E+03</pdfrwt>
<totfact> 0.12016146E+04</totfact>
</mgrwt>
</event>
<event>
 4    1  0.1308644E-003  0.1778330E+03  0.7818608E-02  0.1169917E+00
          2   -1    0    0  501    0  0.00000000000E+00  0.00000000000E+00  0.68342253694E+03  0.68342253694E+03  0.25500000000E-02 0.  1.
         -2   -1    0    0    0  501 -0.00000000000E+00 -0.00000000000E+00 -0.11568452284E+02  0.11568452565E+02  0.25500000000E-02 0. -1.
    5000001    1    1    2    0    0  0.43153364706E+02 -0.83364153484E+01  0.36226910281E+03  0.37296060323E+03  0.77000000000E+02 0.  0.
   -5000001    1    1    2    0    0 -0.43153364706E+02  0.83364153484E+01  0.30958498184E+03  0.32203038628E+03  0.77000000000E+02 0.  0.
<mgrwt>
<rscale>  0 0.17783297E+03</rscale>
<asrwt>0</asrwt>
<pdfrwt beam="1">  1        2 0.97631803E-01 0.17783297E+03</pdfrwt>
<pdfrwt beam="2">  1       -2 0.16526359E-02 0.17783297E+03</pdfrwt>
<totfact> 0.46285661E+04</totfact>
</mgrwt>
</event>
<event>
 4    1  0.1308644E-003  0.3960870E+03  0.7818608E-02  0.1045143E+00
          2   -1    0    0  501    0  0.00000000000E+00  0.00000000000E+00  0.87292449912E+03  0.87292449912E+03  0.25500000000E-02 0.  1.
         -2   -1    0    0    0  501 -0.00000000000E+00 -0.00000000000E+00 -0.44930837943E+02  0.44930838016E+02  0.25500000000E-02 0. -1.
    5000001    1    1    2    0    0  0.33745564910E+02  0.16567847929E+03  0.57293282542E+03  0.60230319948E+03  0.77000000000E+02 0.  0.
   -5000001    1    1    2    0    0 -0.33745564910E+02 -0.16567847929E+03  0.25506083575E+03  0.31555213766E+03  0.77000000000E+02 0.  0.
<mgrwt>
<rscale>  0 0.39608701E+03</rscale>
<asrwt>0</asrwt>
<pdfrwt beam="1">  1        2 0.12470350E+00 0.39608701E+03</pdfrwt>
<pdfrwt beam="2">  1       -2 0.64186909E-02 0.39608701E+03</pdfrwt>
<totfact> 0.46813174E+03</totfact>
</mgrwt>
</event>
<event>
 4    1  0.1308644E-003  0.6456001E+03  0.7818608E-02  0.9815071E-01
          2   -1    0    0  501    0  0.00000000000E+00  0.00000000000E+00  0.60726541148E+03  0.60726541148E+03  0.25500000000E-02 0.  1.
         -2   -1    0    0    0  501 -0.00000000000E+00 -0.00000000000E+00 -0.17158866343E+03  0.17158866345E+03  0.25500000000E-02 0. -1.
    5000001    1    1    2    0    0 -0.17050695217E+03  0.12232054950E+03  0.49879291065E+03  0.54658787517E+03  0.77000000000E+02 0.  0.
   -5000001    1    1    2    0    0  0.17050695217E+03 -0.12232054950E+03 -0.63116162608E+02  0.23226619976E+03  0.77000000000E+02 0.  0.
<mgrwt>
<rscale>  0 0.64560006E+03</rscale>
<asrwt>0</asrwt>
<pdfrwt beam="1">  1        2 0.86752202E-01 0.64560006E+03</pdfrwt>
<pdfrwt beam="2">  1       -2 0.24512666E-01 0.64560006E+03</pdfrwt>
<totfact> 0.79702805E+02</totfact>
</mgrwt>
</event>
<event>
 4    1  0.1308644E-003  0.4687741E+03  0.7818608E-02  0.1022267E+00
          2   -1    0    0  501    0  0.00000000000E+00  0.00000000000E+00  0.66584616636E+02  0.66584616685E+02  0.25500000000E-02 0.  1.
         -2   -1    0    0    0  501 -0.00000000000E+00 -0.00000000000E+00 -0.82507482934E+03  0.82507482935E+03  0.25500000000E-02 0. -1.
    5000001    1    1    2    0    0  0.36077063253E+02 -0.21614619899E+03 -0.43901969171E+03  0.49667698109E+03  0.77000000000E+02 0.  0.
   -5000001    1    1    2    0    0 -0.36077063253E+02  0.21614619899E+03 -0.31947052099E+03  0.39498246495E+03  0.77000000000E+02 0.  0.
<mgrwt>
<rscale>  0 0.46877411E+03</rscale>
<asrwt>0</asrwt>
<pdfrwt beam="1">  1        2 0.95120886E-02 0.46877411E+03</pdfrwt>
<pdfrwt beam="2">  1       -2 0.11786783E+00 0.46877411E+03</pdfrwt>
<totfact> 0.39771027E+02</totfact>
</mgrwt>
</event>
<event>
 4    1  0.1308644E-003  0.5155386E+03  0.7818608E-02  0.1009801E+00
         -2   -1    0    0    0  501 -0.00000000000E+00  0.00000000000E+00  0.14318477385E+03  0.14318477387E+03  0.25500000000E-02 0. -1.
          2   -1    0    0  501    0  0.00000000000E+00 -0.00000000000E+00 -0.46405090595E+03  0.46405090596E+03  0.25500000000E-02 0.  1.
    5000001    1    1    2    0    0 -0.98605154974E+02  0.21739938626E+03 -0.23042008611E+03  0.34059930390E+03  0.77000000000E+02 0.  0.
   -5000001    1    1    2    0    0  0.98605154974E+02 -0.21739938626E+03 -0.90446045993E+02  0.26663637593E+03  0.77000000000E+02 0.  0.
<mgrwt>
<rscale>  0 0.51553865E+03</rscale>
<asrwt>0</asrwt>
<pdfrwt beam="1">  1        2 0.66292986E-01 0.51553865E+03</pdfrwt>
<pdfrwt beam="2">  1       -2 0.20454968E-01 0.51553865E+03</pdfrwt>
<totfact> 0.14963812E+03</totfact>
</mgrwt>
</event>
<event>
 4    1  0.1308644E-003  0.3285718E+03  0.7818608E-02  0.1071771E+00
          2   -1    0    0  501    0  0.00000000000E+00  0.00000000000E+00  0.35775544298E+04  0.35775544298E+04  0.25500000000E-02 0.  1.
         -2   -1    0    0    0  501 -0.00000000000E+00 -0.00000000000E+00 -0.75442198047E+01  0.75442202357E+01  0.25500000000E-02 0. -1.
    5000001    1    1    2    0    0 -0.66374425116E+02  0.39545607935E+02  0.44459981294E+03  0.45778533515E+03  0.77000000000E+02 0.  0.
   -5000001    1    1    2    0    0  0.66374425116E+02 -0.39545607935E+02  0.31254103971E+04  0.31273133149E+04  0.77000000000E+02 0.  0.
<mgrwt>
<rscale>  0 0.32857180E+03</rscale>
<asrwt>0</asrwt>
<pdfrwt beam="1">  1        2 0.51107966E+00 0.32857180E+03</pdfrwt>
<pdfrwt beam="2">  1       -2 0.10777448E-02 0.32857180E+03</pdfrwt>
<totfact> 0.25128994E+03</totfact>
</mgrwt>
</event>
<event>
 4    1  0.1308644E-003  0.2989096E+03  0.7818608E-02  0.1085787E+00
          2   -1    0    0  501    0  0.00000000000E+00  0.00000000000E+00  0.97744387713E+03  0.97744387713E+03  0.25500000000E-02 0.  1.
         -2   -1    0    0    0  501 -0.00000000000E+00 -0.00000000000E+00 -0.22852193705E+02  0.22852193847E+02  0.25500000000E-02 0. -1.
    5000001    1    1    2    0    0  0.42396657786E+02 -0.12015318066E+03  0.52137215299E+03  0.54221046221E+03  0.77000000000E+02 0.  0.
   -5000001    1    1    2    0    0 -0.42396657786E+02  0.12015318066E+03  0.43321953043E+03  0.45808560877E+03  0.77000000000E+02 0.  0.
<mgrwt>
<rscale>  0 0.29890960E+03</rscale>
<asrwt>0</asrwt>
<pdfrwt beam="1">  1        2 0.13963486E+00 0.29890960E+03</pdfrwt>
<pdfrwt beam="2">  1       -2 0.32645986E-02 0.29890960E+03</pdfrwt>
<totfact> 0.11217907E+04</totfact>
</mgrwt>
</event>
<event>
 4    1  0.1308644E-003  0.2045196E+03  0.7818608E-02  0.1145981E+00
          2   -1    0    0  501    0  0.00000000000E+00  0.00000000000E+00  0.18604835788E+04  0.18604835788E+04  0.25500000000E-02 0.  1.
         -2   -1    0    0    0  501 -0.00000000000E+00 -0.00000000000E+00 -0.56206188767E+01  0.56206194552E+01  0.25500000000E-02 0. -1.
    5000001    1    1    2    0    0  0.47318870952E+02 -0.47735164187E+02  0.89807975468E+03  0.90387718591E+03  0.77000000000E+02 0.  0.
   -5000001    1    1    2    0    0 -0.47318870952E+02  0.47735164187E+02  0.95678320522E+03  0.96222701232E+03  0.77000000000E+02 0.  0.
<mgrwt>
<rscale>  0 0.20451963E+03</rscale>
<asrwt>0</asrwt>
<pdfrwt beam="1">  1        2 0.26578289E+00 0.20451963E+03</pdfrwt>
<pdfrwt beam="2">  1       -2 0.80294703E-03 0.20451963E+03</pdfrwt>
<totfact> 0.29851716E+04</totfact>
</mgrwt>
</event>
<event>
 4    1  0.1308644E-003  0.2749219E+03  0.7818608E-02  0.1098495E+00
         -2   -1    0    0    0  501 -0.00000000000E+00  0.00000000000E+00  0.68854058312E+02  0.68854058359E+02  0.25500000000E-02 0. -1.
          2   -1    0    0  501    0  0.00000000000E+00 -0.00000000000E+00 -0.27442841922E+03  0.27442841924E+03  0.25500000000E-02 0.  1.
    5000001    1    1    2    0    0  0.23304635974E+02  0.64668988523E+02  0.10567871501E+02  0.10375868177E+03  0.77000000000E+02 0.  0.
   -5000001    1    1    2    0    0 -0.23304635974E+02 -0.64668988523E+02 -0.21614223241E+03  0.23952379583E+03  0.77000000000E+02 0.  0.
<mgrwt>
<rscale>  0 0.27492188E+03</rscale>
<asrwt>0</asrwt>
<pdfrwt beam="1">  1        2 0.39204059E-01 0.27492188E+03</pdfrwt>
<pdfrwt beam="2">  1       -2 0.98362942E-02 0.27492188E+03</pdfrwt>
<totfact> 0.88248902E+03</totfact>
</mgrwt>
</event>
<event>
 4    1  0.1308644E-003  0.2248991E+03  0.7818608E-02  0.1130282E+00
         -2   -1    0    0    0  501 -0.00000000000E+00  0.00000000000E+00  0.17526418999E+02  0.17526419185E+02  0.25500000000E-02 0. -1.
          2   -1    0    0  501    0  0.00000000000E+00 -0.00000000000E+00 -0.72147654100E+03  0.72147654101E+03  0.25500000000E-02 0.  1.
    5000001    1    1    2    0    0 -0.68231050267E+02 -0.39477065857E+02 -0.27835367850E+03  0.29937215181E+03  0.77000000000E+02 0.  0.
   -5000001    1    1    2    0    0  0.68231050267E+02  0.39477065857E+02 -0.42559644351E+03  0.43963080838E+03  0.77000000000E+02 0.  0.
<mgrwt>
<rscale>  0 0.22489909E+03</rscale>
<asrwt>0</asrwt>
<pdfrwt beam="1">  1        2 0.10306806E+00 0.22489909E+03</pdfrwt>
<pdfrwt beam="2">  1       -2 0.25037746E-02 0.22489909E+03</pdfrwt>
<totfact> 0.24079769E+04</totfact>
</mgrwt>
</event>
<event>
 4    1  0.1308644E-003  0.1993330E+03  0.7818608E-02  0.1150303E+00
         -2   -1    0    0    0  501 -0.00000000000E+00  0.00000000000E+00  0.65937625865E+02  0.65937625914E+02  0.25500000000E-02 0. -1.
          2   -1    0    0  501    0  0.00000000000E+00 -0.00000000000E+00 -0.15064861263E+03  0.15064861265E+03  0.25500000000E-02 0.  1.
    5000001    1    1    2    0    0 -0.30522957683E+02  0.34475644577E+02  0.48088819844E+01  0.89846237320E+02  0.77000000000E+02 0.  0.
   -5000001    1    1    2    0    0  0.30522957683E+02 -0.34475644577E+02 -0.89519868748E+02  0.12674000124E+03  0.77000000000E+02 0.  0.
<mgrwt>
<rscale>  0 0.19933301E+03</rscale>
<asrwt>0</asrwt>
<pdfrwt beam="1">  1        2 0.21521230E-01 0.19933301E+03</pdfrwt>
<pdfrwt beam="2">  1       -2 0.94196609E-02 0.19933301E+03</pdfrwt>
<totfact> 0.17941067E+04</totfact>
</mgrwt>
</event>
<event>
 4    1  0.1308644E-003  0.4102990E+03  0.7818608E-02  0.1040271E+00
         -2   -1    0    0    0  501 -0.00000000000E+00  0.00000000000E+00  0.31289732063E+02  0.31289732167E+02  0.25500000000E-02 0. -1.
          2   -1    0    0  501    0  0.00000000000E+00 -0.00000000000E+00 -0.13450519436E+04  0.13450519436E+04  0.25500000000E-02 0.  1.
    5000001    1    1    2    0    0  0.77679947252E+02 -0.14543437378E+03 -0.33914245095E+03  0.38487911520E+03  0.77000000000E+02 0.  0.
   -5000001    1    1    2    0    0 -0.77679947252E+02  0.14543437378E+03 -0.97461976057E+03  0.99146256056E+03  0.77000000000E+02 0.  0.
<mgrwt>
<rscale>  0 0.41029899E+03</rscale>
<asrwt>0</asrwt>
<pdfrwt beam="1">  1        2 0.19215024E+00 0.41029899E+03</pdfrwt>
<pdfrwt beam="2">  1       -2 0.44699626E-02 0.41029899E+03</pdfrwt>
<totfact> 0.43717231E+03</totfact>
</mgrwt>
</event>
<event>
 4    1  0.1308644E-003  0.2058491E+03  0.7818608E-02  0.1144896E+00
          2   -1    0    0  501    0  0.00000000000E+00  0.00000000000E+00  0.86930012706E+03  0.86930012706E+03  0.25500000000E-02 0.  1.
         -2   -1    0    0    0  501 -0.00000000000E+00 -0.00000000000E+00 -0.12186192326E+02  0.12186192593E+02  0.25500000000E-02 0. -1.
    5000001    1    1    2    0    0 -0.47598766757E+02 -0.26784800406E+02  0.60414745748E+03  0.61147871468E+03  0.77000000000E+02 0.  0.
   -5000001    1    1    2    0    0  0.47598766757E+02  0.26784800406E+02  0.25296647725E+03  0.27000760497E+03  0.77000000000E+02 0.  0.
<mgrwt>
<rscale>  0 0.20584906E+03</rscale>
<asrwt>0</asrwt>
<pdfrwt beam="1">  1        2 0.12418577E+00 0.20584906E+03</pdfrwt>
<pdfrwt beam="2">  1       -2 0.17408842E-02 0.20584906E+03</pdfrwt>
<totfact> 0.32446589E+04</totfact>
</mgrwt>
</event>
<event>
 4    1  0.1308644E-003  0.3177882E+03  0.7818608E-02  0.1076672E+00
          2   -1    0    0  501    0  0.00000000000E+00  0.00000000000E+00  0.76022371893E+03  0.76022371893E+03  0.25500000000E-02 0.  1.
         -2   -1    0    0    0  501 -0.00000000000E+00 -0.00000000000E+00 -0.33210392048E+02  0.33210392146E+02  0.25500000000E-02 0. -1.
    5000001    1    1    2    0    0 -0.52912662793E+02 -0.77022805191E+02  0.10662065612E+03  0.16133575771E+03  0.77000000000E+02 0.  0.
   -5000001    1    1    2    0    0  0.52912662793E+02  0.77022805191E+02  0.62039267075E+03  0.63209835337E+03  0.77000000000E+02 0.  0.
<mgrwt>
<rscale>  0 0.31778815E+03</rscale>
<asrwt>0</asrwt>
<pdfrwt beam="1">  1        2 0.10860340E+00 0.31778815E+03</pdfrwt>
<pdfrwt beam="2">  1       -2 0.47443413E-02 0.31778815E+03</pdfrwt>
<totfact> 0.88265364E+03</totfact>
</mgrwt>
</event>
<event>
 4    1  0.1308644E-003  0.2654607E+03  0.7818608E-02  0.1103906E+00
         -2   -1    0    0    0  501 -0.00000000000E+00  0.00000000000E+00  0.84113816347E+02  0.84113816386E+02  0.25500000000E-02 0. -1.
          2   -1    0    0  501    0  0.00000000000E+00 -0.00000000000E+00 -0.20944649158E+03  0.20944649160E+03  0.25500000000E-02 0.  1.
    5000001    1    1    2    0    0 -0.21282890813E+02 -0.98839601652E+02 -0.20323378170E+02  0.12870224550E+03  0.77000000000E+02 0.  0.
   -5000001    1    1    2    0    0  0.21282890813E+02  0.98839601652E+02 -0.10500929706E+03  0.16485806248E+03  0.77000000000E+02 0.  0.
<mgrwt>
<rscale>  0 0.26546068E+03</rscale>
<asrwt>0</asrwt>
<pdfrwt beam="1">  1        2 0.29920927E-01 0.26546068E+03</pdfrwt>
<pdfrwt beam="2">  1       -2 0.12016259E-01 0.26546068E+03</pdfrwt>
<totfact> 0.85810301E+03</totfact>
</mgrwt>
</event>
<event>
 4    1  0.1308644E-003  0.3486412E+03  0.7818608E-02  0.1063174E+00
         -2   -1    0    0    0  501 -0.00000000000E+00  0.00000000000E+00  0.26230977488E+02  0.26230977612E+02  0.25500000000E-02 0. -1.
          2   -1    0    0  501    0  0.00000000000E+00 -0.00000000000E+00 -0.11584654016E+04  0.11584654016E+04  0.25500000000E-02 0.  1.
    5000001    1    1    2    0    0  0.10036191698E+03  0.10753293493E+03 -0.74665616639E+03  0.76489233051E+03  0.77000000000E+02 0.  0.
   -5000001    1    1    2    0    0 -0.10036191698E+03 -0.10753293493E+03 -0.38557825772E+03  0.41980404869E+03  0.77000000000E+02 0.  0.
<mgrwt>
<rscale>  0 0.34864125E+03</rscale>
<asrwt>0</asrwt>
<pdfrwt beam="1">  1        2 0.16549502E+00 0.34864125E+03</pdfrwt>
<pdfrwt beam="2">  1       -2 0.37472832E-02 0.34864125E+03</pdfrwt>
<totfact> 0.71993861E+03</totfact>
</mgrwt>
</event>
<event>
 4    1  0.1308644E-003  0.1828783E+03  0.7818608E-02  0.1165046E+00
         -2   -1    0    0    0  501 -0.00000000000E+00  0.00000000000E+00  0.42577483182E+01  0.42577490818E+01  0.25500000000E-02 0. -1.
          2   -1    0    0  501    0  0.00000000000E+00 -0.00000000000E+00 -0.19637415803E+04  0.19637415803E+04  0.25500000000E-02 0.  1.
    5000001    1    1    2    0    0 -0.12682717425E+02  0.45137207092E+02 -0.81516182288E+03  0.82013170666E+03  0.77000000000E+02 0.  0.
   -5000001    1    1    2    0    0  0.12682717425E+02 -0.45137207092E+02 -0.11443220091E+04  0.11478676227E+04  0.77000000000E+02 0.  0.
<mgrwt>
<rscale>  0 0.18287830E+03</rscale>
<asrwt>0</asrwt>
<pdfrwt beam="1">  1        2 0.28053393E+00 0.18287830E+03</pdfrwt>
<pdfrwt beam="2">  1       -2 0.60825107E-03 0.18287830E+03</pdfrwt>
<totfact> 0.39394662E+04</totfact>
</mgrwt>
</event>
<event>
 4    1  0.1308644E-003  0.1967691E+03  0.7818608E-02  0.1152494E+00
          2   -1    0    0  501    0  0.00000000000E+00  0.00000000000E+00  0.15203968150E+04  0.15203968150E+04  0.25500000000E-02 0.  1.
         -2   -1    0    0    0  501 -0.00000000000E+00 -0.00000000000E+00 -0.63664458860E+01  0.63664463966E+01  0.25500000000E-02 0. -1.
    5000001    1    1    2    0    0  0.46878960398E+02 -0.38734173230E+02  0.81326311834E+03  0.81916046826E+03  0.77000000000E+02 0.  0.
   -5000001    1    1    2    0    0 -0.46878960398E+02  0.38734173230E+02  0.70076725077E+03  0.70760279314E+03  0.77000000000E+02 0.  0.
<mgrwt>
<rscale>  0 0.19676915E+03</rscale>
<asrwt>0</asrwt>
<pdfrwt beam="1">  1        2 0.21719979E+00 0.19676915E+03</pdfrwt>
<pdfrwt beam="2">  1       -2 0.90949126E-03 0.19676915E+03</pdfrwt>
<totfact> 0.36503266E+04</totfact>
</mgrwt>
</event>
<event>
 4    1  0.1308644E-003  0.2056781E+03  0.7818608E-02  0.1145035E+00
         -2   -1    0    0    0  501 -0.00000000000E+00  0.00000000000E+00  0.34333314915E+01  0.34333324384E+01  0.25500000000E-02 0. -1.
          2   -1    0    0  501    0  0.00000000000E+00 -0.00000000000E+00 -0.30803531455E+04  0.30803531455E+04  0.25500000000E-02 0.  1.
    5000001    1    1    2    0    0  0.24418836287E+02  0.54011572190E+02 -0.20432110361E+04  0.20455204393E+04  0.77000000000E+02 0.  0.
   -5000001    1    1    2    0    0 -0.24418836287E+02 -0.54011572190E+02 -0.10337087779E+04  0.10382660387E+04  0.77000000000E+02 0.  0.
<mgrwt>
<rscale>  0 0.20567815E+03</rscale>
<asrwt>0</asrwt>
<pdfrwt beam="1">  1        2 0.44004868E+00 0.20567815E+03</pdfrwt>
<pdfrwt beam="2">  1       -2 0.49047797E-03 0.20567815E+03</pdfrwt>
<totfact> 0.14966536E+04</totfact>
</mgrwt>
</event>
<event>
 4    1  0.1308644E-003  0.1810094E+03  0.7818608E-02  0.1166830E+00
          2   -1    0    0  501    0  0.00000000000E+00  0.00000000000E+00  0.41087955171E+02  0.41087955250E+02  0.25500000000E-02 0.  1.
         -2   -1    0    0    0  501 -0.00000000000E+00 -0.00000000000E+00 -0.19935520989E+03  0.19935520990E+03  0.25500000000E-02 0. -1.
    5000001    1    1    2    0    0 -0.18494050980E+02 -0.28402862153E+02 -0.12345634164E+03  0.14939618734E+03  0.77000000000E+02 0.  0.
   -5000001    1    1    2    0    0  0.18494050980E+02  0.28402862153E+02 -0.34810913076E+02  0.91046977815E+02  0.77000000000E+02 0.  0.
<mgrwt>
<rscale>  0 0.18100937E+03</rscale>
<asrwt>0</asrwt>
<pdfrwt beam="1">  1        2 0.58697080E-02 0.18100937E+03</pdfrwt>
<pdfrwt beam="2">  1       -2 0.28479315E-01 0.18100937E+03</pdfrwt>
<totfact> 0.13686022E+04</totfact>
</mgrwt>
</event>
<event>
 4    1  0.1308644E-003  0.2171600E+03  0.7818608E-02  0.1136018E+00
         -2   -1    0    0    0  501 -0.00000000000E+00  0.00000000000E+00  0.80252550108E+01  0.80252554159E+01  0.25500000000E-02 0. -1.
          2   -1    0    0  501    0  0.00000000000E+00 -0.00000000000E+00 -0.14690647113E+04  0.14690647113E+04  0.25500000000E-02 0.  1.
    5000001    1    1    2    0    0  0.53218133153E+02 -0.31060845904E+02 -0.42152750772E+03  0.43291036672E+03  0.77000000000E+02 0.  0.
   -5000001    1    1    2    0    0 -0.53218133153E+02  0.31060845904E+02 -0.10395119485E+04  0.10441796000E+04  0.77000000000E+02 0.  0.
<mgrwt>
<rscale>  0 0.21716003E+03</rscale>
<asrwt>0</asrwt>
<pdfrwt beam="1">  1        2 0.20986622E+00 0.21716003E+03</pdfrwt>
<pdfrwt beam="2">  1       -2 0.11464660E-02 0.21716003E+03</pdfrwt>
<totfact> 0.27885062E+04</totfact>
</mgrwt>
</event>
<event>
 4    1  0.1308644E-003  0.1815250E+03  0.7818608E-02  0.1166335E+00
         -2   -1    0    0    0  501 -0.00000000000E+00  0.00000000000E+00  0.25807967758E+03  0.25807967759E+03  0.25500000000E-02 0. -1.
          2   -1    0    0  501    0  0.00000000000E+00 -0.00000000000E+00 -0.31919705249E+02  0.31919705350E+02  0.25500000000E-02 0.  1.
    5000001    1    1    2    0    0  0.17017070313E+02 -0.39244293717E+02  0.78110575016E+02  0.11772831945E+03  0.77000000000E+02 0.  0.
   -5000001    1    1    2    0    0 -0.17017070313E+02  0.39244293717E+02  0.14804939732E+03  0.17227106349E+03  0.77000000000E+02 0.  0.
<mgrwt>
<rscale>  0 0.18152495E+03</rscale>
<asrwt>0</asrwt>
<pdfrwt beam="1">  1        2 0.45599580E-02 0.18152495E+03</pdfrwt>
<pdfrwt beam="2">  1       -2 0.36868524E-01 0.18152495E+03</pdfrwt>
<totfact> 0.11879495E+04</totfact>
</mgrwt>
</event>
<event>
 4    1  0.1308644E-003  0.2321351E+03  0.7818608E-02  0.1125146E+00
          2   -1    0    0  501    0  0.00000000000E+00  0.00000000000E+00  0.14642175418E+04  0.14642175418E+04  0.25500000000E-02 0.  1.
         -2   -1    0    0    0  501 -0.00000000000E+00 -0.00000000000E+00 -0.92006006389E+01  0.92006009923E+01  0.25500000000E-02 0. -1.
    5000001    1    1    2    0    0 -0.82488348601E+02  0.23349550533E+02  0.81572189179E+03  0.82382081420E+03  0.77000000000E+02 0.  0.
   -5000001    1    1    2    0    0  0.82488348601E+02 -0.23349550533E+02  0.63929504933E+03  0.64959732856E+03  0.77000000000E+02 0.  0.
<mgrwt>
<rscale>  0 0.23213514E+03</rscale>
<asrwt>0</asrwt>
<pdfrwt beam="1">  1        2 0.20917407E+00 0.23213514E+03</pdfrwt>
<pdfrwt beam="2">  1       -2 0.13143707E-02 0.23213514E+03</pdfrwt>
<totfact> 0.23077932E+04</totfact>
</mgrwt>
</event>
<event>
 4    1  0.1308644E-003  0.2458397E+03  0.7818608E-02  0.1115963E+00
          2   -1    0    0  501    0  0.00000000000E+00  0.00000000000E+00  0.35628670962E+03  0.35628670963E+03  0.25500000000E-02 0.  1.
         -2   -1    0    0    0  501 -0.00000000000E+00 -0.00000000000E+00 -0.42407676844E+02  0.42407676921E+02  0.25500000000E-02 0. -1.
    5000001    1    1    2    0    0  0.85329778793E+02 -0.34432218216E+02  0.11361855299E+03  0.16524201761E+03  0.77000000000E+02 0.  0.
   -5000001    1    1    2    0    0 -0.85329778793E+02  0.34432218216E+02  0.20026047978E+03  0.23345236894E+03  0.77000000000E+02 0.  0.
<mgrwt>
<rscale>  0 0.24583972E+03</rscale>
<asrwt>0</asrwt>
<pdfrwt beam="1">  1        2 0.50898102E-01 0.24583972E+03</pdfrwt>
<pdfrwt beam="2">  1       -2 0.60582395E-02 0.24583972E+03</pdfrwt>
<totfact> 0.14106702E+04</totfact>
</mgrwt>
</event>
<event>
 4    1  0.1308644E-003  0.2723549E+03  0.7818608E-02  0.1099939E+00
         -2   -1    0    0    0  501 -0.00000000000E+00  0.00000000000E+00  0.46145079373E+02  0.46145079444E+02  0.25500000000E-02 0. -1.
          2   -1    0    0  501    0  0.00000000000E+00 -0.00000000000E+00 -0.40186947700E+03  0.40186947701E+03  0.25500000000E-02 0.  1.
    5000001    1    1    2    0    0 -0.79397953814E+02 -0.77888747292E+02 -0.15213507258E+03  0.20357989177E+03  0.77000000000E+02 0.  0.
   -5000001    1    1    2    0    0  0.79397953814E+02  0.77888747292E+02 -0.20358932505E+03  0.24443466468E+03  0.77000000000E+02 0.  0.
<mgrwt>
<rscale>  0 0.27235491E+03</rscale>
<asrwt>0</asrwt>
<pdfrwt beam="1">  1        2 0.57409923E-01 0.27235491E+03</pdfrwt>
<pdfrwt beam="2">  1       -2 0.65921544E-02 0.27235491E+03</pdfrwt>
<totfact> 0.10935590E+04</totfact>
</mgrwt>
</event>
<event>
 4    1  0.1308644E-003  0.2061099E+03  0.7818608E-02  0.1144684E+00
          2   -1    0    0  501    0  0.00000000000E+00  0.00000000000E+00  0.30297007690E+03  0.30297007691E+03  0.25500000000E-02 0.  1.
         -2   -1    0    0    0  501 -0.00000000000E+00 -0.00000000000E+00 -0.35054031291E+02  0.35054031384E+02  0.25500000000E-02 0. -1.
    5000001    1    1    2    0    0  0.54252421476E+01 -0.34736952765E+02  0.23036035106E+03  0.24542000831E+03  0.77000000000E+02 0.  0.
   -5000001    1    1    2    0    0 -0.54252421476E+01  0.34736952765E+02  0.37555694543E+02  0.92604099976E+02  0.77000000000E+02 0.  0.
<mgrwt>
<rscale>  0 0.20610990E+03</rscale>
<asrwt>0</asrwt>
<pdfrwt beam="1">  1        2 0.43281442E-01 0.20610990E+03</pdfrwt>
<pdfrwt beam="2">  1       -2 0.50077185E-02 0.20610990E+03</pdfrwt>
<totfact> 0.22171892E+04</totfact>
</mgrwt>
</event>
<event>
 4    1  0.1308644E-003  0.1633763E+03  0.7818608E-02  0.1184937E+00
          2   -1    0    0  501    0  0.00000000000E+00  0.00000000000E+00  0.53289474377E+03  0.53289474377E+03  0.25500000000E-02 0.  1.
         -2   -1    0    0    0  501 -0.00000000000E+00 -0.00000000000E+00 -0.12522087258E+02  0.12522087517E+02  0.25500000000E-02 0. -1.
    5000001    1    1    2    0    0 -0.22312970310E+02  0.62639865216E+01  0.21217259000E+03  0.22689934799E+03  0.77000000000E+02 0.  0.
   -5000001    1    1    2    0    0  0.22312970310E+02 -0.62639865216E+01  0.30820006651E+03  0.31851748330E+03  0.77000000000E+02 0.  0.
<mgrwt>
<rscale>  0 0.16337631E+03</rscale>
<asrwt>0</asrwt>
<pdfrwt beam="1">  1        2 0.76127799E-01 0.16337631E+03</pdfrwt>
<pdfrwt beam="2">  1       -2 0.17888701E-02 0.16337631E+03</pdfrwt>
<totfact> 0.54205101E+04</totfact>
</mgrwt>
</event>
<event>
 4    1  0.1308644E-003  0.1885002E+03  0.7818608E-02  0.1159821E+00
         -2   -1    0    0    0  501 -0.00000000000E+00  0.00000000000E+00  0.10799778911E+02  0.10799779212E+02  0.25500000000E-02 0. -1.
          2   -1    0    0  501    0  0.00000000000E+00 -0.00000000000E+00 -0.82252406161E+03  0.82252406162E+03  0.25500000000E-02 0.  1.
    5000001    1    1    2    0    0  0.45232203758E+02 -0.22296227160E+02 -0.49548631565E+03  0.50396305718E+03  0.77000000000E+02 0.  0.
   -5000001    1    1    2    0    0 -0.45232203758E+02  0.22296227160E+02 -0.31623796705E+03  0.32936078365E+03  0.77000000000E+02 0.  0.
<mgrwt>
<rscale>  0 0.18850017E+03</rscale>
<asrwt>0</asrwt>
<pdfrwt beam="1">  1        2 0.11750340E+00 0.18850017E+03</pdfrwt>
<pdfrwt beam="2">  1       -2 0.15428261E-02 0.18850017E+03</pdfrwt>
<totfact> 0.41172670E+04</totfact>
</mgrwt>
</event>
<event>
 4    1  0.1308644E-003  0.2186520E+03  0.7818608E-02  0.1134892E+00
         -2   -1    0    0    0  501 -0.00000000000E+00  0.00000000000E+00  0.26425627228E+02  0.26425627351E+02  0.25500000000E-02 0. -1.
          2   -1    0    0  501    0  0.00000000000E+00 -0.00000000000E+00 -0.45229499414E+03  0.45229499415E+03  0.25500000000E-02 0.  1.
    5000001    1    1    2    0    0 -0.36017203339E+02 -0.31705671275E+02 -0.79385768304E+02  0.12055533475E+03  0.77000000000E+02 0.  0.
   -5000001    1    1    2    0    0  0.36017203339E+02  0.31705671275E+02 -0.34648359861E+03  0.35816528675E+03  0.77000000000E+02 0.  0.
<mgrwt>
<rscale>  0 0.21865204E+03</rscale>
<asrwt>0</asrwt>
<pdfrwt beam="1">  1        2 0.64613566E-01 0.21865204E+03</pdfrwt>
<pdfrwt beam="2">  1       -2 0.37750899E-02 0.21865204E+03</pdfrwt>
<totfact> 0.22139791E+04</totfact>
</mgrwt>
</event>
<event>
 4    1  0.1308644E-003  0.2446157E+03  0.7818608E-02  0.1116756E+00
          2   -1    0    0  501    0  0.00000000000E+00  0.00000000000E+00  0.11404190194E+03  0.11404190197E+03  0.25500000000E-02 0.  1.
         -2   -1    0    0    0  501 -0.00000000000E+00 -0.00000000000E+00 -0.13117293421E+03  0.13117293424E+03  0.25500000000E-02 0. -1.
    5000001    1    1    2    0    0  0.90844709507E+02  0.17280014984E+02  0.13370738938E+02  0.12107492235E+03  0.77000000000E+02 0.  0.
   -5000001    1    1    2    0    0 -0.90844709507E+02 -0.17280014984E+02 -0.30501771211E+02  0.12413991385E+03  0.77000000000E+02 0.  0.
<mgrwt>
<rscale>  0 0.24461571E+03</rscale>
<asrwt>0</asrwt>
<pdfrwt beam="1">  1        2 0.16291700E-01 0.24461571E+03</pdfrwt>
<pdfrwt beam="2">  1       -2 0.18738991E-01 0.24461571E+03</pdfrwt>
<totfact> 0.81673470E+03</totfact>
</mgrwt>
</event>
<event>
 4    1  0.1308644E-003  0.1724146E+03  0.7818608E-02  0.1175353E+00
          2   -1    0    0  501    0  0.00000000000E+00  0.00000000000E+00  0.19083328951E+03  0.19083328953E+03  0.25500000000E-02 0.  1.
         -2   -1    0    0    0  501 -0.00000000000E+00 -0.00000000000E+00 -0.38943388904E+02  0.38943388987E+02  0.25500000000E-02 0. -1.
    5000001    1    1    2    0    0 -0.19334686017E+02 -0.32734880805E+02  0.86032390190E+02  0.12155646699E+03  0.77000000000E+02 0.  0.
   -5000001    1    1    2    0    0  0.19334686017E+02  0.32734880805E+02  0.65857510416E+02  0.10822021153E+03  0.77000000000E+02 0.  0.
<mgrwt>
<rscale>  0 0.17241456E+03</rscale>
<asrwt>0</asrwt>
<pdfrwt beam="1">  1        2 0.27261898E-01 0.17241456E+03</pdfrwt>
<pdfrwt beam="2">  1       -2 0.55633413E-02 0.17241456E+03</pdfrwt>
<totfact> 0.30693952E+04</totfact>
</mgrwt>
</event>
<event>
 4    1  0.1308644E-003  0.1944512E+03  0.7818608E-02  0.1154507E+00
          2   -1    0    0  501    0  0.00000000000E+00  0.00000000000E+00  0.13005404326E+03  0.13005404328E+03  0.25500000000E-02 0.  1.
         -2   -1    0    0    0  501 -0.00000000000E+00 -0.00000000000E+00 -0.72683751228E+02  0.72683751273E+02  0.25500000000E-02 0. -1.
    5000001    1    1    2    0    0  0.52966274483E+02  0.36978849826E+01  0.56362905391E+02  0.10920108832E+03  0.77000000000E+02 0.  0.
   -5000001    1    1    2    0    0 -0.52966274483E+02 -0.36978849826E+01  0.10073866398E+01  0.93536706238E+02  0.77000000000E+02 0.  0.
<mgrwt>
<rscale>  0 0.19445118E+03</rscale>
<asrwt>0</asrwt>
<pdfrwt beam="1">  1        2 0.18579149E-01 0.19445118E+03</pdfrwt>
<pdfrwt beam="2">  1       -2 0.10383393E-01 0.19445118E+03</pdfrwt>
<totfact> 0.18151221E+04</totfact>
</mgrwt>
</event>
<event>
 4    1  0.1308644E-003  0.4601228E+03  0.7818608E-02  0.1024746E+00
         -2   -1    0    0    0  501 -0.00000000000E+00  0.00000000000E+00  0.52931208031E+02  0.52931208092E+02  0.25500000000E-02 0. -1.
          2   -1    0    0  501    0  0.00000000000E+00 -0.00000000000E+00 -0.99994424848E+03  0.99994424848E+03  0.25500000000E-02 0.  1.
    5000001    1    1    2    0    0  0.26017130108E+02 -0.21522107395E+03 -0.47007007738E+03  0.52334680603E+03  0.77000000000E+02 0.  0.
   -5000001    1    1    2    0    0 -0.26017130108E+02  0.21522107395E+03 -0.47694296306E+03  0.52952865054E+03  0.77000000000E+02 0.  0.
<mgrwt>
<rscale>  0 0.46012284E+03</rscale>
<asrwt>0</asrwt>
<pdfrwt beam="1">  1        2 0.14284917E+00 0.46012284E+03</pdfrwt>
<pdfrwt beam="2">  1       -2 0.75616018E-02 0.46012284E+03</pdfrwt>
<totfact> 0.30217953E+03</totfact>
</mgrwt>
</event>
<event>
 4    1  0.1308644E-003  0.3035967E+03  0.7818608E-02  0.1083456E+00
         -2   -1    0    0    0  501 -0.00000000000E+00  0.00000000000E+00  0.53744702915E+01  0.53744708965E+01  0.25500000000E-02 0. -1.
          2   -1    0    0  501    0  0.00000000000E+00 -0.00000000000E+00 -0.42874437489E+04  0.42874437489E+04  0.25500000000E-02 0.  1.
    5000001    1    1    2    0    0 -0.17613212274E+02 -0.11519997918E+03 -0.13006360981E+04  0.13081148727E+04  0.77000000000E+02 0.  0.
   -5000001    1    1    2    0    0  0.17613212274E+02  0.11519997918E+03 -0.29814331805E+04  0.29847033471E+04  0.77000000000E+02 0.  0.
<mgrwt>
<rscale>  0 0.30359671E+03</rscale>
<asrwt>0</asrwt>
<pdfrwt beam="1">  1        2 0.61248977E+00 0.30359671E+03</pdfrwt>
<pdfrwt beam="2">  1       -2 0.76778426E-03 0.30359671E+03</pdfrwt>
<totfact> 0.14381433E+03</totfact>
</mgrwt>
</event>
<event>
 4    1  0.1308644E-003  0.2913056E+03  0.7818608E-02  0.1089669E+00
         -2   -1    0    0    0  501 -0.00000000000E+00  0.00000000000E+00  0.53472835500E+02  0.53472835561E+02  0.25500000000E-02 0. -1.
          2   -1    0    0  501    0  0.00000000000E+00 -0.00000000000E+00 -0.39673859124E+03  0.39673859125E+03  0.25500000000E-02 0.  1.
    5000001    1    1    2    0    0 -0.50445321996E+02  0.92683843679E+02 -0.27120298865E+03  0.30102339850E+03  0.77000000000E+02 0.  0.
   -5000001    1    1    2    0    0  0.50445321996E+02 -0.92683843679E+02 -0.72062767086E+02  0.14918802831E+03  0.77000000000E+02 0.  0.
<mgrwt>
<rscale>  0 0.29130560E+03</rscale>
<asrwt>0</asrwt>
<pdfrwt beam="1">  1        2 0.56676940E-01 0.29130560E+03</pdfrwt>
<pdfrwt beam="2">  1       -2 0.76389768E-02 0.29130560E+03</pdfrwt>
<totfact> 0.88472488E+03</totfact>
</mgrwt>
</event>
<event>
 4    1  0.1308644E-003  0.5909556E+03  0.7818608E-02  0.9924350E-01
          2   -1    0    0  501    0  0.00000000000E+00  0.00000000000E+00  0.17169889220E+04  0.17169889220E+04  0.25500000000E-02 0.  1.
         -2   -1    0    0    0  501 -0.00000000000E+00 -0.00000000000E+00 -0.50848976901E+02  0.50848976965E+02  0.25500000000E-02 0. -1.
    5000001    1    1    2    0    0 -0.11748571951E+03  0.21170104410E+03  0.12843579003E+04  0.13092457533E+04  0.77000000000E+02 0.  0.
   -5000001    1    1    2    0    0  0.11748571951E+03 -0.21170104410E+03  0.38178204471E+03  0.45859214562E+03  0.77000000000E+02 0.  0.
<mgrwt>
<rscale>  0 0.59095560E+03</rscale>
<asrwt>0</asrwt>
<pdfrwt beam="1">  1        2 0.24528415E+00 0.59095560E+03</pdfrwt>
<pdfrwt beam="2">  1       -2 0.72641391E-02 0.59095560E+03</pdfrwt>
<totfact> 0.13156767E+03</totfact>
</mgrwt>
</event>
<event>
 4    1  0.1308644E-003  0.5541525E+03  0.7818608E-02  0.1000537E+00
          2   -1    0    0  501    0  0.00000000000E+00  0.00000000000E+00  0.31463220658E+04  0.31463220658E+04  0.25500000000E-02 0.  1.
         -2   -1    0    0    0  501 -0.00000000000E+00 -0.00000000000E+00 -0.24400316786E+02  0.24400316920E+02  0.25500000000E-02 0. -1.
    5000001    1    1    2    0    0 -0.24606359726E+03 -0.91409717324E+02  0.18129274910E+04  0.18334497860E+04  0.77000000000E+02 0.  0.
   -5000001    1    1    2    0    0  0.24606359726E+03  0.91409717324E+02  0.13089942581E+04  0.13372725968E+04  0.77000000000E+02 0.  0.
<mgrwt>
<rscale>  0 0.55415253E+03</rscale>
<asrwt>0</asrwt>
<pdfrwt beam="1">  1        2 0.44947484E+00 0.55415253E+03</pdfrwt>
<pdfrwt beam="2">  1       -2 0.34857576E-02 0.55415253E+03</pdfrwt>
<totfact> 0.75275996E+02</totfact>
</mgrwt>
</event>
<event>
 4    1  0.1308644E-003  0.2342684E+03  0.7818608E-02  0.1123671E+00
         -2   -1    0    0    0  501 -0.00000000000E+00  0.00000000000E+00  0.80564376036E+01  0.80564380071E+01  0.25500000000E-02 0. -1.
          2   -1    0    0  501    0  0.00000000000E+00 -0.00000000000E+00 -0.17030377271E+04  0.17030377271E+04  0.25500000000E-02 0.  1.
    5000001    1    1    2    0    0  0.85763566783E+02  0.96254655039E+01 -0.98283708490E+03  0.98961900469E+03  0.77000000000E+02 0.  0.
   -5000001    1    1    2    0    0 -0.85763566783E+02 -0.96254655039E+01 -0.71214420464E+03  0.72147516047E+03  0.77000000000E+02 0.  0.
<mgrwt>
<rscale>  0 0.23426837E+03</rscale>
<asrwt>0</asrwt>
<pdfrwt beam="1">  1        2 0.24329087E+00 0.23426837E+03</pdfrwt>
<pdfrwt beam="2">  1       -2 0.11509208E-02 0.23426837E+03</pdfrwt>
<totfact> 0.21305437E+04</totfact>
</mgrwt>
</event>
<event>
 4    1  0.1308644E-003  0.3410908E+03  0.7818608E-02  0.1066332E+00
          2   -1    0    0  501    0  0.00000000000E+00  0.00000000000E+00  0.30654435953E+02  0.30654436059E+02  0.25500000000E-02 0.  1.
         -2   -1    0    0    0  501 -0.00000000000E+00 -0.00000000000E+00 -0.94882640338E+03  0.94882640339E+03  0.25500000000E-02 0. -1.
    5000001    1    1    2    0    0 -0.13871302846E+03 -0.34246472577E+02 -0.60947225026E+03  0.63071352371E+03  0.77000000000E+02 0.  0.
   -5000001    1    1    2    0    0  0.13871302846E+03  0.34246472577E+02 -0.30869971717E+03  0.34876731574E+03  0.77000000000E+02 0.  0.
<mgrwt>
<rscale>  0 0.34109083E+03</rscale>
<asrwt>0</asrwt>
<pdfrwt beam="1">  1        2 0.43792057E-02 0.34109083E+03</pdfrwt>
<pdfrwt beam="2">  1       -2 0.13554661E+00 0.34109083E+03</pdfrwt>
<totfact> 0.77530903E+02</totfact>
</mgrwt>
</event>
<event>
 4    1  0.1308644E-003  0.4215417E+03  0.7818608E-02  0.1036566E+00
         -2   -1    0    0    0  501 -0.00000000000E+00  0.00000000000E+00  0.30591493530E+02  0.30591493636E+02  0.25500000000E-02 0. -1.
          2   -1    0    0  501    0  0.00000000000E+00 -0.00000000000E+00 -0.14521795895E+04  0.14521795895E+04  0.25500000000E-02 0.  1.
    5000001    1    1    2    0    0 -0.11137169350E+03 -0.48864883178E+02 -0.12523503543E+04  0.12605958277E+04  0.77000000000E+02 0.  0.
   -5000001    1    1    2    0    0  0.11137169350E+03  0.48864883178E+02 -0.16923774168E+03  0.22217525544E+03  0.77000000000E+02 0.  0.
<mgrwt>
<rscale>  0 0.42154166E+03</rscale>
<asrwt>0</asrwt>
<pdfrwt beam="1">  1        2 0.20745418E+00 0.42154166E+03</pdfrwt>
<pdfrwt beam="2">  1       -2 0.43702143E-02 0.42154166E+03</pdfrwt>
<totfact> 0.39769976E+03</totfact>
</mgrwt>
</event>
<event>
 4    1  0.1308644E-003  0.2616875E+03  0.7818608E-02  0.1106134E+00
         -2   -1    0    0    0  501 -0.00000000000E+00  0.00000000000E+00  0.35382792392E+01  0.35382801581E+01  0.25500000000E-02 0. -1.
          2   -1    0    0  501    0  0.00000000000E+00 -0.00000000000E+00 -0.48385330047E+04  0.48385330047E+04  0.25500000000E-02 0.  1.
    5000001    1    1    2    0    0  0.19567586425E+02  0.10262641483E+03 -0.27249030881E+04  0.27279921024E+04  0.77000000000E+02 0.  0.
   -5000001    1    1    2    0    0 -0.19567586425E+02 -0.10262641483E+03 -0.21100916374E+04  0.21140791825E+04  0.77000000000E+02 0.  0.
<mgrwt>
<rscale>  0 0.26168747E+03</rscale>
<asrwt>0</asrwt>
<pdfrwt beam="1">  1        2 0.69121476E+00 0.26168747E+03</pdfrwt>
<pdfrwt beam="2">  1       -2 0.50547163E-03 0.26168747E+03</pdfrwt>
<totfact> 0.98958172E+02</totfact>
</mgrwt>
</event>
<event>
 4    1  0.1308644E-003  0.6714216E+03  0.7818608E-02  0.9767393E-01
          2   -1    0    0  501    0  0.00000000000E+00  0.00000000000E+00  0.28686043434E+03  0.28686043435E+03  0.25500000000E-02 0.  1.
         -2   -1    0    0    0  501 -0.00000000000E+00 -0.00000000000E+00 -0.39287999194E+03  0.39287999195E+03  0.25500000000E-02 0. -1.
    5000001    1    1    2    0    0 -0.27304886771E+03  0.16554032459E+03  0.17228795798E+02  0.32891505686E+03  0.77000000000E+02 0.  0.
   -5000001    1    1    2    0    0  0.27304886771E+03 -0.16554032459E+03 -0.12324835340E+03  0.35082536944E+03  0.77000000000E+02 0.  0.
<mgrwt>
<rscale>  0 0.67142155E+03</rscale>
<asrwt>0</asrwt>
<pdfrwt beam="1">  1        2 0.40980062E-01 0.67142155E+03</pdfrwt>
<pdfrwt beam="2">  1       -2 0.56125713E-01 0.67142155E+03</pdfrwt>
<totfact> 0.37690760E+02</totfact>
</mgrwt>
</event>
<event>
 4    1  0.1308644E-003  0.1117289E+04  0.7818608E-02  0.9188503E-01
          2   -1    0    0  501    0  0.00000000000E+00  0.00000000000E+00  0.10577614167E+04  0.10577614167E+04  0.25500000000E-02 0.  1.
         -2   -1    0    0    0  501 -0.00000000000E+00 -0.00000000000E+00 -0.29504154813E+03  0.29504154814E+03  0.25500000000E-02 0. -1.
    5000001    1    1    2    0    0 -0.19092443295E+03  0.47404258258E+03  0.12455222070E+03  0.53161147926E+03  0.77000000000E+02 0.  0.
   -5000001    1    1    2    0    0  0.19092443295E+03 -0.47404258258E+03  0.63816764782E+03  0.82119148554E+03  0.77000000000E+02 0.  0.
<mgrwt>
<rscale>  0 0.11172888E+04</rscale>
<asrwt>0</asrwt>
<pdfrwt beam="1">  1        2 0.15110878E+00 0.11172888E+04</pdfrwt>
<pdfrwt beam="2">  1       -2 0.42148792E-01 0.11172888E+04</pdfrwt>
<totfact> 0.13688903E+02</totfact>
</mgrwt>
</event>
<event>
 4    1  0.1308644E-003  0.4170183E+03  0.7818608E-02  0.1038041E+00
         -2   -1    0    0    0  501 -0.00000000000E+00  0.00000000000E+00  0.29242813131E+03  0.29242813132E+03  0.25500000000E-02 0. -1.
          2   -1    0    0  501    0  0.00000000000E+00 -0.00000000000E+00 -0.14867262680E+03  0.14867262682E+03  0.25500000000E-02 0.  1.
    5000001    1    1    2    0    0  0.10348922180E+03 -0.15023290679E+03  0.14097325880E+03  0.24306872487E+03  0.77000000000E+02 0.  0.
   -5000001    1    1    2    0    0 -0.10348922180E+03  0.15023290679E+03  0.27822457076E+01  0.19803203328E+03  0.77000000000E+02 0.  0.
<mgrwt>
<rscale>  0 0.41701827E+03</rscale>
<asrwt>0</asrwt>
<pdfrwt beam="1">  1        2 0.21238947E-01 0.41701827E+03</pdfrwt>
<pdfrwt beam="2">  1       -2 0.41775447E-01 0.41701827E+03</pdfrwt>
<totfact> 0.14309636E+03</totfact>
</mgrwt>
</event>
<event>
 4    1  0.1308644E-003  0.4213793E+03  0.7818608E-02  0.1036618E+00
          2   -1    0    0  501    0  0.00000000000E+00  0.00000000000E+00  0.12243249763E+04  0.12243249763E+04  0.25500000000E-02 0.  1.
         -2   -1    0    0    0  501 -0.00000000000E+00 -0.00000000000E+00 -0.36256813115E+02  0.36256813205E+02  0.25500000000E-02 0. -1.
    5000001    1    1    2    0    0 -0.13251645937E+03  0.13803541424E+03  0.46547579507E+03  0.50912778689E+03  0.77000000000E+02 0.  0.
   -5000001    1    1    2    0    0  0.13251645937E+03 -0.13803541424E+03  0.72259236807E+03  0.75145400257E+03  0.77000000000E+02 0.  0.
<mgrwt>
<rscale>  0 0.42137927E+03</rscale>
<asrwt>0</asrwt>
<pdfrwt beam="1">  1        2 0.17490356E+00 0.42137927E+03</pdfrwt>
<pdfrwt beam="2">  1       -2 0.51795450E-02 0.42137927E+03</pdfrwt>
<totfact> 0.40507737E+03</totfact>
</mgrwt>
</event>
<event>
 4    1  0.1308644E-003  0.3436397E+03  0.7818608E-02  0.1065256E+00
         -2   -1    0    0    0  501 -0.00000000000E+00  0.00000000000E+00  0.15150692332E+04  0.15150692332E+04  0.25500000000E-02 0. -1.
          2   -1    0    0  501    0  0.00000000000E+00 -0.00000000000E+00 -0.19485620503E+02  0.19485620670E+02  0.25500000000E-02 0.  1.
    5000001    1    1    2    0    0 -0.92681099619E+02  0.55460188885E+02  0.26009177795E+03  0.29196292870E+03  0.77000000000E+02 0.  0.
   -5000001    1    1    2    0    0  0.92681099619E+02 -0.55460188885E+02  0.12354918347E+04  0.12425919251E+04  0.77000000000E+02 0.  0.
<mgrwt>
<rscale>  0 0.34363972E+03</rscale>
<asrwt>0</asrwt>
<pdfrwt beam="1">  1        2 0.27836608E-02 0.34363972E+03</pdfrwt>
<pdfrwt beam="2">  1       -2 0.21643841E+00 0.34363972E+03</pdfrwt>
<totfact> 0.39629080E+02</totfact>
</mgrwt>
</event>
<event>
 4    1  0.1308644E-003  0.2902244E+03  0.7818608E-02  0.1090232E+00
          2   -1    0    0  501    0  0.00000000000E+00  0.00000000000E+00  0.24630017964E+02  0.24630018096E+02  0.25500000000E-02 0. -1.
         -2   -1    0    0    0  501 -0.00000000000E+00 -0.00000000000E+00 -0.85495500055E+03  0.85495500055E+03  0.25500000000E-02 0.  1.
    5000001    1    1    2    0    0  0.41634106851E+02  0.10980304005E+03 -0.30428458613E+03  0.33512417970E+03  0.77000000000E+02 0.  0.
   -5000001    1    1    2    0    0 -0.41634106851E+02 -0.10980304005E+03 -0.52604039645E+03  0.54446083895E+03  0.77000000000E+02 0.  0.
<mgrwt>
<rscale>  0 0.29022444E+03</rscale>
<asrwt>0</asrwt>
<pdfrwt beam="1">  1        2 0.35185745E-02 0.29022444E+03</pdfrwt>
<pdfrwt beam="2">  1       -2 0.12213641E+00 0.29022444E+03</pdfrwt>
<totfact> 0.13438495E+03</totfact>
</mgrwt>
</event>
<event>
 4    1  0.1308644E-003  0.1912745E+03  0.7818608E-02  0.1157317E+00
          2   -1    0    0  501    0  0.00000000000E+00  0.00000000000E+00  0.70134685463E+03  0.70134685464E+03  0.25500000000E-02 0.  1.
         -2   -1    0    0    0  501 -0.00000000000E+00 -0.00000000000E+00 -0.13041315694E+02  0.13041315943E+02  0.25500000000E-02 0. -1.
    5000001    1    1    2    0    0  0.65386674239E+01 -0.55454208985E+02  0.30688574377E+03  0.32128769537E+03  0.77000000000E+02 0.  0.
   -5000001    1    1    2    0    0 -0.65386674239E+01  0.55454208985E+02  0.38141979517E+03  0.39310047521E+03  0.77000000000E+02 0.  0.
<mgrwt>
<rscale>  0 0.19127452E+03</rscale>
<asrwt>0</asrwt>
<pdfrwt beam="1">  1        2 0.10019245E+00 0.19127452E+03</pdfrwt>
<pdfrwt beam="2">  1       -2 0.18630443E-02 0.19127452E+03</pdfrwt>
<totfact> 0.37958382E+04</totfact>
</mgrwt>
</event>
<event>
 4    1  0.1308644E-003  0.3427426E+03  0.7818608E-02  0.1065634E+00
          2   -1    0    0  501    0  0.00000000000E+00  0.00000000000E+00  0.15796609252E+03  0.15796609254E+03  0.25500000000E-02 0.  1.
         -2   -1    0    0    0  501 -0.00000000000E+00 -0.00000000000E+00 -0.18591409455E+03  0.18591409456E+03  0.25500000000E-02 0. -1.
    5000001    1    1    2    0    0 -0.13654847842E+03  0.90527143601E+01  0.54895535874E+02  0.16634289421E+03  0.77000000000E+02 0.  0.
   -5000001    1    1    2    0    0  0.13654847842E+03 -0.90527143601E+01 -0.82843537901E+02  0.17753729289E+03  0.77000000000E+02 0.  0.
<mgrwt>
<rscale>  0 0.34274260E+03</rscale>
<asrwt>0</asrwt>
<pdfrwt beam="1">  1        2 0.22566585E-01 0.34274260E+03</pdfrwt>
<pdfrwt beam="2">  1       -2 0.26559156E-01 0.34274260E+03</pdfrwt>
<totfact> 0.30944908E+03</totfact>
</mgrwt>
</event>
<event>
 4    1  0.1308644E-003  0.1804204E+03  0.7818608E-02  0.1167397E+00
         -2   -1    0    0    0  501 -0.00000000000E+00  0.00000000000E+00  0.14628656918E+02  0.14628657140E+02  0.25500000000E-02 0. -1.
          2   -1    0    0  501    0  0.00000000000E+00 -0.00000000000E+00 -0.55629724735E+03  0.55629724735E+03  0.25500000000E-02 0.  1.
    5000001    1    1    2    0    0 -0.12247828991E+02 -0.30732333320E+02 -0.16519783414E+03  0.18523987160E+03  0.77000000000E+02 0.  0.
   -5000001    1    1    2    0    0  0.12247828991E+02  0.30732333320E+02 -0.37647075629E+03  0.38568603290E+03  0.77000000000E+02 0.  0.
<mgrwt>
<rscale>  0 0.18042042E+03</rscale>
<asrwt>0</asrwt>
<pdfrwt beam="1">  1        2 0.79471022E-01 0.18042042E+03</pdfrwt>
<pdfrwt beam="2">  1       -2 0.20898085E-02 0.18042042E+03</pdfrwt>
<totfact> 0.41603292E+04</totfact>
</mgrwt>
</event>
<event>
 4    1  0.1308644E-003  0.2479008E+03  0.7818608E-02  0.1114639E+00
          2   -1    0    0  501    0  0.00000000000E+00  0.00000000000E+00  0.51083788954E+03  0.51083788954E+03  0.25500000000E-02 0.  1.
         -2   -1    0    0    0  501 -0.00000000000E+00 -0.00000000000E+00 -0.30075495483E+02  0.30075495591E+02  0.25500000000E-02 0. -1.
    5000001    1    1    2    0    0 -0.87906235304E+02 -0.35441589780E+02  0.19403848221E+03  0.22926740952E+03  0.77000000000E+02 0.  0.
   -5000001    1    1    2    0    0  0.87906235304E+02  0.35441589780E+02  0.28672391185E+03  0.31164597561E+03  0.77000000000E+02 0.  0.
<mgrwt>
<rscale>  0 0.24790081E+03</rscale>
<asrwt>0</asrwt>
<pdfrwt beam="1">  1        2 0.72976842E-01 0.24790081E+03</pdfrwt>
<pdfrwt beam="2">  1       -2 0.42964993E-02 0.24790081E+03</pdfrwt>
<totfact> 0.16079399E+04</totfact>
</mgrwt>
</event>
<event>
 4    1  0.1308644E-003  0.3625989E+03  0.7818608E-02  0.1057560E+00
          2   -1    0    0  501    0  0.00000000000E+00  0.00000000000E+00  0.34315290531E+03  0.34315290532E+03  0.25500000000E-02 0.  1.
         -2   -1    0    0    0  501 -0.00000000000E+00 -0.00000000000E+00 -0.95786702575E+02  0.95786702609E+02  0.25500000000E-02 0. -1.
    5000001    1    1    2    0    0 -0.58617108463E+02 -0.11473625165E+03  0.58794772348E+00  0.15009902907E+03  0.77000000000E+02 0.  0.
   -5000001    1    1    2    0    0  0.58617108463E+02  0.11473625165E+03  0.24677825501E+03  0.28884057886E+03  0.77000000000E+02 0.  0.
<mgrwt>
<rscale>  0 0.36259887E+03</rscale>
<asrwt>0</asrwt>
<pdfrwt beam="1">  1        2 0.49021845E-01 0.36259887E+03</pdfrwt>
<pdfrwt beam="2">  1       -2 0.13683814E-01 0.36259887E+03</pdfrwt>
<totfact> 0.41011152E+03</totfact>
</mgrwt>
</event>
<event>
 4    1  0.1308644E-003  0.1966661E+03  0.7818608E-02  0.1152583E+00
          2   -1    0    0  501    0  0.00000000000E+00  0.00000000000E+00  0.21553078071E+03  0.21553078073E+03  0.25500000000E-02 0.  1.
         -2   -1    0    0    0  501 -0.00000000000E+00 -0.00000000000E+00 -0.44863153245E+02  0.44863153318E+02  0.25500000000E-02 0. -1.
    5000001    1    1    2    0    0 -0.34942150612E+02 -0.36718398909E+02  0.40021518436E+02  0.10049834151E+03  0.77000000000E+02 0.  0.
   -5000001    1    1    2    0    0  0.34942150612E+02  0.36718398909E+02  0.13064610903E+03  0.15989559254E+03  0.77000000000E+02 0.  0.
<mgrwt>
<rscale>  0 0.19666612E+03</rscale>
<asrwt>0</asrwt>
<pdfrwt beam="1">  1        2 0.30790111E-01 0.19666612E+03</pdfrwt>
<pdfrwt beam="2">  1       -2 0.64090219E-02 0.19666612E+03</pdfrwt>
<totfact> 0.21906730E+04</totfact>
</mgrwt>
</event>
<event>
 4    1  0.1308644E-003  0.2432487E+03  0.7818608E-02  0.1117647E+00
         -2   -1    0    0    0  501 -0.00000000000E+00  0.00000000000E+00  0.21495569556E+03  0.21495569557E+03  0.25500000000E-02 0. -1.
          2   -1    0    0  501    0  0.00000000000E+00 -0.00000000000E+00 -0.68816432380E+02  0.68816432427E+02  0.25500000000E-02 0.  1.
    5000001    1    1    2    0    0 -0.74633666320E+01  0.68512315951E+02  0.14789401357E+03  0.18041972877E+03  0.77000000000E+02 0.  0.
   -5000001    1    1    2    0    0  0.74633666320E+01 -0.68512315951E+02 -0.17547503914E+01  0.10335239923E+03  0.77000000000E+02 0.  0.
<mgrwt>
<rscale>  0 0.24324871E+03</rscale>
<asrwt>0</asrwt>
<pdfrwt beam="1">  1        2 0.98309191E-02 0.24324871E+03</pdfrwt>
<pdfrwt beam="2">  1       -2 0.30707956E-01 0.24324871E+03</pdfrwt>
<totfact> 0.63213422E+03</totfact>
</mgrwt>
</event>
<event>
 4    1  0.1308644E-003  0.2654464E+03  0.7818608E-02  0.1103914E+00
         -2   -1    0    0    0  501 -0.00000000000E+00  0.00000000000E+00  0.25686215951E+02  0.25686216077E+02  0.25500000000E-02 0. -1.
          2   -1    0    0  501    0  0.00000000000E+00 -0.00000000000E+00 -0.68579382204E+03  0.68579382205E+03  0.25500000000E-02 0.  1.
    5000001    1    1    2    0    0 -0.72733816933E+02 -0.45231639904E+01 -0.54407292310E+03  0.55430588378E+03  0.77000000000E+02 0.  0.
   -5000001    1    1    2    0    0  0.72733816933E+02  0.45231639904E+01 -0.11603468299E+03  0.15717415435E+03  0.77000000000E+02 0.  0.
<mgrwt>
<rscale>  0 0.26544640E+03</rscale>
<asrwt>0</asrwt>
<pdfrwt beam="1">  1        2 0.97970535E-01 0.26544640E+03</pdfrwt>
<pdfrwt beam="2">  1       -2 0.36694599E-02 0.26544640E+03</pdfrwt>
<totfact> 0.14621870E+04</totfact>
</mgrwt>
</event>
<event>
 4    1  0.1308644E-003  0.2228311E+03  0.7818608E-02  0.1131790E+00
         -2   -1    0    0    0  501 -0.00000000000E+00  0.00000000000E+00  0.24478868364E+03  0.24478868365E+03  0.25500000000E-02 0. -1.
          2   -1    0    0  501    0  0.00000000000E+00 -0.00000000000E+00 -0.50710756025E+02  0.50710756090E+02  0.25500000000E-02 0.  1.
    5000001    1    1    2    0    0  0.55544433395E+02 -0.52131238493E+02  0.62418258861E+02  0.12501155605E+03  0.77000000000E+02 0.  0.
   -5000001    1    1    2    0    0 -0.55544433395E+02  0.52131238493E+02  0.13165966875E+03  0.17048788369E+03  0.77000000000E+02 0.  0.
<mgrwt>
<rscale>  0 0.22283105E+03</rscale>
<asrwt>0</asrwt>
<pdfrwt beam="1">  1        2 0.72443937E-02 0.22283105E+03</pdfrwt>
<pdfrwt beam="2">  1       -2 0.34969812E-01 0.22283105E+03</pdfrwt>
<totfact> 0.72809980E+03</totfact>
</mgrwt>
</event>
<event>
 4    1  0.1308644E-003  0.2720179E+03  0.7818608E-02  0.1100130E+00
          2   -1    0    0  501    0  0.00000000000E+00  0.00000000000E+00  0.10709340972E+04  0.10709340972E+04  0.25500000000E-02 0.  1.
         -2   -1    0    0    0  501 -0.00000000000E+00 -0.00000000000E+00 -0.17273183412E+02  0.17273183600E+02  0.25500000000E-02 0. -1.
    5000001    1    1    2    0    0  0.71468105729E+02  0.62718620397E+02  0.28920876143E+03  0.31402551356E+03  0.77000000000E+02 0.  0.
   -5000001    1    1    2    0    0 -0.71468105729E+02 -0.62718620397E+02  0.76445215238E+03  0.77418176726E+03  0.77000000000E+02 0.  0.
<mgrwt>
<rscale>  0 0.27201795E+03</rscale>
<asrwt>0</asrwt>
<pdfrwt beam="1">  1        2 0.15299059E+00 0.27201795E+03</pdfrwt>
<pdfrwt beam="2">  1       -2 0.24675976E-02 0.27201795E+03</pdfrwt>
<totfact> 0.14950463E+04</totfact>
</mgrwt>
</event>
<event>
 4    1  0.1308644E-003  0.2459165E+03  0.7818608E-02  0.1115913E+00
          2   -1    0    0  501    0  0.00000000000E+00  0.00000000000E+00  0.63718693050E+03  0.63718693050E+03  0.25500000000E-02 0.  1.
         -2   -1    0    0    0  501 -0.00000000000E+00 -0.00000000000E+00 -0.23727301050E+02  0.23727301187E+02  0.25500000000E-02 0. -1.
    5000001    1    1    2    0    0  0.97187924096E+01  0.92965039288E+02  0.24954277290E+03  0.27737618673E+03  0.77000000000E+02 0.  0.
   -5000001    1    1    2    0    0 -0.97187924096E+01 -0.92965039288E+02  0.36391685654E+03  0.38353804496E+03  0.77000000000E+02 0.  0.
<mgrwt>
<rscale>  0 0.24591646E+03</rscale>
<asrwt>0</asrwt>
<pdfrwt beam="1">  1        2 0.91026701E-01 0.24591646E+03</pdfrwt>
<pdfrwt beam="2">  1       -2 0.33896146E-02 0.24591646E+03</pdfrwt>
<totfact> 0.17868248E+04</totfact>
</mgrwt>
</event>
<event>
 4    1  0.1308644E-003  0.2066166E+03  0.7818608E-02  0.1144274E+00
          2   -1    0    0  501    0  0.00000000000E+00  0.00000000000E+00  0.85994959801E+01  0.85994963582E+01  0.25500000000E-02 0.  1.
         -2   -1    0    0    0  501 -0.00000000000E+00 -0.00000000000E+00 -0.12410737282E+04  0.12410737282E+04  0.25500000000E-02 0. -1.
    5000001    1    1    2    0    0 -0.50577023176E+02 -0.25360923729E+02 -0.37870121013E+03  0.39056986351E+03  0.77000000000E+02 0.  0.
   -5000001    1    1    2    0    0  0.50577023176E+02  0.25360923729E+02 -0.85377302205E+03  0.85910336101E+03  0.77000000000E+02 0.  0.
<mgrwt>
<rscale>  0 0.20661664E+03</rscale>
<asrwt>0</asrwt>
<pdfrwt beam="1">  1        2 0.12285002E-02 0.20661664E+03</pdfrwt>
<pdfrwt beam="2">  1       -2 0.17729613E+00 0.20661664E+03</pdfrwt>
<totfact> 0.21608442E+03</totfact>
</mgrwt>
</event>
<event>
 4    1  0.1308644E-003  0.2838053E+03  0.7818608E-02  0.1093629E+00
         -2   -1    0    0    0  501 -0.00000000000E+00  0.00000000000E+00  0.79489173958E+01  0.79489178048E+01  0.25500000000E-02 0. -1.
          2   -1    0    0  501    0  0.00000000000E+00 -0.00000000000E+00 -0.25332200401E+04  0.25332200401E+04  0.25500000000E-02 0.  1.
    5000001    1    1    2    0    0  0.81362144921E+02 -0.86420219810E+02 -0.11649170376E+04  0.11734772932E+04  0.77000000000E+02 0.  0.
   -5000001    1    1    2    0    0 -0.81362144921E+02  0.86420219810E+02 -0.13603540851E+04  0.13676916647E+04  0.77000000000E+02 0.  0.
<mgrwt>
<rscale>  0 0.28380527E+03</rscale>
<asrwt>0</asrwt>
<pdfrwt beam="1">  1        2 0.36188806E+00 0.28380527E+03</pdfrwt>
<pdfrwt beam="2">  1       -2 0.11355613E-02 0.28380527E+03</pdfrwt>
<totfact> 0.85525996E+03</totfact>
</mgrwt>
</event>
<event>
 4    1  0.1308644E-003  0.3398501E+03  0.7818608E-02  0.1066860E+00
         -2   -1    0    0    0  501 -0.00000000000E+00  0.00000000000E+00  0.49246052368E+02  0.49246052434E+02  0.25500000000E-02 0. -1.
          2   -1    0    0  501    0  0.00000000000E+00 -0.00000000000E+00 -0.58633177452E+03  0.58633177453E+03  0.25500000000E-02 0.  1.
    5000001    1    1    2    0    0 -0.13339817857E+03 -0.37086900498E+02 -0.15363743301E+03  0.22068976654E+03  0.77000000000E+02 0.  0.
   -5000001    1    1    2    0    0  0.13339817857E+03  0.37086900498E+02 -0.38344828914E+03  0.41488806042E+03  0.77000000000E+02 0.  0.
<mgrwt>
<rscale>  0 0.33985012E+03</rscale>
<asrwt>0</asrwt>
<pdfrwt beam="1">  1        2 0.83761678E-01 0.33985012E+03</pdfrwt>
<pdfrwt beam="2">  1       -2 0.70351507E-02 0.33985012E+03</pdfrwt>
<totfact> 0.65561062E+03</totfact>
</mgrwt>
</event>
<event>
 4    1  0.1308644E-003  0.2128921E+03  0.7818608E-02  0.1139296E+00
          2   -1    0    0  501    0  0.00000000000E+00  0.00000000000E+00  0.60399857142E+03  0.60399857142E+03  0.25500000000E-02 0.  1.
         -2   -1    0    0    0  501 -0.00000000000E+00 -0.00000000000E+00 -0.18759582416E+02  0.18759582589E+02  0.25500000000E-02 0. -1.
    5000001    1    1    2    0    0 -0.24996544108E+02  0.13673548692E+02  0.94437264841E+02  0.12513668584E+03  0.77000000000E+02 0.  0.
   -5000001    1    1    2    0    0  0.24996544108E+02 -0.13673548692E+02  0.49080172416E+03  0.49762146818E+03  0.77000000000E+02 0.  0.
<mgrwt>
<rscale>  0 0.21289210E+03</rscale>
<asrwt>0</asrwt>
<pdfrwt beam="1">  1        2 0.86285501E-01 0.21289210E+03</pdfrwt>
<pdfrwt beam="2">  1       -2 0.26799406E-02 0.21289210E+03</pdfrwt>
<totfact> 0.26676655E+04</totfact>
</mgrwt>
</event>
<event>
 4    1  0.1308644E-003  0.5081245E+03  0.7818608E-02  0.1011680E+00
          2   -1    0    0  501    0  0.00000000000E+00  0.00000000000E+00  0.17536815016E+04  0.17536815016E+04  0.25500000000E-02 0.  1.
         -2   -1    0    0    0  501 -0.00000000000E+00 -0.00000000000E+00 -0.36806933847E+02  0.36806933935E+02  0.25500000000E-02 0. -1.
    5000001    1    1    2    0    0  0.23530852074E+03 -0.44035866003E+02  0.73093015346E+03  0.77297939602E+03  0.77000000000E+02 0.  0.
   -5000001    1    1    2    0    0 -0.23530852074E+03  0.44035866003E+02  0.98594441426E+03  0.10175090395E+04  0.77000000000E+02 0.  0.
<mgrwt>
<rscale>  0 0.50812455E+03</rscale>
<asrwt>0</asrwt>
<pdfrwt beam="1">  1        2 0.25052588E+00 0.50812455E+03</pdfrwt>
<pdfrwt beam="2">  1       -2 0.52581345E-02 0.50812455E+03</pdfrwt>
<totfact> 0.20975871E+03</totfact>
</mgrwt>
</event>
<event>
 4    1  0.1308644E-003  0.3909150E+03  0.7818608E-02  0.1046972E+00
         -2   -1    0    0    0  501 -0.00000000000E+00  0.00000000000E+00  0.17258849294E+03  0.17258849296E+03  0.25500000000E-02 0.  1.
          2   -1    0    0  501    0  0.00000000000E+00 -0.00000000000E+00 -0.22135682845E+03  0.22135682846E+03  0.25500000000E-02 0. -1.
    5000001    1    1    2    0    0 -0.58868487120E+01  0.10184080744E+03 -0.17341030239E+03  0.21542130355E+03  0.77000000000E+02 0.  0.
   -5000001    1    1    2    0    0  0.58868487120E+01 -0.10184080744E+03  0.12464196689E+03  0.17852401787E+03  0.77000000000E+02 0.  0.
<mgrwt>
<rscale>  0 0.39091504E+03</rscale>
<asrwt>0</asrwt>
<pdfrwt beam="1">  1        2 0.31622404E-01 0.39091504E+03</pdfrwt>
<pdfrwt beam="2">  1       -2 0.24655499E-01 0.39091504E+03</pdfrwt>
<totfact> 0.24272150E+03</totfact>
</mgrwt>
</event>
<event>
 4    1  0.1308644E-003  0.1871526E+03  0.7818608E-02  0.1161055E+00
          2   -1    0    0  501    0  0.00000000000E+00  0.00000000000E+00  0.31149319633E+03  0.31149319634E+03  0.25500000000E-02 0.  1.
         -2   -1    0    0    0  501 -0.00000000000E+00 -0.00000000000E+00 -0.28111459775E+02  0.28111459891E+02  0.25500000000E-02 0. -1.
    5000001    1    1    2    0    0 -0.40482235392E+02  0.34324611800E+02  0.14758146491E+03  0.17471771273E+03  0.77000000000E+02 0.  0.
   -5000001    1    1    2    0    0  0.40482235392E+02 -0.34324611800E+02  0.13580027165E+03  0.16488694350E+03  0.77000000000E+02 0.  0.
<mgrwt>
<rscale>  0 0.18715265E+03</rscale>
<asrwt>0</asrwt>
<pdfrwt beam="1">  1        2 0.44499028E-01 0.18715265E+03</pdfrwt>
<pdfrwt beam="2">  1       -2 0.40159228E-02 0.18715265E+03</pdfrwt>
<totfact> 0.29764161E+04</totfact>
</mgrwt>
</event>
<event>
 4    1  0.1308644E-003  0.5794695E+03  0.7818608E-02  0.9948940E-01
          2   -1    0    0  501    0  0.00000000000E+00  0.00000000000E+00  0.81849356419E+03  0.81849356419E+03  0.25500000000E-02 0.  1.
         -2   -1    0    0    0  501 -0.00000000000E+00 -0.00000000000E+00 -0.10256186112E+03  0.10256186115E+03  0.25500000000E-02 0. -1.
    5000001    1    1    2    0    0 -0.25571817263E+03 -0.82167702793E+02  0.23614580491E+03  0.36583760929E+03  0.77000000000E+02 0.  0.
   -5000001    1    1    2    0    0  0.25571817263E+03  0.82167702793E+02  0.47978589816E+03  0.55521781606E+03  0.77000000000E+02 0.  0.
<mgrwt>
<rscale>  0 0.57946949E+03</rscale>
<asrwt>0</asrwt>
<pdfrwt beam="1">  1        2 0.11692765E+00 0.57946949E+03</pdfrwt>
<pdfrwt beam="2">  1       -2 0.14651694E-01 0.57946949E+03</pdfrwt>
<totfact> 0.13478561E+03</totfact>
</mgrwt>
</event>
<event>
 4    1  0.1308644E-003  0.1846323E+03  0.7818608E-02  0.1163394E+00
          2   -1    0    0  501    0  0.00000000000E+00  0.00000000000E+00  0.45861450357E+03  0.45861450358E+03  0.25500000000E-02 0.  1.
         -2   -1    0    0    0  501 -0.00000000000E+00 -0.00000000000E+00 -0.18582647658E+02  0.18582647833E+02  0.25500000000E-02 0. -1.
    5000001    1    1    2    0    0  0.16085451907E+02  0.22698336085E+02  0.10977466683E+03  0.13694317691E+03  0.77000000000E+02 0.  0.
   -5000001    1    1    2    0    0 -0.16085451907E+02 -0.22698336085E+02  0.33025718908E+03  0.34025397450E+03  0.77000000000E+02 0.  0.
<mgrwt>
<rscale>  0 0.18463230E+03</rscale>
<asrwt>0</asrwt>
<pdfrwt beam="1">  1        2 0.65516360E-01 0.18463230E+03</pdfrwt>
<pdfrwt beam="2">  1       -2 0.26546639E-02 0.18463230E+03</pdfrwt>
<totfact> 0.36280413E+04</totfact>
</mgrwt>
</event>
<event>
 4    1  0.1308644E-003  0.2324921E+03  0.7818608E-02  0.1124898E+00
          2   -1    0    0  501    0  0.00000000000E+00  0.00000000000E+00  0.43738788634E+03  0.43738788635E+03  0.25500000000E-02 0.  1.
         -2   -1    0    0    0  501 -0.00000000000E+00 -0.00000000000E+00 -0.30895108181E+02  0.30895108286E+02  0.25500000000E-02 0. -1.
    5000001    1    1    2    0    0 -0.81749871354E+02 -0.18315153027E+00  0.26370799540E+03  0.28662515914E+03  0.77000000000E+02 0.  0.
   -5000001    1    1    2    0    0  0.81749871354E+02  0.18315153027E+00  0.14278478276E+03  0.18165783550E+03  0.77000000000E+02 0.  0.
<mgrwt>
<rscale>  0 0.23249212E+03</rscale>
<asrwt>0</asrwt>
<pdfrwt beam="1">  1        2 0.62483977E-01 0.23249212E+03</pdfrwt>
<pdfrwt beam="2">  1       -2 0.44135873E-02 0.23249212E+03</pdfrwt>
<totfact> 0.18234659E+04</totfact>
</mgrwt>
</event>
<event>
 4    1  0.1308644E-003  0.2082290E+03  0.7818608E-02  0.1142976E+00
         -2   -1    0    0    0  501 -0.00000000000E+00  0.00000000000E+00  0.10073635310E+02  0.10073635633E+02  0.25500000000E-02 0. -1.
          2   -1    0    0  501    0  0.00000000000E+00 -0.00000000000E+00 -0.10760588897E+04  0.10760588897E+04  0.25500000000E-02 0.  1.
    5000001    1    1    2    0    0  0.40025758436E+02  0.55780229017E+02 -0.60626460837E+03  0.61497908147E+03  0.77000000000E+02 0.  0.
   -5000001    1    1    2    0    0 -0.40025758436E+02 -0.55780229017E+02 -0.45972064602E+03  0.47115344387E+03  0.77000000000E+02 0.  0.
<mgrwt>
<rscale>  0 0.20822896E+03</rscale>
<asrwt>0</asrwt>
<pdfrwt beam="1">  1        2 0.15372263E+00 0.20822896E+03</pdfrwt>
<pdfrwt beam="2">  1       -2 0.14390915E-02 0.20822896E+03</pdfrwt>
<totfact> 0.32271183E+04</totfact>
</mgrwt>
</event>
<event>
 4    1  0.1308644E-003  0.2611858E+03  0.7818608E-02  0.1106433E+00
         -2   -1    0    0    0  501 -0.00000000000E+00  0.00000000000E+00  0.90181343261E+01  0.90181346866E+01  0.25500000000E-02 0. -1.
          2   -1    0    0  501    0  0.00000000000E+00 -0.00000000000E+00 -0.18911350778E+04  0.18911350778E+04  0.25500000000E-02 0.  1.
    5000001    1    1    2    0    0 -0.97650866885E+02 -0.12476673187E+02 -0.66554903131E+03  0.67718230356E+03  0.77000000000E+02 0.  0.
   -5000001    1    1    2    0    0  0.97650866885E+02  0.12476673187E+02 -0.12165679121E+04  0.12229709089E+04  0.77000000000E+02 0.  0.
<mgrwt>
<rscale>  0 0.26118584E+03</rscale>
<asrwt>0</asrwt>
<pdfrwt beam="1">  1        2 0.27016190E+00 0.26118584E+03</pdfrwt>
<pdfrwt beam="2">  1       -2 0.12883061E-02 0.26118584E+03</pdfrwt>
<totfact> 0.14691356E+04</totfact>
</mgrwt>
</event>
<event>
 4    1  0.1308644E-003  0.2824875E+03  0.7818608E-02  0.1094338E+00
          2   -1    0    0  501    0  0.00000000000E+00  0.00000000000E+00  0.74922320967E+03  0.74922320967E+03  0.25500000000E-02 0.  1.
         -2   -1    0    0    0  501 -0.00000000000E+00 -0.00000000000E+00 -0.26627302107E+02  0.26627302229E+02  0.25500000000E-02 0. -1.
    5000001    1    1    2    0    0 -0.12459966540E+02  0.11747676654E+03  0.38339851467E+03  0.40850882793E+03  0.77000000000E+02 0.  0.
   -5000001    1    1    2    0    0  0.12459966540E+02 -0.11747676654E+03  0.33919739288E+03  0.36734168397E+03  0.77000000000E+02 0.  0.
<mgrwt>
<rscale>  0 0.28248747E+03</rscale>
<asrwt>0</asrwt>
<pdfrwt beam="1">  1        2 0.10703187E+00 0.28248747E+03</pdfrwt>
<pdfrwt beam="2">  1       -2 0.38039009E-02 0.28248747E+03</pdfrwt>
<totfact> 0.12496801E+04</totfact>
</mgrwt>
</event>
<event>
 4    1  0.1308644E-003  0.4341514E+03  0.7818608E-02  0.1032557E+00
         -2   -1    0    0    0  501 -0.00000000000E+00  0.00000000000E+00  0.33139309872E+02  0.33139309970E+02  0.25500000000E-02 0. -1.
          2   -1    0    0  501    0  0.00000000000E+00 -0.00000000000E+00 -0.14219323251E+04  0.14219323251E+04  0.25500000000E-02 0.  1.
    5000001    1    1    2    0    0  0.43595883891E+02 -0.81440185186E+02 -0.13000854161E+04  0.13056355518E+04  0.77000000000E+02 0.  0.
   -5000001    1    1    2    0    0 -0.43595883891E+02  0.81440185186E+02 -0.88707599142E+02  0.14943608333E+03  0.77000000000E+02 0.  0.
<mgrwt>
<rscale>  0 0.43415138E+03</rscale>
<asrwt>0</asrwt>
<pdfrwt beam="1">  1        2 0.20313315E+00 0.43415138E+03</pdfrwt>
<pdfrwt beam="2">  1       -2 0.47341880E-02 0.43415138E+03</pdfrwt>
<totfact> 0.36482002E+03</totfact>
</mgrwt>
</event>
<event>
 4    1  0.1308644E-003  0.1762078E+03  0.7818608E-02  0.1171524E+00
          2   -1    0    0  501    0  0.00000000000E+00  0.00000000000E+00  0.46139976928E+02  0.46139976999E+02  0.25500000000E-02 0.  1.
         -2   -1    0    0    0  501 -0.00000000000E+00 -0.00000000000E+00 -0.16823372625E+03  0.16823372626E+03  0.25500000000E-02 0. -1.
    5000001    1    1    2    0    0  0.27019076658E+02 -0.23166986446E+02 -0.90004933037E+02  0.12367953645E+03  0.77000000000E+02 0.  0.
   -5000001    1    1    2    0    0 -0.27019076658E+02  0.23166986446E+02 -0.32088816280E+02  0.90694166817E+02  0.77000000000E+02 0.  0.
<mgrwt>
<rscale>  0 0.17620783E+03</rscale>
<asrwt>0</asrwt>
<pdfrwt beam="1">  1        2 0.65914254E-02 0.17620783E+03</pdfrwt>
<pdfrwt beam="2">  1       -2 0.24033389E-01 0.17620783E+03</pdfrwt>
<totfact> 0.15866338E+04</totfact>
</mgrwt>
</event>
<event>
 4    1  0.1308644E-003  0.1879290E+03  0.7818608E-02  0.1160343E+00
          2   -1    0    0  501    0  0.00000000000E+00  0.00000000000E+00  0.74896534017E+03  0.74896534017E+03  0.25500000000E-02 0.  1.
         -2   -1    0    0    0  501 -0.00000000000E+00 -0.00000000000E+00 -0.11788694606E+02  0.11788694882E+02  0.25500000000E-02 0. -1.
    5000001    1    1    2    0    0  0.12718089600E+02  0.52087540794E+02  0.34816166363E+03  0.36058342410E+03  0.77000000000E+02 0.  0.
   -5000001    1    1    2    0    0 -0.12718089600E+02 -0.52087540794E+02  0.38901498193E+03  0.40017061096E+03  0.77000000000E+02 0.  0.
<mgrwt>
<rscale>  0 0.18792896E+03</rscale>
<asrwt>0</asrwt>
<pdfrwt beam="1">  1        2 0.10699506E+00 0.18792896E+03</pdfrwt>
<pdfrwt beam="2">  1       -2 0.16840991E-02 0.18792896E+03</pdfrwt>
<totfact> 0.40615884E+04</totfact>
</mgrwt>
</event>
<event>
 4    1  0.1308644E-003  0.2001600E+03  0.7818608E-02  0.1149604E+00
         -2   -1    0    0    0  501 -0.00000000000E+00  0.00000000000E+00  0.61205692868E+02  0.61205692921E+02  0.25500000000E-02 0. -1.
          2   -1    0    0  501    0  0.00000000000E+00 -0.00000000000E+00 -0.16364505742E+03  0.16364505744E+03  0.25500000000E-02 0.  1.
    5000001    1    1    2    0    0 -0.53939135800E+02  0.34246982108E+02 -0.53661003504E+02  0.11353761250E+03  0.77000000000E+02 0.  0.
   -5000001    1    1    2    0    0  0.53939135800E+02 -0.34246982108E+02 -0.48778361046E+02  0.11131313786E+03  0.77000000000E+02 0.  0.
<mgrwt>
<rscale>  0 0.20016003E+03</rscale>
<asrwt>0</asrwt>
<pdfrwt beam="1">  1        2 0.23377865E-01 0.20016003E+03</pdfrwt>
<pdfrwt beam="2">  1       -2 0.87436705E-02 0.20016003E+03</pdfrwt>
<totfact> 0.18379482E+04</totfact>
</mgrwt>
</event>
<event>
 4    1  0.1308644E-003  0.2422605E+03  0.7818608E-02  0.1118296E+00
          2   -1    0    0  501    0  0.00000000000E+00  0.00000000000E+00  0.10796976887E+03  0.10796976890E+03  0.25500000000E-02 0.  1.
         -2   -1    0    0    0  501 -0.00000000000E+00 -0.00000000000E+00 -0.13589482325E+03  0.13589482328E+03  0.25500000000E-02 0. -1.
    5000001    1    1    2    0    0  0.25211041490E+02 -0.73537908932E+02  0.38344146024E+02  0.11594263322E+03  0.77000000000E+02 0.  0.
   -5000001    1    1    2    0    0 -0.25211041490E+02  0.73537908932E+02 -0.66269200404E+02  0.12792195896E+03  0.77000000000E+02 0.  0.
<mgrwt>
<rscale>  0 0.24226046E+03</rscale>
<asrwt>0</asrwt>
<pdfrwt beam="1">  1        2 0.15424253E-01 0.24226046E+03</pdfrwt>
<pdfrwt beam="2">  1       -2 0.19413546E-01 0.24226046E+03</pdfrwt>
<totfact> 0.81985567E+03</totfact>
</mgrwt>
</event>
<event>
 4    1  0.1308644E-003  0.4947670E+03  0.7818608E-02  0.1015154E+00
          2   -1    0    0  501    0  0.00000000000E+00  0.00000000000E+00  0.42376224516E+03  0.42376224517E+03  0.25500000000E-02 0.  1.
         -2   -1    0    0    0  501 -0.00000000000E+00 -0.00000000000E+00 -0.14441731051E+03  0.14441731054E+03  0.25500000000E-02 0. -1.
    5000001    1    1    2    0    0 -0.22064858966E+03 -0.48122378537E+02  0.21469627582E+03  0.32097516148E+03  0.77000000000E+02 0.  0.
   -5000001    1    1    2    0    0  0.22064858966E+03  0.48122378537E+02  0.64648658830E+02  0.24720439423E+03  0.77000000000E+02 0.  0.
<mgrwt>
<rscale>  0 0.49476703E+03</rscale>
<asrwt>0</asrwt>
<pdfrwt beam="1">  1        2 0.60537464E-01 0.49476703E+03</pdfrwt>
<pdfrwt beam="2">  1       -2 0.20631044E-01 0.49476703E+03</pdfrwt>
<totfact> 0.16311322E+03</totfact>
</mgrwt>
</event>
<event>
 4    1  0.1308644E-003  0.2329140E+03  0.7818608E-02  0.1124605E+00
         -2   -1    0    0    0  501 -0.00000000000E+00  0.00000000000E+00  0.40154251638E+03  0.40154251638E+03  0.25500000000E-02 0. -1.
          2   -1    0    0  501    0  0.00000000000E+00 -0.00000000000E+00 -0.33775346025E+02  0.33775346122E+02  0.25500000000E-02 0.  1.
    5000001    1    1    2    0    0  0.31679414730E+02 -0.45654466949E+02  0.57877030325E+02  0.11120551384E+03  0.77000000000E+02 0.  0.
   -5000001    1    1    2    0    0 -0.31679414730E+02  0.45654466949E+02  0.30989014002E+03  0.32411234866E+03  0.77000000000E+02 0.  0.
<mgrwt>
<rscale>  0 0.23291404E+03</rscale>
<asrwt>0</asrwt>
<pdfrwt beam="1">  1        2 0.48250497E-02 0.23291404E+03</pdfrwt>
<pdfrwt beam="2">  1       -2 0.57363213E-01 0.23291404E+03</pdfrwt>
<totfact> 0.47197736E+03</totfact>
</mgrwt>
</event>
<event>
 4    1  0.1308644E-003  0.3263027E+03  0.7818608E-02  0.1072785E+00
         -2   -1    0    0    0  501 -0.00000000000E+00  0.00000000000E+00  0.11302099246E+02  0.11302099533E+02  0.25500000000E-02 0.  1.
          2   -1    0    0  501    0  0.00000000000E+00 -0.00000000000E+00 -0.23551694194E+04  0.23551694194E+04  0.25500000000E-02 0. -1.
    5000001    1    1    2    0    0  0.12925171980E+03 -0.12877103931E+01 -0.16295637439E+04  0.16364946259E+04  0.77000000000E+02 0.  0.
   -5000001    1    1    2    0    0 -0.12925171980E+03  0.12877103931E+01 -0.71430357624E+03  0.72997689299E+03  0.77000000000E+02 0.  0.
<mgrwt>
<rscale>  0 0.32630267E+03</rscale>
<asrwt>0</asrwt>
<pdfrwt beam="1">  1        2 0.33645246E+00 0.32630267E+03</pdfrwt>
<pdfrwt beam="2">  1       -2 0.16145871E-02 0.32630267E+03</pdfrwt>
<totfact> 0.62681840E+03</totfact>
</mgrwt>
</event>
<event>
 4    1  0.1308644E-003  0.1411775E+04  0.7818608E-02  0.8945339E-01
          2   -1    0    0  501    0  0.00000000000E+00  0.00000000000E+00  0.15702913814E+04  0.15702913814E+04  0.25500000000E-02 0.  1.
         -2   -1    0    0    0  501 -0.00000000000E+00 -0.00000000000E+00 -0.31731505015E+03  0.31731505016E+03  0.25500000000E-02 0. -1.
    5000001    1    1    2    0    0 -0.49382637253E+02 -0.67831691190E+03  0.85728090330E+03  0.10970013788E+04  0.77000000000E+02 0.  0.
   -5000001    1    1    2    0    0  0.49382637253E+02  0.67831691190E+03  0.39569542796E+03  0.79060505282E+03  0.77000000000E+02 0.  0.
<mgrwt>
<rscale>  0 0.14117749E+04</rscale>
<asrwt>0</asrwt>
<pdfrwt beam="1">  1        2 0.22432734E+00 0.14117749E+04</pdfrwt>
<pdfrwt beam="2">  1       -2 0.45330721E-01 0.14117749E+04</pdfrwt>
<totfact> 0.60250586E+01</totfact>
</mgrwt>
</event>
<event>
 4    1  0.1308644E-003  0.4781950E+03  0.7818608E-02  0.1019632E+00
         -2   -1    0    0    0  501 -0.00000000000E+00  0.00000000000E+00  0.37613523945E+02  0.37613524031E+02  0.25500000000E-02 0. -1.
          2   -1    0    0  501    0  0.00000000000E+00 -0.00000000000E+00 -0.15198684124E+04  0.15198684124E+04  0.25500000000E-02 0.  1.
    5000001    1    1    2    0    0 -0.86931068802E+01 -0.13937977760E+03 -0.13213522097E+04  0.13309406277E+04  0.77000000000E+02 0.  0.
   -5000001    1    1    2    0    0  0.86931068802E+01  0.13937977760E+03 -0.16090267877E+03  0.22654130869E+03  0.77000000000E+02 0.  0.
<mgrwt>
<rscale>  0 0.47819497E+03</rscale>
<asrwt>0</asrwt>
<pdfrwt beam="1">  1        2 0.21712402E+00 0.47819497E+03</pdfrwt>
<pdfrwt beam="2">  1       -2 0.53733615E-02 0.47819497E+03</pdfrwt>
<totfact> 0.26689795E+03</totfact>
</mgrwt>
</event>
<event>
 4    1  0.1308644E-003  0.2029486E+03  0.7818608E-02  0.1147275E+00
         -2   -1    0    0    0  501 -0.00000000000E+00  0.00000000000E+00  0.22044231438E+01  0.22044246187E+01  0.25500000000E-02 0. -1.
          2   -1    0    0  501    0  0.00000000000E+00 -0.00000000000E+00 -0.46710776902E+04  0.46710776902E+04  0.25500000000E-02 0.  1.
    5000001    1    1    2    0    0 -0.45675519578E+02 -0.13495897699E+02 -0.33895730695E+04  0.33907820611E+04  0.77000000000E+02 0.  0.
   -5000001    1    1    2    0    0  0.45675519578E+02  0.13495897699E+02 -0.12793001975E+04  0.12825000537E+04  0.77000000000E+02 0.  0.
<mgrwt>
<rscale>  0 0.20294862E+03</rscale>
<asrwt>0</asrwt>
<pdfrwt beam="1">  1        2 0.66729047E+00 0.20294862E+03</pdfrwt>
<pdfrwt beam="2">  1       -2 0.31492069E-03 0.20294862E+03</pdfrwt>
<totfact> 0.27173984E+03</totfact>
</mgrwt>
</event>
<event>
 4    1  0.1308644E-003  0.4460869E+03  0.7818608E-02  0.1028895E+00
         -2   -1    0    0    0  501 -0.00000000000E+00  0.00000000000E+00  0.69466005081E+02  0.69466005128E+02  0.25500000000E-02 0. -1.
          2   -1    0    0  501    0  0.00000000000E+00 -0.00000000000E+00 -0.71615449307E+03  0.71615449307E+03  0.25500000000E-02 0.  1.
    5000001    1    1    2    0    0 -0.97505993218E+02 -0.12317196979E+03 -0.56699709779E+03  0.59337463862E+03  0.77000000000E+02 0.  0.
   -5000001    1    1    2    0    0  0.97505993218E+02  0.12317196979E+03 -0.79691390198E+02  0.19224585958E+03  0.77000000000E+02 0.  0.
<mgrwt>
<rscale>  0 0.44608695E+03</rscale>
<asrwt>0</asrwt>
<pdfrwt beam="1">  1        2 0.10230778E+00 0.44608695E+03</pdfrwt>
<pdfrwt beam="2">  1       -2 0.99237154E-02 0.44608695E+03</pdfrwt>
<totfact> 0.30193658E+03</totfact>
</mgrwt>
</event>
<event>
 4    1  0.1308644E-003  0.4354645E+03  0.7818608E-02  0.1032148E+00
         -2   -1    0    0    0  501 -0.00000000000E+00  0.00000000000E+00  0.36966878494E+02  0.36966878582E+02  0.25500000000E-02 0. -1.
          2   -1    0    0  501    0  0.00000000000E+00 -0.00000000000E+00 -0.12824269712E+04  0.12824269712E+04  0.25500000000E-02 0.  1.
    5000001    1    1    2    0    0 -0.12669734454E+03  0.15942615284E+03 -0.63202274306E+03  0.66846889462E+03  0.77000000000E+02 0.  0.
   -5000001    1    1    2    0    0  0.12669734454E+03 -0.15942615284E+03 -0.61343734964E+03  0.65092495517E+03  0.77000000000E+02 0.  0.
<mgrwt>
<rscale>  0 0.43546445E+03</rscale>
<asrwt>0</asrwt>
<pdfrwt beam="1">  1        2 0.18320383E+00 0.43546445E+03</pdfrwt>
<pdfrwt beam="2">  1       -2 0.52809834E-02 0.43546445E+03</pdfrwt>
<totfact> 0.36559824E+03</totfact>
</mgrwt>
</event>
<event>
 4    1  0.1308644E-003  0.2813148E+03  0.7818608E-02  0.1094973E+00
          2   -1    0    0  501    0  0.00000000000E+00  0.00000000000E+00  0.19685447825E+04  0.19685447825E+04  0.25500000000E-02 0.  1.
         -2   -1    0    0    0  501 -0.00000000000E+00 -0.00000000000E+00 -0.10050318020E+02  0.10050318344E+02  0.25500000000E-02 0. -1.
    5000001    1    1    2    0    0 -0.87276731258E+02 -0.19137360465E+02  0.15182099170E+04  0.15227848891E+04  0.77000000000E+02 0.  0.
   -5000001    1    1    2    0    0  0.87276731258E+02  0.19137360465E+02  0.44028454746E+03  0.45581021173E+03  0.77000000000E+02 0.  0.
<mgrwt>
<rscale>  0 0.28131478E+03</rscale>
<asrwt>0</asrwt>
<pdfrwt beam="1">  1        2 0.28122076E+00 0.28131478E+03</pdfrwt>
<pdfrwt beam="2">  1       -2 0.14357594E-02 0.28131478E+03</pdfrwt>
<totfact> 0.11517004E+04</totfact>
</mgrwt>
</event>
<event>
 4    1  0.1308644E-003  0.2816809E+03  0.7818608E-02  0.1094774E+00
         -2   -1    0    0    0  501 -0.00000000000E+00  0.00000000000E+00  0.28329722415E+02  0.28329722530E+02  0.25500000000E-02 0. -1.
          2   -1    0    0  501    0  0.00000000000E+00 -0.00000000000E+00 -0.70018473073E+03  0.70018473073E+03  0.25500000000E-02 0.  1.
    5000001    1    1    2    0    0  0.33170410500E+02  0.85054604950E+02 -0.52899308096E+03  0.54230733138E+03  0.77000000000E+02 0.  0.
   -5000001    1    1    2    0    0 -0.33170410500E+02 -0.85054604950E+02 -0.14286192735E+03  0.18620712189E+03  0.77000000000E+02 0.  0.
<mgrwt>
<rscale>  0 0.28168095E+03</rscale>
<asrwt>0</asrwt>
<pdfrwt beam="1">  1        2 0.10002638E+00 0.28168095E+03</pdfrwt>
<pdfrwt beam="2">  1       -2 0.40471036E-02 0.28168095E+03</pdfrwt>
<totfact> 0.12346743E+04</totfact>
</mgrwt>
</event>
<event>
 4    1  0.1308644E-003  0.2837977E+03  0.7818608E-02  0.1093633E+00
         -2   -1    0    0    0  501 -0.00000000000E+00  0.00000000000E+00  0.61698857647E+03  0.61698857648E+03  0.25500000000E-02 0. -1.
          2   -1    0    0  501    0  0.00000000000E+00 -0.00000000000E+00 -0.32634779074E+02  0.32634779173E+02  0.25500000000E-02 0.  1.
    5000001    1    1    2    0    0  0.49993946688E+02 -0.57794394040E+02  0.82799493679E+02  0.13647103297E+03  0.77000000000E+02 0.  0.
   -5000001    1    1    2    0    0 -0.49993946688E+02  0.57794394040E+02  0.50155430372E+03  0.51315232267E+03  0.77000000000E+02 0.  0.
<mgrwt>
<rscale>  0 0.28379772E+03</rscale>
<asrwt>0</asrwt>
<pdfrwt beam="1">  1        2 0.46621111E-02 0.28379772E+03</pdfrwt>
<pdfrwt beam="2">  1       -2 0.88141229E-01 0.28379772E+03</pdfrwt>
<totfact> 0.19784084E+03</totfact>
</mgrwt>
</event>
<event>
 4    1  0.1308644E-003  0.2262629E+03  0.7818608E-02  0.1129298E+00
          2   -1    0    0  501    0  0.00000000000E+00  0.00000000000E+00  0.35216218657E+04  0.35216218657E+04  0.25500000000E-02 0.  1.
         -2   -1    0    0    0  501 -0.00000000000E+00 -0.00000000000E+00 -0.36343259414E+01  0.36343268360E+01  0.25500000000E-02 0. -1.
    5000001    1    1    2    0    0  0.39124280023E+02 -0.48317943426E+02  0.90499834896E+03  0.91039351084E+03  0.77000000000E+02 0.  0.
   -5000001    1    1    2    0    0 -0.39124280023E+02  0.48317943426E+02  0.26129891908E+04  0.26148626817E+04  0.77000000000E+02 0.  0.
<mgrwt>
<rscale>  0 0.22626288E+03</rscale>
<asrwt>0</asrwt>
<pdfrwt beam="1">  1        2 0.50308772E+00 0.22626288E+03</pdfrwt>
<pdfrwt beam="2">  1       -2 0.51919063E-03 0.22626288E+03</pdfrwt>
<totfact> 0.78623904E+03</totfact>
</mgrwt>
</event>
<event>
 4    1  0.1308644E-003  0.7962061E+03  0.7818608E-02  0.9565525E-01
         -2   -1    0    0    0  501 -0.00000000000E+00  0.00000000000E+00  0.20938704662E+03  0.20938704663E+03  0.25500000000E-02 0. -1.
          2   -1    0    0  501    0  0.00000000000E+00 -0.00000000000E+00 -0.75690474716E+03  0.75690474717E+03  0.25500000000E-02 0.  1.
    5000001    1    1    2    0    0 -0.17399476495E+02  0.22651277957E+03  0.11183305694E+03  0.26466283025E+03  0.77000000000E+02 0.  0.
   -5000001    1    1    2    0    0  0.17399476495E+02 -0.22651277957E+03 -0.65935075749E+03  0.70162896355E+03  0.77000000000E+02 0.  0.
<mgrwt>
<rscale>  0 0.79620613E+03</rscale>
<asrwt>0</asrwt>
<pdfrwt beam="1">  1        2 0.10812925E+00 0.79620613E+03</pdfrwt>
<pdfrwt beam="2">  1       -2 0.29912436E-01 0.79620613E+03</pdfrwt>
<totfact> 0.42184612E+02</totfact>
</mgrwt>
</event>
<event>
 4    1  0.1308644E-003  0.2731625E+03  0.7818608E-02  0.1099483E+00
         -2   -1    0    0    0  501 -0.00000000000E+00  0.00000000000E+00  0.52929868482E+01  0.52929874624E+01  0.25500000000E-02 0. -1.
          2   -1    0    0  501    0  0.00000000000E+00 -0.00000000000E+00 -0.35243693762E+04  0.35243693762E+04  0.25500000000E-02 0.  1.
    5000001    1    1    2    0    0  0.70980241865E+02 -0.71622439024E+02 -0.24129960697E+04  0.24163292410E+04  0.77000000000E+02 0.  0.
   -5000001    1    1    2    0    0 -0.70980241865E+02  0.71622439024E+02 -0.11060803197E+04  0.11133331227E+04  0.77000000000E+02 0.  0.
<mgrwt>
<rscale>  0 0.27316253E+03</rscale>
<asrwt>0</asrwt>
<pdfrwt beam="1">  1        2 0.50347984E+00 0.27316253E+03</pdfrwt>
<pdfrwt beam="2">  1       -2 0.75614328E-03 0.27316253E+03</pdfrwt>
<totfact> 0.45459071E+03</totfact>
</mgrwt>
</event>
<event>
 4    1  0.1308644E-003  0.2143875E+03  0.7818608E-02  0.1138138E+00
          2   -1    0    0  501    0  0.00000000000E+00  0.00000000000E+00  0.30608426871E+03  0.30608426872E+03  0.25500000000E-02 0.  1.
         -2   -1    0    0    0  501 -0.00000000000E+00 -0.00000000000E+00 -0.37540325121E+02  0.37540325208E+02  0.25500000000E-02 0. -1.
    5000001    1    1    2    0    0  0.42957064924E+02  0.49152227213E+02  0.19206806836E+03  0.21698016902E+03  0.77000000000E+02 0.  0.
   -5000001    1    1    2    0    0 -0.42957064924E+02 -0.49152227213E+02  0.76475875228E+02  0.12664442490E+03  0.77000000000E+02 0.  0.
<mgrwt>
<rscale>  0 0.21438753E+03</rscale>
<asrwt>0</asrwt>
<pdfrwt beam="1">  1        2 0.43726324E-01 0.21438753E+03</pdfrwt>
<pdfrwt beam="2">  1       -2 0.53629036E-02 0.21438753E+03</pdfrwt>
<totfact> 0.19823426E+04</totfact>
</mgrwt>
</event>
<event>
 4    1  0.1308644E-003  0.1700036E+03  0.7818608E-02  0.1177844E+00
         -2   -1    0    0    0  501 -0.00000000000E+00  0.00000000000E+00  0.20261865516E+01  0.20261881562E+01  0.25500000000E-02 0. -1.
          2   -1    0    0  501    0  0.00000000000E+00 -0.00000000000E+00 -0.35659615233E+04  0.35659615233E+04  0.25500000000E-02 0.  1.
    5000001    1    1    2    0    0 -0.33441996446E+02 -0.89122781819E+01 -0.15736596023E+04  0.15759223775E+04  0.77000000000E+02 0.  0.
   -5000001    1    1    2    0    0  0.33441996446E+02  0.89122781819E+01 -0.19902757344E+04  0.19920653340E+04  0.77000000000E+02 0.  0.
<mgrwt>
<rscale>  0 0.17000360E+03</rscale>
<asrwt>0</asrwt>
<pdfrwt beam="1">  1        2 0.50941905E+00 0.17000360E+03</pdfrwt>
<pdfrwt beam="2">  1       -2 0.28945762E-03 0.17000360E+03</pdfrwt>
<totfact> 0.17007969E+04</totfact>
</mgrwt>
</event>
<event>
 4    1  0.1308644E-003  0.1797580E+03  0.7818608E-02  0.1168037E+00
          2   -1    0    0  501    0  0.00000000000E+00  0.00000000000E+00  0.17443273304E+04  0.17443273304E+04  0.25500000000E-02 0.  1.
         -2   -1    0    0    0  501 -0.00000000000E+00 -0.00000000000E+00 -0.46311458194E+01  0.46311465214E+01  0.25500000000E-02 0. -1.
    5000001    1    1    2    0    0  0.24742789765E+02 -0.38323285228E+02  0.78940728500E+03  0.79446443687E+03  0.77000000000E+02 0.  0.
   -5000001    1    1    2    0    0 -0.24742789765E+02  0.38323285228E+02  0.95028889960E+03  0.95449404007E+03  0.77000000000E+02 0.  0.
<mgrwt>
<rscale>  0 0.17975800E+03</rscale>
<asrwt>0</asrwt>
<pdfrwt beam="1">  1        2 0.24918990E+00 0.17975800E+03</pdfrwt>
<pdfrwt beam="2">  1       -2 0.66159155E-03 0.17975800E+03</pdfrwt>
<totfact> 0.44502232E+04</totfact>
</mgrwt>
</event>
<event>
 4    1  0.1308644E-003  0.2211381E+03  0.7818608E-02  0.1133037E+00
         -2   -1    0    0    0  501 -0.00000000000E+00  0.00000000000E+00  0.54659783031E+03  0.54659783032E+03  0.25500000000E-02 0. -1.
          2   -1    0    0  501    0  0.00000000000E+00 -0.00000000000E+00 -0.22366553159E+02  0.22366553304E+02  0.25500000000E-02 0.  1.
    5000001    1    1    2    0    0  0.54368907439E+02  0.56038684463E+02  0.22571151148E+03  0.25094022927E+03  0.77000000000E+02 0.  0.
   -5000001    1    1    2    0    0 -0.54368907439E+02 -0.56038684463E+02  0.29851976568E+03  0.31802415435E+03  0.77000000000E+02 0.  0.
<mgrwt>
<rscale>  0 0.22113805E+03</rscale>
<asrwt>0</asrwt>
<pdfrwt beam="1">  1        2 0.31952217E-02 0.22113805E+03</pdfrwt>
<pdfrwt beam="2">  1       -2 0.78085410E-01 0.22113805E+03</pdfrwt>
<totfact> 0.42529183E+03</totfact>
</mgrwt>
</event>
<event>
 4    1  0.1308644E-003  0.5041068E+03  0.7818608E-02  0.1012713E+00
         -2   -1    0    0    0  501 -0.00000000000E+00  0.00000000000E+00  0.21396145354E+03  0.21396145355E+03  0.25500000000E-02 0. -1.
          2   -1    0    0  501    0  0.00000000000E+00 -0.00000000000E+00 -0.29692687759E+03  0.29692687760E+03  0.25500000000E-02 0.  1.
    5000001    1    1    2    0    0  0.16307106264E+03 -0.15671670426E+03 -0.12287254764E+03  0.26866142229E+03  0.77000000000E+02 0.  0.
   -5000001    1    1    2    0    0 -0.16307106264E+03  0.15671670426E+03  0.39907123591E+02  0.24222690886E+03  0.77000000000E+02 0.  0.
<mgrwt>
<rscale>  0 0.50410676E+03</rscale>
<asrwt>0</asrwt>
<pdfrwt beam="1">  1        2 0.42418125E-01 0.50410676E+03</pdfrwt>
<pdfrwt beam="2">  1       -2 0.30565922E-01 0.50410676E+03</pdfrwt>
<totfact> 0.11933960E+03</totfact>
</mgrwt>
</event>
<event>
 4    1  0.1308644E-003  0.4649626E+03  0.7818608E-02  0.1023352E+00
         -2   -1    0    0    0  501 -0.00000000000E+00  0.00000000000E+00  0.63900787465E+02  0.63900787516E+02  0.25500000000E-02 0. -1.
          2   -1    0    0  501    0  0.00000000000E+00 -0.00000000000E+00 -0.84580405234E+03  0.84580405235E+03  0.25500000000E-02 0.  1.
    5000001    1    1    2    0    0  0.19658712490E+02 -0.21027056910E+03 -0.50700376961E+03  0.55460075695E+03  0.77000000000E+02 0.  0.
   -5000001    1    1    2    0    0 -0.19658712490E+02  0.21027056910E+03 -0.27489949527E+03  0.35510408292E+03  0.77000000000E+02 0.  0.
<mgrwt>
<rscale>  0 0.46496256E+03</rscale>
<asrwt>0</asrwt>
<pdfrwt beam="1">  1        2 0.12082914E+00 0.46496256E+03</pdfrwt>
<pdfrwt beam="2">  1       -2 0.91286844E-02 0.46496256E+03</pdfrwt>
<totfact> 0.28032226E+03</totfact>
</mgrwt>
</event>
<event>
 4    1  0.1308644E-003  0.3806465E+03  0.7818608E-02  0.1050695E+00
         -2   -1    0    0    0  501 -0.00000000000E+00  0.00000000000E+00  0.23361777479E+03  0.23361777480E+03  0.25500000000E-02 0. -1.
          2   -1    0    0  501    0  0.00000000000E+00 -0.00000000000E+00 -0.15505214605E+03  0.15505214607E+03  0.25500000000E-02 0.  1.
    5000001    1    1    2    0    0  0.13172908061E+03 -0.10865941395E+03  0.48902245067E+01  0.18738285197E+03  0.77000000000E+02 0.  0.
   -5000001    1    1    2    0    0 -0.13172908061E+03  0.10865941395E+03  0.73675404233E+02  0.20128706890E+03  0.77000000000E+02 0.  0.
<mgrwt>
<rscale>  0 0.38064649E+03</rscale>
<asrwt>0</asrwt>
<pdfrwt beam="1">  1        2 0.22150306E-01 0.38064649E+03</pdfrwt>
<pdfrwt beam="2">  1       -2 0.33373968E-01 0.38064649E+03</pdfrwt>
<totfact> 0.20873854E+03</totfact>
</mgrwt>
</event>
<event>
 4    1  0.1308644E-003  0.2010507E+03  0.7818608E-02  0.1148856E+00
          2   -1    0    0  501    0  0.00000000000E+00  0.00000000000E+00  0.15226471808E+04  0.15226471808E+04  0.25500000000E-02 0.  1.
         -2   -1    0    0    0  501 -0.00000000000E+00 -0.00000000000E+00 -0.66366957829E+01  0.66366962728E+01  0.25500000000E-02 0. -1.
    5000001    1    1    2    0    0  0.20882125882E+01  0.48771805188E+02  0.10801185052E+04  0.10839594249E+04  0.77000000000E+02 0.  0.
   -5000001    1    1    2    0    0 -0.20882125882E+01 -0.48771805188E+02  0.43589197989E+03  0.44532445222E+03  0.77000000000E+02 0.  0.
<mgrwt>
<rscale>  0 0.20105071E+03</rscale>
<asrwt>0</asrwt>
<pdfrwt beam="1">  1        2 0.21752125E+00 0.20105071E+03</pdfrwt>
<pdfrwt beam="2">  1       -2 0.94809846E-03 0.20105071E+03</pdfrwt>
<totfact> 0.34339580E+04</totfact>
</mgrwt>
</event>
<event>
 4    1  0.1308644E-003  0.3460434E+03  0.7818608E-02  0.1064251E+00
         -2   -1    0    0    0  501 -0.00000000000E+00  0.00000000000E+00  0.20968610494E+02  0.20968610649E+02  0.25500000000E-02 0. -1.
          2   -1    0    0  501    0  0.00000000000E+00 -0.00000000000E+00 -0.14276819187E+04  0.14276819187E+04  0.25500000000E-02 0.  1.
    5000001    1    1    2    0    0  0.23633967826E+02 -0.12730441899E+03 -0.34708757769E+03  0.37836988003E+03  0.77000000000E+02 0.  0.
   -5000001    1    1    2    0    0 -0.23633967826E+02  0.12730441899E+03 -0.10596257305E+04  0.10702806493E+04  0.77000000000E+02 0.  0.
<mgrwt>
<rscale>  0 0.34604339E+03</rscale>
<asrwt>0</asrwt>
<pdfrwt beam="1">  1        2 0.20395450E+00 0.34604339E+03</pdfrwt>
<pdfrwt beam="2">  1       -2 0.29955167E-02 0.34604339E+03</pdfrwt>
<totfact> 0.72396477E+03</totfact>
</mgrwt>
</event>
<event>
 4    1  0.1308644E-003  0.2370410E+03  0.7818608E-02  0.1121780E+00
          2   -1    0    0  501    0  0.00000000000E+00  0.00000000000E+00  0.20429130473E+04  0.20429130473E+04  0.25500000000E-02 0.  1.
         -2   -1    0    0    0  501 -0.00000000000E+00 -0.00000000000E+00 -0.68760189803E+01  0.68760194531E+01  0.25500000000E-02 0. -1.
    5000001    1    1    2    0    0 -0.85779716916E+02 -0.18581797147E+02  0.11941086766E+04  0.11998033067E+04  0.77000000000E+02 0.  0.
   -5000001    1    1    2    0    0  0.85779716916E+02  0.18581797147E+02  0.84192835164E+03  0.84998576007E+03  0.77000000000E+02 0.  0.
<mgrwt>
<rscale>  0 0.23704100E+03</rscale>
<asrwt>0</asrwt>
<pdfrwt beam="1">  1        2 0.29184430E+00 0.23704100E+03</pdfrwt>
<pdfrwt beam="2">  1       -2 0.98228989E-03 0.23704100E+03</pdfrwt>
<totfact> 0.18326754E+04</totfact>
</mgrwt>
</event>
<event>
 4    1  0.1308644E-003  0.1805997E+03  0.7818608E-02  0.1167224E+00
          2   -1    0    0  501    0  0.00000000000E+00  0.00000000000E+00  0.74061448306E+02  0.74061448350E+02  0.25500000000E-02 0.  1.
         -2   -1    0    0    0  501 -0.00000000000E+00 -0.00000000000E+00 -0.11009855537E+03  0.11009855540E+03  0.25500000000E-02 0. -1.
    5000001    1    1    2    0    0 -0.33125802861E+02  0.22613724120E+02 -0.43334567635E+02  0.97033932652E+02  0.77000000000E+02 0.  0.
   -5000001    1    1    2    0    0  0.33125802861E+02 -0.22613724120E+02  0.72974605732E+01  0.87126071096E+02  0.77000000000E+02 0.  0.
<mgrwt>
<rscale>  0 0.18059965E+03</rscale>
<asrwt>0</asrwt>
<pdfrwt beam="1">  1        2 0.10580207E-01 0.18059965E+03</pdfrwt>
<pdfrwt beam="2">  1       -2 0.15728365E-01 0.18059965E+03</pdfrwt>
<totfact> 0.17996842E+04</totfact>
</mgrwt>
</event>
<event>
 4    1  0.1308644E-003  0.4115350E+03  0.7818608E-02  0.1039857E+00
         -2   -1    0    0    0  501 -0.00000000000E+00  0.00000000000E+00  0.43645293967E+02  0.43645294042E+02  0.25500000000E-02 0. -1.
          2   -1    0    0  501    0  0.00000000000E+00 -0.00000000000E+00 -0.97009921980E+03  0.97009921980E+03  0.25500000000E-02 0.  1.
    5000001    1    1    2    0    0  0.13159239206E+03  0.13764337469E+03 -0.49329662806E+03  0.53435271077E+03  0.77000000000E+02 0.  0.
   -5000001    1    1    2    0    0 -0.13159239206E+03 -0.13764337469E+03 -0.43315729777E+03  0.47939180308E+03  0.77000000000E+02 0.  0.
<mgrwt>
<rscale>  0 0.41153501E+03</rscale>
<asrwt>0</asrwt>
<pdfrwt beam="1">  1        2 0.13858559E+00 0.41153501E+03</pdfrwt>
<pdfrwt beam="2">  1       -2 0.62350426E-02 0.41153501E+03</pdfrwt>
<totfact> 0.42581478E+03</totfact>
</mgrwt>
</event>
<event>
 4    1  0.1308644E-003  0.2645553E+03  0.7818608E-02  0.1104437E+00
         -2   -1    0    0    0  501 -0.00000000000E+00  0.00000000000E+00  0.31079965354E+03  0.31079965356E+03  0.25500000000E-02 0. -1.
          2   -1    0    0  501    0  0.00000000000E+00 -0.00000000000E+00 -0.56297949347E+02  0.56297949405E+02  0.25500000000E-02 0.  1.
    5000001    1    1    2    0    0 -0.44875703086E+02 -0.91536522692E+02  0.79673706447E+02  0.15056448191E+03  0.77000000000E+02 0.  0.
   -5000001    1    1    2    0    0  0.44875703086E+02  0.91536522692E+02  0.17482799775E+03  0.21653312105E+03  0.77000000000E+02 0.  0.
<mgrwt>
<rscale>  0 0.26455535E+03</rscale>
<asrwt>0</asrwt>
<pdfrwt beam="1">  1        2 0.80425642E-02 0.26455535E+03</pdfrwt>
<pdfrwt beam="2">  1       -2 0.44399950E-01 0.26455535E+03</pdfrwt>
<totfact> 0.40798453E+03</totfact>
</mgrwt>
</event>
<event>
 4    1  0.1308644E-003  0.3176043E+03  0.7818608E-02  0.1076757E+00
          2   -1    0    0  501    0  0.00000000000E+00  0.00000000000E+00  0.38408802866E+02  0.38408802950E+02  0.25500000000E-02 0.  1.
         -2   -1    0    0    0  501 -0.00000000000E+00 -0.00000000000E+00 -0.65657130010E+03  0.65657130010E+03  0.25500000000E-02 0. -1.
    5000001    1    1    2    0    0 -0.45310541681E+02  0.32966169460E+02 -0.58715689092E+03  0.59482941090E+03  0.77000000000E+02 0.  0.
   -5000001    1    1    2    0    0  0.45310541681E+02 -0.32966169460E+02 -0.31005606314E+02  0.10015069216E+03  0.77000000000E+02 0.  0.
<mgrwt>
<rscale>  0 0.31760427E+03</rscale>
<asrwt>0</asrwt>
<pdfrwt beam="1">  1        2 0.54869722E-02 0.31760427E+03</pdfrwt>
<pdfrwt beam="2">  1       -2 0.93795893E-01 0.31760427E+03</pdfrwt>
<totfact> 0.13881495E+03</totfact>
</mgrwt>
</event>
<event>
 4    1  0.1308644E-003  0.2138320E+03  0.7818608E-02  0.1138567E+00
          2   -1    0    0  501    0  0.00000000000E+00  0.00000000000E+00  0.49485661675E+02  0.49485661741E+02  0.25500000000E-02 0.  1.
         -2   -1    0    0    0  501 -0.00000000000E+00 -0.00000000000E+00 -0.23099689679E+03  0.23099689681E+03  0.25500000000E-02 0. -1.
    5000001    1    1    2    0    0 -0.67289526539E+02 -0.22047707042E+02 -0.11973348247E+03  0.15899398917E+03  0.77000000000E+02 0.  0.
   -5000001    1    1    2    0    0  0.67289526539E+02  0.22047707042E+02 -0.61777752651E+02  0.12148856938E+03  0.77000000000E+02 0.  0.
<mgrwt>
<rscale>  0 0.21383203E+03</rscale>
<asrwt>0</asrwt>
<pdfrwt beam="1">  1        2 0.70693804E-02 0.21383203E+03</pdfrwt>
<pdfrwt beam="2">  1       -2 0.32999556E-01 0.21383203E+03</pdfrwt>
<totfact> 0.83419954E+03</totfact>
</mgrwt>
</event>
<event>
 4    1  0.1308644E-003  0.2160896E+03  0.7818608E-02  0.1136832E+00
          2   -1    0    0  501    0  0.00000000000E+00  0.00000000000E+00  0.61835992937E+02  0.61835992990E+02  0.25500000000E-02 0.  1.
         -2   -1    0    0    0  501 -0.00000000000E+00 -0.00000000000E+00 -0.18878449538E+03  0.18878449540E+03  0.25500000000E-02 0. -1.
    5000001    1    1    2    0    0 -0.47513638637E+02 -0.50961992780E+02 -0.98074502520E+02  0.14283654508E+03  0.77000000000E+02 0.  0.
   -5000001    1    1    2    0    0  0.47513638637E+02  0.50961992780E+02 -0.28873999926E+02  0.10778394331E+03  0.77000000000E+02 0.  0.
<mgrwt>
<rscale>  0 0.21608958E+03</rscale>
<asrwt>0</asrwt>
<pdfrwt beam="1">  1        2 0.88337134E-02 0.21608958E+03</pdfrwt>
<pdfrwt beam="2">  1       -2 0.26969213E-01 0.21608958E+03</pdfrwt>
<totfact> 0.90660628E+03</totfact>
</mgrwt>
</event>
<event>
 4    1  0.1308644E-003  0.2060688E+03  0.7818608E-02  0.1144717E+00
         -2   -1    0    0    0  501 -0.00000000000E+00  0.00000000000E+00  0.86300556161E+02  0.86300556198E+02  0.25500000000E-02 0. -1.
          2   -1    0    0  501    0  0.00000000000E+00 -0.00000000000E+00 -0.12301298711E+03  0.12301298713E+03  0.25500000000E-02 0.  1.
    5000001    1    1    2    0    0  0.47262405023E+02  0.49512881021E+02 -0.19729875473E+02  0.10489770399E+03  0.77000000000E+02 0.  0.
   -5000001    1    1    2    0    0 -0.47262405023E+02 -0.49512881021E+02 -0.16982555473E+02  0.10441583934E+03  0.77000000000E+02 0.  0.
<mgrwt>
<rscale>  0 0.20606882E+03</rscale>
<asrwt>0</asrwt>
<pdfrwt beam="1">  1        2 0.17573284E-01 0.20606882E+03</pdfrwt>
<pdfrwt beam="2">  1       -2 0.12328651E-01 0.20606882E+03</pdfrwt>
<totfact> 0.14770720E+04</totfact>
</mgrwt>
</event>
<event>
 4    1  0.1308644E-003  0.2310266E+03  0.7818608E-02  0.1125919E+00
         -2   -1    0    0    0  501 -0.00000000000E+00  0.00000000000E+00  0.19123315988E+03  0.19123315990E+03  0.25500000000E-02 0. -1.
          2   -1    0    0  501    0  0.00000000000E+00 -0.00000000000E+00 -0.69775173786E+02  0.69775173832E+02  0.25500000000E-02 0.  1.
    5000001    1    1    2    0    0 -0.25990800294E+02 -0.39859679526E+02 -0.20347770107E+02  0.92775791563E+02  0.77000000000E+02 0.  0.
   -5000001    1    1    2    0    0  0.25990800294E+02  0.39859679526E+02  0.14180575620E+03  0.16823254216E+03  0.77000000000E+02 0.  0.
<mgrwt>
<rscale>  0 0.23102664E+03</rscale>
<asrwt>0</asrwt>
<pdfrwt beam="1">  1        2 0.99678819E-02 0.23102664E+03</pdfrwt>
<pdfrwt beam="2">  1       -2 0.27319023E-01 0.23102664E+03</pdfrwt>
<totfact> 0.76517149E+03</totfact>
</mgrwt>
</event>
<event>
 4    1  0.1308644E-003  0.1871468E+03  0.7818608E-02  0.1161060E+00
          2   -1    0    0  501    0  0.00000000000E+00  0.00000000000E+00  0.23382964583E+03  0.23382964585E+03  0.25500000000E-02 0.  1.
         -2   -1    0    0    0  501 -0.00000000000E+00 -0.00000000000E+00 -0.37445986487E+02  0.37445986574E+02  0.25500000000E-02 0. -1.
    5000001    1    1    2    0    0  0.16123376571E+02  0.44434460544E+02  0.13347829590E+03  0.16118262943E+03  0.77000000000E+02 0.  0.
   -5000001    1    1    2    0    0 -0.16123376571E+02 -0.44434460544E+02  0.62905363450E+02  0.11009300299E+03  0.77000000000E+02 0.  0.
<mgrwt>
<rscale>  0 0.18714681E+03</rscale>
<asrwt>0</asrwt>
<pdfrwt beam="1">  1        2 0.33404236E-01 0.18714681E+03</pdfrwt>
<pdfrwt beam="2">  1       -2 0.53494265E-02 0.18714681E+03</pdfrwt>
<totfact> 0.26300711E+04</totfact>
</mgrwt>
</event>
<event>
 4    1  0.1308644E-003  0.2456706E+03  0.7818608E-02  0.1116072E+00
         -2   -1    0    0    0  501 -0.00000000000E+00  0.00000000000E+00  0.58380524320E+01  0.58380529889E+01  0.25500000000E-02 0. -1.
          2   -1    0    0  501    0  0.00000000000E+00 -0.00000000000E+00 -0.25845099039E+04  0.25845099039E+04  0.25500000000E-02 0.  1.
    5000001    1    1    2    0    0  0.55864866989E+02 -0.75485159953E+02 -0.14839324943E+04  0.14888933946E+04  0.77000000000E+02 0.  0.
   -5000001    1    1    2    0    0 -0.55864866989E+02  0.75485159953E+02 -0.10947393572E+04  0.11014545623E+04  0.77000000000E+02 0.  0.
<mgrwt>
<rscale>  0 0.24567055E+03</rscale>
<asrwt>0</asrwt>
<pdfrwt beam="1">  1        2 0.36921497E+00 0.24567055E+03</pdfrwt>
<pdfrwt beam="2">  1       -2 0.83400918E-03 0.24567055E+03</pdfrwt>
<totfact> 0.12598360E+04</totfact>
</mgrwt>
</event>
<event>
 4    1  0.1308644E-003  0.1846836E+03  0.7818608E-02  0.1163346E+00
          2   -1    0    0  501    0  0.00000000000E+00  0.00000000000E+00  0.45620291898E+03  0.45620291899E+03  0.25500000000E-02 0.  1.
         -2   -1    0    0    0  501 -0.00000000000E+00 -0.00000000000E+00 -0.18691255428E+02  0.18691255602E+02  0.25500000000E-02 0. -1.
    5000001    1    1    2    0    0  0.69015295051E+01  0.46688600060E+02  0.16925741472E+03  0.19184506489E+03  0.77000000000E+02 0.  0.
   -5000001    1    1    2    0    0 -0.69015295051E+01 -0.46688600060E+02  0.26825424883E+03  0.28304910970E+03  0.77000000000E+02 0.  0.
<mgrwt>
<rscale>  0 0.18468357E+03</rscale>
<asrwt>0</asrwt>
<pdfrwt beam="1">  1        2 0.65171844E-01 0.18468357E+03</pdfrwt>
<pdfrwt beam="2">  1       -2 0.26701794E-02 0.18468357E+03</pdfrwt>
<totfact> 0.36177475E+04</totfact>
</mgrwt>
</event>
<event>
 4    1  0.1308644E-003  0.3686961E+03  0.7818608E-02  0.1055193E+00
          2   -1    0    0  501    0  0.00000000000E+00  0.00000000000E+00  0.47508631983E+03  0.47508631984E+03  0.25500000000E-02 0.  1.
         -2   -1    0    0    0  501 -0.00000000000E+00 -0.00000000000E+00 -0.71532681540E+02  0.71532681585E+02  0.25500000000E-02 0. -1.
    5000001    1    1    2    0    0 -0.13837358899E+03 -0.53950022644E+02  0.86962601646E+02  0.18854535040E+03  0.77000000000E+02 0.  0.
   -5000001    1    1    2    0    0  0.13837358899E+03  0.53950022644E+02  0.31659103664E+03  0.35807365102E+03  0.77000000000E+02 0.  0.
<mgrwt>
<rscale>  0 0.36869607E+03</rscale>
<asrwt>0</asrwt>
<pdfrwt beam="1">  1        2 0.67869474E-01 0.36869607E+03</pdfrwt>
<pdfrwt beam="2">  1       -2 0.10218955E-01 0.36869607E+03</pdfrwt>
<totfact> 0.46165688E+03</totfact>
</mgrwt>
</event>
<event>
 4    1  0.1308644E-003  0.2044917E+03  0.7818608E-02  0.1146004E+00
         -2   -1    0    0    0  501 -0.00000000000E+00  0.00000000000E+00  0.15434814974E+02  0.15434815184E+02  0.25500000000E-02 0. -1.
          2   -1    0    0  501    0  0.00000000000E+00 -0.00000000000E+00 -0.67731384717E+03  0.67731384717E+03  0.25500000000E-02 0.  1.
    5000001    1    1    2    0    0 -0.24165647501E+02  0.56111420263E+02 -0.23555750297E+03  0.25524264379E+03  0.77000000000E+02 0.  0.
   -5000001    1    1    2    0    0  0.24165647501E+02 -0.56111420263E+02 -0.42632152923E+03  0.43750601857E+03  0.77000000000E+02 0.  0.
<mgrwt>
<rscale>  0 0.20449170E+03</rscale>
<asrwt>0</asrwt>
<pdfrwt beam="1">  1        2 0.96759102E-01 0.20449170E+03</pdfrwt>
<pdfrwt beam="2">  1       -2 0.22049740E-02 0.20449170E+03</pdfrwt>
<totfact> 0.31065052E+04</totfact>
</mgrwt>
</event>
<event>
 4    1  0.1308644E-003  0.2605173E+03  0.7818608E-02  0.1106833E+00
         -2   -1    0    0    0  501 -0.00000000000E+00  0.00000000000E+00  0.66396190362E+01  0.66396195259E+01  0.25500000000E-02 0. -1.
          2   -1    0    0  501    0  0.00000000000E+00 -0.00000000000E+00 -0.25554645205E+04  0.25554645205E+04  0.25500000000E-02 0.  1.
    5000001    1    1    2    0    0  0.10039652904E+03 -0.18086941987E+02 -0.15215959538E+04  0.15269544352E+04  0.77000000000E+02 0.  0.
   -5000001    1    1    2    0    0 -0.10039652904E+03  0.18086941987E+02 -0.10272289476E+04  0.10351497048E+04  0.77000000000E+02 0.  0.
<mgrwt>
<rscale>  0 0.26051727E+03</rscale>
<asrwt>0</asrwt>
<pdfrwt beam="1">  1        2 0.36506573E+00 0.26051727E+03</pdfrwt>
<pdfrwt beam="2">  1       -2 0.94851867E-03 0.26051727E+03</pdfrwt>
<totfact> 0.10822240E+04</totfact>
</mgrwt>
</event>
<event>
 4    1  0.1308644E-003  0.2734829E+03  0.7818608E-02  0.1099303E+00
         -2   -1    0    0    0  501 -0.00000000000E+00  0.00000000000E+00  0.12779669190E+03  0.12779669193E+03  0.25500000000E-02 0. -1.
          2   -1    0    0  501    0  0.00000000000E+00 -0.00000000000E+00 -0.14631226462E+03  0.14631226464E+03  0.25500000000E-02 0.  1.
    5000001    1    1    2    0    0  0.98140814338E+02  0.52147712404E+02 -0.29755031228E+02  0.13843903074E+03  0.77000000000E+02 0.  0.
   -5000001    1    1    2    0    0 -0.98140814338E+02 -0.52147712404E+02  0.11239458506E+02  0.13566992583E+03  0.77000000000E+02 0.  0.
<mgrwt>
<rscale>  0 0.27348289E+03</rscale>
<asrwt>0</asrwt>
<pdfrwt beam="1">  1        2 0.20901752E-01 0.27348289E+03</pdfrwt>
<pdfrwt beam="2">  1       -2 0.18256670E-01 0.27348289E+03</pdfrwt>
<totfact> 0.64325482E+03</totfact>
</mgrwt>
</event>
<event>
 4    1  0.1308644E-003  0.1898767E+03  0.7818608E-02  0.1158573E+00
          2   -1    0    0  501    0  0.00000000000E+00  0.00000000000E+00  0.19733161449E+04  0.19733161449E+04  0.25500000000E-02 0.  1.
         -2   -1    0    0    0  501 -0.00000000000E+00 -0.00000000000E+00 -0.45675842668E+01  0.45675849786E+01  0.25500000000E-02 0. -1.
    5000001    1    1    2    0    0  0.49670839324E+02  0.13675194045E+02  0.12004004730E+04  0.12039703064E+04  0.77000000000E+02 0.  0.
   -5000001    1    1    2    0    0 -0.49670839324E+02 -0.13675194045E+02  0.76834808767E+03  0.77391342348E+03  0.77000000000E+02 0.  0.
<mgrwt>
<rscale>  0 0.18987668E+03</rscale>
<asrwt>0</asrwt>
<pdfrwt beam="1">  1        2 0.28190332E+00 0.18987668E+03</pdfrwt>
<pdfrwt beam="2">  1       -2 0.65250974E-03 0.18987668E+03</pdfrwt>
<totfact> 0.35329624E+04</totfact>
</mgrwt>
</event>
<event>
 4    1  0.1308644E-003  0.1593915E+03  0.7818608E-02  0.1189385E+00
         -2   -1    0    0    0  501 -0.00000000000E+00  0.00000000000E+00  0.41791885948E+02  0.41791886026E+02  0.25500000000E-02 0. -1.
          2   -1    0    0  501    0  0.00000000000E+00 -0.00000000000E+00 -0.15197724978E+03  0.15197724980E+03  0.25500000000E-02 0.  1.
    5000001    1    1    2    0    0  0.14638853622E+02  0.13625606949E+02 -0.60854377357E+02  0.10016091275E+03  0.77000000000E+02 0.  0.
   -5000001    1    1    2    0    0 -0.14638853622E+02 -0.13625606949E+02 -0.49330986471E+02  0.93608223070E+02  0.77000000000E+02 0.  0.
<mgrwt>
<rscale>  0 0.15939154E+03</rscale>
<asrwt>0</asrwt>
<pdfrwt beam="1">  1        2 0.21711035E-01 0.15939154E+03</pdfrwt>
<pdfrwt beam="2">  1       -2 0.59702695E-02 0.15939154E+03</pdfrwt>
<totfact> 0.35240036E+04</totfact>
</mgrwt>
</event>
<event>
 4    1  0.1308644E-003  0.2922842E+03  0.7818608E-02  0.1089163E+00
         -2   -1    0    0    0  501 -0.00000000000E+00  0.00000000000E+00  0.17190312067E+02  0.17190312256E+02  0.25500000000E-02 0. -1.
          2   -1    0    0  501    0  0.00000000000E+00 -0.00000000000E+00 -0.12424155304E+04  0.12424155304E+04  0.25500000000E-02 0.  1.
    5000001    1    1    2    0    0  0.40667648785E+02  0.10736790603E+03 -0.81688524758E+03  0.82849998951E+03  0.77000000000E+02 0.  0.
   -5000001    1    1    2    0    0 -0.40667648785E+02 -0.10736790603E+03 -0.40833997072E+03  0.43110585312E+03  0.77000000000E+02 0.  0.
<mgrwt>
<rscale>  0 0.29228418E+03</rscale>
<asrwt>0</asrwt>
<pdfrwt beam="1">  1        2 0.17748788E+00 0.29228418E+03</pdfrwt>
<pdfrwt beam="2">  1       -2 0.24557597E-02 0.29228418E+03</pdfrwt>
<totfact> 0.12136315E+04</totfact>
</mgrwt>
</event>
<event>
 4    1  0.1308644E-003  0.2237276E+03  0.7818608E-02  0.1131134E+00
         -2   -1    0    0    0  501 -0.00000000000E+00  0.00000000000E+00  0.70926596977E+01  0.70926601561E+01  0.25500000000E-02 0. -1.
          2   -1    0    0  501    0  0.00000000000E+00 -0.00000000000E+00 -0.17642893702E+04  0.17642893702E+04  0.25500000000E-02 0.  1.
    5000001    1    1    2    0    0 -0.37609519697E+02 -0.71601253635E+02 -0.93069163058E+03  0.93736712484E+03  0.77000000000E+02 0.  0.
   -5000001    1    1    2    0    0  0.37609519697E+02  0.71601253635E+02 -0.82650507996E+03  0.83401490556E+03  0.77000000000E+02 0.  0.
<mgrwt>
<rscale>  0 0.22372755E+03</rscale>
<asrwt>0</asrwt>
<pdfrwt beam="1">  1        2 0.25204106E+00 0.22372755E+03</pdfrwt>
<pdfrwt beam="2">  1       -2 0.10132383E-02 0.22372755E+03</pdfrwt>
<totfact> 0.23868995E+04</totfact>
</mgrwt>
</event>
<event>
 4    1  0.1308644E-003  0.2781334E+03  0.7818608E-02  0.1096713E+00
          2   -1    0    0  501    0  0.00000000000E+00  0.00000000000E+00  0.36203103437E+04  0.36203103437E+04  0.25500000000E-02 0.  1.
         -2   -1    0    0    0  501 -0.00000000000E+00 -0.00000000000E+00 -0.53419588955E+01  0.53419595041E+01  0.25500000000E-02 0. -1.
    5000001    1    1    2    0    0  0.44932377851E+02 -0.19816149291E+02  0.31746104452E+04  0.31759238147E+04  0.77000000000E+02 0.  0.
   -5000001    1    1    2    0    0 -0.44932377851E+02  0.19816149291E+02  0.44035793965E+03  0.44972848850E+03  0.77000000000E+02 0.  0.
<mgrwt>
<rscale>  0 0.27813342E+03</rscale>
<asrwt>0</asrwt>
<pdfrwt beam="1">  1        2 0.51718903E+00 0.27813342E+03</pdfrwt>
<pdfrwt beam="2">  1       -2 0.76313431E-03 0.27813342E+03</pdfrwt>
<totfact> 0.39367658E+03</totfact>
</mgrwt>
</event>
<event>
 4    1  0.1308644E-003  0.4306011E+03  0.7818608E-02  0.1033670E+00
         -2   -1    0    0    0  501 -0.00000000000E+00  0.00000000000E+00  0.12727363138E+03  0.12727363140E+03  0.25500000000E-02 0. -1.
          2   -1    0    0  501    0  0.00000000000E+00 -0.00000000000E+00 -0.36420990206E+03  0.36420990207E+03  0.25500000000E-02 0.  1.
    5000001    1    1    2    0    0  0.11946284608E+03 -0.10049004686E+03 -0.26309482584E+03  0.31546395752E+03  0.77000000000E+02 0.  0.
   -5000001    1    1    2    0    0 -0.11946284608E+03  0.10049004686E+03  0.26158555151E+02  0.17601957596E+03  0.77000000000E+02 0.  0.
<mgrwt>
<rscale>  0 0.43060105E+03</rscale>
<asrwt>0</asrwt>
<pdfrwt beam="1">  1        2 0.52029985E-01 0.43060105E+03</pdfrwt>
<pdfrwt beam="2">  1       -2 0.18181948E-01 0.43060105E+03</pdfrwt>
<totfact> 0.23937006E+03</totfact>
</mgrwt>
</event>
<event>
 4    1  0.1308644E-003  0.1885244E+03  0.7818608E-02  0.1159799E+00
         -2   -1    0    0    0  501 -0.00000000000E+00  0.00000000000E+00  0.42203416024E+01  0.42203423727E+01  0.25500000000E-02 0. -1.
          2   -1    0    0  501    0  0.00000000000E+00 -0.00000000000E+00 -0.21053664686E+04  0.21053664686E+04  0.25500000000E-02 0.  1.
    5000001    1    1    2    0    0 -0.41281851707E+02  0.30256337895E+02 -0.12559114533E+04  0.12593102143E+04  0.77000000000E+02 0.  0.
   -5000001    1    1    2    0    0  0.41281851707E+02 -0.30256337895E+02 -0.84523467371E+03  0.85027659670E+03  0.77000000000E+02 0.  0.
<mgrwt>
<rscale>  0 0.18852444E+03</rscale>
<asrwt>0</asrwt>
<pdfrwt beam="1">  1        2 0.30076596E+00 0.18852444E+03</pdfrwt>
<pdfrwt beam="2">  1       -2 0.60290735E-03 0.18852444E+03</pdfrwt>
<totfact> 0.34167503E+04</totfact>
</mgrwt>
</event>
<event>
 4    1  0.1308644E-003  0.1695488E+03  0.7818608E-02  0.1178319E+00
          2   -1    0    0  501    0  0.00000000000E+00  0.00000000000E+00  0.36336812137E+03  0.36336812138E+03  0.25500000000E-02 0.  1.
         -2   -1    0    0    0  501 -0.00000000000E+00 -0.00000000000E+00 -0.19778010715E+02  0.19778010879E+02  0.25500000000E-02 0. -1.
    5000001    1    1    2    0    0  0.25381005926E+02  0.22924652777E+01  0.11606236639E+03  0.14159422217E+03  0.77000000000E+02 0.  0.
   -5000001    1    1    2    0    0 -0.25381005926E+02 -0.22924652777E+01  0.22752774427E+03  0.24155191009E+03  0.77000000000E+02 0.  0.
<mgrwt>
<rscale>  0 0.16954880E+03</rscale>
<asrwt>0</asrwt>
<pdfrwt beam="1">  1        2 0.51909732E-01 0.16954880E+03</pdfrwt>
<pdfrwt beam="2">  1       -2 0.28254301E-02 0.16954880E+03</pdfrwt>
<totfact> 0.42158557E+04</totfact>
</mgrwt>
</event>
<event>
 4    1  0.1308644E-003  0.2037126E+03  0.7818608E-02  0.1146644E+00
          2   -1    0    0  501    0  0.00000000000E+00  0.00000000000E+00  0.29372742587E+04  0.29372742587E+04  0.25500000000E-02 0.  1.
         -2   -1    0    0    0  501 -0.00000000000E+00 -0.00000000000E+00 -0.35320843292E+01  0.35320852497E+01  0.25500000000E-02 0. -1.
    5000001    1    1    2    0    0 -0.49504532858E+02  0.13247733100E+02  0.85109231401E+03  0.85610357327E+03  0.77000000000E+02 0.  0.
   -5000001    1    1    2    0    0  0.49504532858E+02 -0.13247733100E+02  0.20826498603E+04  0.20847027706E+04  0.77000000000E+02 0.  0.
<mgrwt>
<rscale>  0 0.20371256E+03</rscale>
<asrwt>0</asrwt>
<pdfrwt beam="1">  1        2 0.41960991E+00 0.20371256E+03</pdfrwt>
<pdfrwt beam="2">  1       -2 0.50458439E-03 0.20371256E+03</pdfrwt>
<totfact> 0.17085909E+04</totfact>
</mgrwt>
</event>
<event>
 4    1  0.1308644E-003  0.2926046E+03  0.7818608E-02  0.1088997E+00
         -2   -1    0    0    0  501 -0.00000000000E+00  0.00000000000E+00  0.94099703425E+02  0.94099703460E+02  0.25500000000E-02 0. -1.
          2   -1    0    0  501    0  0.00000000000E+00 -0.00000000000E+00 -0.22746469263E+03  0.22746469264E+03  0.25500000000E-02 0.  1.
    5000001    1    1    2    0    0 -0.22321312480E+02  0.11753020166E+03 -0.29192051710E+02  0.14523348503E+03  0.77000000000E+02 0.  0.
   -5000001    1    1    2    0    0  0.22321312480E+02 -0.11753020166E+03 -0.10417293749E+03  0.17633091107E+03  0.77000000000E+02 0.  0.
<mgrwt>
<rscale>  0 0.29260458E+03</rscale>
<asrwt>0</asrwt>
<pdfrwt beam="1">  1        2 0.32494956E-01 0.29260458E+03</pdfrwt>
<pdfrwt beam="2">  1       -2 0.13442815E-01 0.29260458E+03</pdfrwt>
<totfact> 0.65589953E+03</totfact>
</mgrwt>
</event>
<event>
 4    1  0.1308644E-003  0.1828552E+03  0.7818608E-02  0.1165068E+00
          2   -1    0    0  501    0  0.00000000000E+00  0.00000000000E+00  0.15301090167E+03  0.15301090169E+03  0.25500000000E-02 0.  1.
         -2   -1    0    0    0  501 -0.00000000000E+00 -0.00000000000E+00 -0.54630110254E+02  0.54630110313E+02  0.25500000000E-02 0. -1.
    5000001    1    1    2    0    0 -0.37748642838E+02  0.29183059333E+02  0.63254319018E+02  0.11048402537E+03  0.77000000000E+02 0.  0.
   -5000001    1    1    2    0    0  0.37748642838E+02 -0.29183059333E+02  0.35126472398E+02  0.97156986631E+02  0.77000000000E+02 0.  0.
<mgrwt>
<rscale>  0 0.18285516E+03</rscale>
<asrwt>0</asrwt>
<pdfrwt beam="1">  1        2 0.21858701E-01 0.18285516E+03</pdfrwt>
<pdfrwt beam="2">  1       -2 0.78043014E-02 0.18285516E+03</pdfrwt>
<totfact> 0.23484026E+04</totfact>
</mgrwt>
</event>
<event>
 4    1  0.1308644E-003  0.2621768E+03  0.7818608E-02  0.1105842E+00
          2   -1    0    0  501    0  0.00000000000E+00  0.00000000000E+00  0.11598420643E+04  0.11598420643E+04  0.25500000000E-02 0.  1.
         -2   -1    0    0    0  501 -0.00000000000E+00 -0.00000000000E+00 -0.14815952727E+02  0.14815952946E+02  0.25500000000E-02 0. -1.
    5000001    1    1    2    0    0 -0.99753630713E+02 -0.76293690858E+01  0.73067649051E+03  0.74150261489E+03  0.77000000000E+02 0.  0.
   -5000001    1    1    2    0    0  0.99753630713E+02  0.76293690858E+01  0.41434962107E+03  0.43315540236E+03  0.77000000000E+02 0.  0.
<mgrwt>
<rscale>  0 0.26217677E+03</rscale>
<asrwt>0</asrwt>
<pdfrwt beam="1">  1        2 0.16569177E+00 0.26217677E+03</pdfrwt>
<pdfrwt beam="2">  1       -2 0.21165641E-02 0.26217677E+03</pdfrwt>
<totfact> 0.16695818E+04</totfact>
</mgrwt>
</event>
<event>
 4    1  0.1308644E-003  0.2638269E+03  0.7818608E-02  0.1104866E+00
          2   -1    0    0  501    0  0.00000000000E+00  0.00000000000E+00  0.87527062786E+03  0.87527062786E+03  0.25500000000E-02 0.  1.
         -2   -1    0    0    0  501 -0.00000000000E+00 -0.00000000000E+00 -0.19880892372E+02  0.19880892535E+02  0.25500000000E-02 0. -1.
    5000001    1    1    2    0    0 -0.62221602421E+02  0.13413611529E+02  0.13541417578E+03  0.16827790046E+03  0.77000000000E+02 0.  0.
   -5000001    1    1    2    0    0  0.62221602421E+02 -0.13413611529E+02  0.71997555970E+03  0.72687361993E+03  0.77000000000E+02 0.  0.
<mgrwt>
<rscale>  0 0.26382692E+03</rscale>
<asrwt>0</asrwt>
<pdfrwt beam="1">  1        2 0.12503863E+00 0.26382692E+03</pdfrwt>
<pdfrwt beam="2">  1       -2 0.28401281E-02 0.26382692E+03</pdfrwt>
<totfact> 0.15884422E+04</totfact>
</mgrwt>
</event>
<event>
 4    1  0.1308644E-003  0.2082520E+03  0.7818608E-02  0.1142958E+00
          2   -1    0    0  501    0  0.00000000000E+00  0.00000000000E+00  0.58405394969E+03  0.58405394970E+03  0.25500000000E-02 0.  1.
         -2   -1    0    0    0  501 -0.00000000000E+00 -0.00000000000E+00 -0.18563733158E+02  0.18563733333E+02  0.25500000000E-02 0. -1.
    5000001    1    1    2    0    0 -0.46015112670E+02 -0.42750624851E+02  0.19270444547E+03  0.21681561250E+03  0.77000000000E+02 0.  0.
   -5000001    1    1    2    0    0  0.46015112670E+02  0.42750624851E+02  0.37278577107E+03  0.38580207053E+03  0.77000000000E+02 0.  0.
<mgrwt>
<rscale>  0 0.20825198E+03</rscale>
<asrwt>0</asrwt>
<pdfrwt beam="1">  1        2 0.83436281E-01 0.20825198E+03</pdfrwt>
<pdfrwt beam="2">  1       -2 0.26519618E-02 0.20825198E+03</pdfrwt>
<totfact> 0.28097311E+04</totfact>
</mgrwt>
</event>
<event>
 4    1  0.1308644E-003  0.2299530E+03  0.7818608E-02  0.1126673E+00
         -2   -1    0    0    0  501 -0.00000000000E+00  0.00000000000E+00  0.20324008377E+03  0.20324008379E+03  0.25500000000E-02 0. -1.
          2   -1    0    0  501    0  0.00000000000E+00 -0.00000000000E+00 -0.65044223795E+02  0.65044223845E+02  0.25500000000E-02 0.  1.
    5000001    1    1    2    0    0 -0.69024434991E+02 -0.44857413482E+02  0.95549525032E+02  0.14776762807E+03  0.77000000000E+02 0.  0.
   -5000001    1    1    2    0    0  0.69024434991E+02  0.44857413482E+02  0.42646334947E+02  0.12051667957E+03  0.77000000000E+02 0.  0.
<mgrwt>
<rscale>  0 0.22995298E+03</rscale>
<asrwt>0</asrwt>
<pdfrwt beam="1">  1        2 0.92920320E-02 0.22995298E+03</pdfrwt>
<pdfrwt beam="2">  1       -2 0.29034298E-01 0.22995298E+03</pdfrwt>
<totfact> 0.74842159E+03</totfact>
</mgrwt>
</event>
<event>
 4    1  0.1308644E-003  0.6337659E+03  0.7818608E-02  0.9837727E-01
         -2   -1    0    0    0  501 -0.00000000000E+00  0.00000000000E+00  0.28165421879E+02  0.28165421995E+02  0.25500000000E-02 0. -1.
          2   -1    0    0  501    0  0.00000000000E+00 -0.00000000000E+00 -0.35651804109E+04  0.35651804109E+04  0.25500000000E-02 0.  1.
    5000001    1    1    2    0    0 -0.91419432835E+01  0.28577056758E+03 -0.24084056192E+04  0.24265397213E+04  0.77000000000E+02 0.  0.
   -5000001    1    1    2    0    0  0.91419432835E+01 -0.28577056758E+03 -0.11286093698E+04  0.11668061116E+04  0.77000000000E+02 0.  0.
<mgrwt>
<rscale>  0 0.63376592E+03</rscale>
<asrwt>0</asrwt>
<pdfrwt beam="1">  1        2 0.50931120E+00 0.63376592E+03</pdfrwt>
<pdfrwt beam="2">  1       -2 0.40236340E-02 0.63376592E+03</pdfrwt>
<totfact> 0.34302824E+02</totfact>
</mgrwt>
</event>
<event>
 4    1  0.1308644E-003  0.2959215E+03  0.7818608E-02  0.1087297E+00
          2   -1    0    0  501    0  0.00000000000E+00  0.00000000000E+00  0.87595156578E+02  0.87595156615E+02  0.25500000000E-02 0.  1.
         -2   -1    0    0    0  501 -0.00000000000E+00 -0.00000000000E+00 -0.24992690979E+03  0.24992690981E+03  0.25500000000E-02 0. -1.
    5000001    1    1    2    0    0 -0.10001216756E+03  0.50139464744E+02 -0.14813050388E+03  0.20096777295E+03  0.77000000000E+02 0.  0.
   -5000001    1    1    2    0    0  0.10001216756E+03 -0.50139464744E+02 -0.14201249339E+02  0.13655429348E+03  0.77000000000E+02 0.  0.
<mgrwt>
<rscale>  0 0.29592152E+03</rscale>
<asrwt>0</asrwt>
<pdfrwt beam="1">  1        2 0.12513594E-01 0.29592152E+03</pdfrwt>
<pdfrwt beam="2">  1       -2 0.35703844E-01 0.29592152E+03</pdfrwt>
<totfact> 0.35852043E+03</totfact>
</mgrwt>
</event>
<event>
 4    1  0.1308644E-003  0.2759218E+03  0.7818608E-02  0.1097937E+00
          2   -1    0    0  501    0  0.00000000000E+00  0.00000000000E+00  0.33114899594E+03  0.33114899595E+03  0.25500000000E-02 0.  1.
         -2   -1    0    0    0  501 -0.00000000000E+00 -0.00000000000E+00 -0.57476275877E+02  0.57476275934E+02  0.25500000000E-02 0. -1.
    5000001    1    1    2    0    0  0.11006744502E+03 -0.13392354834E+02  0.17692221247E+03  0.22254138242E+03  0.77000000000E+02 0.  0.
   -5000001    1    1    2    0    0 -0.11006744502E+03  0.13392354834E+02  0.96750507594E+02  0.16608388947E+03  0.77000000000E+02 0.  0.
<mgrwt>
<rscale>  0 0.27592181E+03</rscale>
<asrwt>0</asrwt>
<pdfrwt beam="1">  1        2 0.47307000E-01 0.27592181E+03</pdfrwt>
<pdfrwt beam="2">  1       -2 0.82108965E-02 0.27592181E+03</pdfrwt>
<totfact> 0.95847956E+03</totfact>
</mgrwt>
</event>
<event>
 4    1  0.1308644E-003  0.3308443E+03  0.7818608E-02  0.1070764E+00
          2   -1    0    0  501    0  0.00000000000E+00  0.00000000000E+00  0.86768511442E+03  0.86768511443E+03  0.25500000000E-02 0.  1.
         -2   -1    0    0    0  501 -0.00000000000E+00 -0.00000000000E+00 -0.31537345225E+02  0.31537345328E+02  0.25500000000E-02 0. -1.
    5000001    1    1    2    0    0 -0.37107210578E+02  0.90866713098E+02  0.12280527763E+03  0.17505382270E+03  0.77000000000E+02 0.  0.
   -5000001    1    1    2    0    0  0.37107210578E+02 -0.90866713098E+02  0.71334249157E+03  0.72416863706E+03  0.77000000000E+02 0.  0.
<mgrwt>
<rscale>  0 0.33084428E+03</rscale>
<asrwt>0</asrwt>
<pdfrwt beam="1">  1        2 0.12395501E+00 0.33084428E+03</pdfrwt>
<pdfrwt beam="2">  1       -2 0.45053353E-02 0.33084428E+03</pdfrwt>
<totfact> 0.80988199E+03</totfact>
</mgrwt>
</event>
<event>
 4    1  0.1308644E-003  0.2357528E+03  0.7818608E-02  0.1122655E+00
          2   -1    0    0  501    0  0.00000000000E+00  0.00000000000E+00  0.16522712180E+03  0.16522712182E+03  0.25500000000E-02 0.  1.
         -2   -1    0    0    0  501 -0.00000000000E+00 -0.00000000000E+00 -0.84095456506E+02  0.84095456545E+02  0.25500000000E-02 0. -1.
    5000001    1    1    2    0    0 -0.73069362898E+02  0.46933226135E+02  0.18789594329E+02  0.11757511797E+03  0.77000000000E+02 0.  0.
   -5000001    1    1    2    0    0  0.73069362898E+02 -0.46933226135E+02  0.62342070967E+02  0.13174746040E+03  0.77000000000E+02 0.  0.
<mgrwt>
<rscale>  0 0.23575284E+03</rscale>
<asrwt>0</asrwt>
<pdfrwt beam="1">  1        2 0.23603874E-01 0.23575284E+03</pdfrwt>
<pdfrwt beam="2">  1       -2 0.12013637E-01 0.23575284E+03</pdfrwt>
<totfact> 0.11099892E+04</totfact>
</mgrwt>
</event>
<event>
 4    1  0.1308644E-003  0.3446289E+03  0.7818608E-02  0.1064841E+00
          2   -1    0    0  501    0  0.00000000000E+00  0.00000000000E+00  0.18441668672E+04  0.18441668672E+04  0.25500000000E-02 0.  1.
         -2   -1    0    0    0  501 -0.00000000000E+00 -0.00000000000E+00 -0.16100640095E+02  0.16100640297E+02  0.25500000000E-02 0. -1.
    5000001    1    1    2    0    0  0.97485434792E+02  0.64590684996E+00  0.26945588335E+03  0.29671417268E+03  0.77000000000E+02 0.  0.
   -5000001    1    1    2    0    0 -0.97485434792E+02 -0.64590684996E+00  0.15586103438E+04  0.15635533348E+04  0.77000000000E+02 0.  0.
<mgrwt>
<rscale>  0 0.34462889E+03</rscale>
<asrwt>0</asrwt>
<pdfrwt beam="1">  1        2 0.26345225E+00 0.34462889E+03</pdfrwt>
<pdfrwt beam="2">  1       -2 0.23000929E-02 0.34462889E+03</pdfrwt>
<totfact> 0.66331875E+03</totfact>
</mgrwt>
</event>
<event>
 4    1  0.1308644E-003  0.1657235E+03  0.7818608E-02  0.1182382E+00
         -2   -1    0    0    0  501 -0.00000000000E+00  0.00000000000E+00  0.71953305438E+02  0.71953305483E+02  0.25500000000E-02 0. -1.
          2   -1    0    0  501    0  0.00000000000E+00 -0.00000000000E+00 -0.95423956681E+02  0.95423956715E+02  0.25500000000E-02 0.  1.
    5000001    1    1    2    0    0 -0.28358487412E+02 -0.36475051437E+01 -0.69181485761E+00  0.82140043279E+02  0.77000000000E+02 0.  0.
   -5000001    1    1    2    0    0  0.28358487412E+02  0.36475051437E+01 -0.22778836386E+02  0.85237218920E+02  0.77000000000E+02 0.  0.
<mgrwt>
<rscale>  0 0.16572349E+03</rscale>
<asrwt>0</asrwt>
<pdfrwt beam="1">  1        2 0.13631994E-01 0.16572349E+03</pdfrwt>
<pdfrwt beam="2">  1       -2 0.10279044E-01 0.16572349E+03</pdfrwt>
<totfact> 0.26121070E+04</totfact>
</mgrwt>
</event>
<event>
 4    1  0.1308644E-003  0.2381845E+03  0.7818608E-02  0.1121008E+00
         -2   -1    0    0    0  501 -0.00000000000E+00  0.00000000000E+00  0.15666663869E+02  0.15666664076E+02  0.25500000000E-02 0. -1.
          2   -1    0    0  501    0  0.00000000000E+00 -0.00000000000E+00 -0.90529576512E+03  0.90529576512E+03  0.25500000000E-02 0.  1.
    5000001    1    1    2    0    0 -0.67059511159E+02 -0.25236887017E+02 -0.66079363456E+03  0.66911217742E+03  0.77000000000E+02 0.  0.
   -5000001    1    1    2    0    0  0.67059511159E+02  0.25236887017E+02 -0.22883546669E+03  0.25185025177E+03  0.77000000000E+02 0.  0.
<mgrwt>
<rscale>  0 0.23818450E+03</rscale>
<asrwt>0</asrwt>
<pdfrwt beam="1">  1        2 0.12932793E+00 0.23818450E+03</pdfrwt>
<pdfrwt beam="2">  1       -2 0.22380954E-02 0.23818450E+03</pdfrwt>
<totfact> 0.21519244E+04</totfact>
</mgrwt>
</event>
<event>
 4    1  0.1308644E-003  0.2259436E+03  0.7818608E-02  0.1129528E+00
         -2   -1    0    0    0  501 -0.00000000000E+00  0.00000000000E+00  0.33542591147E+03  0.33542591148E+03  0.25500000000E-02 0. -1.
          2   -1    0    0  501    0  0.00000000000E+00 -0.00000000000E+00 -0.38049014664E+02  0.38049014750E+02  0.25500000000E-02 0.  1.
    5000001    1    1    2    0    0  0.20046120828E+02  0.77887074146E+02  0.18028466728E+03  0.21189573978E+03  0.77000000000E+02 0.  0.
   -5000001    1    1    2    0    0 -0.20046120828E+02 -0.77887074146E+02  0.11709222953E+03  0.16157918645E+03  0.77000000000E+02 0.  0.
<mgrwt>
<rscale>  0 0.22594358E+03</rscale>
<asrwt>0</asrwt>
<pdfrwt beam="1">  1        2 0.54355736E-02 0.22594358E+03</pdfrwt>
<pdfrwt beam="2">  1       -2 0.47917987E-01 0.22594358E+03</pdfrwt>
<totfact> 0.57834840E+03</totfact>
</mgrwt>
</event>
<event>
 4    1  0.1308644E-003  0.2346363E+03  0.7818608E-02  0.1123418E+00
          2   -1    0    0  501    0  0.00000000000E+00  0.00000000000E+00  0.66875736524E+03  0.66875736524E+03  0.25500000000E-02 0.  1.
         -2   -1    0    0    0  501 -0.00000000000E+00 -0.00000000000E+00 -0.20580778891E+02  0.20580779049E+02  0.25500000000E-02 0. -1.
    5000001    1    1    2    0    0 -0.76913331539E+01  0.74600946893E+02  0.18597290576E+03  0.21480079041E+03  0.77000000000E+02 0.  0.
   -5000001    1    1    2    0    0  0.76913331539E+01 -0.74600946893E+02  0.46220368059E+03  0.47453735389E+03  0.77000000000E+02 0.  0.
<mgrwt>
<rscale>  0 0.23463629E+03</rscale>
<asrwt>0</asrwt>
<pdfrwt beam="1">  1        2 0.95536789E-01 0.23463629E+03</pdfrwt>
<pdfrwt beam="2">  1       -2 0.29401106E-02 0.23463629E+03</pdfrwt>
<totfact> 0.20819427E+04</totfact>
</mgrwt>
</event>
<event>
 4    1  0.1308644E-003  0.1925686E+03  0.7818608E-02  0.1156165E+00
          2   -1    0    0  501    0  0.00000000000E+00  0.00000000000E+00  0.28097439755E+02  0.28097439871E+02  0.25500000000E-02 0.  1.
         -2   -1    0    0    0  501 -0.00000000000E+00 -0.00000000000E+00 -0.32994693648E+03  0.32994693649E+03  0.25500000000E-02 0. -1.
    5000001    1    1    2    0    0  0.52117911686E+01  0.56309326797E+02 -0.12863155968E+03  0.16022790393E+03  0.77000000000E+02 0.  0.
   -5000001    1    1    2    0    0 -0.52117911686E+01 -0.56309326797E+02 -0.17321793704E+03  0.19781647243E+03  0.77000000000E+02 0.  0.
<mgrwt>
<rscale>  0 0.19256858E+03</rscale>
<asrwt>0</asrwt>
<pdfrwt beam="1">  1        2 0.40139202E-02 0.19256858E+03</pdfrwt>
<pdfrwt beam="2">  1       -2 0.47135274E-01 0.19256858E+03</pdfrwt>
<totfact> 0.88287329E+03</totfact>
</mgrwt>
</event>
<event>
 4    1  0.1308644E-003  0.2730333E+03  0.7818608E-02  0.1099556E+00
          2   -1    0    0  501    0  0.00000000000E+00  0.00000000000E+00  0.12600674334E+04  0.12600674334E+04  0.25500000000E-02 0.  1.
         -2   -1    0    0    0  501 -0.00000000000E+00 -0.00000000000E+00 -0.14790318412E+02  0.14790318632E+02  0.25500000000E-02 0. -1.
    5000001    1    1    2    0    0  0.10857860516E+03  0.26905739234E+02  0.68776839570E+03  0.70104750083E+03  0.77000000000E+02 0.  0.
   -5000001    1    1    2    0    0 -0.10857860516E+03 -0.26905739234E+02  0.55750871931E+03  0.57381025122E+03  0.77000000000E+02 0.  0.
<mgrwt>
<rscale>  0 0.27303332E+03</rscale>
<asrwt>0</asrwt>
<pdfrwt beam="1">  1        2 0.18000964E+00 0.27303332E+03</pdfrwt>
<pdfrwt beam="2">  1       -2 0.21129026E-02 0.27303332E+03</pdfrwt>
<totfact> 0.14797651E+04</totfact>
</mgrwt>
</event>
<event>
 4    1  0.1308644E-003  0.2161022E+03  0.7818608E-02  0.1136823E+00
          2   -1    0    0  501    0  0.00000000000E+00  0.00000000000E+00  0.69155036216E+03  0.69155036216E+03  0.25500000000E-02 0.  1.
         -2   -1    0    0    0  501 -0.00000000000E+00 -0.00000000000E+00 -0.16882410795E+02  0.16882410987E+02  0.25500000000E-02 0. -1.
    5000001    1    1    2    0    0  0.36723109947E+02  0.49284916697E+02  0.48277985867E+03  0.49273013076E+03  0.77000000000E+02 0.  0.
   -5000001    1    1    2    0    0 -0.36723109947E+02 -0.49284916697E+02  0.19188809269E+03  0.21570264239E+03  0.77000000000E+02 0.  0.
<mgrwt>
<rscale>  0 0.21610217E+03</rscale>
<asrwt>0</asrwt>
<pdfrwt beam="1">  1        2 0.98792901E-01 0.21610217E+03</pdfrwt>
<pdfrwt beam="2">  1       -2 0.24117732E-02 0.21610217E+03</pdfrwt>
<totfact> 0.26681479E+04</totfact>
</mgrwt>
</event>
<event>
 4    1  0.1308644E-003  0.4358452E+03  0.7818608E-02  0.1032029E+00
         -2   -1    0    0    0  501 -0.00000000000E+00  0.00000000000E+00  0.53695061510E+02  0.53695061571E+02  0.25500000000E-02 0. -1.
          2   -1    0    0  501    0  0.00000000000E+00 -0.00000000000E+00 -0.88444381237E+03  0.88444381237E+03  0.25500000000E-02 0.  1.
    5000001    1    1    2    0    0 -0.17695607249E+03 -0.98096292810E+02 -0.36156589042E+03  0.42142048760E+03  0.77000000000E+02 0.  0.
   -5000001    1    1    2    0    0  0.17695607249E+03  0.98096292810E+02 -0.46918286044E+03  0.51671838635E+03  0.77000000000E+02 0.  0.
<mgrwt>
<rscale>  0 0.43584522E+03</rscale>
<asrwt>0</asrwt>
<pdfrwt beam="1">  1        2 0.12634911E+00 0.43584522E+03</pdfrwt>
<pdfrwt beam="2">  1       -2 0.76707237E-02 0.43584522E+03</pdfrwt>
<totfact> 0.34850383E+03</totfact>
</mgrwt>
</event>
<event>
 4    1  0.1308644E-003  0.9712002E+03  0.7818608E-02  0.9340708E-01
         -2   -1    0    0    0  501 -0.00000000000E+00  0.00000000000E+00  0.11990037916E+03  0.11990037919E+03  0.25500000000E-02 0. -1.
          2   -1    0    0  501    0  0.00000000000E+00 -0.00000000000E+00 -0.19666948025E+04  0.19666948025E+04  0.25500000000E-02 0.  1.
    5000001    1    1    2    0    0 -0.26597824910E+03  0.39888302816E+03 -0.91236791614E+03  0.10335358308E+04  0.77000000000E+02 0.  0.
   -5000001    1    1    2    0    0  0.26597824910E+03 -0.39888302816E+03 -0.93442650721E+03  0.10530593509E+04  0.77000000000E+02 0.  0.
<mgrwt>
<rscale>  0 0.97120019E+03</rscale>
<asrwt>0</asrwt>
<pdfrwt beam="1">  1        2 0.28095638E+00 0.97120019E+03</pdfrwt>
<pdfrwt beam="2">  1       -2 0.17128627E-01 0.97120019E+03</pdfrwt>
<totfact> 0.23403284E+02</totfact>
</mgrwt>
</event>
<event>
 4    1  0.1308644E-003  0.4161358E+03  0.7818608E-02  0.1038331E+00
          2   -1    0    0  501    0  0.00000000000E+00  0.00000000000E+00  0.25142662325E+04  0.25142662325E+04  0.25500000000E-02 0.  1.
         -2   -1    0    0    0  501 -0.00000000000E+00 -0.00000000000E+00 -0.17218645815E+02  0.17218646004E+02  0.25500000000E-02 0. -1.
    5000001    1    1    2    0    0  0.15507102009E+02  0.16418549238E+03  0.18618809340E+04  0.18707557186E+04  0.77000000000E+02 0.  0.
   -5000001    1    1    2    0    0 -0.15507102009E+02 -0.16418549238E+03  0.63516665267E+03  0.66072915993E+03  0.77000000000E+02 0.  0.
<mgrwt>
<rscale>  0 0.41613584E+03</rscale>
<asrwt>0</asrwt>
<pdfrwt beam="1">  1        2 0.35918058E+00 0.41613584E+03</pdfrwt>
<pdfrwt beam="2">  1       -2 0.24598087E-02 0.41613584E+03</pdfrwt>
<totfact> 0.27835267E+03</totfact>
</mgrwt>
</event>
<event>
 4    1  0.1308644E-003  0.4106114E+03  0.7818608E-02  0.1040166E+00
          2   -1    0    0  501    0  0.00000000000E+00  0.00000000000E+00  0.12381676078E+04  0.12381676078E+04  0.25500000000E-02 0.  1.
         -2   -1    0    0    0  501 -0.00000000000E+00 -0.00000000000E+00 -0.34042587680E+02  0.34042587775E+02  0.25500000000E-02 0. -1.
    5000001    1    1    2    0    0 -0.10474133668E+03 -0.15828259290E+03  0.64558304910E+03  0.67729653779E+03  0.77000000000E+02 0.  0.
   -5000001    1    1    2    0    0  0.10474133668E+03  0.15828259290E+03  0.55854197104E+03  0.59491365780E+03  0.77000000000E+02 0.  0.
<mgrwt>
<rscale>  0 0.41061139E+03</rscale>
<asrwt>0</asrwt>
<pdfrwt beam="1">  1        2 0.17688111E+00 0.41061139E+03</pdfrwt>
<pdfrwt beam="2">  1       -2 0.48632262E-02 0.41061139E+03</pdfrwt>
<totfact> 0.43851062E+03</totfact>
</mgrwt>
</event>
<event>
 4    1  0.1308644E-003  0.1845097E+03  0.7818608E-02  0.1163509E+00
          2   -1    0    0  501    0  0.00000000000E+00  0.00000000000E+00  0.34439527175E+04  0.34439527175E+04  0.25500000000E-02 0.  1.
         -2   -1    0    0    0  501 -0.00000000000E+00 -0.00000000000E+00 -0.24712751687E+01  0.24712764843E+01  0.25500000000E-02 0. -1.
    5000001    1    1    2    0    0 -0.65171576618E+01 -0.48859873090E+02  0.14903038732E+04  0.14931056209E+04  0.77000000000E+02 0.  0.
   -5000001    1    1    2    0    0  0.65171576618E+01  0.48859873090E+02  0.19511775691E+04  0.19533183731E+04  0.77000000000E+02 0.  0.
<mgrwt>
<rscale>  0 0.18450970E+03</rscale>
<asrwt>0</asrwt>
<pdfrwt beam="1">  1        2 0.49199442E+00 0.18450970E+03</pdfrwt>
<pdfrwt beam="2">  1       -2 0.35303856E-03 0.18450970E+03</pdfrwt>
<totfact> 0.15090736E+04</totfact>
</mgrwt>
</event>
<event>
 4    1  0.1308644E-003  0.4411385E+03  0.7818608E-02  0.1030398E+00
          2   -1    0    0  501    0  0.00000000000E+00  0.00000000000E+00  0.12852853779E+04  0.12852853779E+04  0.25500000000E-02 0.  1.
         -2   -1    0    0    0  501 -0.00000000000E+00 -0.00000000000E+00 -0.37852136868E+02  0.37852136953E+02  0.25500000000E-02 0. -1.
    5000001    1    1    2    0    0  0.18245134020E+03  0.96520078228E+02  0.65618485704E+03  0.69217930022E+03  0.77000000000E+02 0.  0.
   -5000001    1    1    2    0    0 -0.18245134020E+03 -0.96520078228E+02  0.59124838398E+03  0.63095821462E+03  0.77000000000E+02 0.  0.
<mgrwt>
<rscale>  0 0.44113852E+03</rscale>
<asrwt>0</asrwt>
<pdfrwt beam="1">  1        2 0.18361221E+00 0.44113852E+03</pdfrwt>
<pdfrwt beam="2">  1       -2 0.54074478E-02 0.44113852E+03</pdfrwt>
<totfact> 0.35123650E+03</totfact>
</mgrwt>
</event>
<event>
 4    1  0.1308644E-003  0.1768079E+03  0.7818608E-02  0.1170929E+00
          2   -1    0    0  501    0  0.00000000000E+00  0.00000000000E+00  0.47515919831E+03  0.47515919832E+03  0.25500000000E-02 0.  1.
         -2   -1    0    0    0  501 -0.00000000000E+00 -0.00000000000E+00 -0.16447660014E+02  0.16447660211E+02  0.25500000000E-02 0. -1.
    5000001    1    1    2    0    0 -0.37807845823E+02  0.34971080818E+01  0.17072870903E+03  0.19109933296E+03  0.77000000000E+02 0.  0.
   -5000001    1    1    2    0    0  0.37807845823E+02 -0.34971080818E+01  0.28798282927E+03  0.30050752557E+03  0.77000000000E+02 0.  0.
<mgrwt>
<rscale>  0 0.17680788E+03</rscale>
<asrwt>0</asrwt>
<pdfrwt beam="1">  1        2 0.67879890E-01 0.17680788E+03</pdfrwt>
<pdfrwt beam="2">  1       -2 0.23496656E-02 0.17680788E+03</pdfrwt>
<totfact> 0.41600090E+04</totfact>
</mgrwt>
</event>
<event>
 4    1  0.1308644E-003  0.2278337E+03  0.7818608E-02  0.1128174E+00
         -2   -1    0    0    0  501 -0.00000000000E+00  0.00000000000E+00  0.12702342698E+02  0.12702342954E+02  0.25500000000E-02 0. -1.
          2   -1    0    0  501    0  0.00000000000E+00 -0.00000000000E+00 -0.10216263998E+04  0.10216263998E+04  0.25500000000E-02 0.  1.
    5000001    1    1    2    0    0 -0.46677051330E+02  0.36994146875E+02 -0.23585323141E+03  0.25515301447E+03  0.77000000000E+02 0.  0.
   -5000001    1    1    2    0    0  0.46677051330E+02 -0.36994146875E+02 -0.77307082568E+03  0.77917572828E+03  0.77000000000E+02 0.  0.
<mgrwt>
<rscale>  0 0.22783370E+03</rscale>
<asrwt>0</asrwt>
<pdfrwt beam="1">  1        2 0.14594658E+00 0.22783370E+03</pdfrwt>
<pdfrwt beam="2">  1       -2 0.18146211E-02 0.22783370E+03</pdfrwt>
<totfact> 0.24867529E+04</totfact>
</mgrwt>
</event>
<event>
 4    1  0.1308644E-003  0.2381869E+03  0.7818608E-02  0.1121007E+00
          2   -1    0    0  501    0  0.00000000000E+00  0.00000000000E+00  0.21215017900E+04  0.21215017900E+04  0.25500000000E-02 0.  1.
         -2   -1    0    0    0  501 -0.00000000000E+00 -0.00000000000E+00 -0.66854786940E+01  0.66854791803E+01  0.25500000000E-02 0. -1.
    5000001    1    1    2    0    0 -0.85060231846E+02 -0.50617972294E+01  0.13390206549E+04  0.13439368211E+04  0.77000000000E+02 0.  0.
   -5000001    1    1    2    0    0  0.85060231846E+02  0.50617972294E+01  0.77579565635E+03  0.78425044804E+03  0.77000000000E+02 0.  0.
<mgrwt>
<rscale>  0 0.23818695E+03</rscale>
<asrwt>0</asrwt>
<pdfrwt beam="1">  1        2 0.30307165E+00 0.23818695E+03</pdfrwt>
<pdfrwt beam="2">  1       -2 0.95506853E-03 0.23818695E+03</pdfrwt>
<totfact> 0.17485465E+04</totfact>
</mgrwt>
</event>
<event>
 4    1  0.1308644E-003  0.2186100E+03  0.7818608E-02  0.1134924E+00
         -2   -1    0    0    0  501 -0.00000000000E+00  0.00000000000E+00  0.24539604484E+02  0.24539604617E+02  0.25500000000E-02 0. -1.
          2   -1    0    0  501    0  0.00000000000E+00 -0.00000000000E+00 -0.48686929368E+03  0.48686929369E+03  0.25500000000E-02 0.  1.
    5000001    1    1    2    0    0 -0.23530049959E+02  0.71346994831E+02 -0.18589202243E+03  0.21477639750E+03  0.77000000000E+02 0.  0.
   -5000001    1    1    2    0    0  0.23530049959E+02 -0.71346994831E+02 -0.27643766677E+03  0.29663250080E+03  0.77000000000E+02 0.  0.
<mgrwt>
<rscale>  0 0.21860997E+03</rscale>
<asrwt>0</asrwt>
<pdfrwt beam="1">  1        2 0.69552750E-01 0.21860997E+03</pdfrwt>
<pdfrwt beam="2">  1       -2 0.35056581E-02 0.21860997E+03</pdfrwt>
<totfact> 0.22817317E+04</totfact>
</mgrwt>
</event>
<event>
 4    1  0.1308644E-003  0.1585752E+03  0.7818608E-02  0.1190315E+00
         -2   -1    0    0    0  501 -0.00000000000E+00  0.00000000000E+00  0.34284083982E+02  0.34284084077E+02  0.25500000000E-02 0. -1.
          2   -1    0    0  501    0  0.00000000000E+00 -0.00000000000E+00 -0.18336566172E+03  0.18336566174E+03  0.25500000000E-02 0.  1.
    5000001    1    1    2    0    0 -0.23889320096E+01 -0.15549563618E+02 -0.60143717133E+02  0.98963440903E+02  0.77000000000E+02 0.  0.
   -5000001    1    1    2    0    0  0.23889320096E+01  0.15549563618E+02 -0.88937860609E+02  0.11868630492E+03  0.77000000000E+02 0.  0.
<mgrwt>
<rscale>  0 0.15857520E+03</rscale>
<asrwt>0</asrwt>
<pdfrwt beam="1">  1        2 0.26195094E-01 0.15857520E+03</pdfrwt>
<pdfrwt beam="2">  1       -2 0.48977264E-02 0.15857520E+03</pdfrwt>
<totfact> 0.38559568E+04</totfact>
</mgrwt>
</event>
<event>
 4    1  0.1308644E-003  0.2485874E+03  0.7818608E-02  0.1114201E+00
          2   -1    0    0  501    0  0.00000000000E+00  0.00000000000E+00  0.11986495700E+04  0.11986495700E+04  0.25500000000E-02 0.  1.
         -2   -1    0    0    0  501 -0.00000000000E+00 -0.00000000000E+00 -0.12888603523E+02  0.12888603775E+02  0.25500000000E-02 0. -1.
    5000001    1    1    2    0    0  0.91937645214E+02 -0.25061080641E+02  0.49072682868E+03  0.50578889743E+03  0.77000000000E+02 0.  0.
   -5000001    1    1    2    0    0 -0.91937645214E+02  0.25061080641E+02  0.69503413777E+03  0.70574927633E+03  0.77000000000E+02 0.  0.
<mgrwt>
<rscale>  0 0.24858736E+03</rscale>
<asrwt>0</asrwt>
<pdfrwt beam="1">  1        2 0.17123566E+00 0.24858736E+03</pdfrwt>
<pdfrwt beam="2">  1       -2 0.18412290E-02 0.24858736E+03</pdfrwt>
<totfact> 0.19468922E+04</totfact>
</mgrwt>
</event>
<event>
 4    1  0.1308644E-003  0.2909690E+03  0.7818608E-02  0.1089844E+00
          2   -1    0    0  501    0  0.00000000000E+00  0.00000000000E+00  0.25422589823E+04  0.25422589823E+04  0.25500000000E-02 0.  1.
         -2   -1    0    0    0  501 -0.00000000000E+00 -0.00000000000E+00 -0.83255635065E+01  0.83255638970E+01  0.25500000000E-02 0. -1.
    5000001    1    1    2    0    0  0.41674904433E+02  0.11611501770E+03  0.13033677194E+04  0.13114556443E+04  0.77000000000E+02 0.  0.
   -5000001    1    1    2    0    0 -0.41674904433E+02 -0.11611501770E+03  0.12305656995E+04  0.12391289020E+04  0.77000000000E+02 0.  0.
<mgrwt>
<rscale>  0 0.29096900E+03</rscale>
<asrwt>0</asrwt>
<pdfrwt beam="1">  1        2 0.36318032E+00 0.29096900E+03</pdfrwt>
<pdfrwt beam="2">  1       -2 0.11893647E-02 0.29096900E+03</pdfrwt>
<totfact> 0.79119759E+03</totfact>
</mgrwt>
</event>
<event>
 4    1  0.1308644E-003  0.3259742E+03  0.7818608E-02  0.1072932E+00
         -2   -1    0    0    0  501 -0.00000000000E+00  0.00000000000E+00  0.87672275323E+02  0.87672275361E+02  0.25500000000E-02 0. -1.
          2   -1    0    0  501    0  0.00000000000E+00 -0.00000000000E+00 -0.30300103555E+03  0.30300103556E+03  0.25500000000E-02 0.  1.
    5000001    1    1    2    0    0  0.13571726052E+03  0.43924437509E+02 -0.87351685912E+02  0.18414083753E+03  0.77000000000E+02 0.  0.
   -5000001    1    1    2    0    0 -0.13571726052E+03 -0.43924437509E+02 -0.12797707431E+03  0.20653247339E+03  0.77000000000E+02 0.  0.
<mgrwt>
<rscale>  0 0.32597417E+03</rscale>
<asrwt>0</asrwt>
<pdfrwt beam="1">  1        2 0.43285862E-01 0.32597417E+03</pdfrwt>
<pdfrwt beam="2">  1       -2 0.12524611E-01 0.32597417E+03</pdfrwt>
<totfact> 0.54104555E+03</totfact>
</mgrwt>
</event>
<event>
 4    1  0.1308644E-003  0.1763031E+03  0.7818608E-02  0.1171430E+00
         -2   -1    0    0    0  501 -0.00000000000E+00  0.00000000000E+00  0.20387078367E+02  0.20387078526E+02  0.25500000000E-02 0. -1.
          2   -1    0    0  501    0  0.00000000000E+00 -0.00000000000E+00 -0.38115789297E+03  0.38115789298E+03  0.25500000000E-02 0.  1.
    5000001    1    1    2    0    0  0.30819646707E+02  0.23594917011E+02 -0.22207980857E+03  0.23823310455E+03  0.77000000000E+02 0.  0.
   -5000001    1    1    2    0    0 -0.30819646707E+02 -0.23594917011E+02 -0.13869100604E+03  0.16331186695E+03  0.77000000000E+02 0.  0.
<mgrwt>
<rscale>  0 0.17630310E+03</rscale>
<asrwt>0</asrwt>
<pdfrwt beam="1">  1        2 0.54451123E-01 0.17630310E+03</pdfrwt>
<pdfrwt beam="2">  1       -2 0.29124400E-02 0.17630310E+03</pdfrwt>
<totfact> 0.38452243E+04</totfact>
</mgrwt>
</event>
<event>
 4    1  0.1308644E-003  0.2110003E+03  0.7818608E-02  0.1140776E+00
         -2   -1    0    0    0  501 -0.00000000000E+00  0.00000000000E+00  0.31216504533E+02  0.31216504637E+02  0.25500000000E-02 0. -1.
          2   -1    0    0  501    0  0.00000000000E+00 -0.00000000000E+00 -0.35655104043E+03  0.35655104043E+03  0.25500000000E-02 0.  1.
    5000001    1    1    2    0    0  0.12324137092E+02  0.68182261639E+02 -0.12588582317E+03  0.16302437128E+03  0.77000000000E+02 0.  0.
   -5000001    1    1    2    0    0 -0.12324137092E+02 -0.68182261639E+02 -0.19944871273E+03  0.22474317379E+03  0.77000000000E+02 0.  0.
<mgrwt>
<rscale>  0 0.21100026E+03</rscale>
<asrwt>0</asrwt>
<pdfrwt beam="1">  1        2 0.50935861E-01 0.21100026E+03</pdfrwt>
<pdfrwt beam="2">  1       -2 0.44595009E-02 0.21100026E+03</pdfrwt>
<totfact> 0.22225439E+04</totfact>
</mgrwt>
</event>
<event>
 4    1  0.1308644E-003  0.2064553E+03  0.7818608E-02  0.1144404E+00
         -2   -1    0    0    0  501 -0.00000000000E+00  0.00000000000E+00  0.26912428687E+03  0.26912428688E+03  0.25500000000E-02 0. -1.
          2   -1    0    0  501    0  0.00000000000E+00 -0.00000000000E+00 -0.39594893811E+02  0.39594893893E+02  0.25500000000E-02 0.  1.
    5000001    1    1    2    0    0 -0.34550131205E+02 -0.50647041480E+02  0.16129122510E+03  0.18895156435E+03  0.77000000000E+02 0.  0.
   -5000001    1    1    2    0    0  0.34550131205E+02  0.50647041480E+02  0.68238167957E+02  0.11976761642E+03  0.77000000000E+02 0.  0.
<mgrwt>
<rscale>  0 0.20645530E+03</rscale>
<asrwt>0</asrwt>
<pdfrwt beam="1">  1        2 0.56564135E-02 0.20645530E+03</pdfrwt>
<pdfrwt beam="2">  1       -2 0.38446326E-01 0.20645530E+03</pdfrwt>
<totfact> 0.83527951E+03</totfact>
</mgrwt>
</event>
<event>
 4    1  0.1308644E-003  0.2377485E+03  0.7818608E-02  0.1121302E+00
         -2   -1    0    0    0  501 -0.00000000000E+00  0.00000000000E+00  0.20451217434E+02  0.20451217593E+02  0.25500000000E-02 0. -1.
          2   -1    0    0  501    0  0.00000000000E+00 -0.00000000000E+00 -0.69096542949E+03  0.69096542950E+03  0.25500000000E-02 0.  1.
    5000001    1    1    2    0    0 -0.39437919597E+02  0.56136592084E+02 -0.51216851136E+03  0.52244832328E+03  0.77000000000E+02 0.  0.
   -5000001    1    1    2    0    0  0.39437919597E+02 -0.56136592084E+02 -0.15834570070E+03  0.18896832381E+03  0.77000000000E+02 0.  0.
<mgrwt>
<rscale>  0 0.23774847E+03</rscale>
<asrwt>0</asrwt>
<pdfrwt beam="1">  1        2 0.98709333E-01 0.23774847E+03</pdfrwt>
<pdfrwt beam="2">  1       -2 0.29216029E-02 0.23774847E+03</pdfrwt>
<totfact> 0.20241067E+04</totfact>
</mgrwt>
</event>
<event>
 4    1  0.1308644E-003  0.3127444E+03  0.7818608E-02  0.1079038E+00
          2   -1    0    0  501    0  0.00000000000E+00  0.00000000000E+00  0.40903933590E+02  0.40903933669E+02  0.25500000000E-02 0.  1.
         -2   -1    0    0    0  501 -0.00000000000E+00 -0.00000000000E+00 -0.59779756538E+03  0.59779756539E+03  0.25500000000E-02 0. -1.
    5000001    1    1    2    0    0  0.23729160143E+02 -0.13322752427E+03 -0.24880778576E+03  0.29350802462E+03  0.77000000000E+02 0.  0.
   -5000001    1    1    2    0    0 -0.23729160143E+02  0.13322752427E+03 -0.30808584603E+03  0.34519347443E+03  0.77000000000E+02 0.  0.
<mgrwt>
<rscale>  0 0.31274444E+03</rscale>
<asrwt>0</asrwt>
<pdfrwt beam="1">  1        2 0.58434195E-02 0.31274444E+03</pdfrwt>
<pdfrwt beam="2">  1       -2 0.85399647E-01 0.31274444E+03</pdfrwt>
<totfact> 0.15799709E+03</totfact>
</mgrwt>
</event>
<event>
 4    1  0.1308644E-003  0.2615693E+03  0.7818608E-02  0.1106204E+00
          2   -1    0    0  501    0  0.00000000000E+00  0.00000000000E+00  0.14602256052E+02  0.14602256275E+02  0.25500000000E-02 0.  1.
         -2   -1    0    0    0  501 -0.00000000000E+00 -0.00000000000E+00 -0.11713687598E+04  0.11713687598E+04  0.25500000000E-02 0. -1.
    5000001    1    1    2    0    0 -0.58497906780E+02  0.44241763528E+02 -0.23319003261E+03  0.25629266484E+03  0.77000000000E+02 0.  0.
   -5000001    1    1    2    0    0  0.58497906780E+02 -0.44241763528E+02 -0.92357647110E+03  0.92967835121E+03  0.77000000000E+02 0.  0.
<mgrwt>
<rscale>  0 0.26156932E+03</rscale>
<asrwt>0</asrwt>
<pdfrwt beam="1">  1        2 0.20860373E-02 0.26156932E+03</pdfrwt>
<pdfrwt beam="2">  1       -2 0.16733833E+00 0.26156932E+03</pdfrwt>
<totfact> 0.12255873E+03</totfact>
</mgrwt>
</event>
<event>
 4    1  0.1308644E-003  0.2065987E+03  0.7818608E-02  0.1144288E+00
          2   -1    0    0  501    0  0.00000000000E+00  0.00000000000E+00  0.11265433768E+04  0.11265433768E+04  0.25500000000E-02 0.  1.
         -2   -1    0    0    0  501 -0.00000000000E+00 -0.00000000000E+00 -0.94721252223E+01  0.94721255655E+01  0.25500000000E-02 0. -1.
    5000001    1    1    2    0    0 -0.59121810494E+02 -0.10284137860E+02  0.37283010238E+03  0.38539906228E+03  0.77000000000E+02 0.  0.
   -5000001    1    1    2    0    0  0.59121810494E+02  0.10284137860E+02  0.74424114918E+03  0.75061644007E+03  0.77000000000E+02 0.  0.
<mgrwt>
<rscale>  0 0.20659874E+03</rscale>
<asrwt>0</asrwt>
<pdfrwt beam="1">  1        2 0.16093462E+00 0.20659874E+03</pdfrwt>
<pdfrwt beam="2">  1       -2 0.13531620E-02 0.20659874E+03</pdfrwt>
<totfact> 0.33055208E+04</totfact>
</mgrwt>
</event>
<event>
 4    1  0.1308644E-003  0.3684724E+03  0.7818608E-02  0.1055279E+00
          2   -1    0    0  501    0  0.00000000000E+00  0.00000000000E+00  0.28810957715E+04  0.28810957715E+04  0.25500000000E-02 0.  1.
         -2   -1    0    0    0  501 -0.00000000000E+00 -0.00000000000E+00 -0.11781275663E+02  0.11781275939E+02  0.25500000000E-02 0. -1.
    5000001    1    1    2    0    0  0.37419394166E+02 -0.40093796623E+02  0.19314975531E+03  0.21504313884E+03  0.77000000000E+02 0.  0.
   -5000001    1    1    2    0    0 -0.37419394166E+02  0.40093796623E+02  0.26761647406E+04  0.26778339086E+04  0.77000000000E+02 0.  0.
<mgrwt>
<rscale>  0 0.36847244E+03</rscale>
<asrwt>0</asrwt>
<pdfrwt beam="1">  1        2 0.41158566E+00 0.36847244E+03</pdfrwt>
<pdfrwt beam="2">  1       -2 0.16830371E-02 0.36847244E+03</pdfrwt>
<totfact> 0.31742764E+03</totfact>
</mgrwt>
</event>
<event>
 4    1  0.1308644E-003  0.7624735E+03  0.7818608E-02  0.9615982E-01
          2   -1    0    0  501    0  0.00000000000E+00  0.00000000000E+00  0.26506070576E+03  0.26506070577E+03  0.25500000000E-02 0. -1.
         -2   -1    0    0    0  501 -0.00000000000E+00 -0.00000000000E+00 -0.54833271672E+03  0.54833271672E+03  0.25500000000E-02 0.  1.
    5000001    1    1    2    0    0  0.34053625048E+03  0.15304944578E+03 -0.13647712755E+03  0.40490008284E+03  0.77000000000E+02 0.  0.
   -5000001    1    1    2    0    0 -0.34053625048E+03 -0.15304944578E+03 -0.14679488341E+03  0.40849333965E+03  0.77000000000E+02 0.  0.
<mgrwt>
<rscale>  0 0.76247349E+03</rscale>
<asrwt>0</asrwt>
<pdfrwt beam="1">  1        2 0.37865815E-01 0.76247349E+03</pdfrwt>
<pdfrwt beam="2">  1       -2 0.78333245E-01 0.76247349E+03</pdfrwt>
<totfact> 0.20010251E+02</totfact>
</mgrwt>
</event>
<event>
 4    1  0.1308644E-003  0.1821380E+03  0.7818608E-02  0.1165750E+00
          2   -1    0    0  501    0  0.00000000000E+00  0.00000000000E+00  0.17312643640E+04  0.17312643640E+04  0.25500000000E-02 0.  1.
         -2   -1    0    0    0  501 -0.00000000000E+00 -0.00000000000E+00 -0.47904662352E+01  0.47904669139E+01  0.25500000000E-02 0. -1.
    5000001    1    1    2    0    0  0.37783351562E+01  0.23444117450E+02  0.45877386129E+03  0.46579647730E+03  0.77000000000E+02 0.  0.
   -5000001    1    1    2    0    0 -0.37783351562E+01 -0.23444117450E+02  0.12677000365E+04  0.12702583536E+04  0.77000000000E+02 0.  0.
<mgrwt>
<rscale>  0 0.18213801E+03</rscale>
<asrwt>0</asrwt>
<pdfrwt beam="1">  1        2 0.24732396E+00 0.18213801E+03</pdfrwt>
<pdfrwt beam="2">  1       -2 0.68435104E-03 0.18213801E+03</pdfrwt>
<totfact> 0.43059646E+04</totfact>
</mgrwt>
</event>
<event>
 4    1  0.1308644E-003  0.2259557E+03  0.7818608E-02  0.1129519E+00
         -2   -1    0    0    0  501 -0.00000000000E+00  0.00000000000E+00  0.25848694916E+02  0.25848695041E+02  0.25500000000E-02 0. -1.
          2   -1    0    0  501    0  0.00000000000E+00 -0.00000000000E+00 -0.49379651216E+03  0.49379651217E+03  0.25500000000E-02 0.  1.
    5000001    1    1    2    0    0  0.20624128115E+02 -0.59620980812E+02 -0.35685501161E+03  0.37047876502E+03  0.77000000000E+02 0.  0.
   -5000001    1    1    2    0    0 -0.20624128115E+02  0.59620980812E+02 -0.11109280563E+03  0.14916644219E+03  0.77000000000E+02 0.  0.
<mgrwt>
<rscale>  0 0.22595571E+03</rscale>
<asrwt>0</asrwt>
<pdfrwt beam="1">  1        2 0.70542353E-01 0.22595571E+03</pdfrwt>
<pdfrwt beam="2">  1       -2 0.36926710E-02 0.22595571E+03</pdfrwt>
<totfact> 0.20835792E+04</totfact>
</mgrwt>
</event>
<event>
 4    1  0.1308644E-003  0.2031681E+03  0.7818608E-02  0.1147093E+00
          2   -1    0    0  501    0  0.00000000000E+00  0.00000000000E+00  0.37148494985E+03  0.37148494986E+03  0.25500000000E-02 0.  1.
         -2   -1    0    0    0  501 -0.00000000000E+00 -0.00000000000E+00 -0.27778561333E+02  0.27778561450E+02  0.25500000000E-02 0. -1.
    5000001    1    1    2    0    0 -0.54164636244E+02  0.33197290656E+02  0.20885145948E+03  0.23148174886E+03  0.77000000000E+02 0.  0.
   -5000001    1    1    2    0    0  0.54164636244E+02 -0.33197290656E+02  0.13485492904E+03  0.16778176246E+03  0.77000000000E+02 0.  0.
<mgrwt>
<rscale>  0 0.20316808E+03</rscale>
<asrwt>0</asrwt>
<pdfrwt beam="1">  1        2 0.53069274E-01 0.20316808E+03</pdfrwt>
<pdfrwt beam="2">  1       -2 0.39683662E-02 0.20316808E+03</pdfrwt>
<totfact> 0.25267802E+04</totfact>
</mgrwt>
</event>
<event>
 4    1  0.1308644E-003  0.4051472E+03  0.7818608E-02  0.1042012E+00
         -2   -1    0    0    0  501 -0.00000000000E+00  0.00000000000E+00  0.29069756976E+02  0.29069757088E+02  0.25500000000E-02 0. -1.
          2   -1    0    0  501    0  0.00000000000E+00 -0.00000000000E+00 -0.14116407505E+04  0.14116407505E+04  0.25500000000E-02 0.  1.
    5000001    1    1    2    0    0 -0.87815497772E+02 -0.15929671305E+03 -0.53146042540E+03  0.56697988343E+03  0.77000000000E+02 0.  0.
   -5000001    1    1    2    0    0  0.87815497772E+02  0.15929671305E+03 -0.85111056809E+03  0.87373062414E+03  0.77000000000E+02 0.  0.
<mgrwt>
<rscale>  0 0.40514715E+03</rscale>
<asrwt>0</asrwt>
<pdfrwt beam="1">  1        2 0.20166292E+00 0.40514715E+03</pdfrwt>
<pdfrwt beam="2">  1       -2 0.41528233E-02 0.40514715E+03</pdfrwt>
<totfact> 0.45123415E+03</totfact>
</mgrwt>
</event>
<event>
 4    1  0.1308644E-003  0.1837298E+03  0.7818608E-02  0.1164241E+00
          2   -1    0    0  501    0  0.00000000000E+00  0.00000000000E+00  0.17270795211E+04  0.17270795211E+04  0.25500000000E-02 0.  1.
         -2   -1    0    0    0  501 -0.00000000000E+00 -0.00000000000E+00 -0.48863781769E+01  0.48863788423E+01  0.25500000000E-02 0. -1.
    5000001    1    1    2    0    0 -0.18835825300E+02 -0.46393018212E+02  0.87759681141E+03  0.88239008598E+03  0.77000000000E+02 0.  0.
   -5000001    1    1    2    0    0  0.18835825300E+02  0.46393018212E+02  0.84459633156E+03  0.84957581400E+03  0.77000000000E+02 0.  0.
<mgrwt>
<rscale>  0 0.18372985E+03</rscale>
<asrwt>0</asrwt>
<pdfrwt beam="1">  1        2 0.24672544E+00 0.18372985E+03</pdfrwt>
<pdfrwt beam="2">  1       -2 0.69805466E-03 0.18372985E+03</pdfrwt>
<totfact> 0.42074935E+04</totfact>
</mgrwt>
</event>
<event>
 4    1  0.1308644E-003  0.2862598E+03  0.7818608E-02  0.1092318E+00
          2   -1    0    0  501    0  0.00000000000E+00  0.00000000000E+00  0.46692097603E+03  0.46692097604E+03  0.25500000000E-02 0.  1.
         -2   -1    0    0    0  501 -0.00000000000E+00 -0.00000000000E+00 -0.43875015692E+02  0.43875015766E+02  0.25500000000E-02 0. -1.
    5000001    1    1    2    0    0  0.86824674605E+02  0.23144795674E+02  0.67850428909E+02  0.13640706136E+03  0.77000000000E+02 0.  0.
   -5000001    1    1    2    0    0 -0.86824674605E+02 -0.23144795674E+02  0.35519553143E+03  0.37438893044E+03  0.77000000000E+02 0.  0.
<mgrwt>
<rscale>  0 0.28625978E+03</rscale>
<asrwt>0</asrwt>
<pdfrwt beam="1">  1        2 0.66702998E-01 0.28625978E+03</pdfrwt>
<pdfrwt beam="2">  1       -2 0.62678592E-02 0.28625978E+03</pdfrwt>
<totfact> 0.10059650E+04</totfact>
</mgrwt>
</event>
<event>
 4    1  0.1308644E-003  0.4046716E+03  0.7818608E-02  0.1042174E+00
         -2   -1    0    0    0  501 -0.00000000000E+00  0.00000000000E+00  0.10941555405E+03  0.10941555408E+03  0.25500000000E-02 0. -1.
          2   -1    0    0  501    0  0.00000000000E+00 -0.00000000000E+00 -0.37416784632E+03  0.37416784633E+03  0.25500000000E-02 0.  1.
    5000001    1    1    2    0    0  0.53484938125E+02 -0.16940515085E+03 -0.62164939106E+02  0.20335246100E+03  0.77000000000E+02 0.  0.
   -5000001    1    1    2    0    0 -0.53484938125E+02  0.16940515085E+03 -0.20258735317E+03  0.28023093941E+03  0.77000000000E+02 0.  0.
<mgrwt>
<rscale>  0 0.40467163E+03</rscale>
<asrwt>0</asrwt>
<pdfrwt beam="1">  1        2 0.53452549E-01 0.40467163E+03</pdfrwt>
<pdfrwt beam="2">  1       -2 0.15630794E-01 0.40467163E+03</pdfrwt>
<totfact> 0.29985261E+03</totfact>
</mgrwt>
</event>
<event>
 4    1  0.1308644E-003  0.7212835E+03  0.7818608E-02  0.9681511E-01
          2   -1    0    0  501    0  0.00000000000E+00  0.00000000000E+00  0.13551322147E+04  0.13551322147E+04  0.25500000000E-02 0.  1.
         -2   -1    0    0    0  501 -0.00000000000E+00 -0.00000000000E+00 -0.95977702280E+02  0.95977702314E+02  0.25500000000E-02 0. -1.
    5000001    1    1    2    0    0  0.11442733924E+03  0.30229871315E+03  0.34752168799E+03  0.48081020326E+03  0.77000000000E+02 0.  0.
   -5000001    1    1    2    0    0 -0.11442733924E+03 -0.30229871315E+03  0.91163282440E+03  0.97029971373E+03  0.77000000000E+02 0.  0.
<mgrwt>
<rscale>  0 0.72128351E+03</rscale>
<asrwt>0</asrwt>
<pdfrwt beam="1">  1        2 0.19359031E+00 0.72128351E+03</pdfrwt>
<pdfrwt beam="2">  1       -2 0.13711101E-01 0.72128351E+03</pdfrwt>
<totfact> 0.71943577E+02</totfact>
</mgrwt>
</event>
<event>
 4    1  0.1308644E-003  0.1664363E+03  0.7818608E-02  0.1181616E+00
         -2   -1    0    0    0  501 -0.00000000000E+00  0.00000000000E+00  0.13506896224E+02  0.13506896465E+02  0.25500000000E-02 0. -1.
          2   -1    0    0  501    0  0.00000000000E+00 -0.00000000000E+00 -0.51272046905E+03  0.51272046905E+03  0.25500000000E-02 0.  1.
    5000001    1    1    2    0    0  0.11371823083E+02 -0.29401867059E+02 -0.25457994943E+03  0.26783154930E+03  0.77000000000E+02 0.  0.
   -5000001    1    1    2    0    0 -0.11371823083E+02  0.29401867059E+02 -0.24463362340E+03  0.25839581622E+03  0.77000000000E+02 0.  0.
<mgrwt>
<rscale>  0 0.16643632E+03</rscale>
<asrwt>0</asrwt>
<pdfrwt beam="1">  1        2 0.73245769E-01 0.16643632E+03</pdfrwt>
<pdfrwt beam="2">  1       -2 0.19295569E-02 0.16643632E+03</pdfrwt>
<totfact> 0.50752405E+04</totfact>
</mgrwt>
</event>
<event>
 4    1  0.1308644E-003  0.1922669E+03  0.7818608E-02  0.1156432E+00
         -2   -1    0    0    0  501 -0.00000000000E+00  0.00000000000E+00  0.73453645523E+01  0.73453649949E+01  0.25500000000E-02 0. -1.
          2   -1    0    0  501    0  0.00000000000E+00 -0.00000000000E+00 -0.12581600051E+04  0.12581600051E+04  0.25500000000E-02 0.  1.
    5000001    1    1    2    0    0  0.19823732391E+02 -0.46489974492E+02 -0.44415102424E+03  0.45360051855E+03  0.77000000000E+02 0.  0.
   -5000001    1    1    2    0    0 -0.19823732391E+02  0.46489974492E+02 -0.80666361634E+03  0.81190485158E+03  0.77000000000E+02 0.  0.
<mgrwt>
<rscale>  0 0.19226694E+03</rscale>
<asrwt>0</asrwt>
<pdfrwt beam="1">  1        2 0.17973701E+00 0.19226694E+03</pdfrwt>
<pdfrwt beam="2">  1       -2 0.10493386E-02 0.19226694E+03</pdfrwt>
<totfact> 0.40357098E+04</totfact>
</mgrwt>
</event>
<event>
 4    1  0.1308644E-003  0.2151020E+03  0.7818608E-02  0.1137588E+00
          2   -1    0    0  501    0  0.00000000000E+00  0.00000000000E+00  0.34788037636E+03  0.34788037637E+03  0.25500000000E-02 0.  1.
         -2   -1    0    0    0  501 -0.00000000000E+00 -0.00000000000E+00 -0.33250575322E+02  0.33250575420E+02  0.25500000000E-02 0. -1.
    5000001    1    1    2    0    0  0.26448402227E+00  0.65535287142E+02  0.22225497264E+03  0.24417456189E+03  0.77000000000E+02 0.  0.
   -5000001    1    1    2    0    0 -0.26448402227E+00 -0.65535287142E+02  0.92374828406E+02  0.13695638990E+03  0.77000000000E+02 0.  0.
<mgrwt>
<rscale>  0 0.21510205E+03</rscale>
<asrwt>0</asrwt>
<pdfrwt beam="1">  1        2 0.49697197E-01 0.21510205E+03</pdfrwt>
<pdfrwt beam="2">  1       -2 0.47500822E-02 0.21510205E+03</pdfrwt>
<totfact> 0.20776707E+04</totfact>
</mgrwt>
</event>
<event>
 4    1  0.1308644E-003  0.2162456E+03  0.7818608E-02  0.1136713E+00
         -2   -1    0    0    0  501 -0.00000000000E+00  0.00000000000E+00  0.35579705729E+03  0.35579705730E+03  0.25500000000E-02 0. -1.
          2   -1    0    0  501    0  0.00000000000E+00 -0.00000000000E+00 -0.32857338917E+02  0.32857339016E+02  0.25500000000E-02 0.  1.
    5000001    1    1    2    0    0  0.41882810502E+02  0.39343277841E+02  0.25060274585E+03  0.26838926870E+03  0.77000000000E+02 0.  0.
   -5000001    1    1    2    0    0 -0.41882810502E+02 -0.39343277841E+02  0.72336972531E+02  0.12026512762E+03  0.77000000000E+02 0.  0.
<mgrwt>
<rscale>  0 0.21624564E+03</rscale>
<asrwt>0</asrwt>
<pdfrwt beam="1">  1        2 0.46939051E-02 0.21624564E+03</pdfrwt>
<pdfrwt beam="2">  1       -2 0.50828156E-01 0.21624564E+03</pdfrwt>
<totfact> 0.62249664E+03</totfact>
</mgrwt>
</event>
<event>
 4    1  0.1308644E-003  0.3115892E+03  0.7818608E-02  0.1079587E+00
          2   -1    0    0  501    0  0.00000000000E+00  0.00000000000E+00  0.32230321842E+02  0.32230321943E+02  0.25500000000E-02 0.  1.
         -2   -1    0    0    0  501 -0.00000000000E+00 -0.00000000000E+00 -0.75307828270E+03  0.75307828270E+03  0.25500000000E-02 0. -1.
    5000001    1    1    2    0    0  0.96771963003E+02 -0.94603606066E+02 -0.37383167054E+03  0.40496144632E+03  0.77000000000E+02 0.  0.
   -5000001    1    1    2    0    0 -0.96771963003E+02  0.94603606066E+02 -0.34701629031E+03  0.38034715832E+03  0.77000000000E+02 0.  0.
<mgrwt>
<rscale>  0 0.31158919E+03</rscale>
<asrwt>0</asrwt>
<pdfrwt beam="1">  1        2 0.46043321E-02 0.31158919E+03</pdfrwt>
<pdfrwt beam="2">  1       -2 0.10758260E+00 0.31158919E+03</pdfrwt>
<totfact> 0.12717411E+03</totfact>
</mgrwt>
</event>
<event>
 4    1  0.1308644E-003  0.4156280E+03  0.7818608E-02  0.1038499E+00
         -2   -1    0    0    0  501 -0.00000000000E+00  0.00000000000E+00  0.91874110446E+02  0.91874110481E+02  0.25500000000E-02 0.  1.
          2   -1    0    0  501    0  0.00000000000E+00 -0.00000000000E+00 -0.47006350113E+03  0.47006350114E+03  0.25500000000E-02 0. -1.
    5000001    1    1    2    0    0 -0.18242347797E+03  0.57715097995E+02 -0.15466968993E+03  0.25780044770E+03  0.77000000000E+02 0.  0.
   -5000001    1    1    2    0    0  0.18242347797E+03 -0.57715097995E+02 -0.22351970076E+03  0.30413716392E+03  0.77000000000E+02 0.  0.
<mgrwt>
<rscale>  0 0.41562804E+03</rscale>
<asrwt>0</asrwt>
<pdfrwt beam="1">  1        2 0.67151927E-01 0.41562804E+03</pdfrwt>
<pdfrwt beam="2">  1       -2 0.13124873E-01 0.41562804E+03</pdfrwt>
<totfact> 0.31181071E+03</totfact>
</mgrwt>
</event>
<event>
 4    1  0.1308644E-003  0.2180216E+03  0.7818608E-02  0.1135367E+00
         -2   -1    0    0    0  501 -0.00000000000E+00  0.00000000000E+00  0.40754685611E+01  0.40754693588E+01  0.25500000000E-02 0. -1.
          2   -1    0    0  501    0  0.00000000000E+00 -0.00000000000E+00 -0.29158242770E+04  0.29158242770E+04  0.25500000000E-02 0.  1.
    5000001    1    1    2    0    0 -0.71828394416E+02  0.39228744741E+01 -0.18298271167E+04  0.18328586918E+04  0.77000000000E+02 0.  0.
   -5000001    1    1    2    0    0  0.71828394416E+02 -0.39228744741E+01 -0.10819216917E+04  0.10870410545E+04  0.77000000000E+02 0.  0.
<mgrwt>
<rscale>  0 0.21802157E+03</rscale>
<asrwt>0</asrwt>
<pdfrwt beam="1">  1        2 0.41654499E+00 0.21802157E+03</pdfrwt>
<pdfrwt beam="2">  1       -2 0.58221172E-03 0.21802157E+03</pdfrwt>
<totfact> 0.14300567E+04</totfact>
</mgrwt>
</event>
<event>
 4    1  0.1308644E-003  0.2138693E+03  0.7818608E-02  0.1138538E+00
          2   -1    0    0  501    0  0.00000000000E+00  0.00000000000E+00  0.38206593794E+04  0.38206593794E+04  0.25500000000E-02 0.  1.
         -2   -1    0    0    0  501 -0.00000000000E+00 -0.00000000000E+00 -0.29929424519E+01  0.29929435382E+01  0.25500000000E-02 0. -1.
    5000001    1    1    2    0    0  0.42544207424E+02  0.60555015245E+02  0.18123951069E+04  0.18155390227E+04  0.77000000000E+02 0.  0.
   -5000001    1    1    2    0    0 -0.42544207424E+02 -0.60555015245E+02  0.20052713300E+04  0.20081133002E+04  0.77000000000E+02 0.  0.
<mgrwt>
<rscale>  0 0.21386927E+03</rscale>
<asrwt>0</asrwt>
<pdfrwt beam="1">  1        2 0.54580850E+00 0.21386927E+03</pdfrwt>
<pdfrwt beam="2">  1       -2 0.42756327E-03 0.21386927E+03</pdfrwt>
<totfact> 0.68833585E+03</totfact>
</mgrwt>
</event>
<event>
 4    1  0.1308644E-003  0.2995212E+03  0.7818608E-02  0.1085480E+00
         -2   -1    0    0    0  501 -0.00000000000E+00  0.00000000000E+00  0.26414223031E+03  0.26414223032E+03  0.25500000000E-02 0. -1.
          2   -1    0    0  501    0  0.00000000000E+00 -0.00000000000E+00 -0.84909689889E+02  0.84909689927E+02  0.25500000000E-02 0.  1.
    5000001    1    1    2    0    0  0.11746420286E+03 -0.24127153011E+02  0.35967930056E+02  0.14697840133E+03  0.77000000000E+02 0.  0.
   -5000001    1    1    2    0    0 -0.11746420286E+03  0.24127153011E+02  0.14326461037E+03  0.20207351892E+03  0.77000000000E+02 0.  0.
<mgrwt>
<rscale>  0 0.29952118E+03</rscale>
<asrwt>0</asrwt>
<pdfrwt beam="1">  1        2 0.12129956E-01 0.29952118E+03</pdfrwt>
<pdfrwt beam="2">  1       -2 0.37734605E-01 0.29952118E+03</pdfrwt>
<totfact> 0.33563742E+03</totfact>
</mgrwt>
</event>
<event>
 4    1  0.1308644E-003  0.4345904E+03  0.7818608E-02  0.1032420E+00
         -2   -1    0    0    0  501 -0.00000000000E+00  0.00000000000E+00  0.44137783826E+02  0.44137783899E+02  0.25500000000E-02 0. -1.
          2   -1    0    0  501    0  0.00000000000E+00 -0.00000000000E+00 -0.10697682820E+04  0.10697682820E+04  0.25500000000E-02 0.  1.
    5000001    1    1    2    0    0  0.19716139644E+03 -0.45575717113E+02 -0.55996817451E+03  0.60036915202E+03  0.77000000000E+02 0.  0.
   -5000001    1    1    2    0    0 -0.19716139644E+03  0.45575717113E+02 -0.46566232364E+03  0.51353691385E+03  0.77000000000E+02 0.  0.
<mgrwt>
<rscale>  0 0.43459039E+03</rscale>
<asrwt>0</asrwt>
<pdfrwt beam="1">  1        2 0.15282402E+00 0.43459039E+03</pdfrwt>
<pdfrwt beam="2">  1       -2 0.63053984E-02 0.43459039E+03</pdfrwt>
<totfact> 0.36516318E+03</totfact>
</mgrwt>
</event>
<event>
 4    1  0.1308644E-003  0.2413822E+03  0.7818608E-02  0.1118875E+00
         -2   -1    0    0    0  501 -0.00000000000E+00  0.00000000000E+00  0.62416816763E+02  0.62416816815E+02  0.25500000000E-02 0. -1.
          2   -1    0    0  501    0  0.00000000000E+00 -0.00000000000E+00 -0.23337207807E+03  0.23337207809E+03  0.25500000000E-02 0.  1.
    5000001    1    1    2    0    0 -0.53437985555E+02  0.70171558458E+02 -0.49590533858E+02  0.12715300612E+03  0.77000000000E+02 0.  0.
   -5000001    1    1    2    0    0  0.53437985555E+02 -0.70171558458E+02 -0.12136472745E+03  0.16863588879E+03  0.77000000000E+02 0.  0.
<mgrwt>
<rscale>  0 0.24138221E+03</rscale>
<asrwt>0</asrwt>
<pdfrwt beam="1">  1        2 0.33338868E-01 0.24138221E+03</pdfrwt>
<pdfrwt beam="2">  1       -2 0.89166882E-02 0.24138221E+03</pdfrwt>
<totfact> 0.12204406E+04</totfact>
</mgrwt>
</event>
<event>
 4    1  0.1308644E-003  0.1979645E+03  0.7818608E-02  0.1151468E+00
          2   -1    0    0  501    0  0.00000000000E+00  0.00000000000E+00  0.12736001711E+03  0.12736001714E+03  0.25500000000E-02 0.  1.
         -2   -1    0    0    0  501 -0.00000000000E+00 -0.00000000000E+00 -0.76927468541E+02  0.76927468583E+02  0.25500000000E-02 0. -1.
    5000001    1    1    2    0    0  0.36897950328E+02 -0.34404394747E+02  0.62756244264E+02  0.11141125307E+03  0.77000000000E+02 0.  0.
   -5000001    1    1    2    0    0 -0.36897950328E+02  0.34404394747E+02 -0.12323695691E+02  0.92876232653E+02  0.77000000000E+02 0.  0.
<mgrwt>
<rscale>  0 0.19796448E+03</rscale>
<asrwt>0</asrwt>
<pdfrwt beam="1">  1        2 0.18194288E-01 0.19796448E+03</pdfrwt>
<pdfrwt beam="2">  1       -2 0.10989638E-01 0.19796448E+03</pdfrwt>
<totfact> 0.17012345E+04</totfact>
</mgrwt>
</event>
<event>
 4    1  0.1308644E-003  0.3396485E+03  0.7818608E-02  0.1066946E+00
         -2   -1    0    0    0  501 -0.00000000000E+00  0.00000000000E+00  0.49487627595E+02  0.49487627660E+02  0.25500000000E-02 0. -1.
          2   -1    0    0  501    0  0.00000000000E+00 -0.00000000000E+00 -0.58277740863E+03  0.58277740863E+03  0.25500000000E-02 0.  1.
    5000001    1    1    2    0    0 -0.69206932603E+02 -0.13209999093E+03 -0.21841500135E+03  0.27545257294E+03  0.77000000000E+02 0.  0.
   -5000001    1    1    2    0    0  0.69206932603E+02  0.13209999093E+03 -0.31487477968E+03  0.35681246335E+03  0.77000000000E+02 0.  0.
<mgrwt>
<rscale>  0 0.33964847E+03</rscale>
<asrwt>0</asrwt>
<pdfrwt beam="1">  1        2 0.83253911E-01 0.33964847E+03</pdfrwt>
<pdfrwt beam="2">  1       -2 0.70696614E-02 0.33964847E+03</pdfrwt>
<totfact> 0.65516672E+03</totfact>
</mgrwt>
</event>
<event>
 4    1  0.1308644E-003  0.4988794E+03  0.7818608E-02  0.1014072E+00
         -2   -1    0    0    0  501 -0.00000000000E+00  0.00000000000E+00  0.15010831285E+02  0.15010831502E+02  0.25500000000E-02 0. -1.
          2   -1    0    0  501    0  0.00000000000E+00 -0.00000000000E+00 -0.41450172272E+04  0.41450172272E+04  0.25500000000E-02 0.  1.
    5000001    1    1    2    0    0 -0.95447080208E+02 -0.19996711362E+03 -0.13577240412E+04  0.13778390921E+04  0.77000000000E+02 0.  0.
   -5000001    1    1    2    0    0  0.95447080208E+02  0.19996711362E+03 -0.27722823547E+04  0.27821889666E+04  0.77000000000E+02 0.  0.
<mgrwt>
<rscale>  0 0.49887936E+03</rscale>
<asrwt>0</asrwt>
<pdfrwt beam="1">  1        2 0.59214459E+00 0.49887936E+03</pdfrwt>
<pdfrwt beam="2">  1       -2 0.21444071E-02 0.49887936E+03</pdfrwt>
<totfact> 0.38474439E+02</totfact>
</mgrwt>
</event>
<event>
 4    1  0.1308644E-003  0.1822638E+03  0.7818608E-02  0.1165630E+00
         -2   -1    0    0    0  501 -0.00000000000E+00  0.00000000000E+00  0.97484068055E+02  0.97484068088E+02  0.25500000000E-02 0. -1.
          2   -1    0    0  501    0  0.00000000000E+00 -0.00000000000E+00 -0.85193683086E+02  0.85193683124E+02  0.25500000000E-02 0.  1.
    5000001    1    1    2    0    0 -0.40994710069E+02  0.21128938932E+02  0.21961666106E+02  0.92402992875E+02  0.77000000000E+02 0.  0.
   -5000001    1    1    2    0    0  0.40994710069E+02 -0.21128938932E+02 -0.96712811369E+01  0.90274758338E+02  0.77000000000E+02 0.  0.
<mgrwt>
<rscale>  0 0.18226384E+03</rscale>
<asrwt>0</asrwt>
<pdfrwt beam="1">  1        2 0.12170526E-01 0.18226384E+03</pdfrwt>
<pdfrwt beam="2">  1       -2 0.13926296E-01 0.18226384E+03</pdfrwt>
<totfact> 0.18543229E+04</totfact>
</mgrwt>
</event>
<event>
 4    1  0.1308644E-003  0.2276318E+03  0.7818608E-02  0.1128318E+00
         -2   -1    0    0    0  501 -0.00000000000E+00  0.00000000000E+00  0.59403431832E+01  0.59403437305E+01  0.25500000000E-02 0. -1.
          2   -1    0    0  501    0  0.00000000000E+00 -0.00000000000E+00 -0.21806916334E+04  0.21806916334E+04  0.25500000000E-02 0.  1.
    5000001    1    1    2    0    0  0.42894462405E+02  0.60707934119E+02 -0.14593735685E+04  0.14632927256E+04  0.77000000000E+02 0.  0.
   -5000001    1    1    2    0    0 -0.42894462405E+02 -0.60707934119E+02 -0.71537772166E+03  0.72333925154E+03  0.77000000000E+02 0.  0.
<mgrwt>
<rscale>  0 0.22763178E+03</rscale>
<asrwt>0</asrwt>
<pdfrwt beam="1">  1        2 0.31152686E+00 0.22763178E+03</pdfrwt>
<pdfrwt beam="2">  1       -2 0.84862189E-03 0.22763178E+03</pdfrwt>
<totfact> 0.19384769E+04</totfact>
</mgrwt>
</event>
<event>
 4    1  0.1308644E-003  0.1806734E+03  0.7818608E-02  0.1167153E+00
         -2   -1    0    0    0  501 -0.00000000000E+00  0.00000000000E+00  0.71443390716E+03  0.71443390716E+03  0.25500000000E-02 0. -1.
          2   -1    0    0  501    0  0.00000000000E+00 -0.00000000000E+00 -0.11422640961E+02  0.11422641246E+02  0.25500000000E-02 0.  1.
    5000001    1    1    2    0    0  0.78700138563E+01 -0.43793912218E+02  0.28774511411E+03  0.30117452508E+03  0.77000000000E+02 0.  0.
   -5000001    1    1    2    0    0 -0.78700138563E+01  0.43793912218E+02  0.41526615209E+03  0.42468202333E+03  0.77000000000E+02 0.  0.
<mgrwt>
<rscale>  0 0.18067343E+03</rscale>
<asrwt>0</asrwt>
<pdfrwt beam="1">  1        2 0.16318052E-02 0.18067343E+03</pdfrwt>
<pdfrwt beam="2">  1       -2 0.10206203E+00 0.18067343E+03</pdfrwt>
<totfact> 0.57518966E+03</totfact>
</mgrwt>
</event>
<event>
 4    1  0.1308644E-003  0.4214755E+03  0.7818608E-02  0.1036587E+00
         -2   -1    0    0    0  501 -0.00000000000E+00  0.00000000000E+00  0.37600359385E+02  0.37600359472E+02  0.25500000000E-02 0. -1.
          2   -1    0    0  501    0  0.00000000000E+00 -0.00000000000E+00 -0.11811161701E+04  0.11811161701E+04  0.25500000000E-02 0.  1.
    5000001    1    1    2    0    0 -0.13328262823E+03  0.14156009170E+03 -0.49647352490E+03  0.53871929562E+03  0.77000000000E+02 0.  0.
   -5000001    1    1    2    0    0  0.13328262823E+03 -0.14156009170E+03 -0.64704228582E+03  0.67999723396E+03  0.77000000000E+02 0.  0.
<mgrwt>
<rscale>  0 0.42147547E+03</rscale>
<asrwt>0</asrwt>
<pdfrwt beam="1">  1        2 0.16873086E+00 0.42147547E+03</pdfrwt>
<pdfrwt beam="2">  1       -2 0.53714806E-02 0.42147547E+03</pdfrwt>
<totfact> 0.40461004E+03</totfact>
</mgrwt>
</event>
<event>
 4    1  0.1308644E-003  0.2196624E+03  0.7818608E-02  0.1134135E+00
         -2   -1    0    0    0  501 -0.00000000000E+00  0.00000000000E+00  0.64396700382E+02  0.64396700432E+02  0.25500000000E-02 0. -1.
          2   -1    0    0  501    0  0.00000000000E+00 -0.00000000000E+00 -0.18732163454E+03  0.18732163455E+03  0.25500000000E-02 0.  1.
    5000001    1    1    2    0    0 -0.21970302734E+02  0.55267497783E+02 -0.30681804708E+01  0.97342715417E+02  0.77000000000E+02 0.  0.
   -5000001    1    1    2    0    0  0.21970302734E+02 -0.55267497783E+02 -0.11985675368E+03  0.15437561957E+03  0.77000000000E+02 0.  0.
<mgrwt>
<rscale>  0 0.21966242E+03</rscale>
<asrwt>0</asrwt>
<pdfrwt beam="1">  1        2 0.26760233E-01 0.21966242E+03</pdfrwt>
<pdfrwt beam="2">  1       -2 0.91995287E-02 0.21966242E+03</pdfrwt>
<totfact> 0.14697478E+04</totfact>
</mgrwt>
</event>
<event>
 4    1  0.1308644E-003  0.2492517E+03  0.7818608E-02  0.1113779E+00
          2   -1    0    0  501    0  0.00000000000E+00  0.00000000000E+00  0.50026251697E+03  0.50026251697E+03  0.25500000000E-02 0.  1.
         -2   -1    0    0    0  501 -0.00000000000E+00 -0.00000000000E+00 -0.31046914869E+02  0.31046914974E+02  0.25500000000E-02 0. -1.
    5000001    1    1    2    0    0  0.42122037002E+02 -0.41190619299E+02  0.40152414940E+03  0.41306364603E+03  0.77000000000E+02 0.  0.
   -5000001    1    1    2    0    0 -0.42122037002E+02  0.41190619299E+02  0.67691452700E+02  0.11824578592E+03  0.77000000000E+02 0.  0.
<mgrwt>
<rscale>  0 0.24925174E+03</rscale>
<asrwt>0</asrwt>
<pdfrwt beam="1">  1        2 0.71466070E-01 0.24925174E+03</pdfrwt>
<pdfrwt beam="2">  1       -2 0.44352738E-02 0.24925174E+03</pdfrwt>
<totfact> 0.15690024E+04</totfact>
</mgrwt>
</event>
<event>
 4    1  0.1308644E-003  0.1962500E+03  0.7818608E-02  0.1152942E+00
         -2   -1    0    0    0  501 -0.00000000000E+00  0.00000000000E+00  0.81094987573E+01  0.81094991582E+01  0.25500000000E-02 0. -1.
          2   -1    0    0  501    0  0.00000000000E+00 -0.00000000000E+00 -0.11873130758E+04  0.11873130758E+04  0.25500000000E-02 0.  1.
    5000001    1    1    2    0    0  0.48024137801E+02 -0.37323717531E+02 -0.59185188524E+03  0.59993085582E+03  0.77000000000E+02 0.  0.
   -5000001    1    1    2    0    0 -0.48024137801E+02  0.37323717531E+02 -0.58735169176E+03  0.59549171910E+03  0.77000000000E+02 0.  0.
<mgrwt>
<rscale>  0 0.19624999E+03</rscale>
<asrwt>0</asrwt>
<pdfrwt beam="1">  1        2 0.16961604E+00 0.19624999E+03</pdfrwt>
<pdfrwt beam="2">  1       -2 0.11585006E-02 0.19624999E+03</pdfrwt>
<totfact> 0.38214367E+04</totfact>
</mgrwt>
</event>
<event>
 4    1  0.1308644E-003  0.2057378E+03  0.7818608E-02  0.1144986E+00
          2   -1    0    0  501    0  0.00000000000E+00  0.00000000000E+00  0.13814649640E+04  0.13814649640E+04  0.25500000000E-02 0.  1.
         -2   -1    0    0    0  501 -0.00000000000E+00 -0.00000000000E+00 -0.76599920050E+01  0.76599924295E+01  0.25500000000E-02 0. -1.
    5000001    1    1    2    0    0  0.36272357809E+02 -0.39608439636E+02  0.97084443387E+03  0.97537296826E+03  0.77000000000E+02 0.  0.
   -5000001    1    1    2    0    0 -0.36272357809E+02  0.39608439636E+02  0.40296053809E+03  0.41375198814E+03  0.77000000000E+02 0.  0.
<mgrwt>
<rscale>  0 0.20573780E+03</rscale>
<asrwt>0</asrwt>
<pdfrwt beam="1">  1        2 0.19735205E+00 0.20573780E+03</pdfrwt>
<pdfrwt beam="2">  1       -2 0.10942851E-02 0.20573780E+03</pdfrwt>
<totfact> 0.32937341E+04</totfact>
</mgrwt>
</event>
<event>
 4    1  0.1308644E-003  0.2216079E+03  0.7818608E-02  0.1132690E+00
         -2   -1    0    0    0  501 -0.00000000000E+00  0.00000000000E+00  0.35514851568E+02  0.35514851660E+02  0.25500000000E-02 0. -1.
          2   -1    0    0  501    0  0.00000000000E+00 -0.00000000000E+00 -0.34570087561E+03  0.34570087562E+03  0.25500000000E-02 0.  1.
    5000001    1    1    2    0    0 -0.16165209935E+02 -0.76835705101E+02 -0.17839402832E+03  0.20956733746E+03  0.77000000000E+02 0.  0.
   -5000001    1    1    2    0    0  0.16165209935E+02  0.76835705101E+02 -0.13179199572E+03  0.17164838982E+03  0.77000000000E+02 0.  0.
<mgrwt>
<rscale>  0 0.22160790E+03</rscale>
<asrwt>0</asrwt>
<pdfrwt beam="1">  1        2 0.49385837E-01 0.22160790E+03</pdfrwt>
<pdfrwt beam="2">  1       -2 0.50735504E-02 0.22160790E+03</pdfrwt>
<totfact> 0.18972153E+04</totfact>
</mgrwt>
</event>
<event>
 4    1  0.1308644E-003  0.4483508E+03  0.7818608E-02  0.1028215E+00
          2   -1    0    0  501    0  0.00000000000E+00  0.00000000000E+00  0.21765277661E+03  0.21765277663E+03  0.25500000000E-02 0.  1.
         -2   -1    0    0    0  501 -0.00000000000E+00 -0.00000000000E+00 -0.23089354038E+03  0.23089354039E+03  0.25500000000E-02 0. -1.
    5000001    1    1    2    0    0  0.58459010261E+02 -0.18609511242E+03 -0.85881013341E+02  0.22661287519E+03  0.77000000000E+02 0.  0.
   -5000001    1    1    2    0    0 -0.58459010261E+02  0.18609511242E+03  0.72640249573E+02  0.22193344184E+03  0.77000000000E+02 0.  0.
<mgrwt>
<rscale>  0 0.44835085E+03</rscale>
<asrwt>0</asrwt>
<pdfrwt beam="1">  1        2 0.31093254E-01 0.44835085E+03</pdfrwt>
<pdfrwt beam="2">  1       -2 0.32984791E-01 0.44835085E+03</pdfrwt>
<totfact> 0.14588942E+03</totfact>
</mgrwt>
</event>
<event>
 4    1  0.1308644E-003  0.2648709E+03  0.7818608E-02  0.1104251E+00
         -2   -1    0    0    0  501 -0.00000000000E+00  0.00000000000E+00  0.98403563086E+01  0.98403566390E+01  0.25500000000E-02 0. -1.
          2   -1    0    0  501    0  0.00000000000E+00 -0.00000000000E+00 -0.17823698726E+04  0.17823698726E+04  0.25500000000E-02 0.  1.
    5000001    1    1    2    0    0  0.15538167943E+02  0.10467863656E+03 -0.10234571751E+04  0.10317909870E+04  0.77000000000E+02 0.  0.
   -5000001    1    1    2    0    0 -0.15538167943E+02 -0.10467863656E+03 -0.74907234115E+03  0.76041924218E+03  0.77000000000E+02 0.  0.
<mgrwt>
<rscale>  0 0.26487095E+03</rscale>
<asrwt>0</asrwt>
<pdfrwt beam="1">  1        2 0.25462406E+00 0.26487095E+03</pdfrwt>
<pdfrwt beam="2">  1       -2 0.14057663E-02 0.26487095E+03</pdfrwt>
<totfact> 0.14624695E+04</totfact>
</mgrwt>
</event>
<event>
 4    1  0.1308644E-003  0.2553479E+03  0.7818608E-02  0.1109971E+00
          2   -1    0    0  501    0  0.00000000000E+00  0.00000000000E+00  0.18298444162E+03  0.18298444164E+03  0.25500000000E-02 0.  1.
         -2   -1    0    0    0  501 -0.00000000000E+00 -0.00000000000E+00 -0.89082122937E+02  0.89082122973E+02  0.25500000000E-02 0. -1.
    5000001    1    1    2    0    0  0.84353712456E+02  0.27541393782E+02  0.10019890748E+03  0.15441145760E+03  0.77000000000E+02 0.  0.
   -5000001    1    1    2    0    0 -0.84353712456E+02 -0.27541393782E+02 -0.62965887966E+01  0.11765510702E+03  0.77000000000E+02 0.  0.
<mgrwt>
<rscale>  0 0.25534794E+03</rscale>
<asrwt>0</asrwt>
<pdfrwt beam="1">  1        2 0.26140634E-01 0.25534794E+03</pdfrwt>
<pdfrwt beam="2">  1       -2 0.12726018E-01 0.25534794E+03</pdfrwt>
<totfact> 0.90608663E+03</totfact>
</mgrwt>
</event>
<event>
 4    1  0.1308644E-003  0.2620072E+03  0.7818608E-02  0.1105943E+00
         -2   -1    0    0    0  501 -0.00000000000E+00  0.00000000000E+00  0.18964391513E+02  0.18964391684E+02  0.25500000000E-02 0. -1.
          2   -1    0    0  501    0  0.00000000000E+00 -0.00000000000E+00 -0.90495627331E+03  0.90495627331E+03  0.25500000000E-02 0.  1.
    5000001    1    1    2    0    0 -0.86019784813E+02 -0.56900353115E+02 -0.35691538617E+03  0.37941355596E+03  0.77000000000E+02 0.  0.
   -5000001    1    1    2    0    0  0.86019784813E+02  0.56900353115E+02 -0.52907649563E+03  0.54450710904E+03  0.77000000000E+02 0.  0.
<mgrwt>
<rscale>  0 0.26200721E+03</rscale>
<asrwt>0</asrwt>
<pdfrwt beam="1">  1        2 0.12927944E+00 0.26200721E+03</pdfrwt>
<pdfrwt beam="2">  1       -2 0.27091994E-02 0.26200721E+03</pdfrwt>
<totfact> 0.16314618E+04</totfact>
</mgrwt>
</event>
<event>
 4    1  0.1308644E-003  0.2537114E+03  0.7818608E-02  0.1110982E+00
         -2   -1    0    0    0  501 -0.00000000000E+00  0.00000000000E+00  0.33842516791E+03  0.33842516792E+03  0.25500000000E-02 0. -1.
          2   -1    0    0  501    0  0.00000000000E+00 -0.00000000000E+00 -0.47550741845E+02  0.47550741914E+02  0.25500000000E-02 0.  1.
    5000001    1    1    2    0    0  0.55037105274E+02  0.71933742216E+01  0.27346809979E+03  0.28947301980E+03  0.77000000000E+02 0.  0.
   -5000001    1    1    2    0    0 -0.55037105274E+02 -0.71933742216E+01  0.17406326271E+02  0.96502890029E+02  0.77000000000E+02 0.  0.
<mgrwt>
<rscale>  0 0.25371139E+03</rscale>
<asrwt>0</asrwt>
<pdfrwt beam="1">  1        2 0.67929632E-02 0.25371139E+03</pdfrwt>
<pdfrwt beam="2">  1       -2 0.48346452E-01 0.25371139E+03</pdfrwt>
<totfact> 0.42770000E+03</totfact>
</mgrwt>
</event>
<event>
 4    1  0.1308644E-003  0.1934915E+03  0.7818608E-02  0.1155349E+00
          2   -1    0    0  501    0  0.00000000000E+00  0.00000000000E+00  0.14636868583E+04  0.14636868583E+04  0.25500000000E-02 0.  1.
         -2   -1    0    0    0  501 -0.00000000000E+00 -0.00000000000E+00 -0.63946324364E+01  0.63946329448E+01  0.25500000000E-02 0. -1.
    5000001    1    1    2    0    0  0.53032049562E+02 -0.16926634299E+02  0.59024558526E+03  0.59784426078E+03  0.77000000000E+02 0.  0.
   -5000001    1    1    2    0    0 -0.53032049562E+02  0.16926634299E+02  0.86704664060E+03  0.87223723046E+03  0.77000000000E+02 0.  0.
<mgrwt>
<rscale>  0 0.19349150E+03</rscale>
<asrwt>0</asrwt>
<pdfrwt beam="1">  1        2 0.20909807E+00 0.19349150E+03</pdfrwt>
<pdfrwt beam="2">  1       -2 0.91351917E-03 0.19349150E+03</pdfrwt>
<totfact> 0.38673987E+04</totfact>
</mgrwt>
</event>
<event>
 4    1  0.1308644E-003  0.2017231E+03  0.7818608E-02  0.1148293E+00
         -2   -1    0    0    0  501 -0.00000000000E+00  0.00000000000E+00  0.45379025144E+02  0.45379025216E+02  0.25500000000E-02 0. -1.
          2   -1    0    0  501    0  0.00000000000E+00 -0.00000000000E+00 -0.22417950539E+03  0.22417950541E+03  0.25500000000E-02 0.  1.
    5000001    1    1    2    0    0  0.58071983661E+02 -0.18041966928E+02 -0.58170722623E+02  0.11406445909E+03  0.77000000000E+02 0.  0.
   -5000001    1    1    2    0    0 -0.58071983661E+02  0.18041966928E+02 -0.12062975762E+03  0.15549407153E+03  0.77000000000E+02 0.  0.
<mgrwt>
<rscale>  0 0.20172305E+03</rscale>
<asrwt>0</asrwt>
<pdfrwt beam="1">  1        2 0.32025643E-01 0.20172305E+03</pdfrwt>
<pdfrwt beam="2">  1       -2 0.64827180E-02 0.20172305E+03</pdfrwt>
<totfact> 0.20664450E+04</totfact>
</mgrwt>
</event>
<event>
 4    1  0.1308644E-003  0.1640654E+03  0.7818608E-02  0.1184182E+00
          2   -1    0    0  501    0  0.00000000000E+00  0.00000000000E+00  0.21945352285E+04  0.21945352285E+04  0.25500000000E-02 0.  1.
         -2   -1    0    0    0  501 -0.00000000000E+00 -0.00000000000E+00 -0.30664172700E+01  0.30664183303E+01  0.25500000000E-02 0. -1.
    5000001    1    1    2    0    0  0.17214173382E+02 -0.68951100031E+01  0.80954838128E+03  0.81341345694E+03  0.77000000000E+02 0.  0.
   -5000001    1    1    2    0    0 -0.17214173382E+02  0.68951100031E+01  0.13819204300E+04  0.13841881899E+04  0.77000000000E+02 0.  0.
<mgrwt>
<rscale>  0 0.16406538E+03</rscale>
<asrwt>0</asrwt>
<pdfrwt beam="1">  1        2 0.31350441E+00 0.16406538E+03</pdfrwt>
<pdfrwt beam="2">  1       -2 0.43806055E-03 0.16406538E+03</pdfrwt>
<totfact> 0.48404330E+04</totfact>
</mgrwt>
</event>
<event>
 4    1  0.1308644E-003  0.2167153E+03  0.7818608E-02  0.1136356E+00
         -2   -1    0    0    0  501 -0.00000000000E+00  0.00000000000E+00  0.33638368579E+01  0.33638378244E+01  0.25500000000E-02 0. -1.
          2   -1    0    0  501    0  0.00000000000E+00 -0.00000000000E+00 -0.34904708833E+04  0.34904708833E+04  0.25500000000E-02 0.  1.
    5000001    1    1    2    0    0  0.62003682940E+02 -0.44295070613E+02 -0.17045057989E+04  0.17079448260E+04  0.77000000000E+02 0.  0.
   -5000001    1    1    2    0    0 -0.62003682940E+02  0.44295070613E+02 -0.17826012475E+04  0.17858898951E+04  0.77000000000E+02 0.  0.
<mgrwt>
<rscale>  0 0.21671526E+03</rscale>
<asrwt>0</asrwt>
<pdfrwt beam="1">  1        2 0.49863638E+00 0.21671526E+03</pdfrwt>
<pdfrwt beam="2">  1       -2 0.48055043E-03 0.21671526E+03</pdfrwt>
<totfact> 0.91564460E+03</totfact>
</mgrwt>
</event>
<event>
 4    1  0.1308644E-003  0.2325974E+03  0.7818608E-02  0.1124825E+00
         -2   -1    0    0    0  501 -0.00000000000E+00  0.00000000000E+00  0.12881390942E+02  0.12881391195E+02  0.25500000000E-02 0. -1.
          2   -1    0    0  501    0  0.00000000000E+00 -0.00000000000E+00 -0.10499944529E+04  0.10499944529E+04  0.25500000000E-02 0.  1.
    5000001    1    1    2    0    0 -0.55624998622E+02 -0.19264423167E+02 -0.81226206116E+03  0.81802439724E+03  0.77000000000E+02 0.  0.
   -5000001    1    1    2    0    0  0.55624998622E+02  0.19264423167E+02 -0.22485100081E+03  0.24485144688E+03  0.77000000000E+02 0.  0.
<mgrwt>
<rscale>  0 0.23259741E+03</rscale>
<asrwt>0</asrwt>
<pdfrwt beam="1">  1        2 0.14999915E+00 0.23259741E+03</pdfrwt>
<pdfrwt beam="2">  1       -2 0.18401994E-02 0.23259741E+03</pdfrwt>
<totfact> 0.23490929E+04</totfact>
</mgrwt>
</event>
<event>
 4    1  0.1308644E-003  0.2354847E+03  0.7818608E-02  0.1122838E+00
         -2   -1    0    0    0  501 -0.00000000000E+00  0.00000000000E+00  0.87940671366E+01  0.87940675063E+01  0.25500000000E-02 0. -1.
          2   -1    0    0  501    0  0.00000000000E+00 -0.00000000000E+00 -0.15764339122E+04  0.15764339122E+04  0.25500000000E-02 0.  1.
    5000001    1    1    2    0    0 -0.74187279437E+02  0.42244359140E+02 -0.61273139350E+03  0.62342369131E+03  0.77000000000E+02 0.  0.
   -5000001    1    1    2    0    0  0.74187279437E+02 -0.42244359140E+02 -0.95490845157E+03  0.96180428840E+03  0.77000000000E+02 0.  0.
<mgrwt>
<rscale>  0 0.23548474E+03</rscale>
<asrwt>0</asrwt>
<pdfrwt beam="1">  1        2 0.22520466E+00 0.23548474E+03</pdfrwt>
<pdfrwt beam="2">  1       -2 0.12562963E-02 0.23548474E+03</pdfrwt>
<totfact> 0.21667538E+04</totfact>
</mgrwt>
</event>
<event>
 4    1  0.1308644E-003  0.2033254E+03  0.7818608E-02  0.1146963E+00
         -2   -1    0    0    0  501 -0.00000000000E+00  0.00000000000E+00  0.14042937295E+02  0.14042937526E+02  0.25500000000E-02 0. -1.
          2   -1    0    0  501    0  0.00000000000E+00 -0.00000000000E+00 -0.73597915623E+03  0.73597915623E+03  0.25500000000E-02 0.  1.
    5000001    1    1    2    0    0 -0.14806942668E+02  0.60893288858E+02 -0.44170690896E+03  0.45272644234E+03  0.77000000000E+02 0.  0.
   -5000001    1    1    2    0    0  0.14806942668E+02 -0.60893288858E+02 -0.28022930998E+03  0.29729565141E+03  0.77000000000E+02 0.  0.
<mgrwt>
<rscale>  0 0.20332545E+03</rscale>
<asrwt>0</asrwt>
<pdfrwt beam="1">  1        2 0.10513986E+00 0.20332545E+03</pdfrwt>
<pdfrwt beam="2">  1       -2 0.20061344E-02 0.20332545E+03</pdfrwt>
<totfact> 0.32332826E+04</totfact>
</mgrwt>
</event>
<event>
 4    1  0.1308644E-003  0.3226449E+03  0.7818608E-02  0.1074438E+00
          2   -1    0    0  501    0  0.00000000000E+00  0.00000000000E+00  0.94185496895E+03  0.94185496896E+03  0.25500000000E-02 0.  1.
         -2   -1    0    0    0  501 -0.00000000000E+00 -0.00000000000E+00 -0.27631567134E+02  0.27631567252E+02  0.25500000000E-02 0. -1.
    5000001    1    1    2    0    0  0.81347487172E+02 -0.53130955003E+01  0.10862775641E+03  0.15612377178E+03  0.77000000000E+02 0.  0.
   -5000001    1    1    2    0    0 -0.81347487172E+02  0.53130955003E+01  0.80559564541E+03  0.81336276443E+03  0.77000000000E+02 0.  0.
<mgrwt>
<rscale>  0 0.32264488E+03</rscale>
<asrwt>0</asrwt>
<pdfrwt beam="1">  1        2 0.13455071E+00 0.32264488E+03</pdfrwt>
<pdfrwt beam="2">  1       -2 0.39473666E-02 0.32264488E+03</pdfrwt>
<totfact> 0.88820096E+03</totfact>
</mgrwt>
</event>
<event>
 4    1  0.1308644E-003  0.5079825E+03  0.7818608E-02  0.1011716E+00
         -2   -1    0    0    0  501 -0.00000000000E+00  0.00000000000E+00  0.13277510783E+03  0.13277510785E+03  0.25500000000E-02 0.  1.
          2   -1    0    0  501    0  0.00000000000E+00 -0.00000000000E+00 -0.48587086840E+03  0.48587086841E+03  0.25500000000E-02 0. -1.
    5000001    1    1    2    0    0  0.14998579000E+03  0.18230612456E+03 -0.11151774753E+03  0.27220666463E+03  0.77000000000E+02 0.  0.
   -5000001    1    1    2    0    0 -0.14998579000E+03 -0.18230612456E+03 -0.24157801305E+03  0.34643931163E+03  0.77000000000E+02 0.  0.
<mgrwt>
<rscale>  0 0.50798251E+03</rscale>
<asrwt>0</asrwt>
<pdfrwt beam="1">  1        2 0.69410123E-01 0.50798251E+03</pdfrwt>
<pdfrwt beam="2">  1       -2 0.18967873E-01 0.50798251E+03</pdfrwt>
<totfact> 0.16195278E+03</totfact>
</mgrwt>
</event>
<event>
 4    1  0.1308644E-003  0.6812621E+03  0.7818608E-02  0.9749824E-01
          2   -1    0    0  501    0  0.00000000000E+00  0.00000000000E+00  0.82210562303E+03  0.82210562304E+03  0.25500000000E-02 0.  1.
         -2   -1    0    0    0  501 -0.00000000000E+00 -0.00000000000E+00 -0.14113699828E+03  0.14113699830E+03  0.25500000000E-02 0. -1.
    5000001    1    1    2    0    0  0.14120261209E+03 -0.26230126543E+03  0.54712984472E+03  0.62771028229E+03  0.77000000000E+02 0.  0.
   -5000001    1    1    2    0    0 -0.14120261209E+03  0.26230126543E+03  0.13383878004E+03  0.33553233906E+03  0.77000000000E+02 0.  0.
<mgrwt>
<rscale>  0 0.68126212E+03</rscale>
<asrwt>0</asrwt>
<pdfrwt beam="1">  1        2 0.11744366E+00 0.68126212E+03</pdfrwt>
<pdfrwt beam="2">  1       -2 0.20162428E-01 0.68126212E+03</pdfrwt>
<totfact> 0.77441010E+02</totfact>
</mgrwt>
</event>
<event>
 4    1  0.1308644E-003  0.3096300E+03  0.7818608E-02  0.1080523E+00
         -2   -1    0    0    0  501 -0.00000000000E+00  0.00000000000E+00  0.11461363194E+02  0.11461363478E+02  0.25500000000E-02 0. -1.
          2   -1    0    0  501    0  0.00000000000E+00 -0.00000000000E+00 -0.20911719749E+04  0.20911719749E+04  0.25500000000E-02 0.  1.
    5000001    1    1    2    0    0 -0.90336691212E+02  0.47033692783E+02 -0.16344200559E+04  0.16393995258E+04  0.77000000000E+02 0.  0.
   -5000001    1    1    2    0    0  0.90336691212E+02 -0.47033692783E+02 -0.44529055583E+03  0.46323381261E+03  0.77000000000E+02 0.  0.
<mgrwt>
<rscale>  0 0.30962998E+03</rscale>
<asrwt>0</asrwt>
<pdfrwt beam="1">  1        2 0.29873861E+00 0.30962998E+03</pdfrwt>
<pdfrwt beam="2">  1       -2 0.16373390E-02 0.30962998E+03</pdfrwt>
<totfact> 0.82845610E+03</totfact>
</mgrwt>
</event>
<event>
 4    1  0.1308644E-003  0.3831360E+03  0.7818608E-02  0.1049781E+00
         -2   -1    0    0    0  501 -0.00000000000E+00  0.00000000000E+00  0.46533494688E+02  0.46533494758E+02  0.25500000000E-02 0. -1.
          2   -1    0    0  501    0  0.00000000000E+00 -0.00000000000E+00 -0.78864262126E+03  0.78864262126E+03  0.25500000000E-02 0.  1.
    5000001    1    1    2    0    0  0.14288570710E+03  0.99775226976E+02 -0.41453551195E+03  0.45622375198E+03  0.77000000000E+02 0.  0.
   -5000001    1    1    2    0    0 -0.14288570710E+03 -0.99775226976E+02 -0.32757361462E+03  0.37895236403E+03  0.77000000000E+02 0.  0.
<mgrwt>
<rscale>  0 0.38313599E+03</rscale>
<asrwt>0</asrwt>
<pdfrwt beam="1">  1        2 0.11266322E+00 0.38313599E+03</pdfrwt>
<pdfrwt beam="2">  1       -2 0.66476426E-02 0.38313599E+03</pdfrwt>
<totfact> 0.50419069E+03</totfact>
</mgrwt>
</event>
<event>
 4    1  0.1308644E-003  0.2654515E+03  0.7818608E-02  0.1103911E+00
          2   -1    0    0  501    0  0.00000000000E+00  0.00000000000E+00  0.55528049497E+03  0.55528049498E+03  0.25500000000E-02 0.  1.
         -2   -1    0    0    0  501 -0.00000000000E+00 -0.00000000000E+00 -0.31724733341E+02  0.31724733443E+02  0.25500000000E-02 0. -1.
    5000001    1    1    2    0    0 -0.39372227475E+02  0.99313060824E+02  0.22518231521E+03  0.26086266776E+03  0.77000000000E+02 0.  0.
   -5000001    1    1    2    0    0  0.39372227475E+02 -0.99313060824E+02  0.29837344642E+03  0.32614256066E+03  0.77000000000E+02 0.  0.
<mgrwt>
<rscale>  0 0.26545151E+03</rscale>
<asrwt>0</asrwt>
<pdfrwt beam="1">  1        2 0.79325782E-01 0.26545151E+03</pdfrwt>
<pdfrwt beam="2">  1       -2 0.45321049E-02 0.26545151E+03</pdfrwt>
<totfact> 0.13563738E+04</totfact>
</mgrwt>
</event>
<event>
 4    1  0.1308644E-003  0.2555055E+03  0.7818608E-02  0.1109874E+00
          2   -1    0    0  501    0  0.00000000000E+00  0.00000000000E+00  0.32155185382E+03  0.32155185383E+03  0.25500000000E-02 0.  1.
         -2   -1    0    0    0  501 -0.00000000000E+00 -0.00000000000E+00 -0.50756233093E+02  0.50756233157E+02  0.25500000000E-02 0. -1.
    5000001    1    1    2    0    0  0.27780385888E+02  0.96592198607E+02  0.11058534256E+03  0.16810687273E+03  0.77000000000E+02 0.  0.
   -5000001    1    1    2    0    0 -0.27780385888E+02 -0.96592198607E+02  0.16021027817E+03  0.20420121425E+03  0.77000000000E+02 0.  0.
<mgrwt>
<rscale>  0 0.25550547E+03</rscale>
<asrwt>0</asrwt>
<pdfrwt beam="1">  1        2 0.45935978E-01 0.25550547E+03</pdfrwt>
<pdfrwt beam="2">  1       -2 0.72508906E-02 0.25550547E+03</pdfrwt>
<totfact> 0.11963608E+04</totfact>
</mgrwt>
</event>
<event>
 4    1  0.1308644E-003  0.2106262E+03  0.7818608E-02  0.1141071E+00
         -2   -1    0    0    0  501 -0.00000000000E+00  0.00000000000E+00  0.17557898814E+03  0.17557898816E+03  0.25500000000E-02 0. -1.
          2   -1    0    0  501    0  0.00000000000E+00 -0.00000000000E+00 -0.63167288973E+02  0.63167289025E+02  0.25500000000E-02 0.  1.
    5000001    1    1    2    0    0 -0.50161676608E+02 -0.11258530593E+02 -0.68333623107E+00  0.92587338549E+02  0.77000000000E+02 0.  0.
   -5000001    1    1    2    0    0  0.50161676608E+02  0.11258530593E+02  0.11309503540E+03  0.14615893864E+03  0.77000000000E+02 0.  0.
<mgrwt>
<rscale>  0 0.21062620E+03</rscale>
<asrwt>0</asrwt>
<pdfrwt beam="1">  1        2 0.90238983E-02 0.21062620E+03</pdfrwt>
<pdfrwt beam="2">  1       -2 0.25082713E-01 0.21062620E+03</pdfrwt>
<totfact> 0.10019152E+04</totfact>
</mgrwt>
</event>
<event>
 4    1  0.1308644E-003  0.2435851E+03  0.7818608E-02  0.1117427E+00
          2   -1    0    0  501    0  0.00000000000E+00  0.00000000000E+00  0.93289550718E+03  0.93289550719E+03  0.25500000000E-02 0.  1.
         -2   -1    0    0    0  501 -0.00000000000E+00 -0.00000000000E+00 -0.15900412465E+02  0.15900412669E+02  0.25500000000E-02 0. -1.
    5000001    1    1    2    0    0 -0.94361523338E+02  0.29950452293E+00  0.46039243878E+03  0.47622934020E+03  0.77000000000E+02 0.  0.
   -5000001    1    1    2    0    0  0.94361523338E+02 -0.29950452293E+00  0.45660265594E+03  0.47256657965E+03  0.77000000000E+02 0.  0.
<mgrwt>
<rscale>  0 0.24358509E+03</rscale>
<asrwt>0</asrwt>
<pdfrwt beam="1">  1        2 0.13327079E+00 0.24358509E+03</pdfrwt>
<pdfrwt beam="2">  1       -2 0.22714875E-02 0.24358509E+03</pdfrwt>
<totfact> 0.20271606E+04</totfact>
</mgrwt>
</event>
<event>
 4    1  0.1308644E-003  0.5720378E+03  0.7818608E-02  0.9965179E-01
          2   -1    0    0  501    0  0.00000000000E+00  0.00000000000E+00  0.17167137824E+03  0.17167137826E+03  0.25500000000E-02 0.  1.
         -2   -1    0    0    0  501 -0.00000000000E+00 -0.00000000000E+00 -0.47653148577E+03  0.47653148578E+03  0.25500000000E-02 0. -1.
    5000001    1    1    2    0    0 -0.25298977191E+03 -0.10888760678E+03 -0.14769228753E+03  0.32187318527E+03  0.77000000000E+02 0.  0.
   -5000001    1    1    2    0    0  0.25298977191E+03  0.10888760678E+03 -0.15716782000E+03  0.32632967876E+03  0.77000000000E+02 0.  0.
<mgrwt>
<rscale>  0 0.57203782E+03</rscale>
<asrwt>0</asrwt>
<pdfrwt beam="1">  1        2 0.24524483E-01 0.57203782E+03</pdfrwt>
<pdfrwt beam="2">  1       -2 0.68075926E-01 0.57203782E+03</pdfrwt>
<totfact> 0.44659605E+02</totfact>
</mgrwt>
</event>
<event>
 4    1  0.1308644E-003  0.3612711E+03  0.7818608E-02  0.1058082E+00
         -2   -1    0    0    0  501 -0.00000000000E+00  0.00000000000E+00  0.17015903287E+02  0.17015903478E+02  0.25500000000E-02 0. -1.
          2   -1    0    0  501    0  0.00000000000E+00 -0.00000000000E+00 -0.19175711931E+04  0.19175711931E+04  0.25500000000E-02 0.  1.
    5000001    1    1    2    0    0 -0.91385852266E+02  0.12877438306E+03 -0.72524309057E+03  0.74621763323E+03  0.77000000000E+02 0.  0.
   -5000001    1    1    2    0    0  0.91385852266E+02 -0.12877438306E+03 -0.11753121993E+04  0.11883694634E+04  0.77000000000E+02 0.  0.
<mgrwt>
<rscale>  0 0.36127112E+03</rscale>
<asrwt>0</asrwt>
<pdfrwt beam="1">  1        2 0.27393860E+00 0.36127112E+03</pdfrwt>
<pdfrwt beam="2">  1       -2 0.24308446E-02 0.36127112E+03</pdfrwt>
<totfact> 0.56214386E+03</totfact>
</mgrwt>
</event>
<event>
 4    1  0.1308644E-003  0.2329698E+03  0.7818608E-02  0.1124567E+00
         -2   -1    0    0    0  501 -0.00000000000E+00  0.00000000000E+00  0.34899753970E+02  0.34899754063E+02  0.25500000000E-02 0. -1.
          2   -1    0    0  501    0  0.00000000000E+00 -0.00000000000E+00 -0.38879176009E+03  0.38879176010E+03  0.25500000000E-02 0.  1.
    5000001    1    1    2    0    0 -0.65548460354E+02 -0.55603160324E+02 -0.14810874044E+03  0.18775918376E+03  0.77000000000E+02 0.  0.
   -5000001    1    1    2    0    0  0.65548460354E+02  0.55603160324E+02 -0.20578326568E+03  0.23593233040E+03  0.77000000000E+02 0.  0.
<mgrwt>
<rscale>  0 0.23296984E+03</rscale>
<asrwt>0</asrwt>
<pdfrwt beam="1">  1        2 0.55541677E-01 0.23296984E+03</pdfrwt>
<pdfrwt beam="2">  1       -2 0.49856794E-02 0.23296984E+03</pdfrwt>
<totfact> 0.17227602E+04</totfact>
</mgrwt>
</event>
<event>
 4    1  0.1308644E-003  0.2194294E+03  0.7818608E-02  0.1134309E+00
         -2   -1    0    0    0  501 -0.00000000000E+00  0.00000000000E+00  0.67611426017E+02  0.67611426065E+02  0.25500000000E-02 0. -1.
          2   -1    0    0  501    0  0.00000000000E+00 -0.00000000000E+00 -0.17803669895E+03  0.17803669897E+03  0.25500000000E-02 0.  1.
    5000001    1    1    2    0    0  0.89968042508E+01  0.63312847543E+02 -0.49122513646E+01  0.10021272057E+03  0.77000000000E+02 0.  0.
   -5000001    1    1    2    0    0 -0.89968042508E+01 -0.63312847543E+02 -0.10551302157E+03  0.14543540446E+03  0.77000000000E+02 0.  0.
<mgrwt>
<rscale>  0 0.21942940E+03</rscale>
<asrwt>0</asrwt>
<pdfrwt beam="1">  1        2 0.25433814E-01 0.21942940E+03</pdfrwt>
<pdfrwt beam="2">  1       -2 0.96587752E-02 0.21942940E+03</pdfrwt>
<totfact> 0.14399076E+04</totfact>
</mgrwt>
</event>
<event>
 4    1  0.1308644E-003  0.2143754E+03  0.7818608E-02  0.1138147E+00
         -2   -1    0    0    0  501 -0.00000000000E+00  0.00000000000E+00  0.72193579140E+01  0.72193583643E+01  0.25500000000E-02 0. -1.
          2   -1    0    0  501    0  0.00000000000E+00 -0.00000000000E+00 -0.15914443454E+04  0.15914443454E+04  0.25500000000E-02 0.  1.
    5000001    1    1    2    0    0  0.61985042361E+02 -0.82511253279E+00 -0.48307202814E+03  0.49308255968E+03  0.77000000000E+02 0.  0.
   -5000001    1    1    2    0    0 -0.61985042361E+02  0.82511253279E+00 -0.11011529593E+04  0.11055811440E+04  0.77000000000E+02 0.  0.
<mgrwt>
<rscale>  0 0.21437543E+03</rscale>
<asrwt>0</asrwt>
<pdfrwt beam="1">  1        2 0.22734897E+00 0.21437543E+03</pdfrwt>
<pdfrwt beam="2">  1       -2 0.10313379E-02 0.21437543E+03</pdfrwt>
<totfact> 0.28219184E+04</totfact>
</mgrwt>
</event>
<event>
 4    1  0.1308644E-003  0.1719338E+03  0.7818608E-02  0.1175846E+00
         -2   -1    0    0    0  501 -0.00000000000E+00  0.00000000000E+00  0.70629651980E+01  0.70629656584E+01  0.25500000000E-02 0. -1.
          2   -1    0    0  501    0  0.00000000000E+00 -0.00000000000E+00 -0.10463468513E+04  0.10463468513E+04  0.25500000000E-02 0.  1.
    5000001    1    1    2    0    0 -0.64717399346E+01 -0.36164001036E+02 -0.45491949209E+03  0.46285036748E+03  0.77000000000E+02 0.  0.
   -5000001    1    1    2    0    0  0.64717399346E+01  0.36164001036E+02 -0.58436439404E+03  0.59055944951E+03  0.77000000000E+02 0.  0.
<mgrwt>
<rscale>  0 0.17193384E+03</rscale>
<asrwt>0</asrwt>
<pdfrwt beam="1">  1        2 0.14947802E+00 0.17193384E+03</pdfrwt>
<pdfrwt beam="2">  1       -2 0.10089957E-02 0.17193384E+03</pdfrwt>
<totfact> 0.55203176E+04</totfact>
</mgrwt>
</event>
<event>
 4    1  0.1308644E-003  0.2495432E+03  0.7818608E-02  0.1113594E+00
         -2   -1    0    0    0  501 -0.00000000000E+00  0.00000000000E+00  0.14248424846E+02  0.14248425074E+02  0.25500000000E-02 0. -1.
          2   -1    0    0  501    0  0.00000000000E+00 -0.00000000000E+00 -0.10926086736E+04  0.10926086736E+04  0.25500000000E-02 0.  1.
    5000001    1    1    2    0    0 -0.10815952565E+01  0.96246105731E+02 -0.45334712024E+03  0.46980537901E+03  0.77000000000E+02 0.  0.
   -5000001    1    1    2    0    0  0.10815952565E+01 -0.96246105731E+02 -0.62501312851E+03  0.63705171967E+03  0.77000000000E+02 0.  0.
<mgrwt>
<rscale>  0 0.24954320E+03</rscale>
<asrwt>0</asrwt>
<pdfrwt beam="1">  1        2 0.15608690E+00 0.24954320E+03</pdfrwt>
<pdfrwt beam="2">  1       -2 0.20354900E-02 0.24954320E+03</pdfrwt>
<totfact> 0.19231559E+04</totfact>
</mgrwt>
</event>
<event>
 4    1  0.1308644E-003  0.2503701E+03  0.7818608E-02  0.1113071E+00
          2   -1    0    0  501    0  0.00000000000E+00  0.00000000000E+00  0.12087548102E+04  0.12087548102E+04  0.25500000000E-02 0.  1.
         -2   -1    0    0    0  501 -0.00000000000E+00 -0.00000000000E+00 -0.12964831084E+02  0.12964831335E+02  0.25500000000E-02 0. -1.
    5000001    1    1    2    0    0  0.93230958858E+02 -0.96807792212E+01  0.74881542838E+03  0.75857713843E+03  0.77000000000E+02 0.  0.
   -5000001    1    1    2    0    0 -0.93230958858E+02  0.96807792212E+01  0.44697455078E+03  0.46314250315E+03  0.77000000000E+02 0.  0.
<mgrwt>
<rscale>  0 0.25037014E+03</rscale>
<asrwt>0</asrwt>
<pdfrwt beam="1">  1        2 0.17267925E+00 0.25037014E+03</pdfrwt>
<pdfrwt beam="2">  1       -2 0.18521188E-02 0.25037014E+03</pdfrwt>
<totfact> 0.19066352E+04</totfact>
</mgrwt>
</event>
<event>
 4    1  0.1308644E-003  0.4026479E+03  0.7818608E-02  0.1042867E+00
          2   -1    0    0  501    0  0.00000000000E+00  0.00000000000E+00  0.12977359667E+04  0.12977359667E+04  0.25500000000E-02 0.  1.
         -2   -1    0    0    0  501 -0.00000000000E+00 -0.00000000000E+00 -0.31232343117E+02  0.31232343221E+02  0.25500000000E-02 0. -1.
    5000001    1    1    2    0    0 -0.16038193571E+03  0.80984453675E+02  0.47422425083E+03  0.51293126938E+03  0.77000000000E+02 0.  0.
   -5000001    1    1    2    0    0  0.16038193571E+03 -0.80984453675E+02  0.79227937274E+03  0.81603704052E+03  0.77000000000E+02 0.  0.
<mgrwt>
<rscale>  0 0.40264791E+03</rscale>
<asrwt>0</asrwt>
<pdfrwt beam="1">  1        2 0.18539087E+00 0.40264791E+03</pdfrwt>
<pdfrwt beam="2">  1       -2 0.44617630E-02 0.40264791E+03</pdfrwt>
<totfact> 0.46454036E+03</totfact>
</mgrwt>
</event>
<event>
 4    1  0.1308644E-003  0.4612194E+03  0.7818608E-02  0.1024428E+00
          2   -1    0    0  501    0  0.00000000000E+00  0.00000000000E+00  0.95662934101E+03  0.95662934102E+03  0.25500000000E-02 0.  1.
         -2   -1    0    0    0  501 -0.00000000000E+00 -0.00000000000E+00 -0.55591894069E+02  0.55591894128E+02  0.25500000000E-02 0. -1.
    5000001    1    1    2    0    0 -0.15499959553E+03 -0.26858043900E+02  0.77975921249E+03  0.79918687339E+03  0.77000000000E+02 0.  0.
   -5000001    1    1    2    0    0  0.15499959553E+03  0.26858043900E+02  0.12127823446E+03  0.21303436176E+03  0.77000000000E+02 0.  0.
<mgrwt>
<rscale>  0 0.46121941E+03</rscale>
<asrwt>0</asrwt>
<pdfrwt beam="1">  1        2 0.13666133E+00 0.46121941E+03</pdfrwt>
<pdfrwt beam="2">  1       -2 0.79416991E-02 0.46121941E+03</pdfrwt>
<totfact> 0.29719410E+03</totfact>
</mgrwt>
</event>
<event>
 4    1  0.1308644E-003  0.2197256E+03  0.7818608E-02  0.1134088E+00
         -2   -1    0    0    0  501 -0.00000000000E+00  0.00000000000E+00  0.29720087743E+03  0.29720087744E+03  0.25500000000E-02 0. -1.
          2   -1    0    0  501    0  0.00000000000E+00 -0.00000000000E+00 -0.40611700496E+02  0.40611700576E+02  0.25500000000E-02 0.  1.
    5000001    1    1    2    0    0  0.75553653159E+02 -0.15459771377E+02  0.10690972438E+03  0.15266318549E+03  0.77000000000E+02 0.  0.
   -5000001    1    1    2    0    0 -0.75553653159E+02  0.15459771377E+02  0.14967945256E+03  0.18514939253E+03  0.77000000000E+02 0.  0.
<mgrwt>
<rscale>  0 0.21972558E+03</rscale>
<asrwt>0</asrwt>
<pdfrwt beam="1">  1        2 0.58016718E-02 0.21972558E+03</pdfrwt>
<pdfrwt beam="2">  1       -2 0.42457266E-01 0.21972558E+03</pdfrwt>
<totfact> 0.67135502E+03</totfact>
</mgrwt>
</event>
<event>
 4    1  0.1308644E-003  0.3282615E+03  0.7818608E-02  0.1071909E+00
         -2   -1    0    0    0  501 -0.00000000000E+00  0.00000000000E+00  0.23990732002E+02  0.23990732137E+02  0.25500000000E-02 0. -1.
          2   -1    0    0  501    0  0.00000000000E+00 -0.00000000000E+00 -0.11228881442E+04  0.11228881442E+04  0.25500000000E-02 0.  1.
    5000001    1    1    2    0    0  0.12435152543E+03  0.10824201445E+02 -0.29200918744E+03  0.32677030276E+03  0.77000000000E+02 0.  0.
   -5000001    1    1    2    0    0 -0.12435152543E+03 -0.10824201445E+02 -0.80688822471E+03  0.82010857353E+03  0.77000000000E+02 0.  0.
<mgrwt>
<rscale>  0 0.32826153E+03</rscale>
<asrwt>0</asrwt>
<pdfrwt beam="1">  1        2 0.16041256E+00 0.32826153E+03</pdfrwt>
<pdfrwt beam="2">  1       -2 0.34272481E-02 0.32826153E+03</pdfrwt>
<totfact> 0.86111094E+03</totfact>
</mgrwt>
</event>
<event>
 4    1  0.1308644E-003  0.2279431E+03  0.7818608E-02  0.1128096E+00
         -2   -1    0    0    0  501 -0.00000000000E+00  0.00000000000E+00  0.60917350388E+01  0.60917355725E+01  0.25500000000E-02 0. -1.
          2   -1    0    0  501    0  0.00000000000E+00 -0.00000000000E+00 -0.21323174655E+04  0.21323174655E+04  0.25500000000E-02 0.  1.
    5000001    1    1    2    0    0  0.24747300664E+02  0.79379529762E+02 -0.94937998365E+03  0.95611970589E+03  0.77000000000E+02 0.  0.
   -5000001    1    1    2    0    0 -0.24747300664E+02 -0.79379529762E+02 -0.11768457468E+04  0.11822894952E+04  0.77000000000E+02 0.  0.
<mgrwt>
<rscale>  0 0.22794309E+03</rscale>
<asrwt>0</asrwt>
<pdfrwt beam="1">  1        2 0.30461630E+00 0.22794309E+03</pdfrwt>
<pdfrwt beam="2">  1       -2 0.87024926E-03 0.22794309E+03</pdfrwt>
<totfact> 0.19732714E+04</totfact>
</mgrwt>
</event>
<event>
 4    1  0.1308644E-003  0.1976137E+03  0.7818608E-02  0.1151768E+00
          2   -1    0    0  501    0  0.00000000000E+00  0.00000000000E+00  0.13266515645E+04  0.13266515645E+04  0.25500000000E-02 0.  1.
         -2   -1    0    0    0  501 -0.00000000000E+00 -0.00000000000E+00 -0.73589706016E+01  0.73589710434E+01  0.25500000000E-02 0. -1.
    5000001    1    1    2    0    0 -0.61883852641E+02 -0.94991817836E+00  0.67186580427E+03  0.67908995907E+03  0.77000000000E+02 0.  0.
   -5000001    1    1    2    0    0  0.61883852641E+02  0.94991817836E+00  0.64742678958E+03  0.65492057643E+03  0.77000000000E+02 0.  0.
<mgrwt>
<rscale>  0 0.19761367E+03</rscale>
<asrwt>0</asrwt>
<pdfrwt beam="1">  1        2 0.18952168E+00 0.19761367E+03</pdfrwt>
<pdfrwt beam="2">  1       -2 0.10512814E-02 0.19761367E+03</pdfrwt>
<totfact> 0.37142542E+04</totfact>
</mgrwt>
</event>
<event>
 4    1  0.1308644E-003  0.3306084E+03  0.7818608E-02  0.1070868E+00
          2   -1    0    0  501    0  0.00000000000E+00  0.00000000000E+00  0.16364571136E+04  0.16364571136E+04  0.25500000000E-02 0.  1.
         -2   -1    0    0    0  501 -0.00000000000E+00 -0.00000000000E+00 -0.16697948359E+02  0.16697948554E+02  0.25500000000E-02 0. -1.
    5000001    1    1    2    0    0  0.12748910286E+03 -0.69415028975E+02  0.71979582115E+03  0.73831357955E+03  0.77000000000E+02 0.  0.
   -5000001    1    1    2    0    0 -0.12748910286E+03  0.69415028975E+02  0.89996334408E+03  0.91484148260E+03  0.77000000000E+02 0.  0.
<mgrwt>
<rscale>  0 0.33060839E+03</rscale>
<asrwt>0</asrwt>
<pdfrwt beam="1">  1        2 0.23377938E+00 0.33060839E+03</pdfrwt>
<pdfrwt beam="2">  1       -2 0.23854233E-02 0.33060839E+03</pdfrwt>
<totfact> 0.79630167E+03</totfact>
</mgrwt>
</event>
<event>
 4    1  0.1308644E-003  0.5206077E+03  0.7818608E-02  0.1008536E+00
          2   -1    0    0  501    0  0.00000000000E+00  0.00000000000E+00  0.52439517863E+03  0.52439517864E+03  0.25500000000E-02 0.  1.
         -2   -1    0    0    0  501 -0.00000000000E+00 -0.00000000000E+00 -0.12921190753E+03  0.12921190756E+03  0.25500000000E-02 0. -1.
    5000001    1    1    2    0    0 -0.13774981599E+03 -0.11670210462E+03  0.41225381028E+03  0.45659237523E+03  0.77000000000E+02 0.  0.
   -5000001    1    1    2    0    0  0.13774981599E+03  0.11670210462E+03 -0.17070539183E+02  0.19701471096E+03  0.77000000000E+02 0.  0.
<mgrwt>
<rscale>  0 0.52060773E+03</rscale>
<asrwt>0</asrwt>
<pdfrwt beam="1">  1        2 0.74913597E-01 0.52060773E+03</pdfrwt>
<pdfrwt beam="2">  1       -2 0.18458844E-01 0.52060773E+03</pdfrwt>
<totfact> 0.15565336E+03</totfact>
</mgrwt>
</event>
<event>
 4    1  0.1308644E-003  0.1650565E+03  0.7818608E-02  0.1183103E+00
         -2   -1    0    0    0  501 -0.00000000000E+00  0.00000000000E+00  0.17799871019E+03  0.17799871021E+03  0.25500000000E-02 0. -1.
          2   -1    0    0  501    0  0.00000000000E+00 -0.00000000000E+00 -0.38263805461E+02  0.38263805546E+02  0.25500000000E-02 0.  1.
    5000001    1    1    2    0    0  0.50437073904E+01  0.27505583754E+02  0.56770888219E+02  0.99669101888E+02  0.77000000000E+02 0.  0.
   -5000001    1    1    2    0    0 -0.50437073904E+01 -0.27505583754E+02  0.82964016512E+02  0.11659341387E+03  0.77000000000E+02 0.  0.
<mgrwt>
<rscale>  0 0.16505645E+03</rscale>
<asrwt>0</asrwt>
<pdfrwt beam="1">  1        2 0.54662578E-02 0.16505645E+03</pdfrwt>
<pdfrwt beam="2">  1       -2 0.25428388E-01 0.16505645E+03</pdfrwt>
<totfact> 0.18206321E+04</totfact>
</mgrwt>
</event>
<event>
 4    1  0.1308644E-003  0.2371829E+03  0.7818608E-02  0.1121684E+00
          2   -1    0    0  501    0  0.00000000000E+00  0.00000000000E+00  0.19678152901E+03  0.19678152903E+03  0.25500000000E-02 0.  1.
         -2   -1    0    0    0  501 -0.00000000000E+00 -0.00000000000E+00 -0.71469802274E+02  0.71469802319E+02  0.25500000000E-02 0. -1.
    5000001    1    1    2    0    0 -0.53950355864E+02  0.42167091964E+02 -0.37384245465E+01  0.10311004006E+03  0.77000000000E+02 0.  0.
   -5000001    1    1    2    0    0  0.53950355864E+02 -0.42167091964E+02  0.12905015129E+03  0.16514129129E+03  0.77000000000E+02 0.  0.
<mgrwt>
<rscale>  0 0.23718294E+03</rscale>
<asrwt>0</asrwt>
<pdfrwt beam="1">  1        2 0.28111647E-01 0.23718294E+03</pdfrwt>
<pdfrwt beam="2">  1       -2 0.10209972E-01 0.23718294E+03</pdfrwt>
<totfact> 0.11861350E+04</totfact>
</mgrwt>
</event>
<event>
 4    1  0.1308644E-003  0.4943003E+03  0.7818608E-02  0.1015277E+00
         -2   -1    0    0    0  501 -0.00000000000E+00  0.00000000000E+00  0.53115821215E+02  0.53115821276E+02  0.25500000000E-02 0. -1.
          2   -1    0    0  501    0  0.00000000000E+00 -0.00000000000E+00 -0.11499998847E+04  0.11499998847E+04  0.25500000000E-02 0.  1.
    5000001    1    1    2    0    0  0.52913346158E+02 -0.22381628983E+03 -0.66416824143E+03  0.70706577255E+03  0.77000000000E+02 0.  0.
   -5000001    1    1    2    0    0 -0.52913346158E+02  0.22381628983E+03 -0.43271582207E+03  0.49604993344E+03  0.77000000000E+02 0.  0.
<mgrwt>
<rscale>  0 0.49430027E+03</rscale>
<asrwt>0</asrwt>
<pdfrwt beam="1">  1        2 0.16428568E+00 0.49430027E+03</pdfrwt>
<pdfrwt beam="2">  1       -2 0.75879752E-02 0.49430027E+03</pdfrwt>
<totfact> 0.24566658E+03</totfact>
</mgrwt>
</event>
<event>
 4    1  0.1308644E-003  0.2287629E+03  0.7818608E-02  0.1127514E+00
         -2   -1    0    0    0  501 -0.00000000000E+00  0.00000000000E+00  0.30058378039E+02  0.30058378147E+02  0.25500000000E-02 0. -1.
          2   -1    0    0  501    0  0.00000000000E+00 -0.00000000000E+00 -0.43525684019E+03  0.43525684019E+03  0.25500000000E-02 0.  1.
    5000001    1    1    2    0    0  0.39383388997E+02 -0.74817363929E+02 -0.19786142222E+03  0.22853190516E+03  0.77000000000E+02 0.  0.
   -5000001    1    1    2    0    0 -0.39383388997E+02  0.74817363929E+02 -0.20733703993E+03  0.23678331318E+03  0.77000000000E+02 0.  0.
<mgrwt>
<rscale>  0 0.22876289E+03</rscale>
<asrwt>0</asrwt>
<pdfrwt beam="1">  1        2 0.62179545E-01 0.22876289E+03</pdfrwt>
<pdfrwt beam="2">  1       -2 0.42940543E-02 0.22876289E+03</pdfrwt>
<totfact> 0.19085394E+04</totfact>
</mgrwt>
</event>
<event>
 4    1  0.1308644E-003  0.3003132E+03  0.7818608E-02  0.1085084E+00
          2   -1    0    0  501    0  0.00000000000E+00  0.00000000000E+00  0.19534880519E+04  0.19534880519E+04  0.25500000000E-02 0.  1.
         -2   -1    0    0    0  501 -0.00000000000E+00 -0.00000000000E+00 -0.11541920763E+02  0.11541921045E+02  0.25500000000E-02 0. -1.
    5000001    1    1    2    0    0  0.11825690548E+03 -0.43288603782E+02  0.79065814039E+03  0.80431827897E+03  0.77000000000E+02 0.  0.
   -5000001    1    1    2    0    0 -0.11825690548E+03  0.43288603782E+02  0.11512879907E+04  0.11607116940E+04  0.77000000000E+02 0.  0.
<mgrwt>
<rscale>  0 0.30031320E+03</rscale>
<asrwt>0</asrwt>
<pdfrwt beam="1">  1        2 0.27906947E+00 0.30031320E+03</pdfrwt>
<pdfrwt beam="2">  1       -2 0.16488473E-02 0.30031320E+03</pdfrwt>
<totfact> 0.95732228E+03</totfact>
</mgrwt>
</event>
<event>
 4    1  0.1308644E-003  0.3258771E+03  0.7818608E-02  0.1072976E+00
         -2   -1    0    0    0  501 -0.00000000000E+00  0.00000000000E+00  0.39364599098E+03  0.39364599099E+03  0.25500000000E-02 0. -1.
          2   -1    0    0  501    0  0.00000000000E+00 -0.00000000000E+00 -0.67443776947E+02  0.67443776995E+02  0.25500000000E-02 0.  1.
    5000001    1    1    2    0    0  0.10523016184E+03 -0.62383376601E+02  0.26950170963E+03  0.30581897281E+03  0.77000000000E+02 0.  0.
   -5000001    1    1    2    0    0 -0.10523016184E+03  0.62383376601E+02  0.56700504410E+02  0.15527079518E+03  0.77000000000E+02 0.  0.
<mgrwt>
<rscale>  0 0.32587711E+03</rscale>
<asrwt>0</asrwt>
<pdfrwt beam="1">  1        2 0.96348254E-02 0.32587711E+03</pdfrwt>
<pdfrwt beam="2">  1       -2 0.56235141E-01 0.32587711E+03</pdfrwt>
<totfact> 0.20382585E+03</totfact>
</mgrwt>
</event>
<event>
 4    1  0.1308644E-003  0.2138760E+03  0.7818608E-02  0.1138533E+00
         -2   -1    0    0    0  501 -0.00000000000E+00  0.00000000000E+00  0.39369044788E+02  0.39369044871E+02  0.25500000000E-02 0. -1.
          2   -1    0    0  501    0  0.00000000000E+00 -0.00000000000E+00 -0.29047542477E+03  0.29047542478E+03  0.25500000000E-02 0.  1.
    5000001    1    1    2    0    0  0.28553633707E+02  0.68388612543E+02 -0.11969524051E+03  0.16046265274E+03  0.77000000000E+02 0.  0.
   -5000001    1    1    2    0    0 -0.28553633707E+02 -0.68388612543E+02 -0.13141113948E+03  0.16938181692E+03  0.77000000000E+02 0.  0.
<mgrwt>
<rscale>  0 0.21387604E+03</rscale>
<asrwt>0</asrwt>
<pdfrwt beam="1">  1        2 0.41496488E-01 0.21387604E+03</pdfrwt>
<pdfrwt beam="2">  1       -2 0.56241494E-02 0.21387604E+03</pdfrwt>
<totfact> 0.19500023E+04</totfact>
</mgrwt>
</event>
<event>
 4    1  0.1308644E-003  0.1934031E+03  0.7818608E-02  0.1155427E+00
          2   -1    0    0  501    0  0.00000000000E+00  0.00000000000E+00  0.39039092059E+02  0.39039092142E+02  0.25500000000E-02 0.  1.
         -2   -1    0    0    0  501 -0.00000000000E+00 -0.00000000000E+00 -0.23953409605E+03  0.23953409607E+03  0.25500000000E-02 0. -1.
    5000001    1    1    2    0    0  0.24957355959E+01  0.40736745670E+02 -0.16061423975E+03  0.18273380956E+03  0.77000000000E+02 0.  0.
   -5000001    1    1    2    0    0 -0.24957355959E+01 -0.40736745670E+02 -0.39880764242E+02  0.95839378653E+02  0.77000000000E+02 0.  0.
<mgrwt>
<rscale>  0 0.19340314E+03</rscale>
<asrwt>0</asrwt>
<pdfrwt beam="1">  1        2 0.55770133E-02 0.19340314E+03</pdfrwt>
<pdfrwt beam="2">  1       -2 0.34219156E-01 0.19340314E+03</pdfrwt>
<totfact> 0.10529432E+04</totfact>
</mgrwt>
</event>
<event>
 4    1  0.1308644E-003  0.2671787E+03  0.7818608E-02  0.1102905E+00
         -2   -1    0    0    0  501 -0.00000000000E+00  0.00000000000E+00  0.29371977813E+02  0.29371977923E+02  0.25500000000E-02 0. -1.
          2   -1    0    0  501    0  0.00000000000E+00 -0.00000000000E+00 -0.60758976257E+03  0.60758976258E+03  0.25500000000E-02 0.  1.
    5000001    1    1    2    0    0 -0.18975584644E+02 -0.51994791210E+02 -0.64787321958E+02  0.11484741274E+03  0.77000000000E+02 0.  0.
   -5000001    1    1    2    0    0  0.18975584644E+02  0.51994791210E+02 -0.51343046280E+03  0.52211432777E+03  0.77000000000E+02 0.  0.
<mgrwt>
<rscale>  0 0.26717869E+03</rscale>
<asrwt>0</asrwt>
<pdfrwt beam="1">  1        2 0.86798530E-01 0.26717869E+03</pdfrwt>
<pdfrwt beam="2">  1       -2 0.41959972E-02 0.26717869E+03</pdfrwt>
<totfact> 0.13762291E+04</totfact>
</mgrwt>
</event>
<event>
 4    1  0.1308644E-003  0.2359828E+03  0.7818608E-02  0.1122498E+00
         -2   -1    0    0    0  501 -0.00000000000E+00  0.00000000000E+00  0.10470742881E+02  0.10470743191E+02  0.25500000000E-02 0. -1.
          2   -1    0    0  501    0  0.00000000000E+00 -0.00000000000E+00 -0.13296062872E+04  0.13296062872E+04  0.25500000000E-02 0.  1.
    5000001    1    1    2    0    0 -0.48459395768E+01 -0.87376925510E+02 -0.76346725093E+03  0.77231434887E+03  0.77000000000E+02 0.  0.
   -5000001    1    1    2    0    0  0.48459395768E+01  0.87376925510E+02 -0.55566829336E+03  0.56776268149E+03  0.77000000000E+02 0.  0.
<mgrwt>
<rscale>  0 0.23598276E+03</rscale>
<asrwt>0</asrwt>
<pdfrwt beam="1">  1        2 0.18994365E+00 0.23598276E+03</pdfrwt>
<pdfrwt beam="2">  1       -2 0.14958213E-02 0.23598276E+03</pdfrwt>
<totfact> 0.22425228E+04</totfact>
</mgrwt>
</event>
<event>
 4    1  0.1308644E-003  0.1767607E+03  0.7818608E-02  0.1170975E+00
          2   -1    0    0  501    0  0.00000000000E+00  0.00000000000E+00  0.33516840622E+03  0.33516840623E+03  0.25500000000E-02 0.  1.
         -2   -1    0    0    0  501 -0.00000000000E+00 -0.00000000000E+00 -0.23304950385E+02  0.23304950524E+02  0.25500000000E-02 0. -1.
    5000001    1    1    2    0    0 -0.33471377834E+02  0.65736441463E+01  0.10156967135E+03  0.13194295763E+03  0.77000000000E+02 0.  0.
   -5000001    1    1    2    0    0  0.33471377834E+02 -0.65736441463E+01  0.21029378449E+03  0.22653039912E+03  0.77000000000E+02 0.  0.
<mgrwt>
<rscale>  0 0.17676066E+03</rscale>
<asrwt>0</asrwt>
<pdfrwt beam="1">  1        2 0.47881196E-01 0.17676066E+03</pdfrwt>
<pdfrwt beam="2">  1       -2 0.33292790E-02 0.17676066E+03</pdfrwt>
<totfact> 0.36201865E+04</totfact>
</mgrwt>
</event>
<event>
 4    1  0.1308644E-003  0.3783098E+03  0.7818608E-02  0.1051560E+00
          2   -1    0    0  501    0  0.00000000000E+00  0.00000000000E+00  0.25407316549E+04  0.25407316549E+04  0.25500000000E-02 0.  1.
         -2   -1    0    0    0  501 -0.00000000000E+00 -0.00000000000E+00 -0.14082388294E+02  0.14082388524E+02  0.25500000000E-02 0. -1.
    5000001    1    1    2    0    0  0.52685518423E+00  0.17255500876E+03  0.12048159896E+04  0.12195433889E+04  0.77000000000E+02 0.  0.
   -5000001    1    1    2    0    0 -0.52685518423E+00 -0.17255500876E+03  0.13218332770E+04  0.13352706545E+04  0.77000000000E+02 0.  0.
<mgrwt>
<rscale>  0 0.37830977E+03</rscale>
<asrwt>0</asrwt>
<pdfrwt beam="1">  1        2 0.36296160E+00 0.37830977E+03</pdfrwt>
<pdfrwt beam="2">  1       -2 0.20117701E-02 0.37830977E+03</pdfrwt>
<totfact> 0.36494255E+03</totfact>
</mgrwt>
</event>
<event>
 4    1  0.1308644E-003  0.5283191E+03  0.7818608E-02  0.1006641E+00
         -2   -1    0    0    0  501 -0.00000000000E+00  0.00000000000E+00  0.12038516803E+03  0.12038516806E+03  0.25500000000E-02 0. -1.
          2   -1    0    0  501    0  0.00000000000E+00 -0.00000000000E+00 -0.57964181390E+03  0.57964181391E+03  0.25500000000E-02 0.  1.
    5000001    1    1    2    0    0 -0.19365559879E+03  0.82891551654E+02 -0.41455013166E+03  0.47133248555E+03  0.77000000000E+02 0.  0.
   -5000001    1    1    2    0    0  0.19365559879E+03 -0.82891551654E+02 -0.44706514216E+02  0.22869449642E+03  0.77000000000E+02 0.  0.
<mgrwt>
<rscale>  0 0.52831914E+03</rscale>
<asrwt>0</asrwt>
<pdfrwt beam="1">  1        2 0.82805972E-01 0.52831914E+03</pdfrwt>
<pdfrwt beam="2">  1       -2 0.17197881E-01 0.52831914E+03</pdfrwt>
<totfact> 0.15654536E+03</totfact>
</mgrwt>
</event>
<event>
 4    1  0.1308644E-003  0.3251084E+03  0.7818608E-02  0.1073322E+00
         -2   -1    0    0    0  501 -0.00000000000E+00  0.00000000000E+00  0.21742097449E+02  0.21742097599E+02  0.25500000000E-02 0. -1.
          2   -1    0    0  501    0  0.00000000000E+00 -0.00000000000E+00 -0.12153318344E+04  0.12153318344E+04  0.25500000000E-02 0.  1.
    5000001    1    1    2    0    0 -0.89716519587E+00  0.13096052964E+03 -0.37677518027E+03  0.40625115593E+03  0.77000000000E+02 0.  0.
   -5000001    1    1    2    0    0  0.89716519587E+00 -0.13096052964E+03 -0.81681455673E+03  0.83082277612E+03  0.77000000000E+02 0.  0.
<mgrwt>
<rscale>  0 0.32510837E+03</rscale>
<asrwt>0</asrwt>
<pdfrwt beam="1">  1        2 0.17361879E+00 0.32510837E+03</pdfrwt>
<pdfrwt beam="2">  1       -2 0.31060147E-02 0.32510837E+03</pdfrwt>
<totfact> 0.88710422E+03</totfact>
</mgrwt>
</event>
<event>
 4    1  0.1308644E-003  0.1946479E+03  0.7818608E-02  0.1154335E+00
          2   -1    0    0  501    0  0.00000000000E+00  0.00000000000E+00  0.62351487197E+03  0.62351487198E+03  0.25500000000E-02 0.  1.
         -2   -1    0    0    0  501 -0.00000000000E+00 -0.00000000000E+00 -0.15191226359E+02  0.15191226573E+02  0.25500000000E-02 0. -1.
    5000001    1    1    2    0    0 -0.28299682073E+02  0.39650143837E+02  0.19192513598E+03  0.21245532173E+03  0.77000000000E+02 0.  0.
   -5000001    1    1    2    0    0  0.28299682073E+02 -0.39650143837E+02  0.41639850964E+03  0.42625077682E+03  0.77000000000E+02 0.  0.
<mgrwt>
<rscale>  0 0.19464795E+03</rscale>
<asrwt>0</asrwt>
<pdfrwt beam="1">  1        2 0.89073536E-01 0.19464795E+03</pdfrwt>
<pdfrwt beam="2">  1       -2 0.21701756E-02 0.19464795E+03</pdfrwt>
<totfact> 0.34849712E+04</totfact>
</mgrwt>
</event>
<event>
 4    1  0.1308644E-003  0.2184112E+03  0.7818608E-02  0.1135073E+00
         -2   -1    0    0    0  501 -0.00000000000E+00  0.00000000000E+00  0.48444751056E+01  0.48444757767E+01  0.25500000000E-02 0.  1.
          2   -1    0    0  501    0  0.00000000000E+00 -0.00000000000E+00 -0.24617458398E+04  0.24617458398E+04  0.25500000000E-02 0. -1.
    5000001    1    1    2    0    0 -0.52735372846E+02  0.34093873255E+02 -0.17402087420E+04  0.17430429936E+04  0.77000000000E+02 0.  0.
   -5000001    1    1    2    0    0  0.52735372846E+02 -0.34093873255E+02 -0.71669262268E+03  0.72354732198E+03  0.77000000000E+02 0.  0.
<mgrwt>
<rscale>  0 0.21841124E+03</rscale>
<asrwt>0</asrwt>
<pdfrwt beam="1">  1        2 0.35167718E+00 0.21841124E+03</pdfrwt>
<pdfrwt beam="2">  1       -2 0.69206950E-03 0.21841124E+03</pdfrwt>
<totfact> 0.18924072E+04</totfact>
</mgrwt>
</event>
<event>
 4    1  0.1308644E-003  0.5816177E+03  0.7818608E-02  0.9944295E-01
          2   -1    0    0  501    0  0.00000000000E+00  0.00000000000E+00  0.47936959047E+03  0.47936959048E+03  0.25500000000E-02 0.  1.
         -2   -1    0    0    0  501 -0.00000000000E+00 -0.00000000000E+00 -0.17641875319E+03  0.17641875321E+03  0.25500000000E-02 0. -1.
    5000001    1    1    2    0    0 -0.19074226062E+03 -0.14349123945E+03  0.31744935827E+03  0.40456821533E+03  0.77000000000E+02 0.  0.
   -5000001    1    1    2    0    0  0.19074226062E+03  0.14349123945E+03 -0.14498520989E+02  0.25122012836E+03  0.77000000000E+02 0.  0.
<mgrwt>
<rscale>  0 0.58161769E+03</rscale>
<asrwt>0</asrwt>
<pdfrwt beam="1">  1        2 0.68481369E-01 0.58161769E+03</pdfrwt>
<pdfrwt beam="2">  1       -2 0.25202679E-01 0.58161769E+03</pdfrwt>
<totfact> 0.99722375E+02</totfact>
</mgrwt>
</event>
<event>
 4    1  0.1308644E-003  0.3022836E+03  0.7818608E-02  0.1084105E+00
         -2   -1    0    0    0  501 -0.00000000000E+00  0.00000000000E+00  0.13840141766E+02  0.13840142001E+02  0.25500000000E-02 0. -1.
          2   -1    0    0  501    0  0.00000000000E+00 -0.00000000000E+00 -0.16505502088E+04  0.16505502088E+04  0.25500000000E-02 0.  1.
    5000001    1    1    2    0    0 -0.95776058248E+02 -0.33083574327E+02 -0.36944190614E+03  0.39074787042E+03  0.77000000000E+02 0.  0.
   -5000001    1    1    2    0    0  0.95776058248E+02  0.33083574327E+02 -0.12672681609E+04  0.12736424804E+04  0.77000000000E+02 0.  0.
<mgrwt>
<rscale>  0 0.30228364E+03</rscale>
<asrwt>0</asrwt>
<pdfrwt beam="1">  1        2 0.23579276E+00 0.30228364E+03</pdfrwt>
<pdfrwt beam="2">  1       -2 0.19771642E-02 0.30228364E+03</pdfrwt>
<totfact> 0.10330563E+04</totfact>
</mgrwt>
</event>
<event>
 4    1  0.1308644E-003  0.2252843E+03  0.7818608E-02  0.1130004E+00
         -2   -1    0    0    0  501 -0.00000000000E+00  0.00000000000E+00  0.55420887085E+02  0.55420887143E+02  0.25500000000E-02 0. -1.
          2   -1    0    0  501    0  0.00000000000E+00 -0.00000000000E+00 -0.22894363151E+03  0.22894363152E+03  0.25500000000E-02 0.  1.
    5000001    1    1    2    0    0  0.16322551859E+02 -0.75939381710E+02 -0.12077287265E+03  0.16293649733E+03  0.77000000000E+02 0.  0.
   -5000001    1    1    2    0    0 -0.16322551859E+02  0.75939381710E+02 -0.52749871776E+02  0.12142802134E+03  0.77000000000E+02 0.  0.
<mgrwt>
<rscale>  0 0.22528435E+03</rscale>
<asrwt>0</asrwt>
<pdfrwt beam="1">  1        2 0.32706233E-01 0.22528435E+03</pdfrwt>
<pdfrwt beam="2">  1       -2 0.79172697E-02 0.22528435E+03</pdfrwt>
<totfact> 0.14945821E+04</totfact>
</mgrwt>
</event>
<event>
 4    1  0.1308644E-003  0.4556239E+03  0.7818608E-02  0.1026058E+00
         -2   -1    0    0    0  501 -0.00000000000E+00  0.00000000000E+00  0.35706497342E+03  0.35706497343E+03  0.25500000000E-02 0. -1.
          2   -1    0    0  501    0  0.00000000000E+00 -0.00000000000E+00 -0.14534689762E+03  0.14534689764E+03  0.25500000000E-02 0.  1.
    5000001    1    1    2    0    0 -0.13679734080E+03  0.15292489050E+03  0.17445442803E+03  0.28011226686E+03  0.77000000000E+02 0.  0.
   -5000001    1    1    2    0    0  0.13679734080E+03 -0.15292489050E+03  0.37263647764E+02  0.22229960421E+03  0.77000000000E+02 0.  0.
<mgrwt>
<rscale>  0 0.45562391E+03</rscale>
<asrwt>0</asrwt>
<pdfrwt beam="1">  1        2 0.20763842E-01 0.45562391E+03</pdfrwt>
<pdfrwt beam="2">  1       -2 0.51009282E-01 0.45562391E+03</pdfrwt>
<totfact> 0.98916825E+02</totfact>
</mgrwt>
</event>
<event>
 4    1  0.1308644E-003  0.2927097E+03  0.7818608E-02  0.1088943E+00
          2   -1    0    0  501    0  0.00000000000E+00  0.00000000000E+00  0.25491693068E+03  0.25491693069E+03  0.25500000000E-02 0.  1.
         -2   -1    0    0    0  501 -0.00000000000E+00 -0.00000000000E+00 -0.84026378996E+02  0.84026379035E+02  0.25500000000E-02 0. -1.
    5000001    1    1    2    0    0 -0.54415340753E+02 -0.11002302849E+03  0.10930721537E+03  0.18150251635E+03  0.77000000000E+02 0.  0.
   -5000001    1    1    2    0    0  0.54415340753E+02  0.11002302849E+03  0.61583336308E+02  0.15744079338E+03  0.77000000000E+02 0.  0.
<mgrwt>
<rscale>  0 0.29270973E+03</rscale>
<asrwt>0</asrwt>
<pdfrwt beam="1">  1        2 0.36416704E-01 0.29270973E+03</pdfrwt>
<pdfrwt beam="2">  1       -2 0.12003768E-01 0.29270973E+03</pdfrwt>
<totfact> 0.69648143E+03</totfact>
</mgrwt>
</event>
<event>
 4    1  0.1308644E-003  0.3374473E+03  0.7818608E-02  0.1067888E+00
         -2   -1    0    0    0  501 -0.00000000000E+00  0.00000000000E+00  0.68156969408E+02  0.68156969455E+02  0.25500000000E-02 0. -1.
          2   -1    0    0  501    0  0.00000000000E+00 -0.00000000000E+00 -0.41767803842E+03  0.41767803843E+03  0.25500000000E-02 0.  1.
    5000001    1    1    2    0    0 -0.10665693802E+03 -0.95756665345E+02 -0.11047623633E+03  0.19666987614E+03  0.77000000000E+02 0.  0.
   -5000001    1    1    2    0    0  0.10665693802E+03  0.95756665345E+02 -0.23904483269E+03  0.28916513175E+03  0.77000000000E+02 0.  0.
<mgrwt>
<rscale>  0 0.33744730E+03</rscale>
<asrwt>0</asrwt>
<pdfrwt beam="1">  1        2 0.59668290E-01 0.33744730E+03</pdfrwt>
<pdfrwt beam="2">  1       -2 0.97367101E-02 0.33744730E+03</pdfrwt>
<totfact> 0.57348489E+03</totfact>
</mgrwt>
</event>
<event>
 4    1  0.1308644E-003  0.1856502E+03  0.7818608E-02  0.1162444E+00
         -2   -1    0    0    0  501 -0.00000000000E+00  0.00000000000E+00  0.46030964109E+01  0.46030971172E+01  0.25500000000E-02 0. -1.
          2   -1    0    0  501    0  0.00000000000E+00 -0.00000000000E+00 -0.18718916457E+04  0.18718916457E+04  0.25500000000E-02 0.  1.
    5000001    1    1    2    0    0  0.21377010012E+02 -0.40237468327E+02 -0.11835860244E+04  0.11869628922E+04  0.77000000000E+02 0.  0.
   -5000001    1    1    2    0    0 -0.21377010012E+02  0.40237468327E+02 -0.68370252488E+03  0.68953185056E+03  0.77000000000E+02 0.  0.
<mgrwt>
<rscale>  0 0.18565019E+03</rscale>
<asrwt>0</asrwt>
<pdfrwt beam="1">  1        2 0.26741260E+00 0.18565019E+03</pdfrwt>
<pdfrwt beam="2">  1       -2 0.65758645E-03 0.18565019E+03</pdfrwt>
<totfact> 0.39042213E+04</totfact>
</mgrwt>
</event>
<event>
 4    1  0.1308644E-003  0.7027698E+03  0.7818608E-02  0.9712507E-01
         -2   -1    0    0    0  501 -0.00000000000E+00  0.00000000000E+00  0.26889899266E+03  0.26889899267E+03  0.25500000000E-02 0. -1.
          2   -1    0    0  501    0  0.00000000000E+00 -0.00000000000E+00 -0.45917365653E+03  0.45917365654E+03  0.25500000000E-02 0.  1.
    5000001    1    1    2    0    0  0.26109233782E+02 -0.13609642505E+03 -0.42001752208E+03  0.44894058388E+03  0.77000000000E+02 0.  0.
   -5000001    1    1    2    0    0 -0.26109233782E+02  0.13609642505E+03  0.22974285821E+03  0.27913206534E+03  0.77000000000E+02 0.  0.
<mgrwt>
<rscale>  0 0.70276976E+03</rscale>
<asrwt>0</asrwt>
<pdfrwt beam="1">  1        2 0.65596237E-01 0.70276976E+03</pdfrwt>
<pdfrwt beam="2">  1       -2 0.38414142E-01 0.70276976E+03</pdfrwt>
<totfact> 0.47665315E+02</totfact>
</mgrwt>
</event>
<event>
 4    1  0.1308644E-003  0.1873261E+03  0.7818608E-02  0.1160895E+00
         -2   -1    0    0    0  501 -0.00000000000E+00  0.00000000000E+00  0.25313778171E+02  0.25313778300E+02  0.25500000000E-02 0. -1.
          2   -1    0    0  501    0  0.00000000000E+00 -0.00000000000E+00 -0.34656093920E+03  0.34656093921E+03  0.25500000000E-02 0.  1.
    5000001    1    1    2    0    0  0.64803720715E+01 -0.52721481648E+02 -0.16998065814E+03  0.19402055044E+03  0.77000000000E+02 0.  0.
   -5000001    1    1    2    0    0 -0.64803720715E+01  0.52721481648E+02 -0.15126650288E+03  0.17785416707E+03  0.77000000000E+02 0.  0.
<mgrwt>
<rscale>  0 0.18732610E+03</rscale>
<asrwt>0</asrwt>
<pdfrwt beam="1">  1        2 0.49508703E-01 0.18732610E+03</pdfrwt>
<pdfrwt beam="2">  1       -2 0.36162543E-02 0.18732610E+03</pdfrwt>
<totfact> 0.31058710E+04</totfact>
</mgrwt>
</event>
<event>
 4    1  0.1308644E-003  0.1799289E+03  0.7818608E-02  0.1167872E+00
         -2   -1    0    0    0  501 -0.00000000000E+00  0.00000000000E+00  0.27724384364E+02  0.27724384481E+02  0.25500000000E-02 0. -1.
          2   -1    0    0  501    0  0.00000000000E+00 -0.00000000000E+00 -0.29193083600E+03  0.29193083601E+03  0.25500000000E-02 0.  1.
    5000001    1    1    2    0    0  0.59245317161E+01 -0.46115508022E+02 -0.13510901734E+03  0.16231200425E+03  0.77000000000E+02 0.  0.
   -5000001    1    1    2    0    0 -0.59245317161E+01  0.46115508022E+02 -0.12909743430E+03  0.15734321624E+03  0.77000000000E+02 0.  0.
<mgrwt>
<rscale>  0 0.17992891E+03</rscale>
<asrwt>0</asrwt>
<pdfrwt beam="1">  1        2 0.41704403E-01 0.17992891E+03</pdfrwt>
<pdfrwt beam="2">  1       -2 0.39606265E-02 0.17992891E+03</pdfrwt>
<totfact> 0.32450910E+04</totfact>
</mgrwt>
</event>
<event>
 4    1  0.1308644E-003  0.2139936E+03  0.7818608E-02  0.1138442E+00
         -2   -1    0    0    0  501 -0.00000000000E+00  0.00000000000E+00  0.40943421531E+01  0.40943429472E+01  0.25500000000E-02 0. -1.
          2   -1    0    0  501    0  0.00000000000E+00 -0.00000000000E+00 -0.27961301053E+04  0.27961301053E+04  0.25500000000E-02 0.  1.
    5000001    1    1    2    0    0 -0.16281246881E+02  0.39363830591E+02 -0.21924889775E+04  0.21942542028E+04  0.77000000000E+02 0.  0.
   -5000001    1    1    2    0    0  0.16281246881E+02 -0.39363830591E+02 -0.59954678570E+03  0.60597024548E+03  0.77000000000E+02 0.  0.
<mgrwt>
<rscale>  0 0.21399359E+03</rscale>
<asrwt>0</asrwt>
<pdfrwt beam="1">  1        2 0.39944593E+00 0.21399359E+03</pdfrwt>
<pdfrwt beam="2">  1       -2 0.58490787E-03 0.21399359E+03</pdfrwt>
<totfact> 0.16367762E+04</totfact>
</mgrwt>
</event>
<event>
 4    1  0.1308644E-003  0.4593274E+03  0.7818608E-02  0.1024976E+00
         -2   -1    0    0    0  501 -0.00000000000E+00  0.00000000000E+00  0.19993364477E+03  0.19993364479E+03  0.25500000000E-02 0. -1.
          2   -1    0    0  501    0  0.00000000000E+00 -0.00000000000E+00 -0.26381464294E+03  0.26381464295E+03  0.25500000000E-02 0.  1.
    5000001    1    1    2    0    0  0.21009819423E+03 -0.51337297976E+02 -0.38298227344E+02  0.23274991644E+03  0.77000000000E+02 0.  0.
   -5000001    1    1    2    0    0 -0.21009819423E+03  0.51337297976E+02 -0.25582770824E+02  0.23099837131E+03  0.77000000000E+02 0.  0.
<mgrwt>
<rscale>  0 0.45932743E+03</rscale>
<asrwt>0</asrwt>
<pdfrwt beam="1">  1        2 0.37687806E-01 0.45932743E+03</pdfrwt>
<pdfrwt beam="2">  1       -2 0.28561949E-01 0.45932743E+03</pdfrwt>
<totfact> 0.15382784E+03</totfact>
</mgrwt>
</event>
<event>
 4    1  0.1308644E-003  0.2539698E+03  0.7818608E-02  0.1110821E+00
          2   -1    0    0  501    0  0.00000000000E+00  0.00000000000E+00  0.69988839688E+03  0.69988839688E+03  0.25500000000E-02 0.  1.
         -2   -1    0    0    0  501 -0.00000000000E+00 -0.00000000000E+00 -0.23039630730E+02  0.23039630872E+02  0.25500000000E-02 0. -1.
    5000001    1    1    2    0    0  0.68772790911E+02  0.39417229642E+02  0.16036934441E+03  0.19475816129E+03  0.77000000000E+02 0.  0.
   -5000001    1    1    2    0    0 -0.68772790911E+02 -0.39417229642E+02  0.51647942174E+03  0.52816986647E+03  0.77000000000E+02 0.  0.
<mgrwt>
<rscale>  0 0.25396984E+03</rscale>
<asrwt>0</asrwt>
<pdfrwt beam="1">  1        2 0.99984035E-01 0.25396984E+03</pdfrwt>
<pdfrwt beam="2">  1       -2 0.32913765E-02 0.25396984E+03</pdfrwt>
<totfact> 0.16757882E+04</totfact>
</mgrwt>
</event>
<event>
 4    1  0.1308644E-003  0.4057402E+03  0.7818608E-02  0.1041810E+00
          2   -1    0    0  501    0  0.00000000000E+00  0.00000000000E+00  0.12039594710E+04  0.12039594710E+04  0.25500000000E-02 0.  1.
         -2   -1    0    0    0  501 -0.00000000000E+00 -0.00000000000E+00 -0.34184110375E+02  0.34184110470E+02  0.25500000000E-02 0. -1.
    5000001    1    1    2    0    0 -0.68512120088E+01  0.15363137429E+03  0.91323610283E+03  0.92928936171E+03  0.77000000000E+02 0.  0.
   -5000001    1    1    2    0    0  0.68512120088E+01 -0.15363137429E+03  0.25653925775E+03  0.30885421972E+03  0.77000000000E+02 0.  0.
<mgrwt>
<rscale>  0 0.40574023E+03</rscale>
<asrwt>0</asrwt>
<pdfrwt beam="1">  1        2 0.17199416E+00 0.40574023E+03</pdfrwt>
<pdfrwt beam="2">  1       -2 0.48834457E-02 0.40574023E+03</pdfrwt>
<totfact> 0.45491229E+03</totfact>
</mgrwt>
</event>
<event>
 4    1  0.1308644E-003  0.1722568E+03  0.7818608E-02  0.1175515E+00
          2   -1    0    0  501    0  0.00000000000E+00  0.00000000000E+00  0.13008751459E+04  0.13008751459E+04  0.25500000000E-02 0.  1.
         -2   -1    0    0    0  501 -0.00000000000E+00 -0.00000000000E+00 -0.57023897099E+01  0.57023902801E+01  0.25500000000E-02 0. -1.
    5000001    1    1    2    0    0 -0.28299564396E+02 -0.20726726004E+02  0.52560248415E+03  0.53236964025E+03  0.77000000000E+02 0.  0.
   -5000001    1    1    2    0    0  0.28299564396E+02  0.20726726004E+02  0.76957027207E+03  0.77420789596E+03  0.77000000000E+02 0.  0.
<mgrwt>
<rscale>  0 0.17225676E+03</rscale>
<asrwt>0</asrwt>
<pdfrwt beam="1">  1        2 0.18583955E+00 0.17225676E+03</pdfrwt>
<pdfrwt beam="2">  1       -2 0.81462609E-03 0.17225676E+03</pdfrwt>
<totfact> 0.54696850E+04</totfact>
</mgrwt>
</event>
<event>
 4    1  0.1308644E-003  0.2885684E+03  0.7818608E-02  0.1091099E+00
         -2   -1    0    0    0  501 -0.00000000000E+00  0.00000000000E+00  0.10796233034E+03  0.10796233037E+03  0.25500000000E-02 0. -1.
          2   -1    0    0  501    0  0.00000000000E+00 -0.00000000000E+00 -0.19282583171E+03  0.19282583173E+03  0.25500000000E-02 0.  1.
    5000001    1    1    2    0    0  0.44383114575E+02 -0.34360851534E+02  0.70500091497E+02  0.11853181800E+03  0.77000000000E+02 0.  0.
   -5000001    1    1    2    0    0 -0.44383114575E+02  0.34360851534E+02 -0.15536359287E+03  0.18225634410E+03  0.77000000000E+02 0.  0.
<mgrwt>
<rscale>  0 0.28856837E+03</rscale>
<asrwt>0</asrwt>
<pdfrwt beam="1">  1        2 0.27546547E-01 0.28856837E+03</pdfrwt>
<pdfrwt beam="2">  1       -2 0.15423190E-01 0.28856837E+03</pdfrwt>
<totfact> 0.62694156E+03</totfact>
</mgrwt>
</event>
<event>
 4    1  0.1308644E-003  0.2236805E+03  0.7818608E-02  0.1131168E+00
          2   -1    0    0  501    0  0.00000000000E+00  0.00000000000E+00  0.22513320637E+04  0.22513320637E+04  0.25500000000E-02 0.  1.
         -2   -1    0    0    0  501 -0.00000000000E+00 -0.00000000000E+00 -0.55559304905E+01  0.55559310757E+01  0.25500000000E-02 0. -1.
    5000001    1    1    2    0    0 -0.47318939832E+02  0.65866101015E+02  0.11092769931E+04  0.11148999385E+04  0.77000000000E+02 0.  0.
   -5000001    1    1    2    0    0  0.47318939832E+02 -0.65866101015E+02  0.11364991401E+04  0.11419880564E+04  0.77000000000E+02 0.  0.
<mgrwt>
<rscale>  0 0.22368053E+03</rscale>
<asrwt>0</asrwt>
<pdfrwt beam="1">  1        2 0.32161875E+00 0.22368053E+03</pdfrwt>
<pdfrwt beam="2">  1       -2 0.79370468E-03 0.22368053E+03</pdfrwt>
<totfact> 0.19713124E+04</totfact>
</mgrwt>
</event>
<event>
 4    1  0.1308644E-003  0.3363283E+03  0.7818608E-02  0.1068371E+00
         -2   -1    0    0    0  501 -0.00000000000E+00  0.00000000000E+00  0.88906517645E+03  0.88906517646E+03  0.25500000000E-02 0. -1.
          2   -1    0    0  501    0  0.00000000000E+00 -0.00000000000E+00 -0.31807763987E+02  0.31807764089E+02  0.25500000000E-02 0.  1.
    5000001    1    1    2    0    0 -0.13773134406E+03 -0.57401620722E+02  0.40334000514E+03  0.43689475729E+03  0.77000000000E+02 0.  0.
   -5000001    1    1    2    0    0  0.13773134406E+03  0.57401620722E+02  0.45391740732E+03  0.48397818326E+03  0.77000000000E+02 0.  0.
<mgrwt>
<rscale>  0 0.33632826E+03</rscale>
<asrwt>0</asrwt>
<pdfrwt beam="1">  1        2 0.45439668E-02 0.33632826E+03</pdfrwt>
<pdfrwt beam="2">  1       -2 0.12700930E+00 0.33632826E+03</pdfrwt>
<totfact> 0.86758249E+02</totfact>
</mgrwt>
</event>
<event>
 4    1  0.1308644E-003  0.1195902E+04  0.7818608E-02  0.9116451E-01
          2   -1    0    0  501    0  0.00000000000E+00  0.00000000000E+00  0.46868952762E+03  0.46868952763E+03  0.25500000000E-02 0.  1.
         -2   -1    0    0    0  501 -0.00000000000E+00 -0.00000000000E+00 -0.76286140878E+03  0.76286140878E+03  0.25500000000E-02 0. -1.
    5000001    1    1    2    0    0 -0.31696335974E+03 -0.39217213301E+03 -0.46839874758E+03  0.69252519092E+03  0.77000000000E+02 0.  0.
   -5000001    1    1    2    0    0  0.31696335974E+03  0.39217213301E+03  0.17422686642E+03  0.53902574550E+03  0.77000000000E+02 0.  0.
<mgrwt>
<rscale>  0 0.11959016E+04</rscale>
<asrwt>0</asrwt>
<pdfrwt beam="1">  1        2 0.66955647E-01 0.11959016E+04</pdfrwt>
<pdfrwt beam="2">  1       -2 0.10898020E+00 0.11959016E+04</pdfrwt>
<totfact> 0.48004416E+01</totfact>
</mgrwt>
</event>
<event>
 4    1  0.1308644E-003  0.1606533E+03  0.7818608E-02  0.1187961E+00
          2   -1    0    0  501    0  0.00000000000E+00  0.00000000000E+00  0.51546303883E+03  0.51546303884E+03  0.25500000000E-02 0.  1.
         -2   -1    0    0    0  501 -0.00000000000E+00 -0.00000000000E+00 -0.12517624953E+02  0.12517625213E+02  0.25500000000E-02 0. -1.
    5000001    1    1    2    0    0 -0.10982222911E+02  0.17808743869E+02  0.22106407726E+03  0.23502358782E+03  0.77000000000E+02 0.  0.
   -5000001    1    1    2    0    0  0.10982222911E+02 -0.17808743869E+02  0.28188133662E+03  0.29295707623E+03  0.77000000000E+02 0.  0.
<mgrwt>
<rscale>  0 0.16065333E+03</rscale>
<asrwt>0</asrwt>
<pdfrwt beam="1">  1        2 0.73637594E-01 0.16065333E+03</pdfrwt>
<pdfrwt beam="2">  1       -2 0.17882317E-02 0.16065333E+03</pdfrwt>
<totfact> 0.56155591E+04</totfact>
</mgrwt>
</event>
<event>
 4    1  0.1308644E-003  0.2982175E+03  0.7818608E-02  0.1086135E+00
         -2   -1    0    0    0  501 -0.00000000000E+00  0.00000000000E+00  0.22019511263E+03  0.22019511264E+03  0.25500000000E-02 0. -1.
          2   -1    0    0  501    0  0.00000000000E+00 -0.00000000000E+00 -0.10097145729E+03  0.10097145732E+03  0.25500000000E-02 0.  1.
    5000001    1    1    2    0    0 -0.12612935614E+02 -0.94646013328E+02  0.15091484559E+03  0.19447684850E+03  0.77000000000E+02 0.  0.
   -5000001    1    1    2    0    0  0.12612935614E+02  0.94646013328E+02 -0.31691190256E+02  0.12668972146E+03  0.77000000000E+02 0.  0.
<mgrwt>
<rscale>  0 0.29821751E+03</rscale>
<asrwt>0</asrwt>
<pdfrwt beam="1">  1        2 0.14424494E-01 0.29821751E+03</pdfrwt>
<pdfrwt beam="2">  1       -2 0.31456445E-01 0.29821751E+03</pdfrwt>
<totfact> 0.38217332E+03</totfact>
</mgrwt>
</event>
<event>
 4    1  0.1308644E-003  0.2842595E+03  0.7818608E-02  0.1093385E+00
         -2   -1    0    0    0  501 -0.00000000000E+00  0.00000000000E+00  0.21022040154E+02  0.21022040309E+02  0.25500000000E-02 0. -1.
          2   -1    0    0  501    0  0.00000000000E+00 -0.00000000000E+00 -0.96093714520E+03  0.96093714521E+03  0.25500000000E-02 0.  1.
    5000001    1    1    2    0    0 -0.70421094868E+02 -0.67921808169E+02 -0.23314881378E+03  0.26431018141E+03  0.77000000000E+02 0.  0.
   -5000001    1    1    2    0    0  0.70421094868E+02  0.67921808169E+02 -0.70676629127E+03  0.71764900411E+03  0.77000000000E+02 0.  0.
<mgrwt>
<rscale>  0 0.28425945E+03</rscale>
<asrwt>0</asrwt>
<pdfrwt beam="1">  1        2 0.13727671E+00 0.28425945E+03</pdfrwt>
<pdfrwt beam="2">  1       -2 0.30031492E-02 0.28425945E+03</pdfrwt>
<totfact> 0.12978863E+04</totfact>
</mgrwt>
</event>
<event>
 4    1  0.1308644E-003  0.3393062E+03  0.7818608E-02  0.1067092E+00
         -2   -1    0    0    0  501 -0.00000000000E+00  0.00000000000E+00  0.21918419211E+02  0.21918419359E+02  0.25500000000E-02 0. -1.
          2   -1    0    0  501    0  0.00000000000E+00 -0.00000000000E+00 -0.13131499735E+04  0.13131499735E+04  0.25500000000E-02 0.  1.
    5000001    1    1    2    0    0 -0.14331322670E+03  0.13638804337E+02 -0.82714472502E+03  0.84310265926E+03  0.77000000000E+02 0.  0.
   -5000001    1    1    2    0    0  0.14331322670E+03 -0.13638804337E+02 -0.46408682923E+03  0.49196573356E+03  0.77000000000E+02 0.  0.
<mgrwt>
<rscale>  0 0.33930618E+03</rscale>
<asrwt>0</asrwt>
<pdfrwt beam="1">  1        2 0.18759280E+00 0.33930618E+03</pdfrwt>
<pdfrwt beam="2">  1       -2 0.31312036E-02 0.33930618E+03</pdfrwt>
<totfact> 0.77735635E+03</totfact>
</mgrwt>
</event>
<event>
 4    1  0.1308644E-003  0.2450385E+03  0.7818608E-02  0.1116481E+00
          2   -1    0    0  501    0  0.00000000000E+00  0.00000000000E+00  0.19976726270E+04  0.19976726270E+04  0.25500000000E-02 0.  1.
         -2   -1    0    0    0  501 -0.00000000000E+00 -0.00000000000E+00 -0.75142254629E+01  0.75142258956E+01  0.25500000000E-02 0. -1.
    5000001    1    1    2    0    0  0.17630486250E+02 -0.93638467646E+02  0.98098543038E+03  0.98860528589E+03  0.77000000000E+02 0.  0.
   -5000001    1    1    2    0    0 -0.17630486250E+02  0.93638467646E+02  0.10091729712E+04  0.10165815670E+04  0.77000000000E+02 0.  0.
<mgrwt>
<rscale>  0 0.24503847E+03</rscale>
<asrwt>0</asrwt>
<pdfrwt beam="1">  1        2 0.28538208E+00 0.24503847E+03</pdfrwt>
<pdfrwt beam="2">  1       -2 0.10734598E-02 0.24503847E+03</pdfrwt>
<totfact> 0.16968330E+04</totfact>
</mgrwt>
</event>
<event>
 4    1  0.1308644E-003  0.2278597E+03  0.7818608E-02  0.1128155E+00
         -2   -1    0    0    0  501 -0.00000000000E+00  0.00000000000E+00  0.32350704282E+03  0.32350704283E+03  0.25500000000E-02 0. -1.
          2   -1    0    0  501    0  0.00000000000E+00 -0.00000000000E+00 -0.40122814977E+02  0.40122815058E+02  0.25500000000E-02 0.  1.
    5000001    1    1    2    0    0 -0.33648816303E+02 -0.76251257703E+02  0.12537724571E+03  0.16910041657E+03  0.77000000000E+02 0.  0.
   -5000001    1    1    2    0    0  0.33648816303E+02  0.76251257703E+02  0.15800698213E+03  0.19452944132E+03  0.77000000000E+02 0.  0.
<mgrwt>
<rscale>  0 0.22785972E+03</rscale>
<asrwt>0</asrwt>
<pdfrwt beam="1">  1        2 0.57318309E-02 0.22785972E+03</pdfrwt>
<pdfrwt beam="2">  1       -2 0.46215291E-01 0.22785972E+03</pdfrwt>
<totfact> 0.57963787E+03</totfact>
</mgrwt>
</event>
<event>
 4    1  0.1308644E-003  0.3856774E+03  0.7818608E-02  0.1048855E+00
         -2   -1    0    0    0  501 -0.00000000000E+00  0.00000000000E+00  0.26055018881E+02  0.26055019006E+02  0.25500000000E-02 0. -1.
          2   -1    0    0  501    0  0.00000000000E+00 -0.00000000000E+00 -0.14272396097E+04  0.14272396097E+04  0.25500000000E-02 0.  1.
    5000001    1    1    2    0    0 -0.16448682606E+03 -0.62733111423E+02 -0.76209486510E+03  0.78594461804E+03  0.77000000000E+02 0.  0.
   -5000001    1    1    2    0    0  0.16448682606E+03  0.62733111423E+02 -0.63908972573E+03  0.66735001067E+03  0.77000000000E+02 0.  0.
<mgrwt>
<rscale>  0 0.38567735E+03</rscale>
<asrwt>0</asrwt>
<pdfrwt beam="1">  1        2 0.20389132E+00 0.38567735E+03</pdfrwt>
<pdfrwt beam="2">  1       -2 0.37221465E-02 0.38567735E+03</pdfrwt>
<totfact> 0.52284627E+03</totfact>
</mgrwt>
</event>
<event>
 4    1  0.1308644E-003  0.3146042E+03  0.7818608E-02  0.1078160E+00
          2   -1    0    0  501    0  0.00000000000E+00  0.00000000000E+00  0.14856275699E+03  0.14856275701E+03  0.25500000000E-02 0.  1.
         -2   -1    0    0    0  501 -0.00000000000E+00 -0.00000000000E+00 -0.16655550458E+03  0.16655550460E+03  0.25500000000E-02 0. -1.
    5000001    1    1    2    0    0 -0.75709455243E+02 -0.46573616635E+02  0.95644057325E+02  0.15158432993E+03  0.77000000000E+02 0.  0.
   -5000001    1    1    2    0    0  0.75709455243E+02  0.46573616635E+02 -0.11363680491E+03  0.16353393168E+03  0.77000000000E+02 0.  0.
<mgrwt>
<rscale>  0 0.31460416E+03</rscale>
<asrwt>0</asrwt>
<pdfrwt beam="1">  1        2 0.21223251E-01 0.31460416E+03</pdfrwt>
<pdfrwt beam="2">  1       -2 0.23793644E-01 0.31460416E+03</pdfrwt>
<totfact> 0.40239958E+03</totfact>
</mgrwt>
</event>
<event>
 4    1  0.1308644E-003  0.4206661E+03  0.7818608E-02  0.1036850E+00
         -2   -1    0    0    0  501 -0.00000000000E+00  0.00000000000E+00  0.65344151434E+02  0.65344151484E+02  0.25500000000E-02 0. -1.
          2   -1    0    0  501    0  0.00000000000E+00 -0.00000000000E+00 -0.67703061524E+03  0.67703061524E+03  0.25500000000E-02 0.  1.
    5000001    1    1    2    0    0  0.13857142295E+03 -0.13488683287E+03 -0.35921064496E+03  0.41515995037E+03  0.77000000000E+02 0.  0.
   -5000001    1    1    2    0    0 -0.13857142295E+03  0.13488683287E+03 -0.25247581885E+03  0.32721481636E+03  0.77000000000E+02 0.  0.
<mgrwt>
<rscale>  0 0.42066610E+03</rscale>
<asrwt>0</asrwt>
<pdfrwt beam="1">  1        2 0.96718655E-01 0.42066610E+03</pdfrwt>
<pdfrwt beam="2">  1       -2 0.93348792E-02 0.42066610E+03</pdfrwt>
<totfact> 0.35619316E+03</totfact>
</mgrwt>
</event>
<event>
 4    1  0.1308644E-003  0.3173285E+03  0.7818608E-02  0.1076885E+00
          2   -1    0    0  501    0  0.00000000000E+00  0.00000000000E+00  0.29664312561E+04  0.29664312561E+04  0.25500000000E-02 0.  1.
         -2   -1    0    0    0  501 -0.00000000000E+00 -0.00000000000E+00 -0.84864061647E+01  0.84864065478E+01  0.25500000000E-02 0. -1.
    5000001    1    1    2    0    0 -0.37565126821E+02 -0.13193287436E+03  0.12850416766E+04  0.12946345171E+04  0.77000000000E+02 0.  0.
   -5000001    1    1    2    0    0  0.37565126821E+02  0.13193287436E+03  0.16729031733E+04  0.16802831455E+04  0.77000000000E+02 0.  0.
<mgrwt>
<rscale>  0 0.31732848E+03</rscale>
<asrwt>0</asrwt>
<pdfrwt beam="1">  1        2 0.42377638E+00 0.31732848E+03</pdfrwt>
<pdfrwt beam="2">  1       -2 0.12123424E-02 0.31732848E+03</pdfrwt>
<totfact> 0.46492564E+03</totfact>
</mgrwt>
</event>
<event>
 4    1  0.1308644E-003  0.2050029E+03  0.7818608E-02  0.1145585E+00
         -2   -1    0    0    0  501 -0.00000000000E+00  0.00000000000E+00  0.11442817899E+02  0.11442818183E+02  0.25500000000E-02 0. -1.
          2   -1    0    0  501    0  0.00000000000E+00 -0.00000000000E+00 -0.91817813633E+03  0.91817813633E+03  0.25500000000E-02 0.  1.
    5000001    1    1    2    0    0  0.48108619589E+02  0.69926191648E+01 -0.66674842969E+03  0.67293818773E+03  0.77000000000E+02 0.  0.
   -5000001    1    1    2    0    0 -0.48108619589E+02 -0.69926191648E+01 -0.23998688874E+03  0.25668276679E+03  0.77000000000E+02 0.  0.
<mgrwt>
<rscale>  0 0.20500288E+03</rscale>
<asrwt>0</asrwt>
<pdfrwt beam="1">  1        2 0.13116826E+00 0.20500288E+03</pdfrwt>
<pdfrwt beam="2">  1       -2 0.16346889E-02 0.20500288E+03</pdfrwt>
<totfact> 0.33147544E+04</totfact>
</mgrwt>
</event>
<event>
 4    1  0.1308644E-003  0.2078291E+03  0.7818608E-02  0.1143297E+00
         -2   -1    0    0    0  501 -0.00000000000E+00  0.00000000000E+00  0.41321254579E+01  0.41321262448E+01  0.25500000000E-02 0. -1.
          2   -1    0    0  501    0  0.00000000000E+00 -0.00000000000E+00 -0.26132381873E+04  0.26132381873E+04  0.25500000000E-02 0.  1.
    5000001    1    1    2    0    0 -0.49304914258E+02  0.45861648484E+02 -0.15350460528E+04  0.15384504053E+04  0.77000000000E+02 0.  0.
   -5000001    1    1    2    0    0  0.49304914258E+02 -0.45861648484E+02 -0.10740600091E+04  0.10789199082E+04  0.77000000000E+02 0.  0.
<mgrwt>
<rscale>  0 0.20782906E+03</rscale>
<asrwt>0</asrwt>
<pdfrwt beam="1">  1        2 0.37331868E+00 0.20782906E+03</pdfrwt>
<pdfrwt beam="2">  1       -2 0.59030537E-03 0.20782906E+03</pdfrwt>
<totfact> 0.19967387E+04</totfact>
</mgrwt>
</event>
<event>
 4    1  0.1308644E-003  0.2378713E+03  0.7818608E-02  0.1121219E+00
         -2   -1    0    0    0  501 -0.00000000000E+00  0.00000000000E+00  0.13939136641E+02  0.13939136874E+02  0.25500000000E-02 0. -1.
          2   -1    0    0  501    0  0.00000000000E+00 -0.00000000000E+00 -0.10148184261E+04  0.10148184261E+04  0.25500000000E-02 0.  1.
    5000001    1    1    2    0    0  0.49714968721E+02  0.72417255430E+02 -0.59722893400E+03  0.60854518041E+03  0.77000000000E+02 0.  0.
   -5000001    1    1    2    0    0 -0.49714968721E+02 -0.72417255430E+02 -0.40365035551E+03  0.42021238261E+03  0.77000000000E+02 0.  0.
<mgrwt>
<rscale>  0 0.23787133E+03</rscale>
<asrwt>0</asrwt>
<pdfrwt beam="1">  1        2 0.14497401E+00 0.23787133E+03</pdfrwt>
<pdfrwt beam="2">  1       -2 0.19913059E-02 0.23787133E+03</pdfrwt>
<totfact> 0.21955143E+04</totfact>
</mgrwt>
</event>
<event>
 4    1  0.1308644E-003  0.3569918E+03  0.7818608E-02  0.1059781E+00
          2   -1    0    0  501    0  0.00000000000E+00  0.00000000000E+00  0.20698784268E+04  0.20698784268E+04  0.25500000000E-02 0.  1.
         -2   -1    0    0    0  501 -0.00000000000E+00 -0.00000000000E+00 -0.15392590531E+02  0.15392590742E+02  0.25500000000E-02 0. -1.
    5000001    1    1    2    0    0 -0.45822945420E+01 -0.15377033591E+03  0.74921774171E+03  0.76871486139E+03  0.77000000000E+02 0.  0.
   -5000001    1    1    2    0    0  0.45822945420E+01  0.15377033591E+03  0.13052680945E+04  0.13165561561E+04  0.77000000000E+02 0.  0.
<mgrwt>
<rscale>  0 0.35699183E+03</rscale>
<asrwt>0</asrwt>
<pdfrwt beam="1">  1        2 0.29569711E+00 0.35699183E+03</pdfrwt>
<pdfrwt beam="2">  1       -2 0.21989401E-02 0.35699183E+03</pdfrwt>
<totfact> 0.54906193E+03</totfact>
</mgrwt>
</event>
<event>
 4    1  0.1308644E-003  0.1746123E+03  0.7818608E-02  0.1173122E+00
         -2   -1    0    0    0  501 -0.00000000000E+00  0.00000000000E+00  0.10626645365E+02  0.10626645671E+02  0.25500000000E-02 0. -1.
          2   -1    0    0  501    0  0.00000000000E+00 -0.00000000000E+00 -0.71728781411E+03  0.71728781412E+03  0.25500000000E-02 0.  1.
    5000001    1    1    2    0    0 -0.39781558872E+02  0.38075056787E+01 -0.39423825191E+03  0.40367049532E+03  0.77000000000E+02 0.  0.
   -5000001    1    1    2    0    0  0.39781558872E+02 -0.38075056787E+01 -0.31242291684E+03  0.32424396447E+03  0.77000000000E+02 0.  0.
<mgrwt>
<rscale>  0 0.17461229E+03</rscale>
<asrwt>0</asrwt>
<pdfrwt beam="1">  1        2 0.10246966E+00 0.17461229E+03</pdfrwt>
<pdfrwt beam="2">  1       -2 0.15180927E-02 0.17461229E+03</pdfrwt>
<totfact> 0.49386755E+04</totfact>
</mgrwt>
</event>
<event>
 4    1  0.1308644E-003  0.6436070E+03  0.7818608E-02  0.9818850E-01
          2   -1    0    0  501    0  0.00000000000E+00  0.00000000000E+00  0.15125102795E+04  0.15125102795E+04  0.25500000000E-02 0.  1.
         -2   -1    0    0    0  501 -0.00000000000E+00 -0.00000000000E+00 -0.68467290410E+02  0.68467290458E+02  0.25500000000E-02 0. -1.
    5000001    1    1    2    0    0 -0.46294764579E+02 -0.29856282148E+03  0.52634508067E+03  0.61176066198E+03  0.77000000000E+02 0.  0.
   -5000001    1    1    2    0    0  0.46294764579E+02  0.29856282148E+03  0.91769790842E+03  0.96921690798E+03  0.77000000000E+02 0.  0.
<mgrwt>
<rscale>  0 0.64360696E+03</rscale>
<asrwt>0</asrwt>
<pdfrwt beam="1">  1        2 0.21607285E+00 0.64360696E+03</pdfrwt>
<pdfrwt beam="2">  1       -2 0.97810436E-02 0.64360696E+03</pdfrwt>
<totfact> 0.10384974E+03</totfact>
</mgrwt>
</event>
<event>
 4    1  0.1308644E-003  0.2473242E+03  0.7818608E-02  0.1115008E+00
         -2   -1    0    0    0  501 -0.00000000000E+00  0.00000000000E+00  0.20007242794E+03  0.20007242796E+03  0.25500000000E-02 0. -1.
          2   -1    0    0  501    0  0.00000000000E+00 -0.00000000000E+00 -0.76433885028E+02  0.76433885071E+02  0.25500000000E-02 0.  1.
    5000001    1    1    2    0    0  0.42659081687E+02 -0.70483902733E+02  0.50815084240E+01  0.11288312329E+03  0.77000000000E+02 0.  0.
   -5000001    1    1    2    0    0 -0.42659081687E+02  0.70483902733E+02  0.11855703449E+03  0.16362318974E+03  0.77000000000E+02 0.  0.
<mgrwt>
<rscale>  0 0.24732418E+03</rscale>
<asrwt>0</asrwt>
<pdfrwt beam="1">  1        2 0.10919126E-01 0.24732418E+03</pdfrwt>
<pdfrwt beam="2">  1       -2 0.28581776E-01 0.24732418E+03</pdfrwt>
<totfact> 0.63272303E+03</totfact>
</mgrwt>
</event>
<event>
 4    1  0.1308644E-003  0.3408562E+03  0.7818608E-02  0.1066432E+00
          2   -1    0    0  501    0  0.00000000000E+00  0.00000000000E+00  0.16910913012E+04  0.16910913012E+04  0.25500000000E-02 0.  1.
         -2   -1    0    0    0  501 -0.00000000000E+00 -0.00000000000E+00 -0.17175732620E+02  0.17175732809E+02  0.25500000000E-02 0. -1.
    5000001    1    1    2    0    0 -0.60187406522E+02  0.38318482457E+02  0.15098307891E+04  0.15134757487E+04  0.77000000000E+02 0.  0.
   -5000001    1    1    2    0    0  0.60187406522E+02 -0.38318482457E+02  0.16408477950E+03  0.19479128539E+03  0.77000000000E+02 0.  0.
<mgrwt>
<rscale>  0 0.34085617E+03</rscale>
<asrwt>0</asrwt>
<pdfrwt beam="1">  1        2 0.24158459E+00 0.34085617E+03</pdfrwt>
<pdfrwt beam="2">  1       -2 0.24536749E-02 0.34085617E+03</pdfrwt>
<totfact> 0.71738431E+03</totfact>
</mgrwt>
</event>
<event>
 4    1  0.1308644E-003  0.1737085E+03  0.7818608E-02  0.1174035E+00
         -2   -1    0    0    0  501 -0.00000000000E+00  0.00000000000E+00  0.44707674784E+03  0.44707674784E+03  0.25500000000E-02 0. -1.
          2   -1    0    0  501    0  0.00000000000E+00 -0.00000000000E+00 -0.16873291926E+02  0.16873292119E+02  0.25500000000E-02 0.  1.
    5000001    1    1    2    0    0  0.33345288008E+02 -0.12837708329E+01  0.15531392877E+03  0.17653603816E+03  0.77000000000E+02 0.  0.
   -5000001    1    1    2    0    0 -0.33345288008E+02  0.12837708329E+01  0.27488952714E+03  0.28741400180E+03  0.77000000000E+02 0.  0.
<mgrwt>
<rscale>  0 0.17370845E+03</rscale>
<asrwt>0</asrwt>
<pdfrwt beam="1">  1        2 0.24104701E-02 0.17370845E+03</pdfrwt>
<pdfrwt beam="2">  1       -2 0.63868111E-01 0.17370845E+03</pdfrwt>
<totfact> 0.94185255E+03</totfact>
</mgrwt>
</event>
<event>
 4    1  0.1308644E-003  0.2398612E+03  0.7818608E-02  0.1119885E+00
         -2   -1    0    0    0  501 -0.00000000000E+00  0.00000000000E+00  0.37982961585E+02  0.37982961671E+02  0.25500000000E-02 0. -1.
          2   -1    0    0  501    0  0.00000000000E+00 -0.00000000000E+00 -0.37867897246E+03  0.37867897247E+03  0.25500000000E-02 0.  1.
    5000001    1    1    2    0    0 -0.64030975583E+02  0.58273749567E+02 -0.11656662760E+03  0.16435502546E+03  0.77000000000E+02 0.  0.
   -5000001    1    1    2    0    0  0.64030975583E+02 -0.58273749567E+02 -0.22412938327E+03  0.25230690868E+03  0.77000000000E+02 0.  0.
<mgrwt>
<rscale>  0 0.23986120E+03</rscale>
<asrwt>0</asrwt>
<pdfrwt beam="1">  1        2 0.54096994E-01 0.23986120E+03</pdfrwt>
<pdfrwt beam="2">  1       -2 0.54261376E-02 0.23986120E+03</pdfrwt>
<totfact> 0.15611578E+04</totfact>
</mgrwt>
</event>
<event>
 4    1  0.1308644E-003  0.4775486E+03  0.7818608E-02  0.1019811E+00
         -2   -1    0    0    0  501 -0.00000000000E+00  0.00000000000E+00  0.17758486351E+03  0.17758486353E+03  0.25500000000E-02 0. -1.
          2   -1    0    0  501    0  0.00000000000E+00 -0.00000000000E+00 -0.32104741644E+03  0.32104741645E+03  0.25500000000E-02 0.  1.
    5000001    1    1    2    0    0 -0.15644806627E+03 -0.13250203590E+03  0.27607796577E+02  0.22073508418E+03  0.77000000000E+02 0.  0.
   -5000001    1    1    2    0    0  0.15644806627E+03  0.13250203590E+03 -0.17107034951E+03  0.27789719581E+03  0.77000000000E+02 0.  0.
<mgrwt>
<rscale>  0 0.47754858E+03</rscale>
<asrwt>0</asrwt>
<pdfrwt beam="1">  1        2 0.45863916E-01 0.47754858E+03</pdfrwt>
<pdfrwt beam="2">  1       -2 0.25369266E-01 0.47754858E+03</pdfrwt>
<totfact> 0.15367966E+03</totfact>
</mgrwt>
</event>
<event>
 4    1  0.1308644E-003  0.2243835E+03  0.7818608E-02  0.1130657E+00
          2   -1    0    0  501    0  0.00000000000E+00  0.00000000000E+00  0.75937003897E+02  0.75937003940E+02  0.25500000000E-02 0.  1.
         -2   -1    0    0    0  501 -0.00000000000E+00 -0.00000000000E+00 -0.16575571829E+03  0.16575571831E+03  0.25500000000E-02 0. -1.
    5000001    1    1    2    0    0  0.46794470538E+02 -0.60112756318E+02 -0.13418373947E+02  0.10914356923E+03  0.77000000000E+02 0.  0.
   -5000001    1    1    2    0    0 -0.46794470538E+02  0.60112756318E+02 -0.76400340443E+02  0.13254915301E+03  0.77000000000E+02 0.  0.
<mgrwt>
<rscale>  0 0.22438353E+03</rscale>
<asrwt>0</asrwt>
<pdfrwt beam="1">  1        2 0.10848143E-01 0.22438353E+03</pdfrwt>
<pdfrwt beam="2">  1       -2 0.23679388E-01 0.22438353E+03</pdfrwt>
<totfact> 0.88564857E+03</totfact>
</mgrwt>
</event>
<event>
 4    1  0.1308644E-003  0.2137827E+03  0.7818608E-02  0.1138605E+00
         -2   -1    0    0    0  501 -0.00000000000E+00  0.00000000000E+00  0.63941645591E+01  0.63941650676E+01  0.25500000000E-02 0. -1.
          2   -1    0    0  501    0  0.00000000000E+00 -0.00000000000E+00 -0.17869035681E+04  0.17869035681E+04  0.25500000000E-02 0.  1.
    5000001    1    1    2    0    0 -0.17215563102E+02 -0.65598346473E+02 -0.11415206175E+04  0.11461229597E+04  0.77000000000E+02 0.  0.
   -5000001    1    1    2    0    0  0.17215563102E+02  0.65598346473E+02 -0.63898878603E+03  0.64717477342E+03  0.77000000000E+02 0.  0.
<mgrwt>
<rscale>  0 0.21378266E+03</rscale>
<asrwt>0</asrwt>
<pdfrwt beam="1">  1        2 0.25527162E+00 0.21378266E+03</pdfrwt>
<pdfrwt beam="2">  1       -2 0.91345326E-03 0.21378266E+03</pdfrwt>
<totfact> 0.26973189E+04</totfact>
</mgrwt>
</event>
<event>
 4    1  0.1308644E-003  0.2207548E+03  0.7818608E-02  0.1133322E+00
         -2   -1    0    0    0  501 -0.00000000000E+00  0.00000000000E+00  0.65218751102E+01  0.65218756088E+01  0.25500000000E-02 0. -1.
          2   -1    0    0  501    0  0.00000000000E+00 -0.00000000000E+00 -0.18680468165E+04  0.18680468165E+04  0.25500000000E-02 0.  1.
    5000001    1    1    2    0    0  0.77692877267E+02  0.49299397922E+01 -0.81258497791E+03  0.81992916389E+03  0.77000000000E+02 0.  0.
   -5000001    1    1    2    0    0 -0.77692877267E+02 -0.49299397922E+01 -0.10489399634E+04  0.10546395282E+04  0.77000000000E+02 0.  0.
<mgrwt>
<rscale>  0 0.22075478E+03</rscale>
<asrwt>0</asrwt>
<pdfrwt beam="1">  1        2 0.26686349E+00 0.22075478E+03</pdfrwt>
<pdfrwt beam="2">  1       -2 0.93169767E-03 0.22075478E+03</pdfrwt>
<totfact> 0.23978612E+04</totfact>
</mgrwt>
</event>
<event>
 4    1  0.1308644E-003  0.1985314E+03  0.7818608E-02  0.1150984E+00
         -2   -1    0    0    0  501 -0.00000000000E+00  0.00000000000E+00  0.41610015163E+02  0.41610015241E+02  0.25500000000E-02 0. -1.
          2   -1    0    0  501    0  0.00000000000E+00 -0.00000000000E+00 -0.23681021629E+03  0.23681021630E+03  0.25500000000E-02 0.  1.
    5000001    1    1    2    0    0 -0.56263570528E+02 -0.27550840827E+02 -0.97324914108E+02  0.13901718277E+03  0.77000000000E+02 0.  0.
   -5000001    1    1    2    0    0  0.56263570528E+02  0.27550840827E+02 -0.97875287017E+02  0.13940304877E+03  0.77000000000E+02 0.  0.
<mgrwt>
<rscale>  0 0.19853137E+03</rscale>
<asrwt>0</asrwt>
<pdfrwt beam="1">  1        2 0.33830030E-01 0.19853137E+03</pdfrwt>
<pdfrwt beam="2">  1       -2 0.59442880E-02 0.19853137E+03</pdfrwt>
<totfact> 0.22207342E+04</totfact>
</mgrwt>
</event>
<event>
 4    1  0.1308644E-003  0.8162229E+03  0.7818608E-02  0.9536828E-01
         -2   -1    0    0    0  501 -0.00000000000E+00  0.00000000000E+00  0.16831252921E+03  0.16831252923E+03  0.25500000000E-02 0. -1.
          2   -1    0    0  501    0  0.00000000000E+00 -0.00000000000E+00 -0.98955757982E+03  0.98955757983E+03  0.25500000000E-02 0.  1.
    5000001    1    1    2    0    0  0.13352043110E+02 -0.38118147709E+03 -0.58521827283E+03  0.70277096012E+03  0.77000000000E+02 0.  0.
   -5000001    1    1    2    0    0 -0.13352043110E+02  0.38118147709E+03 -0.23602677779E+03  0.45509914894E+03  0.77000000000E+02 0.  0.
<mgrwt>
<rscale>  0 0.81622286E+03</rscale>
<asrwt>0</asrwt>
<pdfrwt beam="1">  1        2 0.14136537E+00 0.81622286E+03</pdfrwt>
<pdfrwt beam="2">  1       -2 0.24044648E-01 0.81622286E+03</pdfrwt>
<totfact> 0.43934416E+02</totfact>
</mgrwt>
</event>
<event>
 4    1  0.1308644E-003  0.3815963E+03  0.7818608E-02  0.1050345E+00
          2   -1    0    0  501    0  0.00000000000E+00  0.00000000000E+00  0.91139729443E+02  0.91139729479E+02  0.25500000000E-02 0.  1.
         -2   -1    0    0    0  501 -0.00000000000E+00 -0.00000000000E+00 -0.39942988441E+03  0.39942988441E+03  0.25500000000E-02 0. -1.
    5000001    1    1    2    0    0 -0.15061328012E+03  0.11088015630E+02 -0.41573953306E+02  0.17454139290E+03  0.77000000000E+02 0.  0.
   -5000001    1    1    2    0    0  0.15061328012E+03 -0.11088015630E+02 -0.26671620166E+03  0.31602822100E+03  0.77000000000E+02 0.  0.
<mgrwt>
<rscale>  0 0.38159629E+03</rscale>
<asrwt>0</asrwt>
<pdfrwt beam="1">  1        2 0.13019962E-01 0.38159629E+03</pdfrwt>
<pdfrwt beam="2">  1       -2 0.57061411E-01 0.38159629E+03</pdfrwt>
<totfact> 0.13670111E+03</totfact>
</mgrwt>
</event>
<event>
 4    1  0.1308644E-003  0.2717531E+03  0.7818608E-02  0.1100280E+00
          2   -1    0    0  501    0  0.00000000000E+00  0.00000000000E+00  0.19251333161E+04  0.19251333161E+04  0.25500000000E-02 0.  1.
         -2   -1    0    0    0  501 -0.00000000000E+00 -0.00000000000E+00 -0.95902141172E+01  0.95902144562E+01  0.25500000000E-02 0. -1.
    5000001    1    1    2    0    0 -0.15467255190E+02 -0.70838933208E+02  0.35048702870E+03  0.36609772975E+03  0.77000000000E+02 0.  0.
   -5000001    1    1    2    0    0  0.15467255190E+02  0.70838933208E+02  0.15650560733E+04  0.15686258008E+04  0.77000000000E+02 0.  0.
<mgrwt>
<rscale>  0 0.27175313E+03</rscale>
<asrwt>0</asrwt>
<pdfrwt beam="1">  1        2 0.27501907E+00 0.27175313E+03</pdfrwt>
<pdfrwt beam="2">  1       -2 0.13700305E-02 0.27175313E+03</pdfrwt>
<totfact> 0.12940613E+04</totfact>
</mgrwt>
</event>
<event>
 4    1  0.1308644E-003  0.3787573E+03  0.7818608E-02  0.1051394E+00
         -2   -1    0    0    0  501 -0.00000000000E+00  0.00000000000E+00  0.20183400179E+03  0.20183400180E+03  0.25500000000E-02 0. -1.
          2   -1    0    0  501    0  0.00000000000E+00 -0.00000000000E+00 -0.17769194880E+03  0.17769194881E+03  0.25500000000E-02 0.  1.
    5000001    1    1    2    0    0 -0.41677514663E+02 -0.16721897106E+03 -0.33249712192E+01  0.18878361937E+03  0.77000000000E+02 0.  0.
   -5000001    1    1    2    0    0  0.41677514663E+02  0.16721897106E+03  0.27467024209E+02  0.19074233124E+03  0.77000000000E+02 0.  0.
<mgrwt>
<rscale>  0 0.37875732E+03</rscale>
<asrwt>0</asrwt>
<pdfrwt beam="1">  1        2 0.25384564E-01 0.37875732E+03</pdfrwt>
<pdfrwt beam="2">  1       -2 0.28833429E-01 0.37875732E+03</pdfrwt>
<totfact> 0.23400600E+03</totfact>
</mgrwt>
</event>
<event>
 4    1  0.1308644E-003  0.4071598E+03  0.7818608E-02  0.1041328E+00
          2   -1    0    0  501    0  0.00000000000E+00  0.00000000000E+00  0.18508291186E+03  0.18508291187E+03  0.25500000000E-02 0.  1.
         -2   -1    0    0    0  501 -0.00000000000E+00 -0.00000000000E+00 -0.22392548253E+03  0.22392548255E+03  0.25500000000E-02 0. -1.
    5000001    1    1    2    0    0 -0.13763691318E+03 -0.12842908290E+03 -0.28283535870E+02  0.20534582442E+03  0.77000000000E+02 0.  0.
   -5000001    1    1    2    0    0  0.13763691318E+03  0.12842908290E+03 -0.10559034807E+02  0.20366257000E+03  0.77000000000E+02 0.  0.
<mgrwt>
<rscale>  0 0.40715982E+03</rscale>
<asrwt>0</asrwt>
<pdfrwt beam="1">  1        2 0.26440416E-01 0.40715982E+03</pdfrwt>
<pdfrwt beam="2">  1       -2 0.31989354E-01 0.40715982E+03</pdfrwt>
<totfact> 0.18494015E+03</totfact>
</mgrwt>
</event>
<event>
 4    1  0.1308644E-003  0.1789664E+03  0.7818608E-02  0.1168807E+00
          2   -1    0    0  501    0  0.00000000000E+00  0.00000000000E+00  0.70108389264E+03  0.70108389265E+03  0.25500000000E-02 0.  1.
         -2   -1    0    0    0  501 -0.00000000000E+00 -0.00000000000E+00 -0.11421229854E+02  0.11421230139E+02  0.25500000000E-02 0. -1.
    5000001    1    1    2    0    0 -0.41078181126E+02  0.11626293252E+02  0.40848768805E+03  0.41786813584E+03  0.77000000000E+02 0.  0.
   -5000001    1    1    2    0    0  0.41078181126E+02 -0.11626293252E+02  0.28117497474E+03  0.29463698695E+03  0.77000000000E+02 0.  0.
<mgrwt>
<rscale>  0 0.17896637E+03</rscale>
<asrwt>0</asrwt>
<pdfrwt beam="1">  1        2 0.10015484E+00 0.17896637E+03</pdfrwt>
<pdfrwt beam="2">  1       -2 0.16316042E-02 0.17896637E+03</pdfrwt>
<totfact> 0.45796017E+04</totfact>
</mgrwt>
</event>
<event>
 4    1  0.1308644E-003  0.4501823E+03  0.7818608E-02  0.1027668E+00
          2   -1    0    0  501    0  0.00000000000E+00  0.00000000000E+00  0.20973178217E+04  0.20973178217E+04  0.25500000000E-02 0.  1.
         -2   -1    0    0    0  501 -0.00000000000E+00 -0.00000000000E+00 -0.24157534205E+02  0.24157534339E+02  0.25500000000E-02 0. -1.
    5000001    1    1    2    0    0 -0.21134068788E+03  0.82345533017E+01  0.10267707793E+04  0.10511517148E+04  0.77000000000E+02 0.  0.
   -5000001    1    1    2    0    0  0.21134068788E+03 -0.82345533017E+01  0.10463895081E+04  0.10703236412E+04  0.77000000000E+02 0.  0.
<mgrwt>
<rscale>  0 0.45018231E+03</rscale>
<asrwt>0</asrwt>
<pdfrwt beam="1">  1        2 0.29961692E+00 0.45018231E+03</pdfrwt>
<pdfrwt beam="2">  1       -2 0.34510753E-02 0.45018231E+03</pdfrwt>
<totfact> 0.26996042E+03</totfact>
</mgrwt>
</event>
<event>
 4    1  0.1308644E-003  0.1775782E+03  0.7818608E-02  0.1170168E+00
         -2   -1    0    0    0  501 -0.00000000000E+00  0.00000000000E+00  0.69768132331E+02  0.69768132377E+02  0.25500000000E-02 0. -1.
          2   -1    0    0  501    0  0.00000000000E+00 -0.00000000000E+00 -0.11299572130E+03  0.11299572133E+03  0.25500000000E-02 0.  1.
    5000001    1    1    2    0    0  0.24890362224E+02  0.16552357649E+02  0.11910246343E+02  0.83452768937E+02  0.77000000000E+02 0.  0.
   -5000001    1    1    2    0    0 -0.24890362224E+02 -0.16552357649E+02 -0.55137835316E+02  0.99311084773E+02  0.77000000000E+02 0.  0.
<mgrwt>
<rscale>  0 0.17757816E+03</rscale>
<asrwt>0</asrwt>
<pdfrwt beam="1">  1        2 0.16142246E-01 0.17757816E+03</pdfrwt>
<pdfrwt beam="2">  1       -2 0.99668760E-02 0.17757816E+03</pdfrwt>
<totfact> 0.22617009E+04</totfact>
</mgrwt>
</event>
<event>
 4    1  0.1308644E-003  0.1776251E+03  0.7818608E-02  0.1170121E+00
         -2   -1    0    0    0  501 -0.00000000000E+00  0.00000000000E+00  0.23603817019E+01  0.23603830794E+01  0.25500000000E-02 0. -1.
          2   -1    0    0  501    0  0.00000000000E+00 -0.00000000000E+00 -0.33416924238E+04  0.33416924238E+04  0.25500000000E-02 0.  1.
    5000001    1    1    2    0    0  0.40733493565E+02 -0.15063363920E+02 -0.15093097320E+04  0.15118964877E+04  0.77000000000E+02 0.  0.
   -5000001    1    1    2    0    0 -0.40733493565E+02  0.15063363920E+02 -0.18300223101E+04  0.18321563192E+04  0.77000000000E+02 0.  0.
<mgrwt>
<rscale>  0 0.17762513E+03</rscale>
<asrwt>0</asrwt>
<pdfrwt beam="1">  1        2 0.47738160E+00 0.17762513E+03</pdfrwt>
<pdfrwt beam="2">  1       -2 0.33719963E-03 0.17762513E+03</pdfrwt>
<totfact> 0.18364311E+04</totfact>
</mgrwt>
</event>
<event>
 4    1  0.1308644E-003  0.4658308E+03  0.7818608E-02  0.1023104E+00
         -2   -1    0    0    0  501 -0.00000000000E+00  0.00000000000E+00  0.23427071047E+03  0.23427071049E+03  0.25500000000E-02 0. -1.
          2   -1    0    0  501    0  0.00000000000E+00 -0.00000000000E+00 -0.23156795225E+03  0.23156795226E+03  0.25500000000E-02 0.  1.
    5000001    1    1    2    0    0  0.16924372642E+03  0.79227362536E+02 -0.11440969332E+03  0.23224769500E+03  0.77000000000E+02 0.  0.
   -5000001    1    1    2    0    0 -0.16924372642E+03 -0.79227362536E+02  0.11711245154E+03  0.23359096775E+03  0.77000000000E+02 0.  0.
<mgrwt>
<rscale>  0 0.46583082E+03</rscale>
<asrwt>0</asrwt>
<pdfrwt beam="1">  1        2 0.33081136E-01 0.46583082E+03</pdfrwt>
<pdfrwt beam="2">  1       -2 0.33467244E-01 0.46583082E+03</pdfrwt>
<totfact> 0.13258087E+03</totfact>
</mgrwt>
</event>
<event>
 4    1  0.1308644E-003  0.2671133E+03  0.7818608E-02  0.1102943E+00
          2   -1    0    0  501    0  0.00000000000E+00  0.00000000000E+00  0.44042565945E+03  0.44042565946E+03  0.25500000000E-02 0.  1.
         -2   -1    0    0    0  501 -0.00000000000E+00 -0.00000000000E+00 -0.40500323349E+02  0.40500323429E+02  0.25500000000E-02 0. -1.
    5000001    1    1    2    0    0  0.20937333675E+02  0.10707379756E+03  0.19585242844E+03  0.23704502482E+03  0.77000000000E+02 0.  0.
   -5000001    1    1    2    0    0 -0.20937333675E+02 -0.10707379756E+03  0.20407290766E+03  0.24388095807E+03  0.77000000000E+02 0.  0.
<mgrwt>
<rscale>  0 0.26711332E+03</rscale>
<asrwt>0</asrwt>
<pdfrwt beam="1">  1        2 0.62917951E-01 0.26711332E+03</pdfrwt>
<pdfrwt beam="2">  1       -2 0.57857606E-02 0.26711332E+03</pdfrwt>
<totfact> 0.12088309E+04</totfact>
</mgrwt>
</event>
<event>
 4    1  0.1308644E-003  0.3355741E+03  0.7818608E-02  0.1068697E+00
         -2   -1    0    0    0  501 -0.00000000000E+00  0.00000000000E+00  0.46376402077E+02  0.46376402147E+02  0.25500000000E-02 0. -1.
          2   -1    0    0  501    0  0.00000000000E+00 -0.00000000000E+00 -0.60704360165E+03  0.60704360166E+03  0.25500000000E-02 0.  1.
    5000001    1    1    2    0    0 -0.19827906094E+02  0.13165024110E+03 -0.14973424692E+03  0.21464919413E+03  0.77000000000E+02 0.  0.
   -5000001    1    1    2    0    0  0.19827906094E+02 -0.13165024110E+03 -0.41093295266E+03  0.43877080967E+03  0.77000000000E+02 0.  0.
<mgrwt>
<rscale>  0 0.33557412E+03</rscale>
<asrwt>0</asrwt>
<pdfrwt beam="1">  1        2 0.86720510E-01 0.33557412E+03</pdfrwt>
<pdfrwt beam="2">  1       -2 0.66252007E-02 0.33557412E+03</pdfrwt>
<totfact> 0.69134086E+03</totfact>
</mgrwt>
</event>
<event>
 4    1  0.1308644E-003  0.2427356E+03  0.7818608E-02  0.1117984E+00
          2   -1    0    0  501    0  0.00000000000E+00  0.00000000000E+00  0.16817753785E+04  0.16817753785E+04  0.25500000000E-02 0.  1.
         -2   -1    0    0    0  501 -0.00000000000E+00 -0.00000000000E+00 -0.87586834562E+01  0.87586838274E+01  0.25500000000E-02 0. -1.
    5000001    1    1    2    0    0  0.15802318264E+02  0.91562933519E+02  0.74633087712E+03  0.75602398256E+03  0.77000000000E+02 0.  0.
   -5000001    1    1    2    0    0 -0.15802318264E+02 -0.91562933519E+02  0.92668581795E+03  0.93451007980E+03  0.77000000000E+02 0.  0.
<mgrwt>
<rscale>  0 0.24273556E+03</rscale>
<asrwt>0</asrwt>
<pdfrwt beam="1">  1        2 0.24025381E+00 0.24273556E+03</pdfrwt>
<pdfrwt beam="2">  1       -2 0.12512396E-02 0.24273556E+03</pdfrwt>
<totfact> 0.19357336E+04</totfact>
</mgrwt>
</event>
<event>
 4    1  0.1308644E-003  0.2098554E+03  0.7818608E-02  0.1141681E+00
         -2   -1    0    0    0  501 -0.00000000000E+00  0.00000000000E+00  0.17762534660E+02  0.17762534843E+02  0.25500000000E-02 0. -1.
          2   -1    0    0  501    0  0.00000000000E+00 -0.00000000000E+00 -0.61983405640E+03  0.61983405640E+03  0.25500000000E-02 0.  1.
    5000001    1    1    2    0    0  0.65192235264E+02  0.23317495205E+02 -0.24955612360E+03  0.27018695740E+03  0.77000000000E+02 0.  0.
   -5000001    1    1    2    0    0 -0.65192235264E+02 -0.23317495205E+02 -0.35251539814E+03  0.36740963385E+03  0.77000000000E+02 0.  0.
<mgrwt>
<rscale>  0 0.20985542E+03</rscale>
<asrwt>0</asrwt>
<pdfrwt beam="1">  1        2 0.88547709E-01 0.20985542E+03</pdfrwt>
<pdfrwt beam="2">  1       -2 0.25375054E-02 0.20985542E+03</pdfrwt>
<totfact> 0.28045331E+04</totfact>
</mgrwt>
</event>
<event>
 4    1  0.1308644E-003  0.1780508E+03  0.7818608E-02  0.1169703E+00
         -2   -1    0    0    0  501 -0.00000000000E+00  0.00000000000E+00  0.13874275325E+03  0.13874275327E+03  0.25500000000E-02 0. -1.
          2   -1    0    0  501    0  0.00000000000E+00 -0.00000000000E+00 -0.57123838369E+02  0.57123838426E+02  0.25500000000E-02 0.  1.
    5000001    1    1    2    0    0  0.27302308037E+02  0.34970878314E+02  0.46644991613E+02  0.10036500185E+03  0.77000000000E+02 0.  0.
   -5000001    1    1    2    0    0 -0.27302308037E+02 -0.34970878314E+02  0.34973923264E+02  0.95501589844E+02  0.77000000000E+02 0.  0.
<mgrwt>
<rscale>  0 0.17805076E+03</rscale>
<asrwt>0</asrwt>
<pdfrwt beam="1">  1        2 0.81605485E-02 0.17805076E+03</pdfrwt>
<pdfrwt beam="2">  1       -2 0.19820393E-01 0.17805076E+03</pdfrwt>
<totfact> 0.16859376E+04</totfact>
</mgrwt>
</event>
<event>
 4    1  0.1308644E-003  0.2169802E+03  0.7818608E-02  0.1136155E+00
          2   -1    0    0  501    0  0.00000000000E+00  0.00000000000E+00  0.77089217006E+03  0.77089217006E+03  0.25500000000E-02 0.  1.
         -2   -1    0    0    0  501 -0.00000000000E+00 -0.00000000000E+00 -0.15268150072E+02  0.15268150285E+02  0.25500000000E-02 0. -1.
    5000001    1    1    2    0    0  0.40661635250E+02 -0.57293676759E+02  0.26880495671E+03  0.28830719507E+03  0.77000000000E+02 0.  0.
   -5000001    1    1    2    0    0 -0.40661635250E+02  0.57293676759E+02  0.48681906328E+03  0.49785312528E+03  0.77000000000E+02 0.  0.
<mgrwt>
<rscale>  0 0.21698016E+03</rscale>
<asrwt>0</asrwt>
<pdfrwt beam="1">  1        2 0.11012746E+00 0.21698016E+03</pdfrwt>
<pdfrwt beam="2">  1       -2 0.21811641E-02 0.21698016E+03</pdfrwt>
<totfact> 0.27175139E+04</totfact>
</mgrwt>
</event>
<event>
 4    1  0.1308644E-003  0.2521912E+03  0.7818608E-02  0.1111928E+00
          2   -1    0    0  501    0  0.00000000000E+00  0.00000000000E+00  0.92598925399E+03  0.92598925399E+03  0.25500000000E-02 0.  1.
         -2   -1    0    0    0  501 -0.00000000000E+00 -0.00000000000E+00 -0.17170934300E+02  0.17170934489E+02  0.25500000000E-02 0. -1.
    5000001    1    1    2    0    0  0.58797980653E+02 -0.80332268185E+02  0.48352846577E+03  0.49963912282E+03  0.77000000000E+02 0.  0.
   -5000001    1    1    2    0    0 -0.58797980653E+02  0.80332268185E+02  0.42528985392E+03  0.44352106566E+03  0.77000000000E+02 0.  0.
<mgrwt>
<rscale>  0 0.25219120E+03</rscale>
<asrwt>0</asrwt>
<pdfrwt beam="1">  1        2 0.13228419E+00 0.25219120E+03</pdfrwt>
<pdfrwt beam="2">  1       -2 0.24529904E-02 0.25219120E+03</pdfrwt>
<totfact> 0.18307715E+04</totfact>
</mgrwt>
</event>
<event>
 4    1  0.1308644E-003  0.2272297E+03  0.7818608E-02  0.1128605E+00
         -2   -1    0    0    0  501 -0.00000000000E+00  0.00000000000E+00  0.44556321797E+02  0.44556321870E+02  0.25500000000E-02 0.  1.
          2   -1    0    0  501    0  0.00000000000E+00 -0.00000000000E+00 -0.28970816087E+03  0.28970816089E+03  0.25500000000E-02 0. -1.
    5000001    1    1    2    0    0 -0.80402602685E+01  0.56800607760E+02 -0.21191526269E+03  0.23265432166E+03  0.77000000000E+02 0.  0.
   -5000001    1    1    2    0    0  0.80402602685E+01 -0.56800607760E+02 -0.33236576385E+02  0.10161016109E+03  0.77000000000E+02 0.  0.
<mgrwt>
<rscale>  0 0.22722966E+03</rscale>
<asrwt>0</asrwt>
<pdfrwt beam="1">  1        2 0.41386879E-01 0.22722966E+03</pdfrwt>
<pdfrwt beam="2">  1       -2 0.63651890E-02 0.22722966E+03</pdfrwt>
<totfact> 0.16250541E+04</totfact>
</mgrwt>
</event>
<event>
 4    1  0.1308644E-003  0.1923701E+03  0.7818608E-02  0.1156341E+00
         -2   -1    0    0    0  501 -0.00000000000E+00  0.00000000000E+00  0.44205557853E+01  0.44205565208E+01  0.25500000000E-02 0. -1.
          2   -1    0    0  501    0  0.00000000000E+00 -0.00000000000E+00 -0.20928510495E+04  0.20928510495E+04  0.25500000000E-02 0.  1.
    5000001    1    1    2    0    0 -0.21817574969E+02 -0.50807791001E+02 -0.12217340490E+04  0.12254062692E+04  0.77000000000E+02 0.  0.
   -5000001    1    1    2    0    0  0.21817574969E+02  0.50807791001E+02 -0.86669644477E+03  0.87186533684E+03  0.77000000000E+02 0.  0.
<mgrwt>
<rscale>  0 0.19237012E+03</rscale>
<asrwt>0</asrwt>
<pdfrwt beam="1">  1        2 0.29897809E+00 0.19237012E+03</pdfrwt>
<pdfrwt beam="2">  1       -2 0.63150936E-03 0.19237012E+03</pdfrwt>
<totfact> 0.32455614E+04</totfact>
</mgrwt>
</event>
<event>
 4    1  0.1308644E-003  0.4313232E+03  0.7818608E-02  0.1033443E+00
          2   -1    0    0  501    0  0.00000000000E+00  0.00000000000E+00  0.19107988636E+04  0.19107988636E+04  0.25500000000E-02 0.  1.
         -2   -1    0    0    0  501 -0.00000000000E+00 -0.00000000000E+00 -0.24340562993E+02  0.24340563126E+02  0.25500000000E-02 0. -1.
    5000001    1    1    2    0    0  0.80198956060E+02  0.18365705444E+03  0.85137771764E+03  0.87802893135E+03  0.77000000000E+02 0.  0.
   -5000001    1    1    2    0    0 -0.80198956060E+02 -0.18365705444E+03  0.10350805830E+04  0.10571104954E+04  0.77000000000E+02 0.  0.
<mgrwt>
<rscale>  0 0.43132317E+03</rscale>
<asrwt>0</asrwt>
<pdfrwt beam="1">  1        2 0.27297123E+00 0.43132317E+03</pdfrwt>
<pdfrwt beam="2">  1       -2 0.34772238E-02 0.43132317E+03</pdfrwt>
<totfact> 0.33053423E+03</totfact>
</mgrwt>
</event>
<event>
 4    1  0.1308644E-003  0.4603306E+03  0.7818608E-02  0.1024685E+00
          2   -1    0    0  501    0  0.00000000000E+00  0.00000000000E+00  0.54382343049E+03  0.54382343050E+03  0.25500000000E-02 0.  1.
         -2   -1    0    0    0  501 -0.00000000000E+00 -0.00000000000E+00 -0.97414109221E+02  0.97414109254E+02  0.25500000000E-02 0. -1.
    5000001    1    1    2    0    0 -0.20510971585E+03 -0.14241069800E+02  0.12695424608E+03  0.25361227139E+03  0.77000000000E+02 0.  0.
   -5000001    1    1    2    0    0  0.20510971585E+03  0.14241069800E+02  0.31945507520E+03  0.38762526836E+03  0.77000000000E+02 0.  0.
<mgrwt>
<rscale>  0 0.46033064E+03</rscale>
<asrwt>0</asrwt>
<pdfrwt beam="1">  1        2 0.77689065E-01 0.46033064E+03</pdfrwt>
<pdfrwt beam="2">  1       -2 0.13916301E-01 0.46033064E+03</pdfrwt>
<totfact> 0.24041427E+03</totfact>
</mgrwt>
</event>
<event>
 4    1  0.1308644E-003  0.3829885E+03  0.7818608E-02  0.1049835E+00
          2   -1    0    0  501    0  0.00000000000E+00  0.00000000000E+00  0.95798278437E+03  0.95798278437E+03  0.25500000000E-02 0.  1.
         -2   -1    0    0    0  501 -0.00000000000E+00 -0.00000000000E+00 -0.38278393385E+02  0.38278393470E+02  0.25500000000E-02 0. -1.
    5000001    1    1    2    0    0 -0.79616593999E+02 -0.10152235658E+03  0.76868753938E+03  0.78323376084E+03  0.77000000000E+02 0.  0.
   -5000001    1    1    2    0    0  0.79616593999E+02  0.10152235658E+03  0.15101685160E+03  0.21302741700E+03  0.77000000000E+02 0.  0.
<mgrwt>
<rscale>  0 0.38298847E+03</rscale>
<asrwt>0</asrwt>
<pdfrwt beam="1">  1        2 0.13685469E+00 0.38298847E+03</pdfrwt>
<pdfrwt beam="2">  1       -2 0.54683418E-02 0.38298847E+03</pdfrwt>
<totfact> 0.53011564E+03</totfact>
</mgrwt>
</event>
<event>
 4    1  0.1308644E-003  0.3940344E+03  0.7818608E-02  0.1045865E+00
         -2   -1    0    0    0  501 -0.00000000000E+00  0.00000000000E+00  0.22936397708E+03  0.22936397709E+03  0.25500000000E-02 0. -1.
          2   -1    0    0  501    0  0.00000000000E+00 -0.00000000000E+00 -0.16923224030E+03  0.16923224031E+03  0.25500000000E-02 0.  1.
    5000001    1    1    2    0    0  0.40472050453E+02 -0.14064304662E+03 -0.78264205672E+02  0.18295556651E+03  0.77000000000E+02 0.  0.
   -5000001    1    1    2    0    0 -0.40472050453E+02  0.14064304662E+03  0.13839594246E+03  0.21564065089E+03  0.77000000000E+02 0.  0.
<mgrwt>
<rscale>  0 0.39403441E+03</rscale>
<asrwt>0</asrwt>
<pdfrwt beam="1">  1        2 0.24176034E-01 0.39403441E+03</pdfrwt>
<pdfrwt beam="2">  1       -2 0.32766282E-01 0.39403441E+03</pdfrwt>
<totfact> 0.19561916E+03</totfact>
</mgrwt>
</event>
<event>
 4    1  0.1308644E-003  0.5177362E+03  0.7818608E-02  0.1009250E+00
          2   -1    0    0  501    0  0.00000000000E+00  0.00000000000E+00  0.73838934256E+03  0.73838934256E+03  0.25500000000E-02 0.  1.
         -2   -1    0    0    0  501 -0.00000000000E+00 -0.00000000000E+00 -0.90755216349E+02  0.90755216385E+02  0.25500000000E-02 0. -1.
    5000001    1    1    2    0    0 -0.59712447966E+02  0.11702816121E+03 -0.11434192716E+02  0.15271184539E+03  0.77000000000E+02 0.  0.
   -5000001    1    1    2    0    0  0.59712447966E+02 -0.11702816121E+03  0.65906831892E+03  0.67643271355E+03  0.77000000000E+02 0.  0.
<mgrwt>
<rscale>  0 0.51773617E+03</rscale>
<asrwt>0</asrwt>
<pdfrwt beam="1">  1        2 0.10548419E+00 0.51773617E+03</pdfrwt>
<pdfrwt beam="2">  1       -2 0.12965031E-01 0.51773617E+03</pdfrwt>
<totfact> 0.18823403E+03</totfact>
</mgrwt>
</event>
<event>
 4    1  0.1308644E-003  0.2302379E+03  0.7818608E-02  0.1126472E+00
          2   -1    0    0  501    0  0.00000000000E+00  0.00000000000E+00  0.92777897819E+02  0.92777897854E+02  0.25500000000E-02 0.  1.
         -2   -1    0    0    0  501 -0.00000000000E+00 -0.00000000000E+00 -0.14283972114E+03  0.14283972116E+03  0.25500000000E-02 0. -1.
    5000001    1    1    2    0    0  0.47793133842E+02  0.70978105193E+02 -0.26195032680E+02  0.11805615103E+03  0.77000000000E+02 0.  0.
   -5000001    1    1    2    0    0 -0.47793133842E+02 -0.70978105193E+02 -0.23866790640E+02  0.11756146798E+03  0.77000000000E+02 0.  0.
<mgrwt>
<rscale>  0 0.23023787E+03</rscale>
<asrwt>0</asrwt>
<pdfrwt beam="1">  1        2 0.13253985E-01 0.23023787E+03</pdfrwt>
<pdfrwt beam="2">  1       -2 0.20405674E-01 0.23023787E+03</pdfrwt>
<totfact> 0.89945542E+03</totfact>
</mgrwt>
</event>
<event>
 4    1  0.1308644E-003  0.2585819E+03  0.7818608E-02  0.1107998E+00
         -2   -1    0    0    0  501 -0.00000000000E+00  0.00000000000E+00  0.40283933163E+02  0.40283933243E+02  0.25500000000E-02 0. -1.
          2   -1    0    0  501    0  0.00000000000E+00 -0.00000000000E+00 -0.41495807305E+03  0.41495807306E+03  0.25500000000E-02 0.  1.
    5000001    1    1    2    0    0 -0.88300100256E+02 -0.41557560910E+02 -0.12476490792E+03  0.17612274363E+03  0.77000000000E+02 0.  0.
   -5000001    1    1    2    0    0  0.88300100256E+02  0.41557560910E+02 -0.24990923197E+03  0.27911926268E+03  0.77000000000E+02 0.  0.
<mgrwt>
<rscale>  0 0.25858185E+03</rscale>
<asrwt>0</asrwt>
<pdfrwt beam="1">  1        2 0.59279722E-01 0.25858185E+03</pdfrwt>
<pdfrwt beam="2">  1       -2 0.57548478E-02 0.25858185E+03</pdfrwt>
<totfact> 0.12981390E+04</totfact>
</mgrwt>
</event>
<event>
 4    1  0.1308644E-003  0.1952938E+03  0.7818608E-02  0.1153772E+00
         -2   -1    0    0    0  501 -0.00000000000E+00  0.00000000000E+00  0.44716583058E+01  0.44716590329E+01  0.25500000000E-02 0. -1.
          2   -1    0    0  501    0  0.00000000000E+00 -0.00000000000E+00 -0.21322992118E+04  0.21322992118E+04  0.25500000000E-02 0.  1.
    5000001    1    1    2    0    0 -0.54657548848E+02 -0.22684681689E+02 -0.11754249678E+04  0.11794299035E+04  0.77000000000E+02 0.  0.
   -5000001    1    1    2    0    0  0.54657548848E+02  0.22684681689E+02 -0.95240258574E+03  0.95734096734E+03  0.77000000000E+02 0.  0.
<mgrwt>
<rscale>  0 0.19529377E+03</rscale>
<asrwt>0</asrwt>
<pdfrwt beam="1">  1        2 0.30461352E+00 0.19529377E+03</pdfrwt>
<pdfrwt beam="2">  1       -2 0.63880975E-03 0.19529377E+03</pdfrwt>
<totfact> 0.30582124E+04</totfact>
</mgrwt>
</event>
<event>
 4    1  0.1308644E-003  0.2372405E+03  0.7818608E-02  0.1121645E+00
         -2   -1    0    0    0  501 -0.00000000000E+00  0.00000000000E+00  0.10611510637E+03  0.10611510640E+03  0.25500000000E-02 0. -1.
          2   -1    0    0  501    0  0.00000000000E+00 -0.00000000000E+00 -0.13259905684E+03  0.13259905687E+03  0.25500000000E-02 0.  1.
    5000001    1    1    2    0    0  0.72056876892E+02  0.31308654686E+02  0.31410903244E+02  0.11440310401E+03  0.77000000000E+02 0.  0.
   -5000001    1    1    2    0    0 -0.72056876892E+02 -0.31308654686E+02 -0.57894853716E+02  0.12431105925E+03  0.77000000000E+02 0.  0.
<mgrwt>
<rscale>  0 0.23724049E+03</rscale>
<asrwt>0</asrwt>
<pdfrwt beam="1">  1        2 0.18942722E-01 0.23724049E+03</pdfrwt>
<pdfrwt beam="2">  1       -2 0.15159301E-01 0.23724049E+03</pdfrwt>
<totfact> 0.97551270E+03</totfact>
</mgrwt>
</event>
<event>
 4    1  0.1308644E-003  0.2524620E+03  0.7818608E-02  0.1111759E+00
         -2   -1    0    0    0  501 -0.00000000000E+00  0.00000000000E+00  0.81731231200E+01  0.81731235178E+01  0.25500000000E-02 0. -1.
          2   -1    0    0  501    0  0.00000000000E+00 -0.00000000000E+00 -0.19495929491E+04  0.19495929491E+04  0.25500000000E-02 0.  1.
    5000001    1    1    2    0    0 -0.83777855117E+02  0.49995457170E+02 -0.79958063678E+03  0.80918259340E+03  0.77000000000E+02 0.  0.
   -5000001    1    1    2    0    0  0.83777855117E+02 -0.49995457170E+02 -0.11418391891E+04  0.11485834792E+04  0.77000000000E+02 0.  0.
<mgrwt>
<rscale>  0 0.25246199E+03</rscale>
<asrwt>0</asrwt>
<pdfrwt beam="1">  1        2 0.27851298E+00 0.25246199E+03</pdfrwt>
<pdfrwt beam="2">  1       -2 0.11675903E-02 0.25246199E+03</pdfrwt>
<totfact> 0.15862775E+04</totfact>
</mgrwt>
</event>
<event>
 4    1  0.1308644E-003  0.2205631E+03  0.7818608E-02  0.1133464E+00
         -2   -1    0    0    0  501 -0.00000000000E+00  0.00000000000E+00  0.37587192473E+02  0.37587192559E+02  0.25500000000E-02 0. -1.
          2   -1    0    0  501    0  0.00000000000E+00 -0.00000000000E+00 -0.32356816529E+03  0.32356816530E+03  0.25500000000E-02 0.  1.
    5000001    1    1    2    0    0  0.47373066334E+02 -0.43389138826E+02 -0.67843697182E+02  0.12107267251E+03  0.77000000000E+02 0.  0.
   -5000001    1    1    2    0    0 -0.47373066334E+02  0.43389138826E+02 -0.21813727563E+03  0.24008268535E+03  0.77000000000E+02 0.  0.
<mgrwt>
<rscale>  0 0.22056309E+03</rscale>
<asrwt>0</asrwt>
<pdfrwt beam="1">  1        2 0.46224022E-01 0.22056309E+03</pdfrwt>
<pdfrwt beam="2">  1       -2 0.53695991E-02 0.22056309E+03</pdfrwt>
<totfact> 0.18680177E+04</totfact>
</mgrwt>
</event>
<event>
 4    1  0.1308644E-003  0.7922502E+03  0.7818608E-02  0.9571303E-01
         -2   -1    0    0    0  501 -0.00000000000E+00  0.00000000000E+00  0.86978192231E+02  0.86978192268E+02  0.25500000000E-02 0. -1.
          2   -1    0    0  501    0  0.00000000000E+00 -0.00000000000E+00 -0.18040738190E+04  0.18040738190E+04  0.25500000000E-02 0.  1.
    5000001    1    1    2    0    0 -0.32791395298E+03  0.98337927138E+02 -0.41979139840E+03  0.54713044756E+03  0.77000000000E+02 0.  0.
   -5000001    1    1    2    0    0  0.32791395298E+03 -0.98337927138E+02 -0.12973042284E+04  0.13439215637E+04  0.77000000000E+02 0.  0.
<mgrwt>
<rscale>  0 0.79225016E+03</rscale>
<asrwt>0</asrwt>
<pdfrwt beam="1">  1        2 0.25772481E+00 0.79225016E+03</pdfrwt>
<pdfrwt beam="2">  1       -2 0.12425457E-01 0.79225016E+03</pdfrwt>
<totfact> 0.49286459E+02</totfact>
</mgrwt>
</event>
<event>
 4    1  0.1308644E-003  0.1934656E+03  0.7818608E-02  0.1155372E+00
          2   -1    0    0  501    0  0.00000000000E+00  0.00000000000E+00  0.91081774203E+02  0.91081774239E+02  0.25500000000E-02 0.  1.
         -2   -1    0    0    0  501 -0.00000000000E+00 -0.00000000000E+00 -0.10273438712E+03  0.10273438715E+03  0.25500000000E-02 0. -1.
    5000001    1    1    2    0    0  0.52721981126E+02 -0.15436614919E+01  0.19641015353E+02  0.95376934679E+02  0.77000000000E+02 0.  0.
   -5000001    1    1    2    0    0 -0.52721981126E+02  0.15436614919E+01 -0.31293628266E+02  0.98439226707E+02  0.77000000000E+02 0.  0.
<mgrwt>
<rscale>  0 0.19346556E+03</rscale>
<asrwt>0</asrwt>
<pdfrwt beam="1">  1        2 0.13011682E-01 0.19346556E+03</pdfrwt>
<pdfrwt beam="2">  1       -2 0.14676341E-01 0.19346556E+03</pdfrwt>
<totfact> 0.15781148E+04</totfact>
</mgrwt>
</event>
<event>
 4    1  0.1308644E-003  0.2909882E+03  0.7818608E-02  0.1089834E+00
         -2   -1    0    0    0  501 -0.00000000000E+00  0.00000000000E+00  0.33099861041E+02  0.33099861140E+02  0.25500000000E-02 0. -1.
          2   -1    0    0  501    0  0.00000000000E+00 -0.00000000000E+00 -0.63953552279E+03  0.63953552279E+03  0.25500000000E-02 0.  1.
    5000001    1    1    2    0    0  0.45985047057E+02  0.10752346837E+03 -0.21181295396E+03  0.25390874004E+03  0.77000000000E+02 0.  0.
   -5000001    1    1    2    0    0 -0.45985047057E+02 -0.10752346837E+03 -0.39462270779E+03  0.41872664389E+03  0.77000000000E+02 0.  0.
<mgrwt>
<rscale>  0 0.29098823E+03</rscale>
<asrwt>0</asrwt>
<pdfrwt beam="1">  1        2 0.91362210E-01 0.29098823E+03</pdfrwt>
<pdfrwt beam="2">  1       -2 0.47285520E-02 0.29098823E+03</pdfrwt>
<totfact> 0.10867195E+04</totfact>
</mgrwt>
</event>
<event>
 4    1  0.1308644E-003  0.1715681E+03  0.7818608E-02  0.1176222E+00
         -2   -1    0    0    0  501 -0.00000000000E+00  0.00000000000E+00  0.97547163786E+02  0.97547163819E+02  0.25500000000E-02 0. -1.
          2   -1    0    0  501    0  0.00000000000E+00 -0.00000000000E+00 -0.75439397897E+02  0.75439397940E+02  0.25500000000E-02 0.  1.
    5000001    1    1    2    0    0 -0.24431146623E+02  0.25959713939E+02  0.23772119885E+02  0.88118677685E+02  0.77000000000E+02 0.  0.
   -5000001    1    1    2    0    0  0.24431146623E+02 -0.25959713939E+02 -0.16643539962E+01  0.84867884075E+02  0.77000000000E+02 0.  0.
<mgrwt>
<rscale>  0 0.17156805E+03</rscale>
<asrwt>0</asrwt>
<pdfrwt beam="1">  1        2 0.10777057E-01 0.17156805E+03</pdfrwt>
<pdfrwt beam="2">  1       -2 0.13935309E-01 0.17156805E+03</pdfrwt>
<totfact> 0.21359819E+04</totfact>
</mgrwt>
</event>
<event>
 4    1  0.1308644E-003  0.2380037E+03  0.7818608E-02  0.1121130E+00
          2   -1    0    0  501    0  0.00000000000E+00  0.00000000000E+00  0.85167642353E+03  0.85167642353E+03  0.25500000000E-02 0.  1.
         -2   -1    0    0    0  501 -0.00000000000E+00 -0.00000000000E+00 -0.16627724346E+02  0.16627724541E+02  0.25500000000E-02 0. -1.
    5000001    1    1    2    0    0  0.65026728890E+02  0.56818506636E+02  0.31591973803E+03  0.33643884889E+03  0.77000000000E+02 0.  0.
   -5000001    1    1    2    0    0 -0.65026728890E+02 -0.56818506636E+02  0.51912896116E+03  0.53186529918E+03  0.77000000000E+02 0.  0.
<mgrwt>
<rscale>  0 0.23800370E+03</rscale>
<asrwt>0</asrwt>
<pdfrwt beam="1">  1        2 0.12166801E+00 0.23800370E+03</pdfrwt>
<pdfrwt beam="2">  1       -2 0.23753902E-02 0.23800370E+03</pdfrwt>
<totfact> 0.21311140E+04</totfact>
</mgrwt>
</event>
<event>
 4    1  0.1308644E-003  0.3165294E+03  0.7818608E-02  0.1077258E+00
          2   -1    0    0  501    0  0.00000000000E+00  0.00000000000E+00  0.12880223070E+03  0.12880223073E+03  0.25500000000E-02 0.  1.
         -2   -1    0    0    0  501 -0.00000000000E+00 -0.00000000000E+00 -0.19446641413E+03  0.19446641415E+03  0.25500000000E-02 0. -1.
    5000001    1    1    2    0    0 -0.12358480618E+03  0.56797138505E+02 -0.58253600896E+02  0.16679808536E+03  0.77000000000E+02 0.  0.
   -5000001    1    1    2    0    0  0.12358480618E+03 -0.56797138505E+02 -0.74105825311E+01  0.15647055952E+03  0.77000000000E+02 0.  0.
<mgrwt>
<rscale>  0 0.31652935E+03</rscale>
<asrwt>0</asrwt>
<pdfrwt beam="1">  1        2 0.18400319E-01 0.31652935E+03</pdfrwt>
<pdfrwt beam="2">  1       -2 0.27780916E-01 0.31652935E+03</pdfrwt>
<totfact> 0.36016366E+03</totfact>
</mgrwt>
</event>
<event>
 4    1  0.1308644E-003  0.2383105E+03  0.7818608E-02  0.1120923E+00
         -2   -1    0    0    0  501 -0.00000000000E+00  0.00000000000E+00  0.33762406668E+02  0.33762406765E+02  0.25500000000E-02 0. -1.
          2   -1    0    0  501    0  0.00000000000E+00 -0.00000000000E+00 -0.42052606935E+03  0.42052606936E+03  0.25500000000E-02 0.  1.
    5000001    1    1    2    0    0  0.54502987498E+02  0.44345051162E+02 -0.30341798202E+03  0.32082476685E+03  0.77000000000E+02 0.  0.
   -5000001    1    1    2    0    0 -0.54502987498E+02 -0.44345051162E+02 -0.83345680661E+02  0.13346370928E+03  0.77000000000E+02 0.  0.
<mgrwt>
<rscale>  0 0.23831049E+03</rscale>
<asrwt>0</asrwt>
<pdfrwt beam="1">  1        2 0.60075150E-01 0.23831049E+03</pdfrwt>
<pdfrwt beam="2">  1       -2 0.48232012E-02 0.23831049E+03</pdfrwt>
<totfact> 0.16665630E+04</totfact>
</mgrwt>
</event>
<event>
 4    1  0.1308644E-003  0.3409615E+03  0.7818608E-02  0.1066387E+00
          2   -1    0    0  501    0  0.00000000000E+00  0.00000000000E+00  0.56250490213E+03  0.56250490213E+03  0.25500000000E-02 0.  1.
         -2   -1    0    0    0  501 -0.00000000000E+00 -0.00000000000E+00 -0.51668333449E+02  0.51668333512E+02  0.25500000000E-02 0. -1.
    5000001    1    1    2    0    0  0.80559168091E+02 -0.31619712626E+02  0.30111250232E+02  0.11968823326E+03  0.77000000000E+02 0.  0.
   -5000001    1    1    2    0    0 -0.80559168091E+02  0.31619712626E+02  0.48072531845E+03  0.49448500239E+03  0.77000000000E+02 0.  0.
<mgrwt>
<rscale>  0 0.34096153E+03</rscale>
<asrwt>0</asrwt>
<pdfrwt beam="1">  1        2 0.80357839E-01 0.34096153E+03</pdfrwt>
<pdfrwt beam="2">  1       -2 0.73811909E-02 0.34096153E+03</pdfrwt>
<totfact> 0.63784481E+03</totfact>
</mgrwt>
</event>
<event>
 4    1  0.1308644E-003  0.2115970E+03  0.7818608E-02  0.1140308E+00
         -2   -1    0    0    0  501 -0.00000000000E+00  0.00000000000E+00  0.94951323271E+01  0.94951326695E+01  0.25500000000E-02 0. -1.
          2   -1    0    0  501    0  0.00000000000E+00 -0.00000000000E+00 -0.11788487548E+04  0.11788487548E+04  0.25500000000E-02 0.  1.
    5000001    1    1    2    0    0 -0.38485129836E+02 -0.29951585605E+02 -0.28296663646E+03  0.29728323204E+03  0.77000000000E+02 0.  0.
   -5000001    1    1    2    0    0  0.38485129836E+02  0.29951585605E+02 -0.88638698604E+03  0.89106065546E+03  0.77000000000E+02 0.  0.
<mgrwt>
<rscale>  0 0.21159702E+03</rscale>
<asrwt>0</asrwt>
<pdfrwt beam="1">  1        2 0.16840687E+00 0.21159702E+03</pdfrwt>
<pdfrwt beam="2">  1       -2 0.13564483E-02 0.21159702E+03</pdfrwt>
<totfact> 0.30887733E+04</totfact>
</mgrwt>
</event>
<event>
 4    1  0.1308644E-003  0.2085954E+03  0.7818608E-02  0.1142683E+00
          2   -1    0    0  501    0  0.00000000000E+00  0.00000000000E+00  0.21269449900E+03  0.21269449902E+03  0.25500000000E-02 0.  1.
         -2   -1    0    0    0  501 -0.00000000000E+00 -0.00000000000E+00 -0.51143834802E+02  0.51143834865E+02  0.25500000000E-02 0. -1.
    5000001    1    1    2    0    0  0.51140391103E+01  0.62453647557E+02  0.40332298353E+02  0.10715552146E+03  0.77000000000E+02 0.  0.
   -5000001    1    1    2    0    0 -0.51140391103E+01 -0.62453647557E+02  0.12121836585E+03  0.15668281242E+03  0.77000000000E+02 0.  0.
<mgrwt>
<rscale>  0 0.20859542E+03</rscale>
<asrwt>0</asrwt>
<pdfrwt beam="1">  1        2 0.30384929E-01 0.20859542E+03</pdfrwt>
<pdfrwt beam="2">  1       -2 0.73062621E-02 0.20859542E+03</pdfrwt>
<totfact> 0.18246175E+04</totfact>
</mgrwt>
</event>
<event>
 4    1  0.1308644E-003  0.2336268E+03  0.7818608E-02  0.1124113E+00
         -2   -1    0    0    0  501 -0.00000000000E+00  0.00000000000E+00  0.36758344678E+03  0.36758344679E+03  0.25500000000E-02 0. -1.
          2   -1    0    0  501    0  0.00000000000E+00 -0.00000000000E+00 -0.37121846113E+02  0.37121846201E+02  0.25500000000E-02 0.  1.
    5000001    1    1    2    0    0 -0.24383983127E+02 -0.83558949892E+02  0.14475629391E+03  0.18563421389E+03  0.77000000000E+02 0.  0.
   -5000001    1    1    2    0    0  0.24383983127E+02  0.83558949892E+02  0.18570530675E+03  0.21907107910E+03  0.77000000000E+02 0.  0.
<mgrwt>
<rscale>  0 0.23362685E+03</rscale>
<asrwt>0</asrwt>
<pdfrwt beam="1">  1        2 0.53031210E-02 0.23362685E+03</pdfrwt>
<pdfrwt beam="2">  1       -2 0.52511920E-01 0.23362685E+03</pdfrwt>
<totfact> 0.49868021E+03</totfact>
</mgrwt>
</event>
<event>
 4    1  0.1308644E-003  0.4276186E+03  0.7818608E-02  0.1034615E+00
          2   -1    0    0  501    0  0.00000000000E+00  0.00000000000E+00  0.13566395346E+04  0.13566395346E+04  0.25500000000E-02 0.  1.
         -2   -1    0    0    0  501 -0.00000000000E+00 -0.00000000000E+00 -0.33696802912E+02  0.33696803009E+02  0.25500000000E-02 0. -1.
    5000001    1    1    2    0    0 -0.14050408404E+03 -0.13572547861E+03  0.53050172874E+03  0.57054700716E+03  0.77000000000E+02 0.  0.
   -5000001    1    1    2    0    0  0.14050408404E+03  0.13572547861E+03  0.79244100296E+03  0.81978933047E+03  0.77000000000E+02 0.  0.
<mgrwt>
<rscale>  0 0.42761859E+03</rscale>
<asrwt>0</asrwt>
<pdfrwt beam="1">  1        2 0.19380567E+00 0.42761859E+03</pdfrwt>
<pdfrwt beam="2">  1       -2 0.48138284E-02 0.42761859E+03</pdfrwt>
<totfact> 0.38482165E+03</totfact>
</mgrwt>
</event>
<event>
 4    1  0.1308644E-003  0.1694781E+03  0.7818608E-02  0.1178393E+00
          2   -1    0    0  501    0  0.00000000000E+00  0.00000000000E+00  0.62075313878E+03  0.62075313879E+03  0.25500000000E-02 0.  1.
         -2   -1    0    0    0  501 -0.00000000000E+00 -0.00000000000E+00 -0.11567726421E+02  0.11567726702E+02  0.25500000000E-02 0. -1.
    5000001    1    1    2    0    0  0.66592069868E+01 -0.11721833367E+02  0.18255134590E+03  0.19858434054E+03  0.77000000000E+02 0.  0.
   -5000001    1    1    2    0    0 -0.66592069868E+01  0.11721833367E+02  0.42663406646E+03  0.43373652495E+03  0.77000000000E+02 0.  0.
<mgrwt>
<rscale>  0 0.16947805E+03</rscale>
<asrwt>0</asrwt>
<pdfrwt beam="1">  1        2 0.88679024E-01 0.16947805E+03</pdfrwt>
<pdfrwt beam="2">  1       -2 0.16525323E-02 0.16947805E+03</pdfrwt>
<totfact> 0.51466788E+04</totfact>
</mgrwt>
</event>
<event>
 4    1  0.1308644E-003  0.1954794E+03  0.7818608E-02  0.1153610E+00
         -2   -1    0    0    0  501 -0.00000000000E+00  0.00000000000E+00  0.40407397701E+01  0.40407405748E+01  0.25500000000E-02 0. -1.
          2   -1    0    0  501    0  0.00000000000E+00 -0.00000000000E+00 -0.23641836763E+04  0.23641836763E+04  0.25500000000E-02 0.  1.
    5000001    1    1    2    0    0  0.53015660140E+02 -0.17545665283E+02 -0.14524671001E+04  0.14555783000E+04  0.77000000000E+02 0.  0.
   -5000001    1    1    2    0    0 -0.53015660140E+02  0.17545665283E+02 -0.90767583645E+03  0.91264611688E+03  0.77000000000E+02 0.  0.
<mgrwt>
<rscale>  0 0.19547943E+03</rscale>
<asrwt>0</asrwt>
<pdfrwt beam="1">  1        2 0.33773964E+00 0.19547943E+03</pdfrwt>
<pdfrwt beam="2">  1       -2 0.57725011E-03 0.19547943E+03</pdfrwt>
<totfact> 0.27296777E+04</totfact>
</mgrwt>
</event>
<event>
 4    1  0.1308644E-003  0.1755425E+03  0.7818608E-02  0.1172188E+00
         -2   -1    0    0    0  501 -0.00000000000E+00  0.00000000000E+00  0.50138239558E+02  0.50138239622E+02  0.25500000000E-02 0. -1.
          2   -1    0    0  501    0  0.00000000000E+00 -0.00000000000E+00 -0.15365101496E+03  0.15365101498E+03  0.25500000000E-02 0.  1.
    5000001    1    1    2    0    0 -0.10539065532E+00 -0.32796774994E+02 -0.21060175911E+02  0.86302784234E+02  0.77000000000E+02 0.  0.
   -5000001    1    1    2    0    0  0.10539065532E+00  0.32796774994E+02 -0.82452599495E+02  0.11748647037E+03  0.77000000000E+02 0.  0.
<mgrwt>
<rscale>  0 0.17554249E+03</rscale>
<asrwt>0</asrwt>
<pdfrwt beam="1">  1        2 0.21950145E-01 0.17554249E+03</pdfrwt>
<pdfrwt beam="2">  1       -2 0.71626057E-02 0.17554249E+03</pdfrwt>
<totfact> 0.26590200E+04</totfact>
</mgrwt>
</event>
<event>
 4    1  0.1308644E-003  0.2235565E+03  0.7818608E-02  0.1131259E+00
         -2   -1    0    0    0  501 -0.00000000000E+00  0.00000000000E+00  0.33468120681E+02  0.33468120778E+02  0.25500000000E-02 0. -1.
          2   -1    0    0  501    0  0.00000000000E+00 -0.00000000000E+00 -0.37332171594E+03  0.37332171595E+03  0.25500000000E-02 0.  1.
    5000001    1    1    2    0    0  0.58285989867E+02  0.56246129862E+02 -0.16606998960E+03  0.20017273837E+03  0.77000000000E+02 0.  0.
   -5000001    1    1    2    0    0 -0.58285989867E+02 -0.56246129862E+02 -0.17378360566E+03  0.20661709836E+03  0.77000000000E+02 0.  0.
<mgrwt>
<rscale>  0 0.22355649E+03</rscale>
<asrwt>0</asrwt>
<pdfrwt beam="1">  1        2 0.53331671E-01 0.22355649E+03</pdfrwt>
<pdfrwt beam="2">  1       -2 0.47811603E-02 0.22355649E+03</pdfrwt>
<totfact> 0.19123400E+04</totfact>
</mgrwt>
</event>
<event>
 4    1  0.1308644E-003  0.2629719E+03  0.7818608E-02  0.1105371E+00
          2   -1    0    0  501    0  0.00000000000E+00  0.00000000000E+00  0.76123001379E+03  0.76123001380E+03  0.25500000000E-02 0.  1.
         -2   -1    0    0    0  501 -0.00000000000E+00 -0.00000000000E+00 -0.22711334640E+02  0.22711334783E+02  0.25500000000E-02 0. -1.
    5000001    1    1    2    0    0 -0.80685192077E+02 -0.72940342365E+01  0.16280451212E+03  0.19747813125E+03  0.77000000000E+02 0.  0.
   -5000001    1    1    2    0    0  0.80685192077E+02  0.72940342365E+01  0.57571416703E+03  0.58646321733E+03  0.77000000000E+02 0.  0.
<mgrwt>
<rscale>  0 0.26297186E+03</rscale>
<asrwt>0</asrwt>
<pdfrwt beam="1">  1        2 0.10874718E+00 0.26297186E+03</pdfrwt>
<pdfrwt beam="2">  1       -2 0.32444754E-02 0.26297186E+03</pdfrwt>
<totfact> 0.15504891E+04</totfact>
</mgrwt>
</event>
<event>
 4    1  0.1308644E-003  0.1901779E+03  0.7818608E-02  0.1158301E+00
         -2   -1    0    0    0  501 -0.00000000000E+00  0.00000000000E+00  0.52906280970E+01  0.52906287115E+01  0.25500000000E-02 0. -1.
          2   -1    0    0  501    0  0.00000000000E+00 -0.00000000000E+00 -0.17090415635E+04  0.17090415635E+04  0.25500000000E-02 0.  1.
    5000001    1    1    2    0    0  0.28047620301E+02  0.47249643578E+02 -0.93913618726E+03  0.94388822222E+03  0.77000000000E+02 0.  0.
   -5000001    1    1    2    0    0 -0.28047620301E+02 -0.47249643578E+02 -0.76461474816E+03  0.77044397001E+03  0.77000000000E+02 0.  0.
<mgrwt>
<rscale>  0 0.19017785E+03</rscale>
<asrwt>0</asrwt>
<pdfrwt beam="1">  1        2 0.24414844E+00 0.19017785E+03</pdfrwt>
<pdfrwt beam="2">  1       -2 0.75580515E-03 0.19017785E+03</pdfrwt>
<totfact> 0.38394012E+04</totfact>
</mgrwt>
</event>
<event>
 4    1  0.1308644E-003  0.3100390E+03  0.7818608E-02  0.1080327E+00
          2   -1    0    0  501    0  0.00000000000E+00  0.00000000000E+00  0.72763620297E+02  0.72763620341E+02  0.25500000000E-02 0.  1.
         -2   -1    0    0    0  501 -0.00000000000E+00 -0.00000000000E+00 -0.33026180753E+03  0.33026180754E+03  0.25500000000E-02 0. -1.
    5000001    1    1    2    0    0  0.31686892140E+02  0.13006287404E+03 -0.11122985536E+03  0.19031944478E+03  0.77000000000E+02 0.  0.
   -5000001    1    1    2    0    0 -0.31686892140E+02 -0.13006287404E+03 -0.14626833188E+03  0.21270598310E+03  0.77000000000E+02 0.  0.
<mgrwt>
<rscale>  0 0.31003900E+03</rscale>
<asrwt>0</asrwt>
<pdfrwt beam="1">  1        2 0.10394803E-01 0.31003900E+03</pdfrwt>
<pdfrwt beam="2">  1       -2 0.47180257E-01 0.31003900E+03</pdfrwt>
<totfact> 0.26370451E+03</totfact>
</mgrwt>
</event>
<event>
 4    1  0.1308644E-003  0.2069427E+03  0.7818608E-02  0.1144010E+00
         -2   -1    0    0    0  501 -0.00000000000E+00  0.00000000000E+00  0.18375225783E+03  0.18375225785E+03  0.25500000000E-02 0. -1.
          2   -1    0    0  501    0  0.00000000000E+00 -0.00000000000E+00 -0.58264966095E+02  0.58264966151E+02  0.25500000000E-02 0.  1.
    5000001    1    1    2    0    0  0.55704718551E+02  0.20667689792E+02  0.21443124352E+02  0.99594059322E+02  0.77000000000E+02 0.  0.
   -5000001    1    1    2    0    0 -0.55704718551E+02 -0.20667689792E+02  0.10404416738E+03  0.14242316468E+03  0.77000000000E+02 0.  0.
<mgrwt>
<rscale>  0 0.20694269E+03</rscale>
<asrwt>0</asrwt>
<pdfrwt beam="1">  1        2 0.83235666E-02 0.20694269E+03</pdfrwt>
<pdfrwt beam="2">  1       -2 0.26250322E-01 0.20694269E+03</pdfrwt>
<totfact> 0.10221533E+04</totfact>
</mgrwt>
</event>
<event>
 4    1  0.1308644E-003  0.2749293E+03  0.7818608E-02  0.1098491E+00
         -2   -1    0    0    0  501 -0.00000000000E+00  0.00000000000E+00  0.46069038145E+02  0.46069038215E+02  0.25500000000E-02 0. -1.
          2   -1    0    0  501    0  0.00000000000E+00 -0.00000000000E+00 -0.41017862030E+03  0.41017862031E+03  0.25500000000E-02 0.  1.
    5000001    1    1    2    0    0  0.40649124044E+02  0.10268061253E+03 -0.22816032668E+03  0.26491846697E+03  0.77000000000E+02 0.  0.
   -5000001    1    1    2    0    0 -0.40649124044E+02 -0.10268061253E+03 -0.13594925548E+03  0.19132919155E+03  0.77000000000E+02 0.  0.
<mgrwt>
<rscale>  0 0.27492933E+03</rscale>
<asrwt>0</asrwt>
<pdfrwt beam="1">  1        2 0.58596944E-01 0.27492933E+03</pdfrwt>
<pdfrwt beam="2">  1       -2 0.65812914E-02 0.27492933E+03</pdfrwt>
<totfact> 0.10727828E+04</totfact>
</mgrwt>
</event>
<event>
 4    1  0.1308644E-003  0.4209667E+03  0.7818608E-02  0.1036752E+00
          2   -1    0    0  501    0  0.00000000000E+00  0.00000000000E+00  0.22151974169E+04  0.22151974169E+04  0.25500000000E-02 0. -1.
         -2   -1    0    0    0  501 -0.00000000000E+00 -0.00000000000E+00 -0.19999684927E+02  0.19999685089E+02  0.25500000000E-02 0.  1.
    5000001    1    1    2    0    0  0.18722811352E+03 -0.17734836560E+02  0.13886814757E+04  0.14034721700E+04  0.77000000000E+02 0.  0.
   -5000001    1    1    2    0    0 -0.18722811352E+03  0.17734836560E+02  0.80651625627E+03  0.83172493202E+03  0.77000000000E+02 0.  0.
<mgrwt>
<rscale>  0 0.42096675E+03</rscale>
<asrwt>0</asrwt>
<pdfrwt beam="1">  1        2 0.31645663E+00 0.42096675E+03</pdfrwt>
<pdfrwt beam="2">  1       -2 0.28570991E-02 0.42096675E+03</pdfrwt>
<totfact> 0.31408334E+03</totfact>
</mgrwt>
</event>
<event>
 4    1  0.1308644E-003  0.2379988E+03  0.7818608E-02  0.1121133E+00
          2   -1    0    0  501    0  0.00000000000E+00  0.00000000000E+00  0.70118157694E+03  0.70118157695E+03  0.25500000000E-02 0.  1.
         -2   -1    0    0    0  501 -0.00000000000E+00 -0.00000000000E+00 -0.20195699884E+02  0.20195700045E+02  0.25500000000E-02 0. -1.
    5000001    1    1    2    0    0  0.52483113730E+02  0.73907632905E+02  0.32873928102E+03  0.34959309249E+03  0.77000000000E+02 0.  0.
   -5000001    1    1    2    0    0 -0.52483113730E+02 -0.73907632905E+02  0.35224659604E+03  0.37178418451E+03  0.77000000000E+02 0.  0.
<mgrwt>
<rscale>  0 0.23799876E+03</rscale>
<asrwt>0</asrwt>
<pdfrwt beam="1">  1        2 0.10016880E+00 0.23799876E+03</pdfrwt>
<pdfrwt beam="2">  1       -2 0.28850998E-02 0.23799876E+03</pdfrwt>
<totfact> 0.20269013E+04</totfact>
</mgrwt>
</event>
<event>
 4    1  0.1308644E-003  0.2302216E+03  0.7818608E-02  0.1126484E+00
          2   -1    0    0  501    0  0.00000000000E+00  0.00000000000E+00  0.18302409643E+04  0.18302409643E+04  0.25500000000E-02 0.  1.
         -2   -1    0    0    0  501 -0.00000000000E+00 -0.00000000000E+00 -0.72397533973E+01  0.72397538464E+01  0.25500000000E-02 0. -1.
    5000001    1    1    2    0    0 -0.55739621901E+02 -0.11961632714E+02  0.14207779861E+04  0.14240045899E+04  0.77000000000E+02 0.  0.
   -5000001    1    1    2    0    0  0.55739621901E+02  0.11961632714E+02  0.40222322476E+03  0.41347612826E+03  0.77000000000E+02 0.  0.
<mgrwt>
<rscale>  0 0.23022158E+03</rscale>
<asrwt>0</asrwt>
<pdfrwt beam="1">  1        2 0.26146295E+00 0.23022158E+03</pdfrwt>
<pdfrwt beam="2">  1       -2 0.10342507E-02 0.23022158E+03</pdfrwt>
<totfact> 0.21546355E+04</totfact>
</mgrwt>
</event>
<event>
 4    1  0.1308644E-003  0.2122636E+03  0.7818608E-02  0.1139786E+00
          2   -1    0    0  501    0  0.00000000000E+00  0.00000000000E+00  0.69968898517E+03  0.69968898518E+03  0.25500000000E-02 0.  1.
         -2   -1    0    0    0  501 -0.00000000000E+00 -0.00000000000E+00 -0.16098523881E+02  0.16098524083E+02  0.25500000000E-02 0. -1.
    5000001    1    1    2    0    0 -0.66716501600E+02 -0.16812590449E+00  0.44204777707E+03  0.45363681185E+03  0.77000000000E+02 0.  0.
   -5000001    1    1    2    0    0  0.66716501600E+02  0.16812590449E+00  0.24154268423E+03  0.26215069742E+03  0.77000000000E+02 0.  0.
<mgrwt>
<rscale>  0 0.21226361E+03</rscale>
<asrwt>0</asrwt>
<pdfrwt beam="1">  1        2 0.99955576E-01 0.21226361E+03</pdfrwt>
<pdfrwt beam="2">  1       -2 0.22997890E-02 0.21226361E+03</pdfrwt>
<totfact> 0.28187525E+04</totfact>
</mgrwt>
</event>
<event>
 4    1  0.1308644E-003  0.4291778E+03  0.7818608E-02  0.1034120E+00
         -2   -1    0    0    0  501 -0.00000000000E+00  0.00000000000E+00  0.16237757928E+02  0.16237758128E+02  0.25500000000E-02 0. -1.
          2   -1    0    0  501    0  0.00000000000E+00 -0.00000000000E+00 -0.28358843016E+04  0.28358843016E+04  0.25500000000E-02 0.  1.
    5000001    1    1    2    0    0  0.14711145050E+03  0.69414252981E+02 -0.63313844743E+03  0.65821988043E+03  0.77000000000E+02 0.  0.
   -5000001    1    1    2    0    0 -0.14711145050E+03 -0.69414252981E+02 -0.21865080963E+04  0.21939021793E+04  0.77000000000E+02 0.  0.
<mgrwt>
<rscale>  0 0.42917783E+03</rscale>
<asrwt>0</asrwt>
<pdfrwt beam="1">  1        2 0.40512601E+00 0.42917783E+03</pdfrwt>
<pdfrwt beam="2">  1       -2 0.23196815E-02 0.42917783E+03</pdfrwt>
<totfact> 0.20718953E+03</totfact>
</mgrwt>
</event>
<event>
 4    1  0.1308644E-003  0.2748405E+03  0.7818608E-02  0.1098541E+00
          2   -1    0    0  501    0  0.00000000000E+00  0.00000000000E+00  0.12288780349E+04  0.12288780350E+04  0.25500000000E-02 0.  1.
         -2   -1    0    0    0  501 -0.00000000000E+00 -0.00000000000E+00 -0.15367124124E+02  0.15367124335E+02  0.25500000000E-02 0. -1.
    5000001    1    1    2    0    0  0.11152362219E+03  0.72333928004E+01  0.70442885918E+03  0.71738334099E+03  0.77000000000E+02 0.  0.
   -5000001    1    1    2    0    0 -0.11152362219E+03 -0.72333928004E+01  0.50908205164E+03  0.52686181830E+03  0.77000000000E+02 0.  0.
<mgrwt>
<rscale>  0 0.27484047E+03</rscale>
<asrwt>0</asrwt>
<pdfrwt beam="1">  1        2 0.17555396E+00 0.27484047E+03</pdfrwt>
<pdfrwt beam="2">  1       -2 0.21953041E-02 0.27484047E+03</pdfrwt>
<totfact> 0.14537517E+04</totfact>
</mgrwt>
</event>
<event>
 4    1  0.1308644E-003  0.1890432E+03  0.7818608E-02  0.1159327E+00
          2   -1    0    0  501    0  0.00000000000E+00  0.00000000000E+00  0.13025033221E+04  0.13025033221E+04  0.25500000000E-02 0.  1.
         -2   -1    0    0    0  501 -0.00000000000E+00 -0.00000000000E+00 -0.68593552787E+01  0.68593557527E+01  0.25500000000E-02 0. -1.
    5000001    1    1    2    0    0  0.35488080277E+02  0.34521153795E+02  0.48476486361E+03  0.49333263311E+03  0.77000000000E+02 0.  0.
   -5000001    1    1    2    0    0 -0.35488080277E+02 -0.34521153795E+02  0.81087910323E+03  0.81603004476E+03  0.77000000000E+02 0.  0.
<mgrwt>
<rscale>  0 0.18904321E+03</rscale>
<asrwt>0</asrwt>
<pdfrwt beam="1">  1        2 0.18607192E+00 0.18904321E+03</pdfrwt>
<pdfrwt beam="2">  1       -2 0.97990782E-03 0.18904321E+03</pdfrwt>
<totfact> 0.42173850E+04</totfact>
</mgrwt>
</event>
<event>
 4    1  0.1308644E-003  0.3321040E+03  0.7818608E-02  0.1070210E+00
          2   -1    0    0  501    0  0.00000000000E+00  0.00000000000E+00  0.25515318480E+04  0.25515318480E+04  0.25500000000E-02 0.  1.
         -2   -1    0    0    0  501 -0.00000000000E+00 -0.00000000000E+00 -0.10806554843E+02  0.10806555144E+02  0.25500000000E-02 0. -1.
    5000001    1    1    2    0    0 -0.60699424850E+02 -0.13311351980E+03  0.13900494271E+04  0.13998464341E+04  0.77000000000E+02 0.  0.
   -5000001    1    1    2    0    0  0.60699424850E+02  0.13311351980E+03  0.11506758661E+04  0.11624919690E+04  0.77000000000E+02 0.  0.
<mgrwt>
<rscale>  0 0.33210402E+03</rscale>
<asrwt>0</asrwt>
<pdfrwt beam="1">  1        2 0.36450463E+00 0.33210402E+03</pdfrwt>
<pdfrwt beam="2">  1       -2 0.15437932E-02 0.33210402E+03</pdfrwt>
<totfact> 0.53388779E+03</totfact>
</mgrwt>
</event>
<event>
 4    1  0.1308644E-003  0.3457265E+03  0.7818608E-02  0.1064383E+00
         -2   -1    0    0    0  501 -0.00000000000E+00  0.00000000000E+00  0.44129894270E+04  0.44129894270E+04  0.25500000000E-02 0. -1.
          2   -1    0    0  501    0  0.00000000000E+00 -0.00000000000E+00 -0.67713076059E+01  0.67713080861E+01  0.25500000000E-02 0.  1.
    5000001    1    1    2    0    0 -0.80307825004E+02 -0.12132673784E+03  0.15286786477E+04  0.15375164819E+04  0.77000000000E+02 0.  0.
   -5000001    1    1    2    0    0  0.80307825004E+02  0.12132673784E+03  0.28775394717E+04  0.28822442532E+04  0.77000000000E+02 0.  0.
<mgrwt>
<rscale>  0 0.34572654E+03</rscale>
<asrwt>0</asrwt>
<pdfrwt beam="1">  1        2 0.96732812E-03 0.34572654E+03</pdfrwt>
<pdfrwt beam="2">  1       -2 0.63042809E+00 0.34572654E+03</pdfrwt>
<totfact> 0.68957364E+00</totfact>
</mgrwt>
</event>
<event>
 4    1  0.1308644E-003  0.2179648E+03  0.7818608E-02  0.1135410E+00
         -2   -1    0    0    0  501 -0.00000000000E+00  0.00000000000E+00  0.19901206100E+02  0.19901206263E+02  0.25500000000E-02 0. -1.
          2   -1    0    0  501    0  0.00000000000E+00 -0.00000000000E+00 -0.59680599987E+03  0.59680599987E+03  0.25500000000E-02 0.  1.
    5000001    1    1    2    0    0  0.63617591126E+02 -0.10662362821E+02 -0.16883661775E+03  0.19645785140E+03  0.77000000000E+02 0.  0.
   -5000001    1    1    2    0    0 -0.63617591126E+02  0.10662362821E+02 -0.40806817602E+03  0.42024935474E+03  0.77000000000E+02 0.  0.
<mgrwt>
<rscale>  0 0.21796476E+03</rscale>
<asrwt>0</asrwt>
<pdfrwt beam="1">  1        2 0.85257989E-01 0.21796476E+03</pdfrwt>
<pdfrwt beam="2">  1       -2 0.28430298E-02 0.21796476E+03</pdfrwt>
<totfact> 0.24821986E+04</totfact>
</mgrwt>
</event>
<event>
 4    1  0.1308644E-003  0.2811548E+03  0.7818608E-02  0.1095060E+00
          2   -1    0    0  501    0  0.00000000000E+00  0.00000000000E+00  0.16356900767E+04  0.16356900767E+04  0.25500000000E-02 0.  1.
         -2   -1    0    0    0  501 -0.00000000000E+00 -0.00000000000E+00 -0.12081757674E+02  0.12081757943E+02  0.25500000000E-02 0. -1.
    5000001    1    1    2    0    0 -0.36370517645E+02  0.58463700533E+02  0.13706420168E+04  0.13745287764E+04  0.77000000000E+02 0.  0.
   -5000001    1    1    2    0    0  0.36370517645E+02 -0.58463700533E+02  0.25296630214E+03  0.27324305819E+03  0.77000000000E+02 0.  0.
<mgrwt>
<rscale>  0 0.28115484E+03</rscale>
<asrwt>0</asrwt>
<pdfrwt beam="1">  1        2 0.23366982E+00 0.28115484E+03</pdfrwt>
<pdfrwt beam="2">  1       -2 0.17259668E-02 0.28115484E+03</pdfrwt>
<totfact> 0.12812454E+04</totfact>
</mgrwt>
</event>
<event>
 4    1  0.1308644E-003  0.1981393E+03  0.7818608E-02  0.1151318E+00
          2   -1    0    0  501    0  0.00000000000E+00  0.00000000000E+00  0.25512490953E+03  0.25512490954E+03  0.25500000000E-02 0.  1.
         -2   -1    0    0    0  501 -0.00000000000E+00 -0.00000000000E+00 -0.38470546904E+02  0.38470546988E+02  0.25500000000E-02 0. -1.
    5000001    1    1    2    0    0 -0.46537415869E+02 -0.41460810200E+02  0.10679805193E+03  0.14566933018E+03  0.77000000000E+02 0.  0.
   -5000001    1    1    2    0    0  0.46537415869E+02  0.41460810200E+02  0.10985631069E+03  0.14792612635E+03  0.77000000000E+02 0.  0.
<mgrwt>
<rscale>  0 0.19813929E+03</rscale>
<asrwt>0</asrwt>
<pdfrwt beam="1">  1        2 0.36446414E-01 0.19813929E+03</pdfrwt>
<pdfrwt beam="2">  1       -2 0.54957927E-02 0.19813929E+03</pdfrwt>
<totfact> 0.23086889E+04</totfact>
</mgrwt>
</event>
<event>
 4    1  0.1308644E-003  0.2027475E+03  0.7818608E-02  0.1147441E+00
          2   -1    0    0  501    0  0.00000000000E+00  0.00000000000E+00  0.27490340687E+03  0.27490340688E+03  0.25500000000E-02 0.  1.
         -2   -1    0    0    0  501 -0.00000000000E+00 -0.00000000000E+00 -0.37382736598E+02  0.37382736685E+02  0.25500000000E-02 0. -1.
    5000001    1    1    2    0    0  0.14596708822E+02 -0.64274467503E+02  0.11593252910E+03  0.15399228027E+03  0.77000000000E+02 0.  0.
   -5000001    1    1    2    0    0 -0.14596708822E+02  0.64274467503E+02  0.12158814117E+03  0.15829386329E+03  0.77000000000E+02 0.  0.
<mgrwt>
<rscale>  0 0.20274754E+03</rscale>
<asrwt>0</asrwt>
<pdfrwt beam="1">  1        2 0.39271916E-01 0.20274754E+03</pdfrwt>
<pdfrwt beam="2">  1       -2 0.53403908E-02 0.20274754E+03</pdfrwt>
<totfact> 0.22292737E+04</totfact>
</mgrwt>
</event>
<event>
 4    1  0.1308644E-003  0.4902346E+03  0.7818608E-02  0.1016360E+00
         -2   -1    0    0    0  501 -0.00000000000E+00  0.00000000000E+00  0.10324282796E+04  0.10324282796E+04  0.25500000000E-02 0. -1.
          2   -1    0    0  501    0  0.00000000000E+00 -0.00000000000E+00 -0.58195311350E+02  0.58195311406E+02  0.25500000000E-02 0.  1.
    5000001    1    1    2    0    0  0.16292811142E+03 -0.14272470464E+03  0.29785272206E+03  0.37624613598E+03  0.77000000000E+02 0.  0.
   -5000001    1    1    2    0    0 -0.16292811142E+03  0.14272470464E+03  0.67638024617E+03  0.71437745500E+03  0.77000000000E+02 0.  0.
<mgrwt>
<rscale>  0 0.49023458E+03</rscale>
<asrwt>0</asrwt>
<pdfrwt beam="1">  1        2 0.83136158E-02 0.49023458E+03</pdfrwt>
<pdfrwt beam="2">  1       -2 0.14748976E+00 0.49023458E+03</pdfrwt>
<totfact> 0.26836620E+02</totfact>
</mgrwt>
</event>
<event>
 4    1  0.1308644E-003  0.1949106E+03  0.7818608E-02  0.1154105E+00
         -2   -1    0    0    0  501 -0.00000000000E+00  0.00000000000E+00  0.19021390428E+02  0.19021390599E+02  0.25500000000E-02 0. -1.
          2   -1    0    0  501    0  0.00000000000E+00 -0.00000000000E+00 -0.49930814991E+03  0.49930814992E+03  0.25500000000E-02 0.  1.
    5000001    1    1    2    0    0 -0.41181908137E+01 -0.57514155178E+02 -0.28165754237E+03  0.29763200217E+03  0.77000000000E+02 0.  0.
   -5000001    1    1    2    0    0  0.41181908137E+01  0.57514155178E+02 -0.19862921711E+03  0.22069753834E+03  0.77000000000E+02 0.  0.
<mgrwt>
<rscale>  0 0.19491060E+03</rscale>
<asrwt>0</asrwt>
<pdfrwt beam="1">  1        2 0.71329727E-01 0.19491060E+03</pdfrwt>
<pdfrwt beam="2">  1       -2 0.27173418E-02 0.19491060E+03</pdfrwt>
<totfact> 0.32100872E+04</totfact>
</mgrwt>
</event>
<event>
 4    1  0.1308644E-003  0.3872585E+03  0.7818608E-02  0.1048283E+00
          2   -1    0    0  501    0  0.00000000000E+00  0.00000000000E+00  0.12691311880E+03  0.12691311883E+03  0.25500000000E-02 0.  1.
         -2   -1    0    0    0  501 -0.00000000000E+00 -0.00000000000E+00 -0.29541692518E+03  0.29541692519E+03  0.25500000000E-02 0. -1.
    5000001    1    1    2    0    0  0.10723385758E+03 -0.14085991770E+03 -0.67978489100E+02  0.20467215640E+03  0.77000000000E+02 0.  0.
   -5000001    1    1    2    0    0 -0.10723385758E+03  0.14085991770E+03 -0.10052531727E+03  0.21765788761E+03  0.77000000000E+02 0.  0.
<mgrwt>
<rscale>  0 0.38725848E+03</rscale>
<asrwt>0</asrwt>
<pdfrwt beam="1">  1        2 0.18130446E-01 0.38725848E+03</pdfrwt>
<pdfrwt beam="2">  1       -2 0.42202417E-01 0.38725848E+03</pdfrwt>
<totfact> 0.16844154E+03</totfact>
</mgrwt>
</event>
<event>
 4    1  0.1308644E-003  0.2758206E+03  0.7818608E-02  0.1097994E+00
         -2   -1    0    0    0  501 -0.00000000000E+00  0.00000000000E+00  0.17380879188E+02  0.17380879376E+02  0.25500000000E-02 0. -1.
          2   -1    0    0  501    0  0.00000000000E+00 -0.00000000000E+00 -0.10942624894E+04  0.10942624894E+04  0.25500000000E-02 0.  1.
    5000001    1    1    2    0    0 -0.65302108483E+02  0.93284243659E+02 -0.49357402669E+03  0.51235791720E+03  0.77000000000E+02 0.  0.
   -5000001    1    1    2    0    0  0.65302108483E+02 -0.93284243659E+02 -0.58330758350E+03  0.59928545156E+03  0.77000000000E+02 0.  0.
<mgrwt>
<rscale>  0 0.27582055E+03</rscale>
<asrwt>0</asrwt>
<pdfrwt beam="1">  1        2 0.15632317E+00 0.27582055E+03</pdfrwt>
<pdfrwt beam="2">  1       -2 0.24829834E-02 0.27582055E+03</pdfrwt>
<totfact> 0.14376344E+04</totfact>
</mgrwt>
</event>
<event>
 4    1  0.1308644E-003  0.2517261E+03  0.7818608E-02  0.1112219E+00
          2   -1    0    0  501    0  0.00000000000E+00  0.00000000000E+00  0.53585702605E+03  0.53585702606E+03  0.25500000000E-02 0.  1.
         -2   -1    0    0    0  501 -0.00000000000E+00 -0.00000000000E+00 -0.29562947964E+02  0.29562948074E+02  0.25500000000E-02 0. -1.
    5000001    1    1    2    0    0  0.75260212355E+01 -0.81171821715E+02  0.38153310758E+03  0.39767074046E+03  0.77000000000E+02 0.  0.
   -5000001    1    1    2    0    0 -0.75260212355E+01  0.81171821715E+02  0.12476097051E+03  0.16774923367E+03  0.77000000000E+02 0.  0.
<mgrwt>
<rscale>  0 0.25172615E+03</rscale>
<asrwt>0</asrwt>
<pdfrwt beam="1">  1        2 0.76550998E-01 0.25172615E+03</pdfrwt>
<pdfrwt beam="2">  1       -2 0.42232786E-02 0.25172615E+03</pdfrwt>
<totfact> 0.15660007E+04</totfact>
</mgrwt>
</event>
<event>
 4    1  0.1308644E-003  0.4399559E+03  0.7818608E-02  0.1030760E+00
         -2   -1    0    0    0  501 -0.00000000000E+00  0.00000000000E+00  0.19852809220E+03  0.19852809222E+03  0.25500000000E-02 0. -1.
          2   -1    0    0  501    0  0.00000000000E+00 -0.00000000000E+00 -0.24374537521E+03  0.24374537522E+03  0.25500000000E-02 0.  1.
    5000001    1    1    2    0    0 -0.19851467507E+02 -0.13575869200E+03  0.13194386913E+03  0.20533554932E+03  0.77000000000E+02 0.  0.
   -5000001    1    1    2    0    0  0.19851467507E+02  0.13575869200E+03 -0.17716115214E+03  0.23693791812E+03  0.77000000000E+02 0.  0.
<mgrwt>
<rscale>  0 0.43995593E+03</rscale>
<asrwt>0</asrwt>
<pdfrwt beam="1">  1        2 0.34820768E-01 0.43995593E+03</pdfrwt>
<pdfrwt beam="2">  1       -2 0.28361156E-01 0.43995593E+03</pdfrwt>
<totfact> 0.16994634E+03</totfact>
</mgrwt>
</event>
<event>
 4    1  0.1308644E-003  0.4583128E+03  0.7818608E-02  0.1025272E+00
          2   -1    0    0  501    0  0.00000000000E+00  0.00000000000E+00  0.34394829695E+03  0.34394829696E+03  0.25500000000E-02 0.  1.
         -2   -1    0    0    0  501 -0.00000000000E+00 -0.00000000000E+00 -0.15267604913E+03  0.15267604915E+03  0.25500000000E-02 0. -1.
    5000001    1    1    2    0    0 -0.44122690651E+02  0.20698844589E+03  0.49757293770E+02  0.23064218358E+03  0.77000000000E+02 0.  0.
   -5000001    1    1    2    0    0  0.44122690651E+02 -0.20698844589E+03  0.14151495405E+03  0.26598216253E+03  0.77000000000E+02 0.  0.
<mgrwt>
<rscale>  0 0.45831285E+03</rscale>
<asrwt>0</asrwt>
<pdfrwt beam="1">  1        2 0.49135471E-01 0.45831285E+03</pdfrwt>
<pdfrwt beam="2">  1       -2 0.21810864E-01 0.45831285E+03</pdfrwt>
<totfact> 0.18617121E+03</totfact>
</mgrwt>
</event>
<event>
 4    1  0.1308644E-003  0.2928612E+03  0.7818608E-02  0.1088865E+00
          2   -1    0    0  501    0  0.00000000000E+00  0.00000000000E+00  0.33380669484E+03  0.33380669485E+03  0.25500000000E-02 0.  1.
         -2   -1    0    0    0  501 -0.00000000000E+00 -0.00000000000E+00 -0.64234535228E+02  0.64234535279E+02  0.25500000000E-02 0. -1.
    5000001    1    1    2    0    0 -0.94247335503E+02  0.52321762585E+02  0.49985897995E+02  0.14158996111E+03  0.77000000000E+02 0.  0.
   -5000001    1    1    2    0    0  0.94247335503E+02 -0.52321762585E+02  0.21958626162E+03  0.25645126902E+03  0.77000000000E+02 0.  0.
<mgrwt>
<rscale>  0 0.29286118E+03</rscale>
<asrwt>0</asrwt>
<pdfrwt beam="1">  1        2 0.47686670E-01 0.29286118E+03</pdfrwt>
<pdfrwt beam="2">  1       -2 0.91763622E-02 0.29286118E+03</pdfrwt>
<totfact> 0.79969382E+03</totfact>
</mgrwt>
</event>
<event>
 4    1  0.1308644E-003  0.2009880E+03  0.7818608E-02  0.1148908E+00
         -2   -1    0    0    0  501 -0.00000000000E+00  0.00000000000E+00  0.37796862266E+02  0.37796862352E+02  0.25500000000E-02 0. -1.
          2   -1    0    0  501    0  0.00000000000E+00 -0.00000000000E+00 -0.26719260981E+03  0.26719260982E+03  0.25500000000E-02 0.  1.
    5000001    1    1    2    0    0 -0.41301906453E+02  0.34540904324E+02 -0.60596516641E+02  0.11180276999E+03  0.77000000000E+02 0.  0.
   -5000001    1    1    2    0    0  0.41301906453E+02 -0.34540904324E+02 -0.16879923090E+03  0.19318670219E+03  0.77000000000E+02 0.  0.
<mgrwt>
<rscale>  0 0.20098798E+03</rscale>
<asrwt>0</asrwt>
<pdfrwt beam="1">  1        2 0.38170372E-01 0.20098798E+03</pdfrwt>
<pdfrwt beam="2">  1       -2 0.53995519E-02 0.20098798E+03</pdfrwt>
<totfact> 0.22588756E+04</totfact>
</mgrwt>
</event>
<event>
 4    1  0.1308644E-003  0.2947283E+03  0.7818608E-02  0.1087906E+00
          2   -1    0    0  501    0  0.00000000000E+00  0.00000000000E+00  0.21748054240E+03  0.21748054242E+03  0.25500000000E-02 0.  1.
         -2   -1    0    0    0  501 -0.00000000000E+00 -0.00000000000E+00 -0.99853480964E+02  0.99853480996E+02  0.25500000000E-02 0. -1.
    5000001    1    1    2    0    0  0.50288174438E+02  0.10996399124E+03  0.95582638672E+02  0.17229631648E+03  0.77000000000E+02 0.  0.
   -5000001    1    1    2    0    0 -0.50288174438E+02 -0.10996399124E+03  0.22044422764E+02  0.14503770693E+03  0.77000000000E+02 0.  0.
<mgrwt>
<rscale>  0 0.29472828E+03</rscale>
<asrwt>0</asrwt>
<pdfrwt beam="1">  1        2 0.31068649E-01 0.29472828E+03</pdfrwt>
<pdfrwt beam="2">  1       -2 0.14264783E-01 0.29472828E+03</pdfrwt>
<totfact> 0.62517024E+03</totfact>
</mgrwt>
</event>
<event>
 4    1  0.1308644E-003  0.2203688E+03  0.7818608E-02  0.1133608E+00
         -2   -1    0    0    0  501 -0.00000000000E+00  0.00000000000E+00  0.23974511200E+03  0.23974511201E+03  0.25500000000E-02 0. -1.
          2   -1    0    0  501    0  0.00000000000E+00 -0.00000000000E+00 -0.50639619763E+02  0.50639619827E+02  0.25500000000E-02 0.  1.
    5000001    1    1    2    0    0  0.17147907105E+02  0.71989459704E+02  0.13027900403E+03  0.16845816074E+03  0.77000000000E+02 0.  0.
   -5000001    1    1    2    0    0 -0.17147907105E+02 -0.71989459704E+02  0.58826488202E+02  0.12192657110E+03  0.77000000000E+02 0.  0.
<mgrwt>
<rscale>  0 0.22036879E+03</rscale>
<asrwt>0</asrwt>
<pdfrwt beam="1">  1        2 0.72342314E-02 0.22036879E+03</pdfrwt>
<pdfrwt beam="2">  1       -2 0.34249302E-01 0.22036879E+03</pdfrwt>
<totfact> 0.75763754E+03</totfact>
</mgrwt>
</event>
<event>
 4    1  0.1308644E-003  0.1892459E+03  0.7818608E-02  0.1159143E+00
          2   -1    0    0  501    0  0.00000000000E+00  0.00000000000E+00  0.18819030260E+04  0.18819030260E+04  0.25500000000E-02 0.  1.
         -2   -1    0    0    0  501 -0.00000000000E+00 -0.00000000000E+00 -0.47576844360E+01  0.47576851193E+01  0.25500000000E-02 0. -1.
    5000001    1    1    2    0    0  0.17512977400E+02 -0.45871266274E+02  0.11855280573E+04  0.11890402231E+04  0.77000000000E+02 0.  0.
   -5000001    1    1    2    0    0 -0.17512977400E+02  0.45871266274E+02  0.69161728421E+03  0.69762048799E+03  0.77000000000E+02 0.  0.
<mgrwt>
<rscale>  0 0.18924589E+03</rscale>
<asrwt>0</asrwt>
<pdfrwt beam="1">  1        2 0.26884309E+00 0.18924589E+03</pdfrwt>
<pdfrwt beam="2">  1       -2 0.67966976E-03 0.18924589E+03</pdfrwt>
<totfact> 0.36869853E+04</totfact>
</mgrwt>
</event>
<event>
 4    1  0.1308644E-003  0.4957047E+03  0.7818608E-02  0.1014906E+00
          2   -1    0    0  501    0  0.00000000000E+00  0.00000000000E+00  0.29560055720E+03  0.29560055721E+03  0.25500000000E-02 0.  1.
         -2   -1    0    0    0  501 -0.00000000000E+00 -0.00000000000E+00 -0.20781692007E+03  0.20781692008E+03  0.25500000000E-02 0. -1.
    5000001    1    1    2    0    0  0.15901152058E+03  0.10202683907E+02 -0.13233926436E+03  0.22097836846E+03  0.77000000000E+02 0.  0.
   -5000001    1    1    2    0    0 -0.15901152058E+03 -0.10202683907E+02  0.22012290149E+03  0.28243910883E+03  0.77000000000E+02 0.  0.
<mgrwt>
<rscale>  0 0.49570474E+03</rscale>
<asrwt>0</asrwt>
<pdfrwt beam="1">  1        2 0.42228651E-01 0.49570474E+03</pdfrwt>
<pdfrwt beam="2">  1       -2 0.29688131E-01 0.49570474E+03</pdfrwt>
<totfact> 0.12653552E+03</totfact>
</mgrwt>
</event>
<event>
 4    1  0.1308644E-003  0.2854314E+03  0.7818608E-02  0.1092759E+00
          2   -1    0    0  501    0  0.00000000000E+00  0.00000000000E+00  0.93788817315E+03  0.93788817315E+03  0.25500000000E-02 0.  1.
         -2   -1    0    0    0  501 -0.00000000000E+00 -0.00000000000E+00 -0.21716623192E+02  0.21716623341E+02  0.25500000000E-02 0. -1.
    5000001    1    1    2    0    0 -0.21724476239E+01  0.89342671888E+02  0.72813044664E+03  0.73762441653E+03  0.77000000000E+02 0.  0.
   -5000001    1    1    2    0    0  0.21724476239E+01 -0.89342671888E+02  0.18804110332E+03  0.22198037996E+03  0.77000000000E+02 0.  0.
<mgrwt>
<rscale>  0 0.28543135E+03</rscale>
<asrwt>0</asrwt>
<pdfrwt beam="1">  1        2 0.13398400E+00 0.28543135E+03</pdfrwt>
<pdfrwt beam="2">  1       -2 0.31023754E-02 0.28543135E+03</pdfrwt>
<totfact> 0.12772077E+04</totfact>
</mgrwt>
</event>
<event>
 4    1  0.1308644E-003  0.2008368E+03  0.7818608E-02  0.1149035E+00
         -2   -1    0    0    0  501 -0.00000000000E+00  0.00000000000E+00  0.83447771874E+01  0.83447775770E+01  0.25500000000E-02 0. -1.
          2   -1    0    0  501    0  0.00000000000E+00 -0.00000000000E+00 -0.12084032753E+04  0.12084032753E+04  0.25500000000E-02 0.  1.
    5000001    1    1    2    0    0  0.35665545142E+02  0.52962585505E+02 -0.65346335243E+03  0.66107519961E+03  0.77000000000E+02 0.  0.
   -5000001    1    1    2    0    0 -0.35665545142E+02 -0.52962585505E+02 -0.54659514564E+03  0.55567285322E+03  0.77000000000E+02 0.  0.
<mgrwt>
<rscale>  0 0.20083681E+03</rscale>
<asrwt>0</asrwt>
<pdfrwt beam="1">  1        2 0.17262893E+00 0.20083681E+03</pdfrwt>
<pdfrwt beam="2">  1       -2 0.11921118E-02 0.20083681E+03</pdfrwt>
<totfact> 0.35780038E+04</totfact>
</mgrwt>
</event>
<event>
 4    1  0.1308644E-003  0.2060582E+03  0.7818608E-02  0.1144726E+00
          2   -1    0    0  501    0  0.00000000000E+00  0.00000000000E+00  0.30007170490E+04  0.30007170490E+04  0.25500000000E-02 0.  1.
         -2   -1    0    0    0  501 -0.00000000000E+00 -0.00000000000E+00 -0.35374849955E+01  0.35374859146E+01  0.25500000000E-02 0. -1.
    5000001    1    1    2    0    0 -0.14545655920E+02 -0.37259553244E+02  0.68864602290E+03  0.69409091283E+03  0.77000000000E+02 0.  0.
   -5000001    1    1    2    0    0  0.14545655920E+02  0.37259553244E+02  0.23085335411E+04  0.23101636221E+04  0.77000000000E+02 0.  0.
<mgrwt>
<rscale>  0 0.20605818E+03</rscale>
<asrwt>0</asrwt>
<pdfrwt beam="1">  1        2 0.42867408E+00 0.20605818E+03</pdfrwt>
<pdfrwt beam="2">  1       -2 0.50535481E-03 0.20605818E+03</pdfrwt>
<totfact> 0.15799516E+04</totfact>
</mgrwt>
</event>
<event>
 4    1  0.1308644E-003  0.1926074E+03  0.7818608E-02  0.1156130E+00
          2   -1    0    0  501    0  0.00000000000E+00  0.00000000000E+00  0.23126476639E+03  0.23126476640E+03  0.25500000000E-02 0.  1.
         -2   -1    0    0    0  501 -0.00000000000E+00 -0.00000000000E+00 -0.40102969247E+02  0.40102969328E+02  0.25500000000E-02 0. -1.
    5000001    1    1    2    0    0 -0.23119745533E+02 -0.47917452052E+02  0.12754805852E+03  0.15820275623E+03  0.77000000000E+02 0.  0.
   -5000001    1    1    2    0    0  0.23119745533E+02  0.47917452052E+02  0.63613738615E+02  0.11316497950E+03  0.77000000000E+02 0.  0.
<mgrwt>
<rscale>  0 0.19260741E+03</rscale>
<asrwt>0</asrwt>
<pdfrwt beam="1">  1        2 0.33037823E-01 0.19260741E+03</pdfrwt>
<pdfrwt beam="2">  1       -2 0.57289957E-02 0.19260741E+03</pdfrwt>
<totfact> 0.24044097E+04</totfact>
</mgrwt>
</event>
<event>
 4    1  0.1308644E-003  0.2188062E+03  0.7818608E-02  0.1134776E+00
          2   -1    0    0  501    0  0.00000000000E+00  0.00000000000E+00  0.29173501215E+04  0.29173501215E+04  0.25500000000E-02 0.  1.
         -2   -1    0    0    0  501 -0.00000000000E+00 -0.00000000000E+00 -0.41027079252E+01  0.41027087176E+01  0.25500000000E-02 0. -1.
    5000001    1    1    2    0    0 -0.62054443437E+02 -0.30242638167E+01  0.20800442771E+04  0.20823959985E+04  0.77000000000E+02 0.  0.
   -5000001    1    1    2    0    0  0.62054443437E+02  0.30242638167E+01  0.83320313649E+03  0.83905683167E+03  0.77000000000E+02 0.  0.
<mgrwt>
<rscale>  0 0.21880618E+03</rscale>
<asrwt>0</asrwt>
<pdfrwt beam="1">  1        2 0.41676246E+00 0.21880618E+03</pdfrwt>
<pdfrwt beam="2">  1       -2 0.58610378E-03 0.21880618E+03</pdfrwt>
<totfact> 0.14139539E+04</totfact>
</mgrwt>
</event>
<event>
 4    1  0.1308644E-003  0.1864527E+03  0.7818608E-02  0.1161700E+00
         -2   -1    0    0    0  501 -0.00000000000E+00  0.00000000000E+00  0.38901589498E+01  0.38901597856E+01  0.25500000000E-02 0. -1.
          2   -1    0    0  501    0  0.00000000000E+00 -0.00000000000E+00 -0.22341373490E+04  0.22341373490E+04  0.25500000000E-02 0.  1.
    5000001    1    1    2    0    0  0.37030821879E+02  0.36576732541E+02 -0.12025173989E+04  0.12061037409E+04  0.77000000000E+02 0.  0.
   -5000001    1    1    2    0    0 -0.37030821879E+02 -0.36576732541E+02 -0.10277297911E+04  0.10319237679E+04  0.77000000000E+02 0.  0.
<mgrwt>
<rscale>  0 0.18645268E+03</rscale>
<asrwt>0</asrwt>
<pdfrwt beam="1">  1        2 0.31916166E+00 0.18645268E+03</pdfrwt>
<pdfrwt beam="2">  1       -2 0.55573848E-03 0.18645268E+03</pdfrwt>
<totfact> 0.33255011E+04</totfact>
</mgrwt>
</event>
<event>
 4    1  0.1308644E-003  0.3771222E+03  0.7818608E-02  0.1052003E+00
          2   -1    0    0  501    0  0.00000000000E+00  0.00000000000E+00  0.23322050417E+03  0.23322050418E+03  0.25500000000E-02 0.  1.
         -2   -1    0    0    0  501 -0.00000000000E+00 -0.00000000000E+00 -0.15245352139E+03  0.15245352141E+03  0.25500000000E-02 0. -1.
    5000001    1    1    2    0    0  0.39232356777E+02  0.13832365001E+03 -0.56386124175E+02  0.17257173862E+03  0.77000000000E+02 0.  0.
   -5000001    1    1    2    0    0 -0.39232356777E+02 -0.13832365001E+03  0.13715310695E+03  0.21310228698E+03  0.77000000000E+02 0.  0.
<mgrwt>
<rscale>  0 0.37712219E+03</rscale>
<asrwt>0</asrwt>
<pdfrwt beam="1">  1        2 0.33317214E-01 0.37712219E+03</pdfrwt>
<pdfrwt beam="2">  1       -2 0.21779075E-01 0.37712219E+03</pdfrwt>
<totfact> 0.28482360E+03</totfact>
</mgrwt>
</event>
<event>
 4    1  0.1308644E-003  0.1996941E+03  0.7818608E-02  0.1149997E+00
          2   -1    0    0  501    0  0.00000000000E+00  0.00000000000E+00  0.12804771058E+03  0.12804771060E+03  0.25500000000E-02 0.  1.
         -2   -1    0    0    0  501 -0.00000000000E+00 -0.00000000000E+00 -0.77857206865E+02  0.77857206907E+02  0.25500000000E-02 0. -1.
    5000001    1    1    2    0    0  0.49805638785E+02 -0.39287427505E+02  0.20928085760E+02  0.10193668814E+03  0.77000000000E+02 0.  0.
   -5000001    1    1    2    0    0 -0.49805638785E+02  0.39287427505E+02  0.29262417954E+02  0.10396822937E+03  0.77000000000E+02 0.  0.
<mgrwt>
<rscale>  0 0.19969414E+03</rscale>
<asrwt>0</asrwt>
<pdfrwt beam="1">  1        2 0.18292530E-01 0.19969414E+03</pdfrwt>
<pdfrwt beam="2">  1       -2 0.11122458E-01 0.19969414E+03</pdfrwt>
<totfact> 0.16596849E+04</totfact>
</mgrwt>
</event>
<event>
 4    1  0.1308644E-003  0.2598929E+03  0.7818608E-02  0.1107208E+00
         -2   -1    0    0    0  501 -0.00000000000E+00  0.00000000000E+00  0.18307027409E+02  0.18307027587E+02  0.25500000000E-02 0. -1.
          2   -1    0    0  501    0  0.00000000000E+00 -0.00000000000E+00 -0.92238248025E+03  0.92238248026E+03  0.25500000000E-02 0.  1.
    5000001    1    1    2    0    0  0.13606399755E+02 -0.94904976640E+02 -0.29997480673E+03  0.32420051416E+03  0.77000000000E+02 0.  0.
   -5000001    1    1    2    0    0 -0.13606399755E+02  0.94904976640E+02 -0.60410064611E+03  0.61648899369E+03  0.77000000000E+02 0.  0.
<mgrwt>
<rscale>  0 0.25989291E+03</rscale>
<asrwt>0</asrwt>
<pdfrwt beam="1">  1        2 0.13176890E+00 0.25989291E+03</pdfrwt>
<pdfrwt beam="2">  1       -2 0.26152902E-02 0.25989291E+03</pdfrwt>
<totfact> 0.16761942E+04</totfact>
</mgrwt>
</event>
<event>
 4    1  0.1308644E-003  0.1883795E+03  0.7818608E-02  0.1159931E+00
          2   -1    0    0  501    0  0.00000000000E+00  0.00000000000E+00  0.42994155127E+03  0.42994155128E+03  0.25500000000E-02 0.  1.
         -2   -1    0    0    0  501 -0.00000000000E+00 -0.00000000000E+00 -0.20634691458E+02  0.20634691616E+02  0.25500000000E-02 0. -1.
    5000001    1    1    2    0    0 -0.46482685994E+02 -0.12878882748E+02  0.14527927995E+03  0.17135219549E+03  0.77000000000E+02 0.  0.
   -5000001    1    1    2    0    0  0.46482685994E+02  0.12878882748E+02  0.26402757987E+03  0.27922404740E+03  0.77000000000E+02 0.  0.
<mgrwt>
<rscale>  0 0.18837952E+03</rscale>
<asrwt>0</asrwt>
<pdfrwt beam="1">  1        2 0.61420224E-01 0.18837952E+03</pdfrwt>
<pdfrwt beam="2">  1       -2 0.29478130E-02 0.18837952E+03</pdfrwt>
<totfact> 0.33393051E+04</totfact>
</mgrwt>
</event>
<event>
 4    1  0.1308644E-003  0.3402941E+03  0.7818608E-02  0.1066671E+00
         -2   -1    0    0    0  501 -0.00000000000E+00  0.00000000000E+00  0.11793582965E+02  0.11793583240E+02  0.25500000000E-02 0. -1.
          2   -1    0    0  501    0  0.00000000000E+00 -0.00000000000E+00 -0.24547260996E+04  0.24547260996E+04  0.25500000000E-02 0.  1.
    5000001    1    1    2    0    0 -0.32056997822E+02 -0.17542376985E+02 -0.15409327208E+03  0.17609407316E+03  0.77000000000E+02 0.  0.
   -5000001    1    1    2    0    0  0.32056997822E+02  0.17542376985E+02 -0.22888392446E+04  0.22904256097E+04  0.77000000000E+02 0.  0.
<mgrwt>
<rscale>  0 0.34029409E+03</rscale>
<asrwt>0</asrwt>
<pdfrwt beam="1">  1        2 0.35067483E+00 0.34029409E+03</pdfrwt>
<pdfrwt beam="2">  1       -2 0.16847992E-02 0.34029409E+03</pdfrwt>
<totfact> 0.52496611E+03</totfact>
</mgrwt>
</event>
<event>
 4    1  0.1308644E-003  0.2076820E+03  0.7818608E-02  0.1143415E+00
          2   -1    0    0  501    0  0.00000000000E+00  0.00000000000E+00  0.56274324706E+03  0.56274324706E+03  0.25500000000E-02 0.  1.
         -2   -1    0    0    0  501 -0.00000000000E+00 -0.00000000000E+00 -0.19161411053E+02  0.19161411222E+02  0.25500000000E-02 0. -1.
    5000001    1    1    2    0    0  0.65338794217E+02  0.16625474683E+01  0.20419404376E+03  0.22780722026E+03  0.77000000000E+02 0.  0.
   -5000001    1    1    2    0    0 -0.65338794217E+02 -0.16625474683E+01  0.33938779225E+03  0.35409743803E+03  0.77000000000E+02 0.  0.
<mgrwt>
<rscale>  0 0.20768201E+03</rscale>
<asrwt>0</asrwt>
<pdfrwt beam="1">  1        2 0.80391887E-01 0.20768201E+03</pdfrwt>
<pdfrwt beam="2">  1       -2 0.27373446E-02 0.20768201E+03</pdfrwt>
<totfact> 0.27951680E+04</totfact>
</mgrwt>
</event>
<event>
 4    1  0.1308644E-003  0.2848075E+03  0.7818608E-02  0.1093092E+00
         -2   -1    0    0    0  501 -0.00000000000E+00  0.00000000000E+00  0.27683222733E+02  0.27683222850E+02  0.25500000000E-02 0.  1.
          2   -1    0    0  501    0  0.00000000000E+00 -0.00000000000E+00 -0.73253124350E+03  0.73253124350E+03  0.25500000000E-02 0. -1.
    5000001    1    1    2    0    0 -0.68073928483E+02  0.64203132540E+02 -0.15278967551E+03  0.19501227374E+03  0.77000000000E+02 0.  0.
   -5000001    1    1    2    0    0  0.68073928483E+02 -0.64203132540E+02 -0.55205834526E+03  0.56520219262E+03  0.77000000000E+02 0.  0.
<mgrwt>
<rscale>  0 0.28480748E+03</rscale>
<asrwt>0</asrwt>
<pdfrwt beam="1">  1        2 0.10464731E+00 0.28480748E+03</pdfrwt>
<pdfrwt beam="2">  1       -2 0.39547466E-02 0.28480748E+03</pdfrwt>
<totfact> 0.12116173E+04</totfact>
</mgrwt>
</event>
<event>
 4    1  0.1308644E-003  0.3438978E+03  0.7818608E-02  0.1065148E+00
          2   -1    0    0  501    0  0.00000000000E+00  0.00000000000E+00  0.86259548211E+03  0.86259548211E+03  0.25500000000E-02 0.  1.
         -2   -1    0    0    0  501 -0.00000000000E+00 -0.00000000000E+00 -0.34276120722E+02  0.34276120817E+02  0.25500000000E-02 0. -1.
    5000001    1    1    2    0    0 -0.96701265489E+02  0.11199486997E+03  0.52305382281E+03  0.54900663676E+03  0.77000000000E+02 0.  0.
   -5000001    1    1    2    0    0  0.96701265489E+02 -0.11199486997E+03  0.30526553857E+03  0.34786496617E+03  0.77000000000E+02 0.  0.
<mgrwt>
<rscale>  0 0.34389782E+03</rscale>
<asrwt>0</asrwt>
<pdfrwt beam="1">  1        2 0.12322792E+00 0.34389782E+03</pdfrwt>
<pdfrwt beam="2">  1       -2 0.48965889E-02 0.34389782E+03</pdfrwt>
<totfact> 0.71949638E+03</totfact>
</mgrwt>
</event>
<event>
 4    1  0.1308644E-003  0.2070142E+03  0.7818608E-02  0.1143952E+00
         -2   -1    0    0    0  501 -0.00000000000E+00  0.00000000000E+00  0.46075731510E+02  0.46075731580E+02  0.25500000000E-02 0. -1.
          2   -1    0    0  501    0  0.00000000000E+00 -0.00000000000E+00 -0.23252416593E+03  0.23252416595E+03  0.25500000000E-02 0.  1.
    5000001    1    1    2    0    0  0.62865073668E+02  0.10578381523E+02 -0.57092500003E+02  0.11511938672E+03  0.77000000000E+02 0.  0.
   -5000001    1    1    2    0    0 -0.62865073668E+02 -0.10578381523E+02 -0.12935593442E+03  0.16348051080E+03  0.77000000000E+02 0.  0.
<mgrwt>
<rscale>  0 0.20701421E+03</rscale>
<asrwt>0</asrwt>
<pdfrwt beam="1">  1        2 0.33217737E-01 0.20701421E+03</pdfrwt>
<pdfrwt beam="2">  1       -2 0.65822475E-02 0.20701421E+03</pdfrwt>
<totfact> 0.19439093E+04</totfact>
</mgrwt>
</event>
<event>
 4    1  0.1308644E-003  0.2573215E+03  0.7818608E-02  0.1108763E+00
         -2   -1    0    0    0  501 -0.00000000000E+00  0.00000000000E+00  0.91663254328E+02  0.91663254364E+02  0.25500000000E-02 0. -1.
          2   -1    0    0  501    0  0.00000000000E+00 -0.00000000000E+00 -0.18059129304E+03  0.18059129305E+03  0.25500000000E-02 0.  1.
    5000001    1    1    2    0    0 -0.40372035748E+02 -0.94657919612E+02 -0.50684191440E+02  0.13815900361E+03  0.77000000000E+02 0.  0.
   -5000001    1    1    2    0    0  0.40372035748E+02  0.94657919612E+02 -0.38243847267E+02  0.13409554381E+03  0.77000000000E+02 0.  0.
<mgrwt>
<rscale>  0 0.25732148E+03</rscale>
<asrwt>0</asrwt>
<pdfrwt beam="1">  1        2 0.25798756E-01 0.25732148E+03</pdfrwt>
<pdfrwt beam="2">  1       -2 0.13094751E-01 0.25732148E+03</pdfrwt>
<totfact> 0.87807440E+03</totfact>
</mgrwt>
</event>
<event>
 4    1  0.1308644E-003  0.2735222E+03  0.7818608E-02  0.1099281E+00
         -2   -1    0    0    0  501 -0.00000000000E+00  0.00000000000E+00  0.47929560739E+02  0.47929560807E+02  0.25500000000E-02 0. -1.
          2   -1    0    0  501    0  0.00000000000E+00 -0.00000000000E+00 -0.39023088752E+03  0.39023088753E+03  0.25500000000E-02 0.  1.
    5000001    1    1    2    0    0 -0.91684021902E+02  0.23292014107E+02 -0.72062958665E+02  0.14167056083E+03  0.77000000000E+02 0.  0.
   -5000001    1    1    2    0    0  0.91684021902E+02 -0.23292014107E+02 -0.27023836811E+03  0.29648988751E+03  0.77000000000E+02 0.  0.
<mgrwt>
<rscale>  0 0.27352217E+03</rscale>
<asrwt>0</asrwt>
<pdfrwt beam="1">  1        2 0.55747267E-01 0.27352217E+03</pdfrwt>
<pdfrwt beam="2">  1       -2 0.68470804E-02 0.27352217E+03</pdfrwt>
<totfact> 0.10648376E+04</totfact>
</mgrwt>
</event>
<event>
 4    1  0.1308644E-003  0.2958164E+03  0.7818608E-02  0.1087351E+00
          2   -1    0    0  501    0  0.00000000000E+00  0.00000000000E+00  0.26394407131E+03  0.26394407133E+03  0.25500000000E-02 0.  1.
         -2   -1    0    0    0  501 -0.00000000000E+00 -0.00000000000E+00 -0.82884364008E+02  0.82884364047E+02  0.25500000000E-02 0. -1.
    5000001    1    1    2    0    0 -0.12672739497E+02 -0.11852527929E+03  0.13942230069E+03  0.19893822681E+03  0.77000000000E+02 0.  0.
   -5000001    1    1    2    0    0  0.12672739497E+02  0.11852527929E+03  0.41637406614E+02  0.14789020856E+03  0.77000000000E+02 0.  0.
<mgrwt>
<rscale>  0 0.29581641E+03</rscale>
<asrwt>0</asrwt>
<pdfrwt beam="1">  1        2 0.37706297E-01 0.29581641E+03</pdfrwt>
<pdfrwt beam="2">  1       -2 0.11840623E-01 0.29581641E+03</pdfrwt>
<totfact> 0.68593011E+03</totfact>
</mgrwt>
</event>
<event>
 4    1  0.1308644E-003  0.2160749E+03  0.7818608E-02  0.1136844E+00
         -2   -1    0    0    0  501 -0.00000000000E+00  0.00000000000E+00  0.54315519771E+02  0.54315519831E+02  0.25500000000E-02 0. -1.
          2   -1    0    0  501    0  0.00000000000E+00 -0.00000000000E+00 -0.21489421510E+03  0.21489421512E+03  0.25500000000E-02 0.  1.
    5000001    1    1    2    0    0 -0.33291895866E+02  0.66720610263E+02 -0.63430356049E+02  0.12454878656E+03  0.77000000000E+02 0.  0.
   -5000001    1    1    2    0    0  0.33291895866E+02 -0.66720610263E+02 -0.97148339282E+02  0.14466094839E+03  0.77000000000E+02 0.  0.
<mgrwt>
<rscale>  0 0.21607490E+03</rscale>
<asrwt>0</asrwt>
<pdfrwt beam="1">  1        2 0.30699173E-01 0.21607490E+03</pdfrwt>
<pdfrwt beam="2">  1       -2 0.77593601E-02 0.21607490E+03</pdfrwt>
<totfact> 0.16476672E+04</totfact>
</mgrwt>
</event>
<event>
 4    1  0.1308644E-003  0.6857066E+03  0.7818608E-02  0.9741993E-01
         -2   -1    0    0    0  501 -0.00000000000E+00  0.00000000000E+00  0.19962871441E+03  0.19962871443E+03  0.25500000000E-02 0. -1.
          2   -1    0    0  501    0  0.00000000000E+00 -0.00000000000E+00 -0.58883497783E+03  0.58883497784E+03  0.25500000000E-02 0.  1.
    5000001    1    1    2    0    0 -0.14743734313E+03  0.22210469533E+03  0.36946843527E+02  0.27993273314E+03  0.77000000000E+02 0.  0.
   -5000001    1    1    2    0    0  0.14743734313E+03 -0.22210469533E+03 -0.42615310695E+03  0.50853095913E+03  0.77000000000E+02 0.  0.
<mgrwt>
<rscale>  0 0.68570655E+03</rscale>
<asrwt>0</asrwt>
<pdfrwt beam="1">  1        2 0.84119282E-01 0.68570655E+03</pdfrwt>
<pdfrwt beam="2">  1       -2 0.28518388E-01 0.68570655E+03</pdfrwt>
<totfact> 0.62750463E+02</totfact>
</mgrwt>
</event>
<event>
 4    1  0.1308644E-003  0.2094798E+03  0.7818608E-02  0.1141979E+00
         -2   -1    0    0    0  501 -0.00000000000E+00  0.00000000000E+00  0.78024950419E+02  0.78024950460E+02  0.25500000000E-02 0. -1.
          2   -1    0    0  501    0  0.00000000000E+00 -0.00000000000E+00 -0.14060182021E+03  0.14060182023E+03  0.25500000000E-02 0.  1.
    5000001    1    1    2    0    0  0.62982516050E+02 -0.32296400874E+02 -0.25422032945E+02  0.10763426312E+03  0.77000000000E+02 0.  0.
   -5000001    1    1    2    0    0 -0.62982516050E+02  0.32296400874E+02 -0.37154836847E+02  0.11099250758E+03  0.77000000000E+02 0.  0.
<mgrwt>
<rscale>  0 0.20947983E+03</rscale>
<asrwt>0</asrwt>
<pdfrwt beam="1">  1        2 0.20085974E-01 0.20947983E+03</pdfrwt>
<pdfrwt beam="2">  1       -2 0.11146422E-01 0.20947983E+03</pdfrwt>
<totfact> 0.14910364E+04</totfact>
</mgrwt>
</event>
<event>
 4    1  0.1308644E-003  0.2886138E+03  0.7818608E-02  0.1091075E+00
          2   -1    0    0  501    0  0.00000000000E+00  0.00000000000E+00  0.94645939336E+02  0.94645939371E+02  0.25500000000E-02 0.  1.
         -2   -1    0    0    0  501 -0.00000000000E+00 -0.00000000000E+00 -0.22002503068E+03  0.22002503069E+03  0.25500000000E-02 0. -1.
    5000001    1    1    2    0    0 -0.11850809806E+03  0.28341949227E+02 -0.70246427005E+02  0.16034648701E+03  0.77000000000E+02 0.  0.
   -5000001    1    1    2    0    0  0.11850809806E+03 -0.28341949227E+02 -0.55132664334E+02  0.15432448305E+03  0.77000000000E+02 0.  0.
<mgrwt>
<rscale>  0 0.28861376E+03</rscale>
<asrwt>0</asrwt>
<pdfrwt beam="1">  1        2 0.13520849E-01 0.28861376E+03</pdfrwt>
<pdfrwt beam="2">  1       -2 0.31432147E-01 0.28861376E+03</pdfrwt>
<totfact> 0.41314406E+03</totfact>
</mgrwt>
</event>
<event>
 4    1  0.1308644E-003  0.2775397E+03  0.7818608E-02  0.1097040E+00
         -2   -1    0    0    0  501 -0.00000000000E+00  0.00000000000E+00  0.75902337628E+02  0.75902337671E+02  0.25500000000E-02 0. -1.
          2   -1    0    0  501    0  0.00000000000E+00 -0.00000000000E+00 -0.25370857347E+03  0.25370857348E+03  0.25500000000E-02 0.  1.
    5000001    1    1    2    0    0  0.46651284637E+02 -0.93734110570E+02 -0.14666635131E+03  0.19596541646E+03  0.77000000000E+02 0.  0.
   -5000001    1    1    2    0    0 -0.46651284637E+02  0.93734110570E+02 -0.31139884532E+02  0.13364549469E+03  0.77000000000E+02 0.  0.
<mgrwt>
<rscale>  0 0.27753972E+03</rscale>
<asrwt>0</asrwt>
<pdfrwt beam="1">  1        2 0.36244082E-01 0.27753972E+03</pdfrwt>
<pdfrwt beam="2">  1       -2 0.10843191E-01 0.27753972E+03</pdfrwt>
<totfact> 0.82284190E+03</totfact>
</mgrwt>
</event>
<event>
 4    1  0.1308644E-003  0.2162144E+03  0.7818608E-02  0.1136737E+00
         -2   -1    0    0    0  501 -0.00000000000E+00  0.00000000000E+00  0.47020629712E+02  0.47020629781E+02  0.25500000000E-02 0. -1.
          2   -1    0    0  501    0  0.00000000000E+00 -0.00000000000E+00 -0.24855407289E+03  0.24855407291E+03  0.25500000000E-02 0.  1.
    5000001    1    1    2    0    0  0.13831376653E+02 -0.70806392909E+02 -0.13292327717E+03  0.16971284533E+03  0.77000000000E+02 0.  0.
   -5000001    1    1    2    0    0 -0.13831376653E+02  0.70806392909E+02 -0.68610166006E+02  0.12586185735E+03  0.77000000000E+02 0.  0.
<mgrwt>
<rscale>  0 0.21621442E+03</rscale>
<asrwt>0</asrwt>
<pdfrwt beam="1">  1        2 0.35507724E-01 0.21621442E+03</pdfrwt>
<pdfrwt beam="2">  1       -2 0.67172330E-02 0.21621442E+03</pdfrwt>
<totfact> 0.17584384E+04</totfact>
</mgrwt>
</event>
<event>
 4    1  0.1308644E-003  0.5354722E+03  0.7818608E-02  0.1004914E+00
         -2   -1    0    0    0  501 -0.00000000000E+00  0.00000000000E+00  0.20834544542E+03  0.20834544543E+03  0.25500000000E-02 0.  1.
          2   -1    0    0  501    0  0.00000000000E+00 -0.00000000000E+00 -0.34405660824E+03  0.34405660825E+03  0.25500000000E-02 0. -1.
    5000001    1    1    2    0    0 -0.25464960263E+03  0.16666183684E+02 -0.41973607314E+02  0.26984248277E+03  0.77000000000E+02 0.  0.
   -5000001    1    1    2    0    0  0.25464960263E+03 -0.16666183684E+02 -0.93737555506E+02  0.28255957091E+03  0.77000000000E+02 0.  0.
<mgrwt>
<rscale>  0 0.53547223E+03</rscale>
<asrwt>0</asrwt>
<pdfrwt beam="1">  1        2 0.49150944E-01 0.53547223E+03</pdfrwt>
<pdfrwt beam="2">  1       -2 0.29763635E-01 0.53547223E+03</pdfrwt>
<totfact> 0.10660066E+03</totfact>
</mgrwt>
</event>
<event>
 4    1  0.1308644E-003  0.2915554E+03  0.7818608E-02  0.1089540E+00
         -2   -1    0    0    0  501 -0.00000000000E+00  0.00000000000E+00  0.17408062192E+04  0.17408062192E+04  0.25500000000E-02 0. -1.
          2   -1    0    0  501    0  0.00000000000E+00 -0.00000000000E+00 -0.12207643817E+02  0.12207644083E+02  0.25500000000E-02 0.  1.
    5000001    1    1    2    0    0  0.10004783806E+03  0.51706023165E+02  0.55541997149E+03  0.57192956512E+03  0.77000000000E+02 0.  0.
   -5000001    1    1    2    0    0 -0.10004783806E+03 -0.51706023165E+02  0.11731786039E+04  0.11810842981E+04  0.77000000000E+02 0.  0.
<mgrwt>
<rscale>  0 0.29155543E+03</rscale>
<asrwt>0</asrwt>
<pdfrwt beam="1">  1        2 0.17439493E-02 0.29155543E+03</pdfrwt>
<pdfrwt beam="2">  1       -2 0.24868658E+00 0.29155543E+03</pdfrwt>
<totfact> 0.48425778E+02</totfact>
</mgrwt>
</event>
<event>
 4    1  0.1308644E-003  0.1888085E+03  0.7818608E-02  0.1159540E+00
         -2   -1    0    0    0  501 -0.00000000000E+00  0.00000000000E+00  0.12440236813E+02  0.12440237074E+02  0.25500000000E-02 0.  1.
          2   -1    0    0  501    0  0.00000000000E+00 -0.00000000000E+00 -0.71639779370E+03  0.71639779371E+03  0.25500000000E-02 0. -1.
    5000001    1    1    2    0    0  0.47803891723E+02  0.26441788196E+01 -0.25050955722E+03  0.26641366708E+03  0.77000000000E+02 0.  0.
   -5000001    1    1    2    0    0 -0.47803891723E+02 -0.26441788196E+01 -0.45344799967E+03  0.46242436371E+03  0.77000000000E+02 0.  0.
<mgrwt>
<rscale>  0 0.18880846E+03</rscale>
<asrwt>0</asrwt>
<pdfrwt beam="1">  1        2 0.10234252E+00 0.18880846E+03</pdfrwt>
<pdfrwt beam="2">  1       -2 0.17771772E-02 0.18880846E+03</pdfrwt>
<totfact> 0.39612586E+04</totfact>
</mgrwt>
</event>
<event>
 4    1  0.1308644E-003  0.1596103E+03  0.7818608E-02  0.1189137E+00
          2   -1    0    0  501    0  0.00000000000E+00  0.00000000000E+00  0.80824899641E+02  0.80824899681E+02  0.25500000000E-02 0.  1.
         -2   -1    0    0    0  501 -0.00000000000E+00 -0.00000000000E+00 -0.78798229658E+02  0.78798229699E+02  0.25500000000E-02 0. -1.
    5000001    1    1    2    0    0  0.57838862219E+00  0.20585889556E+02  0.49817310058E+01  0.79861949801E+02  0.77000000000E+02 0.  0.
   -5000001    1    1    2    0    0 -0.57838862219E+00 -0.20585889556E+02 -0.29550610231E+01  0.79761179579E+02  0.77000000000E+02 0.  0.
<mgrwt>
<rscale>  0 0.15961026E+03</rscale>
<asrwt>0</asrwt>
<pdfrwt beam="1">  1        2 0.11546414E-01 0.15961026E+03</pdfrwt>
<pdfrwt beam="2">  1       -2 0.11256890E-01 0.15961026E+03</pdfrwt>
<totfact> 0.27502790E+04</totfact>
</mgrwt>
</event>
<event>
 4    1  0.1308644E-003  0.2689038E+03  0.7818608E-02  0.1101909E+00
         -2   -1    0    0    0  501 -0.00000000000E+00  0.00000000000E+00  0.11987781079E+02  0.11987781350E+02  0.25500000000E-02 0. -1.
          2   -1    0    0  501    0  0.00000000000E+00 -0.00000000000E+00 -0.15079785060E+04  0.15079785060E+04  0.25500000000E-02 0.  1.
    5000001    1    1    2    0    0  0.36934458126E+02  0.61988865705E+02 -0.27705601138E+03  0.29647227039E+03  0.77000000000E+02 0.  0.
   -5000001    1    1    2    0    0 -0.36934458126E+02 -0.61988865705E+02 -0.12189347136E+04  0.12234940170E+04  0.77000000000E+02 0.  0.
<mgrwt>
<rscale>  0 0.26890382E+03</rscale>
<asrwt>0</asrwt>
<pdfrwt beam="1">  1        2 0.21542538E+00 0.26890382E+03</pdfrwt>
<pdfrwt beam="2">  1       -2 0.17125411E-02 0.26890382E+03</pdfrwt>
<totfact> 0.14994089E+04</totfact>
</mgrwt>
</event>
<event>
 4    1  0.1308644E-003  0.2121747E+03  0.7818608E-02  0.1139855E+00
         -2   -1    0    0    0  501 -0.00000000000E+00  0.00000000000E+00  0.54355867822E+01  0.54355873804E+01  0.25500000000E-02 0. -1.
          2   -1    0    0  501    0  0.00000000000E+00 -0.00000000000E+00 -0.20705267925E+04  0.20705267925E+04  0.25500000000E-02 0.  1.
    5000001    1    1    2    0    0  0.33654795560E+02 -0.55863083029E+02 -0.71216692658E+03  0.71928023790E+03  0.77000000000E+02 0.  0.
   -5000001    1    1    2    0    0 -0.33654795560E+02  0.55863083029E+02 -0.13529242791E+04  0.13566821420E+04  0.77000000000E+02 0.  0.
<mgrwt>
<rscale>  0 0.21217473E+03</rscale>
<asrwt>0</asrwt>
<pdfrwt beam="1">  1        2 0.29578904E+00 0.21217473E+03</pdfrwt>
<pdfrwt beam="2">  1       -2 0.77651376E-03 0.21217473E+03</pdfrwt>
<totfact> 0.24844917E+04</totfact>
</mgrwt>
</event>
<event>
 4    1  0.1308644E-003  0.4319994E+03  0.7818608E-02  0.1033230E+00
          2   -1    0    0  501    0  0.00000000000E+00  0.00000000000E+00  0.13150734548E+03  0.13150734550E+03  0.25500000000E-02 0.  1.
         -2   -1    0    0    0  501 -0.00000000000E+00 -0.00000000000E+00 -0.35477760349E+03  0.35477760350E+03  0.25500000000E-02 0. -1.
    5000001    1    1    2    0    0 -0.71491492767E+02 -0.18534553714E+03 -0.15163745044E+03  0.26150892538E+03  0.77000000000E+02 0.  0.
   -5000001    1    1    2    0    0  0.71491492767E+02  0.18534553714E+03 -0.71632807566E+02  0.22477602362E+03  0.77000000000E+02 0.  0.
<mgrwt>
<rscale>  0 0.43199936E+03</rscale>
<asrwt>0</asrwt>
<pdfrwt beam="1">  1        2 0.18786764E-01 0.43199936E+03</pdfrwt>
<pdfrwt beam="2">  1       -2 0.50682514E-01 0.43199936E+03</pdfrwt>
<totfact> 0.11254942E+03</totfact>
</mgrwt>
</event>
<event>
 4    1  0.1308644E-003  0.3754981E+03  0.7818608E-02  0.1052610E+00
          2   -1    0    0  501    0  0.00000000000E+00  0.00000000000E+00  0.21239058641E+04  0.21239058641E+04  0.25500000000E-02 0.  1.
         -2   -1    0    0    0  501 -0.00000000000E+00 -0.00000000000E+00 -0.16596639772E+02  0.16596639968E+02  0.25500000000E-02 0. -1.
    5000001    1    1    2    0    0  0.14809931971E+02  0.11719686789E+03  0.17602847035E+04  0.17659234630E+04  0.77000000000E+02 0.  0.
   -5000001    1    1    2    0    0 -0.14809931971E+02 -0.11719686789E+03  0.34702452089E+03  0.37457904109E+03  0.77000000000E+02 0.  0.
<mgrwt>
<rscale>  0 0.37549807E+03</rscale>
<asrwt>0</asrwt>
<pdfrwt beam="1">  1        2 0.30341505E+00 0.37549807E+03</pdfrwt>
<pdfrwt beam="2">  1       -2 0.23709492E-02 0.37549807E+03</pdfrwt>
<totfact> 0.46151194E+03</totfact>
</mgrwt>
</event>
<event>
 4    1  0.1308644E-003  0.2126860E+03  0.7818608E-02  0.1139456E+00
          2   -1    0    0  501    0  0.00000000000E+00  0.00000000000E+00  0.22194206508E+04  0.22194206508E+04  0.25500000000E-02 0.  1.
         -2   -1    0    0    0  501 -0.00000000000E+00 -0.00000000000E+00 -0.50953974942E+01  0.50953981323E+01  0.25500000000E-02 0. -1.
    5000001    1    1    2    0    0  0.58439085456E+02 -0.39594145125E+02  0.89876327173E+03  0.90481337393E+03  0.77000000000E+02 0.  0.
   -5000001    1    1    2    0    0 -0.58439085456E+02  0.39594145125E+02  0.13155619816E+04  0.13197026750E+04  0.77000000000E+02 0.  0.
<mgrwt>
<rscale>  0 0.21268598E+03</rscale>
<asrwt>0</asrwt>
<pdfrwt beam="1">  1        2 0.31706117E+00 0.21268598E+03</pdfrwt>
<pdfrwt beam="2">  1       -2 0.72791150E-03 0.21268598E+03</pdfrwt>
<totfact> 0.23098401E+04</totfact>
</mgrwt>
</event>
<event>
 4    1  0.1308644E-003  0.1945627E+03  0.7818608E-02  0.1154409E+00
          2   -1    0    0  501    0  0.00000000000E+00  0.00000000000E+00  0.31820734213E+04  0.31820734214E+04  0.25500000000E-02 0.  1.
         -2   -1    0    0    0  501 -0.00000000000E+00 -0.00000000000E+00 -0.29740553529E+01  0.29740564461E+01  0.25500000000E-02 0. -1.
    5000001    1    1    2    0    0 -0.12368281700E+02  0.57457120593E+02  0.14427919814E+04  0.14460401090E+04  0.77000000000E+02 0.  0.
   -5000001    1    1    2    0    0  0.12368281700E+02 -0.57457120593E+02  0.17363073846E+04  0.17390073688E+04  0.77000000000E+02 0.  0.
<mgrwt>
<rscale>  0 0.19456273E+03</rscale>
<asrwt>0</asrwt>
<pdfrwt beam="1">  1        2 0.45458302E+00 0.19456273E+03</pdfrwt>
<pdfrwt beam="2">  1       -2 0.42486410E-03 0.19456273E+03</pdfrwt>
<totfact> 0.16188534E+04</totfact>
</mgrwt>
</event>
<event>
 4    1  0.1308644E-003  0.7491461E+03  0.7818608E-02  0.9636691E-01
          2   -1    0    0  501    0  0.00000000000E+00  0.00000000000E+00  0.12317902352E+04  0.12317902352E+04  0.25500000000E-02 0.  1.
         -2   -1    0    0    0  501 -0.00000000000E+00 -0.00000000000E+00 -0.11390331153E+03  0.11390331156E+03  0.25500000000E-02 0. -1.
    5000001    1    1    2    0    0  0.11149386729E+03  0.26290053820E+03  0.97181352744E+03  0.10158238566E+04  0.77000000000E+02 0.  0.
   -5000001    1    1    2    0    0 -0.11149386729E+03 -0.26290053820E+03  0.14607339623E+03  0.32986969021E+03  0.77000000000E+02 0.  0.
<mgrwt>
<rscale>  0 0.74914615E+03</rscale>
<asrwt>0</asrwt>
<pdfrwt beam="1">  1        2 0.17597003E+00 0.74914615E+03</pdfrwt>
<pdfrwt beam="2">  1       -2 0.16271902E-01 0.74914615E+03</pdfrwt>
<totfact> 0.62885666E+02</totfact>
</mgrwt>
</event>
<event>
 4    1  0.1308644E-003  0.2555358E+03  0.7818608E-02  0.1109855E+00
         -2   -1    0    0    0  501 -0.00000000000E+00  0.00000000000E+00  0.35936213070E+02  0.35936213160E+02  0.25500000000E-02 0. -1.
          2   -1    0    0  501    0  0.00000000000E+00 -0.00000000000E+00 -0.45426708092E+03  0.45426708093E+03  0.25500000000E-02 0.  1.
    5000001    1    1    2    0    0  0.97098919878E+02  0.22546195671E+02 -0.16806166804E+03  0.21002441631E+03  0.77000000000E+02 0.  0.
   -5000001    1    1    2    0    0 -0.97098919878E+02 -0.22546195671E+02 -0.25026919981E+03  0.28017887778E+03  0.77000000000E+02 0.  0.
<mgrwt>
<rscale>  0 0.25553582E+03</rscale>
<asrwt>0</asrwt>
<pdfrwt beam="1">  1        2 0.64895294E-01 0.25553582E+03</pdfrwt>
<pdfrwt beam="2">  1       -2 0.51337450E-02 0.25553582E+03</pdfrwt>
<totfact> 0.13994781E+04</totfact>
</mgrwt>
</event>
<event>
 4    1  0.1308644E-003  0.3328366E+03  0.7818608E-02  0.1069889E+00
         -2   -1    0    0    0  501 -0.00000000000E+00  0.00000000000E+00  0.18461374098E+02  0.18461374274E+02  0.25500000000E-02 0. -1.
          2   -1    0    0  501    0  0.00000000000E+00 -0.00000000000E+00 -0.15001614926E+04  0.15001614926E+04  0.25500000000E-02 0.  1.
    5000001    1    1    2    0    0 -0.10759414027E+03 -0.49624342784E+02 -0.33977700638E+03  0.36798979399E+03  0.77000000000E+02 0.  0.
   -5000001    1    1    2    0    0  0.10759414027E+03  0.49624342784E+02 -0.11419231121E+04  0.11506330728E+04  0.77000000000E+02 0.  0.
<mgrwt>
<rscale>  0 0.33283655E+03</rscale>
<asrwt>0</asrwt>
<pdfrwt beam="1">  1        2 0.21430871E+00 0.33283655E+03</pdfrwt>
<pdfrwt beam="2">  1       -2 0.26373401E-02 0.33283655E+03</pdfrwt>
<totfact> 0.80342768E+03</totfact>
</mgrwt>
</event>
<event>
 4    1  0.1308644E-003  0.1961324E+03  0.7818608E-02  0.1153044E+00
          2   -1    0    0  501    0  0.00000000000E+00  0.00000000000E+00  0.10392685064E+04  0.10392685064E+04  0.25500000000E-02 0.  1.
         -2   -1    0    0    0  501 -0.00000000000E+00 -0.00000000000E+00 -0.92536024112E+01  0.92536027626E+01  0.25500000000E-02 0. -1.
    5000001    1    1    2    0    0 -0.23988676261E+02  0.45528295139E+02  0.34262963655E+03  0.35492583745E+03  0.77000000000E+02 0.  0.
   -5000001    1    1    2    0    0  0.23988676261E+02 -0.45528295139E+02  0.68738526748E+03  0.69359627176E+03  0.77000000000E+02 0.  0.
<mgrwt>
<rscale>  0 0.19613238E+03</rscale>
<asrwt>0</asrwt>
<pdfrwt beam="1">  1        2 0.14846683E+00 0.19613238E+03</pdfrwt>
<pdfrwt beam="2">  1       -2 0.13219441E-02 0.19613238E+03</pdfrwt>
<totfact> 0.38139760E+04</totfact>
</mgrwt>
</event>
<event>
 4    1  0.1308644E-003  0.3411688E+03  0.7818608E-02  0.1066299E+00
          2   -1    0    0  501    0  0.00000000000E+00  0.00000000000E+00  0.36587468405E+03  0.36587468406E+03  0.25500000000E-02 0.  1.
         -2   -1    0    0    0  501 -0.00000000000E+00 -0.00000000000E+00 -0.79532788317E+02  0.79532788357E+02  0.25500000000E-02 0. -1.
    5000001    1    1    2    0    0  0.11422680347E+02  0.14723153556E+03  0.19135967953E+03  0.25368312841E+03  0.77000000000E+02 0.  0.
   -5000001    1    1    2    0    0 -0.11422680347E+02 -0.14723153556E+03  0.94982216200E+02  0.19172434400E+03  0.77000000000E+02 0.  0.
<mgrwt>
<rscale>  0 0.34116878E+03</rscale>
<asrwt>0</asrwt>
<pdfrwt beam="1">  1        2 0.52267811E-01 0.34116878E+03</pdfrwt>
<pdfrwt beam="2">  1       -2 0.11361827E-01 0.34116878E+03</pdfrwt>
<totfact> 0.51728196E+03</totfact>
</mgrwt>
</event>
<event>
 4    1  0.1308644E-003  0.3117045E+03  0.7818608E-02  0.1079532E+00
         -2   -1    0    0    0  501 -0.00000000000E+00  0.00000000000E+00  0.87962586382E+01  0.87962590078E+01  0.25500000000E-02 0. -1.
          2   -1    0    0  501    0  0.00000000000E+00 -0.00000000000E+00 -0.27613934218E+04  0.27613934218E+04  0.25500000000E-02 0.  1.
    5000001    1    1    2    0    0  0.12972011077E+03 -0.38807076946E+02 -0.14230177686E+04  0.14315173300E+04  0.77000000000E+02 0.  0.
   -5000001    1    1    2    0    0 -0.12972011077E+03  0.38807076946E+02 -0.13295793945E+04  0.13386723507E+04  0.77000000000E+02 0.  0.
<mgrwt>
<rscale>  0 0.31170455E+03</rscale>
<asrwt>0</asrwt>
<pdfrwt beam="1">  1        2 0.39448422E+00 0.31170455E+03</pdfrwt>
<pdfrwt beam="2">  1       -2 0.12566102E-02 0.31170455E+03</pdfrwt>
<totfact> 0.56473811E+03</totfact>
</mgrwt>
</event>
<event>
 4    1  0.1308644E-003  0.3004708E+03  0.7818608E-02  0.1085006E+00
          2   -1    0    0  501    0  0.00000000000E+00  0.00000000000E+00  0.45101243304E+03  0.45101243305E+03  0.25500000000E-02 0.  1.
         -2   -1    0    0    0  501 -0.00000000000E+00 -0.00000000000E+00 -0.50044449418E+02  0.50044449483E+02  0.25500000000E-02 0. -1.
    5000001    1    1    2    0    0  0.42427368287E+02  0.12182276787E+03  0.20197603644E+03  0.25172244169E+03  0.77000000000E+02 0.  0.
   -5000001    1    1    2    0    0 -0.42427368287E+02 -0.12182276787E+03  0.19899194718E+03  0.24933444085E+03  0.77000000000E+02 0.  0.
<mgrwt>
<rscale>  0 0.30047076E+03</rscale>
<asrwt>0</asrwt>
<pdfrwt beam="1">  1        2 0.64430346E-01 0.30047076E+03</pdfrwt>
<pdfrwt beam="2">  1       -2 0.71492072E-02 0.30047076E+03</pdfrwt>
<totfact> 0.85405081E+03</totfact>
</mgrwt>
</event>
<event>
 4    1  0.1308644E-003  0.2543923E+03  0.7818608E-02  0.1110560E+00
         -2   -1    0    0    0  501 -0.00000000000E+00  0.00000000000E+00  0.16395590106E+02  0.16395590305E+02  0.25500000000E-02 0. -1.
          2   -1    0    0  501    0  0.00000000000E+00 -0.00000000000E+00 -0.98678121495E+03  0.98678121496E+03  0.25500000000E-02 0.  1.
    5000001    1    1    2    0    0 -0.82860373869E+02  0.57884695082E+02 -0.46240918726E+03  0.47954951355E+03  0.77000000000E+02 0.  0.
   -5000001    1    1    2    0    0  0.82860373869E+02 -0.57884695082E+02 -0.50797643758E+03  0.52362729171E+03  0.77000000000E+02 0.  0.
<mgrwt>
<rscale>  0 0.25439230E+03</rscale>
<asrwt>0</asrwt>
<pdfrwt beam="1">  1        2 0.14096871E+00 0.25439230E+03</pdfrwt>
<pdfrwt beam="2">  1       -2 0.23422278E-02 0.25439230E+03</pdfrwt>
<totfact> 0.18020767E+04</totfact>
</mgrwt>
</event>
<event>
 4    1  0.1308644E-003  0.2634497E+03  0.7818608E-02  0.1105088E+00
          2   -1    0    0  501    0  0.00000000000E+00  0.00000000000E+00  0.11833348978E+04  0.11833348978E+04  0.25500000000E-02 0.  1.
         -2   -1    0    0    0  501 -0.00000000000E+00 -0.00000000000E+00 -0.14663163838E+02  0.14663164060E+02  0.25500000000E-02 0. -1.
    5000001    1    1    2    0    0 -0.53464233174E+02  0.13451642103E+02  0.10006870431E+04  0.10051581612E+04  0.77000000000E+02 0.  0.
   -5000001    1    1    2    0    0  0.53464233174E+02 -0.13451642103E+02  0.16798469087E+03  0.19283990062E+03  0.77000000000E+02 0.  0.
<mgrwt>
<rscale>  0 0.26344968E+03</rscale>
<asrwt>0</asrwt>
<pdfrwt beam="1">  1        2 0.16904788E+00 0.26344968E+03</pdfrwt>
<pdfrwt beam="2">  1       -2 0.20947373E-02 0.26344968E+03</pdfrwt>
<totfact> 0.16461206E+04</totfact>
</mgrwt>
</event>
<event>
 4    1  0.1308644E-003  0.1786941E+03  0.7818608E-02  0.1169073E+00
          2   -1    0    0  501    0  0.00000000000E+00  0.00000000000E+00  0.12763502673E+04  0.12763502673E+04  0.25500000000E-02 0.  1.
         -2   -1    0    0    0  501 -0.00000000000E+00 -0.00000000000E+00 -0.62544734055E+01  0.62544739253E+01  0.25500000000E-02 0. -1.
    5000001    1    1    2    0    0  0.31258476285E+02 -0.32743204232E+02  0.65059108145E+03  0.65669396603E+03  0.77000000000E+02 0.  0.
   -5000001    1    1    2    0    0 -0.31258476285E+02  0.32743204232E+02  0.61950471245E+03  0.62591077520E+03  0.77000000000E+02 0.  0.
<mgrwt>
<rscale>  0 0.17869414E+03</rscale>
<asrwt>0</asrwt>
<pdfrwt beam="1">  1        2 0.18233596E+00 0.17869414E+03</pdfrwt>
<pdfrwt beam="2">  1       -2 0.89349522E-03 0.17869414E+03</pdfrwt>
<totfact> 0.49481104E+04</totfact>
</mgrwt>
</event>
<event>
 4    1  0.1308644E-003  0.1852697E+03  0.7818608E-02  0.1162798E+00
          2   -1    0    0  501    0  0.00000000000E+00  0.00000000000E+00  0.56746939539E+03  0.56746939540E+03  0.25500000000E-02 0.  1.
         -2   -1    0    0    0  501 -0.00000000000E+00 -0.00000000000E+00 -0.15121901455E+02  0.15121901670E+02  0.25500000000E-02 0. -1.
    5000001    1    1    2    0    0  0.27085089570E+02 -0.27505120298E+02  0.16897787172E+03  0.18966458513E+03  0.77000000000E+02 0.  0.
   -5000001    1    1    2    0    0 -0.27085089570E+02  0.27505120298E+02  0.38336962222E+03  0.39292671194E+03  0.77000000000E+02 0.  0.
<mgrwt>
<rscale>  0 0.18526971E+03</rscale>
<asrwt>0</asrwt>
<pdfrwt beam="1">  1        2 0.81067060E-01 0.18526971E+03</pdfrwt>
<pdfrwt beam="2">  1       -2 0.21602716E-02 0.18526971E+03</pdfrwt>
<totfact> 0.38856595E+04</totfact>
</mgrwt>
</event>
<event>
 4    1  0.1308644E-003  0.2278013E+03  0.7818608E-02  0.1128197E+00
         -2   -1    0    0    0  501 -0.00000000000E+00  0.00000000000E+00  0.17015295974E+02  0.17015296165E+02  0.25500000000E-02 0. -1.
          2   -1    0    0  501    0  0.00000000000E+00 -0.00000000000E+00 -0.76245298202E+03  0.76245298203E+03  0.25500000000E-02 0.  1.
    5000001    1    1    2    0    0 -0.49278220818E+02  0.66467058026E+02 -0.32455294990E+03  0.34367110752E+03  0.77000000000E+02 0.  0.
   -5000001    1    1    2    0    0  0.49278220818E+02 -0.66467058026E+02 -0.42088473614E+03  0.43579717067E+03  0.77000000000E+02 0.  0.
<mgrwt>
<rscale>  0 0.22780135E+03</rscale>
<asrwt>0</asrwt>
<pdfrwt beam="1">  1        2 0.10892183E+00 0.22780135E+03</pdfrwt>
<pdfrwt beam="2">  1       -2 0.24307571E-02 0.22780135E+03</pdfrwt>
<totfact> 0.23558143E+04</totfact>
</mgrwt>
</event>
<event>
 4    1  0.1308644E-003  0.2974361E+03  0.7818608E-02  0.1086529E+00
          2   -1    0    0  501    0  0.00000000000E+00  0.00000000000E+00  0.11410432137E+04  0.11410432137E+04  0.25500000000E-02 0.  1.
         -2   -1    0    0    0  501 -0.00000000000E+00 -0.00000000000E+00 -0.19383196020E+02  0.19383196188E+02  0.25500000000E-02 0. -1.
    5000001    1    1    2    0    0  0.76696926651E+02 -0.99202285626E+02  0.64491939772E+03  0.66149341765E+03  0.77000000000E+02 0.  0.
   -5000001    1    1    2    0    0 -0.76696926651E+02  0.99202285626E+02  0.47674061992E+03  0.49893299221E+03  0.77000000000E+02 0.  0.
<mgrwt>
<rscale>  0 0.29743614E+03</rscale>
<asrwt>0</asrwt>
<pdfrwt beam="1">  1        2 0.16300618E+00 0.29743614E+03</pdfrwt>
<pdfrwt beam="2">  1       -2 0.27690279E-02 0.29743614E+03</pdfrwt>
<totfact> 0.11541194E+04</totfact>
</mgrwt>
</event>
<event>
 4    1  0.1308644E-003  0.2260451E+03  0.7818608E-02  0.1129455E+00
          2   -1    0    0  501    0  0.00000000000E+00  0.00000000000E+00  0.11944637409E+04  0.11944637409E+04  0.25500000000E-02 0.  1.
         -2   -1    0    0    0  501 -0.00000000000E+00 -0.00000000000E+00 -0.10694416104E+02  0.10694416408E+02  0.25500000000E-02 0. -1.
    5000001    1    1    2    0    0  0.55052680869E+02 -0.39414206792E+02  0.33838257341E+03  0.35357607860E+03  0.77000000000E+02 0.  0.
   -5000001    1    1    2    0    0 -0.55052680869E+02  0.39414206792E+02  0.84538675135E+03  0.85158207868E+03  0.77000000000E+02 0.  0.
<mgrwt>
<rscale>  0 0.22604506E+03</rscale>
<asrwt>0</asrwt>
<pdfrwt beam="1">  1        2 0.17063760E+00 0.22604506E+03</pdfrwt>
<pdfrwt beam="2">  1       -2 0.15277744E-02 0.22604506E+03</pdfrwt>
<totfact> 0.25582166E+04</totfact>
</mgrwt>
</event>
<event>
 4    1  0.1308644E-003  0.4497470E+03  0.7818608E-02  0.1027798E+00
         -2   -1    0    0    0  501 -0.00000000000E+00  0.00000000000E+00  0.32532210759E+02  0.32532210859E+02  0.25500000000E-02 0. -1.
          2   -1    0    0  501    0  0.00000000000E+00 -0.00000000000E+00 -0.15544006322E+04  0.15544006322E+04  0.25500000000E-02 0.  1.
    5000001    1    1    2    0    0  0.72027387190E+02  0.19658363133E+03 -0.86111012371E+03  0.88953511104E+03  0.77000000000E+02 0.  0.
   -5000001    1    1    2    0    0 -0.72027387190E+02 -0.19658363133E+03 -0.66075829772E+03  0.69739773201E+03  0.77000000000E+02 0.  0.
<mgrwt>
<rscale>  0 0.44974699E+03</rscale>
<asrwt>0</asrwt>
<pdfrwt beam="1">  1        2 0.22205719E+00 0.44974699E+03</pdfrwt>
<pdfrwt beam="2">  1       -2 0.46474597E-02 0.44974699E+03</pdfrwt>
<totfact> 0.32060465E+03</totfact>
</mgrwt>
</event>
<event>
 4    1  0.1308644E-003  0.2192660E+03  0.7818608E-02  0.1134431E+00
         -2   -1    0    0    0  501 -0.00000000000E+00  0.00000000000E+00  0.31541697141E+02  0.31541697244E+02  0.25500000000E-02 0. -1.
          2   -1    0    0  501    0  0.00000000000E+00 -0.00000000000E+00 -0.38106373258E+03  0.38106373259E+03  0.25500000000E-02 0.  1.
    5000001    1    1    2    0    0  0.37885934722E+02 -0.52739761864E+02 -0.25621242766E+03  0.27530098914E+03  0.77000000000E+02 0.  0.
   -5000001    1    1    2    0    0 -0.37885934722E+02  0.52739761864E+02 -0.93309607778E+02  0.13730444070E+03  0.77000000000E+02 0.  0.
<mgrwt>
<rscale>  0 0.21926602E+03</rscale>
<asrwt>0</asrwt>
<pdfrwt beam="1">  1        2 0.54437673E-01 0.21926602E+03</pdfrwt>
<pdfrwt beam="2">  1       -2 0.45059570E-02 0.21926602E+03</pdfrwt>
<totfact> 0.20429779E+04</totfact>
</mgrwt>
</event>
<event>
 4    1  0.1308644E-003  0.2203374E+03  0.7818608E-02  0.1133632E+00
          2   -1    0    0  501    0  0.00000000000E+00  0.00000000000E+00  0.56532817416E+03  0.56532817417E+03  0.25500000000E-02 0.  1.
         -2   -1    0    0    0  501 -0.00000000000E+00 -0.00000000000E+00 -0.21469188565E+02  0.21469188717E+02  0.25500000000E-02 0. -1.
    5000001    1    1    2    0    0  0.20657472424E+02  0.22273404361E+02  0.78316316177E+02  0.11395297753E+03  0.77000000000E+02 0.  0.
   -5000001    1    1    2    0    0 -0.20657472424E+02 -0.22273404361E+02  0.46554266942E+03  0.47284438535E+03  0.77000000000E+02 0.  0.
<mgrwt>
<rscale>  0 0.22033735E+03</rscale>
<asrwt>0</asrwt>
<pdfrwt beam="1">  1        2 0.80761172E-01 0.22033735E+03</pdfrwt>
<pdfrwt beam="2">  1       -2 0.30670268E-02 0.22033735E+03</pdfrwt>
<totfact> 0.23599478E+04</totfact>
</mgrwt>
</event>
<event>
 4    1  0.1308644E-003  0.1950538E+03  0.7818608E-02  0.1153980E+00
         -2   -1    0    0    0  501 -0.00000000000E+00  0.00000000000E+00  0.71009050297E+02  0.71009050343E+02  0.25500000000E-02 0. -1.
          2   -1    0    0  501    0  0.00000000000E+00 -0.00000000000E+00 -0.13394772642E+03  0.13394772644E+03  0.25500000000E-02 0.  1.
    5000001    1    1    2    0    0  0.47690303452E+02 -0.32214303977E+02 -0.48747222556E+02  0.10778412745E+03  0.77000000000E+02 0.  0.
   -5000001    1    1    2    0    0 -0.47690303452E+02  0.32214303977E+02 -0.14191453567E+02  0.97172649333E+02  0.77000000000E+02 0.  0.
<mgrwt>
<rscale>  0 0.19505385E+03</rscale>
<asrwt>0</asrwt>
<pdfrwt beam="1">  1        2 0.19135389E-01 0.19505385E+03</pdfrwt>
<pdfrwt beam="2">  1       -2 0.10144150E-01 0.19505385E+03</pdfrwt>
<totfact> 0.18212049E+04</totfact>
</mgrwt>
</event>
<event>
 4    1  0.1308644E-003  0.3074264E+03  0.7818608E-02  0.1081586E+00
         -2   -1    0    0    0  501 -0.00000000000E+00  0.00000000000E+00  0.10360372030E+03  0.10360372033E+03  0.25500000000E-02 0. -1.
          2   -1    0    0  501    0  0.00000000000E+00 -0.00000000000E+00 -0.22805889160E+03  0.22805889161E+03  0.25500000000E-02 0.  1.
    5000001    1    1    2    0    0 -0.52764514029E+02  0.12143037586E+03 -0.76265701885E+02  0.17109905729E+03  0.77000000000E+02 0.  0.
   -5000001    1    1    2    0    0  0.52764514029E+02 -0.12143037586E+03 -0.48189469411E+02  0.16056355465E+03  0.77000000000E+02 0.  0.
<mgrwt>
<rscale>  0 0.30742641E+03</rscale>
<asrwt>0</asrwt>
<pdfrwt beam="1">  1        2 0.32579842E-01 0.30742641E+03</pdfrwt>
<pdfrwt beam="2">  1       -2 0.14800532E-01 0.30742641E+03</pdfrwt>
<totfact> 0.55922578E+03</totfact>
</mgrwt>
</event>
<event>
 4    1  0.1308644E-003  0.1915399E+03  0.7818608E-02  0.1157080E+00
         -2   -1    0    0    0  501 -0.00000000000E+00  0.00000000000E+00  0.10969561492E+02  0.10969561789E+02  0.25500000000E-02 0. -1.
          2   -1    0    0  501    0  0.00000000000E+00 -0.00000000000E+00 -0.83612139060E+03  0.83612139061E+03  0.25500000000E-02 0.  1.
    5000001    1    1    2    0    0  0.11650616852E+00  0.56736423267E+02 -0.43417391062E+03  0.44458409774E+03  0.77000000000E+02 0.  0.
   -5000001    1    1    2    0    0 -0.11650616852E+00 -0.56736423267E+02 -0.39097791849E+03  0.40250685466E+03  0.77000000000E+02 0.  0.
<mgrwt>
<rscale>  0 0.19153992E+03</rscale>
<asrwt>0</asrwt>
<pdfrwt beam="1">  1        2 0.11944587E+00 0.19153992E+03</pdfrwt>
<pdfrwt beam="2">  1       -2 0.15670808E-02 0.19153992E+03</pdfrwt>
<totfact> 0.39491899E+04</totfact>
</mgrwt>
</event>
<event>
 4    1  0.1308644E-003  0.2033143E+03  0.7818608E-02  0.1146972E+00
         -2   -1    0    0    0  501 -0.00000000000E+00  0.00000000000E+00  0.64279776407E+01  0.64279781465E+01  0.25500000000E-02 0. -1.
          2   -1    0    0  501    0  0.00000000000E+00 -0.00000000000E+00 -0.16076877111E+04  0.16076877111E+04  0.25500000000E-02 0.  1.
    5000001    1    1    2    0    0 -0.19883936646E+02 -0.63040166799E+02 -0.75316311757E+03  0.75996915413E+03  0.77000000000E+02 0.  0.
   -5000001    1    1    2    0    0  0.19883936646E+02  0.63040166799E+02 -0.84809661592E+03  0.85414653515E+03  0.77000000000E+02 0.  0.
<mgrwt>
<rscale>  0 0.20331435E+03</rscale>
<asrwt>0</asrwt>
<pdfrwt beam="1">  1        2 0.22966942E+00 0.20331435E+03</pdfrwt>
<pdfrwt beam="2">  1       -2 0.91828358E-03 0.20331435E+03</pdfrwt>
<totfact> 0.32659281E+04</totfact>
</mgrwt>
</event>
<event>
 4    1  0.1308644E-003  0.2368270E+03  0.7818608E-02  0.1121925E+00
         -2   -1    0    0    0  501 -0.00000000000E+00  0.00000000000E+00  0.60920778352E+02  0.60920778405E+02  0.25500000000E-02 0. -1.
          2   -1    0    0  501    0  0.00000000000E+00 -0.00000000000E+00 -0.23016372809E+03  0.23016372811E+03  0.25500000000E-02 0.  1.
    5000001    1    1    2    0    0  0.54361663520E+02 -0.48545422587E+02 -0.14943729251E+03  0.18322759865E+03  0.77000000000E+02 0.  0.
   -5000001    1    1    2    0    0 -0.54361663520E+02  0.48545422587E+02 -0.19805657230E+02  0.10785690786E+03  0.77000000000E+02 0.  0.
<mgrwt>
<rscale>  0 0.23682697E+03</rscale>
<asrwt>0</asrwt>
<pdfrwt beam="1">  1        2 0.32880532E-01 0.23682697E+03</pdfrwt>
<pdfrwt beam="2">  1       -2 0.87029684E-02 0.23682697E+03</pdfrwt>
<totfact> 0.12856865E+04</totfact>
</mgrwt>
</event>
<event>
 4    1  0.1308644E-003  0.3216534E+03  0.7818608E-02  0.1074891E+00
         -2   -1    0    0    0  501 -0.00000000000E+00  0.00000000000E+00  0.71626212913E+02  0.71626212958E+02  0.25500000000E-02 0. -1.
          2   -1    0    0  501    0  0.00000000000E+00 -0.00000000000E+00 -0.36111388091E+03  0.36111388092E+03  0.25500000000E-02 0.  1.
    5000001    1    1    2    0    0 -0.54585291109E+02 -0.10301817441E+03 -0.37587474086E+02  0.14468626912E+03  0.77000000000E+02 0.  0.
   -5000001    1    1    2    0    0  0.54585291109E+02  0.10301817441E+03 -0.25190019391E+03  0.28805382476E+03  0.77000000000E+02 0.  0.
<mgrwt>
<rscale>  0 0.32165335E+03</rscale>
<asrwt>0</asrwt>
<pdfrwt beam="1">  1        2 0.51587696E-01 0.32165335E+03</pdfrwt>
<pdfrwt beam="2">  1       -2 0.10232316E-01 0.32165335E+03</pdfrwt>
<totfact> 0.61974423E+03</totfact>
</mgrwt>
</event>
<event>
 4    1  0.1308644E-003  0.2993936E+03  0.7818608E-02  0.1085544E+00
         -2   -1    0    0    0  501 -0.00000000000E+00  0.00000000000E+00  0.11444445627E+02  0.11444445911E+02  0.25500000000E-02 0. -1.
          2   -1    0    0  501    0  0.00000000000E+00 -0.00000000000E+00 -0.19580792777E+04  0.19580792777E+04  0.25500000000E-02 0.  1.
    5000001    1    1    2    0    0 -0.10275658385E+03 -0.76088026489E+02 -0.89778665407E+03  0.91010888334E+03  0.77000000000E+02 0.  0.
   -5000001    1    1    2    0    0  0.10275658385E+03  0.76088026489E+02 -0.10488481780E+04  0.10594148402E+04  0.77000000000E+02 0.  0.
<mgrwt>
<rscale>  0 0.29939360E+03</rscale>
<asrwt>0</asrwt>
<pdfrwt beam="1">  1        2 0.27972540E+00 0.29939360E+03</pdfrwt>
<pdfrwt beam="2">  1       -2 0.16349221E-02 0.29939360E+03</pdfrwt>
<totfact> 0.96428276E+03</totfact>
</mgrwt>
</event>
<event>
 4    1  0.1308644E-003  0.2725128E+03  0.7818608E-02  0.1099850E+00
         -2   -1    0    0    0  501 -0.00000000000E+00  0.00000000000E+00  0.22364335189E+03  0.22364335191E+03  0.25500000000E-02 0.  1.
          2   -1    0    0  501    0  0.00000000000E+00 -0.00000000000E+00 -0.83015213198E+02  0.83015213237E+02  0.25500000000E-02 0. -1.
    5000001    1    1    2    0    0  0.39213115906E+02  0.55832627852E+02 -0.30221568508E+02  0.10722543539E+03  0.77000000000E+02 0.  0.
   -5000001    1    1    2    0    0 -0.39213115906E+02 -0.55832627852E+02  0.17084970720E+03  0.19943312975E+03  0.77000000000E+02 0.  0.
<mgrwt>
<rscale>  0 0.27251276E+03</rscale>
<asrwt>0</asrwt>
<pdfrwt beam="1">  1        2 0.11859316E-01 0.27251276E+03</pdfrwt>
<pdfrwt beam="2">  1       -2 0.31949050E-01 0.27251276E+03</pdfrwt>
<totfact> 0.46901607E+03</totfact>
</mgrwt>
</event>
<event>
 4    1  0.1308644E-003  0.6244458E+03  0.7818608E-02  0.9855948E-01
          2   -1    0    0  501    0  0.00000000000E+00  0.00000000000E+00  0.96969582234E+03  0.96969582234E+03  0.25500000000E-02 0.  1.
         -2   -1    0    0    0  501 -0.00000000000E+00 -0.00000000000E+00 -0.10052961724E+03  0.10052961727E+03  0.25500000000E-02 0. -1.
    5000001    1    1    2    0    0 -0.20549066039E+03  0.20466797890E+03  0.58240224462E+03  0.65516163474E+03  0.77000000000E+02 0.  0.
   -5000001    1    1    2    0    0  0.20549066039E+03 -0.20466797890E+03  0.28676396048E+03  0.41506380488E+03  0.77000000000E+02 0.  0.
<mgrwt>
<rscale>  0 0.62444583E+03</rscale>
<asrwt>0</asrwt>
<pdfrwt beam="1">  1        2 0.13852798E+00 0.62444583E+03</pdfrwt>
<pdfrwt beam="2">  1       -2 0.14361373E-01 0.62444583E+03</pdfrwt>
<totfact> 0.11109565E+03</totfact>
</mgrwt>
</event>
<event>
 4    1  0.1308644E-003  0.1830056E+03  0.7818608E-02  0.1164926E+00
          2   -1    0    0  501    0  0.00000000000E+00  0.00000000000E+00  0.68268118434E+02  0.68268118482E+02  0.25500000000E-02 0.  1.
         -2   -1    0    0    0  501 -0.00000000000E+00 -0.00000000000E+00 -0.12264527199E+03  0.12264527201E+03  0.25500000000E-02 0. -1.
    5000001    1    1    2    0    0 -0.32523619362E+02 -0.26259279781E+02  0.34163968313E+00  0.87615365711E+02  0.77000000000E+02 0.  0.
   -5000001    1    1    2    0    0  0.32523619362E+02  0.26259279781E+02 -0.54718793234E+02  0.10329802478E+03  0.77000000000E+02 0.  0.
<mgrwt>
<rscale>  0 0.18300560E+03</rscale>
<asrwt>0</asrwt>
<pdfrwt beam="1">  1        2 0.97525884E-02 0.18300560E+03</pdfrwt>
<pdfrwt beam="2">  1       -2 0.17520753E-01 0.18300560E+03</pdfrwt>
<totfact> 0.16649958E+04</totfact>
</mgrwt>
</event>
<event>
 4    1  0.1308644E-003  0.1727317E+03  0.7818608E-02  0.1175029E+00
          2   -1    0    0  501    0  0.00000000000E+00  0.00000000000E+00  0.21511822449E+04  0.21511822449E+04  0.25500000000E-02 0.  1.
         -2   -1    0    0    0  501 -0.00000000000E+00 -0.00000000000E+00 -0.34674226658E+01  0.34674236034E+01  0.25500000000E-02 0. -1.
    5000001    1    1    2    0    0 -0.26775297524E+02  0.19764359273E+02  0.81745358831E+03  0.82174625980E+03  0.77000000000E+02 0.  0.
   -5000001    1    1    2    0    0  0.26775297524E+02 -0.19764359273E+02  0.13302612340E+04  0.13329034087E+04  0.77000000000E+02 0.  0.
<mgrwt>
<rscale>  0 0.17273169E+03</rscale>
<asrwt>0</asrwt>
<pdfrwt beam="1">  1        2 0.30731215E+00 0.17273169E+03</pdfrwt>
<pdfrwt beam="2">  1       -2 0.49534551E-03 0.17273169E+03</pdfrwt>
<totfact> 0.42777007E+04</totfact>
</mgrwt>
</event>
<event>
 4    1  0.1308644E-003  0.2606237E+03  0.7818608E-02  0.1106769E+00
         -2   -1    0    0    0  501 -0.00000000000E+00  0.00000000000E+00  0.17123039566E+02  0.17123039756E+02  0.25500000000E-02 0. -1.
          2   -1    0    0  501    0  0.00000000000E+00 -0.00000000000E+00 -0.99171531768E+03  0.99171531769E+03  0.25500000000E-02 0.  1.
    5000001    1    1    2    0    0 -0.99305958680E+02 -0.26301301032E+02 -0.40084940219E+03  0.42090696728E+03  0.77000000000E+02 0.  0.
   -5000001    1    1    2    0    0  0.99305958680E+02  0.26301301032E+02 -0.57374287593E+03  0.58793139016E+03  0.77000000000E+02 0.  0.
<mgrwt>
<rscale>  0 0.26062372E+03</rscale>
<asrwt>0</asrwt>
<pdfrwt beam="1">  1        2 0.14167358E+00 0.26062372E+03</pdfrwt>
<pdfrwt beam="2">  1       -2 0.24461492E-02 0.26062372E+03</pdfrwt>
<totfact> 0.16807071E+04</totfact>
</mgrwt>
</event>
<event>
 4    1  0.1308644E-003  0.1817399E+03  0.7818608E-02  0.1166130E+00
          2   -1    0    0  501    0  0.00000000000E+00  0.00000000000E+00  0.24435390427E+04  0.24435390427E+04  0.25500000000E-02 0.  1.
         -2   -1    0    0    0  501 -0.00000000000E+00 -0.00000000000E+00 -0.33792561377E+01  0.33792570998E+01  0.25500000000E-02 0. -1.
    5000001    1    1    2    0    0  0.40728830190E+02 -0.25834840293E+02  0.12394458736E+04  0.12427716404E+04  0.77000000000E+02 0.  0.
   -5000001    1    1    2    0    0 -0.40728830190E+02  0.25834840293E+02  0.12007139129E+04  0.12041466594E+04  0.77000000000E+02 0.  0.
<mgrwt>
<rscale>  0 0.18173987E+03</rscale>
<asrwt>0</asrwt>
<pdfrwt beam="1">  1        2 0.34907823E+00 0.18173987E+03</pdfrwt>
<pdfrwt beam="2">  1       -2 0.48274925E-03 0.18173987E+03</pdfrwt>
<totfact> 0.32121535E+04</totfact>
</mgrwt>
</event>
<event>
 4    1  0.1308644E-003  0.3034399E+03  0.7818608E-02  0.1083534E+00
          2   -1    0    0  501    0  0.00000000000E+00  0.00000000000E+00  0.63049163790E+03  0.63049163791E+03  0.25500000000E-02 0.  1.
         -2   -1    0    0    0  501 -0.00000000000E+00 -0.00000000000E+00 -0.36509521320E+02  0.36509521409E+02  0.25500000000E-02 0. -1.
    5000001    1    1    2    0    0 -0.52768199832E+02 -0.11933092742E+03  0.31479386513E+03  0.34935444848E+03  0.77000000000E+02 0.  0.
   -5000001    1    1    2    0    0  0.52768199832E+02  0.11933092742E+03  0.27918825146E+03  0.31764671083E+03  0.77000000000E+02 0.  0.
<mgrwt>
<rscale>  0 0.30343993E+03</rscale>
<asrwt>0</asrwt>
<pdfrwt beam="1">  1        2 0.90070233E-01 0.30343993E+03</pdfrwt>
<pdfrwt beam="2">  1       -2 0.52156460E-02 0.30343993E+03</pdfrwt>
<totfact> 0.95307838E+03</totfact>
</mgrwt>
</event>
<event>
 4    1  0.1308644E-003  0.2144676E+03  0.7818608E-02  0.1138076E+00
          2   -1    0    0  501    0  0.00000000000E+00  0.00000000000E+00  0.42787148739E+03  0.42787148740E+03  0.25500000000E-02 0.  1.
         -2   -1    0    0    0  501 -0.00000000000E+00 -0.00000000000E+00 -0.26875087689E+02  0.26875087810E+02  0.25500000000E-02 0. -1.
    5000001    1    1    2    0    0 -0.30399892169E+02 -0.66722968705E+02  0.23002943223E+03  0.25341398479E+03  0.77000000000E+02 0.  0.
   -5000001    1    1    2    0    0  0.30399892169E+02  0.66722968705E+02  0.17096696748E+03  0.20133259042E+03  0.77000000000E+02 0.  0.
<mgrwt>
<rscale>  0 0.21446756E+03</rscale>
<asrwt>0</asrwt>
<pdfrwt beam="1">  1        2 0.61124499E-01 0.21446756E+03</pdfrwt>
<pdfrwt beam="2">  1       -2 0.38392982E-02 0.21446756E+03</pdfrwt>
<totfact> 0.22895743E+04</totfact>
</mgrwt>
</event>
<event>
 4    1  0.1308644E-003  0.1970844E+03  0.7818608E-02  0.1152223E+00
         -2   -1    0    0    0  501 -0.00000000000E+00  0.00000000000E+00  0.59751943027E+03  0.59751943028E+03  0.25500000000E-02 0. -1.
          2   -1    0    0  501    0  0.00000000000E+00 -0.00000000000E+00 -0.16251456554E+02  0.16251456754E+02  0.25500000000E-02 0.  1.
    5000001    1    1    2    0    0 -0.55198439024E+02  0.25384145025E+02  0.32023393072E+03  0.33491788975E+03  0.77000000000E+02 0.  0.
   -5000001    1    1    2    0    0  0.55198439024E+02 -0.25384145025E+02  0.26103404299E+03  0.27885299728E+03  0.77000000000E+02 0.  0.
<mgrwt>
<rscale>  0 0.19708436E+03</rscale>
<asrwt>0</asrwt>
<pdfrwt beam="1">  1        2 0.23216368E-02 0.19708436E+03</pdfrwt>
<pdfrwt beam="2">  1       -2 0.85359915E-01 0.19708436E+03</pdfrwt>
<totfact> 0.53552103E+03</totfact>
</mgrwt>
</event>
<event>
 4    1  0.1308644E-003  0.1907025E+03  0.7818608E-02  0.1157829E+00
         -2   -1    0    0    0  501 -0.00000000000E+00  0.00000000000E+00  0.72705135958E+01  0.72705140430E+01  0.25500000000E-02 0. -1.
          2   -1    0    0  501    0  0.00000000000E+00 -0.00000000000E+00 -0.12505109136E+04  0.12505109136E+04  0.25500000000E-02 0.  1.
    5000001    1    1    2    0    0 -0.33937975338E+02  0.43881298923E+02 -0.56063312188E+03  0.56860869842E+03  0.77000000000E+02 0.  0.
   -5000001    1    1    2    0    0  0.33937975338E+02 -0.43881298923E+02 -0.68260727807E+03  0.68917272918E+03  0.77000000000E+02 0.  0.
<mgrwt>
<rscale>  0 0.19070246E+03</rscale>
<asrwt>0</asrwt>
<pdfrwt beam="1">  1        2 0.17864428E+00 0.19070246E+03</pdfrwt>
<pdfrwt beam="2">  1       -2 0.10386456E-02 0.19070246E+03</pdfrwt>
<totfact> 0.41314581E+04</totfact>
</mgrwt>
</event>
<event>
 4    1  0.1308644E-003  0.1928822E+03  0.7818608E-02  0.1155887E+00
          2   -1    0    0  501    0  0.00000000000E+00  0.00000000000E+00  0.16435739609E+04  0.16435739609E+04  0.25500000000E-02 0.  1.
         -2   -1    0    0    0  501 -0.00000000000E+00 -0.00000000000E+00 -0.56589394036E+01  0.56589399782E+01  0.25500000000E-02 0. -1.
    5000001    1    1    2    0    0 -0.52756371445E+02  0.13163002190E+02  0.64469014698E+03  0.65154499843E+03  0.77000000000E+02 0.  0.
   -5000001    1    1    2    0    0  0.52756371445E+02 -0.13163002190E+02  0.99322487452E+03  0.99768790246E+03  0.77000000000E+02 0.  0.
<mgrwt>
<rscale>  0 0.19288220E+03</rscale>
<asrwt>0</asrwt>
<pdfrwt beam="1">  1        2 0.23479609E+00 0.19288220E+03</pdfrwt>
<pdfrwt beam="2">  1       -2 0.80842061E-03 0.19288220E+03</pdfrwt>
<totfact> 0.37550415E+04</totfact>
</mgrwt>
</event>
<event>
 4    1  0.1308644E-003  0.2719977E+03  0.7818608E-02  0.1100142E+00
          2   -1    0    0  501    0  0.00000000000E+00  0.00000000000E+00  0.34128455848E+04  0.34128455848E+04  0.25500000000E-02 0.  1.
         -2   -1    0    0    0  501 -0.00000000000E+00 -0.00000000000E+00 -0.54194326366E+01  0.54194332366E+01  0.25500000000E-02 0. -1.
    5000001    1    1    2    0    0 -0.43674782767E+02  0.25742042061E+02  0.29602218587E+04  0.29616570686E+04  0.77000000000E+02 0.  0.
   -5000001    1    1    2    0    0  0.43674782767E+02 -0.25742042061E+02  0.44720429345E+03  0.45660794940E+03  0.77000000000E+02 0.  0.
<mgrwt>
<rscale>  0 0.27199770E+03</rscale>
<asrwt>0</asrwt>
<pdfrwt beam="1">  1        2 0.48754776E+00 0.27199770E+03</pdfrwt>
<pdfrwt beam="2">  1       -2 0.77420727E-03 0.27199770E+03</pdfrwt>
<totfact> 0.50938197E+03</totfact>
</mgrwt>
</event>
<event>
 4    1  0.1308644E-003  0.5033932E+03  0.7818608E-02  0.1012897E+00
         -2   -1    0    0    0  501 -0.00000000000E+00  0.00000000000E+00  0.10415552054E+03  0.10415552057E+03  0.25500000000E-02 0. -1.
          2   -1    0    0  501    0  0.00000000000E+00 -0.00000000000E+00 -0.60823630024E+03  0.60823630024E+03  0.25500000000E-02 0.  1.
    5000001    1    1    2    0    0 -0.20044390487E+03 -0.77091955907E+02 -0.10159646346E+03  0.24974340843E+03  0.77000000000E+02 0.  0.
   -5000001    1    1    2    0    0  0.20044390487E+03  0.77091955907E+02 -0.40248431624E+03  0.46264841239E+03  0.77000000000E+02 0.  0.
<mgrwt>
<rscale>  0 0.50339316E+03</rscale>
<asrwt>0</asrwt>
<pdfrwt beam="1">  1        2 0.86890898E-01 0.50339316E+03</pdfrwt>
<pdfrwt beam="2">  1       -2 0.14879360E-01 0.50339316E+03</pdfrwt>
<totfact> 0.18899814E+03</totfact>
</mgrwt>
</event>
<event>
 4    1  0.1308644E-003  0.3504566E+03  0.7818608E-02  0.1062428E+00
         -2   -1    0    0    0  501 -0.00000000000E+00  0.00000000000E+00  0.30222522353E+02  0.30222522461E+02  0.25500000000E-02 0. -1.
          2   -1    0    0  501    0  0.00000000000E+00 -0.00000000000E+00 -0.10159629232E+04  0.10159629232E+04  0.25500000000E-02 0.  1.
    5000001    1    1    2    0    0 -0.14235790800E+03 -0.31626924038E+02 -0.31601274594E+03  0.35645349190E+03  0.77000000000E+02 0.  0.
   -5000001    1    1    2    0    0  0.14235790800E+03  0.31626924038E+02 -0.66972765496E+03  0.68973195381E+03  0.77000000000E+02 0.  0.
<mgrwt>
<rscale>  0 0.35045663E+03</rscale>
<asrwt>0</asrwt>
<pdfrwt beam="1">  1        2 0.14513754E+00 0.35045663E+03</pdfrwt>
<pdfrwt beam="2">  1       -2 0.43175038E-02 0.35045663E+03</pdfrwt>
<totfact> 0.70110313E+03</totfact>
</mgrwt>
</event>
<event>
 4    1  0.1308644E-003  0.3113545E+03  0.7818608E-02  0.1079698E+00
          2   -1    0    0  501    0  0.00000000000E+00  0.00000000000E+00  0.25197842537E+03  0.25197842538E+03  0.25500000000E-02 0.  1.
         -2   -1    0    0    0  501 -0.00000000000E+00 -0.00000000000E+00 -0.96180488053E+02  0.96180488087E+02  0.25500000000E-02 0. -1.
    5000001    1    1    2    0    0  0.10168601066E+03  0.45871432746E+02  0.16351433885E+03  0.21239155377E+03  0.77000000000E+02 0.  0.
   -5000001    1    1    2    0    0 -0.10168601066E+03 -0.45871432746E+02 -0.77164015362E+01  0.13576735969E+03  0.77000000000E+02 0.  0.
<mgrwt>
<rscale>  0 0.31135451E+03</rscale>
<asrwt>0</asrwt>
<pdfrwt beam="1">  1        2 0.35996918E-01 0.31135451E+03</pdfrwt>
<pdfrwt beam="2">  1       -2 0.13740070E-01 0.31135451E+03</pdfrwt>
<totfact> 0.56714807E+03</totfact>
</mgrwt>
</event>
<event>
 4    1  0.1308644E-003  0.2828283E+03  0.7818608E-02  0.1094154E+00
         -2   -1    0    0    0  501 -0.00000000000E+00  0.00000000000E+00  0.45959342269E+02  0.45959342340E+02  0.25500000000E-02 0. -1.
          2   -1    0    0  501    0  0.00000000000E+00 -0.00000000000E+00 -0.43512279540E+03  0.43512279541E+03  0.25500000000E-02 0.  1.
    5000001    1    1    2    0    0 -0.52132820346E+02 -0.10574613895E+03 -0.17247693874E+03  0.22265976569E+03  0.77000000000E+02 0.  0.
   -5000001    1    1    2    0    0  0.52132820346E+02  0.10574613895E+03 -0.21668651439E+03  0.25842237205E+03  0.77000000000E+02 0.  0.
<mgrwt>
<rscale>  0 0.28282827E+03</rscale>
<asrwt>0</asrwt>
<pdfrwt beam="1">  1        2 0.62160397E-01 0.28282827E+03</pdfrwt>
<pdfrwt beam="2">  1       -2 0.65656206E-02 0.28282827E+03</pdfrwt>
<totfact> 0.10110927E+04</totfact>
</mgrwt>
</event>
<event>
 4    1  0.1308644E-003  0.2356570E+03  0.7818608E-02  0.1122720E+00
         -2   -1    0    0    0  501 -0.00000000000E+00  0.00000000000E+00  0.11728259878E+02  0.11728260155E+02  0.25500000000E-02 0. -1.
          2   -1    0    0  501    0  0.00000000000E+00 -0.00000000000E+00 -0.11837694239E+04  0.11837694239E+04  0.25500000000E-02 0.  1.
    5000001    1    1    2    0    0  0.72544233625E+02 -0.50005312752E+02 -0.51584399579E+03  0.52894917064E+03  0.77000000000E+02 0.  0.
   -5000001    1    1    2    0    0 -0.72544233625E+02  0.50005312752E+02 -0.65619716826E+03  0.66654851344E+03  0.77000000000E+02 0.  0.
<mgrwt>
<rscale>  0 0.23565700E+03</rscale>
<asrwt>0</asrwt>
<pdfrwt beam="1">  1        2 0.16910984E+00 0.23565700E+03</pdfrwt>
<pdfrwt beam="2">  1       -2 0.16754665E-02 0.23565700E+03</pdfrwt>
<totfact> 0.22711093E+04</totfact>
</mgrwt>
</event>
<event>
 4    1  0.1308644E-003  0.1601190E+03  0.7818608E-02  0.1188563E+00
         -2   -1    0    0    0  501 -0.00000000000E+00  0.00000000000E+00  0.53689653131E+02  0.53689653192E+02  0.25500000000E-02 0. -1.
          2   -1    0    0  501    0  0.00000000000E+00 -0.00000000000E+00 -0.11938092138E+03  0.11938092141E+03  0.25500000000E-02 0.  1.
    5000001    1    1    2    0    0 -0.92872692997E+01 -0.37636734462E+01 -0.11772440410E+02  0.78536672721E+02  0.77000000000E+02 0.  0.
   -5000001    1    1    2    0    0  0.92872692997E+01  0.37636734462E+01 -0.53918827839E+02  0.94533901879E+02  0.77000000000E+02 0.  0.
<mgrwt>
<rscale>  0 0.16011896E+03</rscale>
<asrwt>0</asrwt>
<pdfrwt beam="1">  1        2 0.17054417E-01 0.16011896E+03</pdfrwt>
<pdfrwt beam="2">  1       -2 0.76699505E-02 0.16011896E+03</pdfrwt>
<totfact> 0.31627394E+04</totfact>
</mgrwt>
</event>
<event>
 4    1  0.1308644E-003  0.1969677E+03  0.7818608E-02  0.1152323E+00
         -2   -1    0    0    0  501 -0.00000000000E+00  0.00000000000E+00  0.47526284843E+03  0.47526284843E+03  0.25500000000E-02 0. -1.
          2   -1    0    0  501    0  0.00000000000E+00 -0.00000000000E+00 -0.20407794304E+02  0.20407794463E+02  0.25500000000E-02 0.  1.
    5000001    1    1    2    0    0  0.16319880745E+02 -0.17647955740E+02  0.85244236193E+02  0.11735999597E+03  0.77000000000E+02 0.  0.
   -5000001    1    1    2    0    0 -0.16319880745E+02  0.17647955740E+02  0.36961081793E+03  0.37831064693E+03  0.77000000000E+02 0.  0.
<mgrwt>
<rscale>  0 0.19696768E+03</rscale>
<asrwt>0</asrwt>
<pdfrwt beam="1">  1        2 0.29153991E-02 0.19696768E+03</pdfrwt>
<pdfrwt beam="2">  1       -2 0.67894695E-01 0.19696768E+03</pdfrwt>
<totfact> 0.64594290E+03</totfact>
</mgrwt>
</event>
<event>
 4    1  0.1308644E-003  0.2502923E+03  0.7818608E-02  0.1113120E+00
          2   -1    0    0  501    0  0.00000000000E+00  0.00000000000E+00  0.97809451387E+02  0.97809451421E+02  0.25500000000E-02 0.  1.
         -2   -1    0    0    0  501 -0.00000000000E+00 -0.00000000000E+00 -0.16012310452E+03  0.16012310454E+03  0.25500000000E-02 0. -1.
    5000001    1    1    2    0    0 -0.17436726115E+02 -0.92343768397E+02 -0.62092201071E+02  0.13643992236E+03  0.77000000000E+02 0.  0.
   -5000001    1    1    2    0    0  0.17436726115E+02  0.92343768397E+02 -0.22145206455E+00  0.12149263361E+03  0.77000000000E+02 0.  0.
<mgrwt>
<rscale>  0 0.25029225E+03</rscale>
<asrwt>0</asrwt>
<pdfrwt beam="1">  1        2 0.13972779E-01 0.25029225E+03</pdfrwt>
<pdfrwt beam="2">  1       -2 0.22874729E-01 0.25029225E+03</pdfrwt>
<totfact> 0.69630344E+03</totfact>
</mgrwt>
</event>
<event>
 4    1  0.1308644E-003  0.1852548E+03  0.7818608E-02  0.1162812E+00
          2   -1    0    0  501    0  0.00000000000E+00  0.00000000000E+00  0.50388565251E+03  0.50388565252E+03  0.25500000000E-02 0.  1.
         -2   -1    0    0    0  501 -0.00000000000E+00 -0.00000000000E+00 -0.17027344773E+02  0.17027344964E+02  0.25500000000E-02 0. -1.
    5000001    1    1    2    0    0 -0.34977761631E+02  0.37749867205E+02  0.23912919362E+03  0.25643764841E+03  0.77000000000E+02 0.  0.
   -5000001    1    1    2    0    0  0.34977761631E+02 -0.37749867205E+02  0.24772911412E+03  0.26447534907E+03  0.77000000000E+02 0.  0.
<mgrwt>
<rscale>  0 0.18525480E+03</rscale>
<asrwt>0</asrwt>
<pdfrwt beam="1">  1        2 0.71983662E-01 0.18525480E+03</pdfrwt>
<pdfrwt beam="2">  1       -2 0.24324779E-02 0.18525480E+03</pdfrwt>
<totfact> 0.37243010E+04</totfact>
</mgrwt>
</event>
<event>
 4    1  0.1308644E-003  0.3675877E+03  0.7818608E-02  0.1055619E+00
          2   -1    0    0  501    0  0.00000000000E+00  0.00000000000E+00  0.86386319271E+03  0.86386319272E+03  0.25500000000E-02 0.  1.
         -2   -1    0    0    0  501 -0.00000000000E+00 -0.00000000000E+00 -0.39103616937E+02  0.39103617020E+02  0.25500000000E-02 0. -1.
    5000001    1    1    2    0    0  0.49519141846E+02  0.15375711493E+03  0.30939026341E+03  0.35741394894E+03  0.77000000000E+02 0.  0.
   -5000001    1    1    2    0    0 -0.49519141846E+02 -0.15375711493E+03  0.51536931236E+03  0.54555286080E+03  0.77000000000E+02 0.  0.
<mgrwt>
<rscale>  0 0.36758768E+03</rscale>
<asrwt>0</asrwt>
<pdfrwt beam="1">  1        2 0.12340902E+00 0.36758768E+03</pdfrwt>
<pdfrwt beam="2">  1       -2 0.55862315E-02 0.36758768E+03</pdfrwt>
<totfact> 0.58755888E+03</totfact>
</mgrwt>
</event>
<event>
 4    1  0.1308644E-003  0.2632740E+03  0.7818608E-02  0.1105192E+00
          2   -1    0    0  501    0  0.00000000000E+00  0.00000000000E+00  0.32819726486E+03  0.32819726487E+03  0.25500000000E-02 0.  1.
         -2   -1    0    0    0  501 -0.00000000000E+00 -0.00000000000E+00 -0.52798424388E+02  0.52798424450E+02  0.25500000000E-02 0. -1.
    5000001    1    1    2    0    0  0.85114764061E+02  0.25642213977E+02  0.22328007161E+03  0.25235894392E+03  0.77000000000E+02 0.  0.
   -5000001    1    1    2    0    0 -0.85114764061E+02 -0.25642213977E+02  0.52118768861E+02  0.12863674540E+03  0.77000000000E+02 0.  0.
<mgrwt>
<rscale>  0 0.26327399E+03</rscale>
<asrwt>0</asrwt>
<pdfrwt beam="1">  1        2 0.46885322E-01 0.26327399E+03</pdfrwt>
<pdfrwt beam="2">  1       -2 0.75426323E-02 0.26327399E+03</pdfrwt>
<totfact> 0.11024419E+04</totfact>
</mgrwt>
</event>
<event>
 4    1  0.1308644E-003  0.3581155E+03  0.7818608E-02  0.1059333E+00
          2   -1    0    0  501    0  0.00000000000E+00  0.00000000000E+00  0.69624837569E+03  0.69624837570E+03  0.25500000000E-02 0.  1.
         -2   -1    0    0    0  501 -0.00000000000E+00 -0.00000000000E+00 -0.46049198812E+02  0.46049198882E+02  0.25500000000E-02 0. -1.
    5000001    1    1    2    0    0 -0.16158356211E+03  0.48208757255E+01  0.32600669157E+03  0.37194334426E+03  0.77000000000E+02 0.  0.
   -5000001    1    1    2    0    0  0.16158356211E+03 -0.48208757255E+01  0.32419248531E+03  0.37035423032E+03  0.77000000000E+02 0.  0.
<mgrwt>
<rscale>  0 0.35811551E+03</rscale>
<asrwt>0</asrwt>
<pdfrwt beam="1">  1        2 0.99464055E-01 0.35811551E+03</pdfrwt>
<pdfrwt beam="2">  1       -2 0.65784569E-02 0.35811551E+03</pdfrwt>
<totfact> 0.59596695E+03</totfact>
</mgrwt>
</event>
<event>
 4    1  0.1308644E-003  0.3278049E+03  0.7818608E-02  0.1072112E+00
         -2   -1    0    0    0  501 -0.00000000000E+00  0.00000000000E+00  0.60347641348E+02  0.60347641402E+02  0.25500000000E-02 0. -1.
          2   -1    0    0  501    0  0.00000000000E+00 -0.00000000000E+00 -0.44515441069E+03  0.44515441070E+03  0.25500000000E-02 0.  1.
    5000001    1    1    2    0    0  0.46497914458E+02 -0.83826817500E+02 -0.35953281791E+03  0.37997610258E+03  0.77000000000E+02 0.  0.
   -5000001    1    1    2    0    0 -0.46497914458E+02  0.83826817500E+02 -0.25273951436E+02  0.12552594952E+03  0.77000000000E+02 0.  0.
<mgrwt>
<rscale>  0 0.32780493E+03</rscale>
<asrwt>0</asrwt>
<pdfrwt beam="1">  1        2 0.63593485E-01 0.32780493E+03</pdfrwt>
<pdfrwt beam="2">  1       -2 0.86210919E-02 0.32780493E+03</pdfrwt>
<totfact> 0.64814114E+03</totfact>
</mgrwt>
</event>
<event>
 4    1  0.1308644E-003  0.2616460E+03  0.7818608E-02  0.1106158E+00
         -2   -1    0    0    0  501 -0.00000000000E+00  0.00000000000E+00  0.77803148142E+01  0.77803152321E+01  0.25500000000E-02 0. -1.
          2   -1    0    0  501    0  0.00000000000E+00 -0.00000000000E+00 -0.21997386784E+04  0.21997386784E+04  0.25500000000E-02 0.  1.
    5000001    1    1    2    0    0 -0.80770061802E+02  0.15279593123E+02 -0.53452632175E+03  0.54626427440E+03  0.77000000000E+02 0.  0.
   -5000001    1    1    2    0    0  0.80770061802E+02 -0.15279593123E+02 -0.16574320418E+04  0.16612547192E+04  0.77000000000E+02 0.  0.
<mgrwt>
<rscale>  0 0.26164602E+03</rscale>
<asrwt>0</asrwt>
<pdfrwt beam="1">  1        2 0.31424799E+00 0.26164602E+03</pdfrwt>
<pdfrwt beam="2">  1       -2 0.11114750E-02 0.26164602E+03</pdfrwt>
<totfact> 0.12884381E+04</totfact>
</mgrwt>
</event>
<event>
 4    1  0.1308644E-003  0.2320897E+03  0.7818608E-02  0.1125178E+00
          2   -1    0    0  501    0  0.00000000000E+00  0.00000000000E+00  0.88342684419E+02  0.88342684456E+02  0.25500000000E-02 0.  1.
         -2   -1    0    0    0  501 -0.00000000000E+00 -0.00000000000E+00 -0.15243379011E+03  0.15243379013E+03  0.25500000000E-02 0. -1.
    5000001    1    1    2    0    0 -0.68203941197E+02  0.50830392925E+01  0.23433062407E+02  0.10562065753E+03  0.77000000000E+02 0.  0.
   -5000001    1    1    2    0    0  0.68203941197E+02 -0.50830392925E+01 -0.87524168097E+02  0.13515581706E+03  0.77000000000E+02 0.  0.
<mgrwt>
<rscale>  0 0.23208973E+03</rscale>
<asrwt>0</asrwt>
<pdfrwt beam="1">  1        2 0.12620384E-01 0.23208973E+03</pdfrwt>
<pdfrwt beam="2">  1       -2 0.21776256E-01 0.23208973E+03</pdfrwt>
<totfact> 0.85362573E+03</totfact>
</mgrwt>
</event>
<event>
 4    1  0.1308644E-003  0.2878058E+03  0.7818608E-02  0.1091500E+00
         -2   -1    0    0    0  501 -0.00000000000E+00  0.00000000000E+00  0.10834447789E+03  0.10834447792E+03  0.25500000000E-02 0. -1.
          2   -1    0    0  501    0  0.00000000000E+00 -0.00000000000E+00 -0.19113150293E+03  0.19113150295E+03  0.25500000000E-02 0.  1.
    5000001    1    1    2    0    0 -0.45198472673E+02  0.37193192554E+02 -0.15226352779E+03  0.18038685484E+03  0.77000000000E+02 0.  0.
   -5000001    1    1    2    0    0  0.45198472673E+02 -0.37193192554E+02  0.69476502751E+02  0.11908912603E+03  0.77000000000E+02 0.  0.
<mgrwt>
<rscale>  0 0.28780579E+03</rscale>
<asrwt>0</asrwt>
<pdfrwt beam="1">  1        2 0.27304500E-01 0.28780579E+03</pdfrwt>
<pdfrwt beam="2">  1       -2 0.15477783E-01 0.28780579E+03</pdfrwt>
<totfact> 0.62934165E+03</totfact>
</mgrwt>
</event>
<event>
 4    1  0.1308644E-003  0.1719487E+03  0.7818608E-02  0.1175831E+00
          2   -1    0    0  501    0  0.00000000000E+00  0.00000000000E+00  0.25241747559E+04  0.25241747560E+04  0.25500000000E-02 0.  1.
         -2   -1    0    0    0  501 -0.00000000000E+00 -0.00000000000E+00 -0.29283170183E+01  0.29283181286E+01  0.25500000000E-02 0. -1.
    5000001    1    1    2    0    0 -0.26184333965E+02  0.26165675435E+02  0.11194084830E+04  0.11226640699E+04  0.77000000000E+02 0.  0.
   -5000001    1    1    2    0    0  0.26184333965E+02 -0.26165675435E+02  0.14018379559E+04  0.14044390042E+04  0.77000000000E+02 0.  0.
<mgrwt>
<rscale>  0 0.17194866E+03</rscale>
<asrwt>0</asrwt>
<pdfrwt beam="1">  1        2 0.36059605E+00 0.17194866E+03</pdfrwt>
<pdfrwt beam="2">  1       -2 0.41833148E-03 0.17194866E+03</pdfrwt>
<totfact> 0.35858270E+04</totfact>
</mgrwt>
</event>
<event>
 4    1  0.1308644E-003  0.2076685E+03  0.7818608E-02  0.1143426E+00
          2   -1    0    0  501    0  0.00000000000E+00  0.00000000000E+00  0.22137499352E+04  0.22137499352E+04  0.25500000000E-02 0.  1.
         -2   -1    0    0    0  501 -0.00000000000E+00 -0.00000000000E+00 -0.48702676972E+01  0.48702683648E+01  0.25500000000E-02 0. -1.
    5000001    1    1    2    0    0 -0.43307499364E+02  0.31147812011E+02  0.62584552333E+03  0.63281699152E+03  0.77000000000E+02 0.  0.
   -5000001    1    1    2    0    0  0.43307499364E+02 -0.31147812011E+02  0.15830341442E+04  0.15858032120E+04  0.77000000000E+02 0.  0.
<mgrwt>
<rscale>  0 0.20766854E+03</rscale>
<asrwt>0</asrwt>
<pdfrwt beam="1">  1        2 0.31625037E+00 0.20766854E+03</pdfrwt>
<pdfrwt beam="2">  1       -2 0.69575175E-03 0.20766854E+03</pdfrwt>
<totfact> 0.24781060E+04</totfact>
</mgrwt>
</event>
<event>
 4    1  0.1308644E-003  0.3465935E+03  0.7818608E-02  0.1064022E+00
         -2   -1    0    0    0  501 -0.00000000000E+00  0.00000000000E+00  0.40183370090E+03  0.40183370091E+03  0.25500000000E-02 0. -1.
          2   -1    0    0  501    0  0.00000000000E+00 -0.00000000000E+00 -0.74736785873E+02  0.74736785917E+02  0.25500000000E-02 0.  1.
    5000001    1    1    2    0    0 -0.11268717410E+03  0.98256179125E+02  0.10602617311E+03  0.19880449021E+03  0.77000000000E+02 0.  0.
   -5000001    1    1    2    0    0  0.11268717410E+03 -0.98256179125E+02  0.22107074192E+03  0.27776599662E+03  0.77000000000E+02 0.  0.
<mgrwt>
<rscale>  0 0.34659348E+03</rscale>
<asrwt>0</asrwt>
<pdfrwt beam="1">  1        2 0.10676684E-01 0.34659348E+03</pdfrwt>
<pdfrwt beam="2">  1       -2 0.57404815E-01 0.34659348E+03</pdfrwt>
<totfact> 0.17209321E+03</totfact>
</mgrwt>
</event>
<event>
 4    1  0.1308644E-003  0.2842130E+03  0.7818608E-02  0.1093410E+00
          2   -1    0    0  501    0  0.00000000000E+00  0.00000000000E+00  0.30462855791E+03  0.30462855792E+03  0.25500000000E-02 0.  1.
         -2   -1    0    0    0  501 -0.00000000000E+00 -0.00000000000E+00 -0.66291414006E+02  0.66291414055E+02  0.25500000000E-02 0. -1.
    5000001    1    1    2    0    0  0.30034226773E+02  0.10877712557E+03  0.68107844893E+02  0.15265056948E+03  0.77000000000E+02 0.  0.
   -5000001    1    1    2    0    0 -0.30034226773E+02 -0.10877712557E+03  0.17022929901E+03  0.21826940250E+03  0.77000000000E+02 0.  0.
<mgrwt>
<rscale>  0 0.28421300E+03</rscale>
<asrwt>0</asrwt>
<pdfrwt beam="1">  1        2 0.43518366E-01 0.28421300E+03</pdfrwt>
<pdfrwt beam="2">  1       -2 0.94702019E-02 0.28421300E+03</pdfrwt>
<totfact> 0.83862029E+03</totfact>
</mgrwt>
</event>
<event>
 4    1  0.1308644E-003  0.3785131E+03  0.7818608E-02  0.1051485E+00
         -2   -1    0    0    0  501 -0.00000000000E+00  0.00000000000E+00  0.59159578389E+03  0.59159578390E+03  0.25500000000E-02 0. -1.
          2   -1    0    0  501    0  0.00000000000E+00 -0.00000000000E+00 -0.60544773878E+02  0.60544773931E+02  0.25500000000E-02 0.  1.
    5000001    1    1    2    0    0  0.10917125434E+03  0.12260425205E+03  0.35892625393E+03  0.40212836402E+03  0.77000000000E+02 0.  0.
   -5000001    1    1    2    0    0 -0.10917125434E+03 -0.12260425205E+03  0.17212475609E+03  0.25001219381E+03  0.77000000000E+02 0.  0.
<mgrwt>
<rscale>  0 0.37851305E+03</rscale>
<asrwt>0</asrwt>
<pdfrwt beam="1">  1        2 0.86492535E-02 0.37851305E+03</pdfrwt>
<pdfrwt beam="2">  1       -2 0.84513683E-01 0.37851305E+03</pdfrwt>
<totfact> 0.97696224E+02</totfact>
</mgrwt>
</event>
<event>
 4    1  0.1308644E-003  0.2092311E+03  0.7818608E-02  0.1142176E+00
         -2   -1    0    0    0  501 -0.00000000000E+00  0.00000000000E+00  0.20606456693E+03  0.20606456694E+03  0.25500000000E-02 0. -1.
          2   -1    0    0  501    0  0.00000000000E+00 -0.00000000000E+00 -0.53111593759E+02  0.53111593820E+02  0.25500000000E-02 0.  1.
    5000001    1    1    2    0    0  0.50344108216E+02  0.17010467659E+02  0.13446509282E+03  0.16381009257E+03  0.77000000000E+02 0.  0.
   -5000001    1    1    2    0    0 -0.50344108216E+02 -0.17010467659E+02  0.18487880349E+02  0.95366068189E+02  0.77000000000E+02 0.  0.
<mgrwt>
<rscale>  0 0.20923114E+03</rscale>
<asrwt>0</asrwt>
<pdfrwt beam="1">  1        2 0.75873707E-02 0.20923114E+03</pdfrwt>
<pdfrwt beam="2">  1       -2 0.29437795E-01 0.20923114E+03</pdfrwt>
<totfact> 0.93716033E+03</totfact>
</mgrwt>
</event>
<event>
 4    1  0.1308644E-003  0.7012047E+03  0.7818608E-02  0.9715174E-01
         -2   -1    0    0    0  501 -0.00000000000E+00  0.00000000000E+00  0.83759198719E+02  0.83759198758E+02  0.25500000000E-02 0. -1.
          2   -1    0    0  501    0  0.00000000000E+00 -0.00000000000E+00 -0.14675643753E+04  0.14675643753E+04  0.25500000000E-02 0.  1.
    5000001    1    1    2    0    0 -0.23748875997E+03 -0.22043552878E+03 -0.44954685510E+03  0.55947663793E+03  0.77000000000E+02 0.  0.
   -5000001    1    1    2    0    0  0.23748875997E+03  0.22043552878E+03 -0.93425832152E+03  0.99184693617E+03  0.77000000000E+02 0.  0.
<mgrwt>
<rscale>  0 0.70120472E+03</rscale>
<asrwt>0</asrwt>
<pdfrwt beam="1">  1        2 0.20965204E+00 0.70120472E+03</pdfrwt>
<pdfrwt beam="2">  1       -2 0.11965601E-01 0.70120472E+03</pdfrwt>
<totfact> 0.78655021E+02</totfact>
</mgrwt>
</event>
<event>
 4    1  0.1308644E-003  0.4174869E+03  0.7818608E-02  0.1037887E+00
         -2   -1    0    0    0  501 -0.00000000000E+00  0.00000000000E+00  0.40649147731E+02  0.40649147811E+02  0.25500000000E-02 0. -1.
          2   -1    0    0  501    0  0.00000000000E+00 -0.00000000000E+00 -0.10719492713E+04  0.10719492713E+04  0.25500000000E-02 0.  1.
    5000001    1    1    2    0    0 -0.16386787452E+03 -0.10032958624E+03 -0.44383769303E+03  0.48973421764E+03  0.77000000000E+02 0.  0.
   -5000001    1    1    2    0    0  0.16386787452E+03  0.10032958624E+03 -0.58746243050E+03  0.62286420144E+03  0.77000000000E+02 0.  0.
<mgrwt>
<rscale>  0 0.41748688E+03</rscale>
<asrwt>0</asrwt>
<pdfrwt beam="1">  1        2 0.15313559E+00 0.41748688E+03</pdfrwt>
<pdfrwt beam="2">  1       -2 0.58070218E-02 0.41748688E+03</pdfrwt>
<totfact> 0.41366142E+03</totfact>
</mgrwt>
</event>
<event>
 4    1  0.1308644E-003  0.3147525E+03  0.7818608E-02  0.1078090E+00
         -2   -1    0    0    0  501 -0.00000000000E+00  0.00000000000E+00  0.59013253606E+03  0.59013253606E+03  0.25500000000E-02 0. -1.
          2   -1    0    0  501    0  0.00000000000E+00 -0.00000000000E+00 -0.41969015543E+02  0.41969015620E+02  0.25500000000E-02 0.  1.
    5000001    1    1    2    0    0  0.11623426716E+03 -0.68786986929E+02  0.32311872399E+03  0.35857602294E+03  0.77000000000E+02 0.  0.
   -5000001    1    1    2    0    0 -0.11623426716E+03  0.68786986929E+02  0.22504479652E+03  0.27352552874E+03  0.77000000000E+02 0.  0.
<mgrwt>
<rscale>  0 0.31475248E+03</rscale>
<asrwt>0</asrwt>
<pdfrwt beam="1">  1        2 0.59955739E-02 0.31475248E+03</pdfrwt>
<pdfrwt beam="2">  1       -2 0.84304644E-01 0.31475248E+03</pdfrwt>
<totfact> 0.15726323E+03</totfact>
</mgrwt>
</event>
<event>
 4    1  0.1308644E-003  0.2363787E+03  0.7818608E-02  0.1122229E+00
          2   -1    0    0  501    0  0.00000000000E+00  0.00000000000E+00  0.12617345712E+04  0.12617345712E+04  0.25500000000E-02 0.  1.
         -2   -1    0    0    0  501 -0.00000000000E+00 -0.00000000000E+00 -0.11071048659E+02  0.11071048953E+02  0.25500000000E-02 0. -1.
    5000001    1    1    2    0    0  0.50515628475E+02 -0.69180622967E+02  0.76799201455E+03  0.77658130400E+03  0.77000000000E+02 0.  0.
   -5000001    1    1    2    0    0 -0.50515628475E+02  0.69180622967E+02  0.48267150799E+03  0.49622431615E+03  0.77000000000E+02 0.  0.
<mgrwt>
<rscale>  0 0.23637872E+03</rscale>
<asrwt>0</asrwt>
<pdfrwt beam="1">  1        2 0.18024787E+00 0.23637872E+03</pdfrwt>
<pdfrwt beam="2">  1       -2 0.15815778E-02 0.23637872E+03</pdfrwt>
<totfact> 0.22442739E+04</totfact>
</mgrwt>
</event>
<event>
 4    1  0.1308644E-003  0.1976599E+03  0.7818608E-02  0.1151728E+00
         -2   -1    0    0    0  501 -0.00000000000E+00  0.00000000000E+00  0.39524691210E+02  0.39524691292E+02  0.25500000000E-02 0. -1.
          2   -1    0    0  501    0  0.00000000000E+00 -0.00000000000E+00 -0.24712050946E+03  0.24712050947E+03  0.25500000000E-02 0.  1.
    5000001    1    1    2    0    0 -0.58366022804E+02 -0.11752772263E+01 -0.13388332998E+03  0.16511123505E+03  0.77000000000E+02 0.  0.
   -5000001    1    1    2    0    0  0.58366022804E+02  0.11752772263E+01 -0.73712488270E+02  0.12153396571E+03  0.77000000000E+02 0.  0.
<mgrwt>
<rscale>  0 0.19765993E+03</rscale>
<asrwt>0</asrwt>
<pdfrwt beam="1">  1        2 0.35302929E-01 0.19765993E+03</pdfrwt>
<pdfrwt beam="2">  1       -2 0.56463846E-02 0.19765993E+03</pdfrwt>
<totfact> 0.22927918E+04</totfact>
</mgrwt>
</event>
<event>
 4    1  0.1308644E-003  0.4699900E+03  0.7818608E-02  0.1021923E+00
         -2   -1    0    0    0  501 -0.00000000000E+00  0.00000000000E+00  0.53759007743E+02  0.53759007804E+02  0.25500000000E-02 0. -1.
          2   -1    0    0  501    0  0.00000000000E+00 -0.00000000000E+00 -0.10272262076E+04  0.10272262076E+04  0.25500000000E-02 0.  1.
    5000001    1    1    2    0    0 -0.18693138699E+02  0.20420345768E+03 -0.29095935196E+03  0.36419065069E+03  0.77000000000E+02 0.  0.
   -5000001    1    1    2    0    0  0.18693138699E+02 -0.20420345768E+03 -0.68250784795E+03  0.71679456476E+03  0.77000000000E+02 0.  0.
<mgrwt>
<rscale>  0 0.46999005E+03</rscale>
<asrwt>0</asrwt>
<pdfrwt beam="1">  1        2 0.14674659E+00 0.46999005E+03</pdfrwt>
<pdfrwt beam="2">  1       -2 0.76798589E-02 0.46999005E+03</pdfrwt>
<totfact> 0.28398931E+03</totfact>
</mgrwt>
</event>
<event>
 4    1  0.1308644E-003  0.5388437E+03  0.7818608E-02  0.1004110E+00
         -2   -1    0    0    0  501 -0.00000000000E+00  0.00000000000E+00  0.99738340897E+02  0.99738340930E+02  0.25500000000E-02 0. -1.
          2   -1    0    0  501    0  0.00000000000E+00 -0.00000000000E+00 -0.72778557625E+03  0.72778557626E+03  0.25500000000E-02 0.  1.
    5000001    1    1    2    0    0  0.21767675818E+03 -0.74411895333E+02 -0.13401530620E+03  0.27714509469E+03  0.77000000000E+02 0.  0.
   -5000001    1    1    2    0    0 -0.21767675818E+03  0.74411895333E+02 -0.49403192916E+03  0.55037882249E+03  0.77000000000E+02 0.  0.
<mgrwt>
<rscale>  0 0.53884367E+03</rscale>
<asrwt>0</asrwt>
<pdfrwt beam="1">  1        2 0.10396936E+00 0.53884367E+03</pdfrwt>
<pdfrwt beam="2">  1       -2 0.14248335E-01 0.53884367E+03</pdfrwt>
<totfact> 0.16380126E+03</totfact>
</mgrwt>
</event>
<event>
 4    1  0.1308644E-003  0.3910158E+03  0.7818608E-02  0.1046936E+00
          2   -1    0    0  501    0  0.00000000000E+00  0.00000000000E+00  0.17679604743E+04  0.17679604743E+04  0.25500000000E-02 0.  1.
         -2   -1    0    0    0  501 -0.00000000000E+00 -0.00000000000E+00 -0.21620014566E+02  0.21620014717E+02  0.25500000000E-02 0. -1.
    5000001    1    1    2    0    0 -0.11125601225E+03  0.17191154261E+02  0.15142563630E+04  0.15203863881E+04  0.77000000000E+02 0.  0.
   -5000001    1    1    2    0    0  0.11125601225E+03 -0.17191154261E+02  0.23208409674E+03  0.26919410098E+03  0.77000000000E+02 0.  0.
<mgrwt>
<rscale>  0 0.39101576E+03</rscale>
<asrwt>0</asrwt>
<pdfrwt beam="1">  1        2 0.25256577E+00 0.39101576E+03</pdfrwt>
<pdfrwt beam="2">  1       -2 0.30885736E-02 0.39101576E+03</pdfrwt>
<totfact> 0.46578209E+03</totfact>
</mgrwt>
</event>
<event>
 4    1  0.1308644E-003  0.2420867E+03  0.7818608E-02  0.1118411E+00
          2   -1    0    0  501    0  0.00000000000E+00  0.00000000000E+00  0.50301847340E+03  0.50301847340E+03  0.25500000000E-02 0. -1.
         -2   -1    0    0    0  501 -0.00000000000E+00 -0.00000000000E+00 -0.29127135585E+02  0.29127135696E+02  0.25500000000E-02 0.  1.
    5000001    1    1    2    0    0  0.78994311865E+02 -0.49537207364E+02  0.24867056668E+03  0.27651417134E+03  0.77000000000E+02 0.  0.
   -5000001    1    1    2    0    0 -0.78994311865E+02  0.49537207364E+02  0.22522077113E+03  0.25563143775E+03  0.77000000000E+02 0.  0.
<mgrwt>
<rscale>  0 0.24208666E+03</rscale>
<asrwt>0</asrwt>
<pdfrwt beam="1">  1        2 0.71859781E-01 0.24208666E+03</pdfrwt>
<pdfrwt beam="2">  1       -2 0.41610194E-02 0.24208666E+03</pdfrwt>
<totfact> 0.17141491E+04</totfact>
</mgrwt>
</event>
<event>
 4    1  0.1308644E-003  0.3538088E+03  0.7818608E-02  0.1061063E+00
         -2   -1    0    0    0  501 -0.00000000000E+00  0.00000000000E+00  0.19840467469E+02  0.19840467633E+02  0.25500000000E-02 0.  1.
          2   -1    0    0  501    0  0.00000000000E+00 -0.00000000000E+00 -0.15773406156E+04  0.15773406156E+04  0.25500000000E-02 0. -1.
    5000001    1    1    2    0    0 -0.82224009584E+02  0.95733564119E+02 -0.34013623745E+03  0.37087378322E+03  0.77000000000E+02 0.  0.
   -5000001    1    1    2    0    0  0.82224009584E+02 -0.95733564119E+02 -0.12173639107E+04  0.12263073001E+04  0.77000000000E+02 0.  0.
<mgrwt>
<rscale>  0 0.35380885E+03</rscale>
<asrwt>0</asrwt>
<pdfrwt beam="1">  1        2 0.22533429E+00 0.35380885E+03</pdfrwt>
<pdfrwt beam="2">  1       -2 0.28343535E-02 0.35380885E+03</pdfrwt>
<totfact> 0.65983257E+03</totfact>
</mgrwt>
</event>
<event>
 4    1  0.1308644E-003  0.2353694E+03  0.7818608E-02  0.1122917E+00
         -2   -1    0    0    0  501 -0.00000000000E+00  0.00000000000E+00  0.17346985195E+02  0.17346985382E+02  0.25500000000E-02 0. -1.
          2   -1    0    0  501    0  0.00000000000E+00 -0.00000000000E+00 -0.79839157132E+03  0.79839157132E+03  0.25500000000E-02 0.  1.
    5000001    1    1    2    0    0  0.28076448732E+02 -0.83135889133E+02 -0.44202427795E+03  0.45718084532E+03  0.77000000000E+02 0.  0.
   -5000001    1    1    2    0    0 -0.28076448732E+02  0.83135889133E+02 -0.33902030817E+03  0.35855771138E+03  0.77000000000E+02 0.  0.
<mgrwt>
<rscale>  0 0.23536938E+03</rscale>
<asrwt>0</asrwt>
<pdfrwt beam="1">  1        2 0.11405592E+00 0.23536938E+03</pdfrwt>
<pdfrwt beam="2">  1       -2 0.24781412E-02 0.23536938E+03</pdfrwt>
<totfact> 0.21686830E+04</totfact>
</mgrwt>
</event>
<event>
 4    1  0.1308644E-003  0.2103216E+03  0.7818608E-02  0.1141312E+00
          2   -1    0    0  501    0  0.00000000000E+00  0.00000000000E+00  0.74536336739E+02  0.74536336783E+02  0.25500000000E-02 0.  1.
         -2   -1    0    0    0  501 -0.00000000000E+00 -0.00000000000E+00 -0.14836787645E+03  0.14836787647E+03  0.25500000000E-02 0. -1.
    5000001    1    1    2    0    0  0.55021601687E+02 -0.44575407028E+02 -0.25527974708E+02  0.10768017950E+03  0.77000000000E+02 0.  0.
   -5000001    1    1    2    0    0 -0.55021601687E+02  0.44575407028E+02 -0.48303565005E+02  0.11522403376E+03  0.77000000000E+02 0.  0.
<mgrwt>
<rscale>  0 0.21032164E+03</rscale>
<asrwt>0</asrwt>
<pdfrwt beam="1">  1        2 0.10648048E-01 0.21032164E+03</pdfrwt>
<pdfrwt beam="2">  1       -2 0.21195411E-01 0.21032164E+03</pdfrwt>
<totfact> 0.10933440E+04</totfact>
</mgrwt>
</event>
<event>
 4    1  0.1308644E-003  0.2708268E+03  0.7818608E-02  0.1100807E+00
         -2   -1    0    0    0  501 -0.00000000000E+00  0.00000000000E+00  0.47811882129E+03  0.47811882129E+03  0.25500000000E-02 0. -1.
          2   -1    0    0  501    0  0.00000000000E+00 -0.00000000000E+00 -0.38351956662E+02  0.38351956746E+02  0.25500000000E-02 0.  1.
    5000001    1    1    2    0    0 -0.10431116067E+03 -0.38642698351E+02  0.23095659919E+03  0.26766401903E+03  0.77000000000E+02 0.  0.
   -5000001    1    1    2    0    0  0.10431116067E+03  0.38642698351E+02  0.20881026544E+03  0.24880675901E+03  0.77000000000E+02 0.  0.
<mgrwt>
<rscale>  0 0.27082683E+03</rscale>
<asrwt>0</asrwt>
<pdfrwt beam="1">  1        2 0.54788512E-02 0.27082683E+03</pdfrwt>
<pdfrwt beam="2">  1       -2 0.68302685E-01 0.27082683E+03</pdfrwt>
<totfact> 0.27905703E+03</totfact>
</mgrwt>
</event>
<event>
 4    1  0.1308644E-003  0.2632907E+03  0.7818608E-02  0.1105182E+00
         -2   -1    0    0    0  501 -0.00000000000E+00  0.00000000000E+00  0.10067950978E+02  0.10067951301E+02  0.25500000000E-02 0. -1.
          2   -1    0    0  501    0  0.00000000000E+00 -0.00000000000E+00 -0.17213524784E+04  0.17213524784E+04  0.25500000000E-02 0.  1.
    5000001    1    1    2    0    0 -0.74434889265E+02  0.70206070899E+02 -0.65487813653E+03  0.66728091448E+03  0.77000000000E+02 0.  0.
   -5000001    1    1    2    0    0  0.74434889265E+02 -0.70206070899E+02 -0.10564063909E+04  0.10641395152E+04  0.77000000000E+02 0.  0.
<mgrwt>
<rscale>  0 0.26329066E+03</rscale>
<asrwt>0</asrwt>
<pdfrwt beam="1">  1        2 0.24590731E+00 0.26329066E+03</pdfrwt>
<pdfrwt beam="2">  1       -2 0.14382798E-02 0.26329066E+03</pdfrwt>
<totfact> 0.15151318E+04</totfact>
</mgrwt>
</event>
<event>
 4    1  0.1308644E-003  0.2297705E+03  0.7818608E-02  0.1126801E+00
         -2   -1    0    0    0  501 -0.00000000000E+00  0.00000000000E+00  0.12044406884E+02  0.12044407154E+02  0.25500000000E-02 0. -1.
          2   -1    0    0  501    0  0.00000000000E+00 -0.00000000000E+00 -0.10958297377E+04  0.10958297377E+04  0.25500000000E-02 0.  1.
    5000001    1    1    2    0    0  0.67201556029E+02  0.19956530914E+02 -0.30789045914E+03  0.32502284087E+03  0.77000000000E+02 0.  0.
   -5000001    1    1    2    0    0 -0.67201556029E+02 -0.19956530914E+02 -0.77589487171E+03  0.78285130402E+03  0.77000000000E+02 0.  0.
<mgrwt>
<rscale>  0 0.22977049E+03</rscale>
<asrwt>0</asrwt>
<pdfrwt beam="1">  1        2 0.15654704E+00 0.22977049E+03</pdfrwt>
<pdfrwt beam="2">  1       -2 0.17206303E-02 0.22977049E+03</pdfrwt>
<totfact> 0.24394037E+04</totfact>
</mgrwt>
</event>
<event>
 4    1  0.1308644E-003  0.3966364E+03  0.7818608E-02  0.1044951E+00
          2   -1    0    0  501    0  0.00000000000E+00  0.00000000000E+00  0.47879214407E+03  0.47879214408E+03  0.25500000000E-02 0.  1.
         -2   -1    0    0    0  501 -0.00000000000E+00 -0.00000000000E+00 -0.82144413050E+02  0.82144413089E+02  0.25500000000E-02 0. -1.
    5000001    1    1    2    0    0  0.82353095890E+02  0.14593399970E+03  0.30149835494E+03  0.35342470585E+03  0.77000000000E+02 0.  0.
   -5000001    1    1    2    0    0 -0.82353095890E+02 -0.14593399970E+03  0.95149376080E+02  0.20751185132E+03  0.77000000000E+02 0.  0.
<mgrwt>
<rscale>  0 0.39663636E+03</rscale>
<asrwt>0</asrwt>
<pdfrwt beam="1">  1        2 0.68398881E-01 0.39663636E+03</pdfrwt>
<pdfrwt beam="2">  1       -2 0.11734916E-01 0.39663636E+03</pdfrwt>
<totfact> 0.36659146E+03</totfact>
</mgrwt>
</event>
<event>
 4    1  0.1308644E-003  0.2914742E+03  0.7818608E-02  0.1089582E+00
          2   -1    0    0  501    0  0.00000000000E+00  0.00000000000E+00  0.18206276068E+04  0.18206276068E+04  0.25500000000E-02 0.  1.
         -2   -1    0    0    0  501 -0.00000000000E+00 -0.00000000000E+00 -0.11665921803E+02  0.11665922081E+02  0.25500000000E-02 0. -1.
    5000001    1    1    2    0    0 -0.30647169357E+02 -0.11978737324E+03  0.87497153054E+03  0.88701321469E+03  0.77000000000E+02 0.  0.
   -5000001    1    1    2    0    0  0.30647169357E+02  0.11978737324E+03  0.93399015442E+03  0.94528031416E+03  0.77000000000E+02 0.  0.
<mgrwt>
<rscale>  0 0.29147418E+03</rscale>
<asrwt>0</asrwt>
<pdfrwt beam="1">  1        2 0.26008987E+00 0.29147418E+03</pdfrwt>
<pdfrwt beam="2">  1       -2 0.16665589E-02 0.29147418E+03</pdfrwt>
<totfact> 0.10942093E+04</totfact>
</mgrwt>
</event>
<event>
 4    1  0.1308644E-003  0.4918102E+03  0.7818608E-02  0.1015939E+00
         -2   -1    0    0    0  501 -0.00000000000E+00  0.00000000000E+00  0.38437896852E+03  0.38437896853E+03  0.25500000000E-02 0. -1.
          2   -1    0    0  501    0  0.00000000000E+00 -0.00000000000E+00 -0.15731693531E+03  0.15731693533E+03  0.25500000000E-02 0.  1.
    5000001    1    1    2    0    0  0.23022730064E+03  0.35686350268E+02  0.95696109338E+02  0.26337211488E+03  0.77000000000E+02 0.  0.
   -5000001    1    1    2    0    0 -0.23022730064E+03 -0.35686350268E+02  0.13136592387E+03  0.27832378897E+03  0.77000000000E+02 0.  0.
<mgrwt>
<rscale>  0 0.49181021E+03</rscale>
<asrwt>0</asrwt>
<pdfrwt beam="1">  1        2 0.22473848E-01 0.49181021E+03</pdfrwt>
<pdfrwt beam="2">  1       -2 0.54911281E-01 0.49181021E+03</pdfrwt>
<totfact> 0.77690547E+02</totfact>
</mgrwt>
</event>
<event>
 4    1  0.1308644E-003  0.1607218E+03  0.7818608E-02  0.1187884E+00
         -2   -1    0    0    0  501 -0.00000000000E+00  0.00000000000E+00  0.24121443034E+02  0.24121443169E+02  0.25500000000E-02 0. -1.
          2   -1    0    0  501    0  0.00000000000E+00 -0.00000000000E+00 -0.26772353592E+03  0.26772353593E+03  0.25500000000E-02 0.  1.
    5000001    1    1    2    0    0  0.14188294359E+02 -0.93445492332E+01 -0.93655558737E+02  0.12242953884E+03  0.77000000000E+02 0.  0.
   -5000001    1    1    2    0    0 -0.14188294359E+02  0.93445492332E+01 -0.14994653415E+03  0.16941544027E+03  0.77000000000E+02 0.  0.
<mgrwt>
<rscale>  0 0.16072185E+03</rscale>
<asrwt>0</asrwt>
<pdfrwt beam="1">  1        2 0.38246218E-01 0.16072185E+03</pdfrwt>
<pdfrwt beam="2">  1       -2 0.34459206E-02 0.16072185E+03</pdfrwt>
<totfact> 0.43307799E+04</totfact>
</mgrwt>
</event>
<event>
 4    1  0.1308644E-003  0.4164773E+03  0.7818608E-02  0.1038219E+00
          2   -1    0    0  501    0  0.00000000000E+00  0.00000000000E+00  0.24836284165E+04  0.24836284165E+04  0.25500000000E-02 0.  1.
         -2   -1    0    0    0  501 -0.00000000000E+00 -0.00000000000E+00 -0.17459674378E+02  0.17459674564E+02  0.25500000000E-02 0. -1.
    5000001    1    1    2    0    0 -0.17264573453E+03 -0.41306140809E+02  0.16952067772E+04  0.17062144544E+04  0.77000000000E+02 0.  0.
   -5000001    1    1    2    0    0  0.17264573453E+03  0.41306140809E+02  0.77096196491E+03  0.79487363666E+03  0.77000000000E+02 0.  0.
<mgrwt>
<rscale>  0 0.41647734E+03</rscale>
<asrwt>0</asrwt>
<pdfrwt beam="1">  1        2 0.35480432E+00 0.41647734E+03</pdfrwt>
<pdfrwt beam="2">  1       -2 0.24942374E-02 0.41647734E+03</pdfrwt>
<totfact> 0.28253420E+03</totfact>
</mgrwt>
</event>
<event>
 4    1  0.1308644E-003  0.6119144E+03  0.7818608E-02  0.9880991E-01
         -2   -1    0    0    0  501 -0.00000000000E+00  0.00000000000E+00  0.95725204828E+02  0.95725204862E+02  0.25500000000E-02 0. -1.
          2   -1    0    0  501    0  0.00000000000E+00 -0.00000000000E+00 -0.97790135741E+03  0.97790135741E+03  0.25500000000E-02 0.  1.
    5000001    1    1    2    0    0 -0.29260197310E+03 -0.44941276361E+02 -0.45288070369E+03  0.54650303271E+03  0.77000000000E+02 0.  0.
   -5000001    1    1    2    0    0  0.29260197310E+03  0.44941276361E+02 -0.42929544889E+03  0.52712352957E+03  0.77000000000E+02 0.  0.
<mgrwt>
<rscale>  0 0.61191440E+03</rscale>
<asrwt>0</asrwt>
<pdfrwt beam="1">  1        2 0.13970019E+00 0.61191440E+03</pdfrwt>
<pdfrwt beam="2">  1       -2 0.13675030E-01 0.61191440E+03</pdfrwt>
<totfact> 0.11921217E+03</totfact>
</mgrwt>
</event>
<event>
 4    1  0.1308644E-003  0.2659791E+03  0.7818608E-02  0.1103603E+00
         -2   -1    0    0    0  501 -0.00000000000E+00  0.00000000000E+00  0.23225383970E+02  0.23225384110E+02  0.25500000000E-02 0. -1.
          2   -1    0    0  501    0  0.00000000000E+00 -0.00000000000E+00 -0.76150371044E+03  0.76150371044E+03  0.25500000000E-02 0.  1.
    5000001    1    1    2    0    0  0.45207702813E+02  0.61930225577E+02 -0.14293959390E+03  0.17955449517E+03  0.77000000000E+02 0.  0.
   -5000001    1    1    2    0    0 -0.45207702813E+02 -0.61930225577E+02 -0.59533873257E+03  0.60517459938E+03  0.77000000000E+02 0.  0.
<mgrwt>
<rscale>  0 0.26597907E+03</rscale>
<asrwt>0</asrwt>
<pdfrwt beam="1">  1        2 0.10878623E+00 0.26597907E+03</pdfrwt>
<pdfrwt beam="2">  1       -2 0.33179125E-02 0.26597907E+03</pdfrwt>
<totfact> 0.14996931E+04</totfact>
</mgrwt>
</event>
<event>
 4    1  0.1308644E-003  0.2353228E+03  0.7818608E-02  0.1122948E+00
          2   -1    0    0  501    0  0.00000000000E+00  0.00000000000E+00  0.20064813721E+03  0.20064813722E+03  0.25500000000E-02 0.  1.
         -2   -1    0    0    0  501 -0.00000000000E+00 -0.00000000000E+00 -0.68997434698E+02  0.68997434745E+02  0.25500000000E-02 0. -1.
    5000001    1    1    2    0    0  0.79952199668E+02  0.38970938922E+02  0.63499962045E+02  0.13368744702E+03  0.77000000000E+02 0.  0.
   -5000001    1    1    2    0    0 -0.79952199668E+02 -0.38970938922E+02  0.68150740464E+02  0.13595812494E+03  0.77000000000E+02 0.  0.
<mgrwt>
<rscale>  0 0.23532281E+03</rscale>
<asrwt>0</asrwt>
<pdfrwt beam="1">  1        2 0.28664020E-01 0.23532281E+03</pdfrwt>
<pdfrwt beam="2">  1       -2 0.98567763E-02 0.23532281E+03</pdfrwt>
<totfact> 0.12271602E+04</totfact>
</mgrwt>
</event>
<event>
 4    1  0.1308644E-003  0.1902925E+03  0.7818608E-02  0.1158198E+00
          2   -1    0    0  501    0  0.00000000000E+00  0.00000000000E+00  0.39537378090E+03  0.39537378091E+03  0.25500000000E-02 0.  1.
         -2   -1    0    0    0  501 -0.00000000000E+00 -0.00000000000E+00 -0.22896825084E+02  0.22896825226E+02  0.25500000000E-02 0. -1.
    5000001    1    1    2    0    0 -0.46423428714E+02  0.20258548648E+02  0.23817278641E+03  0.25538367158E+03  0.77000000000E+02 0.  0.
   -5000001    1    1    2    0    0  0.46423428714E+02 -0.20258548648E+02  0.13430416941E+03  0.16288693455E+03  0.77000000000E+02 0.  0.
<mgrwt>
<rscale>  0 0.19029245E+03</rscale>
<asrwt>0</asrwt>
<pdfrwt beam="1">  1        2 0.56481968E-01 0.19029245E+03</pdfrwt>
<pdfrwt beam="2">  1       -2 0.32709751E-02 0.19029245E+03</pdfrwt>
<totfact> 0.31352751E+04</totfact>
</mgrwt>
</event>
<event>
 4    1  0.1308644E-003  0.1612038E+03  0.7818608E-02  0.1187344E+00
         -2   -1    0    0    0  501 -0.00000000000E+00  0.00000000000E+00  0.28652980563E+01  0.28652991910E+01  0.25500000000E-02 0. -1.
          2   -1    0    0  501    0  0.00000000000E+00 -0.00000000000E+00 -0.22673613433E+04  0.22673613433E+04  0.25500000000E-02 0.  1.
    5000001    1    1    2    0    0  0.11148206795E+02  0.17480745657E+02 -0.12975704152E+04  0.13000184004E+04  0.77000000000E+02 0.  0.
   -5000001    1    1    2    0    0 -0.11148206795E+02 -0.17480745657E+02 -0.96692563005E+03  0.97020824209E+03  0.77000000000E+02 0.  0.
<mgrwt>
<rscale>  0 0.16120381E+03</rscale>
<asrwt>0</asrwt>
<pdfrwt beam="1">  1        2 0.32390761E+00 0.16120381E+03</pdfrwt>
<pdfrwt beam="2">  1       -2 0.40932983E-03 0.16120381E+03</pdfrwt>
<totfact> 0.49113207E+04</totfact>
</mgrwt>
</event>
<event>
 4    1  0.1308644E-003  0.1802537E+03  0.7818608E-02  0.1167558E+00
         -2   -1    0    0    0  501 -0.00000000000E+00  0.00000000000E+00  0.10330549073E+03  0.10330549077E+03  0.25500000000E-02 0. -1.
          2   -1    0    0  501    0  0.00000000000E+00 -0.00000000000E+00 -0.78629409644E+02  0.78629409685E+02  0.25500000000E-02 0.  1.
    5000001    1    1    2    0    0  0.42644625760E+02 -0.18842282908E+02  0.77956185517E+01  0.90351355275E+02  0.77000000000E+02 0.  0.
   -5000001    1    1    2    0    0 -0.42644625760E+02  0.18842282908E+02  0.16880462538E+02  0.91583545175E+02  0.77000000000E+02 0.  0.
<mgrwt>
<rscale>  0 0.18025371E+03</rscale>
<asrwt>0</asrwt>
<pdfrwt beam="1">  1        2 0.11232773E-01 0.18025371E+03</pdfrwt>
<pdfrwt beam="2">  1       -2 0.14757927E-01 0.18025371E+03</pdfrwt>
<totfact> 0.18571404E+04</totfact>
</mgrwt>
</event>
<event>
 4    1  0.1308644E-003  0.2061104E+03  0.7818608E-02  0.1144684E+00
         -2   -1    0    0    0  501 -0.00000000000E+00  0.00000000000E+00  0.26289637180E+02  0.26289637304E+02  0.25500000000E-02 0. -1.
          2   -1    0    0  501    0  0.00000000000E+00 -0.00000000000E+00 -0.40397551451E+03  0.40397551452E+03  0.25500000000E-02 0.  1.
    5000001    1    1    2    0    0  0.10381077953E+02  0.35138979394E+02 -0.30964783480E+03  0.32117486864E+03  0.77000000000E+02 0.  0.
   -5000001    1    1    2    0    0 -0.10381077953E+02 -0.35138979394E+02 -0.68038042527E+02  0.10909028318E+03  0.77000000000E+02 0.  0.
<mgrwt>
<rscale>  0 0.20611036E+03</rscale>
<asrwt>0</asrwt>
<pdfrwt beam="1">  1        2 0.57710784E-01 0.20611036E+03</pdfrwt>
<pdfrwt beam="2">  1       -2 0.37556627E-02 0.20611036E+03</pdfrwt>
<totfact> 0.25100622E+04</totfact>
</mgrwt>
</event>
<event>
 4    1  0.1308644E-003  0.2367819E+03  0.7818608E-02  0.1121955E+00
          2   -1    0    0  501    0  0.00000000000E+00  0.00000000000E+00  0.65647948930E+03  0.65647948930E+03  0.25500000000E-02 0.  1.
         -2   -1    0    0    0  501 -0.00000000000E+00 -0.00000000000E+00 -0.21350891194E+02  0.21350891346E+02  0.25500000000E-02 0. -1.
    5000001    1    1    2    0    0 -0.87127144256E+02  0.21990853311E+02  0.32776013644E+03  0.34846871299E+03  0.77000000000E+02 0.  0.
   -5000001    1    1    2    0    0  0.87127144256E+02 -0.21990853311E+02  0.30736846167E+03  0.32936166766E+03  0.77000000000E+02 0.  0.
<mgrwt>
<rscale>  0 0.23678194E+03</rscale>
<asrwt>0</asrwt>
<pdfrwt beam="1">  1        2 0.93782798E-01 0.23678194E+03</pdfrwt>
<pdfrwt beam="2">  1       -2 0.30501269E-02 0.23678194E+03</pdfrwt>
<totfact> 0.20155207E+04</totfact>
</mgrwt>
</event>
<event>
 4    1  0.1308644E-003  0.3515496E+03  0.7818608E-02  0.1061981E+00
         -2   -1    0    0    0  501 -0.00000000000E+00  0.00000000000E+00  0.24954781773E+03  0.24954781775E+03  0.25500000000E-02 0. -1.
          2   -1    0    0  501    0  0.00000000000E+00 -0.00000000000E+00 -0.12381103936E+03  0.12381103939E+03  0.25500000000E-02 0.  1.
    5000001    1    1    2    0    0 -0.11627947735E+03  0.10656743043E+03  0.72957221488E+02  0.19007706397E+03  0.77000000000E+02 0.  0.
   -5000001    1    1    2    0    0  0.11627947735E+03 -0.10656743043E+03  0.52779556881E+02  0.18328179316E+03  0.77000000000E+02 0.  0.
<mgrwt>
<rscale>  0 0.35154957E+03</rscale>
<asrwt>0</asrwt>
<pdfrwt beam="1">  1        2 0.17687291E-01 0.35154957E+03</pdfrwt>
<pdfrwt beam="2">  1       -2 0.35649688E-01 0.35154957E+03</pdfrwt>
<totfact> 0.23901076E+03</totfact>
</mgrwt>
</event>
<event>
 4    1  0.1308644E-003  0.4149027E+03  0.7818608E-02  0.1038738E+00
         -2   -1    0    0    0  501 -0.00000000000E+00  0.00000000000E+00  0.11269294499E+02  0.11269294788E+02  0.25500000000E-02 0. -1.
          2   -1    0    0  501    0  0.00000000000E+00 -0.00000000000E+00 -0.38188789267E+04  0.38188789267E+04  0.25500000000E-02 0.  1.
    5000001    1    1    2    0    0 -0.10946861701E+03  0.85906936245E+02 -0.67412719649E+03  0.69263255544E+03  0.77000000000E+02 0.  0.
   -5000001    1    1    2    0    0  0.10946861701E+03 -0.85906936245E+02 -0.31334824357E+04  0.31375156661E+04  0.77000000000E+02 0.  0.
<mgrwt>
<rscale>  0 0.41490274E+03</rscale>
<asrwt>0</asrwt>
<pdfrwt beam="1">  1        2 0.54555331E+00 0.41490274E+03</pdfrwt>
<pdfrwt beam="2">  1       -2 0.16099017E-02 0.41490274E+03</pdfrwt>
<totfact> 0.98029144E+02</totfact>
</mgrwt>
</event>
<event>
 4    1  0.1308644E-003  0.2063351E+03  0.7818608E-02  0.1144501E+00
          2   -1    0    0  501    0  0.00000000000E+00  0.00000000000E+00  0.47452470318E+02  0.47452470387E+02  0.25500000000E-02 0.  1.
         -2   -1    0    0    0  501 -0.00000000000E+00 -0.00000000000E+00 -0.22429904803E+03  0.22429904804E+03  0.25500000000E-02 0. -1.
    5000001    1    1    2    0    0 -0.66859773702E+02 -0.14970168240E+02 -0.94343913718E+02  0.13972869903E+03  0.77000000000E+02 0.  0.
   -5000001    1    1    2    0    0  0.66859773702E+02  0.14970168240E+02 -0.82502663990E+02  0.13202281940E+03  0.77000000000E+02 0.  0.
<mgrwt>
<rscale>  0 0.20633511E+03</rscale>
<asrwt>0</asrwt>
<pdfrwt beam="1">  1        2 0.67789244E-02 0.20633511E+03</pdfrwt>
<pdfrwt beam="2">  1       -2 0.32042721E-01 0.20633511E+03</pdfrwt>
<totfact> 0.92701738E+03</totfact>
</mgrwt>
</event>
<event>
 4    1  0.1308644E-003  0.2614785E+03  0.7818608E-02  0.1106258E+00
         -2   -1    0    0    0  501 -0.00000000000E+00  0.00000000000E+00  0.81943293860E+01  0.81943297828E+01  0.25500000000E-02 0. -1.
          2   -1    0    0  501    0  0.00000000000E+00 -0.00000000000E+00 -0.20859241623E+04  0.20859241623E+04  0.25500000000E-02 0.  1.
    5000001    1    1    2    0    0  0.32616399546E+02  0.98100383481E+02 -0.86409121452E+03  0.87365333043E+03  0.77000000000E+02 0.  0.
   -5000001    1    1    2    0    0 -0.32616399546E+02 -0.98100383481E+02 -0.12136386184E+04  0.12204651617E+04  0.77000000000E+02 0.  0.
<mgrwt>
<rscale>  0 0.26147849E+03</rscale>
<asrwt>0</asrwt>
<pdfrwt beam="1">  1        2 0.29798883E+00 0.26147849E+03</pdfrwt>
<pdfrwt beam="2">  1       -2 0.11706198E-02 0.26147849E+03</pdfrwt>
<totfact> 0.13577564E+04</totfact>
</mgrwt>
</event>
<event>
 4    1  0.1308644E-003  0.1116116E+04  0.7818608E-02  0.9189625E-01
         -2   -1    0    0    0  501 -0.00000000000E+00  0.00000000000E+00  0.16018936509E+03  0.16018936511E+03  0.25500000000E-02 0. -1.
          2   -1    0    0  501    0  0.00000000000E+00 -0.00000000000E+00 -0.19441286648E+04  0.19441286648E+04  0.25500000000E-02 0.  1.
    5000001    1    1    2    0    0 -0.97512046628E+02  0.52672483648E+03 -0.63516765767E+03  0.83445467579E+03  0.77000000000E+02 0.  0.
   -5000001    1    1    2    0    0  0.97512046628E+02 -0.52672483648E+03 -0.11487716421E+04  0.12698633541E+04  0.77000000000E+02 0.  0.
<mgrwt>
<rscale>  0 0.11161160E+04</rscale>
<asrwt>0</asrwt>
<pdfrwt beam="1">  1        2 0.27773265E+00 0.11161160E+04</pdfrwt>
<pdfrwt beam="2">  1       -2 0.22884196E-01 0.11161160E+04</pdfrwt>
<totfact> 0.14314104E+02</totfact>
</mgrwt>
</event>
<event>
 4    1  0.1308644E-003  0.2206573E+03  0.7818608E-02  0.1133394E+00
          2   -1    0    0  501    0  0.00000000000E+00  0.00000000000E+00  0.14026333340E+04  0.14026333340E+04  0.25500000000E-02 0.  1.
         -2   -1    0    0    0  501 -0.00000000000E+00 -0.00000000000E+00 -0.86782575363E+01  0.86782579110E+01  0.25500000000E-02 0. -1.
    5000001    1    1    2    0    0 -0.68059759071E+02  0.40066389278E+02  0.71260146998E+03  0.72108758231E+03  0.77000000000E+02 0.  0.
   -5000001    1    1    2    0    0  0.68059759071E+02 -0.40066389278E+02  0.68135360650E+03  0.69022400962E+03  0.77000000000E+02 0.  0.
<mgrwt>
<rscale>  0 0.22065732E+03</rscale>
<asrwt>0</asrwt>
<pdfrwt beam="1">  1        2 0.20037612E+00 0.22065732E+03</pdfrwt>
<pdfrwt beam="2">  1       -2 0.12397515E-02 0.22065732E+03</pdfrwt>
<totfact> 0.26926530E+04</totfact>
</mgrwt>
</event>
<event>
 4    1  0.1308644E-003  0.4926198E+03  0.7818608E-02  0.1015723E+00
         -2   -1    0    0    0  501 -0.00000000000E+00  0.00000000000E+00  0.50688847310E+02  0.50688847374E+02  0.25500000000E-02 0. -1.
          2   -1    0    0  501    0  0.00000000000E+00 -0.00000000000E+00 -0.11968820415E+04  0.11968820415E+04  0.25500000000E-02 0.  1.
    5000001    1    1    2    0    0  0.18363723244E+02 -0.20613434330E+03 -0.29670358965E+03  0.36985215145E+03  0.77000000000E+02 0.  0.
   -5000001    1    1    2    0    0 -0.18363723244E+02  0.20613434330E+03 -0.84948960457E+03  0.87771873746E+03  0.77000000000E+02 0.  0.
<mgrwt>
<rscale>  0 0.49261982E+03</rscale>
<asrwt>0</asrwt>
<pdfrwt beam="1">  1        2 0.17098313E+00 0.49261982E+03</pdfrwt>
<pdfrwt beam="2">  1       -2 0.72412647E-02 0.49261982E+03</pdfrwt>
<totfact> 0.24893979E+03</totfact>
</mgrwt>
</event>
<event>
 4    1  0.1308644E-003  0.2188995E+03  0.7818608E-02  0.1134706E+00
         -2   -1    0    0    0  501 -0.00000000000E+00  0.00000000000E+00  0.47518443033E+02  0.47518443101E+02  0.25500000000E-02 0. -1.
          2   -1    0    0  501    0  0.00000000000E+00 -0.00000000000E+00 -0.25209685762E+03  0.25209685763E+03  0.25500000000E-02 0.  1.
    5000001    1    1    2    0    0 -0.36971310448E+02 -0.66887775073E+02 -0.82482815471E+02  0.13628377416E+03  0.77000000000E+02 0.  0.
   -5000001    1    1    2    0    0  0.36971310448E+02  0.66887775073E+02 -0.12209559912E+03  0.16333152658E+03  0.77000000000E+02 0.  0.
<mgrwt>
<rscale>  0 0.21889952E+03</rscale>
<asrwt>0</asrwt>
<pdfrwt beam="1">  1        2 0.36013836E-01 0.21889952E+03</pdfrwt>
<pdfrwt beam="2">  1       -2 0.67883492E-02 0.21889952E+03</pdfrwt>
<totfact> 0.17053443E+04</totfact>
</mgrwt>
</event>
<event>
 4    1  0.1308644E-003  0.2237589E+03  0.7818608E-02  0.1131111E+00
          2   -1    0    0  501    0  0.00000000000E+00  0.00000000000E+00  0.75710753507E+03  0.75710753508E+03  0.25500000000E-02 0.  1.
         -2   -1    0    0    0  501 -0.00000000000E+00 -0.00000000000E+00 -0.16532677553E+02  0.16532677750E+02  0.25500000000E-02 0. -1.
    5000001    1    1    2    0    0 -0.23770130859E+00  0.76728760576E+02  0.46180636505E+03  0.47442752661E+03  0.77000000000E+02 0.  0.
   -5000001    1    1    2    0    0  0.23770130859E+00 -0.76728760576E+02  0.27876849247E+03  0.29921268622E+03  0.77000000000E+02 0.  0.
<mgrwt>
<rscale>  0 0.22375893E+03</rscale>
<asrwt>0</asrwt>
<pdfrwt beam="1">  1        2 0.10815822E+00 0.22375893E+03</pdfrwt>
<pdfrwt beam="2">  1       -2 0.23618111E-02 0.22375893E+03</pdfrwt>
<totfact> 0.24759859E+04</totfact>
</mgrwt>
</event>
<event>
 4    1  0.1308644E-003  0.3421236E+03  0.7818608E-02  0.1065895E+00
         -2   -1    0    0    0  501 -0.00000000000E+00  0.00000000000E+00  0.13164806527E+02  0.13164806773E+02  0.25500000000E-02 0. -1.
          2   -1    0    0  501    0  0.00000000000E+00 -0.00000000000E+00 -0.22227544823E+04  0.22227544823E+04  0.25500000000E-02 0.  1.
    5000001    1    1    2    0    0  0.14956052990E+03 -0.20668462058E+02 -0.95326401705E+03  0.96821321187E+03  0.77000000000E+02 0.  0.
   -5000001    1    1    2    0    0 -0.14956052990E+03  0.20668462058E+02 -0.12563256587E+04  0.12677060772E+04  0.77000000000E+02 0.  0.
<mgrwt>
<rscale>  0 0.34212356E+03</rscale>
<asrwt>0</asrwt>
<pdfrwt beam="1">  1        2 0.31753612E+00 0.34212356E+03</pdfrwt>
<pdfrwt beam="2">  1       -2 0.18806881E-02 0.34212356E+03</pdfrwt>
<totfact> 0.58199197E+03</totfact>
</mgrwt>
</event>
<event>
 4    1  0.1308644E-003  0.3048825E+03  0.7818608E-02  0.1082825E+00
          2   -1    0    0  501    0  0.00000000000E+00  0.00000000000E+00  0.71860738960E+02  0.71860739006E+02  0.25500000000E-02 0.  1.
         -2   -1    0    0    0  501 -0.00000000000E+00 -0.00000000000E+00 -0.32338010675E+03  0.32338010676E+03  0.25500000000E-02 0. -1.
    5000001    1    1    2    0    0 -0.10678241484E+03  0.21648697367E+01 -0.22535408448E+03  0.26099929918E+03  0.77000000000E+02 0.  0.
   -5000001    1    1    2    0    0  0.10678241484E+03 -0.21648697367E+01 -0.26165283308E+02  0.13424154659E+03  0.77000000000E+02 0.  0.
<mgrwt>
<rscale>  0 0.30488249E+03</rscale>
<asrwt>0</asrwt>
<pdfrwt beam="1">  1        2 0.10265820E-01 0.30488249E+03</pdfrwt>
<pdfrwt beam="2">  1       -2 0.46197157E-01 0.30488249E+03</pdfrwt>
<totfact> 0.27906176E+03</totfact>
</mgrwt>
</event>
<event>
 4    1  0.1308644E-003  0.2035996E+03  0.7818608E-02  0.1146737E+00
         -2   -1    0    0    0  501 -0.00000000000E+00  0.00000000000E+00  0.31647959193E+02  0.31647959295E+02  0.25500000000E-02 0. -1.
          2   -1    0    0  501    0  0.00000000000E+00 -0.00000000000E+00 -0.32745251885E+03  0.32745251886E+03  0.25500000000E-02 0.  1.
    5000001    1    1    2    0    0 -0.20437761183E+02  0.40105465529E+01 -0.36346617546E+02  0.87657647543E+02  0.77000000000E+02 0.  0.
   -5000001    1    1    2    0    0  0.20437761183E+02 -0.40105465529E+01 -0.25945794211E+03  0.27144283061E+03  0.77000000000E+02 0.  0.
<mgrwt>
<rscale>  0 0.20359965E+03</rscale>
<asrwt>0</asrwt>
<pdfrwt beam="1">  1        2 0.46778929E-01 0.20359965E+03</pdfrwt>
<pdfrwt beam="2">  1       -2 0.45211372E-02 0.20359965E+03</pdfrwt>
<totfact> 0.23784568E+04</totfact>
</mgrwt>
</event>
<event>
 4    1  0.1308644E-003  0.3300631E+03  0.7818608E-02  0.1071109E+00
         -2   -1    0    0    0  501 -0.00000000000E+00  0.00000000000E+00  0.55628810815E+02  0.55628810874E+02  0.25500000000E-02 0. -1.
          2   -1    0    0  501    0  0.00000000000E+00 -0.00000000000E+00 -0.48959195759E+03  0.48959195759E+03  0.25500000000E-02 0.  1.
    5000001    1    1    2    0    0  0.65054928529E+00  0.14488190522E+03 -0.24630996619E+03  0.29595403211E+03  0.77000000000E+02 0.  0.
   -5000001    1    1    2    0    0 -0.65054928529E+00 -0.14488190522E+03 -0.18765318058E+03  0.24926673636E+03  0.77000000000E+02 0.  0.
<mgrwt>
<rscale>  0 0.33006314E+03</rscale>
<asrwt>0</asrwt>
<pdfrwt beam="1">  1        2 0.69941706E-01 0.33006314E+03</pdfrwt>
<pdfrwt beam="2">  1       -2 0.79469733E-02 0.33006314E+03</pdfrwt>
<totfact> 0.66341995E+03</totfact>
</mgrwt>
</event>
<event>
 4    1  0.1308644E-003  0.2876859E+03  0.7818608E-02  0.1091564E+00
          2   -1    0    0  501    0  0.00000000000E+00  0.00000000000E+00  0.16307548103E+04  0.16307548103E+04  0.25500000000E-02 0.  1.
         -2   -1    0    0    0  501 -0.00000000000E+00 -0.00000000000E+00 -0.12687865199E+02  0.12687865455E+02  0.25500000000E-02 0. -1.
    5000001    1    1    2    0    0 -0.92337038114E+02  0.68372312803E+02  0.58333798004E+03  0.59951071777E+03  0.77000000000E+02 0.  0.
   -5000001    1    1    2    0    0  0.92337038114E+02 -0.68372312803E+02  0.10347289650E+04  0.10439319580E+04  0.77000000000E+02 0.  0.
<mgrwt>
<rscale>  0 0.28768592E+03</rscale>
<asrwt>0</asrwt>
<pdfrwt beam="1">  1        2 0.23296505E+00 0.28768592E+03</pdfrwt>
<pdfrwt beam="2">  1       -2 0.18125516E-02 0.28768592E+03</pdfrwt>
<totfact> 0.11997801E+04</totfact>
</mgrwt>
</event>
<event>
 4    1  0.1308644E-003  0.3769558E+03  0.7818608E-02  0.1052065E+00
          2   -1    0    0  501    0  0.00000000000E+00  0.00000000000E+00  0.60008901471E+02  0.60008901525E+02  0.25500000000E-02 0.  1.
         -2   -1    0    0    0  501 -0.00000000000E+00 -0.00000000000E+00 -0.59197736887E+03  0.59197736887E+03  0.25500000000E-02 0. -1.
    5000001    1    1    2    0    0 -0.75865244939E+02  0.58605439940E+02 -0.51305081629E+03  0.52757963672E+03  0.77000000000E+02 0.  0.
   -5000001    1    1    2    0    0  0.75865244939E+02 -0.58605439940E+02 -0.18917651102E+02  0.12440663368E+03  0.77000000000E+02 0.  0.
<mgrwt>
<rscale>  0 0.37695576E+03</rscale>
<asrwt>0</asrwt>
<pdfrwt beam="1">  1        2 0.85727006E-02 0.37695576E+03</pdfrwt>
<pdfrwt beam="2">  1       -2 0.84568192E-01 0.37695576E+03</pdfrwt>
<totfact> 0.98661585E+02</totfact>
</mgrwt>
</event>
<event>
 4    1  0.1308644E-003  0.2183848E+03  0.7818608E-02  0.1135093E+00
         -2   -1    0    0    0  501 -0.00000000000E+00  0.00000000000E+00  0.85145941730E+02  0.85145941769E+02  0.25500000000E-02 0. -1.
          2   -1    0    0  501    0  0.00000000000E+00 -0.00000000000E+00 -0.14002991857E+03  0.14002991860E+03  0.25500000000E-02 0.  1.
    5000001    1    1    2    0    0  0.42692489211E+02  0.40465997218E+02 -0.79344514660E+02  0.12523856264E+03  0.77000000000E+02 0.  0.
   -5000001    1    1    2    0    0 -0.42692489211E+02 -0.40465997218E+02  0.24460537818E+02  0.99937297723E+02  0.77000000000E+02 0.  0.
<mgrwt>
<rscale>  0 0.21838479E+03</rscale>
<asrwt>0</asrwt>
<pdfrwt beam="1">  1        2 0.20004274E-01 0.21838479E+03</pdfrwt>
<pdfrwt beam="2">  1       -2 0.12163706E-01 0.21838479E+03</pdfrwt>
<totfact> 0.13057577E+04</totfact>
</mgrwt>
</event>
<event>
 4    1  0.1308644E-003  0.2458520E+03  0.7818608E-02  0.1115955E+00
          2   -1    0    0  501    0  0.00000000000E+00  0.00000000000E+00  0.13641088767E+04  0.13641088767E+04  0.25500000000E-02 0.  1.
         -2   -1    0    0    0  501 -0.00000000000E+00 -0.00000000000E+00 -0.11077415098E+02  0.11077415392E+02  0.25500000000E-02 0. -1.
    5000001    1    1    2    0    0  0.66517220111E+02  0.45401513792E+02  0.96694790258E+03  0.97334633319E+03  0.77000000000E+02 0.  0.
   -5000001    1    1    2    0    0 -0.66517220111E+02 -0.45401513792E+02  0.38608355899E+03  0.40183995888E+03  0.77000000000E+02 0.  0.
<mgrwt>
<rscale>  0 0.24585199E+03</rscale>
<asrwt>0</asrwt>
<pdfrwt beam="1">  1        2 0.19487267E+00 0.24585199E+03</pdfrwt>
<pdfrwt beam="2">  1       -2 0.15824881E-02 0.24585199E+03</pdfrwt>
<totfact> 0.19860262E+04</totfact>
</mgrwt>
</event>
<event>
 4    1  0.1308644E-003  0.2715927E+03  0.7818608E-02  0.1100372E+00
         -2   -1    0    0    0  501 -0.00000000000E+00  0.00000000000E+00  0.11420893125E+04  0.11420893125E+04  0.25500000000E-02 0. -1.
          2   -1    0    0  501    0  0.00000000000E+00 -0.00000000000E+00 -0.16146414185E+02  0.16146414387E+02  0.25500000000E-02 0.  1.
    5000001    1    1    2    0    0  0.36790034563E+02  0.94495551875E+02  0.36164180269E+03  0.38340149898E+03  0.77000000000E+02 0.  0.
   -5000001    1    1    2    0    0 -0.36790034563E+02 -0.94495551875E+02  0.76430109566E+03  0.77483422795E+03  0.77000000000E+02 0.  0.
<mgrwt>
<rscale>  0 0.27159269E+03</rscale>
<asrwt>0</asrwt>
<pdfrwt beam="1">  1        2 0.23066298E-02 0.27159269E+03</pdfrwt>
<pdfrwt beam="2">  1       -2 0.16315567E+00 0.27159269E+03</pdfrwt>
<totfact> 0.11430796E+03</totfact>
</mgrwt>
</event>
<event>
 4    1  0.1308644E-003  0.3318051E+03  0.7818608E-02  0.1070341E+00
         -2   -1    0    0    0  501 -0.00000000000E+00  0.00000000000E+00  0.30735187917E+03  0.30735187918E+03  0.25500000000E-02 0. -1.
          2   -1    0    0  501    0  0.00000000000E+00 -0.00000000000E+00 -0.89550967696E+02  0.89550967732E+02  0.25500000000E-02 0.  1.
    5000001    1    1    2    0    0  0.12729224020E+03  0.54478998818E+02  0.16778646496E+03  0.23076519137E+03  0.77000000000E+02 0.  0.
   -5000001    1    1    2    0    0 -0.12729224020E+03 -0.54478998818E+02  0.50014446513E+02  0.16613765554E+03  0.77000000000E+02 0.  0.
<mgrwt>
<rscale>  0 0.33180511E+03</rscale>
<asrwt>0</asrwt>
<pdfrwt beam="1">  1        2 0.12792996E-01 0.33180511E+03</pdfrwt>
<pdfrwt beam="2">  1       -2 0.43907411E-01 0.33180511E+03</pdfrwt>
<totfact> 0.23572657E+03</totfact>
</mgrwt>
</event>
<event>
 4    1  0.1308644E-003  0.3110996E+03  0.7818608E-02  0.1079820E+00
         -2   -1    0    0    0  501 -0.00000000000E+00  0.00000000000E+00  0.12531888615E+02  0.12531888874E+02  0.25500000000E-02 0. -1.
          2   -1    0    0  501    0  0.00000000000E+00 -0.00000000000E+00 -0.19307341749E+04  0.19307341749E+04  0.25500000000E-02 0.  1.
    5000001    1    1    2    0    0  0.89555140699E+02  0.96251889608E+02 -0.76333754794E+03  0.77839434837E+03  0.77000000000E+02 0.  0.
   -5000001    1    1    2    0    0 -0.89555140699E+02 -0.96251889608E+02 -0.11548647383E+04  0.11648717154E+04  0.77000000000E+02 0.  0.
<mgrwt>
<rscale>  0 0.31109964E+03</rscale>
<asrwt>0</asrwt>
<pdfrwt beam="1">  1        2 0.27581898E+00 0.31109964E+03</pdfrwt>
<pdfrwt beam="2">  1       -2 0.17902711E-02 0.31109964E+03</pdfrwt>
<totfact> 0.87059193E+03</totfact>
</mgrwt>
</event>
<event>
 4    1  0.1308644E-003  0.2061553E+03  0.7818608E-02  0.1144647E+00
         -2   -1    0    0    0  501 -0.00000000000E+00  0.00000000000E+00  0.24193566134E+02  0.24193566268E+02  0.25500000000E-02 0. -1.
          2   -1    0    0  501    0  0.00000000000E+00 -0.00000000000E+00 -0.43916642383E+03  0.43916642384E+03  0.25500000000E-02 0.  1.
    5000001    1    1    2    0    0  0.15557916678E+02 -0.65405826535E+02 -0.17766567296E+03  0.20497332086E+03  0.77000000000E+02 0.  0.
   -5000001    1    1    2    0    0 -0.15557916678E+02  0.65405826535E+02 -0.23730718474E+03  0.25838666925E+03  0.77000000000E+02 0.  0.
<mgrwt>
<rscale>  0 0.20615530E+03</rscale>
<asrwt>0</asrwt>
<pdfrwt beam="1">  1        2 0.62738055E-01 0.20615530E+03</pdfrwt>
<pdfrwt beam="2">  1       -2 0.34562240E-02 0.20615530E+03</pdfrwt>
<totfact> 0.25963933E+04</totfact>
</mgrwt>
</event>
<event>
 4    1  0.1308644E-003  0.2192500E+03  0.7818608E-02  0.1134443E+00
         -2   -1    0    0    0  501 -0.00000000000E+00  0.00000000000E+00  0.29145153473E+02  0.29145153584E+02  0.25500000000E-02 0. -1.
          2   -1    0    0  501    0  0.00000000000E+00 -0.00000000000E+00 -0.41233761274E+03  0.41233761275E+03  0.25500000000E-02 0.  1.
    5000001    1    1    2    0    0 -0.73838889422E+02 -0.21677309706E+02 -0.21758309165E+03  0.24329712107E+03  0.77000000000E+02 0.  0.
   -5000001    1    1    2    0    0  0.73838889422E+02  0.21677309706E+02 -0.16560936762E+03  0.19818564527E+03  0.77000000000E+02 0.  0.
<mgrwt>
<rscale>  0 0.21925002E+03</rscale>
<asrwt>0</asrwt>
<pdfrwt beam="1">  1        2 0.58905370E-01 0.21925002E+03</pdfrwt>
<pdfrwt beam="2">  1       -2 0.41635936E-02 0.21925002E+03</pdfrwt>
<totfact> 0.21134642E+04</totfact>
</mgrwt>
</event>
<event>
 4    1  0.1308644E-003  0.4634315E+03  0.7818608E-02  0.1023791E+00
          2   -1    0    0  501    0  0.00000000000E+00  0.00000000000E+00  0.88495191601E+03  0.88495191602E+03  0.25500000000E-02 0.  1.
         -2   -1    0    0    0  501 -0.00000000000E+00 -0.00000000000E+00 -0.60672433652E+02  0.60672433705E+02  0.25500000000E-02 0. -1.
    5000001    1    1    2    0    0 -0.14927380434E+03 -0.45507402479E+02  0.99941790473E+02  0.20067624131E+03  0.77000000000E+02 0.  0.
   -5000001    1    1    2    0    0  0.14927380434E+03  0.45507402479E+02  0.72433769189E+03  0.74494810842E+03  0.77000000000E+02 0.  0.
<mgrwt>
<rscale>  0 0.46343149E+03</rscale>
<asrwt>0</asrwt>
<pdfrwt beam="1">  1        2 0.12642169E+00 0.46343149E+03</pdfrwt>
<pdfrwt beam="2">  1       -2 0.86674913E-02 0.46343149E+03</pdfrwt>
<totfact> 0.28706155E+03</totfact>
</mgrwt>
</event>
<event>
 4    1  0.1308644E-003  0.3362908E+03  0.7818608E-02  0.1068387E+00
          2   -1    0    0  501    0  0.00000000000E+00  0.00000000000E+00  0.55131803375E+03  0.55131803375E+03  0.25500000000E-02 0.  1.
         -2   -1    0    0    0  501 -0.00000000000E+00 -0.00000000000E+00 -0.51282332441E+02  0.51282332504E+02  0.25500000000E-02 0. -1.
    5000001    1    1    2    0    0 -0.10655581511E+03 -0.28615488484E+02  0.43073269232E+03  0.45125673419E+03  0.77000000000E+02 0.  0.
   -5000001    1    1    2    0    0  0.10655581511E+03  0.28615488484E+02  0.69303008985E+02  0.15134363207E+03  0.77000000000E+02 0.  0.
<mgrwt>
<rscale>  0 0.33629080E+03</rscale>
<asrwt>0</asrwt>
<pdfrwt beam="1">  1        2 0.78759723E-01 0.33629080E+03</pdfrwt>
<pdfrwt beam="2">  1       -2 0.73260471E-02 0.33629080E+03</pdfrwt>
<totfact> 0.65998387E+03</totfact>
</mgrwt>
</event>
<event>
 4    1  0.1308644E-003  0.3903402E+03  0.7818608E-02  0.1047177E+00
         -2   -1    0    0    0  501 -0.00000000000E+00  0.00000000000E+00  0.29288266376E+02  0.29288266487E+02  0.25500000000E-02 0. -1.
          2   -1    0    0  501    0  0.00000000000E+00 -0.00000000000E+00 -0.13005674591E+04  0.13005674591E+04  0.25500000000E-02 0.  1.
    5000001    1    1    2    0    0  0.15309775451E+03 -0.92474832702E+02 -0.59097792875E+03  0.62223342034E+03  0.77000000000E+02 0.  0.
   -5000001    1    1    2    0    0 -0.15309775451E+03  0.92474832702E+02 -0.68030126400E+03  0.70762230528E+03  0.77000000000E+02 0.  0.
<mgrwt>
<rscale>  0 0.39034019E+03</rscale>
<asrwt>0</asrwt>
<pdfrwt beam="1">  1        2 0.18579532E+00 0.39034019E+03</pdfrwt>
<pdfrwt beam="2">  1       -2 0.41840389E-02 0.39034019E+03</pdfrwt>
<totfact> 0.51046185E+03</totfact>
</mgrwt>
</event>
<event>
 4    1  0.1308644E-003  0.2137925E+03  0.7818608E-02  0.1138597E+00
         -2   -1    0    0    0  501 -0.00000000000E+00  0.00000000000E+00  0.35077220012E+02  0.35077220105E+02  0.25500000000E-02 0. -1.
          2   -1    0    0  501    0  0.00000000000E+00 -0.00000000000E+00 -0.32576150693E+03  0.32576150694E+03  0.25500000000E-02 0.  1.
    5000001    1    1    2    0    0  0.27017682697E+02 -0.60070354590E+02 -0.20281176505E+03  0.22671571344E+03  0.77000000000E+02 0.  0.
   -5000001    1    1    2    0    0 -0.27017682697E+02  0.60070354590E+02 -0.87872521871E+02  0.13412301361E+03  0.77000000000E+02 0.  0.
<mgrwt>
<rscale>  0 0.21379250E+03</rscale>
<asrwt>0</asrwt>
<pdfrwt beam="1">  1        2 0.46537356E-01 0.21379250E+03</pdfrwt>
<pdfrwt beam="2">  1       -2 0.50110316E-02 0.21379250E+03</pdfrwt>
<totfact> 0.20550477E+04</totfact>
</mgrwt>
</event>
<event>
 4    1  0.1308644E-003  0.2543085E+03  0.7818608E-02  0.1110612E+00
          2   -1    0    0  501    0  0.00000000000E+00  0.00000000000E+00  0.97662625644E+03  0.97662625644E+03  0.25500000000E-02 0.  1.
         -2   -1    0    0    0  501 -0.00000000000E+00 -0.00000000000E+00 -0.16555157445E+02  0.16555157641E+02  0.25500000000E-02 0. -1.
    5000001    1    1    2    0    0 -0.98862243649E+02  0.52424517801E+01  0.56176760127E+03  0.57559800587E+03  0.77000000000E+02 0.  0.
   -5000001    1    1    2    0    0  0.98862243649E+02 -0.52424517801E+01  0.39830349773E+03  0.41758340822E+03  0.77000000000E+02 0.  0.
<mgrwt>
<rscale>  0 0.25430849E+03</rscale>
<asrwt>0</asrwt>
<pdfrwt beam="1">  1        2 0.13951805E+00 0.25430849E+03</pdfrwt>
<pdfrwt beam="2">  1       -2 0.23650223E-02 0.25430849E+03</pdfrwt>
<totfact> 0.18013514E+04</totfact>
</mgrwt>
</event>
<event>
 4    1  0.1308644E-003  0.2037196E+03  0.7818608E-02  0.1146638E+00
         -2   -1    0    0    0  501 -0.00000000000E+00  0.00000000000E+00  0.82807470507E+01  0.82807474433E+01  0.25500000000E-02 0. -1.
          2   -1    0    0  501    0  0.00000000000E+00 -0.00000000000E+00 -0.12529569511E+04  0.12529569511E+04  0.25500000000E-02 0.  1.
    5000001    1    1    2    0    0  0.24610301068E+02  0.61885195999E+02 -0.60182767232E+03  0.61037774498E+03  0.77000000000E+02 0.  0.
   -5000001    1    1    2    0    0 -0.24610301068E+02 -0.61885195999E+02 -0.64284853168E+03  0.65085995352E+03  0.77000000000E+02 0.  0.
<mgrwt>
<rscale>  0 0.20371961E+03</rscale>
<asrwt>0</asrwt>
<pdfrwt beam="1">  1        2 0.17899373E+00 0.20371961E+03</pdfrwt>
<pdfrwt beam="2">  1       -2 0.11829647E-02 0.20371961E+03</pdfrwt>
<totfact> 0.34292980E+04</totfact>
</mgrwt>
</event>
<event>
 4    1  0.1308644E-003  0.2261593E+03  0.7818608E-02  0.1129373E+00
          2   -1    0    0  501    0  0.00000000000E+00  0.00000000000E+00  0.13797469216E+02  0.13797469452E+02  0.25500000000E-02 0.  1.
         -2   -1    0    0    0  501 -0.00000000000E+00 -0.00000000000E+00 -0.92676480472E+03  0.92676480473E+03  0.25500000000E-02 0. -1.
    5000001    1    1    2    0    0 -0.42992764515E+02  0.66447797366E+02 -0.55787101478E+03  0.56869390423E+03  0.77000000000E+02 0.  0.
   -5000001    1    1    2    0    0  0.42992764515E+02 -0.66447797366E+02 -0.35509632072E+03  0.37186836995E+03  0.77000000000E+02 0.  0.
<mgrwt>
<rscale>  0 0.22615932E+03</rscale>
<asrwt>0</asrwt>
<pdfrwt beam="1">  1        2 0.19710676E-02 0.22615932E+03</pdfrwt>
<pdfrwt beam="2">  1       -2 0.13239493E+00 0.22615932E+03</pdfrwt>
<totfact> 0.24099398E+03</totfact>
</mgrwt>
</event>
<event>
 4    1  0.1308644E-003  0.2611468E+03  0.7818608E-02  0.1106456E+00
          2   -1    0    0  501    0  0.00000000000E+00  0.00000000000E+00  0.33794867974E+04  0.33794867974E+04  0.25500000000E-02 0.  1.
         -2   -1    0    0    0  501 -0.00000000000E+00 -0.00000000000E+00 -0.50449702189E+01  0.50449708633E+01  0.25500000000E-02 0. -1.
    5000001    1    1    2    0    0  0.92229712862E+02  0.33650251901E+02  0.11883345205E+04  0.11948667675E+04  0.77000000000E+02 0.  0.
   -5000001    1    1    2    0    0 -0.92229712862E+02 -0.33650251901E+02  0.21861073066E+04  0.21896650008E+04  0.77000000000E+02 0.  0.
<mgrwt>
<rscale>  0 0.26114679E+03</rscale>
<asrwt>0</asrwt>
<pdfrwt beam="1">  1        2 0.48278525E+00 0.26114679E+03</pdfrwt>
<pdfrwt beam="2">  1       -2 0.72070796E-03 0.26114679E+03</pdfrwt>
<totfact> 0.59050012E+03</totfact>
</mgrwt>
</event>
<event>
 4    1  0.1308644E-003  0.2046626E+03  0.7818608E-02  0.1145864E+00
         -2   -1    0    0    0  501 -0.00000000000E+00  0.00000000000E+00  0.92027039071E+01  0.92027042604E+01  0.25500000000E-02 0. -1.
          2   -1    0    0  501    0  0.00000000000E+00 -0.00000000000E+00 -0.11378932112E+04  0.11378932112E+04  0.25500000000E-02 0.  1.
    5000001    1    1    2    0    0  0.64887442921E+02  0.17694406924E+02 -0.53977197958E+03  0.54936896730E+03  0.77000000000E+02 0.  0.
   -5000001    1    1    2    0    0 -0.64887442921E+02 -0.17694406924E+02 -0.58891852772E+03  0.59772694817E+03  0.77000000000E+02 0.  0.
<mgrwt>
<rscale>  0 0.20466260E+03</rscale>
<asrwt>0</asrwt>
<pdfrwt beam="1">  1        2 0.16255608E+00 0.20466260E+03</pdfrwt>
<pdfrwt beam="2">  1       -2 0.13146727E-02 0.20466260E+03</pdfrwt>
<totfact> 0.33953682E+04</totfact>
</mgrwt>
</event>
<event>
 4    1  0.1308644E-003  0.2224995E+03  0.7818608E-02  0.1132033E+00
         -2   -1    0    0    0  501 -0.00000000000E+00  0.00000000000E+00  0.35008767559E+03  0.35008767560E+03  0.25500000000E-02 0. -1.
          2   -1    0    0  501    0  0.00000000000E+00 -0.00000000000E+00 -0.35352584075E+02  0.35352584167E+02  0.25500000000E-02 0.  1.
    5000001    1    1    2    0    0  0.31824570233E+02  0.23877111527E+02  0.27819091783E+03  0.29137966039E+03  0.77000000000E+02 0.  0.
   -5000001    1    1    2    0    0 -0.31824570233E+02 -0.23877111527E+02  0.36544173691E+02  0.94060599382E+02  0.77000000000E+02 0.  0.
<mgrwt>
<rscale>  0 0.22249947E+03</rscale>
<asrwt>0</asrwt>
<pdfrwt beam="1">  1        2 0.50503691E-02 0.22249947E+03</pdfrwt>
<pdfrwt beam="2">  1       -2 0.50012526E-01 0.22249947E+03</pdfrwt>
<totfact> 0.58467722E+03</totfact>
</mgrwt>
</event>
<event>
 4    1  0.1308644E-003  0.2405884E+03  0.7818608E-02  0.1119401E+00
         -2   -1    0    0    0  501 -0.00000000000E+00  0.00000000000E+00  0.60313958078E+01  0.60313963469E+01  0.25500000000E-02 0. -1.
          2   -1    0    0  501    0  0.00000000000E+00 -0.00000000000E+00 -0.23992289786E+04  0.23992289786E+04  0.25500000000E-02 0.  1.
    5000001    1    1    2    0    0  0.89324010141E+02 -0.22080293556E+02 -0.12833991359E+04  0.12889952134E+04  0.77000000000E+02 0.  0.
   -5000001    1    1    2    0    0 -0.89324010141E+02  0.22080293556E+02 -0.11097984468E+04  0.11162651615E+04  0.77000000000E+02 0.  0.
<mgrwt>
<rscale>  0 0.24058845E+03</rscale>
<asrwt>0</asrwt>
<pdfrwt beam="1">  1        2 0.34274639E+00 0.24058845E+03</pdfrwt>
<pdfrwt beam="2">  1       -2 0.86162954E-03 0.24058845E+03</pdfrwt>
<totfact> 0.14850188E+04</totfact>
</mgrwt>
</event>
<event>
 4    1  0.1308644E-003  0.2712486E+03  0.7818608E-02  0.1100567E+00
         -2   -1    0    0    0  501 -0.00000000000E+00  0.00000000000E+00  0.50359037996E+01  0.50359044452E+01  0.25500000000E-02 0.  1.
          2   -1    0    0  501    0  0.00000000000E+00 -0.00000000000E+00 -0.36525625801E+04  0.36525625802E+04  0.25500000000E-02 0. -1.
    5000001    1    1    2    0    0  0.33986947534E+01  0.11005027701E+03 -0.20732558566E+04  0.20776047414E+04  0.77000000000E+02 0.  0.
   -5000001    1    1    2    0    0 -0.33986947534E+01 -0.11005027701E+03 -0.15742708198E+04  0.15799937432E+04  0.77000000000E+02 0.  0.
<mgrwt>
<rscale>  0 0.27124863E+03</rscale>
<asrwt>0</asrwt>
<pdfrwt beam="1">  1        2 0.52179296E+00 0.27124863E+03</pdfrwt>
<pdfrwt beam="2">  1       -2 0.71941721E-03 0.27124863E+03</pdfrwt>
<totfact> 0.41047343E+03</totfact>
</mgrwt>
</event>
<event>
 4    1  0.1308644E-003  0.1910069E+03  0.7818608E-02  0.1157556E+00
          2   -1    0    0  501    0  0.00000000000E+00  0.00000000000E+00  0.21777707495E+02  0.21777707644E+02  0.25500000000E-02 0.  1.
         -2   -1    0    0    0  501 -0.00000000000E+00 -0.00000000000E+00 -0.41881875643E+03  0.41881875643E+03  0.25500000000E-02 0. -1.
    5000001    1    1    2    0    0 -0.11387094319E+02 -0.53853864196E+02 -0.22788077999E+03  0.24675606273E+03  0.77000000000E+02 0.  0.
   -5000001    1    1    2    0    0  0.11387094319E+02  0.53853864196E+02 -0.16916026894E+03  0.19384040135E+03  0.77000000000E+02 0.  0.
<mgrwt>
<rscale>  0 0.19100694E+03</rscale>
<asrwt>0</asrwt>
<pdfrwt beam="1">  1        2 0.31111013E-02 0.19100694E+03</pdfrwt>
<pdfrwt beam="2">  1       -2 0.59831246E-01 0.19100694E+03</pdfrwt>
<totfact> 0.76876750E+03</totfact>
</mgrwt>
</event>
<event>
 4    1  0.1308644E-003  0.6667068E+03  0.7818608E-02  0.9775925E-01
          2   -1    0    0  501    0  0.00000000000E+00  0.00000000000E+00  0.72957476643E+03  0.72957476643E+03  0.25500000000E-02 0.  1.
         -2   -1    0    0    0  501 -0.00000000000E+00 -0.00000000000E+00 -0.15231405597E+03  0.15231405599E+03  0.25500000000E-02 0. -1.
    5000001    1    1    2    0    0  0.13121372513E+03  0.29109578168E+03  0.36394251353E+03  0.49024172500E+03  0.77000000000E+02 0.  0.
   -5000001    1    1    2    0    0 -0.13121372513E+03 -0.29109578168E+03  0.21331819693E+03  0.39164709742E+03  0.77000000000E+02 0.  0.
<mgrwt>
<rscale>  0 0.66670681E+03</rscale>
<asrwt>0</asrwt>
<pdfrwt beam="1">  1        2 0.10422497E+00 0.66670681E+03</pdfrwt>
<pdfrwt beam="2">  1       -2 0.21759150E-01 0.66670681E+03</pdfrwt>
<totfact> 0.78848266E+02</totfact>
</mgrwt>
</event>
<event>
 4    1  0.1308644E-003  0.2588936E+03  0.7818608E-02  0.1107810E+00
          2   -1    0    0  501    0  0.00000000000E+00  0.00000000000E+00  0.13741144978E+04  0.13741144978E+04  0.25500000000E-02 0.  1.
         -2   -1    0    0    0  501 -0.00000000000E+00 -0.00000000000E+00 -0.12194382899E+02  0.12194383166E+02  0.25500000000E-02 0. -1.
    5000001    1    1    2    0    0  0.64898707476E+02 -0.61700553200E+02  0.96474517137E+03  0.97194703878E+03  0.77000000000E+02 0.  0.
   -5000001    1    1    2    0    0 -0.64898707476E+02  0.61700553200E+02  0.39717494349E+03  0.41436184216E+03  0.77000000000E+02 0.  0.
<mgrwt>
<rscale>  0 0.25889363E+03</rscale>
<asrwt>0</asrwt>
<pdfrwt beam="1">  1        2 0.19630196E+00 0.25889363E+03</pdfrwt>
<pdfrwt beam="2">  1       -2 0.17420557E-02 0.25889363E+03</pdfrwt>
<totfact> 0.17088730E+04</totfact>
</mgrwt>
</event>
<event>
 4    1  0.1308644E-003  0.2099554E+03  0.7818608E-02  0.1141601E+00
         -2   -1    0    0    0  501 -0.00000000000E+00  0.00000000000E+00  0.49414183245E+03  0.49414183246E+03  0.25500000000E-02 0. -1.
          2   -1    0    0  501    0  0.00000000000E+00 -0.00000000000E+00 -0.22301942067E+02  0.22301942213E+02  0.25500000000E-02 0.  1.
    5000001    1    1    2    0    0 -0.11191860795E+02  0.69526571762E+02  0.26419355220E+03  0.28405357761E+03  0.77000000000E+02 0.  0.
   -5000001    1    1    2    0    0  0.11191860795E+02 -0.69526571762E+02  0.20764633818E+03  0.23239019706E+03  0.77000000000E+02 0.  0.
<mgrwt>
<rscale>  0 0.20995545E+03</rscale>
<asrwt>0</asrwt>
<pdfrwt beam="1">  1        2 0.31859920E-02 0.20995545E+03</pdfrwt>
<pdfrwt beam="2">  1       -2 0.70591684E-01 0.20995545E+03</pdfrwt>
<totfact> 0.52946928E+03</totfact>
</mgrwt>
</event>
<event>
 4    1  0.1308644E-003  0.2433904E+03  0.7818608E-02  0.1117555E+00
          2   -1    0    0  501    0  0.00000000000E+00  0.00000000000E+00  0.17032303071E+04  0.17032303071E+04  0.25500000000E-02 0.  1.
         -2   -1    0    0    0  501 -0.00000000000E+00 -0.00000000000E+00 -0.86950806007E+01  0.86950809746E+01  0.25500000000E-02 0. -1.
    5000001    1    1    2    0    0  0.90566993103E+02 -0.21707652850E+02  0.94849433639E+03  0.95616113108E+03  0.77000000000E+02 0.  0.
   -5000001    1    1    2    0    0 -0.90566993103E+02  0.21707652850E+02  0.74604089008E+03  0.75576425696E+03  0.77000000000E+02 0.  0.
<mgrwt>
<rscale>  0 0.24339043E+03</rscale>
<asrwt>0</asrwt>
<pdfrwt beam="1">  1        2 0.24331859E+00 0.24339043E+03</pdfrwt>
<pdfrwt beam="2">  1       -2 0.12421545E-02 0.24339043E+03</pdfrwt>
<totfact> 0.19096336E+04</totfact>
</mgrwt>
</event>
<event>
 4    1  0.1308644E-003  0.2781445E+03  0.7818608E-02  0.1096707E+00
          2   -1    0    0  501    0  0.00000000000E+00  0.00000000000E+00  0.81883894796E+03  0.81883894797E+03  0.25500000000E-02 0.  1.
         -2   -1    0    0    0  501 -0.00000000000E+00 -0.00000000000E+00 -0.23620138413E+02  0.23620138551E+02  0.25500000000E-02 0. -1.
    5000001    1    1    2    0    0 -0.45637720384E+02  0.10560181489E+03  0.43796762365E+03  0.45932470453E+03  0.77000000000E+02 0.  0.
   -5000001    1    1    2    0    0  0.45637720384E+02 -0.10560181489E+03  0.35725118590E+03  0.38313438199E+03  0.77000000000E+02 0.  0.
<mgrwt>
<rscale>  0 0.27814449E+03</rscale>
<asrwt>0</asrwt>
<pdfrwt beam="1">  1        2 0.11697698E+00 0.27814449E+03</pdfrwt>
<pdfrwt beam="2">  1       -2 0.33743059E-02 0.27814449E+03</pdfrwt>
<totfact> 0.13398071E+04</totfact>
</mgrwt>
</event>
<event>
 4    1  0.1308644E-003  0.2261899E+03  0.7818608E-02  0.1129351E+00
         -2   -1    0    0    0  501 -0.00000000000E+00  0.00000000000E+00  0.24555533829E+02  0.24555533962E+02  0.25500000000E-02 0. -1.
          2   -1    0    0  501    0  0.00000000000E+00 -0.00000000000E+00 -0.52087920115E+03  0.52087920115E+03  0.25500000000E-02 0.  1.
    5000001    1    1    2    0    0 -0.59332223006E+02  0.29996044654E+02 -0.36731026022E+03  0.38113764265E+03  0.77000000000E+02 0.  0.
   -5000001    1    1    2    0    0  0.59332223006E+02 -0.29996044654E+02 -0.12901340710E+03  0.16429709247E+03  0.77000000000E+02 0.  0.
<mgrwt>
<rscale>  0 0.22618989E+03</rscale>
<asrwt>0</asrwt>
<pdfrwt beam="1">  1        2 0.74411308E-01 0.22618989E+03</pdfrwt>
<pdfrwt beam="2">  1       -2 0.35079337E-02 0.22618989E+03</pdfrwt>
<totfact> 0.21209687E+04</totfact>
</mgrwt>
</event>
<event>
 4    1  0.1308644E-003  0.2598569E+03  0.7818608E-02  0.1107229E+00
          2   -1    0    0  501    0  0.00000000000E+00  0.00000000000E+00  0.11193042569E+04  0.11193042569E+04  0.25500000000E-02 0.  1.
         -2   -1    0    0    0  501 -0.00000000000E+00 -0.00000000000E+00 -0.15082048079E+02  0.15082048295E+02  0.25500000000E-02 0. -1.
    5000001    1    1    2    0    0 -0.53823836349E+02 -0.87040696807E+02  0.64768430039E+03  0.66022499289E+03  0.77000000000E+02 0.  0.
   -5000001    1    1    2    0    0  0.53823836349E+02  0.87040696807E+02  0.45653790846E+03  0.47416131234E+03  0.77000000000E+02 0.  0.
<mgrwt>
<rscale>  0 0.25985689E+03</rscale>
<asrwt>0</asrwt>
<pdfrwt beam="1">  1        2 0.15990058E+00 0.25985689E+03</pdfrwt>
<pdfrwt beam="2">  1       -2 0.21545787E-02 0.25985689E+03</pdfrwt>
<totfact> 0.17120271E+04</totfact>
</mgrwt>
</event>
<event>
 4    1  0.1308644E-003  0.4278135E+03  0.7818608E-02  0.1034553E+00
          2   -1    0    0  501    0  0.00000000000E+00  0.00000000000E+00  0.42058551998E+04  0.42058551998E+04  0.25500000000E-02 0.  1.
         -2   -1    0    0    0  501 -0.00000000000E+00 -0.00000000000E+00 -0.10879144404E+02  0.10879144702E+02  0.25500000000E-02 0. -1.
    5000001    1    1    2    0    0  0.11172246990E+02 -0.18811128271E+03  0.27450542850E+04  0.27525919969E+04  0.77000000000E+02 0.  0.
   -5000001    1    1    2    0    0 -0.11172246990E+02  0.18811128271E+03  0.14499217705E+04  0.14641423477E+04  0.77000000000E+02 0.  0.
<mgrwt>
<rscale>  0 0.42781354E+03</rscale>
<asrwt>0</asrwt>
<pdfrwt beam="1">  1        2 0.60083583E+00 0.42781354E+03</pdfrwt>
<pdfrwt beam="2">  1       -2 0.15541651E-02 0.42781354E+03</pdfrwt>
<totfact> 0.57078439E+02</totfact>
</mgrwt>
</event>
<event>
 4    1  0.1308644E-003  0.2670418E+03  0.7818608E-02  0.1102985E+00
          2   -1    0    0  501    0  0.00000000000E+00  0.00000000000E+00  0.24955032460E+04  0.24955032460E+04  0.25500000000E-02 0. -1.
         -2   -1    0    0    0  501 -0.00000000000E+00 -0.00000000000E+00 -0.71439843067E+01  0.71439847618E+01  0.25500000000E-02 0.  1.
    5000001    1    1    2    0    0 -0.28437525506E+02  0.51131287536E+02  0.38138187323E+03  0.39345169291E+03  0.77000000000E+02 0.  0.
   -5000001    1    1    2    0    0  0.28437525506E+02 -0.51131287536E+02  0.21069773885E+04  0.21091955379E+04  0.77000000000E+02 0.  0.
<mgrwt>
<rscale>  0 0.26704184E+03</rscale>
<asrwt>0</asrwt>
<pdfrwt beam="1">  1        2 0.35650077E+00 0.26704184E+03</pdfrwt>
<pdfrwt beam="2">  1       -2 0.10205684E-02 0.26704184E+03</pdfrwt>
<totfact> 0.10428803E+04</totfact>
</mgrwt>
</event>
<event>
 4    1  0.1308644E-003  0.4452883E+03  0.7818608E-02  0.1029137E+00
         -2   -1    0    0    0  501 -0.00000000000E+00  0.00000000000E+00  0.86469285805E+02  0.86469285842E+02  0.25500000000E-02 0. -1.
          2   -1    0    0  501    0  0.00000000000E+00 -0.00000000000E+00 -0.57327185824E+03  0.57327185825E+03  0.25500000000E-02 0.  1.
    5000001    1    1    2    0    0 -0.20149448753E+03 -0.53728187559E+02 -0.22497560854E+03  0.31627483473E+03  0.77000000000E+02 0.  0.
   -5000001    1    1    2    0    0  0.20149448753E+03  0.53728187559E+02 -0.26182696390E+03  0.34346630936E+03  0.77000000000E+02 0.  0.
<mgrwt>
<rscale>  0 0.44528826E+03</rscale>
<asrwt>0</asrwt>
<pdfrwt beam="1">  1        2 0.81895978E-01 0.44528826E+03</pdfrwt>
<pdfrwt beam="2">  1       -2 0.12352755E-01 0.44528826E+03</pdfrwt>
<totfact> 0.27536276E+03</totfact>
</mgrwt>
</event>
<event>
 4    1  0.1308644E-003  0.2281747E+03  0.7818608E-02  0.1127931E+00
         -2   -1    0    0    0  501 -0.00000000000E+00  0.00000000000E+00  0.14460698305E+02  0.14460698530E+02  0.25500000000E-02 0. -1.
          2   -1    0    0  501    0  0.00000000000E+00 -0.00000000000E+00 -0.90008970790E+03  0.90008970791E+03  0.25500000000E-02 0.  1.
    5000001    1    1    2    0    0 -0.59499435731E+02  0.57885108896E+02 -0.49893628571E+03  0.51162221011E+03  0.77000000000E+02 0.  0.
   -5000001    1    1    2    0    0  0.59499435731E+02 -0.57885108896E+02 -0.38669272389E+03  0.40292819633E+03  0.77000000000E+02 0.  0.
<mgrwt>
<rscale>  0 0.22817472E+03</rscale>
<asrwt>0</asrwt>
<pdfrwt beam="1">  1        2 0.12858421E+00 0.22817472E+03</pdfrwt>
<pdfrwt beam="2">  1       -2 0.20658146E-02 0.22817472E+03</pdfrwt>
<totfact> 0.24328027E+04</totfact>
</mgrwt>
</event>
<event>
 4    1  0.1308644E-003  0.3215097E+03  0.7818608E-02  0.1074957E+00
         -2   -1    0    0    0  501 -0.00000000000E+00  0.00000000000E+00  0.11052169949E+02  0.11052170243E+02  0.25500000000E-02 0. -1.
          2   -1    0    0  501    0  0.00000000000E+00 -0.00000000000E+00 -0.23381945903E+04  0.23381945903E+04  0.25500000000E-02 0.  1.
    5000001    1    1    2    0    0 -0.12303881424E+03 -0.67370669851E+02 -0.10513754663E+04  0.10634832994E+04  0.77000000000E+02 0.  0.
   -5000001    1    1    2    0    0  0.12303881424E+03  0.67370669851E+02 -0.12757669540E+04  0.12857634611E+04  0.77000000000E+02 0.  0.
<mgrwt>
<rscale>  0 0.32150972E+03</rscale>
<asrwt>0</asrwt>
<pdfrwt beam="1">  1        2 0.33402748E+00 0.32150972E+03</pdfrwt>
<pdfrwt beam="2">  1       -2 0.15788829E-02 0.32150972E+03</pdfrwt>
<totfact> 0.66049419E+03</totfact>
</mgrwt>
</event>
<event>
 4    1  0.1308644E-003  0.4193962E+03  0.7818608E-02  0.1037263E+00
         -2   -1    0    0    0  501 -0.00000000000E+00  0.00000000000E+00  0.50841729191E+02  0.50841729254E+02  0.25500000000E-02 0. -1.
          2   -1    0    0  501    0  0.00000000000E+00 -0.00000000000E+00 -0.86490542149E+03  0.86490542150E+03  0.25500000000E-02 0.  1.
    5000001    1    1    2    0    0 -0.17207950104E+03 -0.39105187397E+02 -0.58845495331E+03  0.61915167967E+03  0.77000000000E+02 0.  0.
   -5000001    1    1    2    0    0  0.17207950104E+03  0.39105187397E+02 -0.22560873899E+03  0.29659547108E+03  0.77000000000E+02 0.  0.
<mgrwt>
<rscale>  0 0.41939617E+03</rscale>
<asrwt>0</asrwt>
<pdfrwt beam="1">  1        2 0.12355791E+00 0.41939617E+03</pdfrwt>
<pdfrwt beam="2">  1       -2 0.72631047E-02 0.41939617E+03</pdfrwt>
<totfact> 0.39085758E+03</totfact>
</mgrwt>
</event>
<event>
 4    1  0.1308644E-003  0.2155374E+03  0.7818608E-02  0.1137254E+00
         -2   -1    0    0    0  501 -0.00000000000E+00  0.00000000000E+00  0.74389981922E+01  0.74389986293E+01  0.25500000000E-02 0. -1.
          2   -1    0    0  501    0  0.00000000000E+00 -0.00000000000E+00 -0.15612447631E+04  0.15612447631E+04  0.25500000000E-02 0.  1.
    5000001    1    1    2    0    0 -0.13820503318E+02  0.54258328571E+02 -0.40937237776E+03  0.42029717606E+03  0.77000000000E+02 0.  0.
   -5000001    1    1    2    0    0  0.13820503318E+02 -0.54258328571E+02 -0.11444333872E+04  0.11483865857E+04  0.77000000000E+02 0.  0.
<mgrwt>
<rscale>  0 0.21553744E+03</rscale>
<asrwt>0</asrwt>
<pdfrwt beam="1">  1        2 0.22303476E+00 0.21553744E+03</pdfrwt>
<pdfrwt beam="2">  1       -2 0.10627151E-02 0.21553744E+03</pdfrwt>
<totfact> 0.27977470E+04</totfact>
</mgrwt>
</event>
<event>
 4    1  0.1308644E-003  0.3412996E+03  0.7818608E-02  0.1066244E+00
          2   -1    0    0  501    0  0.00000000000E+00  0.00000000000E+00  0.73117804648E+03  0.73117804648E+03  0.25500000000E-02 0.  1.
         -2   -1    0    0    0  501 -0.00000000000E+00 -0.00000000000E+00 -0.39827982992E+02  0.39827983073E+02  0.25500000000E-02 0. -1.
    5000001    1    1    2    0    0 -0.12814195388E+03 -0.81819717594E+02  0.32578526113E+03  0.36766814236E+03  0.77000000000E+02 0.  0.
   -5000001    1    1    2    0    0  0.12814195388E+03  0.81819717594E+02  0.36556480235E+03  0.40333788720E+03  0.77000000000E+02 0.  0.
<mgrwt>
<rscale>  0 0.34129956E+03</rscale>
<asrwt>0</asrwt>
<pdfrwt beam="1">  1        2 0.10445400E+00 0.34129956E+03</pdfrwt>
<pdfrwt beam="2">  1       -2 0.56897121E-02 0.34129956E+03</pdfrwt>
<totfact> 0.70234888E+03</totfact>
</mgrwt>
</event>
<event>
 4    1  0.1308644E-003  0.3298364E+03  0.7818608E-02  0.1071209E+00
          2   -1    0    0  501    0  0.00000000000E+00  0.00000000000E+00  0.13127507219E+03  0.13127507222E+03  0.25500000000E-02 0.  1.
         -2   -1    0    0    0  501 -0.00000000000E+00 -0.00000000000E+00 -0.20718339156E+03  0.20718339157E+03  0.25500000000E-02 0. -1.
    5000001    1    1    2    0    0 -0.86867421197E+02 -0.74640109721E+02 -0.13060230540E+03  0.19000804462E+03  0.77000000000E+02 0.  0.
   -5000001    1    1    2    0    0  0.86867421197E+02  0.74640109721E+02  0.54693986032E+02  0.14845041917E+03  0.77000000000E+02 0.  0.
<mgrwt>
<rscale>  0 0.32983641E+03</rscale>
<asrwt>0</asrwt>
<pdfrwt beam="1">  1        2 0.18753582E-01 0.32983641E+03</pdfrwt>
<pdfrwt beam="2">  1       -2 0.29597627E-01 0.32983641E+03</pdfrwt>
<totfact> 0.31448615E+03</totfact>
</mgrwt>
</event>
<event>
 4    1  0.1308644E-003  0.2658688E+03  0.7818608E-02  0.1103668E+00
         -2   -1    0    0    0  501 -0.00000000000E+00  0.00000000000E+00  0.34285284944E+02  0.34285285039E+02  0.25500000000E-02 0. -1.
          2   -1    0    0  501    0  0.00000000000E+00 -0.00000000000E+00 -0.51542692562E+03  0.51542692562E+03  0.25500000000E-02 0.  1.
    5000001    1    1    2    0    0 -0.15739365496E+02  0.99187763606E+02 -0.15641594717E+03  0.20119862973E+03  0.77000000000E+02 0.  0.
   -5000001    1    1    2    0    0  0.15739365496E+02 -0.99187763606E+02 -0.32472569350E+03  0.34851358093E+03  0.77000000000E+02 0.  0.
<mgrwt>
<rscale>  0 0.26586883E+03</rscale>
<asrwt>0</asrwt>
<pdfrwt beam="1">  1        2 0.73632413E-01 0.26586883E+03</pdfrwt>
<pdfrwt beam="2">  1       -2 0.48978982E-02 0.26586883E+03</pdfrwt>
<totfact> 0.13106432E+04</totfact>
</mgrwt>
</event>
<event>
 4    1  0.1308644E-003  0.5184379E+03  0.7818608E-02  0.1009075E+00
         -2   -1    0    0    0  501 -0.00000000000E+00  0.00000000000E+00  0.10177034618E+03  0.10177034621E+03  0.25500000000E-02 0. -1.
          2   -1    0    0  501    0  0.00000000000E+00 -0.00000000000E+00 -0.66025585523E+03  0.66025585523E+03  0.25500000000E-02 0.  1.
    5000001    1    1    2    0    0  0.21939810369E+03 -0.11168063490E+03 -0.24155678468E+03  0.35339322622E+03  0.77000000000E+02 0.  0.
   -5000001    1    1    2    0    0 -0.21939810369E+03  0.11168063490E+03 -0.31692872436E+03  0.40863297522E+03  0.77000000000E+02 0.  0.
<mgrwt>
<rscale>  0 0.51843791E+03</rscale>
<asrwt>0</asrwt>
<pdfrwt beam="1">  1        2 0.94322263E-01 0.51843791E+03</pdfrwt>
<pdfrwt beam="2">  1       -2 0.14538621E-01 0.51843791E+03</pdfrwt>
<totfact> 0.17827137E+03</totfact>
</mgrwt>
</event>
<event>
 4    1  0.1308644E-003  0.2206741E+03  0.7818608E-02  0.1133381E+00
         -2   -1    0    0    0  501 -0.00000000000E+00  0.00000000000E+00  0.24275587559E+02  0.24275587693E+02  0.25500000000E-02 0. -1.
          2   -1    0    0  501    0  0.00000000000E+00 -0.00000000000E+00 -0.50150236915E+03  0.50150236916E+03  0.25500000000E-02 0.  1.
    5000001    1    1    2    0    0  0.23763055454E+02  0.75208257613E+02 -0.22686838627E+03  0.25222852636E+03  0.77000000000E+02 0.  0.
   -5000001    1    1    2    0    0 -0.23763055454E+02 -0.75208257613E+02 -0.25035839532E+03  0.27354943050E+03  0.77000000000E+02 0.  0.
<mgrwt>
<rscale>  0 0.22067410E+03</rscale>
<asrwt>0</asrwt>
<pdfrwt beam="1">  1        2 0.71643189E-01 0.22067410E+03</pdfrwt>
<pdfrwt beam="2">  1       -2 0.34679414E-02 0.22067410E+03</pdfrwt>
<totfact> 0.22460562E+04</totfact>
</mgrwt>
</event>
<event>
 4    1  0.1308644E-003  0.3476657E+03  0.7818608E-02  0.1063577E+00
         -2   -1    0    0    0  501 -0.00000000000E+00  0.00000000000E+00  0.16255513522E+02  0.16255513722E+02  0.25500000000E-02 0. -1.
          2   -1    0    0  501    0  0.00000000000E+00 -0.00000000000E+00 -0.18589296506E+04  0.18589296506E+04  0.25500000000E-02 0.  1.
    5000001    1    1    2    0    0 -0.19498443697E+02 -0.12565440558E+03 -0.14073531645E+04  0.14151823729E+04  0.77000000000E+02 0.  0.
   -5000001    1    1    2    0    0  0.19498443697E+02  0.12565440558E+03 -0.43532097257E+03  0.46000279141E+03  0.77000000000E+02 0.  0.
<mgrwt>
<rscale>  0 0.34766568E+03</rscale>
<asrwt>0</asrwt>
<pdfrwt beam="1">  1        2 0.26556124E+00 0.34766568E+03</pdfrwt>
<pdfrwt beam="2">  1       -2 0.23222174E-02 0.34766568E+03</pdfrwt>
<totfact> 0.64310007E+03</totfact>
</mgrwt>
</event>
<event>
 4    1  0.1308644E-003  0.3851001E+03  0.7818608E-02  0.1049065E+00
         -2   -1    0    0    0  501 -0.00000000000E+00  0.00000000000E+00  0.74099320560E+02  0.74099320604E+02  0.25500000000E-02 0. -1.
          2   -1    0    0  501    0  0.00000000000E+00 -0.00000000000E+00 -0.50034892730E+03  0.50034892731E+03  0.25500000000E-02 0.  1.
    5000001    1    1    2    0    0 -0.65362443353E+02  0.64005453765E+02  0.12003964403E+02  0.12017504847E+03  0.77000000000E+02 0.  0.
   -5000001    1    1    2    0    0  0.65362443353E+02 -0.64005453765E+02 -0.43825357114E+03  0.45427319944E+03  0.77000000000E+02 0.  0.
<mgrwt>
<rscale>  0 0.38510007E+03</rscale>
<asrwt>0</asrwt>
<pdfrwt beam="1">  1        2 0.71478416E-01 0.38510007E+03</pdfrwt>
<pdfrwt beam="2">  1       -2 0.10585618E-01 0.38510007E+03</pdfrwt>
<totfact> 0.41210883E+03</totfact>
</mgrwt>
</event>
<event>
 4    1  0.1308644E-003  0.3569396E+03  0.7818608E-02  0.1059802E+00
          2   -1    0    0  501    0  0.00000000000E+00  0.00000000000E+00  0.43920132011E+03  0.43920132011E+03  0.25500000000E-02 0.  1.
         -2   -1    0    0    0  501 -0.00000000000E+00 -0.00000000000E+00 -0.72521339352E+02  0.72521339397E+02  0.25500000000E-02 0. -1.
    5000001    1    1    2    0    0  0.63648324490E+02  0.14659723194E+03  0.21130920262E+03  0.27590294803E+03  0.77000000000E+02 0.  0.
   -5000001    1    1    2    0    0 -0.63648324490E+02 -0.14659723194E+03  0.15537077814E+03  0.23581971148E+03  0.77000000000E+02 0.  0.
<mgrwt>
<rscale>  0 0.35693959E+03</rscale>
<asrwt>0</asrwt>
<pdfrwt beam="1">  1        2 0.62743046E-01 0.35693959E+03</pdfrwt>
<pdfrwt beam="2">  1       -2 0.10360191E-01 0.35693959E+03</pdfrwt>
<totfact> 0.49217202E+03</totfact>
</mgrwt>
</event>
<event>
 4    1  0.1308644E-003  0.1836184E+03  0.7818608E-02  0.1164346E+00
          2   -1    0    0  501    0  0.00000000000E+00  0.00000000000E+00  0.63303885475E+03  0.63303885475E+03  0.25500000000E-02 0.  1.
         -2   -1    0    0    0  501 -0.00000000000E+00 -0.00000000000E+00 -0.13315024088E+02  0.13315024332E+02  0.25500000000E-02 0. -1.
    5000001    1    1    2    0    0 -0.33410540454E+01  0.31431856309E+02  0.44623105773E+03  0.45392761661E+03  0.77000000000E+02 0.  0.
   -5000001    1    1    2    0    0  0.33410540454E+01 -0.31431856309E+02  0.17349277293E+03  0.19242626248E+03  0.77000000000E+02 0.  0.
<mgrwt>
<rscale>  0 0.18361838E+03</rscale>
<asrwt>0</asrwt>
<pdfrwt beam="1">  1        2 0.90434122E-01 0.18361838E+03</pdfrwt>
<pdfrwt beam="2">  1       -2 0.19021463E-02 0.18361838E+03</pdfrwt>
<totfact> 0.41322936E+04</totfact>
</mgrwt>
</event>
<event>
 4    1  0.1308644E-003  0.1999802E+03  0.7818608E-02  0.1149756E+00
          2   -1    0    0  501    0  0.00000000000E+00  0.00000000000E+00  0.33598935712E+02  0.33598935809E+02  0.25500000000E-02 0.  1.
         -2   -1    0    0    0  501 -0.00000000000E+00 -0.00000000000E+00 -0.29756946443E+03  0.29756946444E+03  0.25500000000E-02 0. -1.
    5000001    1    1    2    0    0  0.18134786795E+02  0.61080684368E+02 -0.13703454317E+03  0.16960892228E+03  0.77000000000E+02 0.  0.
   -5000001    1    1    2    0    0 -0.18134786795E+02 -0.61080684368E+02 -0.12693598555E+03  0.16155947797E+03  0.77000000000E+02 0.  0.
<mgrwt>
<rscale>  0 0.19998017E+03</rscale>
<asrwt>0</asrwt>
<pdfrwt beam="1">  1        2 0.47998481E-02 0.19998017E+03</pdfrwt>
<pdfrwt beam="2">  1       -2 0.42509922E-01 0.19998017E+03</pdfrwt>
<totfact> 0.85358682E+03</totfact>
</mgrwt>
</event>
<event>
 4    1  0.1308644E-003  0.2339369E+03  0.7818608E-02  0.1123899E+00
         -2   -1    0    0    0  501 -0.00000000000E+00  0.00000000000E+00  0.51642949426E+01  0.51642955722E+01  0.25500000000E-02 0. -1.
          2   -1    0    0  501    0  0.00000000000E+00 -0.00000000000E+00 -0.26492701338E+04  0.26492701338E+04  0.25500000000E-02 0.  1.
    5000001    1    1    2    0    0  0.53569536508E+02 -0.68558773997E+02 -0.14753869502E+04  0.14799546120E+04  0.77000000000E+02 0.  0.
   -5000001    1    1    2    0    0 -0.53569536508E+02  0.68558773997E+02 -0.11687188887E+04  0.11744798174E+04  0.77000000000E+02 0.  0.
<mgrwt>
<rscale>  0 0.23393686E+03</rscale>
<asrwt>0</asrwt>
<pdfrwt beam="1">  1        2 0.37846629E+00 0.23393686E+03</pdfrwt>
<pdfrwt beam="2">  1       -2 0.73775816E-03 0.23393686E+03</pdfrwt>
<totfact> 0.13940132E+04</totfact>
</mgrwt>
</event>
<event>
 4    1  0.1308644E-003  0.3505069E+03  0.7818608E-02  0.1062407E+00
          2   -1    0    0  501    0  0.00000000000E+00  0.00000000000E+00  0.37382771298E+03  0.37382771299E+03  0.25500000000E-02 0.  1.
         -2   -1    0    0    0  501 -0.00000000000E+00 -0.00000000000E+00 -0.82160215642E+02  0.82160215682E+02  0.25500000000E-02 0. -1.
    5000001    1    1    2    0    0 -0.30139661487E+02 -0.13721426605E+03  0.23827010007E+03  0.28711982619E+03  0.77000000000E+02 0.  0.
   -5000001    1    1    2    0    0  0.30139661487E+02  0.13721426605E+03  0.53397397268E+02  0.16886810248E+03  0.77000000000E+02 0.  0.
<mgrwt>
<rscale>  0 0.35050686E+03</rscale>
<asrwt>0</asrwt>
<pdfrwt beam="1">  1        2 0.53403960E-01 0.35050686E+03</pdfrwt>
<pdfrwt beam="2">  1       -2 0.11737173E-01 0.35050686E+03</pdfrwt>
<totfact> 0.47975963E+03</totfact>
</mgrwt>
</event>
<event>
 4    1  0.1308644E-003  0.1911382E+03  0.7818608E-02  0.1157439E+00
         -2   -1    0    0    0  501 -0.00000000000E+00  0.00000000000E+00  0.78387919105E+02  0.78387919146E+02  0.25500000000E-02 0. -1.
          2   -1    0    0  501    0  0.00000000000E+00 -0.00000000000E+00 -0.11651609690E+03  0.11651609692E+03  0.25500000000E-02 0.  1.
    5000001    1    1    2    0    0  0.38754278567E+02 -0.29335848820E+01 -0.61032653169E+02  0.10566212557E+03  0.77000000000E+02 0.  0.
   -5000001    1    1    2    0    0 -0.38754278567E+02  0.29335848820E+01  0.22904475377E+02  0.89241890499E+02  0.77000000000E+02 0.  0.
<mgrwt>
<rscale>  0 0.19113822E+03</rscale>
<asrwt>0</asrwt>
<pdfrwt beam="1">  1        2 0.16645157E-01 0.19113822E+03</pdfrwt>
<pdfrwt beam="2">  1       -2 0.11198274E-01 0.19113822E+03</pdfrwt>
<totfact> 0.18252625E+04</totfact>
</mgrwt>
</event>
<event>
 4    1  0.1308644E-003  0.6771338E+03  0.7818608E-02  0.9757156E-01
          2   -1    0    0  501    0  0.00000000000E+00  0.00000000000E+00  0.86202388158E+03  0.86202388159E+03  0.25500000000E-02 0.  1.
         -2   -1    0    0    0  501 -0.00000000000E+00 -0.00000000000E+00 -0.13297490159E+03  0.13297490161E+03  0.25500000000E-02 0. -1.
    5000001    1    1    2    0    0  0.26425626171E+03 -0.55095062524E+02  0.86372743276E+02  0.29369386876E+03  0.77000000000E+02 0.  0.
   -5000001    1    1    2    0    0 -0.26425626171E+03  0.55095062524E+02  0.64267623672E+03  0.70130491444E+03  0.77000000000E+02 0.  0.
<mgrwt>
<rscale>  0 0.67713379E+03</rscale>
<asrwt>0</asrwt>
<pdfrwt beam="1">  1        2 0.12314627E+00 0.67713379E+03</pdfrwt>
<pdfrwt beam="2">  1       -2 0.18996414E-01 0.67713379E+03</pdfrwt>
<totfact> 0.80748454E+02</totfact>
</mgrwt>
</event>
<event>
 4    1  0.1308644E-003  0.3237429E+03  0.7818608E-02  0.1073939E+00
         -2   -1    0    0    0  501 -0.00000000000E+00  0.00000000000E+00  0.51711276780E+02  0.51711276843E+02  0.25500000000E-02 0. -1.
          2   -1    0    0  501    0  0.00000000000E+00 -0.00000000000E+00 -0.50670514605E+03  0.50670514606E+03  0.25500000000E-02 0.  1.
    5000001    1    1    2    0    0 -0.74942605616E+02  0.99207669848E+02 -0.34718412276E+03  0.37672851099E+03  0.77000000000E+02 0.  0.
   -5000001    1    1    2    0    0  0.74942605616E+02 -0.99207669848E+02 -0.10780974651E+03  0.18168791191E+03  0.77000000000E+02 0.  0.
<mgrwt>
<rscale>  0 0.32374292E+03</rscale>
<asrwt>0</asrwt>
<pdfrwt beam="1">  1        2 0.72386446E-01 0.32374292E+03</pdfrwt>
<pdfrwt beam="2">  1       -2 0.73873256E-02 0.32374292E+03</pdfrwt>
<totfact> 0.71540523E+03</totfact>
</mgrwt>
</event>
<event>
 4    1  0.1308644E-003  0.3400570E+03  0.7818608E-02  0.1066772E+00
         -2   -1    0    0    0  501 -0.00000000000E+00  0.00000000000E+00  0.35118588637E+03  0.35118588638E+03  0.25500000000E-02 0. -1.
          2   -1    0    0  501    0  0.00000000000E+00 -0.00000000000E+00 -0.82320175802E+02  0.82320175842E+02  0.25500000000E-02 0.  1.
    5000001    1    1    2    0    0  0.76556649144E+01  0.14299957548E+03  0.71035259831E+02  0.17743307452E+03  0.77000000000E+02 0.  0.
   -5000001    1    1    2    0    0 -0.76556649144E+01 -0.14299957548E+03  0.19783045073E+03  0.25607298770E+03  0.77000000000E+02 0.  0.
<mgrwt>
<rscale>  0 0.34005696E+03</rscale>
<asrwt>0</asrwt>
<pdfrwt beam="1">  1        2 0.11760025E-01 0.34005696E+03</pdfrwt>
<pdfrwt beam="2">  1       -2 0.50169413E-01 0.34005696E+03</pdfrwt>
<totfact> 0.20079870E+03</totfact>
</mgrwt>
</event>
<event>
 4    1  0.1308644E-003  0.2260737E+03  0.7818608E-02  0.1129434E+00
         -2   -1    0    0    0  501 -0.00000000000E+00  0.00000000000E+00  0.33574037036E+02  0.33574037133E+02  0.25500000000E-02 0. -1.
          2   -1    0    0  501    0  0.00000000000E+00 -0.00000000000E+00 -0.38057179750E+03  0.38057179751E+03  0.25500000000E-02 0.  1.
    5000001    1    1    2    0    0  0.70403643475E+02 -0.41816923174E+02 -0.19540556478E+03  0.22542773304E+03  0.77000000000E+02 0.  0.
   -5000001    1    1    2    0    0 -0.70403643475E+02  0.41816923174E+02 -0.15159219569E+03  0.18871810160E+03  0.77000000000E+02 0.  0.
<mgrwt>
<rscale>  0 0.22607372E+03</rscale>
<asrwt>0</asrwt>
<pdfrwt beam="1">  1        2 0.54367397E-01 0.22607372E+03</pdfrwt>
<pdfrwt beam="2">  1       -2 0.47962912E-02 0.22607372E+03</pdfrwt>
<totfact> 0.18656617E+04</totfact>
</mgrwt>
</event>
<event>
 4    1  0.1308644E-003  0.3482495E+03  0.7818608E-02  0.1063336E+00
         -2   -1    0    0    0  501 -0.00000000000E+00  0.00000000000E+00  0.33484317066E+02  0.33484317163E+02  0.25500000000E-02 0. -1.
          2   -1    0    0  501    0  0.00000000000E+00 -0.00000000000E+00 -0.90548164775E+03  0.90548164775E+03  0.25500000000E-02 0.  1.
    5000001    1    1    2    0    0  0.60362038519E+02  0.10408639176E+03 -0.16755122113E+03  0.22018166215E+03  0.77000000000E+02 0.  0.
   -5000001    1    1    2    0    0 -0.60362038519E+02 -0.10408639176E+03 -0.70444610955E+03  0.71878430277E+03  0.77000000000E+02 0.  0.
<mgrwt>
<rscale>  0 0.34824953E+03</rscale>
<asrwt>0</asrwt>
<pdfrwt beam="1">  1        2 0.12935451E+00 0.34824953E+03</pdfrwt>
<pdfrwt beam="2">  1       -2 0.47834744E-02 0.34824953E+03</pdfrwt>
<totfact> 0.70029034E+03</totfact>
</mgrwt>
</event>
<event>
 4    1  0.1308644E-003  0.2053045E+03  0.7818608E-02  0.1145339E+00
          2   -1    0    0  501    0  0.00000000000E+00  0.00000000000E+00  0.25652187061E+03  0.25652187062E+03  0.25500000000E-02 0.  1.
         -2   -1    0    0    0  501 -0.00000000000E+00 -0.00000000000E+00 -0.41078301624E+02  0.41078301703E+02  0.25500000000E-02 0. -1.
    5000001    1    1    2    0    0 -0.20405748331E+02  0.61241705937E+02  0.13818113193E+03  0.17085071359E+03  0.77000000000E+02 0.  0.
   -5000001    1    1    2    0    0  0.20405748331E+02 -0.61241705937E+02  0.77262437050E+02  0.12674945874E+03  0.77000000000E+02 0.  0.
<mgrwt>
<rscale>  0 0.20530448E+03</rscale>
<asrwt>0</asrwt>
<pdfrwt beam="1">  1        2 0.36645982E-01 0.20530448E+03</pdfrwt>
<pdfrwt beam="2">  1       -2 0.58683288E-02 0.20530448E+03</pdfrwt>
<totfact> 0.20826988E+04</totfact>
</mgrwt>
</event>
<event>
 4    1  0.1308644E-003  0.2112931E+03  0.7818608E-02  0.1140546E+00
         -2   -1    0    0    0  501 -0.00000000000E+00  0.00000000000E+00  0.15004068629E+03  0.15004068631E+03  0.25500000000E-02 0. -1.
          2   -1    0    0  501    0  0.00000000000E+00 -0.00000000000E+00 -0.74387803836E+02  0.74387803879E+02  0.25500000000E-02 0.  1.
    5000001    1    1    2    0    0  0.66046785299E+02 -0.25156265674E+02  0.54184550145E+02  0.11772842064E+03  0.77000000000E+02 0.  0.
   -5000001    1    1    2    0    0 -0.66046785299E+02  0.25156265674E+02  0.21468332309E+02  0.10670006956E+03  0.77000000000E+02 0.  0.
<mgrwt>
<rscale>  0 0.21129313E+03</rscale>
<asrwt>0</asrwt>
<pdfrwt beam="1">  1        2 0.10626829E-01 0.21129313E+03</pdfrwt>
<pdfrwt beam="2">  1       -2 0.21434383E-01 0.21129313E+03</pdfrwt>
<totfact> 0.10754349E+04</totfact>
</mgrwt>
</event>
<event>
 4    1  0.1308644E-003  0.1745493E+03  0.7818608E-02  0.1173185E+00
          2   -1    0    0  501    0  0.00000000000E+00  0.00000000000E+00  0.18632855997E+03  0.18632855998E+03  0.25500000000E-02 0.  1.
         -2   -1    0    0    0  501 -0.00000000000E+00 -0.00000000000E+00 -0.40878675150E+02  0.40878675230E+02  0.25500000000E-02 0. -1.
    5000001    1    1    2    0    0 -0.20165122816E+01  0.25338646772E+02  0.11473817280E+03  0.14049897380E+03  0.77000000000E+02 0.  0.
   -5000001    1    1    2    0    0  0.20165122816E+01 -0.25338646772E+02  0.30711712015E+02  0.86708261411E+02  0.77000000000E+02 0.  0.
<mgrwt>
<rscale>  0 0.17454930E+03</rscale>
<asrwt>0</asrwt>
<pdfrwt beam="1">  1        2 0.26618365E-01 0.17454930E+03</pdfrwt>
<pdfrwt beam="2">  1       -2 0.58398109E-02 0.17454930E+03</pdfrwt>
<totfact> 0.29307703E+04</totfact>
</mgrwt>
</event>
<event>
 4    1  0.1308644E-003  0.2598296E+03  0.7818608E-02  0.1107246E+00
         -2   -1    0    0    0  501 -0.00000000000E+00  0.00000000000E+00  0.13406625435E+02  0.13406625677E+02  0.25500000000E-02 0. -1.
          2   -1    0    0  501    0  0.00000000000E+00 -0.00000000000E+00 -0.12589186215E+04  0.12589186215E+04  0.25500000000E-02 0.  1.
    5000001    1    1    2    0    0  0.46604493560E+02 -0.86396595554E+02 -0.80015829583E+03  0.80982630788E+03  0.77000000000E+02 0.  0.
   -5000001    1    1    2    0    0 -0.46604493560E+02  0.86396595554E+02 -0.44535370023E+03  0.46249893930E+03  0.77000000000E+02 0.  0.
<mgrwt>
<rscale>  0 0.25982956E+03</rscale>
<asrwt>0</asrwt>
<pdfrwt beam="1">  1        2 0.17984544E+00 0.25982956E+03</pdfrwt>
<pdfrwt beam="2">  1       -2 0.19152330E-02 0.25982956E+03</pdfrwt>
<totfact> 0.17089671E+04</totfact>
</mgrwt>
</event>
<event>
 4    1  0.1308644E-003  0.4773365E+03  0.7818608E-02  0.1019870E+00
          2   -1    0    0  501    0  0.00000000000E+00  0.00000000000E+00  0.58200849325E+03  0.58200849325E+03  0.25500000000E-02 0. -1.
         -2   -1    0    0    0  501 -0.00000000000E+00 -0.00000000000E+00 -0.97872323633E+02  0.97872323666E+02  0.25500000000E-02 0.  1.
    5000001    1    1    2    0    0 -0.19022432923E+03  0.11522796789E+03  0.18561848968E+03  0.29974322966E+03  0.77000000000E+02 0.  0.
   -5000001    1    1    2    0    0  0.19022432923E+03 -0.11522796789E+03  0.29851767993E+03  0.38013758726E+03  0.77000000000E+02 0.  0.
<mgrwt>
<rscale>  0 0.47733646E+03</rscale>
<asrwt>0</asrwt>
<pdfrwt beam="1">  1        2 0.83144072E-01 0.47733646E+03</pdfrwt>
<pdfrwt beam="2">  1       -2 0.13981760E-01 0.47733646E+03</pdfrwt>
<totfact> 0.22068143E+03</totfact>
</mgrwt>
</event>
<event>
 4    1  0.1308644E-003  0.2920024E+03  0.7818608E-02  0.1089308E+00
         -2   -1    0    0    0  501 -0.00000000000E+00  0.00000000000E+00  0.16591495188E+02  0.16591495384E+02  0.25500000000E-02 0. -1.
          2   -1    0    0  501    0  0.00000000000E+00 -0.00000000000E+00 -0.12847761396E+04  0.12847761396E+04  0.25500000000E-02 0.  1.
    5000001    1    1    2    0    0 -0.86426905128E+02  0.79190994484E+02 -0.81493412454E+03  0.82691441569E+03  0.77000000000E+02 0.  0.
   -5000001    1    1    2    0    0  0.86426905128E+02 -0.79190994484E+02 -0.45325051990E+03  0.47445321933E+03  0.77000000000E+02 0.  0.
<mgrwt>
<rscale>  0 0.29200245E+03</rscale>
<asrwt>0</asrwt>
<pdfrwt beam="1">  1        2 0.18353939E+00 0.29200245E+03</pdfrwt>
<pdfrwt beam="2">  1       -2 0.23702144E-02 0.29200245E+03</pdfrwt>
<totfact> 0.12141758E+04</totfact>
</mgrwt>
</event>
<event>
 4    1  0.1308644E-003  0.4225263E+03  0.7818608E-02  0.1036247E+00
          2   -1    0    0  501    0  0.00000000000E+00  0.00000000000E+00  0.86402770383E+03  0.86402770383E+03  0.25500000000E-02 0.  1.
         -2   -1    0    0    0  501 -0.00000000000E+00 -0.00000000000E+00 -0.51655893340E+02  0.51655893403E+02  0.25500000000E-02 0. -1.
    5000001    1    1    2    0    0  0.10254907937E+03  0.15770562648E+03  0.53097660062E+03  0.56855301310E+03  0.77000000000E+02 0.  0.
   -5000001    1    1    2    0    0 -0.10254907937E+03 -0.15770562648E+03  0.28139520987E+03  0.34713058413E+03  0.77000000000E+02 0.  0.
<mgrwt>
<rscale>  0 0.42252632E+03</rscale>
<asrwt>0</asrwt>
<pdfrwt beam="1">  1        2 0.12343252E+00 0.42252632E+03</pdfrwt>
<pdfrwt beam="2">  1       -2 0.73794137E-02 0.42252632E+03</pdfrwt>
<totfact> 0.38175689E+03</totfact>
</mgrwt>
</event>
<event>
 4    1  0.1308644E-003  0.2143133E+03  0.7818608E-02  0.1138195E+00
          2   -1    0    0  501    0  0.00000000000E+00  0.00000000000E+00  0.23507551728E+04  0.23507551728E+04  0.25500000000E-02 0.  1.
         -2   -1    0    0    0  501 -0.00000000000E+00 -0.00000000000E+00 -0.48846222059E+01  0.48846228715E+01  0.25500000000E-02 0. -1.
    5000001    1    1    2    0    0  0.29082812781E+02 -0.65923027255E+02  0.13820341438E+04  0.13860515972E+04  0.77000000000E+02 0.  0.
   -5000001    1    1    2    0    0 -0.29082812781E+02  0.65923027255E+02  0.96383640685E+03  0.96958819851E+03  0.77000000000E+02 0.  0.
<mgrwt>
<rscale>  0 0.21431334E+03</rscale>
<asrwt>0</asrwt>
<pdfrwt beam="1">  1        2 0.33582235E+00 0.21431334E+03</pdfrwt>
<pdfrwt beam="2">  1       -2 0.69780284E-03 0.21431334E+03</pdfrwt>
<totfact> 0.21189154E+04</totfact>
</mgrwt>
</event>
<event>
 4    1  0.1308644E-003  0.2308275E+03  0.7818608E-02  0.1126059E+00
         -2   -1    0    0    0  501 -0.00000000000E+00  0.00000000000E+00  0.26594294595E+03  0.26594294596E+03  0.25500000000E-02 0. -1.
          2   -1    0    0  501    0  0.00000000000E+00 -0.00000000000E+00 -0.50087165932E+02  0.50087165997E+02  0.25500000000E-02 0.  1.
    5000001    1    1    2    0    0 -0.37294757539E+01  0.85850873681E+02  0.11156237026E+03  0.16049748895E+03  0.77000000000E+02 0.  0.
   -5000001    1    1    2    0    0  0.37294757539E+01 -0.85850873681E+02  0.10429340976E+03  0.15553262301E+03  0.77000000000E+02 0.  0.
<mgrwt>
<rscale>  0 0.23082745E+03</rscale>
<asrwt>0</asrwt>
<pdfrwt beam="1">  1        2 0.71553095E-02 0.23082745E+03</pdfrwt>
<pdfrwt beam="2">  1       -2 0.37991849E-01 0.23082745E+03</pdfrwt>
<totfact> 0.63461275E+03</totfact>
</mgrwt>
</event>
<event>
 4    1  0.1308644E-003  0.2831470E+03  0.7818608E-02  0.1093982E+00
          2   -1    0    0  501    0  0.00000000000E+00  0.00000000000E+00  0.21323644812E+04  0.21323644812E+04  0.25500000000E-02 0.  1.
         -2   -1    0    0    0  501 -0.00000000000E+00 -0.00000000000E+00 -0.93994507315E+01  0.93994510774E+01  0.25500000000E-02 0. -1.
    5000001    1    1    2    0    0  0.78994027672E+02  0.64657653292E+02  0.60178512876E+03  0.61521948094E+03  0.77000000000E+02 0.  0.
   -5000001    1    1    2    0    0 -0.78994027672E+02 -0.64657653292E+02  0.15211799017E+04  0.15265444513E+04  0.77000000000E+02 0.  0.
<mgrwt>
<rscale>  0 0.28314700E+03</rscale>
<asrwt>0</asrwt>
<pdfrwt beam="1">  1        2 0.30462375E+00 0.28314700E+03</pdfrwt>
<pdfrwt beam="2">  1       -2 0.13427776E-02 0.28314700E+03</pdfrwt>
<totfact> 0.10565929E+04</totfact>
</mgrwt>
</event>
<event>
 4    1  0.1308644E-003  0.2423504E+03  0.7818608E-02  0.1118237E+00
          2   -1    0    0  501    0  0.00000000000E+00  0.00000000000E+00  0.16769708968E+04  0.16769708968E+04  0.25500000000E-02 0.  1.
         -2   -1    0    0    0  501 -0.00000000000E+00 -0.00000000000E+00 -0.87559216511E+01  0.87559220224E+01  0.25500000000E-02 0. -1.
    5000001    1    1    2    0    0  0.91400349016E+02 -0.13766120318E+02  0.73309433932E+03  0.74289961652E+03  0.77000000000E+02 0.  0.
   -5000001    1    1    2    0    0 -0.91400349016E+02  0.13766120318E+02  0.93512063578E+03  0.94282720227E+03  0.77000000000E+02 0.  0.
<mgrwt>
<rscale>  0 0.24235038E+03</rscale>
<asrwt>0</asrwt>
<pdfrwt beam="1">  1        2 0.23956729E+00 0.24235038E+03</pdfrwt>
<pdfrwt beam="2">  1       -2 0.12508459E-02 0.24235038E+03</pdfrwt>
<totfact> 0.19470683E+04</totfact>
</mgrwt>
</event>
<event>
 4    1  0.1308644E-003  0.3911309E+03  0.7818608E-02  0.1046895E+00
         -2   -1    0    0    0  501 -0.00000000000E+00  0.00000000000E+00  0.22261072263E+02  0.22261072409E+02  0.25500000000E-02 0. -1.
          2   -1    0    0  501    0  0.00000000000E+00 -0.00000000000E+00 -0.17180590579E+04  0.17180590579E+04  0.25500000000E-02 0.  1.
    5000001    1    1    2    0    0  0.16460334709E+03  0.68618567973E+02 -0.74701621759E+03  0.77185814700E+03  0.77000000000E+02 0.  0.
   -5000001    1    1    2    0    0 -0.16460334709E+03 -0.68618567973E+02 -0.94878176803E+03  0.96846198329E+03  0.77000000000E+02 0.  0.
<mgrwt>
<rscale>  0 0.39113086E+03</rscale>
<asrwt>0</asrwt>
<pdfrwt beam="1">  1        2 0.24543693E+00 0.39113086E+03</pdfrwt>
<pdfrwt beam="2">  1       -2 0.31801543E-02 0.39113086E+03</pdfrwt>
<totfact> 0.47201620E+03</totfact>
</mgrwt>
</event>
<event>
 4    1  0.1308644E-003  0.2054012E+03  0.7818608E-02  0.1145260E+00
         -2   -1    0    0    0  501 -0.00000000000E+00  0.00000000000E+00  0.27923899517E+02  0.27923899633E+02  0.25500000000E-02 0. -1.
          2   -1    0    0  501    0  0.00000000000E+00 -0.00000000000E+00 -0.37771975752E+03  0.37771975753E+03  0.25500000000E-02 0.  1.
    5000001    1    1    2    0    0 -0.48562273300E+02  0.13384324222E+02 -0.26498762926E+03  0.28050824976E+03  0.77000000000E+02 0.  0.
   -5000001    1    1    2    0    0  0.48562273300E+02 -0.13384324222E+02 -0.84808228746E+02  0.12513540740E+03  0.77000000000E+02 0.  0.
<mgrwt>
<rscale>  0 0.20540115E+03</rscale>
<asrwt>0</asrwt>
<pdfrwt beam="1">  1        2 0.53959962E-01 0.20540115E+03</pdfrwt>
<pdfrwt beam="2">  1       -2 0.39891287E-02 0.20540115E+03</pdfrwt>
<totfact> 0.24648050E+04</totfact>
</mgrwt>
</event>
<event>
 4    1  0.1308644E-003  0.1868343E+03  0.7818608E-02  0.1161348E+00
          2   -1    0    0  501    0  0.00000000000E+00  0.00000000000E+00  0.64160202915E+03  0.64160202915E+03  0.25500000000E-02 0.  1.
         -2   -1    0    0    0  501 -0.00000000000E+00 -0.00000000000E+00 -0.13601522121E+02  0.13601522360E+02  0.25500000000E-02 0. -1.
    5000001    1    1    2    0    0  0.41896460945E+02 -0.71581428725E+01  0.42440884296E+03  0.43342637026E+03  0.77000000000E+02 0.  0.
   -5000001    1    1    2    0    0 -0.41896460945E+02  0.71581428725E+01  0.20359166406E+03  0.22177718125E+03  0.77000000000E+02 0.  0.
<mgrwt>
<rscale>  0 0.18683430E+03</rscale>
<asrwt>0</asrwt>
<pdfrwt beam="1">  1        2 0.91657446E-01 0.18683430E+03</pdfrwt>
<pdfrwt beam="2">  1       -2 0.19430743E-02 0.18683430E+03</pdfrwt>
<totfact> 0.39507703E+04</totfact>
</mgrwt>
</event>
<event>
 4    1  0.1308644E-003  0.2812175E+03  0.7818608E-02  0.1095026E+00
         -2   -1    0    0    0  501 -0.00000000000E+00  0.00000000000E+00  0.26466981563E+02  0.26466981686E+02  0.25500000000E-02 0. -1.
          2   -1    0    0  501    0  0.00000000000E+00 -0.00000000000E+00 -0.74699939521E+03  0.74699939521E+03  0.25500000000E-02 0.  1.
    5000001    1    1    2    0    0  0.10041008657E+03  0.60327311208E+02 -0.33010557736E+03  0.35863667153E+03  0.77000000000E+02 0.  0.
   -5000001    1    1    2    0    0 -0.10041008657E+03 -0.60327311208E+02 -0.39042683628E+03  0.41482970537E+03  0.77000000000E+02 0.  0.
<mgrwt>
<rscale>  0 0.28121749E+03</rscale>
<asrwt>0</asrwt>
<pdfrwt beam="1">  1        2 0.10671419E+00 0.28121749E+03</pdfrwt>
<pdfrwt beam="2">  1       -2 0.37809978E-02 0.28121749E+03</pdfrwt>
<totfact> 0.12654006E+04</totfact>
</mgrwt>
</event>
<event>
 4    1  0.1308644E-003  0.2887157E+03  0.7818608E-02  0.1091022E+00
         -2   -1    0    0    0  501 -0.00000000000E+00  0.00000000000E+00  0.53378725679E+02  0.53378725740E+02  0.25500000000E-02 0. -1.
          2   -1    0    0  501    0  0.00000000000E+00 -0.00000000000E+00 -0.39040252584E+03  0.39040252585E+03  0.25500000000E-02 0.  1.
    5000001    1    1    2    0    0  0.78766128984E+02  0.34853051440E+02 -0.35473007893E+02  0.12085599927E+03  0.77000000000E+02 0.  0.
   -5000001    1    1    2    0    0 -0.78766128984E+02 -0.34853051440E+02 -0.30155079227E+03  0.32292525232E+03  0.77000000000E+02 0.  0.
<mgrwt>
<rscale>  0 0.28871570E+03</rscale>
<asrwt>0</asrwt>
<pdfrwt beam="1">  1        2 0.55771788E-01 0.28871570E+03</pdfrwt>
<pdfrwt beam="2">  1       -2 0.76255325E-02 0.28871570E+03</pdfrwt>
<totfact> 0.90247110E+03</totfact>
</mgrwt>
</event>
<event>
 4    1  0.1308644E-003  0.1959691E+03  0.7818608E-02  0.1153185E+00
          2   -1    0    0  501    0  0.00000000000E+00  0.00000000000E+00  0.59382984529E+02  0.59382984584E+02  0.25500000000E-02 0.  1.
         -2   -1    0    0    0  501 -0.00000000000E+00 -0.00000000000E+00 -0.16167891552E+03  0.16167891554E+03  0.25500000000E-02 0. -1.
    5000001    1    1    2    0    0  0.28510651534E+02 -0.48512683959E+02 -0.25782292410E+02  0.98793038003E+02  0.77000000000E+02 0.  0.
   -5000001    1    1    2    0    0 -0.28510651534E+02  0.48512683959E+02 -0.76513638583E+02  0.12226886212E+03  0.77000000000E+02 0.  0.
<mgrwt>
<rscale>  0 0.19596915E+03</rscale>
<asrwt>0</asrwt>
<pdfrwt beam="1">  1        2 0.84832836E-02 0.19596915E+03</pdfrwt>
<pdfrwt beam="2">  1       -2 0.23096988E-01 0.19596915E+03</pdfrwt>
<totfact> 0.12442830E+04</totfact>
</mgrwt>
</event>
<event>
 4    1  0.1308644E-003  0.1106657E+04  0.7818608E-02  0.9198728E-01
         -2   -1    0    0    0  501 -0.00000000000E+00  0.00000000000E+00  0.42974581723E+03  0.42974581724E+03  0.25500000000E-02 0. -1.
          2   -1    0    0  501    0  0.00000000000E+00 -0.00000000000E+00 -0.71244947369E+03  0.71244947370E+03  0.25500000000E-02 0.  1.
    5000001    1    1    2    0    0 -0.40808988824E+03 -0.30330945335E+03  0.69434983598E+02  0.51892600467E+03  0.77000000000E+02 0.  0.
   -5000001    1    1    2    0    0  0.40808988824E+03  0.30330945335E+03 -0.35213864006E+03  0.62326928626E+03  0.77000000000E+02 0.  0.
<mgrwt>
<rscale>  0 0.11066566E+04</rscale>
<asrwt>0</asrwt>
<pdfrwt beam="1">  1        2 0.10177850E+00 0.11066566E+04</pdfrwt>
<pdfrwt beam="2">  1       -2 0.61392260E-01 0.11066566E+04</pdfrwt>
<totfact> 0.10788541E+02</totfact>
</mgrwt>
</event>
<event>
 4    1  0.1308644E-003  0.1731733E+03  0.7818608E-02  0.1174578E+00
          2   -1    0    0  501    0  0.00000000000E+00  0.00000000000E+00  0.59384781947E+03  0.59384781948E+03  0.25500000000E-02 0.  1.
         -2   -1    0    0    0  501 -0.00000000000E+00 -0.00000000000E+00 -0.12624864147E+02  0.12624864404E+02  0.25500000000E-02 0. -1.
    5000001    1    1    2    0    0 -0.16264891710E+02 -0.36097863708E+02  0.28779742979E+03  0.30053945342E+03  0.77000000000E+02 0.  0.
   -5000001    1    1    2    0    0  0.16264891710E+02  0.36097863708E+02  0.29342552553E+03  0.30593323046E+03  0.77000000000E+02 0.  0.
<mgrwt>
<rscale>  0 0.17317330E+03</rscale>
<asrwt>0</asrwt>
<pdfrwt beam="1">  1        2 0.84835411E-01 0.17317330E+03</pdfrwt>
<pdfrwt beam="2">  1       -2 0.18035519E-02 0.17317330E+03</pdfrwt>
<totfact> 0.47752410E+04</totfact>
</mgrwt>
</event>
<event>
 4    1  0.1308644E-003  0.4320030E+03  0.7818608E-02  0.1033229E+00
          2   -1    0    0  501    0  0.00000000000E+00  0.00000000000E+00  0.27492744005E+04  0.27492744005E+04  0.25500000000E-02 0.  1.
         -2   -1    0    0    0  501 -0.00000000000E+00 -0.00000000000E+00 -0.16970533446E+02  0.16970533637E+02  0.25500000000E-02 0. -1.
    5000001    1    1    2    0    0 -0.18203128734E+03  0.85930645675E+02  0.12737605041E+04  0.12918646551E+04  0.77000000000E+02 0.  0.
   -5000001    1    1    2    0    0  0.18203128734E+03 -0.85930645675E+02  0.14585433629E+04  0.14743802790E+04  0.77000000000E+02 0.  0.
<mgrwt>
<rscale>  0 0.43200303E+03</rscale>
<asrwt>0</asrwt>
<pdfrwt beam="1">  1        2 0.39275358E+00 0.43200303E+03</pdfrwt>
<pdfrwt beam="2">  1       -2 0.24243613E-02 0.43200303E+03</pdfrwt>
<totfact> 0.21523007E+03</totfact>
</mgrwt>
</event>
<event>
 4    1  0.1308644E-003  0.3661635E+03  0.7818608E-02  0.1056170E+00
         -2   -1    0    0    0  501 -0.00000000000E+00  0.00000000000E+00  0.68685438174E+03  0.68685438175E+03  0.25500000000E-02 0. -1.
          2   -1    0    0  501    0  0.00000000000E+00 -0.00000000000E+00 -0.48800641204E+02  0.48800641271E+02  0.25500000000E-02 0.  1.
    5000001    1    1    2    0    0  0.78020497759E+02 -0.14279016298E+03  0.25197910600E+03  0.30967515008E+03  0.77000000000E+02 0.  0.
   -5000001    1    1    2    0    0 -0.78020497759E+02  0.14279016298E+03  0.38607463454E+03  0.42597987294E+03  0.77000000000E+02 0.  0.
<mgrwt>
<rscale>  0 0.36616354E+03</rscale>
<asrwt>0</asrwt>
<pdfrwt beam="1">  1        2 0.69715203E-02 0.36616354E+03</pdfrwt>
<pdfrwt beam="2">  1       -2 0.98122053E-01 0.36616354E+03</pdfrwt>
<totfact> 0.91647331E+02</totfact>
</mgrwt>
</event>
<event>
 4    1  0.1308644E-003  0.4430692E+03  0.7818608E-02  0.1029809E+00
         -2   -1    0    0    0  501 -0.00000000000E+00  0.00000000000E+00  0.12169945219E+03  0.12169945222E+03  0.25500000000E-02 0. -1.
          2   -1    0    0  501    0  0.00000000000E+00 -0.00000000000E+00 -0.40326869078E+03  0.40326869078E+03  0.25500000000E-02 0.  1.
    5000001    1    1    2    0    0 -0.19606464829E+03  0.67226774161E+02 -0.15702145615E+03  0.27119277860E+03  0.77000000000E+02 0.  0.
   -5000001    1    1    2    0    0  0.19606464829E+03 -0.67226774161E+02 -0.12454778244E+03  0.25377536441E+03  0.77000000000E+02 0.  0.
<mgrwt>
<rscale>  0 0.44306920E+03</rscale>
<asrwt>0</asrwt>
<pdfrwt beam="1">  1        2 0.57609812E-01 0.44306920E+03</pdfrwt>
<pdfrwt beam="2">  1       -2 0.17385636E-01 0.44306920E+03</pdfrwt>
<totfact> 0.23107102E+03</totfact>
</mgrwt>
</event>
<event>
 4    1  0.1308644E-003  0.1909080E+03  0.7818608E-02  0.1157645E+00
          2   -1    0    0  501    0  0.00000000000E+00  0.00000000000E+00  0.30706500406E+03  0.30706500407E+03  0.25500000000E-02 0.  1.
         -2   -1    0    0    0  501 -0.00000000000E+00 -0.00000000000E+00 -0.29672754830E+02  0.29672754940E+02  0.25500000000E-02 0. -1.
    5000001    1    1    2    0    0  0.33786546126E+02 -0.43259725183E+02  0.16166242865E+03  0.18728768074E+03  0.77000000000E+02 0.  0.
   -5000001    1    1    2    0    0 -0.33786546126E+02  0.43259725183E+02  0.11572982058E+03  0.14945007827E+03  0.77000000000E+02 0.  0.
<mgrwt>
<rscale>  0 0.19090798E+03</rscale>
<asrwt>0</asrwt>
<pdfrwt beam="1">  1        2 0.43866428E-01 0.19090798E+03</pdfrwt>
<pdfrwt beam="2">  1       -2 0.42389651E-02 0.19090798E+03</pdfrwt>
<totfact> 0.27921699E+04</totfact>
</mgrwt>
</event>
<event>
 4    1  0.1308644E-003  0.2250283E+03  0.7818608E-02  0.1130189E+00
         -2   -1    0    0    0  501 -0.00000000000E+00  0.00000000000E+00  0.42750379035E+03  0.42750379036E+03  0.25500000000E-02 0. -1.
          2   -1    0    0  501    0  0.00000000000E+00 -0.00000000000E+00 -0.29612446464E+02  0.29612446574E+02  0.25500000000E-02 0.  1.
    5000001    1    1    2    0    0 -0.28880578208E+02  0.22338964234E+02  0.49708006752E+02  0.98655983376E+02  0.77000000000E+02 0.  0.
   -5000001    1    1    2    0    0  0.28880578208E+02 -0.22338964234E+02  0.34818333713E+03  0.35846025355E+03  0.77000000000E+02 0.  0.
<mgrwt>
<rscale>  0 0.22502829E+03</rscale>
<asrwt>0</asrwt>
<pdfrwt beam="1">  1        2 0.42303493E-02 0.22502829E+03</pdfrwt>
<pdfrwt beam="2">  1       -2 0.61071973E-01 0.22502829E+03</pdfrwt>
<totfact> 0.49301487E+03</totfact>
</mgrwt>
</event>
<event>
 4    1  0.1308644E-003  0.3902283E+03  0.7818608E-02  0.1047217E+00
          2   -1    0    0  501    0  0.00000000000E+00  0.00000000000E+00  0.15443159454E+04  0.15443159454E+04  0.25500000000E-02 0.  1.
         -2   -1    0    0    0  501 -0.00000000000E+00 -0.00000000000E+00 -0.24651382523E+02  0.24651382655E+02  0.25500000000E-02 0. -1.
    5000001    1    1    2    0    0 -0.38749821950E+02  0.95914372537E+02  0.17112205966E+03  0.21427289810E+03  0.77000000000E+02 0.  0.
   -5000001    1    1    2    0    0  0.38749821950E+02 -0.95914372537E+02  0.13485425033E+04  0.13546944300E+04  0.77000000000E+02 0.  0.
<mgrwt>
<rscale>  0 0.39022826E+03</rscale>
<asrwt>0</asrwt>
<pdfrwt beam="1">  1        2 0.22061656E+00 0.39022826E+03</pdfrwt>
<pdfrwt beam="2">  1       -2 0.35216261E-02 0.39022826E+03</pdfrwt>
<totfact> 0.49504733E+03</totfact>
</mgrwt>
</event>
<event>
 4    1  0.1308644E-003  0.2020178E+03  0.7818608E-02  0.1148048E+00
          2   -1    0    0  501    0  0.00000000000E+00  0.00000000000E+00  0.14579542555E+04  0.14579542555E+04  0.25500000000E-02 0.  1.
         -2   -1    0    0    0  501 -0.00000000000E+00 -0.00000000000E+00 -0.69980251198E+01  0.69980255844E+01  0.25500000000E-02 0. -1.
    5000001    1    1    2    0    0  0.26454723003E+02  0.52035660197E+02  0.93890667314E+03  0.94386561712E+03  0.77000000000E+02 0.  0.
   -5000001    1    1    2    0    0 -0.26454723003E+02 -0.52035660197E+02  0.51204955724E+03  0.52108666398E+03  0.77000000000E+02 0.  0.
<mgrwt>
<rscale>  0 0.20201783E+03</rscale>
<asrwt>0</asrwt>
<pdfrwt beam="1">  1        2 0.20827922E+00 0.20201783E+03</pdfrwt>
<pdfrwt beam="2">  1       -2 0.99971773E-03 0.20201783E+03</pdfrwt>
<totfact> 0.34283878E+04</totfact>
</mgrwt>
</event>
<event>
 4    1  0.1308644E-003  0.2516616E+03  0.7818608E-02  0.1112259E+00
         -2   -1    0    0    0  501 -0.00000000000E+00  0.00000000000E+00  0.11756803572E+02  0.11756803849E+02  0.25500000000E-02 0. -1.
          2   -1    0    0  501    0  0.00000000000E+00 -0.00000000000E+00 -0.13467425529E+04  0.13467425529E+04  0.25500000000E-02 0.  1.
    5000001    1    1    2    0    0 -0.67411132478E+02 -0.72180796398E+02 -0.73361922405E+03  0.74423147881E+03  0.77000000000E+02 0.  0.
   -5000001    1    1    2    0    0  0.67411132478E+02  0.72180796398E+02 -0.60136652531E+03  0.61426787797E+03  0.77000000000E+02 0.  0.
<mgrwt>
<rscale>  0 0.25166158E+03</rscale>
<asrwt>0</asrwt>
<pdfrwt beam="1">  1        2 0.19239169E+00 0.25166158E+03</pdfrwt>
<pdfrwt beam="2">  1       -2 0.16795443E-02 0.25166158E+03</pdfrwt>
<totfact> 0.18604635E+04</totfact>
</mgrwt>
</event>
<event>
 4    1  0.1308644E-003  0.2390911E+03  0.7818608E-02  0.1120400E+00
         -2   -1    0    0    0  501 -0.00000000000E+00  0.00000000000E+00  0.20965229307E+02  0.20965229462E+02  0.25500000000E-02 0. -1.
          2   -1    0    0  501    0  0.00000000000E+00 -0.00000000000E+00 -0.68165897275E+03  0.68165897276E+03  0.25500000000E-02 0.  1.
    5000001    1    1    2    0    0  0.44207847907E+02  0.68180405528E+02 -0.45360673375E+03  0.46721619237E+03  0.77000000000E+02 0.  0.
   -5000001    1    1    2    0    0 -0.44207847907E+02 -0.68180405528E+02 -0.20708700970E+03  0.23540800985E+03  0.77000000000E+02 0.  0.
<mgrwt>
<rscale>  0 0.23909108E+03</rscale>
<asrwt>0</asrwt>
<pdfrwt beam="1">  1        2 0.97379840E-01 0.23909108E+03</pdfrwt>
<pdfrwt beam="2">  1       -2 0.29950332E-02 0.23909108E+03</pdfrwt>
<totfact> 0.19828861E+04</totfact>
</mgrwt>
</event>
<event>
 4    1  0.1308644E-003  0.2180407E+03  0.7818608E-02  0.1135352E+00
         -2   -1    0    0    0  501 -0.00000000000E+00  0.00000000000E+00  0.85600628653E+02  0.85600628691E+02  0.25500000000E-02 0. -1.
          2   -1    0    0  501    0  0.00000000000E+00 -0.00000000000E+00 -0.13884754664E+03  0.13884754667E+03  0.25500000000E-02 0.  1.
    5000001    1    1    2    0    0  0.44444834622E+02  0.62810880990E+02 -0.20456824120E+02  0.11076114729E+03  0.77000000000E+02 0.  0.
   -5000001    1    1    2    0    0 -0.44444834622E+02 -0.62810880990E+02 -0.32790093871E+02  0.11368702807E+03  0.77000000000E+02 0.  0.
<mgrwt>
<rscale>  0 0.21804071E+03</rscale>
<asrwt>0</asrwt>
<pdfrwt beam="1">  1        2 0.19835364E-01 0.21804071E+03</pdfrwt>
<pdfrwt beam="2">  1       -2 0.12228661E-01 0.21804071E+03</pdfrwt>
<totfact> 0.13070520E+04</totfact>
</mgrwt>
</event>
<event>
 4    1  0.1308644E-003  0.2785616E+03  0.7818608E-02  0.1096477E+00
         -2   -1    0    0    0  501 -0.00000000000E+00  0.00000000000E+00  0.17644866813E+02  0.17644866998E+02  0.25500000000E-02 0. -1.
          2   -1    0    0  501    0  0.00000000000E+00 -0.00000000000E+00 -0.10994209166E+04  0.10994209166E+04  0.25500000000E-02 0.  1.
    5000001    1    1    2    0    0 -0.95740828750E+02 -0.48558935732E+02 -0.71778209355E+03  0.72983861939E+03  0.77000000000E+02 0.  0.
   -5000001    1    1    2    0    0  0.95740828750E+02  0.48558935732E+02 -0.36399395627E+03  0.38722716424E+03  0.77000000000E+02 0.  0.
<mgrwt>
<rscale>  0 0.27856156E+03</rscale>
<asrwt>0</asrwt>
<pdfrwt beam="1">  1        2 0.15706009E+00 0.27856156E+03</pdfrwt>
<pdfrwt beam="2">  1       -2 0.25206960E-02 0.27856156E+03</pdfrwt>
<totfact> 0.13970209E+04</totfact>
</mgrwt>
</event>
<event>
 4    1  0.1308644E-003  0.2399318E+03  0.7818608E-02  0.1119838E+00
         -2   -1    0    0    0  501 -0.00000000000E+00  0.00000000000E+00  0.57786639333E+03  0.57786639334E+03  0.25500000000E-02 0. -1.
          2   -1    0    0  501    0  0.00000000000E+00 -0.00000000000E+00 -0.24905099569E+02  0.24905099699E+02  0.25500000000E-02 0.  1.
    5000001    1    1    2    0    0  0.68703558620E+02 -0.44154616196E+02  0.38285975040E+03  0.39897418159E+03  0.77000000000E+02 0.  0.
   -5000001    1    1    2    0    0 -0.68703558620E+02  0.44154616196E+02  0.17010154336E+03  0.20379731144E+03  0.77000000000E+02 0.  0.
<mgrwt>
<rscale>  0 0.23993182E+03</rscale>
<asrwt>0</asrwt>
<pdfrwt beam="1">  1        2 0.35578718E-02 0.23993182E+03</pdfrwt>
<pdfrwt beam="2">  1       -2 0.82552331E-01 0.23993182E+03</pdfrwt>
<totfact> 0.32679628E+03</totfact>
</mgrwt>
</event>
<event>
 4    1  0.1308644E-003  0.1976563E+03  0.7818608E-02  0.1151732E+00
          2   -1    0    0  501    0  0.00000000000E+00  0.00000000000E+00  0.30282852458E+03  0.30282852459E+03  0.25500000000E-02 0.  1.
         -2   -1    0    0    0  501 -0.00000000000E+00 -0.00000000000E+00 -0.32252587423E+02  0.32252587524E+02  0.25500000000E-02 0. -1.
    5000001    1    1    2    0    0 -0.38010376332E+02  0.48751101612E+02  0.14218354999E+03  0.17310869564E+03  0.77000000000E+02 0.  0.
   -5000001    1    1    2    0    0  0.38010376332E+02 -0.48751101612E+02  0.12839238716E+03  0.16197241647E+03  0.77000000000E+02 0.  0.
<mgrwt>
<rscale>  0 0.19765630E+03</rscale>
<asrwt>0</asrwt>
<pdfrwt beam="1">  1        2 0.43261218E-01 0.19765630E+03</pdfrwt>
<pdfrwt beam="2">  1       -2 0.46075125E-02 0.19765630E+03</pdfrwt>
<totfact> 0.25073838E+04</totfact>
</mgrwt>
</event>
<event>
 4    1  0.1308644E-003  0.2877481E+03  0.7818608E-02  0.1091531E+00
         -2   -1    0    0    0  501 -0.00000000000E+00  0.00000000000E+00  0.14399033261E+02  0.14399033487E+02  0.25500000000E-02 0. -1.
          2   -1    0    0  501    0  0.00000000000E+00 -0.00000000000E+00 -0.14375782798E+04  0.14375782798E+04  0.25500000000E-02 0.  1.
    5000001    1    1    2    0    0 -0.11473141282E+02 -0.10652424589E+03 -0.10010951499E+04  0.10097522206E+04  0.77000000000E+02 0.  0.
   -5000001    1    1    2    0    0  0.11473141282E+02  0.10652424589E+03 -0.42208409665E+03  0.44222509266E+03  0.77000000000E+02 0.  0.
<mgrwt>
<rscale>  0 0.28774807E+03</rscale>
<asrwt>0</asrwt>
<pdfrwt beam="1">  1        2 0.20536823E+00 0.28774807E+03</pdfrwt>
<pdfrwt beam="2">  1       -2 0.20570057E-02 0.28774807E+03</pdfrwt>
<totfact> 0.12460484E+04</totfact>
</mgrwt>
</event>
<event>
 4    1  0.1308644E-003  0.2207603E+03  0.7818608E-02  0.1133317E+00
          2   -1    0    0  501    0  0.00000000000E+00  0.00000000000E+00  0.59634466638E+03  0.59634466638E+03  0.25500000000E-02 0.  1.
         -2   -1    0    0    0  501 -0.00000000000E+00 -0.00000000000E+00 -0.20430764454E+02  0.20430764613E+02  0.25500000000E-02 0. -1.
    5000001    1    1    2    0    0 -0.66183624260E+02 -0.67801575751E+01  0.16848726929E+03  0.19683293060E+03  0.77000000000E+02 0.  0.
   -5000001    1    1    2    0    0  0.66183624260E+02  0.67801575751E+01  0.40742663264E+03  0.41994250040E+03  0.77000000000E+02 0.  0.
<mgrwt>
<rscale>  0 0.22076030E+03</rscale>
<asrwt>0</asrwt>
<pdfrwt beam="1">  1        2 0.85192101E-01 0.22076030E+03</pdfrwt>
<pdfrwt beam="2">  1       -2 0.29186805E-02 0.22076030E+03</pdfrwt>
<totfact> 0.23917286E+04</totfact>
</mgrwt>
</event>
<event>
 4    1  0.1308644E-003  0.2023017E+03  0.7818608E-02  0.1147811E+00
         -2   -1    0    0    0  501 -0.00000000000E+00  0.00000000000E+00  0.10992649627E+02  0.10992649923E+02  0.25500000000E-02 0. -1.
          2   -1    0    0  501    0  0.00000000000E+00 -0.00000000000E+00 -0.93075778193E+03  0.93075778193E+03  0.25500000000E-02 0.  1.
    5000001    1    1    2    0    0  0.52782104553E+02  0.32094553512E+02 -0.35720624235E+03  0.37059588570E+03  0.77000000000E+02 0.  0.
   -5000001    1    1    2    0    0 -0.52782104553E+02 -0.32094553512E+02 -0.56255888995E+03  0.57115454615E+03  0.77000000000E+02 0.  0.
<mgrwt>
<rscale>  0 0.20230170E+03</rscale>
<asrwt>0</asrwt>
<pdfrwt beam="1">  1        2 0.13296535E+00 0.20230170E+03</pdfrwt>
<pdfrwt beam="2">  1       -2 0.15703791E-02 0.20230170E+03</pdfrwt>
<totfact> 0.34492962E+04</totfact>
</mgrwt>
</event>
<event>
 4    1  0.1308644E-003  0.3090738E+03  0.7818608E-02  0.1080791E+00
         -2   -1    0    0    0  501 -0.00000000000E+00  0.00000000000E+00  0.10558845049E+03  0.10558845052E+03  0.25500000000E-02 0. -1.
          2   -1    0    0  501    0  0.00000000000E+00 -0.00000000000E+00 -0.22617682030E+03  0.22617682031E+03  0.25500000000E-02 0.  1.
    5000001    1    1    2    0    0  0.94493886334E+01  0.91610895229E+02 -0.16475713830E+03  0.20385230362E+03  0.77000000000E+02 0.  0.
   -5000001    1    1    2    0    0 -0.94493886334E+01 -0.91610895229E+02  0.44168768493E+02  0.12791296721E+03  0.77000000000E+02 0.  0.
<mgrwt>
<rscale>  0 0.30907384E+03</rscale>
<asrwt>0</asrwt>
<pdfrwt beam="1">  1        2 0.32310974E-01 0.30907384E+03</pdfrwt>
<pdfrwt beam="2">  1       -2 0.15084064E-01 0.30907384E+03</pdfrwt>
<totfact> 0.54696049E+03</totfact>
</mgrwt>
</event>
<event>
 4    1  0.1308644E-003  0.1733167E+03  0.7818608E-02  0.1174433E+00
         -2   -1    0    0    0  501 -0.00000000000E+00  0.00000000000E+00  0.10823820036E+02  0.10823820336E+02  0.25500000000E-02 0. -1.
          2   -1    0    0  501    0  0.00000000000E+00 -0.00000000000E+00 -0.69380927237E+03  0.69380927237E+03  0.25500000000E-02 0.  1.
    5000001    1    1    2    0    0 -0.75738784352E+01 -0.36377140409E+02 -0.39898971767E+03  0.40804712324E+03  0.77000000000E+02 0.  0.
   -5000001    1    1    2    0    0  0.75738784352E+01  0.36377140409E+02 -0.28399573466E+03  0.29658596947E+03  0.77000000000E+02 0.  0.
<mgrwt>
<rscale>  0 0.17331667E+03</rscale>
<asrwt>0</asrwt>
<pdfrwt beam="1">  1        2 0.99115582E-01 0.17331667E+03</pdfrwt>
<pdfrwt beam="2">  1       -2 0.15462605E-02 0.17331667E+03</pdfrwt>
<totfact> 0.49969047E+04</totfact>
</mgrwt>
</event>
<event>
 4    1  0.1308644E-003  0.1889365E+03  0.7818608E-02  0.1159424E+00
         -2   -1    0    0    0  501 -0.00000000000E+00  0.00000000000E+00  0.14727544833E+02  0.14727545054E+02  0.25500000000E-02 0. -1.
          2   -1    0    0  501    0  0.00000000000E+00 -0.00000000000E+00 -0.60595650025E+03  0.60595650026E+03  0.25500000000E-02 0.  1.
    5000001    1    1    2    0    0  0.54708365413E+02  0.13077426409E+01 -0.29801995262E+03  0.31263334370E+03  0.77000000000E+02 0.  0.
   -5000001    1    1    2    0    0 -0.54708365413E+02 -0.13077426409E+01 -0.29320900280E+03  0.30805070161E+03  0.77000000000E+02 0.  0.
<mgrwt>
<rscale>  0 0.18893651E+03</rscale>
<asrwt>0</asrwt>
<pdfrwt beam="1">  1        2 0.86565199E-01 0.18893651E+03</pdfrwt>
<pdfrwt beam="2">  1       -2 0.21039354E-02 0.18893651E+03</pdfrwt>
<totfact> 0.37577652E+04</totfact>
</mgrwt>
</event>
<event>
 4    1  0.1308644E-003  0.3297093E+03  0.7818608E-02  0.1071266E+00
         -2   -1    0    0    0  501 -0.00000000000E+00  0.00000000000E+00  0.16022170576E+03  0.16022170578E+03  0.25500000000E-02 0. -1.
          2   -1    0    0  501    0  0.00000000000E+00 -0.00000000000E+00 -0.16962151052E+03  0.16962151054E+03  0.25500000000E-02 0.  1.
    5000001    1    1    2    0    0 -0.10762300258E+03  0.92470096995E+02 -0.38099366100E+02  0.16587341927E+03  0.77000000000E+02 0.  0.
   -5000001    1    1    2    0    0  0.10762300258E+03 -0.92470096995E+02  0.28699561344E+02  0.16396979705E+03  0.77000000000E+02 0.  0.
<mgrwt>
<rscale>  0 0.32970925E+03</rscale>
<asrwt>0</asrwt>
<pdfrwt beam="1">  1        2 0.24231644E-01 0.32970925E+03</pdfrwt>
<pdfrwt beam="2">  1       -2 0.22888815E-01 0.32970925E+03</pdfrwt>
<totfact> 0.37104855E+03</totfact>
</mgrwt>
</event>
<event>
 4    1  0.1308644E-003  0.3973990E+03  0.7818608E-02  0.1044684E+00
         -2   -1    0    0    0  501 -0.00000000000E+00  0.00000000000E+00  0.31113664611E+02  0.31113664715E+02  0.25500000000E-02 0. -1.
          2   -1    0    0  501    0  0.00000000000E+00 -0.00000000000E+00 -0.12689438195E+04  0.12689438195E+04  0.25500000000E-02 0.  1.
    5000001    1    1    2    0    0 -0.39422913365E+02 -0.98797015094E+02 -0.11067563360E+04  0.11145194496E+04  0.77000000000E+02 0.  0.
   -5000001    1    1    2    0    0  0.39422913365E+02  0.98797015094E+02 -0.13107381892E+03  0.18553803463E+03  0.77000000000E+02 0.  0.
<mgrwt>
<rscale>  0 0.39739901E+03</rscale>
<asrwt>0</asrwt>
<pdfrwt beam="1">  1        2 0.18127766E+00 0.39739901E+03</pdfrwt>
<pdfrwt beam="2">  1       -2 0.44448100E-02 0.39739901E+03</pdfrwt>
<totfact> 0.48415461E+03</totfact>
</mgrwt>
</event>
<event>
 4    1  0.1308644E-003  0.2096938E+03  0.7818608E-02  0.1141809E+00
          2   -1    0    0  501    0  0.00000000000E+00  0.00000000000E+00  0.11596301931E+04  0.11596301931E+04  0.25500000000E-02 0.  1.
         -2   -1    0    0    0  501 -0.00000000000E+00 -0.00000000000E+00 -0.94796343613E+01  0.94796347043E+01  0.25500000000E-02 0. -1.
    5000001    1    1    2    0    0  0.45838516183E+01  0.70480467407E+02  0.62347549007E+03  0.63217022605E+03  0.77000000000E+02 0.  0.
   -5000001    1    1    2    0    0 -0.45838516183E+01 -0.70480467407E+02  0.52667506865E+03  0.53693960175E+03  0.77000000000E+02 0.  0.
<mgrwt>
<rscale>  0 0.20969378E+03</rscale>
<asrwt>0</asrwt>
<pdfrwt beam="1">  1        2 0.16566143E+00 0.20969378E+03</pdfrwt>
<pdfrwt beam="2">  1       -2 0.13542337E-02 0.20969378E+03</pdfrwt>
<totfact> 0.31696518E+04</totfact>
</mgrwt>
</event>
<event>
 4    1  0.1308644E-003  0.2690849E+03  0.7818608E-02  0.1101805E+00
          2   -1    0    0  501    0  0.00000000000E+00  0.00000000000E+00  0.23383159369E+03  0.23383159370E+03  0.25500000000E-02 0.  1.
         -2   -1    0    0    0  501 -0.00000000000E+00 -0.00000000000E+00 -0.77413261356E+02  0.77413261398E+02  0.25500000000E-02 0. -1.
    5000001    1    1    2    0    0  0.24333626227E+02 -0.10320502707E+03  0.42949166594E+02  0.13790226209E+03  0.77000000000E+02 0.  0.
   -5000001    1    1    2    0    0 -0.24333626227E+02  0.10320502707E+03  0.11346916574E+03  0.17334259301E+03  0.77000000000E+02 0.  0.
<mgrwt>
<rscale>  0 0.26908487E+03</rscale>
<asrwt>0</asrwt>
<pdfrwt beam="1">  1        2 0.33404513E-01 0.26908487E+03</pdfrwt>
<pdfrwt beam="2">  1       -2 0.11059037E-01 0.26908487E+03</pdfrwt>
<totfact> 0.86999821E+03</totfact>
</mgrwt>
</event>
<event>
 4    1  0.1308644E-003  0.1972775E+03  0.7818608E-02  0.1152057E+00
          2   -1    0    0  501    0  0.00000000000E+00  0.00000000000E+00  0.23413124317E+03  0.23413124318E+03  0.25500000000E-02 0.  1.
         -2   -1    0    0    0  501 -0.00000000000E+00 -0.00000000000E+00 -0.41556179752E+02  0.41556179831E+02  0.25500000000E-02 0. -1.
    5000001    1    1    2    0    0 -0.58610137604E+02 -0.14256520216E+02  0.11408546176E+03  0.15027604328E+03  0.77000000000E+02 0.  0.
   -5000001    1    1    2    0    0  0.58610137604E+02  0.14256520216E+02  0.78489601660E+02  0.12541137974E+03  0.77000000000E+02 0.  0.
<mgrwt>
<rscale>  0 0.19727747E+03</rscale>
<asrwt>0</asrwt>
<pdfrwt beam="1">  1        2 0.33447322E-01 0.19727747E+03</pdfrwt>
<pdfrwt beam="2">  1       -2 0.59365969E-02 0.19727747E+03</pdfrwt>
<totfact> 0.22515876E+04</totfact>
</mgrwt>
</event>
<event>
 4    1  0.1308644E-003  0.1760891E+03  0.7818608E-02  0.1171643E+00
         -2   -1    0    0    0  501 -0.00000000000E+00  0.00000000000E+00  0.32951014395E+01  0.32951024261E+01  0.25500000000E-02 0. -1.
          2   -1    0    0  501    0  0.00000000000E+00 -0.00000000000E+00 -0.23525339016E+04  0.23525339016E+04  0.25500000000E-02 0.  1.
    5000001    1    1    2    0    0  0.33411850563E+02  0.72184800764E+01 -0.15168561709E+04  0.15191938985E+04  0.77000000000E+02 0.  0.
   -5000001    1    1    2    0    0 -0.33411850563E+02 -0.72184800764E+01 -0.83238262929E+03  0.83663510550E+03  0.77000000000E+02 0.  0.
<mgrwt>
<rscale>  0 0.17608906E+03</rscale>
<asrwt>0</asrwt>
<pdfrwt beam="1">  1        2 0.33607520E+00 0.17608906E+03</pdfrwt>
<pdfrwt beam="2">  1       -2 0.47073035E-03 0.17608906E+03</pdfrwt>
<totfact> 0.36818144E+04</totfact>
</mgrwt>
</event>
<event>
 4    1  0.1308644E-003  0.3007815E+03  0.7818608E-02  0.1084851E+00
          2   -1    0    0  501    0  0.00000000000E+00  0.00000000000E+00  0.38158173474E+03  0.38158173475E+03  0.25500000000E-02 0.  1.
         -2   -1    0    0    0  501 -0.00000000000E+00 -0.00000000000E+00 -0.59272684535E+02  0.59272684590E+02  0.25500000000E-02 0. -1.
    5000001    1    1    2    0    0 -0.62222164595E+02 -0.11284058621E+03  0.17457010557E+03  0.23023535224E+03  0.77000000000E+02 0.  0.
   -5000001    1    1    2    0    0  0.62222164595E+02  0.11284058621E+03  0.14773894463E+03  0.21061906710E+03  0.77000000000E+02 0.  0.
<mgrwt>
<rscale>  0 0.30078147E+03</rscale>
<asrwt>0</asrwt>
<pdfrwt beam="1">  1        2 0.54511677E-01 0.30078147E+03</pdfrwt>
<pdfrwt beam="2">  1       -2 0.84675263E-02 0.30078147E+03</pdfrwt>
<totfact> 0.78637126E+03</totfact>
</mgrwt>
</event>
<event>
 4    1  0.1308644E-003  0.2912162E+03  0.7818608E-02  0.1089716E+00
          2   -1    0    0  501    0  0.00000000000E+00  0.00000000000E+00  0.11391339525E+04  0.11391339525E+04  0.25500000000E-02 0.  1.
         -2   -1    0    0    0  501 -0.00000000000E+00 -0.00000000000E+00 -0.18612139140E+02  0.18612139315E+02  0.25500000000E-02 0. -1.
    5000001    1    1    2    0    0  0.73882861248E+02  0.97311946929E+02  0.63404227571E+03  0.65028216920E+03  0.77000000000E+02 0.  0.
   -5000001    1    1    2    0    0 -0.73882861248E+02 -0.97311946929E+02  0.48647953769E+03  0.50746392265E+03  0.77000000000E+02 0.  0.
<mgrwt>
<rscale>  0 0.29121621E+03</rscale>
<asrwt>0</asrwt>
<pdfrwt beam="1">  1        2 0.16273338E+00 0.29121621E+03</pdfrwt>
<pdfrwt beam="2">  1       -2 0.26588776E-02 0.29121621E+03</pdfrwt>
<totfact> 0.12281102E+04</totfact>
</mgrwt>
</event>
<event>
 4    1  0.1308644E-003  0.2850583E+03  0.7818608E-02  0.1092958E+00
         -2   -1    0    0    0  501 -0.00000000000E+00  0.00000000000E+00  0.10198969213E+03  0.10198969216E+03  0.25500000000E-02 0. -1.
          2   -1    0    0  501    0  0.00000000000E+00 -0.00000000000E+00 -0.19918242774E+03  0.19918242775E+03  0.25500000000E-02 0.  1.
    5000001    1    1    2    0    0  0.86951699983E+02 -0.81973719651E+02 -0.59436247147E+02  0.15408425071E+03  0.77000000000E+02 0.  0.
   -5000001    1    1    2    0    0 -0.86951699983E+02  0.81973719651E+02 -0.37756488464E+02  0.14708786920E+03  0.77000000000E+02 0.  0.
<mgrwt>
<rscale>  0 0.28505827E+03</rscale>
<asrwt>0</asrwt>
<pdfrwt beam="1">  1        2 0.28454632E-01 0.28505827E+03</pdfrwt>
<pdfrwt beam="2">  1       -2 0.14569956E-01 0.28505827E+03</pdfrwt>
<totfact> 0.66426051E+03</totfact>
</mgrwt>
</event>
<event>
 4    1  0.1308644E-003  0.2228379E+03  0.7818608E-02  0.1131785E+00
         -2   -1    0    0    0  501 -0.00000000000E+00  0.00000000000E+00  0.40312200436E+03  0.40312200436E+03  0.25500000000E-02 0. -1.
          2   -1    0    0  501    0  0.00000000000E+00 -0.00000000000E+00 -0.30795097544E+02  0.30795097650E+02  0.25500000000E-02 0.  1.
    5000001    1    1    2    0    0 -0.53624720374E+02 -0.59712881357E+02  0.17325539925E+03  0.20588266611E+03  0.77000000000E+02 0.  0.
   -5000001    1    1    2    0    0  0.53624720374E+02  0.59712881357E+02  0.19907150756E+03  0.22803443591E+03  0.77000000000E+02 0.  0.
<mgrwt>
<rscale>  0 0.22283789E+03</rscale>
<asrwt>0</asrwt>
<pdfrwt beam="1">  1        2 0.43993000E-02 0.22283789E+03</pdfrwt>
<pdfrwt beam="2">  1       -2 0.57588854E-01 0.22283789E+03</pdfrwt>
<totfact> 0.52789809E+03</totfact>
</mgrwt>
</event>
<event>
 4    1  0.1308644E-003  0.2554477E+03  0.7818608E-02  0.1109910E+00
         -2   -1    0    0    0  501 -0.00000000000E+00  0.00000000000E+00  0.99930520690E+01  0.99930523944E+01  0.25500000000E-02 0. -1.
          2   -1    0    0  501    0  0.00000000000E+00 -0.00000000000E+00 -0.16324724748E+04  0.16324724748E+04  0.25500000000E-02 0.  1.
    5000001    1    1    2    0    0 -0.66606676432E+02 -0.69139573148E+02 -0.59152905785E+03  0.60419562743E+03  0.77000000000E+02 0.  0.
   -5000001    1    1    2    0    0  0.66606676432E+02  0.69139573148E+02 -0.10309503649E+04  0.10382698998E+04  0.77000000000E+02 0.  0.
<mgrwt>
<rscale>  0 0.25544771E+03</rscale>
<asrwt>0</asrwt>
<pdfrwt beam="1">  1        2 0.23321018E+00 0.25544771E+03</pdfrwt>
<pdfrwt beam="2">  1       -2 0.14275799E-02 0.25544771E+03</pdfrwt>
<totfact> 0.16927752E+04</totfact>
</mgrwt>
</event>
<event>
 4    1  0.1308644E-003  0.5227074E+03  0.7818608E-02  0.1008016E+00
         -2   -1    0    0    0  501 -0.00000000000E+00  0.00000000000E+00  0.32817975046E+03  0.32817975047E+03  0.25500000000E-02 0. -1.
          2   -1    0    0  501    0  0.00000000000E+00 -0.00000000000E+00 -0.20813517884E+03  0.20813517885E+03  0.25500000000E-02 0.  1.
    5000001    1    1    2    0    0 -0.23984137860E+03 -0.17140286518E+02 -0.92563953697E+01  0.25265066231E+03  0.77000000000E+02 0.  0.
   -5000001    1    1    2    0    0  0.23984137860E+03  0.17140286518E+02  0.12930096699E+03  0.28366426701E+03  0.77000000000E+02 0.  0.
<mgrwt>
<rscale>  0 0.52270738E+03</rscale>
<asrwt>0</asrwt>
<pdfrwt beam="1">  1        2 0.29733597E-01 0.52270738E+03</pdfrwt>
<pdfrwt beam="2">  1       -2 0.46882821E-01 0.52270738E+03</pdfrwt>
<totfact> 0.77886184E+02</totfact>
</mgrwt>
</event>
<event>
 4    1  0.1308644E-003  0.3488677E+03  0.7818608E-02  0.1063081E+00
          2   -1    0    0  501    0  0.00000000000E+00  0.00000000000E+00  0.10145249111E+04  0.10145249111E+04  0.25500000000E-02 0.  1.
         -2   -1    0    0    0  501 -0.00000000000E+00 -0.00000000000E+00 -0.29991543422E+02  0.29991543530E+02  0.25500000000E-02 0. -1.
    5000001    1    1    2    0    0 -0.10150186740E+03  0.11344686993E+03  0.38326850086E+03  0.41951944548E+03  0.77000000000E+02 0.  0.
   -5000001    1    1    2    0    0  0.10150186740E+03 -0.11344686993E+03  0.60126486677E+03  0.62499700910E+03  0.77000000000E+02 0.  0.
<mgrwt>
<rscale>  0 0.34886770E+03</rscale>
<asrwt>0</asrwt>
<pdfrwt beam="1">  1        2 0.14493214E+00 0.34886770E+03</pdfrwt>
<pdfrwt beam="2">  1       -2 0.42845058E-02 0.34886770E+03</pdfrwt>
<totfact> 0.71064892E+03</totfact>
</mgrwt>
</event>
<event>
 4    1  0.1308644E-003  0.3075538E+03  0.7818608E-02  0.1081524E+00
         -2   -1    0    0    0  501 -0.00000000000E+00  0.00000000000E+00  0.65569639767E+01  0.65569644726E+01  0.25500000000E-02 0. -1.
          2   -1    0    0  501    0  0.00000000000E+00 -0.00000000000E+00 -0.36064458055E+04  0.36064458055E+04  0.25500000000E-02 0.  1.
    5000001    1    1    2    0    0 -0.86265971083E+02 -0.10001221936E+03 -0.16054615419E+04  0.16127244105E+04  0.77000000000E+02 0.  0.
   -5000001    1    1    2    0    0  0.86265971083E+02  0.10001221936E+03 -0.19944272996E+04  0.20002783594E+04  0.77000000000E+02 0.  0.
<mgrwt>
<rscale>  0 0.30755381E+03</rscale>
<asrwt>0</asrwt>
<pdfrwt beam="1">  1        2 0.51520527E+00 0.30755381E+03</pdfrwt>
<pdfrwt beam="2">  1       -2 0.93671148E-03 0.30755381E+03</pdfrwt>
<totfact> 0.29711070E+03</totfact>
</mgrwt>
</event>
<event>
 4    1  0.1308644E-003  0.2962669E+03  0.7818608E-02  0.1087122E+00
         -2   -1    0    0    0  501 -0.00000000000E+00  0.00000000000E+00  0.32497756721E+02  0.32497756821E+02  0.25500000000E-02 0. -1.
          2   -1    0    0  501    0  0.00000000000E+00 -0.00000000000E+00 -0.67523196244E+03  0.67523196244E+03  0.25500000000E-02 0.  1.
    5000001    1    1    2    0    0  0.11845081533E+03  0.29209716181E+02 -0.40169417943E+03  0.42681496806E+03  0.77000000000E+02 0.  0.
   -5000001    1    1    2    0    0 -0.11845081533E+03 -0.29209716181E+02 -0.24104002629E+03  0.28091475121E+03  0.77000000000E+02 0.  0.
<mgrwt>
<rscale>  0 0.29626693E+03</rscale>
<asrwt>0</asrwt>
<pdfrwt beam="1">  1        2 0.96461700E-01 0.29626693E+03</pdfrwt>
<pdfrwt beam="2">  1       -2 0.46425371E-02 0.29626693E+03</pdfrwt>
<totfact> 0.10493224E+04</totfact>
</mgrwt>
</event>
<event>
 4    1  0.1308644E-003  0.3769850E+03  0.7818608E-02  0.1052054E+00
         -2   -1    0    0    0  501 -0.00000000000E+00  0.00000000000E+00  0.12926368327E+02  0.12926368578E+02  0.25500000000E-02 0. -1.
          2   -1    0    0  501    0  0.00000000000E+00 -0.00000000000E+00 -0.27486007563E+04  0.27486007563E+04  0.25500000000E-02 0.  1.
    5000001    1    1    2    0    0 -0.29529887373E+02  0.15310514618E+03 -0.83519059082E+03  0.85310346560E+03  0.77000000000E+02 0.  0.
   -5000001    1    1    2    0    0  0.29529887373E+02 -0.15310514618E+03 -0.19004837972E+04  0.19084236593E+04  0.77000000000E+02 0.  0.
<mgrwt>
<rscale>  0 0.37698502E+03</rscale>
<asrwt>0</asrwt>
<pdfrwt beam="1">  1        2 0.39265688E+00 0.37698502E+03</pdfrwt>
<pdfrwt beam="2">  1       -2 0.18466258E-02 0.37698502E+03</pdfrwt>
<totfact> 0.32432166E+03</totfact>
</mgrwt>
</event>
<event>
 4    1  0.1308644E-003  0.2584127E+03  0.7818608E-02  0.1108101E+00
          2   -1    0    0  501    0  0.00000000000E+00  0.00000000000E+00  0.52998208772E+03  0.52998208773E+03  0.25500000000E-02 0.  1.
         -2   -1    0    0    0  501 -0.00000000000E+00 -0.00000000000E+00 -0.31499718664E+02  0.31499718768E+02  0.25500000000E-02 0. -1.
    5000001    1    1    2    0    0 -0.95625329762E+02  0.33775256068E+02  0.29686068864E+03  0.32301739903E+03  0.77000000000E+02 0.  0.
   -5000001    1    1    2    0    0  0.95625329762E+02 -0.33775256068E+02  0.20162168041E+03  0.23846440746E+03  0.77000000000E+02 0.  0.
<mgrwt>
<rscale>  0 0.25841274E+03</rscale>
<asrwt>0</asrwt>
<pdfrwt beam="1">  1        2 0.75711723E-01 0.25841274E+03</pdfrwt>
<pdfrwt beam="2">  1       -2 0.44999600E-02 0.25841274E+03</pdfrwt>
<totfact> 0.14426086E+04</totfact>
</mgrwt>
</event>
<event>
 4    1  0.1308644E-003  0.1910570E+03  0.7818608E-02  0.1157511E+00
          2   -1    0    0  501    0  0.00000000000E+00  0.00000000000E+00  0.16657501684E+04  0.16657501684E+04  0.25500000000E-02 0.  1.
         -2   -1    0    0    0  501 -0.00000000000E+00 -0.00000000000E+00 -0.54784307223E+01  0.54784313158E+01  0.25500000000E-02 0. -1.
    5000001    1    1    2    0    0 -0.40496946902E+02  0.24723079214E+02  0.10991006026E+04  0.11028156546E+04  0.77000000000E+02 0.  0.
   -5000001    1    1    2    0    0  0.40496946902E+02 -0.24723079214E+02  0.56117113509E+03  0.56841294515E+03  0.77000000000E+02 0.  0.
<mgrwt>
<rscale>  0 0.19105703E+03</rscale>
<asrwt>0</asrwt>
<pdfrwt beam="1">  1        2 0.23796475E+00 0.19105703E+03</pdfrwt>
<pdfrwt beam="2">  1       -2 0.78263157E-03 0.19105703E+03</pdfrwt>
<totfact> 0.38347218E+04</totfact>
</mgrwt>
</event>
<event>
 4    1  0.1308644E-003  0.2695509E+03  0.7818608E-02  0.1101537E+00
         -2   -1    0    0    0  501 -0.00000000000E+00  0.00000000000E+00  0.19431096224E+02  0.19431096392E+02  0.25500000000E-02 0. -1.
          2   -1    0    0  501    0  0.00000000000E+00 -0.00000000000E+00 -0.93481167471E+03  0.93481167471E+03  0.25500000000E-02 0.  1.
    5000001    1    1    2    0    0 -0.99167651180E+02 -0.41406886704E+02 -0.36492408359E+03  0.38813314738E+03  0.77000000000E+02 0.  0.
   -5000001    1    1    2    0    0  0.99167651180E+02  0.41406886704E+02 -0.55045649489E+03  0.56610962373E+03  0.77000000000E+02 0.  0.
<mgrwt>
<rscale>  0 0.26955085E+03</rscale>
<asrwt>0</asrwt>
<pdfrwt beam="1">  1        2 0.13354450E+00 0.26955085E+03</pdfrwt>
<pdfrwt beam="2">  1       -2 0.27758715E-02 0.26955085E+03</pdfrwt>
<totfact> 0.15101843E+04</totfact>
</mgrwt>
</event>
<event>
 4    1  0.1308644E-003  0.2653599E+03  0.7818608E-02  0.1103965E+00
          2   -1    0    0  501    0  0.00000000000E+00  0.00000000000E+00  0.92846889734E+03  0.92846889734E+03  0.25500000000E-02 0.  1.
         -2   -1    0    0    0  501 -0.00000000000E+00 -0.00000000000E+00 -0.18960210473E+02  0.18960210644E+02  0.25500000000E-02 0. -1.
    5000001    1    1    2    0    0 -0.95345222958E+02  0.68612359790E+01  0.27491408745E+03  0.30107232284E+03  0.77000000000E+02 0.  0.
   -5000001    1    1    2    0    0  0.95345222958E+02 -0.68612359790E+01  0.63459459942E+03  0.64635678515E+03  0.77000000000E+02 0.  0.
<mgrwt>
<rscale>  0 0.26535987E+03</rscale>
<asrwt>0</asrwt>
<pdfrwt beam="1">  1        2 0.13263841E+00 0.26535987E+03</pdfrwt>
<pdfrwt beam="2">  1       -2 0.27086015E-02 0.26535987E+03</pdfrwt>
<totfact> 0.15791725E+04</totfact>
</mgrwt>
</event>
<event>
 4    1  0.1308644E-003  0.1849432E+03  0.7818608E-02  0.1163103E+00
         -2   -1    0    0    0  501 -0.00000000000E+00  0.00000000000E+00  0.76357029319E+01  0.76357033577E+01  0.25500000000E-02 0. -1.
          2   -1    0    0  501    0  0.00000000000E+00 -0.00000000000E+00 -0.11198699752E+04  0.11198699752E+04  0.25500000000E-02 0.  1.
    5000001    1    1    2    0    0  0.49454362385E+02 -0.11544163224E+02 -0.59609130620E+03  0.60318558254E+03  0.77000000000E+02 0.  0.
   -5000001    1    1    2    0    0 -0.49454362385E+02  0.11544163224E+02 -0.51614296605E+03  0.52432009599E+03  0.77000000000E+02 0.  0.
<mgrwt>
<rscale>  0 0.18494318E+03</rscale>
<asrwt>0</asrwt>
<pdfrwt beam="1">  1        2 0.15998132E+00 0.18494318E+03</pdfrwt>
<pdfrwt beam="2">  1       -2 0.10908154E-02 0.18494318E+03</pdfrwt>
<totfact> 0.45160930E+04</totfact>
</mgrwt>
</event>
<event>
 4    1  0.1308644E-003  0.3052812E+03  0.7818608E-02  0.1082630E+00
         -2   -1    0    0    0  501 -0.00000000000E+00  0.00000000000E+00  0.15035749791E+02  0.15035750007E+02  0.25500000000E-02 0. -1.
          2   -1    0    0  501    0  0.00000000000E+00 -0.00000000000E+00 -0.15495839898E+04  0.15495839898E+04  0.25500000000E-02 0.  1.
    5000001    1    1    2    0    0 -0.58170393032E+02  0.87090304595E+02 -0.11773407024E+04  0.11844951014E+04  0.77000000000E+02 0.  0.
   -5000001    1    1    2    0    0  0.58170393032E+02 -0.87090304595E+02 -0.35720753762E+03  0.38012463839E+03  0.77000000000E+02 0.  0.
<mgrwt>
<rscale>  0 0.30528123E+03</rscale>
<asrwt>0</asrwt>
<pdfrwt beam="1">  1        2 0.22136904E+00 0.30528123E+03</pdfrwt>
<pdfrwt beam="2">  1       -2 0.21479653E-02 0.30528123E+03</pdfrwt>
<totfact> 0.10270071E+04</totfact>
</mgrwt>
</event>
<event>
 4    1  0.1308644E-003  0.2976170E+03  0.7818608E-02  0.1086438E+00
          2   -1    0    0  501    0  0.00000000000E+00  0.00000000000E+00  0.23865184971E+04  0.23865184971E+04  0.25500000000E-02 0.  1.
         -2   -1    0    0    0  501 -0.00000000000E+00 -0.00000000000E+00 -0.92787774666E+01  0.92787778170E+01  0.25500000000E-02 0. -1.
    5000001    1    1    2    0    0  0.75690838436E+02 -0.42108255878E+02  0.19400183463E+04  0.19434768824E+04  0.77000000000E+02 0.  0.
   -5000001    1    1    2    0    0 -0.75690838436E+02  0.42108255878E+02  0.43722137333E+03  0.45232039256E+03  0.77000000000E+02 0.  0.
<mgrwt>
<rscale>  0 0.29761703E+03</rscale>
<asrwt>0</asrwt>
<pdfrwt beam="1">  1        2 0.34093073E+00 0.29761703E+03</pdfrwt>
<pdfrwt beam="2">  1       -2 0.13255416E-02 0.29761703E+03</pdfrwt>
<totfact> 0.80771129E+03</totfact>
</mgrwt>
</event>
<event>
 4    1  0.1308644E-003  0.2213197E+03  0.7818608E-02  0.1132903E+00
          2   -1    0    0  501    0  0.00000000000E+00  0.00000000000E+00  0.10368863402E+03  0.10368863405E+03  0.25500000000E-02 0.  1.
         -2   -1    0    0    0  501 -0.00000000000E+00 -0.00000000000E+00 -0.11809970283E+03  0.11809970286E+03  0.25500000000E-02 0. -1.
    5000001    1    1    2    0    0  0.65136255931E+02 -0.41734713100E+02 -0.25467153364E+02  0.11208074774E+03  0.77000000000E+02 0.  0.
   -5000001    1    1    2    0    0 -0.65136255931E+02  0.41734713100E+02  0.11056084551E+02  0.10970758916E+03  0.77000000000E+02 0.  0.
<mgrwt>
<rscale>  0 0.22131965E+03</rscale>
<asrwt>0</asrwt>
<pdfrwt beam="1">  1        2 0.14812662E-01 0.22131965E+03</pdfrwt>
<pdfrwt beam="2">  1       -2 0.16871386E-01 0.22131965E+03</pdfrwt>
<totfact> 0.10838136E+04</totfact>
</mgrwt>
</event>
<event>
 4    1  0.1308644E-003  0.5816560E+03  0.7818608E-02  0.9944212E-01
         -2   -1    0    0    0  501 -0.00000000000E+00  0.00000000000E+00  0.86560432449E+02  0.86560432487E+02  0.25500000000E-02 0. -1.
          2   -1    0    0  501    0  0.00000000000E+00 -0.00000000000E+00 -0.97713147886E+03  0.97713147886E+03  0.25500000000E-02 0.  1.
    5000001    1    1    2    0    0 -0.20361942820E+03  0.19252088096E+03 -0.42469607941E+03  0.51460754076E+03  0.77000000000E+02 0.  0.
   -5000001    1    1    2    0    0  0.20361942820E+03 -0.19252088096E+03 -0.46587496700E+03  0.54908437059E+03  0.77000000000E+02 0.  0.
<mgrwt>
<rscale>  0 0.58165599E+03</rscale>
<asrwt>0</asrwt>
<pdfrwt beam="1">  1        2 0.13959021E+00 0.58165599E+03</pdfrwt>
<pdfrwt beam="2">  1       -2 0.12365777E-01 0.58165599E+03</pdfrwt>
<totfact> 0.14110969E+03</totfact>
</mgrwt>
</event>
<event>
 4    1  0.1308644E-003  0.1697230E+03  0.7818608E-02  0.1178137E+00
          2   -1    0    0  501    0  0.00000000000E+00  0.00000000000E+00  0.89286730921E+03  0.89286730922E+03  0.25500000000E-02 0.  1.
         -2   -1    0    0    0  501 -0.00000000000E+00 -0.00000000000E+00 -0.80655598902E+01  0.80655602933E+01  0.25500000000E-02 0. -1.
    5000001    1    1    2    0    0  0.31722164824E+02  0.16100871717E+02  0.45638601253E+03  0.46420117002E+03  0.77000000000E+02 0.  0.
   -5000001    1    1    2    0    0 -0.31722164824E+02 -0.16100871717E+02  0.42841573679E+03  0.43673169949E+03  0.77000000000E+02 0.  0.
<mgrwt>
<rscale>  0 0.16972301E+03</rscale>
<asrwt>0</asrwt>
<pdfrwt beam="1">  1        2 0.12755245E+00 0.16972301E+03</pdfrwt>
<pdfrwt beam="2">  1       -2 0.11522230E-02 0.16972301E+03</pdfrwt>
<totfact> 0.56137494E+04</totfact>
</mgrwt>
</event>
<event>
 4    1  0.1308644E-003  0.1779606E+03  0.7818608E-02  0.1169792E+00
         -2   -1    0    0    0  501 -0.00000000000E+00  0.00000000000E+00  0.10479849182E+02  0.10479849492E+02  0.25500000000E-02 0. -1.
          2   -1    0    0  501    0  0.00000000000E+00 -0.00000000000E+00 -0.75549657596E+03  0.75549657596E+03  0.25500000000E-02 0.  1.
    5000001    1    1    2    0    0 -0.41136707496E+02 -0.16613719860E+02 -0.35314145884E+03  0.36415125202E+03  0.77000000000E+02 0.  0.
   -5000001    1    1    2    0    0  0.41136707496E+02  0.16613719860E+02 -0.39187526793E+03  0.40182517344E+03  0.77000000000E+02 0.  0.
<mgrwt>
<rscale>  0 0.17796056E+03</rscale>
<asrwt>0</asrwt>
<pdfrwt beam="1">  1        2 0.10792805E+00 0.17796056E+03</pdfrwt>
<pdfrwt beam="2">  1       -2 0.14971218E-02 0.17796056E+03</pdfrwt>
<totfact> 0.47459157E+04</totfact>
</mgrwt>
</event>
<event>
 4    1  0.1308644E-003  0.2322615E+03  0.7818608E-02  0.1125058E+00
         -2   -1    0    0    0  501 -0.00000000000E+00  0.00000000000E+00  0.76083324031E+01  0.76083328304E+01  0.25500000000E-02 0. -1.
          2   -1    0    0  501    0  0.00000000000E+00 -0.00000000000E+00 -0.17725763763E+04  0.17725763763E+04  0.25500000000E-02 0.  1.
    5000001    1    1    2    0    0  0.86507747794E+02  0.22149293952E+01 -0.81888455866E+03  0.82703652685E+03  0.77000000000E+02 0.  0.
   -5000001    1    1    2    0    0 -0.86507747794E+02 -0.22149293952E+01 -0.94608348527E+03  0.95314818231E+03  0.77000000000E+02 0.  0.
<mgrwt>
<rscale>  0 0.23226150E+03</rscale>
<asrwt>0</asrwt>
<pdfrwt beam="1">  1        2 0.25322493E+00 0.23226150E+03</pdfrwt>
<pdfrwt beam="2">  1       -2 0.10869058E-02 0.23226150E+03</pdfrwt>
<totfact> 0.21397847E+04</totfact>
</mgrwt>
</event>
<event>
 4    1  0.1308644E-003  0.2635541E+03  0.7818608E-02  0.1105026E+00
          2   -1    0    0  501    0  0.00000000000E+00  0.00000000000E+00  0.10959819282E+03  0.10959819285E+03  0.25500000000E-02 0.  1.
         -2   -1    0    0    0  501 -0.00000000000E+00 -0.00000000000E+00 -0.15844418992E+03  0.15844418994E+03  0.25500000000E-02 0. -1.
    5000001    1    1    2    0    0 -0.62302112795E+02 -0.86912098013E+02 -0.23441764965E+02  0.13384237888E+03  0.77000000000E+02 0.  0.
   -5000001    1    1    2    0    0  0.62302112795E+02  0.86912098013E+02 -0.25404232132E+02  0.13420000391E+03  0.77000000000E+02 0.  0.
<mgrwt>
<rscale>  0 0.26355415E+03</rscale>
<asrwt>0</asrwt>
<pdfrwt beam="1">  1        2 0.15656885E-01 0.26355415E+03</pdfrwt>
<pdfrwt beam="2">  1       -2 0.22634884E-01 0.26355415E+03</pdfrwt>
<totfact> 0.62104392E+03</totfact>
</mgrwt>
</event>
<event>
 4    1  0.1308644E-003  0.1617877E+03  0.7818608E-02  0.1186693E+00
         -2   -1    0    0    0  501 -0.00000000000E+00  0.00000000000E+00  0.76850613450E+02  0.76850613492E+02  0.25500000000E-02 0. -1.
          2   -1    0    0  501    0  0.00000000000E+00 -0.00000000000E+00 -0.85149844734E+02  0.85149844772E+02  0.25500000000E-02 0.  1.
    5000001    1    1    2    0    0  0.20945598035E+02 -0.64759695845E+01 -0.15747657769E+02  0.81594393094E+02  0.77000000000E+02 0.  0.
   -5000001    1    1    2    0    0 -0.20945598035E+02  0.64759695845E+01  0.74484264848E+01  0.80406065171E+02  0.77000000000E+02 0.  0.
<mgrwt>
<rscale>  0 0.16178774E+03</rscale>
<asrwt>0</asrwt>
<pdfrwt beam="1">  1        2 0.12164264E-01 0.16178774E+03</pdfrwt>
<pdfrwt beam="2">  1       -2 0.10978659E-01 0.16178774E+03</pdfrwt>
<totfact> 0.26908437E+04</totfact>
</mgrwt>
</event>
<event>
 4    1  0.1308644E-003  0.3294537E+03  0.7818608E-02  0.1071379E+00
          2   -1    0    0  501    0  0.00000000000E+00  0.00000000000E+00  0.47541186629E+03  0.47541186629E+03  0.25500000000E-02 0. -1.
         -2   -1    0    0    0  501 -0.00000000000E+00 -0.00000000000E+00 -0.57076680409E+02  0.57076680466E+02  0.25500000000E-02 0.  1.
    5000001    1    1    2    0    0  0.10744987184E+03 -0.77060791040E+02  0.30777496594E+03  0.34371248178E+03  0.77000000000E+02 0.  0.
   -5000001    1    1    2    0    0 -0.10744987184E+03  0.77060791040E+02  0.11056021994E+03  0.18877606497E+03  0.77000000000E+02 0.  0.
<mgrwt>
<rscale>  0 0.32945368E+03</rscale>
<asrwt>0</asrwt>
<pdfrwt beam="1">  1        2 0.67915979E-01 0.32945368E+03</pdfrwt>
<pdfrwt beam="2">  1       -2 0.81538117E-02 0.32945368E+03</pdfrwt>
<totfact> 0.65824145E+03</totfact>
</mgrwt>
</event>
<event>
 4    1  0.1308644E-003  0.2129336E+03  0.7818608E-02  0.1139264E+00
          2   -1    0    0  501    0  0.00000000000E+00  0.00000000000E+00  0.16693097049E+04  0.16693097049E+04  0.25500000000E-02 0.  1.
         -2   -1    0    0    0  501 -0.00000000000E+00 -0.00000000000E+00 -0.67903373536E+01  0.67903378324E+01  0.25500000000E-02 0. -1.
    5000001    1    1    2    0    0  0.47602512533E+02  0.27594164509E+02  0.12151695081E+04  0.12188491992E+04  0.77000000000E+02 0.  0.
   -5000001    1    1    2    0    0 -0.47602512533E+02 -0.27594164509E+02  0.44734985948E+03  0.45725084352E+03  0.77000000000E+02 0.  0.
<mgrwt>
<rscale>  0 0.21293357E+03</rscale>
<asrwt>0</asrwt>
<pdfrwt beam="1">  1        2 0.23847281E+00 0.21293357E+03</pdfrwt>
<pdfrwt beam="2">  1       -2 0.97004823E-03 0.21293357E+03</pdfrwt>
<totfact> 0.28217337E+04</totfact>
</mgrwt>
</event>
<event>
 4    1  0.1308644E-003  0.2426643E+03  0.7818608E-02  0.1118031E+00
         -2   -1    0    0    0  501 -0.00000000000E+00  0.00000000000E+00  0.90991911639E+02  0.90991911675E+02  0.25500000000E-02 0. -1.
          2   -1    0    0  501    0  0.00000000000E+00 -0.00000000000E+00 -0.16178902536E+03  0.16178902538E+03  0.25500000000E-02 0.  1.
    5000001    1    1    2    0    0 -0.12322124668E+02  0.45992458941E+02  0.48748777093E+02  0.10282307282E+03  0.77000000000E+02 0.  0.
   -5000001    1    1    2    0    0  0.12322124668E+02 -0.45992458941E+02 -0.11954589081E+03  0.14995786423E+03  0.77000000000E+02 0.  0.
<mgrwt>
<rscale>  0 0.24266432E+03</rscale>
<asrwt>0</asrwt>
<pdfrwt beam="1">  1        2 0.23112718E-01 0.24266432E+03</pdfrwt>
<pdfrwt beam="2">  1       -2 0.12998845E-01 0.24266432E+03</pdfrwt>
<totfact> 0.10019980E+04</totfact>
</mgrwt>
</event>
<event>
 4    1  0.1308644E-003  0.2726711E+03  0.7818608E-02  0.1099761E+00
          2   -1    0    0  501    0  0.00000000000E+00  0.00000000000E+00  0.30582234772E+03  0.30582234773E+03  0.25500000000E-02 0.  1.
         -2   -1    0    0    0  501 -0.00000000000E+00 -0.00000000000E+00 -0.60778368113E+02  0.60778368167E+02  0.25500000000E-02 0. -1.
    5000001    1    1    2    0    0  0.10577490722E+03 -0.23782037134E+02  0.82087633145E+02  0.15627314486E+03  0.77000000000E+02 0.  0.
   -5000001    1    1    2    0    0 -0.10577490722E+03  0.23782037134E+02  0.16295634646E+03  0.21032757104E+03  0.77000000000E+02 0.  0.
<mgrwt>
<rscale>  0 0.27267111E+03</rscale>
<asrwt>0</asrwt>
<pdfrwt beam="1">  1        2 0.43688908E-01 0.27267111E+03</pdfrwt>
<pdfrwt beam="2">  1       -2 0.86826238E-02 0.27267111E+03</pdfrwt>
<totfact> 0.95602986E+03</totfact>
</mgrwt>
</event>
<event>
 4    1  0.1308644E-003  0.3755048E+03  0.7818608E-02  0.1052608E+00
          2   -1    0    0  501    0  0.00000000000E+00  0.00000000000E+00  0.43182344783E+03  0.43182344784E+03  0.25500000000E-02 0.  1.
         -2   -1    0    0    0  501 -0.00000000000E+00 -0.00000000000E+00 -0.81632822509E+02  0.81632822549E+02  0.25500000000E-02 0. -1.
    5000001    1    1    2    0    0 -0.15991712465E+03 -0.59726044427E+02  0.19350568572E+03  0.26928449184E+03  0.77000000000E+02 0.  0.
   -5000001    1    1    2    0    0  0.15991712465E+03  0.59726044427E+02  0.15668493960E+03  0.24417177854E+03  0.77000000000E+02 0.  0.
<mgrwt>
<rscale>  0 0.37550482E+03</rscale>
<asrwt>0</asrwt>
<pdfrwt beam="1">  1        2 0.61689065E-01 0.37550482E+03</pdfrwt>
<pdfrwt beam="2">  1       -2 0.11661832E-01 0.37550482E+03</pdfrwt>
<totfact> 0.41472118E+03</totfact>
</mgrwt>
</event>
<event>
 4    1  0.1308644E-003  0.2018649E+03  0.7818608E-02  0.1148175E+00
         -2   -1    0    0    0  501 -0.00000000000E+00  0.00000000000E+00  0.26425659743E+02  0.26425659866E+02  0.25500000000E-02 0. -1.
          2   -1    0    0  501    0  0.00000000000E+00 -0.00000000000E+00 -0.38550998643E+03  0.38550998643E+03  0.25500000000E-02 0.  1.
    5000001    1    1    2    0    0 -0.49833348640E+02  0.42119390331E+02 -0.18153122436E+03  0.20770168775E+03  0.77000000000E+02 0.  0.
   -5000001    1    1    2    0    0  0.49833348640E+02 -0.42119390331E+02 -0.17755310232E+03  0.20423395855E+03  0.77000000000E+02 0.  0.
<mgrwt>
<rscale>  0 0.20186486E+03</rscale>
<asrwt>0</asrwt>
<pdfrwt beam="1">  1        2 0.55072852E-01 0.20186486E+03</pdfrwt>
<pdfrwt beam="2">  1       -2 0.37750945E-02 0.20186486E+03</pdfrwt>
<totfact> 0.26151309E+04</totfact>
</mgrwt>
</event>
<event>
 4    1  0.1308644E-003  0.3651759E+03  0.7818608E-02  0.1056553E+00
          2   -1    0    0  501    0  0.00000000000E+00  0.00000000000E+00  0.50045037499E+03  0.50045037500E+03  0.25500000000E-02 0.  1.
         -2   -1    0    0    0  501 -0.00000000000E+00 -0.00000000000E+00 -0.66616702904E+02  0.66616702952E+02  0.25500000000E-02 0. -1.
    5000001    1    1    2    0    0  0.12973919901E+03  0.10218908083E+03  0.23492505827E+03  0.29731069776E+03  0.77000000000E+02 0.  0.
   -5000001    1    1    2    0    0 -0.12973919901E+03 -0.10218908083E+03  0.19890861382E+03  0.26975638019E+03  0.77000000000E+02 0.  0.
<mgrwt>
<rscale>  0 0.36517587E+03</rscale>
<asrwt>0</asrwt>
<pdfrwt beam="1">  1        2 0.71492904E-01 0.36517587E+03</pdfrwt>
<pdfrwt beam="2">  1       -2 0.95166727E-02 0.36517587E+03</pdfrwt>
<totfact> 0.48810316E+03</totfact>
</mgrwt>
</event>
<event>
 4    1  0.1308644E-003  0.1765317E+03  0.7818608E-02  0.1171203E+00
          2   -1    0    0  501    0  0.00000000000E+00  0.00000000000E+00  0.51511516404E+03  0.51511516405E+03  0.25500000000E-02 0.  1.
         -2   -1    0    0    0  501 -0.00000000000E+00 -0.00000000000E+00 -0.15124503176E+02  0.15124503391E+02  0.25500000000E-02 0. -1.
    5000001    1    1    2    0    0  0.27796216972E+02  0.13355655564E+02  0.34064678497E+03  0.35059982220E+03  0.77000000000E+02 0.  0.
   -5000001    1    1    2    0    0 -0.27796216972E+02 -0.13355655564E+02  0.15934387590E+03  0.17963984524E+03  0.77000000000E+02 0.  0.
<mgrwt>
<rscale>  0 0.17653171E+03</rscale>
<asrwt>0</asrwt>
<pdfrwt beam="1">  1        2 0.73587900E-01 0.17653171E+03</pdfrwt>
<pdfrwt beam="2">  1       -2 0.21606428E-02 0.17653171E+03</pdfrwt>
<totfact> 0.43055760E+04</totfact>
</mgrwt>
</event>
<event>
 4    1  0.1308644E-003  0.3702106E+03  0.7818608E-02  0.1054612E+00
          2   -1    0    0  501    0  0.00000000000E+00  0.00000000000E+00  0.58876086450E+02  0.58876086505E+02  0.25500000000E-02 0.  1.
         -2   -1    0    0    0  501 -0.00000000000E+00 -0.00000000000E+00 -0.58196765613E+03  0.58196765614E+03  0.25500000000E-02 0. -1.
    5000001    1    1    2    0    0  0.16369953878E+03  0.70140994595E-01 -0.32941948426E+03  0.37582408189E+03  0.77000000000E+02 0.  0.
   -5000001    1    1    2    0    0 -0.16369953878E+03 -0.70140994595E-01 -0.19367208542E+03  0.26501966076E+03  0.77000000000E+02 0.  0.
<mgrwt>
<rscale>  0 0.37021063E+03</rscale>
<asrwt>0</asrwt>
<pdfrwt beam="1">  1        2 0.84108698E-02 0.37021063E+03</pdfrwt>
<pdfrwt beam="2">  1       -2 0.83138233E-01 0.37021063E+03</pdfrwt>
<totfact> 0.10500374E+03</totfact>
</mgrwt>
</event>
<event>
 4    1  0.1308644E-003  0.4563407E+03  0.7818608E-02  0.1025848E+00
          2   -1    0    0  501    0  0.00000000000E+00  0.00000000000E+00  0.16192104658E+03  0.16192104660E+03  0.25500000000E-02 0.  1.
         -2   -1    0    0    0  501 -0.00000000000E+00 -0.00000000000E+00 -0.32152530077E+03  0.32152530078E+03  0.25500000000E-02 0. -1.
    5000001    1    1    2    0    0 -0.84649777833E+02  0.19713197380E+03 -0.90715118640E+02  0.24532597240E+03  0.77000000000E+02 0.  0.
   -5000001    1    1    2    0    0  0.84649777833E+02 -0.19713197380E+03 -0.68889135552E+02  0.23812037498E+03  0.77000000000E+02 0.  0.
<mgrwt>
<rscale>  0 0.45634072E+03</rscale>
<asrwt>0</asrwt>
<pdfrwt beam="1">  1        2 0.23131578E-01 0.45634072E+03</pdfrwt>
<pdfrwt beam="2">  1       -2 0.45932186E-01 0.45634072E+03</pdfrwt>
<totfact> 0.10777057E+03</totfact>
</mgrwt>
</event>
<event>
 4    1  0.1308644E-003  0.2648066E+03  0.7818608E-02  0.1104289E+00
          2   -1    0    0  501    0  0.00000000000E+00  0.00000000000E+00  0.33174488330E+03  0.33174488331E+03  0.25500000000E-02 0.  1.
         -2   -1    0    0    0  501 -0.00000000000E+00 -0.00000000000E+00 -0.52843727416E+02  0.52843727478E+02  0.25500000000E-02 0. -1.
    5000001    1    1    2    0    0 -0.93547649567E+02 -0.15560614882E+02  0.21362424416E+03  0.24608456507E+03  0.77000000000E+02 0.  0.
   -5000001    1    1    2    0    0  0.93547649567E+02  0.15560614882E+02  0.65276911726E+02  0.13850404572E+03  0.77000000000E+02 0.  0.
<mgrwt>
<rscale>  0 0.26480662E+03</rscale>
<asrwt>0</asrwt>
<pdfrwt beam="1">  1        2 0.47392129E-01 0.26480662E+03</pdfrwt>
<pdfrwt beam="2">  1       -2 0.75491035E-02 0.26480662E+03</pdfrwt>
<totfact> 0.10886234E+04</totfact>
</mgrwt>
</event>
<event>
 4    1  0.1308644E-003  0.1896555E+03  0.7818608E-02  0.1158772E+00
         -2   -1    0    0    0  501 -0.00000000000E+00  0.00000000000E+00  0.33821471114E+02  0.33821471210E+02  0.25500000000E-02 0. -1.
          2   -1    0    0  501    0  0.00000000000E+00 -0.00000000000E+00 -0.26587568121E+03  0.26587568122E+03  0.25500000000E-02 0.  1.
    5000001    1    1    2    0    0 -0.29290318260E+02  0.28501446524E+02 -0.57047664284E+02  0.10418105009E+03  0.77000000000E+02 0.  0.
   -5000001    1    1    2    0    0  0.29290318260E+02 -0.28501446524E+02 -0.17500654581E+03  0.19551610234E+03  0.77000000000E+02 0.  0.
<mgrwt>
<rscale>  0 0.18965555E+03</rscale>
<asrwt>0</asrwt>
<pdfrwt beam="1">  1        2 0.37982239E-01 0.18965555E+03</pdfrwt>
<pdfrwt beam="2">  1       -2 0.48316389E-02 0.18965555E+03</pdfrwt>
<totfact> 0.26741737E+04</totfact>
</mgrwt>
</event>
<event>
 4    1  0.1308644E-003  0.2927967E+03  0.7818608E-02  0.1088898E+00
          2   -1    0    0  501    0  0.00000000000E+00  0.00000000000E+00  0.71813522972E+03  0.71813522973E+03  0.25500000000E-02 0.  1.
         -2   -1    0    0    0  501 -0.00000000000E+00 -0.00000000000E+00 -0.29844634889E+02  0.29844634998E+02  0.25500000000E-02 0. -1.
    5000001    1    1    2    0    0 -0.64704493151E+02 -0.21819592185E+02  0.61012756115E+03  0.61874664194E+03  0.77000000000E+02 0.  0.
   -5000001    1    1    2    0    0  0.64704493151E+02  0.21819592185E+02  0.78163033688E+02  0.12923322279E+03  0.77000000000E+02 0.  0.
<mgrwt>
<rscale>  0 0.29279675E+03</rscale>
<asrwt>0</asrwt>
<pdfrwt beam="1">  1        2 0.10259073E+00 0.29279675E+03</pdfrwt>
<pdfrwt beam="2">  1       -2 0.42635199E-02 0.29279675E+03</pdfrwt>
<totfact> 0.11090120E+04</totfact>
</mgrwt>
</event>
<event>
 4    1  0.1308644E-003  0.2211224E+03  0.7818608E-02  0.1133049E+00
         -2   -1    0    0    0  501 -0.00000000000E+00  0.00000000000E+00  0.14333488384E+02  0.14333488611E+02  0.25500000000E-02 0. -1.
          2   -1    0    0  501    0  0.00000000000E+00 -0.00000000000E+00 -0.85281248871E+03  0.85281248871E+03  0.25500000000E-02 0.  1.
    5000001    1    1    2    0    0  0.66497437450E+02 -0.94370313621E+01 -0.58486756995E+03  0.59372556045E+03  0.77000000000E+02 0.  0.
   -5000001    1    1    2    0    0 -0.66497437450E+02  0.94370313621E+01 -0.25361143037E+03  0.27342041688E+03  0.77000000000E+02 0.  0.
<mgrwt>
<rscale>  0 0.22112239E+03</rscale>
<asrwt>0</asrwt>
<pdfrwt beam="1">  1        2 0.12183032E+00 0.22112239E+03</pdfrwt>
<pdfrwt beam="2">  1       -2 0.20476418E-02 0.22112239E+03</pdfrwt>
<totfact> 0.26347364E+04</totfact>
</mgrwt>
</event>
<event>
 4    1  0.1308644E-003  0.1819730E+03  0.7818608E-02  0.1165907E+00
          2   -1    0    0  501    0  0.00000000000E+00  0.00000000000E+00  0.39237603455E+01  0.39237611741E+01  0.25500000000E-02 0.  1.
         -2   -1    0    0    0  501 -0.00000000000E+00 -0.00000000000E+00 -0.21098494021E+04  0.21098494021E+04  0.25500000000E-02 0. -1.
    5000001    1    1    2    0    0 -0.32435546342E+02 -0.35665761731E+02 -0.11115430127E+04  0.11152492907E+04  0.77000000000E+02 0.  0.
   -5000001    1    1    2    0    0  0.32435546342E+02  0.35665761731E+02 -0.99438262904E+03  0.99852387260E+03  0.77000000000E+02 0.  0.
<mgrwt>
<rscale>  0 0.18197301E+03</rscale>
<asrwt>0</asrwt>
<pdfrwt beam="1">  1        2 0.56053860E-03 0.18197301E+03</pdfrwt>
<pdfrwt beam="2">  1       -2 0.30140633E+00 0.18197301E+03</pdfrwt>
<totfact> 0.11568737E+03</totfact>
</mgrwt>
</event>
<event>
 4    1  0.1308644E-003  0.2106065E+03  0.7818608E-02  0.1141087E+00
          2   -1    0    0  501    0  0.00000000000E+00  0.00000000000E+00  0.27714055333E+03  0.27714055334E+03  0.25500000000E-02 0.  1.
         -2   -1    0    0    0  501 -0.00000000000E+00 -0.00000000000E+00 -0.40011384775E+02  0.40011384856E+02  0.25500000000E-02 0. -1.
    5000001    1    1    2    0    0 -0.41787782265E+02  0.35922037614E+02  0.18795308401E+03  0.21045658298E+03  0.77000000000E+02 0.  0.
   -5000001    1    1    2    0    0  0.41787782265E+02 -0.35922037614E+02  0.49176084546E+02  0.10669535521E+03  0.77000000000E+02 0.  0.
<mgrwt>
<rscale>  0 0.21060653E+03</rscale>
<asrwt>0</asrwt>
<pdfrwt beam="1">  1        2 0.39591507E-01 0.21060653E+03</pdfrwt>
<pdfrwt beam="2">  1       -2 0.57159122E-02 0.21060653E+03</pdfrwt>
<totfact> 0.19986317E+04</totfact>
</mgrwt>
</event>
<event>
 4    1  0.1308644E-003  0.2171114E+03  0.7818608E-02  0.1136055E+00
          2   -1    0    0  501    0  0.00000000000E+00  0.00000000000E+00  0.49937200683E+03  0.49937200684E+03  0.25500000000E-02 0.  1.
         -2   -1    0    0    0  501 -0.00000000000E+00 -0.00000000000E+00 -0.23598314814E+02  0.23598314951E+02  0.25500000000E-02 0. -1.
    5000001    1    1    2    0    0 -0.29584503574E+02  0.46066197917E+02  0.10911361294E+03  0.14433335710E+03  0.77000000000E+02 0.  0.
   -5000001    1    1    2    0    0  0.29584503574E+02 -0.46066197917E+02  0.36666007908E+03  0.37863696469E+03  0.77000000000E+02 0.  0.
<mgrwt>
<rscale>  0 0.21711138E+03</rscale>
<asrwt>0</asrwt>
<pdfrwt beam="1">  1        2 0.71338854E-01 0.21711138E+03</pdfrwt>
<pdfrwt beam="2">  1       -2 0.33711880E-02 0.21711138E+03</pdfrwt>
<totfact> 0.23510899E+04</totfact>
</mgrwt>
</event>
<event>
 4    1  0.1308644E-003  0.3169525E+03  0.7818608E-02  0.1077060E+00
          2   -1    0    0  501    0  0.00000000000E+00  0.00000000000E+00  0.20084408978E+04  0.20084408978E+04  0.25500000000E-02 0.  1.
         -2   -1    0    0    0  501 -0.00000000000E+00 -0.00000000000E+00 -0.12504588545E+02  0.12504588805E+02  0.25500000000E-02 0. -1.
    5000001    1    1    2    0    0  0.70653790005E+02  0.11844127464E+03  0.91595709961E+03  0.92947657416E+03  0.77000000000E+02 0.  0.
   -5000001    1    1    2    0    0 -0.70653790005E+02 -0.11844127464E+03  0.10799792097E+04  0.10914689125E+04  0.77000000000E+02 0.  0.
<mgrwt>
<rscale>  0 0.31695253E+03</rscale>
<asrwt>0</asrwt>
<pdfrwt beam="1">  1        2 0.28691995E+00 0.31695253E+03</pdfrwt>
<pdfrwt beam="2">  1       -2 0.17863709E-02 0.31695253E+03</pdfrwt>
<totfact> 0.80021023E+03</totfact>
</mgrwt>
</event>
<event>
 4    1  0.1308644E-003  0.3055595E+03  0.7818608E-02  0.1082494E+00
         -2   -1    0    0    0  501 -0.00000000000E+00  0.00000000000E+00  0.19069233271E+02  0.19069233442E+02  0.25500000000E-02 0. -1.
          2   -1    0    0  501    0  0.00000000000E+00 -0.00000000000E+00 -0.12240479410E+04  0.12240479410E+04  0.25500000000E-02 0.  1.
    5000001    1    1    2    0    0 -0.22505643851E+02 -0.10052072446E+03 -0.93801530710E+03  0.94679070359E+03  0.77000000000E+02 0.  0.
   -5000001    1    1    2    0    0  0.22505643851E+02  0.10052072446E+03 -0.26696340058E+03  0.29632647081E+03  0.77000000000E+02 0.  0.
<mgrwt>
<rscale>  0 0.30555952E+03</rscale>
<asrwt>0</asrwt>
<pdfrwt beam="1">  1        2 0.17486394E+00 0.30555952E+03</pdfrwt>
<pdfrwt beam="2">  1       -2 0.27241770E-02 0.30555952E+03</pdfrwt>
<totfact> 0.10656708E+04</totfact>
</mgrwt>
</event>
<event>
 4    1  0.1308644E-003  0.2028660E+03  0.7818608E-02  0.1147343E+00
          2   -1    0    0  501    0  0.00000000000E+00  0.00000000000E+00  0.75417130977E+03  0.75417130977E+03  0.25500000000E-02 0.  1.
         -2   -1    0    0    0  501 -0.00000000000E+00 -0.00000000000E+00 -0.13642330263E+02  0.13642330501E+02  0.25500000000E-02 0. -1.
    5000001    1    1    2    0    0  0.33581686415E+02  0.46841549356E+02  0.24833687677E+03  0.26631196888E+03  0.77000000000E+02 0.  0.
   -5000001    1    1    2    0    0 -0.33581686415E+02 -0.46841549356E+02  0.49219210273E+03  0.50150167139E+03  0.77000000000E+02 0.  0.
<mgrwt>
<rscale>  0 0.20286601E+03</rscale>
<asrwt>0</asrwt>
<pdfrwt beam="1">  1        2 0.10773877E+00 0.20286601E+03</pdfrwt>
<pdfrwt beam="2">  1       -2 0.19489042E-02 0.20286601E+03</pdfrwt>
<totfact> 0.32752052E+04</totfact>
</mgrwt>
</event>
<event>
 4    1  0.1308644E-003  0.2880256E+03  0.7818608E-02  0.1091385E+00
         -2   -1    0    0    0  501 -0.00000000000E+00  0.00000000000E+00  0.23448899256E+02  0.23448899395E+02  0.25500000000E-02 0. -1.
          2   -1    0    0  501    0  0.00000000000E+00 -0.00000000000E+00 -0.88446319224E+03  0.88446319224E+03  0.25500000000E-02 0.  1.
    5000001    1    1    2    0    0 -0.12127645911E+03  0.10218704921E+01 -0.39872394998E+03  0.42381459630E+03  0.77000000000E+02 0.  0.
   -5000001    1    1    2    0    0  0.12127645911E+03 -0.10218704921E+01 -0.46229034301E+03  0.48409749534E+03  0.77000000000E+02 0.  0.
<mgrwt>
<rscale>  0 0.28802561E+03</rscale>
<asrwt>0</asrwt>
<pdfrwt beam="1">  1        2 0.12635186E+00 0.28802561E+03</pdfrwt>
<pdfrwt beam="2">  1       -2 0.33498433E-02 0.28802561E+03</pdfrwt>
<totfact> 0.12298517E+04</totfact>
</mgrwt>
</event>
<event>
 4    1  0.1308644E-003  0.3049074E+03  0.7818608E-02  0.1082813E+00
         -2   -1    0    0    0  501 -0.00000000000E+00  0.00000000000E+00  0.21366789122E+02  0.21366789274E+02  0.25500000000E-02 0. -1.
          2   -1    0    0  501    0  0.00000000000E+00 -0.00000000000E+00 -0.10877686382E+04  0.10877686382E+04  0.25500000000E-02 0.  1.
    5000001    1    1    2    0    0 -0.91652483242E+02 -0.70788721690E+01 -0.87565553413E+03  0.88382798245E+03  0.77000000000E+02 0.  0.
   -5000001    1    1    2    0    0  0.91652483242E+02  0.70788721690E+01 -0.19074631493E+03  0.22530744500E+03  0.77000000000E+02 0.  0.
<mgrwt>
<rscale>  0 0.30490735E+03</rscale>
<asrwt>0</asrwt>
<pdfrwt beam="1">  1        2 0.15539548E+00 0.30490735E+03</pdfrwt>
<pdfrwt beam="2">  1       -2 0.30523992E-02 0.30490735E+03</pdfrwt>
<totfact> 0.10701566E+04</totfact>
</mgrwt>
</event>
<event>
 4    1  0.1308644E-003  0.1775237E+03  0.7818608E-02  0.1170221E+00
         -2   -1    0    0    0  501 -0.00000000000E+00  0.00000000000E+00  0.41111681212E+03  0.41111681213E+03  0.25500000000E-02 0. -1.
          2   -1    0    0  501    0  0.00000000000E+00 -0.00000000000E+00 -0.19164063655E+02  0.19164063824E+02  0.25500000000E-02 0.  1.
    5000001    1    1    2    0    0 -0.36696210538E+02 -0.20920649389E+02  0.16480603511E+03  0.18674665900E+03  0.77000000000E+02 0.  0.
   -5000001    1    1    2    0    0  0.36696210538E+02  0.20920649389E+02  0.22714671335E+03  0.24353421695E+03  0.77000000000E+02 0.  0.
<mgrwt>
<rscale>  0 0.17752373E+03</rscale>
<asrwt>0</asrwt>
<pdfrwt beam="1">  1        2 0.27377233E-02 0.17752373E+03</pdfrwt>
<pdfrwt beam="2">  1       -2 0.58730974E-01 0.17752373E+03</pdfrwt>
<totfact> 0.94401668E+03</totfact>
</mgrwt>
</event>
<event>
 4    1  0.1308644E-003  0.1879728E+03  0.7818608E-02  0.1160303E+00
          2   -1    0    0  501    0  0.00000000000E+00  0.00000000000E+00  0.21570502800E+04  0.21570502800E+04  0.25500000000E-02 0.  1.
         -2   -1    0    0    0  501 -0.00000000000E+00 -0.00000000000E+00 -0.40951497806E+01  0.40951505745E+01  0.25500000000E-02 0. -1.
    5000001    1    1    2    0    0 -0.87562577615E+01 -0.41461517433E+02  0.14593014086E+04  0.14619457345E+04  0.77000000000E+02 0.  0.
   -5000001    1    1    2    0    0  0.87562577615E+01  0.41461517433E+02  0.69365372164E+03  0.69919969609E+03  0.77000000000E+02 0.  0.
<mgrwt>
<rscale>  0 0.18797282E+03</rscale>
<asrwt>0</asrwt>
<pdfrwt beam="1">  1        2 0.30814967E+00 0.18797282E+03</pdfrwt>
<pdfrwt beam="2">  1       -2 0.58502216E-03 0.18797282E+03</pdfrwt>
<totfact> 0.33679056E+04</totfact>
</mgrwt>
</event>
<event>
 4    1  0.1308644E-003  0.3432168E+03  0.7818608E-02  0.1065434E+00
         -2   -1    0    0    0  501 -0.00000000000E+00  0.00000000000E+00  0.27019429311E+02  0.27019429432E+02  0.25500000000E-02 0. -1.
          2   -1    0    0  501    0  0.00000000000E+00 -0.00000000000E+00 -0.10899355753E+04  0.10899355753E+04  0.25500000000E-02 0.  1.
    5000001    1    1    2    0    0 -0.10170065582E+01  0.13584363561E+03 -0.29982748872E+03  0.33805332513E+03  0.77000000000E+02 0.  0.
   -5000001    1    1    2    0    0  0.10170065582E+01 -0.13584363561E+03 -0.76308865723E+03  0.77890167956E+03  0.77000000000E+02 0.  0.
<mgrwt>
<rscale>  0 0.34321677E+03</rscale>
<asrwt>0</asrwt>
<pdfrwt beam="1">  1        2 0.15570505E+00 0.34321677E+03</pdfrwt>
<pdfrwt beam="2">  1       -2 0.38599192E-02 0.34321677E+03</pdfrwt>
<totfact> 0.75222784E+03</totfact>
</mgrwt>
</event>
<event>
 4    1  0.1308644E-003  0.2630782E+03  0.7818608E-02  0.1105308E+00
         -2   -1    0    0    0  501 -0.00000000000E+00  0.00000000000E+00  0.58404336082E+02  0.58404336138E+02  0.25500000000E-02 0. -1.
          2   -1    0    0  501    0  0.00000000000E+00 -0.00000000000E+00 -0.29625437606E+03  0.29625437607E+03  0.25500000000E-02 0.  1.
    5000001    1    1    2    0    0 -0.22144473155E+02 -0.94694629833E+02 -0.17793610568E+03  0.21690483700E+03  0.77000000000E+02 0.  0.
   -5000001    1    1    2    0    0  0.22144473155E+02  0.94694629833E+02 -0.59913934294E+02  0.13775387520E+03  0.77000000000E+02 0.  0.
<mgrwt>
<rscale>  0 0.26307824E+03</rscale>
<asrwt>0</asrwt>
<pdfrwt beam="1">  1        2 0.42322053E-01 0.26307824E+03</pdfrwt>
<pdfrwt beam="2">  1       -2 0.83434768E-02 0.26307824E+03</pdfrwt>
<totfact> 0.10513490E+04</totfact>
</mgrwt>
</event>
<event>
 4    1  0.1308644E-003  0.1858583E+03  0.7818608E-02  0.1162251E+00
          2   -1    0    0  501    0  0.00000000000E+00  0.00000000000E+00  0.54380227912E+02  0.54380227971E+02  0.25500000000E-02 0.  1.
         -2   -1    0    0    0  501 -0.00000000000E+00 -0.00000000000E+00 -0.15880448239E+03  0.15880448241E+03  0.25500000000E-02 0. -1.
    5000001    1    1    2    0    0 -0.44736789193E+02 -0.16883979575E+02 -0.28694551762E+02  0.95072742542E+02  0.77000000000E+02 0.  0.
   -5000001    1    1    2    0    0  0.44736789193E+02  0.16883979575E+02 -0.75729702716E+02  0.11811196784E+03  0.77000000000E+02 0.  0.
<mgrwt>
<rscale>  0 0.18585827E+03</rscale>
<asrwt>0</asrwt>
<pdfrwt beam="1">  1        2 0.77686041E-02 0.18585827E+03</pdfrwt>
<pdfrwt beam="2">  1       -2 0.22686354E-01 0.18585827E+03</pdfrwt>
<totfact> 0.14284868E+04</totfact>
</mgrwt>
</event>
<event>
 4    1  0.1308644E-003  0.5352846E+03  0.7818608E-02  0.1004959E+00
         -2   -1    0    0    0  501 -0.00000000000E+00  0.00000000000E+00  0.46928006238E+02  0.46928006308E+02  0.25500000000E-02 0. -1.
          2   -1    0    0  501    0  0.00000000000E+00 -0.00000000000E+00 -0.15264315344E+04  0.15264315344E+04  0.25500000000E-02 0.  1.
    5000001    1    1    2    0    0  0.34677096990E+02 -0.17359540060E+03 -0.12846366402E+04  0.12990604919E+04  0.77000000000E+02 0.  0.
   -5000001    1    1    2    0    0 -0.34677096990E+02  0.17359540060E+03 -0.19486688790E+03  0.27429904879E+03  0.77000000000E+02 0.  0.
<mgrwt>
<rscale>  0 0.53528455E+03</rscale>
<asrwt>0</asrwt>
<pdfrwt beam="1">  1        2 0.21806162E+00 0.53528455E+03</pdfrwt>
<pdfrwt beam="2">  1       -2 0.67040018E-02 0.53528455E+03</pdfrwt>
<totfact> 0.18728683E+03</totfact>
</mgrwt>
</event>
<event>
 4    1  0.1308644E-003  0.6618831E+03  0.7818608E-02  0.9784733E-01
          2   -1    0    0  501    0  0.00000000000E+00  0.00000000000E+00  0.26894791885E+04  0.26894791885E+04  0.25500000000E-02 0.  1.
         -2   -1    0    0    0  501 -0.00000000000E+00 -0.00000000000E+00 -0.40722499978E+02  0.40722500058E+02  0.25500000000E-02 0. -1.
    5000001    1    1    2    0    0 -0.30381087931E+03  0.43392680977E+01  0.17623455474E+04  0.17900029910E+04  0.77000000000E+02 0.  0.
   -5000001    1    1    2    0    0  0.30381087931E+03 -0.43392680977E+01  0.88641114113E+03  0.94019869749E+03  0.77000000000E+02 0.  0.
<mgrwt>
<rscale>  0 0.66188312E+03</rscale>
<asrwt>0</asrwt>
<pdfrwt beam="1">  1        2 0.38421125E+00 0.66188312E+03</pdfrwt>
<pdfrwt beam="2">  1       -2 0.58175010E-02 0.66188312E+03</pdfrwt>
<totfact> 0.59529242E+02</totfact>
</mgrwt>
</event>
<event>
 4    1  0.1308644E-003  0.3632011E+03  0.7818608E-02  0.1057324E+00
          2   -1    0    0  501    0  0.00000000000E+00  0.00000000000E+00  0.31767166267E+03  0.31767166268E+03  0.25500000000E-02 0.  1.
         -2   -1    0    0    0  501 -0.00000000000E+00 -0.00000000000E+00 -0.10381396041E+03  0.10381396044E+03  0.25500000000E-02 0. -1.
    5000001    1    1    2    0    0 -0.74315051563E+02  0.14571702543E+03  0.87045242357E+02  0.20065406202E+03  0.77000000000E+02 0.  0.
   -5000001    1    1    2    0    0  0.74315051563E+02 -0.14571702543E+03  0.12681245991E+03  0.22083156110E+03  0.77000000000E+02 0.  0.
<mgrwt>
<rscale>  0 0.36320107E+03</rscale>
<asrwt>0</asrwt>
<pdfrwt beam="1">  1        2 0.45381666E-01 0.36320107E+03</pdfrwt>
<pdfrwt beam="2">  1       -2 0.14830566E-01 0.36320107E+03</pdfrwt>
<totfact> 0.39038038E+03</totfact>
</mgrwt>
</event>
<event>
 4    1  0.1308644E-003  0.2149397E+03  0.7818608E-02  0.1137713E+00
         -2   -1    0    0    0  501 -0.00000000000E+00  0.00000000000E+00  0.12678512023E+02  0.12678512280E+02  0.25500000000E-02 0. -1.
          2   -1    0    0  501    0  0.00000000000E+00 -0.00000000000E+00 -0.91097218420E+03  0.91097218420E+03  0.25500000000E-02 0.  1.
    5000001    1    1    2    0    0  0.70631766393E+02  0.19654783146E+01 -0.34145260165E+03  0.35708764849E+03  0.77000000000E+02 0.  0.
   -5000001    1    1    2    0    0 -0.70631766393E+02 -0.19654783146E+01 -0.55684107052E+03  0.56656304799E+03  0.77000000000E+02 0.  0.
<mgrwt>
<rscale>  0 0.21493973E+03</rscale>
<asrwt>0</asrwt>
<pdfrwt beam="1">  1        2 0.13013884E+00 0.21493973E+03</pdfrwt>
<pdfrwt beam="2">  1       -2 0.18112166E-02 0.21493973E+03</pdfrwt>
<totfact> 0.28929595E+04</totfact>
</mgrwt>
</event>
<event>
 4    1  0.1308644E-003  0.1699415E+03  0.7818608E-02  0.1177909E+00
         -2   -1    0    0    0  501 -0.00000000000E+00  0.00000000000E+00  0.21360601081E+03  0.21360601083E+03  0.25500000000E-02 0. -1.
          2   -1    0    0  501    0  0.00000000000E+00 -0.00000000000E+00 -0.33800685448E+02  0.33800685545E+02  0.25500000000E-02 0.  1.
    5000001    1    1    2    0    0  0.33960058201E+02 -0.11436998799E+02  0.86067678681E+02  0.12091623468E+03  0.77000000000E+02 0.  0.
   -5000001    1    1    2    0    0 -0.33960058201E+02  0.11436998799E+02  0.93737646682E+02  0.12649046170E+03  0.77000000000E+02 0.  0.
<mgrwt>
<rscale>  0 0.16994151E+03</rscale>
<asrwt>0</asrwt>
<pdfrwt beam="1">  1        2 0.48286694E-02 0.16994151E+03</pdfrwt>
<pdfrwt beam="2">  1       -2 0.30515144E-01 0.16994151E+03</pdfrwt>
<totfact> 0.15513023E+04</totfact>
</mgrwt>
</event>
<event>
 4    1  0.1308644E-003  0.2606305E+03  0.7818608E-02  0.1106765E+00
          2   -1    0    0  501    0  0.00000000000E+00  0.00000000000E+00  0.29762643740E+03  0.29762643741E+03  0.25500000000E-02 0.  1.
         -2   -1    0    0    0  501 -0.00000000000E+00 -0.00000000000E+00 -0.57058302962E+02  0.57058303019E+02  0.25500000000E-02 0. -1.
    5000001    1    1    2    0    0  0.31137766777E+02  0.84049865698E+02  0.19505924358E+03  0.22805931016E+03  0.77000000000E+02 0.  0.
   -5000001    1    1    2    0    0 -0.31137766777E+02 -0.84049865698E+02  0.45508890853E+02  0.12662543027E+03  0.77000000000E+02 0.  0.
<mgrwt>
<rscale>  0 0.26063046E+03</rscale>
<asrwt>0</asrwt>
<pdfrwt beam="1">  1        2 0.42518062E-01 0.26063046E+03</pdfrwt>
<pdfrwt beam="2">  1       -2 0.81511863E-02 0.26063046E+03</pdfrwt>
<totfact> 0.10845210E+04</totfact>
</mgrwt>
</event>
<event>
 4    1  0.1308644E-003  0.2180374E+03  0.7818608E-02  0.1135355E+00
         -2   -1    0    0    0  501 -0.00000000000E+00  0.00000000000E+00  0.35617606040E+02  0.35617606131E+02  0.25500000000E-02 0. -1.
          2   -1    0    0  501    0  0.00000000000E+00 -0.00000000000E+00 -0.33368540930E+03  0.33368540931E+03  0.25500000000E-02 0.  1.
    5000001    1    1    2    0    0 -0.68169425264E+02  0.34074242668E+02 -0.12843183855E+03  0.16802339631E+03  0.77000000000E+02 0.  0.
   -5000001    1    1    2    0    0  0.68169425264E+02 -0.34074242668E+02 -0.16963596471E+03  0.20127961913E+03  0.77000000000E+02 0.  0.
<mgrwt>
<rscale>  0 0.21803739E+03</rscale>
<asrwt>0</asrwt>
<pdfrwt beam="1">  1        2 0.47669342E-01 0.21803739E+03</pdfrwt>
<pdfrwt beam="2">  1       -2 0.50882296E-02 0.21803739E+03</pdfrwt>
<totfact> 0.19597077E+04</totfact>
</mgrwt>
</event>
<event>
 4    1  0.1308644E-003  0.3536949E+03  0.7818608E-02  0.1061109E+00
         -2   -1    0    0    0  501 -0.00000000000E+00  0.00000000000E+00  0.26764534980E+02  0.26764535101E+02  0.25500000000E-02 0. -1.
          2   -1    0    0  501    0  0.00000000000E+00 -0.00000000000E+00 -0.11685245021E+04  0.11685245021E+04  0.25500000000E-02 0.  1.
    5000001    1    1    2    0    0 -0.14117845806E+03  0.73567234898E+02 -0.57624458094E+03  0.60276887123E+03  0.77000000000E+02 0.  0.
   -5000001    1    1    2    0    0  0.14117845806E+03 -0.73567234898E+02 -0.56551538622E+03  0.59252016600E+03  0.77000000000E+02 0.  0.
<mgrwt>
<rscale>  0 0.35369487E+03</rscale>
<asrwt>0</asrwt>
<pdfrwt beam="1">  1        2 0.16693204E+00 0.35369487E+03</pdfrwt>
<pdfrwt beam="2">  1       -2 0.38235057E-02 0.35369487E+03</pdfrwt>
<totfact> 0.68960689E+03</totfact>
</mgrwt>
</event>
<event>
 4    1  0.1308644E-003  0.2104496E+03  0.7818608E-02  0.1141210E+00
         -2   -1    0    0    0  501 -0.00000000000E+00  0.00000000000E+00  0.93432071202E+01  0.93432074681E+01  0.25500000000E-02 0. -1.
          2   -1    0    0  501    0  0.00000000000E+00 -0.00000000000E+00 -0.11850595329E+04  0.11850595329E+04  0.25500000000E-02 0.  1.
    5000001    1    1    2    0    0 -0.63011333433E+02 -0.62999016663E+01 -0.77890704429E+03  0.78526129444E+03  0.77000000000E+02 0.  0.
   -5000001    1    1    2    0    0  0.63011333433E+02  0.62999016663E+01 -0.39680928151E+03  0.40914144595E+03  0.77000000000E+02 0.  0.
<mgrwt>
<rscale>  0 0.21044958E+03</rscale>
<asrwt>0</asrwt>
<pdfrwt beam="1">  1        2 0.16929412E+00 0.21044958E+03</pdfrwt>
<pdfrwt beam="2">  1       -2 0.13347447E-02 0.21044958E+03</pdfrwt>
<totfact> 0.31364585E+04</totfact>
</mgrwt>
</event>
<event>
 4    1  0.1308644E-003  0.2757616E+03  0.7818608E-02  0.1098027E+00
          2   -1    0    0  501    0  0.00000000000E+00  0.00000000000E+00  0.16059998920E+04  0.16059998920E+04  0.25500000000E-02 0.  1.
         -2   -1    0    0    0  501 -0.00000000000E+00 -0.00000000000E+00 -0.11837560035E+02  0.11837560309E+02  0.25500000000E-02 0. -1.
    5000001    1    1    2    0    0 -0.62206910436E+02 -0.56701091490E+02  0.34273926552E+03  0.36122557718E+03  0.77000000000E+02 0.  0.
   -5000001    1    1    2    0    0  0.62206910436E+02  0.56701091490E+02  0.12514230665E+04  0.12566118751E+04  0.77000000000E+02 0.  0.
<mgrwt>
<rscale>  0 0.27576164E+03</rscale>
<asrwt>0</asrwt>
<pdfrwt beam="1">  1        2 0.22942836E+00 0.27576164E+03</pdfrwt>
<pdfrwt beam="2">  1       -2 0.16910815E-02 0.27576164E+03</pdfrwt>
<totfact> 0.13651550E+04</totfact>
</mgrwt>
</event>
<event>
 4    1  0.1308644E-003  0.2926715E+03  0.7818608E-02  0.1088963E+00
          2   -1    0    0  501    0  0.00000000000E+00  0.00000000000E+00  0.17776601550E+04  0.17776601550E+04  0.25500000000E-02 0.  1.
         -2   -1    0    0    0  501 -0.00000000000E+00 -0.00000000000E+00 -0.12046256506E+02  0.12046256776E+02  0.25500000000E-02 0. -1.
    5000001    1    1    2    0    0 -0.11791899729E+03 -0.39250045670E+02  0.92133404149E+03  0.93286165749E+03  0.77000000000E+02 0.  0.
   -5000001    1    1    2    0    0  0.11791899729E+03  0.39250045670E+02  0.84427985697E+03  0.85684475425E+03  0.77000000000E+02 0.  0.
<mgrwt>
<rscale>  0 0.29267149E+03</rscale>
<asrwt>0</asrwt>
<pdfrwt beam="1">  1        2 0.25395132E+00 0.29267149E+03</pdfrwt>
<pdfrwt beam="2">  1       -2 0.17208947E-02 0.29267149E+03</pdfrwt>
<totfact> 0.10959070E+04</totfact>
</mgrwt>
</event>
<event>
 4    1  0.1308644E-003  0.1748751E+03  0.7818608E-02  0.1172857E+00
          2   -1    0    0  501    0  0.00000000000E+00  0.00000000000E+00  0.55031911510E+02  0.55031911569E+02  0.25500000000E-02 0.  1.
         -2   -1    0    0    0  501 -0.00000000000E+00 -0.00000000000E+00 -0.13892538383E+03  0.13892538386E+03  0.25500000000E-02 0. -1.
    5000001    1    1    2    0    0  0.17714337204E+02 -0.34607887154E+02 -0.57820152092E+02  0.10384446824E+03  0.77000000000E+02 0.  0.
   -5000001    1    1    2    0    0 -0.17714337204E+02  0.34607887154E+02 -0.26073320232E+02  0.90112827188E+02  0.77000000000E+02 0.  0.
<mgrwt>
<rscale>  0 0.17487515E+03</rscale>
<asrwt>0</asrwt>
<pdfrwt beam="1">  1        2 0.78617017E-02 0.17487515E+03</pdfrwt>
<pdfrwt beam="2">  1       -2 0.19846483E-01 0.17487515E+03</pdfrwt>
<totfact> 0.17605221E+04</totfact>
</mgrwt>
</event>
<event>
 4    1  0.1308644E-003  0.2222039E+03  0.7818608E-02  0.1132251E+00
         -2   -1    0    0    0  501 -0.00000000000E+00  0.00000000000E+00  0.19629984148E+02  0.19629984314E+02  0.25500000000E-02 0. -1.
          2   -1    0    0  501    0  0.00000000000E+00 -0.00000000000E+00 -0.62881562115E+03  0.62881562115E+03  0.25500000000E-02 0.  1.
    5000001    1    1    2    0    0  0.74079104793E+02 -0.17913524606E+02 -0.37643341216E+03  0.39171382657E+03  0.77000000000E+02 0.  0.
   -5000001    1    1    2    0    0 -0.74079104793E+02  0.17913524606E+02 -0.23275222484E+03  0.25673177890E+03  0.77000000000E+02 0.  0.
<mgrwt>
<rscale>  0 0.22220388E+03</rscale>
<asrwt>0</asrwt>
<pdfrwt beam="1">  1        2 0.89830790E-01 0.22220388E+03</pdfrwt>
<pdfrwt beam="2">  1       -2 0.28042839E-02 0.22220388E+03</pdfrwt>
<totfact> 0.23896949E+04</totfact>
</mgrwt>
</event>
<event>
 4    1  0.1308644E-003  0.2240812E+03  0.7818608E-02  0.1130876E+00
          2   -1    0    0  501    0  0.00000000000E+00  0.00000000000E+00  0.43776619684E+04  0.43776619684E+04  0.25500000000E-02 0.  1.
         -2   -1    0    0    0  501 -0.00000000000E+00 -0.00000000000E+00 -0.28675345014E+01  0.28675356352E+01  0.25500000000E-02 0. -1.
    5000001    1    1    2    0    0 -0.66213892546E+02  0.38424820856E+02  0.27275091622E+04  0.27296695727E+04  0.77000000000E+02 0.  0.
   -5000001    1    1    2    0    0  0.66213892546E+02 -0.38424820856E+02  0.16472852717E+04  0.16508599314E+04  0.77000000000E+02 0.  0.
<mgrwt>
<rscale>  0 0.22408123E+03</rscale>
<asrwt>0</asrwt>
<pdfrwt beam="1">  1        2 0.62537816E+00 0.22408123E+03</pdfrwt>
<pdfrwt beam="2">  1       -2 0.40964926E-03 0.22408123E+03</pdfrwt>
<totfact> 0.31068358E+03</totfact>
</mgrwt>
</event>
<event>
 4    1  0.1308644E-003  0.2720439E+03  0.7818608E-02  0.1100115E+00
          2   -1    0    0  501    0  0.00000000000E+00  0.00000000000E+00  0.18893411170E+04  0.18893411170E+04  0.25500000000E-02 0.  1.
         -2   -1    0    0    0  501 -0.00000000000E+00 -0.00000000000E+00 -0.97928181788E+01  0.97928185108E+01  0.25500000000E-02 0. -1.
    5000001    1    1    2    0    0  0.94576776776E+02 -0.60205770968E+02  0.92676479180E+03  0.93669177475E+03  0.77000000000E+02 0.  0.
   -5000001    1    1    2    0    0 -0.94576776776E+02  0.60205770968E+02  0.95278350705E+03  0.96244216079E+03  0.77000000000E+02 0.  0.
<mgrwt>
<rscale>  0 0.27204393E+03</rscale>
<asrwt>0</asrwt>
<pdfrwt beam="1">  1        2 0.26990608E+00 0.27204393E+03</pdfrwt>
<pdfrwt beam="2">  1       -2 0.13989730E-02 0.27204393E+03</pdfrwt>
<totfact> 0.13066735E+04</totfact>
</mgrwt>
</event>
<event>
 4    1  0.1308644E-003  0.2720835E+03  0.7818608E-02  0.1100093E+00
          2   -1    0    0  501    0  0.00000000000E+00  0.00000000000E+00  0.26017068408E+03  0.26017068410E+03  0.25500000000E-02 0.  1.
         -2   -1    0    0    0  501 -0.00000000000E+00 -0.00000000000E+00 -0.71135426847E+02  0.71135426893E+02  0.25500000000E-02 0. -1.
    5000001    1    1    2    0    0  0.10998352426E+03 -0.14060796735E+02  0.73987407526E+02  0.15393900768E+03  0.77000000000E+02 0.  0.
   -5000001    1    1    2    0    0 -0.10998352426E+03  0.14060796735E+02  0.11504784971E+03  0.17736710331E+03  0.77000000000E+02 0.  0.
<mgrwt>
<rscale>  0 0.27208346E+03</rscale>
<asrwt>0</asrwt>
<pdfrwt beam="1">  1        2 0.37167241E-01 0.27208346E+03</pdfrwt>
<pdfrwt beam="2">  1       -2 0.10162204E-01 0.27208346E+03</pdfrwt>
<totfact> 0.88729685E+03</totfact>
</mgrwt>
</event>
<event>
 4    1  0.1308644E-003  0.4393717E+03  0.7818608E-02  0.1030940E+00
          2   -1    0    0  501    0  0.00000000000E+00  0.00000000000E+00  0.22424453136E+04  0.22424453136E+04  0.25500000000E-02 0.  1.
         -2   -1    0    0    0  501 -0.00000000000E+00 -0.00000000000E+00 -0.21521982905E+02  0.21521983056E+02  0.25500000000E-02 0. -1.
    5000001    1    1    2    0    0  0.14219301278E+03  0.27495770291E+02  0.35742110581E+03  0.39326036814E+03  0.77000000000E+02 0.  0.
   -5000001    1    1    2    0    0 -0.14219301278E+03 -0.27495770291E+02  0.18635022249E+04  0.18707069285E+04  0.77000000000E+02 0.  0.
<mgrwt>
<rscale>  0 0.43937169E+03</rscale>
<asrwt>0</asrwt>
<pdfrwt beam="1">  1        2 0.32034937E+00 0.43937169E+03</pdfrwt>
<pdfrwt beam="2">  1       -2 0.30745686E-02 0.43937169E+03</pdfrwt>
<totfact> 0.27235366E+03</totfact>
</mgrwt>
</event>
<event>
 4    1  0.1308644E-003  0.2383798E+03  0.7818608E-02  0.1120877E+00
         -2   -1    0    0    0  501 -0.00000000000E+00  0.00000000000E+00  0.40147499913E+02  0.40147499994E+02  0.25500000000E-02 0. -1.
          2   -1    0    0  501    0  0.00000000000E+00 -0.00000000000E+00 -0.35385099883E+03  0.35385099884E+03  0.25500000000E-02 0.  1.
    5000001    1    1    2    0    0  0.38952093550E+01  0.85346945878E+02 -0.20853924142E+03  0.23815307901E+03  0.77000000000E+02 0.  0.
   -5000001    1    1    2    0    0 -0.38952093550E+01 -0.85346945878E+02 -0.10516425749E+03  0.15584541982E+03  0.77000000000E+02 0.  0.
<mgrwt>
<rscale>  0 0.23837981E+03</rscale>
<asrwt>0</asrwt>
<pdfrwt beam="1">  1        2 0.50550141E-01 0.23837981E+03</pdfrwt>
<pdfrwt beam="2">  1       -2 0.57353573E-02 0.23837981E+03</pdfrwt>
<totfact> 0.15426268E+04</totfact>
</mgrwt>
</event>
<event>
 4    1  0.1308644E-003  0.2809685E+03  0.7818608E-02  0.1095161E+00
         -2   -1    0    0    0  501 -0.00000000000E+00  0.00000000000E+00  0.38261260189E+02  0.38261260274E+02  0.25500000000E-02 0. -1.
          2   -1    0    0  501    0  0.00000000000E+00 -0.00000000000E+00 -0.51581729587E+03  0.51581729588E+03  0.25500000000E-02 0.  1.
    5000001    1    1    2    0    0  0.16966395486E+02 -0.10721950912E+03 -0.15008180917E+03  0.20059269966E+03  0.77000000000E+02 0.  0.
   -5000001    1    1    2    0    0 -0.16966395486E+02  0.10721950912E+03 -0.32747422652E+03  0.35348585650E+03  0.77000000000E+02 0.  0.
<mgrwt>
<rscale>  0 0.28096847E+03</rscale>
<asrwt>0</asrwt>
<pdfrwt beam="1">  1        2 0.73688181E-01 0.28096847E+03</pdfrwt>
<pdfrwt beam="2">  1       -2 0.54658946E-02 0.28096847E+03</pdfrwt>
<totfact> 0.11108570E+04</totfact>
</mgrwt>
</event>
<event>
 4    1  0.1308644E-003  0.4112300E+03  0.7818608E-02  0.1039959E+00
          2   -1    0    0  501    0  0.00000000000E+00  0.00000000000E+00  0.72452172144E+03  0.72452172144E+03  0.25500000000E-02 0.  1.
         -2   -1    0    0    0  501 -0.00000000000E+00 -0.00000000000E+00 -0.58352330298E+02  0.58352330354E+02  0.25500000000E-02 0. -1.
    5000001    1    1    2    0    0 -0.18661841411E+03 -0.26722586286E+00  0.40735552323E+03  0.45463614705E+03  0.77000000000E+02 0.  0.
   -5000001    1    1    2    0    0  0.18661841411E+03  0.26722586286E+00  0.25881386791E+03  0.32823790475E+03  0.77000000000E+02 0.  0.
<mgrwt>
<rscale>  0 0.41123001E+03</rscale>
<asrwt>0</asrwt>
<pdfrwt beam="1">  1        2 0.10350309E+00 0.41123001E+03</pdfrwt>
<pdfrwt beam="2">  1       -2 0.83360483E-02 0.41123001E+03</pdfrwt>
<totfact> 0.39282005E+03</totfact>
</mgrwt>
</event>
<event>
 4    1  0.1308644E-003  0.3711168E+03  0.7818608E-02  0.1054267E+00
         -2   -1    0    0    0  501 -0.00000000000E+00  0.00000000000E+00  0.13229609768E+03  0.13229609770E+03  0.25500000000E-02 0. -1.
          2   -1    0    0  501    0  0.00000000000E+00 -0.00000000000E+00 -0.26026400640E+03  0.26026400641E+03  0.25500000000E-02 0.  1.
    5000001    1    1    2    0    0  0.10717366042E+03 -0.11293856260E+03 -0.13303685629E+03  0.21879012213E+03  0.77000000000E+02 0.  0.
   -5000001    1    1    2    0    0 -0.10717366042E+03  0.11293856260E+03  0.50689475695E+01  0.17376998198E+03  0.77000000000E+02 0.  0.
<mgrwt>
<rscale>  0 0.37111676E+03</rscale>
<asrwt>0</asrwt>
<pdfrwt beam="1">  1        2 0.37180572E-01 0.37111676E+03</pdfrwt>
<pdfrwt beam="2">  1       -2 0.18899443E-01 0.37111676E+03</pdfrwt>
<totfact> 0.32248863E+03</totfact>
</mgrwt>
</event>
<event>
 4    1  0.1308644E-003  0.1888475E+03  0.7818608E-02  0.1159505E+00
         -2   -1    0    0    0  501 -0.00000000000E+00  0.00000000000E+00  0.22373695482E+03  0.22373695484E+03  0.25500000000E-02 0. -1.
          2   -1    0    0  501    0  0.00000000000E+00 -0.00000000000E+00 -0.39849665016E+02  0.39849665098E+02  0.25500000000E-02 0.  1.
    5000001    1    1    2    0    0 -0.36123419275E+02  0.21022879962E+02  0.42794103105E+02  0.97504862251E+02  0.77000000000E+02 0.  0.
   -5000001    1    1    2    0    0  0.36123419275E+02 -0.21022879962E+02  0.14109318670E+03  0.16608175768E+03  0.77000000000E+02 0.  0.
<mgrwt>
<rscale>  0 0.18884748E+03</rscale>
<asrwt>0</asrwt>
<pdfrwt beam="1">  1        2 0.56928093E-02 0.18884748E+03</pdfrwt>
<pdfrwt beam="2">  1       -2 0.31962422E-01 0.18884748E+03</pdfrwt>
<totfact> 0.11598943E+04</totfact>
</mgrwt>
</event>
<event>
 4    1  0.1308644E-003  0.1699692E+03  0.7818608E-02  0.1177880E+00
         -2   -1    0    0    0  501 -0.00000000000E+00  0.00000000000E+00  0.20444039627E+01  0.20444055531E+01  0.25500000000E-02 0. -1.
          2   -1    0    0  501    0  0.00000000000E+00 -0.00000000000E+00 -0.35327570910E+04  0.35327570910E+04  0.25500000000E-02 0.  1.
    5000001    1    1    2    0    0 -0.25836211229E+02 -0.24577095955E+02 -0.16681621249E+04  0.16703189571E+04  0.77000000000E+02 0.  0.
   -5000001    1    1    2    0    0  0.25836211229E+02  0.24577095955E+02 -0.18625505621E+04  0.18644825395E+04  0.77000000000E+02 0.  0.
<mgrwt>
<rscale>  0 0.16996924E+03</rscale>
<asrwt>0</asrwt>
<pdfrwt beam="1">  1        2 0.50467567E+00 0.16996924E+03</pdfrwt>
<pdfrwt beam="2">  1       -2 0.29206009E-03 0.16996924E+03</pdfrwt>
<totfact> 0.17550590E+04</totfact>
</mgrwt>
</event>
<event>
 4    1  0.1308644E-003  0.2673545E+03  0.7818608E-02  0.1102803E+00
         -2   -1    0    0    0  501 -0.00000000000E+00  0.00000000000E+00  0.16255874015E+02  0.16255874215E+02  0.25500000000E-02 0. -1.
          2   -1    0    0  501    0  0.00000000000E+00 -0.00000000000E+00 -0.10992703932E+04  0.10992703932E+04  0.25500000000E-02 0.  1.
    5000001    1    1    2    0    0 -0.84713514106E+02  0.37952966609E+02 -0.78205951043E+03  0.79130454631E+03  0.77000000000E+02 0.  0.
   -5000001    1    1    2    0    0  0.84713514106E+02 -0.37952966609E+02 -0.30095500872E+03  0.32422172108E+03  0.77000000000E+02 0.  0.
<mgrwt>
<rscale>  0 0.26735445E+03</rscale>
<asrwt>0</asrwt>
<pdfrwt beam="1">  1        2 0.15703858E+00 0.26735445E+03</pdfrwt>
<pdfrwt beam="2">  1       -2 0.23222684E-02 0.26735445E+03</pdfrwt>
<totfact> 0.15749151E+04</totfact>
</mgrwt>
</event>
<event>
 4    1  0.1308644E-003  0.1761961E+03  0.7818608E-02  0.1171536E+00
          2   -1    0    0  501    0  0.00000000000E+00  0.00000000000E+00  0.30328772261E+04  0.30328772262E+04  0.25500000000E-02 0.  1.
         -2   -1    0    0    0  501 -0.00000000000E+00 -0.00000000000E+00 -0.25590441731E+01  0.25590454436E+01  0.25500000000E-02 0. -1.
    5000001    1    1    2    0    0  0.36478231276E+02  0.16132129887E+01  0.18999964033E+04  0.19019065688E+04  0.77000000000E+02 0.  0.
   -5000001    1    1    2    0    0 -0.36478231276E+02 -0.16132129887E+01  0.11303217786E+04  0.11335297028E+04  0.77000000000E+02 0.  0.
<mgrwt>
<rscale>  0 0.17619613E+03</rscale>
<asrwt>0</asrwt>
<pdfrwt beam="1">  1        2 0.43326964E+00 0.17619613E+03</pdfrwt>
<pdfrwt beam="2">  1       -2 0.36557660E-03 0.17619613E+03</pdfrwt>
<totfact> 0.24010183E+04</totfact>
</mgrwt>
</event>
<event>
 4    1  0.1308644E-003  0.5957756E+03  0.7818608E-02  0.9914209E-01
         -2   -1    0    0    0  501 -0.00000000000E+00  0.00000000000E+00  0.33619193197E+02  0.33619193293E+02  0.25500000000E-02 0. -1.
          2   -1    0    0  501    0  0.00000000000E+00 -0.00000000000E+00 -0.26394788157E+04  0.26394788157E+04  0.25500000000E-02 0.  1.
    5000001    1    1    2    0    0  0.76323133635E+02  0.25479958778E+03 -0.17956581782E+04  0.18168834150E+04  0.77000000000E+02 0.  0.
   -5000001    1    1    2    0    0 -0.76323133635E+02 -0.25479958778E+03 -0.81020144424E+03  0.85621459396E+03  0.77000000000E+02 0.  0.
<mgrwt>
<rscale>  0 0.59577562E+03</rscale>
<asrwt>0</asrwt>
<pdfrwt beam="1">  1        2 0.37706827E+00 0.59577562E+03</pdfrwt>
<pdfrwt beam="2">  1       -2 0.48027436E-02 0.59577562E+03</pdfrwt>
<totfact> 0.85663255E+02</totfact>
</mgrwt>
</event>
<event>
 4    1  0.1308644E-003  0.3683430E+03  0.7818608E-02  0.1055328E+00
          2   -1    0    0  501    0  0.00000000000E+00  0.00000000000E+00  0.96301256104E+03  0.96301256104E+03  0.25500000000E-02 0.  1.
         -2   -1    0    0    0  501 -0.00000000000E+00 -0.00000000000E+00 -0.35221911573E+02  0.35221911666E+02  0.25500000000E-02 0. -1.
    5000001    1    1    2    0    0 -0.15601968301E+02  0.15907586472E+03  0.59780643253E+03  0.62357844970E+03  0.77000000000E+02 0.  0.
   -5000001    1    1    2    0    0  0.15601968301E+02 -0.15907586472E+03  0.32998421693E+03  0.37465602300E+03  0.77000000000E+02 0.  0.
<mgrwt>
<rscale>  0 0.36834301E+03</rscale>
<asrwt>0</asrwt>
<pdfrwt beam="1">  1        2 0.13757321E+00 0.36834301E+03</pdfrwt>
<pdfrwt beam="2">  1       -2 0.50317020E-02 0.36834301E+03</pdfrwt>
<totfact> 0.59777236E+03</totfact>
</mgrwt>
</event>
<event>
 4    1  0.1308644E-003  0.5048563E+03  0.7818608E-02  0.1012519E+00
         -2   -1    0    0    0  501 -0.00000000000E+00  0.00000000000E+00  0.32487174366E+02  0.32487174466E+02  0.25500000000E-02 0. -1.
          2   -1    0    0  501    0  0.00000000000E+00 -0.00000000000E+00 -0.19613882282E+04  0.19613882282E+04  0.25500000000E-02 0.  1.
    5000001    1    1    2    0    0 -0.11473997614E+03 -0.20493051702E+03 -0.76194324817E+03  0.80102952028E+03  0.77000000000E+02 0.  0.
   -5000001    1    1    2    0    0  0.11473997614E+03  0.20493051702E+03 -0.11669578057E+04  0.11928458824E+04  0.77000000000E+02 0.  0.
<mgrwt>
<rscale>  0 0.50485626E+03</rscale>
<asrwt>0</asrwt>
<pdfrwt beam="1">  1        2 0.28019824E+00 0.50485626E+03</pdfrwt>
<pdfrwt beam="2">  1       -2 0.46410262E-02 0.50485626E+03</pdfrwt>
<totfact> 0.20020708E+03</totfact>
</mgrwt>
</event>
<event>
 4    1  0.1308644E-003  0.2558708E+03  0.7818608E-02  0.1109650E+00
          2   -1    0    0  501    0  0.00000000000E+00  0.00000000000E+00  0.16819560467E+03  0.16819560469E+03  0.25500000000E-02 0.  1.
         -2   -1    0    0    0  501 -0.00000000000E+00 -0.00000000000E+00 -0.97312122819E+02  0.97312122853E+02  0.25500000000E-02 0. -1.
    5000001    1    1    2    0    0 -0.88866088022E+02 -0.15677150658E+02 -0.14274307573E+02  0.11948100481E+03  0.77000000000E+02 0.  0.
   -5000001    1    1    2    0    0  0.88866088022E+02  0.15677150658E+02  0.85157789424E+02  0.14602672273E+03  0.77000000000E+02 0.  0.
<mgrwt>
<rscale>  0 0.25587084E+03</rscale>
<asrwt>0</asrwt>
<pdfrwt beam="1">  1        2 0.24027943E-01 0.25587084E+03</pdfrwt>
<pdfrwt beam="2">  1       -2 0.13901732E-01 0.25587084E+03</pdfrwt>
<totfact> 0.86200096E+03</totfact>
</mgrwt>
</event>
<event>
 4    1  0.1308644E-003  0.1920274E+03  0.7818608E-02  0.1156645E+00
         -2   -1    0    0    0  501 -0.00000000000E+00  0.00000000000E+00  0.67269576431E+01  0.67269581264E+01  0.25500000000E-02 0. -1.
          2   -1    0    0  501    0  0.00000000000E+00 -0.00000000000E+00 -0.13704005345E+04  0.13704005345E+04  0.25500000000E-02 0.  1.
    5000001    1    1    2    0    0 -0.55697836328E+02  0.24253031333E+01 -0.58522188818E+03  0.59289273016E+03  0.77000000000E+02 0.  0.
   -5000001    1    1    2    0    0  0.55697836328E+02 -0.24253031333E+01 -0.77845168867E+03  0.78423476246E+03  0.77000000000E+02 0.  0.
<mgrwt>
<rscale>  0 0.19202736E+03</rscale>
<asrwt>0</asrwt>
<pdfrwt beam="1">  1        2 0.19577133E+00 0.19202736E+03</pdfrwt>
<pdfrwt beam="2">  1       -2 0.96099486E-03 0.19202736E+03</pdfrwt>
<totfact> 0.40063043E+04</totfact>
</mgrwt>
</event>
<event>
 4    1  0.1308644E-003  0.2509608E+03  0.7818608E-02  0.1112699E+00
          2   -1    0    0  501    0  0.00000000000E+00  0.00000000000E+00  0.17911067136E+04  0.17911067136E+04  0.25500000000E-02 0.  1.
         -2   -1    0    0    0  501 -0.00000000000E+00 -0.00000000000E+00 -0.87908393870E+01  0.87908397568E+01  0.25500000000E-02 0. -1.
    5000001    1    1    2    0    0  0.56301308870E+02 -0.46560111407E+02  0.41118642041E+03  0.42466569638E+03  0.77000000000E+02 0.  0.
   -5000001    1    1    2    0    0 -0.56301308870E+02  0.46560111407E+02  0.13711294538E+04  0.13752318570E+04  0.77000000000E+02 0.  0.
<mgrwt>
<rscale>  0 0.25096081E+03</rscale>
<asrwt>0</asrwt>
<pdfrwt beam="1">  1        2 0.25587248E+00 0.25096081E+03</pdfrwt>
<pdfrwt beam="2">  1       -2 0.12558338E-02 0.25096081E+03</pdfrwt>
<totfact> 0.17040335E+04</totfact>
</mgrwt>
</event>
<event>
 4    1  0.1308644E-003  0.2868414E+03  0.7818608E-02  0.1092010E+00
          2   -1    0    0  501    0  0.00000000000E+00  0.00000000000E+00  0.26175999711E+03  0.26175999712E+03  0.25500000000E-02 0.  1.
         -2   -1    0    0    0  501 -0.00000000000E+00 -0.00000000000E+00 -0.78581497681E+02  0.78581497723E+02  0.25500000000E-02 0. -1.
    5000001    1    1    2    0    0 -0.44089115426E+02 -0.71735889177E+02  0.19469051247E+03  0.22566187879E+03  0.77000000000E+02 0.  0.
   -5000001    1    1    2    0    0  0.44089115426E+02  0.71735889177E+02 -0.11512013034E+02  0.11467961606E+03  0.77000000000E+02 0.  0.
<mgrwt>
<rscale>  0 0.28684137E+03</rscale>
<asrwt>0</asrwt>
<pdfrwt beam="1">  1        2 0.37394285E-01 0.28684137E+03</pdfrwt>
<pdfrwt beam="2">  1       -2 0.11225928E-01 0.28684137E+03</pdfrwt>
<totfact> 0.75337392E+03</totfact>
</mgrwt>
</event>
<event>
 4    1  0.1308644E-003  0.3194113E+03  0.7818608E-02  0.1075921E+00
         -2   -1    0    0    0  501 -0.00000000000E+00  0.00000000000E+00  0.97442532737E+01  0.97442536074E+01  0.25500000000E-02 0. -1.
          2   -1    0    0  501    0  0.00000000000E+00 -0.00000000000E+00 -0.26175313752E+04  0.26175313752E+04  0.25500000000E-02 0.  1.
    5000001    1    1    2    0    0 -0.33221000420E+02 -0.11978920937E+03 -0.77568652491E+03  0.78934889275E+03  0.77000000000E+02 0.  0.
   -5000001    1    1    2    0    0  0.33221000420E+02  0.11978920937E+03 -0.18321005970E+04  0.18379267360E+04  0.77000000000E+02 0.  0.
<mgrwt>
<rscale>  0 0.31941127E+03</rscale>
<asrwt>0</asrwt>
<pdfrwt beam="1">  1        2 0.37393260E+00 0.31941127E+03</pdfrwt>
<pdfrwt beam="2">  1       -2 0.13920379E-02 0.31941127E+03</pdfrwt>
<totfact> 0.57571471E+03</totfact>
</mgrwt>
</event>
<event>
 4    1  0.1308644E-003  0.2432098E+03  0.7818608E-02  0.1117673E+00
         -2   -1    0    0    0  501 -0.00000000000E+00  0.00000000000E+00  0.27223184685E+02  0.27223184804E+02  0.25500000000E-02 0. -1.
          2   -1    0    0  501    0  0.00000000000E+00 -0.00000000000E+00 -0.54320443231E+03  0.54320443232E+03  0.25500000000E-02 0.  1.
    5000001    1    1    2    0    0 -0.83138638301E+02 -0.17144769681E+02 -0.16263929869E+03  0.19896360920E+03  0.77000000000E+02 0.  0.
   -5000001    1    1    2    0    0  0.83138638301E+02  0.17144769681E+02 -0.35334194894E+03  0.37146400793E+03  0.77000000000E+02 0.  0.
<mgrwt>
<rscale>  0 0.24320982E+03</rscale>
<asrwt>0</asrwt>
<pdfrwt beam="1">  1        2 0.77600626E-01 0.24320982E+03</pdfrwt>
<pdfrwt beam="2">  1       -2 0.38890267E-02 0.24320982E+03</pdfrwt>
<totfact> 0.17425297E+04</totfact>
</mgrwt>
</event>
<event>
 4    1  0.1308644E-003  0.2756841E+03  0.7818608E-02  0.1098070E+00
          2   -1    0    0  501    0  0.00000000000E+00  0.00000000000E+00  0.47733238973E+02  0.47733239041E+02  0.25500000000E-02 0.  1.
         -2   -1    0    0    0  501 -0.00000000000E+00 -0.00000000000E+00 -0.39805436986E+03  0.39805436987E+03  0.25500000000E-02 0. -1.
    5000001    1    1    2    0    0  0.42640810025E+02  0.10524584127E+03 -0.19664317186E+03  0.23977585955E+03  0.77000000000E+02 0.  0.
   -5000001    1    1    2    0    0 -0.42640810025E+02 -0.10524584127E+03 -0.15367795903E+03  0.20601174936E+03  0.77000000000E+02 0.  0.
<mgrwt>
<rscale>  0 0.27568405E+03</rscale>
<asrwt>0</asrwt>
<pdfrwt beam="1">  1        2 0.68190344E-02 0.27568405E+03</pdfrwt>
<pdfrwt beam="2">  1       -2 0.56864908E-01 0.27568405E+03</pdfrwt>
<totfact> 0.30791308E+03</totfact>
</mgrwt>
</event>
<event>
 4    1  0.1308644E-003  0.2325013E+03  0.7818608E-02  0.1124892E+00
         -2   -1    0    0    0  501 -0.00000000000E+00  0.00000000000E+00  0.30374098042E+02  0.30374098149E+02  0.25500000000E-02 0. -1.
          2   -1    0    0  501    0  0.00000000000E+00 -0.00000000000E+00 -0.44492559372E+03  0.44492559373E+03  0.25500000000E-02 0.  1.
    5000001    1    1    2    0    0  0.67879252893E+02 -0.23936384970E+02 -0.10702909014E+03  0.15021574363E+03  0.77000000000E+02 0.  0.
   -5000001    1    1    2    0    0 -0.67879252893E+02  0.23936384970E+02 -0.30752240554E+03  0.32508394824E+03  0.77000000000E+02 0.  0.
<mgrwt>
<rscale>  0 0.23250130E+03</rscale>
<asrwt>0</asrwt>
<pdfrwt beam="1">  1        2 0.63560795E-01 0.23250130E+03</pdfrwt>
<pdfrwt beam="2">  1       -2 0.43391572E-02 0.23250130E+03</pdfrwt>
<totfact> 0.18364039E+04</totfact>
</mgrwt>
</event>
<event>
 4    1  0.1308644E-003  0.3375113E+03  0.7818608E-02  0.1067861E+00
         -2   -1    0    0    0  501 -0.00000000000E+00  0.00000000000E+00  0.13111603435E+03  0.13111603438E+03  0.25500000000E-02 0. -1.
          2   -1    0    0  501    0  0.00000000000E+00 -0.00000000000E+00 -0.21720055391E+03  0.21720055392E+03  0.25500000000E-02 0.  1.
    5000001    1    1    2    0    0 -0.90446127882E+02  0.83000217471E+02 -0.13229771503E+03  0.19621728658E+03  0.77000000000E+02 0.  0.
   -5000001    1    1    2    0    0  0.90446127882E+02 -0.83000217471E+02  0.46213195472E+02  0.15209930172E+03  0.77000000000E+02 0.  0.
<mgrwt>
<rscale>  0 0.33751133E+03</rscale>
<asrwt>0</asrwt>
<pdfrwt beam="1">  1        2 0.31028650E-01 0.33751133E+03</pdfrwt>
<pdfrwt beam="2">  1       -2 0.18730862E-01 0.33751133E+03</pdfrwt>
<totfact> 0.39848436E+03</totfact>
</mgrwt>
</event>
<event>
 4    1  0.1308644E-003  0.4319552E+03  0.7818608E-02  0.1033244E+00
          2   -1    0    0  501    0  0.00000000000E+00  0.00000000000E+00  0.53373593328E+03  0.53373593328E+03  0.25500000000E-02 0.  1.
         -2   -1    0    0    0  501 -0.00000000000E+00 -0.00000000000E+00 -0.87395868589E+02  0.87395868626E+02  0.25500000000E-02 0. -1.
    5000001    1    1    2    0    0  0.71480720057E+02  0.15996077318E+03  0.79228193738E+02  0.20713051195E+03  0.77000000000E+02 0.  0.
   -5000001    1    1    2    0    0 -0.71480720057E+02 -0.15996077318E+03  0.36711187095E+03  0.41400128996E+03  0.77000000000E+02 0.  0.
<mgrwt>
<rscale>  0 0.43195516E+03</rscale>
<asrwt>0</asrwt>
<pdfrwt beam="1">  1        2 0.76247994E-01 0.43195516E+03</pdfrwt>
<pdfrwt beam="2">  1       -2 0.12485124E-01 0.43195516E+03</pdfrwt>
<totfact> 0.29356100E+03</totfact>
</mgrwt>
</event>
<event>
 4    1  0.1308644E-003  0.1966308E+03  0.7818608E-02  0.1152613E+00
         -2   -1    0    0    0  501 -0.00000000000E+00  0.00000000000E+00  0.17952747091E+03  0.17952747093E+03  0.25500000000E-02 0. -1.
          2   -1    0    0  501    0  0.00000000000E+00 -0.00000000000E+00 -0.53840875260E+02  0.53840875321E+02  0.25500000000E-02 0.  1.
    5000001    1    1    2    0    0  0.56797723467E+02 -0.17017563255E+02  0.45186263133E+02  0.10717451762E+03  0.77000000000E+02 0.  0.
   -5000001    1    1    2    0    0 -0.56797723467E+02  0.17017563255E+02  0.80500332519E+02  0.12619382864E+03  0.77000000000E+02 0.  0.
<mgrwt>
<rscale>  0 0.19663078E+03</rscale>
<asrwt>0</asrwt>
<pdfrwt beam="1">  1        2 0.76915537E-02 0.19663078E+03</pdfrwt>
<pdfrwt beam="2">  1       -2 0.25646781E-01 0.19663078E+03</pdfrwt>
<totfact> 0.11727812E+04</totfact>
</mgrwt>
</event>
<event>
 4    1  0.1308644E-003  0.3228456E+03  0.7818608E-02  0.1074347E+00
         -2   -1    0    0    0  501 -0.00000000000E+00  0.00000000000E+00  0.36193251793E+02  0.36193251883E+02  0.25500000000E-02 0. -1.
          2   -1    0    0  501    0  0.00000000000E+00 -0.00000000000E+00 -0.71994953889E+03  0.71994953889E+03  0.25500000000E-02 0.  1.
    5000001    1    1    2    0    0  0.29418865798E+01 -0.90558885513E+02 -0.59757436915E+03  0.60928949860E+03  0.77000000000E+02 0.  0.
   -5000001    1    1    2    0    0 -0.29418865798E+01  0.90558885513E+02 -0.86181917950E+02  0.14685329218E+03  0.77000000000E+02 0.  0.
<mgrwt>
<rscale>  0 0.32284557E+03</rscale>
<asrwt>0</asrwt>
<pdfrwt beam="1">  1        2 0.10284993E+00 0.32284557E+03</pdfrwt>
<pdfrwt beam="2">  1       -2 0.51704650E-02 0.32284557E+03</pdfrwt>
<totfact> 0.82742597E+03</totfact>
</mgrwt>
</event>
<event>
 4    1  0.1308644E-003  0.1732068E+03  0.7818608E-02  0.1174544E+00
         -2   -1    0    0    0  501 -0.00000000000E+00  0.00000000000E+00  0.46831301942E+02  0.46831302011E+02  0.25500000000E-02 0. -1.
          2   -1    0    0  501    0  0.00000000000E+00 -0.00000000000E+00 -0.16015256392E+03  0.16015256394E+03  0.25500000000E-02 0.  1.
    5000001    1    1    2    0    0 -0.12474566667E+02 -0.37346598900E+02 -0.51214503019E+02  0.10051024118E+03  0.77000000000E+02 0.  0.
   -5000001    1    1    2    0    0  0.12474566667E+02  0.37346598900E+02 -0.62106758955E+02  0.10647362477E+03  0.77000000000E+02 0.  0.
<mgrwt>
<rscale>  0 0.17320685E+03</rscale>
<asrwt>0</asrwt>
<pdfrwt beam="1">  1        2 0.22878937E-01 0.17320685E+03</pdfrwt>
<pdfrwt beam="2">  1       -2 0.66901861E-02 0.17320685E+03</pdfrwt>
<totfact> 0.28153214E+04</totfact>
</mgrwt>
</event>
<event>
 4    1  0.1308644E-003  0.2781865E+03  0.7818608E-02  0.1096684E+00
         -2   -1    0    0    0  501 -0.00000000000E+00  0.00000000000E+00  0.12550964534E+03  0.12550964536E+03  0.25500000000E-02 0. -1.
          2   -1    0    0  501    0  0.00000000000E+00 -0.00000000000E+00 -0.15414698734E+03  0.15414698736E+03  0.25500000000E-02 0.  1.
    5000001    1    1    2    0    0 -0.92075009204E+02  0.51279001456E+02  0.34003956380E+02  0.13487999244E+03  0.77000000000E+02 0.  0.
   -5000001    1    1    2    0    0  0.92075009204E+02 -0.51279001456E+02 -0.62641298380E+02  0.14477664029E+03  0.77000000000E+02 0.  0.
<mgrwt>
<rscale>  0 0.27818651E+03</rscale>
<asrwt>0</asrwt>
<pdfrwt beam="1">  1        2 0.22020998E-01 0.27818651E+03</pdfrwt>
<pdfrwt beam="2">  1       -2 0.17929949E-01 0.27818651E+03</pdfrwt>
<totfact> 0.62543314E+03</totfact>
</mgrwt>
</event>
<event>
 4    1  0.1308644E-003  0.2301636E+03  0.7818608E-02  0.1126525E+00
          2   -1    0    0  501    0  0.00000000000E+00  0.00000000000E+00  0.10509476309E+04  0.10509476309E+04  0.25500000000E-02 0.  1.
         -2   -1    0    0    0  501 -0.00000000000E+00 -0.00000000000E+00 -0.12601794599E+02  0.12601794857E+02  0.25500000000E-02 0. -1.
    5000001    1    1    2    0    0 -0.31034993194E+02  0.73462453108E+02  0.37638047189E+03  0.39236610766E+03  0.77000000000E+02 0.  0.
   -5000001    1    1    2    0    0  0.31034993194E+02 -0.73462453108E+02  0.66196536444E+03  0.67118331813E+03  0.77000000000E+02 0.  0.
<mgrwt>
<rscale>  0 0.23016365E+03</rscale>
<asrwt>0</asrwt>
<pdfrwt beam="1">  1        2 0.15013538E+00 0.23016365E+03</pdfrwt>
<pdfrwt beam="2">  1       -2 0.18002563E-02 0.23016365E+03</pdfrwt>
<totfact> 0.24212443E+04</totfact>
</mgrwt>
</event>
<event>
 4    1  0.1308644E-003  0.1727072E+03  0.7818608E-02  0.1175054E+00
          2   -1    0    0  501    0  0.00000000000E+00  0.00000000000E+00  0.10660790958E+04  0.10660790958E+04  0.25500000000E-02 0.  1.
         -2   -1    0    0    0  501 -0.00000000000E+00 -0.00000000000E+00 -0.69947356179E+01  0.69947360827E+01  0.25500000000E-02 0. -1.
    5000001    1    1    2    0    0 -0.10653651277E+02 -0.32104276848E+02  0.65125806917E+03  0.65666601674E+03  0.77000000000E+02 0.  0.
   -5000001    1    1    2    0    0  0.10653651277E+02  0.32104276848E+02  0.40782629105E+03  0.41640781519E+03  0.77000000000E+02 0.  0.
<mgrwt>
<rscale>  0 0.17270717E+03</rscale>
<asrwt>0</asrwt>
<pdfrwt beam="1">  1        2 0.15229698E+00 0.17270717E+03</pdfrwt>
<pdfrwt beam="2">  1       -2 0.99924822E-03 0.17270717E+03</pdfrwt>
<totfact> 0.54581455E+04</totfact>
</mgrwt>
</event>
<event>
 4    1  0.1308644E-003  0.3740317E+03  0.7818608E-02  0.1053162E+00
         -2   -1    0    0    0  501 -0.00000000000E+00  0.00000000000E+00  0.15259299603E+03  0.15259299605E+03  0.25500000000E-02 0. -1.
          2   -1    0    0  501    0  0.00000000000E+00 -0.00000000000E+00 -0.22920403890E+03  0.22920403892E+03  0.25500000000E-02 0.  1.
    5000001    1    1    2    0    0  0.93561023753E+02  0.13731703802E+03 -0.76990845170E+02  0.19866107907E+03  0.77000000000E+02 0.  0.
   -5000001    1    1    2    0    0 -0.93561023753E+02 -0.13731703802E+03  0.37980230062E+00  0.18313595591E+03  0.77000000000E+02 0.  0.
<mgrwt>
<rscale>  0 0.37403172E+03</rscale>
<asrwt>0</asrwt>
<pdfrwt beam="1">  1        2 0.32743434E-01 0.37403172E+03</pdfrwt>
<pdfrwt beam="2">  1       -2 0.21798999E-01 0.37403172E+03</pdfrwt>
<totfact> 0.28981510E+03</totfact>
</mgrwt>
</event>
<event>
 4    1  0.1308644E-003  0.2634624E+03  0.7818608E-02  0.1105081E+00
          2   -1    0    0  501    0  0.00000000000E+00  0.00000000000E+00  0.18725971888E+04  0.18725971888E+04  0.25500000000E-02 0.  1.
         -2   -1    0    0    0  501 -0.00000000000E+00 -0.00000000000E+00 -0.92668679320E+01  0.92668682828E+01  0.25500000000E-02 0. -1.
    5000001    1    1    2    0    0  0.98693027097E+02 -0.33780530267E+02  0.76527071541E+03  0.77617633672E+03  0.77000000000E+02 0.  0.
   -5000001    1    1    2    0    0 -0.98693027097E+02  0.33780530267E+02  0.10980596055E+04  0.11056877204E+04  0.77000000000E+02 0.  0.
<mgrwt>
<rscale>  0 0.26346242E+03</rscale>
<asrwt>0</asrwt>
<pdfrwt beam="1">  1        2 0.26751377E+00 0.26346242E+03</pdfrwt>
<pdfrwt beam="2">  1       -2 0.13238388E-02 0.26346242E+03</pdfrwt>
<totfact> 0.14420408E+04</totfact>
</mgrwt>
</event>
<event>
 4    1  0.1308644E-003  0.4785631E+03  0.7818608E-02  0.1019531E+00
         -2   -1    0    0    0  501 -0.00000000000E+00  0.00000000000E+00  0.25898582275E+02  0.25898582401E+02  0.25500000000E-02 0. -1.
          2   -1    0    0  501    0  0.00000000000E+00 -0.00000000000E+00 -0.22107639690E+04  0.22107639690E+04  0.25500000000E-02 0.  1.
    5000001    1    1    2    0    0 -0.11136699655E+03 -0.78122384770E+02 -0.24571861935E+03  0.29122560811E+03  0.77000000000E+02 0.  0.
   -5000001    1    1    2    0    0  0.11136699655E+03  0.78122384770E+02 -0.19391467674E+04  0.19454369433E+04  0.77000000000E+02 0.  0.
<mgrwt>
<rscale>  0 0.47856307E+03</rscale>
<asrwt>0</asrwt>
<pdfrwt beam="1">  1        2 0.31582330E+00 0.47856307E+03</pdfrwt>
<pdfrwt beam="2">  1       -2 0.36997989E-02 0.47856307E+03</pdfrwt>
<totfact> 0.21294383E+03</totfact>
</mgrwt>
</event>
<event>
 4    1  0.1308644E-003  0.1616693E+03  0.7818608E-02  0.1186825E+00
         -2   -1    0    0    0  501 -0.00000000000E+00  0.00000000000E+00  0.32853589858E+02  0.32853589957E+02  0.25500000000E-02 0. -1.
          2   -1    0    0  501    0  0.00000000000E+00 -0.00000000000E+00 -0.19888977325E+03  0.19888977327E+03  0.25500000000E-02 0.  1.
    5000001    1    1    2    0    0  0.12759067719E+02 -0.19913924208E+02 -0.92727983558E+02  0.12282848660E+03  0.77000000000E+02 0.  0.
   -5000001    1    1    2    0    0 -0.12759067719E+02  0.19913924208E+02 -0.73308199837E+02  0.10891487662E+03  0.77000000000E+02 0.  0.
<mgrwt>
<rscale>  0 0.16166933E+03</rscale>
<asrwt>0</asrwt>
<pdfrwt beam="1">  1        2 0.28412824E-01 0.16166933E+03</pdfrwt>
<pdfrwt beam="2">  1       -2 0.46933701E-02 0.16166933E+03</pdfrwt>
<totfact> 0.37679823E+04</totfact>
</mgrwt>
</event>
<event>
 4    1  0.1308644E-003  0.3566617E+03  0.7818608E-02  0.1059914E+00
         -2   -1    0    0    0  501 -0.00000000000E+00  0.00000000000E+00  0.11662316769E+02  0.11662317048E+02  0.25500000000E-02 0. -1.
          2   -1    0    0  501    0  0.00000000000E+00 -0.00000000000E+00 -0.27268932630E+04  0.27268932630E+04  0.25500000000E-02 0.  1.
    5000001    1    1    2    0    0 -0.10934810920E+03 -0.10164514962E+03 -0.89793289818E+03  0.91351039133E+03  0.77000000000E+02 0.  0.
   -5000001    1    1    2    0    0  0.10934810920E+03  0.10164514962E+03 -0.18172980480E+04  0.18250451887E+04  0.77000000000E+02 0.  0.
<mgrwt>
<rscale>  0 0.35666171E+03</rscale>
<asrwt>0</asrwt>
<pdfrwt beam="1">  1        2 0.38955577E+00 0.35666171E+03</pdfrwt>
<pdfrwt beam="2">  1       -2 0.16660470E-02 0.35666171E+03</pdfrwt>
<totfact> 0.38796452E+03</totfact>
</mgrwt>
</event>
<event>
 4    1  0.1308644E-003  0.4140959E+03  0.7818608E-02  0.1039005E+00
         -2   -1    0    0    0  501 -0.00000000000E+00  0.00000000000E+00  0.79046175283E+02  0.79046175324E+02  0.25500000000E-02 0. -1.
          2   -1    0    0  501    0  0.00000000000E+00 -0.00000000000E+00 -0.54232659814E+03  0.54232659815E+03  0.25500000000E-02 0.  1.
    5000001    1    1    2    0    0  0.14785328994E+03 -0.75921930886E+01 -0.47728437464E+02  0.17356624236E+03  0.77000000000E+02 0.  0.
   -5000001    1    1    2    0    0 -0.14785328994E+03  0.75921930886E+01 -0.41555198539E+03  0.44780653111E+03  0.77000000000E+02 0.  0.
<mgrwt>
<rscale>  0 0.41409585E+03</rscale>
<asrwt>0</asrwt>
<pdfrwt beam="1">  1        2 0.77475226E-01 0.41409585E+03</pdfrwt>
<pdfrwt beam="2">  1       -2 0.11292311E-01 0.41409585E+03</pdfrwt>
<totfact> 0.33938713E+03</totfact>
</mgrwt>
</event>
<event>
 4    1  0.1308644E-003  0.4984181E+03  0.7818608E-02  0.1014193E+00
         -2   -1    0    0    0  501 -0.00000000000E+00  0.00000000000E+00  0.29820845424E+03  0.29820845425E+03  0.25500000000E-02 0. -1.
          2   -1    0    0  501    0  0.00000000000E+00 -0.00000000000E+00 -0.20826090252E+03  0.20826090253E+03  0.25500000000E-02 0.  1.
    5000001    1    1    2    0    0  0.70300007161E+02 -0.21399805798E+03  0.11991399288E+03  0.26654385289E+03  0.77000000000E+02 0.  0.
   -5000001    1    1    2    0    0 -0.70300007161E+02  0.21399805798E+03 -0.29966441150E+02  0.23992550390E+03  0.77000000000E+02 0.  0.
<mgrwt>
<rscale>  0 0.49841815E+03</rscale>
<asrwt>0</asrwt>
<pdfrwt beam="1">  1        2 0.29751558E-01 0.49841815E+03</pdfrwt>
<pdfrwt beam="2">  1       -2 0.42601208E-01 0.49841815E+03</pdfrwt>
<totfact> 0.94055816E+02</totfact>
</mgrwt>
</event>
<event>
 4    1  0.1308644E-003  0.2120021E+03  0.7818608E-02  0.1139990E+00
          2   -1    0    0  501    0  0.00000000000E+00  0.00000000000E+00  0.53335906826E+03  0.53335906827E+03  0.25500000000E-02 0.  1.
         -2   -1    0    0    0  501 -0.00000000000E+00 -0.00000000000E+00 -0.21066906121E+02  0.21066906275E+02  0.25500000000E-02 0. -1.
    5000001    1    1    2    0    0 -0.69688043709E+02 -0.15802621382E+02  0.21906205229E+03  0.24294717334E+03  0.77000000000E+02 0.  0.
   -5000001    1    1    2    0    0  0.69688043709E+02  0.15802621382E+02  0.29323010985E+03  0.31147880121E+03  0.77000000000E+02 0.  0.
<mgrwt>
<rscale>  0 0.21200213E+03</rscale>
<asrwt>0</asrwt>
<pdfrwt beam="1">  1        2 0.76194132E-01 0.21200213E+03</pdfrwt>
<pdfrwt beam="2">  1       -2 0.30095588E-02 0.21200213E+03</pdfrwt>
<totfact> 0.25830273E+04</totfact>
</mgrwt>
</event>
<event>
 4    1  0.1308644E-003  0.1836201E+03  0.7818608E-02  0.1164345E+00
          2   -1    0    0  501    0  0.00000000000E+00  0.00000000000E+00  0.23847651356E+04  0.23847651356E+04  0.25500000000E-02 0.  1.
         -2   -1    0    0    0  501 -0.00000000000E+00 -0.00000000000E+00 -0.35345555488E+01  0.35345564686E+01  0.25500000000E-02 0. -1.
    5000001    1    1    2    0    0  0.40018414405E+02 -0.14723649095E+02  0.85098567028E+03  0.85552549369E+03  0.77000000000E+02 0.  0.
   -5000001    1    1    2    0    0 -0.40018414405E+02  0.14723649095E+02  0.15302449098E+04  0.15327741984E+04  0.77000000000E+02 0.  0.
<mgrwt>
<rscale>  0 0.18362011E+03</rscale>
<asrwt>0</asrwt>
<pdfrwt beam="1">  1        2 0.34068179E+00 0.18362011E+03</pdfrwt>
<pdfrwt beam="2">  1       -2 0.50493501E-03 0.18362011E+03</pdfrwt>
<totfact> 0.32202131E+04</totfact>
</mgrwt>
</event>
<event>
 4    1  0.1308644E-003  0.6004244E+03  0.7818608E-02  0.9904526E-01
          2   -1    0    0  501    0  0.00000000000E+00  0.00000000000E+00  0.12176312954E+04  0.12176312954E+04  0.25500000000E-02 0.  1.
         -2   -1    0    0    0  501 -0.00000000000E+00 -0.00000000000E+00 -0.74018594714E+02  0.74018594758E+02  0.25500000000E-02 0. -1.
    5000001    1    1    2    0    0  0.28654513085E+03 -0.10269779833E+02  0.66764536877E+03  0.73067976490E+03  0.77000000000E+02 0.  0.
   -5000001    1    1    2    0    0 -0.28654513085E+03  0.10269779833E+02  0.47596733194E+03  0.56097012528E+03  0.77000000000E+02 0.  0.
<mgrwt>
<rscale>  0 0.60042437E+03</rscale>
<asrwt>0</asrwt>
<pdfrwt beam="1">  1        2 0.17394735E+00 0.60042437E+03</pdfrwt>
<pdfrwt beam="2">  1       -2 0.10574084E-01 0.60042437E+03</pdfrwt>
<totfact> 0.13195100E+03</totfact>
</mgrwt>
</event>
<event>
 4    1  0.1308644E-003  0.2102070E+03  0.7818608E-02  0.1141402E+00
         -2   -1    0    0    0  501 -0.00000000000E+00  0.00000000000E+00  0.51663258736E+01  0.51663265029E+01  0.25500000000E-02 0. -1.
          2   -1    0    0  501    0  0.00000000000E+00 -0.00000000000E+00 -0.21382209420E+04  0.21382209420E+04  0.25500000000E-02 0.  1.
    5000001    1    1    2    0    0 -0.19967013361E+01 -0.56495779980E+02 -0.15135490634E+04  0.15165604265E+04  0.77000000000E+02 0.  0.
   -5000001    1    1    2    0    0  0.19967013361E+01  0.56495779980E+02 -0.61950555276E+03  0.62682684202E+03  0.77000000000E+02 0.  0.
<mgrwt>
<rscale>  0 0.21020701E+03</rscale>
<asrwt>0</asrwt>
<pdfrwt beam="1">  1        2 0.30545957E+00 0.21020701E+03</pdfrwt>
<pdfrwt beam="2">  1       -2 0.73804797E-03 0.21020701E+03</pdfrwt>
<totfact> 0.24778913E+04</totfact>
</mgrwt>
</event>
<event>
 4    1  0.1308644E-003  0.3390310E+03  0.7818608E-02  0.1067209E+00
          2   -1    0    0  501    0  0.00000000000E+00  0.00000000000E+00  0.15315588807E+04  0.15315588807E+04  0.25500000000E-02 0.  1.
         -2   -1    0    0    0  501 -0.00000000000E+00 -0.00000000000E+00 -0.18762263044E+02  0.18762263217E+02  0.25500000000E-02 0. -1.
    5000001    1    1    2    0    0  0.99339815977E+02  0.10289499872E+03  0.97810748824E+03  0.99150342327E+03  0.77000000000E+02 0.  0.
   -5000001    1    1    2    0    0 -0.99339815977E+02 -0.10289499872E+03  0.53468912945E+03  0.55881772069E+03  0.77000000000E+02 0.  0.
<mgrwt>
<rscale>  0 0.33903104E+03</rscale>
<asrwt>0</asrwt>
<pdfrwt beam="1">  1        2 0.21879410E+00 0.33903104E+03</pdfrwt>
<pdfrwt beam="2">  1       -2 0.26803236E-02 0.33903104E+03</pdfrwt>
<totfact> 0.75620772E+03</totfact>
</mgrwt>
</event>
<event>
 4    1  0.1308644E-003  0.3539233E+03  0.7818608E-02  0.1061016E+00
         -2   -1    0    0    0  501 -0.00000000000E+00  0.00000000000E+00  0.30966932491E+02  0.30966932596E+02  0.25500000000E-02 0. -1.
          2   -1    0    0  501    0  0.00000000000E+00 -0.00000000000E+00 -0.10112539064E+04  0.10112539064E+04  0.25500000000E-02 0.  1.
    5000001    1    1    2    0    0 -0.14965070344E+03 -0.51653396174E+02 -0.43721753078E+03  0.47132958278E+03  0.77000000000E+02 0.  0.
   -5000001    1    1    2    0    0  0.14965070344E+03  0.51653396174E+02 -0.54306944316E+03  0.57089125626E+03  0.77000000000E+02 0.  0.
<mgrwt>
<rscale>  0 0.35392333E+03</rscale>
<asrwt>0</asrwt>
<pdfrwt beam="1">  1        2 0.14446482E+00 0.35392333E+03</pdfrwt>
<pdfrwt beam="2">  1       -2 0.44238481E-02 0.35392333E+03</pdfrwt>
<totfact> 0.68012124E+03</totfact>
</mgrwt>
</event>
<event>
 4    1  0.1308644E-003  0.1985376E+03  0.7818608E-02  0.1150979E+00
          2   -1    0    0  501    0  0.00000000000E+00  0.00000000000E+00  0.23106856105E+04  0.23106856105E+04  0.25500000000E-02 0.  1.
         -2   -1    0    0    0  501 -0.00000000000E+00 -0.00000000000E+00 -0.42646618383E+01  0.42646626006E+01  0.25500000000E-02 0. -1.
    5000001    1    1    2    0    0 -0.58821054017E+02  0.18936936459E+01  0.14037762361E+04  0.14071177007E+04  0.77000000000E+02 0.  0.
   -5000001    1    1    2    0    0  0.58821054017E+02 -0.18936936459E+01  0.90264471255E+03  0.90783257243E+03  0.77000000000E+02 0.  0.
<mgrwt>
<rscale>  0 0.19853759E+03</rscale>
<asrwt>0</asrwt>
<pdfrwt beam="1">  1        2 0.33009899E+00 0.19853759E+03</pdfrwt>
<pdfrwt beam="2">  1       -2 0.60923552E-03 0.19853759E+03</pdfrwt>
<totfact> 0.26849227E+04</totfact>
</mgrwt>
</event>
<event>
 4    1  0.1308644E-003  0.2813602E+03  0.7818608E-02  0.1094948E+00
          2   -1    0    0  501    0  0.00000000000E+00  0.00000000000E+00  0.32722484549E+03  0.32722484550E+03  0.25500000000E-02 0.  1.
         -2   -1    0    0    0  501 -0.00000000000E+00 -0.00000000000E+00 -0.60481003040E+02  0.60481003094E+02  0.25500000000E-02 0. -1.
    5000001    1    1    2    0    0 -0.19566116690E+02 -0.10621368050E+03  0.68773080099E+02  0.14940855194E+03  0.77000000000E+02 0.  0.
   -5000001    1    1    2    0    0  0.19566116690E+02  0.10621368050E+03  0.19797076236E+03  0.23829729666E+03  0.77000000000E+02 0.  0.
<mgrwt>
<rscale>  0 0.28136017E+03</rscale>
<asrwt>0</asrwt>
<pdfrwt beam="1">  1        2 0.46746408E-01 0.28136017E+03</pdfrwt>
<pdfrwt beam="2">  1       -2 0.86401430E-02 0.28136017E+03</pdfrwt>
<totfact> 0.89702042E+03</totfact>
</mgrwt>
</event>
<event>
 4    1  0.1308644E-003  0.3256883E+03  0.7818608E-02  0.1073061E+00
         -2   -1    0    0    0  501 -0.00000000000E+00  0.00000000000E+00  0.11599192846E+03  0.11599192848E+03  0.25500000000E-02 0. -1.
          2   -1    0    0  501    0  0.00000000000E+00 -0.00000000000E+00 -0.22862120563E+03  0.22862120564E+03  0.25500000000E-02 0.  1.
    5000001    1    1    2    0    0  0.35208490796E+02  0.13837559066E+03 -0.71344701802E+02  0.17721881500E+03  0.77000000000E+02 0.  0.
   -5000001    1    1    2    0    0 -0.35208490796E+02 -0.13837559066E+03 -0.41284575372E+02  0.16739431913E+03  0.77000000000E+02 0.  0.
<mgrwt>
<rscale>  0 0.32568828E+03</rscale>
<asrwt>0</asrwt>
<pdfrwt beam="1">  1        2 0.32660172E-01 0.32568828E+03</pdfrwt>
<pdfrwt beam="2">  1       -2 0.16570276E-01 0.32568828E+03</pdfrwt>
<totfact> 0.46289629E+03</totfact>
</mgrwt>
</event>
<event>
 4    1  0.1308644E-003  0.2343991E+03  0.7818608E-02  0.1123581E+00
         -2   -1    0    0    0  501 -0.00000000000E+00  0.00000000000E+00  0.14685230938E+02  0.14685231160E+02  0.25500000000E-02 0. -1.
          2   -1    0    0  501    0  0.00000000000E+00 -0.00000000000E+00 -0.93534342848E+03  0.93534342848E+03  0.25500000000E-02 0.  1.
    5000001    1    1    2    0    0 -0.63703365707E+02  0.36215798343E+02 -0.66041262916E+03  0.66891220919E+03  0.77000000000E+02 0.  0.
   -5000001    1    1    2    0    0  0.63703365707E+02 -0.36215798343E+02 -0.26024556838E+03  0.28111645045E+03  0.77000000000E+02 0.  0.
<mgrwt>
<rscale>  0 0.23439910E+03</rscale>
<asrwt>0</asrwt>
<pdfrwt beam="1">  1        2 0.13362045E+00 0.23439910E+03</pdfrwt>
<pdfrwt beam="2">  1       -2 0.20978907E-02 0.23439910E+03</pdfrwt>
<totfact> 0.22661026E+04</totfact>
</mgrwt>
</event>
<event>
 4    1  0.1308644E-003  0.2082592E+03  0.7818608E-02  0.1142952E+00
          2   -1    0    0  501    0  0.00000000000E+00  0.00000000000E+00  0.15689048639E+04  0.15689048639E+04  0.25500000000E-02 0.  1.
         -2   -1    0    0    0  501 -0.00000000000E+00 -0.00000000000E+00 -0.69111700199E+01  0.69111704903E+01  0.25500000000E-02 0. -1.
    5000001    1    1    2    0    0 -0.13938631263E+02 -0.68567492565E+02  0.74873241089E+03  0.75592659008E+03  0.77000000000E+02 0.  0.
   -5000001    1    1    2    0    0  0.13938631263E+02  0.68567492565E+02  0.81326128296E+03  0.81988944428E+03  0.77000000000E+02 0.  0.
<mgrwt>
<rscale>  0 0.20825915E+03</rscale>
<asrwt>0</asrwt>
<pdfrwt beam="1">  1        2 0.22412916E+00 0.20825915E+03</pdfrwt>
<pdfrwt beam="2">  1       -2 0.98731051E-03 0.20825915E+03</pdfrwt>
<totfact> 0.30786644E+04</totfact>
</mgrwt>
</event>
<event>
 4    1  0.1308644E-003  0.3730604E+03  0.7818608E-02  0.1053529E+00
          2   -1    0    0  501    0  0.00000000000E+00  0.00000000000E+00  0.51970823227E+03  0.51970823228E+03  0.25500000000E-02 0.  1.
         -2   -1    0    0    0  501 -0.00000000000E+00 -0.00000000000E+00 -0.66948162572E+02  0.66948162620E+02  0.25500000000E-02 0. -1.
    5000001    1    1    2    0    0 -0.57826163015E+02 -0.47695616909E+02 -0.13379944226E+02  0.10829016534E+03  0.77000000000E+02 0.  0.
   -5000001    1    1    2    0    0  0.57826163015E+02  0.47695616909E+02  0.46614001392E+03  0.47836622956E+03  0.77000000000E+02 0.  0.
<mgrwt>
<rscale>  0 0.37306038E+03</rscale>
<asrwt>0</asrwt>
<pdfrwt beam="1">  1        2 0.74244034E-01 0.37306038E+03</pdfrwt>
<pdfrwt beam="2">  1       -2 0.95640231E-02 0.37306038E+03</pdfrwt>
<totfact> 0.46439024E+03</totfact>
</mgrwt>
</event>
<event>
 4    1  0.1308644E-003  0.2627216E+03  0.7818608E-02  0.1105519E+00
         -2   -1    0    0    0  501 -0.00000000000E+00  0.00000000000E+00  0.93167068853E+02  0.93167068888E+02  0.25500000000E-02 0. -1.
          2   -1    0    0  501    0  0.00000000000E+00 -0.00000000000E+00 -0.18521201309E+03  0.18521201311E+03  0.25500000000E-02 0.  1.
    5000001    1    1    2    0    0 -0.14730769656E+02 -0.88473915676E+02  0.14680807215E+02  0.11911824138E+03  0.77000000000E+02 0.  0.
   -5000001    1    1    2    0    0  0.14730769656E+02  0.88473915676E+02 -0.10672575145E+03  0.15926084061E+03  0.77000000000E+02 0.  0.
<mgrwt>
<rscale>  0 0.26272160E+03</rscale>
<asrwt>0</asrwt>
<pdfrwt beam="1">  1        2 0.26458859E-01 0.26272160E+03</pdfrwt>
<pdfrwt beam="2">  1       -2 0.13309581E-01 0.26272160E+03</pdfrwt>
<totfact> 0.83222006E+03</totfact>
</mgrwt>
</event>
<event>
 4    1  0.1308644E-003  0.2587823E+03  0.7818608E-02  0.1107877E+00
         -2   -1    0    0    0  501 -0.00000000000E+00  0.00000000000E+00  0.77682940121E+02  0.77682940163E+02  0.25500000000E-02 0. -1.
          2   -1    0    0  501    0  0.00000000000E+00 -0.00000000000E+00 -0.21551796114E+03  0.21551796116E+03  0.25500000000E-02 0.  1.
    5000001    1    1    2    0    0  0.55119805903E+02 -0.28005193742E+02  0.25812482128E+02  0.10206746844E+03  0.77000000000E+02 0.  0.
   -5000001    1    1    2    0    0 -0.55119805903E+02  0.28005193742E+02 -0.16364750315E+03  0.19113343288E+03  0.77000000000E+02 0.  0.
<mgrwt>
<rscale>  0 0.25878229E+03</rscale>
<asrwt>0</asrwt>
<pdfrwt beam="1">  1        2 0.30788280E-01 0.25878229E+03</pdfrwt>
<pdfrwt beam="2">  1       -2 0.11097563E-01 0.25878229E+03</pdfrwt>
<totfact> 0.94400657E+03</totfact>
</mgrwt>
</event>
<event>
 4    1  0.1308644E-003  0.2491561E+03  0.7818608E-02  0.1113839E+00
         -2   -1    0    0    0  501 -0.00000000000E+00  0.00000000000E+00  0.49366211839E+01  0.49366218425E+01  0.25500000000E-02 0. -1.
          2   -1    0    0  501    0  0.00000000000E+00 -0.00000000000E+00 -0.31437884399E+04  0.31437884399E+04  0.25500000000E-02 0.  1.
    5000001    1    1    2    0    0 -0.42443389128E+02 -0.73198076766E+02 -0.21925605656E+04  0.21955432661E+04  0.77000000000E+02 0.  0.
   -5000001    1    1    2    0    0  0.42443389128E+02  0.73198076766E+02 -0.94629125318E+03  0.95318179566E+03  0.77000000000E+02 0.  0.
<mgrwt>
<rscale>  0 0.24915612E+03</rscale>
<asrwt>0</asrwt>
<pdfrwt beam="1">  1        2 0.44911135E+00 0.24915612E+03</pdfrwt>
<pdfrwt beam="2">  1       -2 0.70523366E-03 0.24915612E+03</pdfrwt>
<totfact> 0.82264643E+03</totfact>
</mgrwt>
</event>
<event>
 4    1  0.1308644E-003  0.3122415E+03  0.7818608E-02  0.1079276E+00
          2   -1    0    0  501    0  0.00000000000E+00  0.00000000000E+00  0.12248075777E+03  0.12248075779E+03  0.25500000000E-02 0.  1.
         -2   -1    0    0    0  501 -0.00000000000E+00 -0.00000000000E+00 -0.19900013647E+03  0.19900013649E+03  0.25500000000E-02 0. -1.
    5000001    1    1    2    0    0  0.13373192609E+03 -0.19351646753E+02 -0.52300422041E+02  0.16408244401E+03  0.77000000000E+02 0.  0.
   -5000001    1    1    2    0    0 -0.13373192609E+03  0.19351646753E+02 -0.24218956666E+02  0.15739845027E+03  0.77000000000E+02 0.  0.
<mgrwt>
<rscale>  0 0.31224149E+03</rscale>
<asrwt>0</asrwt>
<pdfrwt beam="1">  1        2 0.17497251E-01 0.31224149E+03</pdfrwt>
<pdfrwt beam="2">  1       -2 0.28428591E-01 0.31224149E+03</pdfrwt>
<totfact> 0.36623237E+03</totfact>
</mgrwt>
</event>
<event>
 4    1  0.1308644E-003  0.2526200E+03  0.7818608E-02  0.1111660E+00
         -2   -1    0    0    0  501 -0.00000000000E+00  0.00000000000E+00  0.13330412358E+02  0.13330412601E+02  0.25500000000E-02 0. -1.
          2   -1    0    0  501    0  0.00000000000E+00 -0.00000000000E+00 -0.11968280429E+04  0.11968280429E+04  0.25500000000E-02 0.  1.
    5000001    1    1    2    0    0 -0.24221777557E+01 -0.99193192075E+02 -0.52746859074E+03  0.54221515150E+03  0.77000000000E+02 0.  0.
   -5000001    1    1    2    0    0  0.24221777557E+01  0.99193192075E+02 -0.65602903976E+03  0.66794330396E+03  0.77000000000E+02 0.  0.
<mgrwt>
<rscale>  0 0.25261996E+03</rscale>
<asrwt>0</asrwt>
<pdfrwt beam="1">  1        2 0.17097537E+00 0.25261996E+03</pdfrwt>
<pdfrwt beam="2">  1       -2 0.19043454E-02 0.25261996E+03</pdfrwt>
<totfact> 0.18585633E+04</totfact>
</mgrwt>
</event>
<event>
 4    1  0.1308644E-003  0.3366455E+03  0.7818608E-02  0.1068234E+00
          2   -1    0    0  501    0  0.00000000000E+00  0.00000000000E+00  0.37069816529E+03  0.37069816530E+03  0.25500000000E-02 0.  1.
         -2   -1    0    0    0  501 -0.00000000000E+00 -0.00000000000E+00 -0.76430234953E+02  0.76430234995E+02  0.25500000000E-02 0. -1.
    5000001    1    1    2    0    0 -0.65180582965E+02  0.13407178731E+03  0.12932459131E+03  0.21184334416E+03  0.77000000000E+02 0.  0.
   -5000001    1    1    2    0    0  0.65180582965E+02 -0.13407178731E+03  0.16494333903E+03  0.23528505614E+03  0.77000000000E+02 0.  0.
<mgrwt>
<rscale>  0 0.33664550E+03</rscale>
<asrwt>0</asrwt>
<pdfrwt beam="1">  1        2 0.52956881E-01 0.33664550E+03</pdfrwt>
<pdfrwt beam="2">  1       -2 0.10918605E-01 0.33664550E+03</pdfrwt>
<totfact> 0.54356381E+03</totfact>
</mgrwt>
</event>
<event>
 4    1  0.1308644E-003  0.1612274E+03  0.7818608E-02  0.1187318E+00
          2   -1    0    0  501    0  0.00000000000E+00  0.00000000000E+00  0.12057385781E+04  0.12057385781E+04  0.25500000000E-02 0.  1.
         -2   -1    0    0    0  501 -0.00000000000E+00 -0.00000000000E+00 -0.53896967088E+01  0.53896973120E+01  0.25500000000E-02 0. -1.
    5000001    1    1    2    0    0  0.18636833901E+02 -0.30798111016E+01  0.70974274787E+03  0.71415725507E+03  0.77000000000E+02 0.  0.
   -5000001    1    1    2    0    0 -0.18636833901E+02  0.30798111016E+01  0.49060613351E+03  0.49697102034E+03  0.77000000000E+02 0.  0.
<mgrwt>
<rscale>  0 0.16122736E+03</rscale>
<asrwt>0</asrwt>
<pdfrwt beam="1">  1        2 0.17224833E+00 0.16122736E+03</pdfrwt>
<pdfrwt beam="2">  1       -2 0.76995689E-03 0.16122736E+03</pdfrwt>
<totfact> 0.66126299E+04</totfact>
</mgrwt>
</event>
<event>
 4    1  0.1308644E-003  0.2822097E+03  0.7818608E-02  0.1094488E+00
         -2   -1    0    0    0  501 -0.00000000000E+00  0.00000000000E+00  0.10483949619E+02  0.10483949930E+02  0.25500000000E-02 0. -1.
          2   -1    0    0  501    0  0.00000000000E+00 -0.00000000000E+00 -0.18991489280E+04  0.18991489280E+04  0.25500000000E-02 0.  1.
    5000001    1    1    2    0    0  0.67957690032E+02 -0.94778083840E+02 -0.10763179914E+04  0.10853527314E+04  0.77000000000E+02 0.  0.
   -5000001    1    1    2    0    0 -0.67957690032E+02  0.94778083840E+02 -0.81234698692E+03  0.82428014653E+03  0.77000000000E+02 0.  0.
<mgrwt>
<rscale>  0 0.28220972E+03</rscale>
<asrwt>0</asrwt>
<pdfrwt beam="1">  1        2 0.27130677E+00 0.28220972E+03</pdfrwt>
<pdfrwt beam="2">  1       -2 0.14977083E-02 0.28220972E+03</pdfrwt>
<totfact> 0.11705950E+04</totfact>
</mgrwt>
</event>
<event>
 4    1  0.1308644E-003  0.1806389E+03  0.7818608E-02  0.1167186E+00
          2   -1    0    0  501    0  0.00000000000E+00  0.00000000000E+00  0.71966675902E+02  0.71966675948E+02  0.25500000000E-02 0.  1.
         -2   -1    0    0    0  501 -0.00000000000E+00 -0.00000000000E+00 -0.11335247452E+03  0.11335247455E+03  0.25500000000E-02 0. -1.
    5000001    1    1    2    0    0 -0.29569624163E+02  0.31953865296E+02 -0.19665050700E+01  0.88477563951E+02  0.77000000000E+02 0.  0.
   -5000001    1    1    2    0    0  0.29569624163E+02 -0.31953865296E+02 -0.39419293545E+02  0.96841586543E+02  0.77000000000E+02 0.  0.
<mgrwt>
<rscale>  0 0.18063888E+03</rscale>
<asrwt>0</asrwt>
<pdfrwt beam="1">  1        2 0.10280954E-01 0.18063888E+03</pdfrwt>
<pdfrwt beam="2">  1       -2 0.16193210E-01 0.18063888E+03</pdfrwt>
<totfact> 0.17766314E+04</totfact>
</mgrwt>
</event>
<event>
 4    1  0.1308644E-003  0.2157411E+03  0.7818608E-02  0.1137099E+00
          2   -1    0    0  501    0  0.00000000000E+00  0.00000000000E+00  0.98811805975E+01  0.98811809266E+01  0.25500000000E-02 0.  1.
         -2   -1    0    0    0  501 -0.00000000000E+00 -0.00000000000E+00 -0.11775972059E+04  0.11775972059E+04  0.25500000000E-02 0. -1.
    5000001    1    1    2    0    0  0.20941305352E+02 -0.50359444855E+02 -0.29613927726E+03  0.31080875710E+03  0.77000000000E+02 0.  0.
   -5000001    1    1    2    0    0 -0.20941305352E+02  0.50359444855E+02 -0.87157674808E+03  0.87666962976E+03  0.77000000000E+02 0.  0.
<mgrwt>
<rscale>  0 0.21574106E+03</rscale>
<asrwt>0</asrwt>
<pdfrwt beam="1">  1        2 0.14115980E-02 0.21574106E+03</pdfrwt>
<pdfrwt beam="2">  1       -2 0.16822808E+00 0.21574106E+03</pdfrwt>
<totfact> 0.20584536E+03</totfact>
</mgrwt>
</event>
<event>
 4    1  0.1308644E-003  0.2013229E+03  0.7818608E-02  0.1148628E+00
         -2   -1    0    0    0  501 -0.00000000000E+00  0.00000000000E+00  0.16730039342E+02  0.16730039537E+02  0.25500000000E-02 0. -1.
          2   -1    0    0  501    0  0.00000000000E+00 -0.00000000000E+00 -0.60566049215E+03  0.60566049215E+03  0.25500000000E-02 0.  1.
    5000001    1    1    2    0    0  0.59296510253E+02  0.24876082879E+02 -0.26881723342E+03  0.28692612396E+03  0.77000000000E+02 0.  0.
   -5000001    1    1    2    0    0 -0.59296510253E+02 -0.24876082879E+02 -0.32011321939E+03  0.33546440773E+03  0.77000000000E+02 0.  0.
<mgrwt>
<rscale>  0 0.20132286E+03</rscale>
<asrwt>0</asrwt>
<pdfrwt beam="1">  1        2 0.86522914E-01 0.20132286E+03</pdfrwt>
<pdfrwt beam="2">  1       -2 0.23900060E-02 0.20132286E+03</pdfrwt>
<totfact> 0.31348835E+04</totfact>
</mgrwt>
</event>
<event>
 4    1  0.1308644E-003  0.1840533E+03  0.7818608E-02  0.1163937E+00
         -2   -1    0    0    0  501 -0.00000000000E+00  0.00000000000E+00  0.59576726154E+01  0.59576731611E+01  0.25500000000E-02 0. -1.
          2   -1    0    0  501    0  0.00000000000E+00 -0.00000000000E+00 -0.14215127834E+04  0.14215127834E+04  0.25500000000E-02 0.  1.
    5000001    1    1    2    0    0 -0.22971899387E+02  0.42256054218E+02 -0.59102183018E+03  0.59795408354E+03  0.77000000000E+02 0.  0.
   -5000001    1    1    2    0    0  0.22971899387E+02 -0.42256054218E+02 -0.82453328056E+03  0.82951637297E+03  0.77000000000E+02 0.  0.
<mgrwt>
<rscale>  0 0.18405334E+03</rscale>
<asrwt>0</asrwt>
<pdfrwt beam="1">  1        2 0.20307304E+00 0.18405334E+03</pdfrwt>
<pdfrwt beam="2">  1       -2 0.85109704E-03 0.18405334E+03</pdfrwt>
<totfact> 0.44802503E+04</totfact>
</mgrwt>
</event>
<event>
 4    1  0.1308644E-003  0.1883062E+03  0.7818608E-02  0.1159998E+00
         -2   -1    0    0    0  501 -0.00000000000E+00  0.00000000000E+00  0.71885027519E+01  0.71885032042E+01  0.25500000000E-02 0. -1.
          2   -1    0    0  501    0  0.00000000000E+00 -0.00000000000E+00 -0.12331925221E+04  0.12331925221E+04  0.25500000000E-02 0.  1.
    5000001    1    1    2    0    0  0.52584370230E+02  0.10210967013E+02 -0.66668873993E+03  0.67325497086E+03  0.77000000000E+02 0.  0.
   -5000001    1    1    2    0    0 -0.52584370230E+02 -0.10210967013E+02 -0.55931527937E+03  0.56712605440E+03  0.77000000000E+02 0.  0.
<mgrwt>
<rscale>  0 0.18830622E+03</rscale>
<asrwt>0</asrwt>
<pdfrwt beam="1">  1        2 0.17617023E+00 0.18830622E+03</pdfrwt>
<pdfrwt beam="2">  1       -2 0.10269298E-02 0.18830622E+03</pdfrwt>
<totfact> 0.42849769E+04</totfact>
</mgrwt>
</event>
<event>
 4    1  0.1308644E-003  0.3615511E+03  0.7818608E-02  0.1057971E+00
         -2   -1    0    0    0  501 -0.00000000000E+00  0.00000000000E+00  0.25334830066E+02  0.25334830195E+02  0.25500000000E-02 0. -1.
          2   -1    0    0  501    0  0.00000000000E+00 -0.00000000000E+00 -0.12899155198E+04  0.12899155198E+04  0.25500000000E-02 0.  1.
    5000001    1    1    2    0    0 -0.12585466847E+03 -0.87409466133E+02 -0.84034508994E+03  0.85766466789E+03  0.77000000000E+02 0.  0.
   -5000001    1    1    2    0    0  0.12585466847E+03  0.87409466133E+02 -0.42423559980E+03  0.45758568212E+03  0.77000000000E+02 0.  0.
<mgrwt>
<rscale>  0 0.36155105E+03</rscale>
<asrwt>0</asrwt>
<pdfrwt beam="1">  1        2 0.18427360E+00 0.36155105E+03</pdfrwt>
<pdfrwt beam="2">  1       -2 0.36192623E-02 0.36155105E+03</pdfrwt>
<totfact> 0.64379063E+03</totfact>
</mgrwt>
</event>
<event>
 4    1  0.1308644E-003  0.2125075E+03  0.7818608E-02  0.1139596E+00
         -2   -1    0    0    0  501 -0.00000000000E+00  0.00000000000E+00  0.54022107173E+02  0.54022107233E+02  0.25500000000E-02 0. -1.
          2   -1    0    0  501    0  0.00000000000E+00 -0.00000000000E+00 -0.20898590986E+03  0.20898590987E+03  0.25500000000E-02 0.  1.
    5000001    1    1    2    0    0 -0.39920944341E+02 -0.29468808216E+02 -0.14411674228E+03  0.17076512484E+03  0.77000000000E+02 0.  0.
   -5000001    1    1    2    0    0  0.39920944341E+02  0.29468808216E+02 -0.10847060403E+02  0.92242892269E+02  0.77000000000E+02 0.  0.
<mgrwt>
<rscale>  0 0.21250750E+03</rscale>
<asrwt>0</asrwt>
<pdfrwt beam="1">  1        2 0.29855130E-01 0.21250750E+03</pdfrwt>
<pdfrwt beam="2">  1       -2 0.77174440E-02 0.21250750E+03</pdfrwt>
<totfact> 0.17109860E+04</totfact>
</mgrwt>
</event>
<event>
 4    1  0.1308644E-003  0.3769370E+03  0.7818608E-02  0.1052072E+00
         -2   -1    0    0    0  501 -0.00000000000E+00  0.00000000000E+00  0.16653392928E+02  0.16653393123E+02  0.25500000000E-02 0. -1.
          2   -1    0    0  501    0  0.00000000000E+00 -0.00000000000E+00 -0.21329206636E+04  0.21329206636E+04  0.25500000000E-02 0.  1.
    5000001    1    1    2    0    0  0.12703315978E+03 -0.91585190130E+02 -0.14640348774E+04  0.14743989938E+04  0.77000000000E+02 0.  0.
   -5000001    1    1    2    0    0 -0.12703315978E+03  0.91585190130E+02 -0.65223239327E+03  0.67517506291E+03  0.77000000000E+02 0.  0.
<mgrwt>
<rscale>  0 0.37693695E+03</rscale>
<asrwt>0</asrwt>
<pdfrwt beam="1">  1        2 0.30470278E+00 0.37693695E+03</pdfrwt>
<pdfrwt beam="2">  1       -2 0.23790575E-02 0.37693695E+03</pdfrwt>
<totfact> 0.45447071E+03</totfact>
</mgrwt>
</event>
<event>
 4    1  0.1308644E-003  0.1023341E+04  0.7818608E-02  0.9283309E-01
         -2   -1    0    0    0  501 -0.00000000000E+00  0.00000000000E+00  0.89490561829E+03  0.89490561829E+03  0.25500000000E-02 0. -1.
          2   -1    0    0  501    0  0.00000000000E+00 -0.00000000000E+00 -0.29255208089E+03  0.29255208090E+03  0.25500000000E-02 0.  1.
    5000001    1    1    2    0    0  0.62829311596E+02  0.40273180138E+03 -0.46426532848E+02  0.41740250261E+03  0.77000000000E+02 0.  0.
   -5000001    1    1    2    0    0 -0.62829311596E+02 -0.40273180138E+03  0.64878007025E+03  0.77005519658E+03  0.77000000000E+02 0.  0.
<mgrwt>
<rscale>  0 0.10233406E+04</rscale>
<asrwt>0</asrwt>
<pdfrwt beam="1">  1        2 0.41793155E-01 0.10233406E+04</pdfrwt>
<pdfrwt beam="2">  1       -2 0.12784366E+00 0.10233406E+04</pdfrwt>
<totfact> 0.55412452E+01</totfact>
</mgrwt>
</event>
<event>
 4    1  0.1308644E-003  0.2665991E+03  0.7818608E-02  0.1103242E+00
          2   -1    0    0  501    0  0.00000000000E+00  0.00000000000E+00  0.10747182255E+03  0.10747182258E+03  0.25500000000E-02 0.  1.
         -2   -1    0    0    0  501 -0.00000000000E+00 -0.00000000000E+00 -0.16533425438E+03  0.16533425440E+03  0.25500000000E-02 0. -1.
    5000001    1    1    2    0    0  0.45772630978E+02  0.89785337638E+02  0.13051201503E+02  0.12749852729E+03  0.77000000000E+02 0.  0.
   -5000001    1    1    2    0    0 -0.45772630978E+02 -0.89785337638E+02 -0.70913633337E+02  0.14530754968E+03  0.77000000000E+02 0.  0.
<mgrwt>
<rscale>  0 0.26659913E+03</rscale>
<asrwt>0</asrwt>
<pdfrwt beam="1">  1        2 0.15353118E-01 0.26659913E+03</pdfrwt>
<pdfrwt beam="2">  1       -2 0.23619179E-01 0.26659913E+03</pdfrwt>
<totfact> 0.59038623E+03</totfact>
</mgrwt>
</event>
<event>
 4    1  0.1308644E-003  0.2954756E+03  0.7818608E-02  0.1087524E+00
          2   -1    0    0  501    0  0.00000000000E+00  0.00000000000E+00  0.68932489273E+03  0.68932489274E+03  0.25500000000E-02 0.  1.
         -2   -1    0    0    0  501 -0.00000000000E+00 -0.00000000000E+00 -0.31663522632E+02  0.31663522734E+02  0.25500000000E-02 0. -1.
    5000001    1    1    2    0    0 -0.11102677778E+03  0.47492762591E+02  0.41731386793E+03  0.44120558955E+03  0.77000000000E+02 0.  0.
   -5000001    1    1    2    0    0  0.11102677778E+03 -0.47492762591E+02  0.24034750217E+03  0.27978282592E+03  0.77000000000E+02 0.  0.
<mgrwt>
<rscale>  0 0.29547558E+03</rscale>
<asrwt>0</asrwt>
<pdfrwt beam="1">  1        2 0.98474991E-01 0.29547558E+03</pdfrwt>
<pdfrwt beam="2">  1       -2 0.45233601E-02 0.29547558E+03</pdfrwt>
<totfact> 0.10651040E+04</totfact>
</mgrwt>
</event>
<event>
 4    1  0.1308644E-003  0.1965686E+03  0.7818608E-02  0.1152667E+00
         -2   -1    0    0    0  501 -0.00000000000E+00  0.00000000000E+00  0.30379616287E+01  0.30379626989E+01  0.25500000000E-02 0. -1.
          2   -1    0    0  501    0  0.00000000000E+00 -0.00000000000E+00 -0.31796973230E+04  0.31796973230E+04  0.25500000000E-02 0.  1.
    5000001    1    1    2    0    0  0.25737880027E+02  0.55376474588E+02 -0.16100995806E+04  0.16130959835E+04  0.77000000000E+02 0.  0.
   -5000001    1    1    2    0    0 -0.25737880027E+02 -0.55376474588E+02 -0.15665597807E+04  0.15696393022E+04  0.77000000000E+02 0.  0.
<mgrwt>
<rscale>  0 0.19656856E+03</rscale>
<asrwt>0</asrwt>
<pdfrwt beam="1">  1        2 0.45424034E+00 0.19656856E+03</pdfrwt>
<pdfrwt beam="2">  1       -2 0.43399663E-03 0.19656856E+03</pdfrwt>
<totfact> 0.15755176E+04</totfact>
</mgrwt>
</event>
<event>
 4    1  0.1308644E-003  0.2909494E+03  0.7818608E-02  0.1089854E+00
         -2   -1    0    0    0  501 -0.00000000000E+00  0.00000000000E+00  0.39762686636E+03  0.39762686636E+03  0.25500000000E-02 0. -1.
          2   -1    0    0  501    0  0.00000000000E+00 -0.00000000000E+00 -0.53222984051E+02  0.53222984113E+02  0.25500000000E-02 0.  1.
    5000001    1    1    2    0    0  0.10821504074E+03 -0.54715103378E+02  0.13653964678E+03  0.19818252376E+03  0.77000000000E+02 0.  0.
   -5000001    1    1    2    0    0 -0.10821504074E+03  0.54715103378E+02  0.20786423553E+03  0.25266732672E+03  0.77000000000E+02 0.  0.
<mgrwt>
<rscale>  0 0.29094940E+03</rscale>
<asrwt>0</asrwt>
<pdfrwt beam="1">  1        2 0.76032830E-02 0.29094940E+03</pdfrwt>
<pdfrwt beam="2">  1       -2 0.56803841E-01 0.29094940E+03</pdfrwt>
<totfact> 0.26874901E+03</totfact>
</mgrwt>
</event>
<event>
 4    1  0.1308644E-003  0.1929704E+03  0.7818608E-02  0.1155809E+00
         -2   -1    0    0    0  501 -0.00000000000E+00  0.00000000000E+00  0.58484296583E+03  0.58484296583E+03  0.25500000000E-02 0. -1.
          2   -1    0    0  501    0  0.00000000000E+00 -0.00000000000E+00 -0.15917773148E+02  0.15917773352E+02  0.25500000000E-02 0.  1.
    5000001    1    1    2    0    0  0.45906991007E+02 -0.35513216760E+02  0.29513752909E+03  0.31048961572E+03  0.77000000000E+02 0.  0.
   -5000001    1    1    2    0    0 -0.45906991007E+02  0.35513216760E+02  0.27378766359E+03  0.29027112347E+03  0.77000000000E+02 0.  0.
<mgrwt>
<rscale>  0 0.19297044E+03</rscale>
<asrwt>0</asrwt>
<pdfrwt beam="1">  1        2 0.22739675E-02 0.19297044E+03</pdfrwt>
<pdfrwt beam="2">  1       -2 0.83549000E-01 0.19297044E+03</pdfrwt>
<totfact> 0.57695843E+03</totfact>
</mgrwt>
</event>
<event>
 4    1  0.1308644E-003  0.3710961E+03  0.7818608E-02  0.1054275E+00
         -2   -1    0    0    0  501 -0.00000000000E+00  0.00000000000E+00  0.53403986483E+02  0.53403986544E+02  0.25500000000E-02 0. -1.
          2   -1    0    0  501    0  0.00000000000E+00 -0.00000000000E+00 -0.64467243977E+03  0.64467243978E+03  0.25500000000E-02 0.  1.
    5000001    1    1    2    0    0 -0.75902625400E+01 -0.13437110037E+03 -0.48734128436E+03  0.51141346496E+03  0.77000000000E+02 0.  0.
   -5000001    1    1    2    0    0  0.75902625400E+01  0.13437110037E+03 -0.10392716892E+03  0.18666296136E+03  0.77000000000E+02 0.  0.
<mgrwt>
<rscale>  0 0.37109610E+03</rscale>
<asrwt>0</asrwt>
<pdfrwt beam="1">  1        2 0.92096059E-01 0.37109610E+03</pdfrwt>
<pdfrwt beam="2">  1       -2 0.76291413E-02 0.37109610E+03</pdfrwt>
<totfact> 0.51846650E+03</totfact>
</mgrwt>
</event>
<event>
 4    1  0.1308644E-003  0.2222784E+03  0.7818608E-02  0.1132196E+00
          2   -1    0    0  501    0  0.00000000000E+00  0.00000000000E+00  0.21866939443E+03  0.21866939444E+03  0.25500000000E-02 0.  1.
         -2   -1    0    0    0  501 -0.00000000000E+00 -0.00000000000E+00 -0.56486720281E+02  0.56486720339E+02  0.25500000000E-02 0. -1.
    5000001    1    1    2    0    0 -0.64005773977E+02 -0.21912647188E+02  0.27905076886E+02  0.10622898157E+03  0.77000000000E+02 0.  0.
   -5000001    1    1    2    0    0  0.64005773977E+02  0.21912647188E+02  0.13427759726E+03  0.16892713321E+03  0.77000000000E+02 0.  0.
<mgrwt>
<rscale>  0 0.22227836E+03</rscale>
<asrwt>0</asrwt>
<pdfrwt beam="1">  1        2 0.31238485E-01 0.22227836E+03</pdfrwt>
<pdfrwt beam="2">  1       -2 0.80695314E-02 0.22227836E+03</pdfrwt>
<totfact> 0.15239148E+04</totfact>
</mgrwt>
</event>
<event>
 4    1  0.1308644E-003  0.2860474E+03  0.7818608E-02  0.1092431E+00
          2   -1    0    0  501    0  0.00000000000E+00  0.00000000000E+00  0.39173263107E+03  0.39173263107E+03  0.25500000000E-02 0.  1.
         -2   -1    0    0    0  501 -0.00000000000E+00 -0.00000000000E+00 -0.52218720714E+02  0.52218720776E+02  0.25500000000E-02 0. -1.
    5000001    1    1    2    0    0 -0.10659612436E+03  0.56071106203E+02  0.16280324754E+03  0.21665779490E+03  0.77000000000E+02 0.  0.
   -5000001    1    1    2    0    0  0.10659612436E+03 -0.56071106203E+02  0.17671066281E+03  0.22729355695E+03  0.77000000000E+02 0.  0.
<mgrwt>
<rscale>  0 0.28604739E+03</rscale>
<asrwt>0</asrwt>
<pdfrwt beam="1">  1        2 0.55961803E-01 0.28604739E+03</pdfrwt>
<pdfrwt beam="2">  1       -2 0.74598174E-02 0.28604739E+03</pdfrwt>
<totfact> 0.93013001E+03</totfact>
</mgrwt>
</event>
<event>
 4    1  0.1308644E-003  0.2703920E+03  0.7818608E-02  0.1101055E+00
          2   -1    0    0  501    0  0.00000000000E+00  0.00000000000E+00  0.59137358963E+03  0.59137358964E+03  0.25500000000E-02 0.  1.
         -2   -1    0    0    0  501 -0.00000000000E+00 -0.00000000000E+00 -0.30907644877E+02  0.30907644982E+02  0.25500000000E-02 0. -1.
    5000001    1    1    2    0    0  0.77808850175E+02  0.67707914507E+02  0.18505425110E+03  0.22541662472E+03  0.77000000000E+02 0.  0.
   -5000001    1    1    2    0    0 -0.77808850175E+02 -0.67707914507E+02  0.37541169366E+03  0.39686460990E+03  0.77000000000E+02 0.  0.
<mgrwt>
<rscale>  0 0.27039205E+03</rscale>
<asrwt>0</asrwt>
<pdfrwt beam="1">  1        2 0.84481944E-01 0.27039205E+03</pdfrwt>
<pdfrwt beam="2">  1       -2 0.44153777E-02 0.27039205E+03</pdfrwt>
<totfact> 0.13150534E+04</totfact>
</mgrwt>
</event>
<event>
 4    1  0.1308644E-003  0.3753199E+03  0.7818608E-02  0.1052677E+00
          2   -1    0    0  501    0  0.00000000000E+00  0.00000000000E+00  0.23844645234E+04  0.23844645234E+04  0.25500000000E-02 0.  1.
         -2   -1    0    0    0  501 -0.00000000000E+00 -0.00000000000E+00 -0.14769038362E+02  0.14769038582E+02  0.25500000000E-02 0. -1.
    5000001    1    1    2    0    0 -0.15404575945E+03  0.57692274280E+02  0.88305969587E+03  0.90154418693E+03  0.77000000000E+02 0.  0.
   -5000001    1    1    2    0    0  0.15404575945E+03 -0.57692274280E+02  0.14866357892E+04  0.14976893751E+04  0.77000000000E+02 0.  0.
<mgrwt>
<rscale>  0 0.37531985E+03</rscale>
<asrwt>0</asrwt>
<pdfrwt beam="1">  1        2 0.34063755E+00 0.37531985E+03</pdfrwt>
<pdfrwt beam="2">  1       -2 0.21098641E-02 0.37531985E+03</pdfrwt>
<totfact> 0.40758091E+03</totfact>
</mgrwt>
</event>
<event>
 4    1  0.1308644E-003  0.4733067E+03  0.7818608E-02  0.1020991E+00
          2   -1    0    0  501    0  0.00000000000E+00  0.00000000000E+00  0.12984401855E+04  0.12984401856E+04  0.25500000000E-02 0.  1.
         -2   -1    0    0    0  501 -0.00000000000E+00 -0.00000000000E+00 -0.43132368208E+02  0.43132368283E+02  0.25500000000E-02 0. -1.
    5000001    1    1    2    0    0 -0.15330564194E+03 -0.15864590069E+03  0.73388629324E+03  0.77018779078E+03  0.77000000000E+02 0.  0.
   -5000001    1    1    2    0    0  0.15330564194E+03  0.15864590069E+03  0.52142152410E+03  0.57138476305E+03  0.77000000000E+02 0.  0.
<mgrwt>
<rscale>  0 0.47330667E+03</rscale>
<asrwt>0</asrwt>
<pdfrwt beam="1">  1        2 0.18549143E+00 0.47330667E+03</pdfrwt>
<pdfrwt beam="2">  1       -2 0.61617676E-02 0.47330667E+03</pdfrwt>
<totfact> 0.28213020E+03</totfact>
</mgrwt>
</event>
<event>
 4    1  0.1308644E-003  0.3661505E+03  0.7818608E-02  0.1056175E+00
         -2   -1    0    0    0  501 -0.00000000000E+00  0.00000000000E+00  0.14632778313E+02  0.14632778536E+02  0.25500000000E-02 0. -1.
          2   -1    0    0  501    0  0.00000000000E+00 -0.00000000000E+00 -0.22905113883E+04  0.22905113883E+04  0.25500000000E-02 0.  1.
    5000001    1    1    2    0    0 -0.92498997983E+02 -0.83843325087E+02 -0.18276409503E+04  0.18335174422E+04  0.77000000000E+02 0.  0.
   -5000001    1    1    2    0    0  0.92498997983E+02  0.83843325087E+02 -0.44823765965E+03  0.47162672455E+03  0.77000000000E+02 0.  0.
<mgrwt>
<rscale>  0 0.36615049E+03</rscale>
<asrwt>0</asrwt>
<pdfrwt beam="1">  1        2 0.32721568E+00 0.36615049E+03</pdfrwt>
<pdfrwt beam="2">  1       -2 0.20903984E-02 0.36615049E+03</pdfrwt>
<totfact> 0.46041617E+03</totfact>
</mgrwt>
</event>
<event>
 4    1  0.1308644E-003  0.2911269E+03  0.7818608E-02  0.1089762E+00
         -2   -1    0    0    0  501 -0.00000000000E+00  0.00000000000E+00  0.50891101541E+02  0.50891101604E+02  0.25500000000E-02 0. -1.
          2   -1    0    0  501    0  0.00000000000E+00 -0.00000000000E+00 -0.41635408392E+03  0.41635408393E+03  0.25500000000E-02 0.  1.
    5000001    1    1    2    0    0  0.74511206992E+02  0.21976999471E+02 -0.28582316985E+02  0.11305245383E+03  0.77000000000E+02 0.  0.
   -5000001    1    1    2    0    0 -0.74511206992E+02 -0.21976999471E+02 -0.33688066539E+03  0.35419273170E+03  0.77000000000E+02 0.  0.
<mgrwt>
<rscale>  0 0.29112690E+03</rscale>
<asrwt>0</asrwt>
<pdfrwt beam="1">  1        2 0.59479153E-01 0.29112690E+03</pdfrwt>
<pdfrwt beam="2">  1       -2 0.72701576E-02 0.29112690E+03</pdfrwt>
<totfact> 0.90683391E+03</totfact>
</mgrwt>
</event>
<event>
 4    1  0.1308644E-003  0.3404376E+03  0.7818608E-02  0.1066610E+00
         -2   -1    0    0    0  501 -0.00000000000E+00  0.00000000000E+00  0.22679648768E+03  0.22679648769E+03  0.25500000000E-02 0. -1.
          2   -1    0    0  501    0  0.00000000000E+00 -0.00000000000E+00 -0.12775526735E+03  0.12775526738E+03  0.25500000000E-02 0.  1.
    5000001    1    1    2    0    0  0.86204567631E+02 -0.22655860873E+02 -0.78459926542E+02  0.14152552980E+03  0.77000000000E+02 0.  0.
   -5000001    1    1    2    0    0 -0.86204567631E+02  0.22655860873E+02  0.17750114687E+03  0.21302622527E+03  0.77000000000E+02 0.  0.
<mgrwt>
<rscale>  0 0.34043764E+03</rscale>
<asrwt>0</asrwt>
<pdfrwt beam="1">  1        2 0.18250753E-01 0.34043764E+03</pdfrwt>
<pdfrwt beam="2">  1       -2 0.32399498E-01 0.34043764E+03</pdfrwt>
<totfact> 0.27518597E+03</totfact>
</mgrwt>
</event>
<event>
 4    1  0.1308644E-003  0.1940360E+03  0.7818608E-02  0.1154871E+00
         -2   -1    0    0    0  501 -0.00000000000E+00  0.00000000000E+00  0.43358672116E+03  0.43358672117E+03  0.25500000000E-02 0. -1.
          2   -1    0    0  501    0  0.00000000000E+00 -0.00000000000E+00 -0.21708444837E+02  0.21708444987E+02  0.25500000000E-02 0.  1.
    5000001    1    1    2    0    0  0.55989412299E+02 -0.65131544529E+01  0.16487578505E+03  0.19050002615E+03  0.77000000000E+02 0.  0.
   -5000001    1    1    2    0    0 -0.55989412299E+02  0.65131544529E+01  0.24700249128E+03  0.26479514000E+03  0.77000000000E+02 0.  0.
<mgrwt>
<rscale>  0 0.19403601E+03</rscale>
<asrwt>0</asrwt>
<pdfrwt beam="1">  1        2 0.31012065E-02 0.19403601E+03</pdfrwt>
<pdfrwt beam="2">  1       -2 0.61940958E-01 0.19403601E+03</pdfrwt>
<totfact> 0.71950783E+03</totfact>
</mgrwt>
</event>
<event>
 4    1  0.1308644E-003  0.1942102E+03  0.7818608E-02  0.1154718E+00
         -2   -1    0    0    0  501 -0.00000000000E+00  0.00000000000E+00  0.79270323673E+03  0.79270323674E+03  0.25500000000E-02 0. -1.
          2   -1    0    0  501    0  0.00000000000E+00 -0.00000000000E+00 -0.11895247719E+02  0.11895247992E+02  0.25500000000E-02 0.  1.
    5000001    1    1    2    0    0  0.44902568768E+02 -0.26850533266E+02  0.50485749524E+03  0.51336856382E+03  0.77000000000E+02 0.  0.
   -5000001    1    1    2    0    0 -0.44902568768E+02  0.26850533266E+02  0.27595049377E+03  0.29122992091E+03  0.77000000000E+02 0.  0.
<mgrwt>
<rscale>  0 0.19421021E+03</rscale>
<asrwt>0</asrwt>
<pdfrwt beam="1">  1        2 0.16993210E-02 0.19421021E+03</pdfrwt>
<pdfrwt beam="2">  1       -2 0.11324333E+00 0.19421021E+03</pdfrwt>
<totfact> 0.42828208E+03</totfact>
</mgrwt>
</event>
<event>
 4    1  0.1308644E-003  0.3113410E+03  0.7818608E-02  0.1079705E+00
         -2   -1    0    0    0  501 -0.00000000000E+00  0.00000000000E+00  0.76062814120E+01  0.76062818395E+01  0.25500000000E-02 0. -1.
          2   -1    0    0  501    0  0.00000000000E+00 -0.00000000000E+00 -0.31859595017E+04  0.31859595017E+04  0.25500000000E-02 0.  1.
    5000001    1    1    2    0    0 -0.77485006666E+02 -0.11089033147E+03 -0.15694104446E+04  0.15771108824E+04  0.77000000000E+02 0.  0.
   -5000001    1    1    2    0    0  0.77485006666E+02  0.11089033147E+03 -0.16089427757E+04  0.16164549011E+04  0.77000000000E+02 0.  0.
<mgrwt>
<rscale>  0 0.31134100E+03</rscale>
<asrwt>0</asrwt>
<pdfrwt beam="1">  1        2 0.45513622E+00 0.31134100E+03</pdfrwt>
<pdfrwt beam="2">  1       -2 0.10866137E-02 0.31134100E+03</pdfrwt>
<totfact> 0.41561392E+03</totfact>
</mgrwt>
</event>
<event>
 4    1  0.1308644E-003  0.3678752E+03  0.7818608E-02  0.1055508E+00
         -2   -1    0    0    0  501 -0.00000000000E+00  0.00000000000E+00  0.11989610633E+03  0.11989610635E+03  0.25500000000E-02 0. -1.
          2   -1    0    0  501    0  0.00000000000E+00 -0.00000000000E+00 -0.28218628231E+03  0.28218628232E+03  0.25500000000E-02 0.  1.
    5000001    1    1    2    0    0 -0.15713887024E+03  0.46545032742E+02 -0.45813197714E+02  0.18678038896E+03  0.77000000000E+02 0.  0.
   -5000001    1    1    2    0    0  0.15713887024E+03 -0.46545032742E+02 -0.11647697827E+03  0.21530199971E+03  0.77000000000E+02 0.  0.
<mgrwt>
<rscale>  0 0.36787518E+03</rscale>
<asrwt>0</asrwt>
<pdfrwt beam="1">  1        2 0.40312326E-01 0.36787518E+03</pdfrwt>
<pdfrwt beam="2">  1       -2 0.17128015E-01 0.36787518E+03</pdfrwt>
<totfact> 0.34893206E+03</totfact>
</mgrwt>
</event>
<event>
 4    1  0.1308644E-003  0.3051682E+03  0.7818608E-02  0.1082685E+00
         -2   -1    0    0    0  501 -0.00000000000E+00  0.00000000000E+00  0.19486290426E+02  0.19486290592E+02  0.25500000000E-02 0. -1.
          2   -1    0    0  501    0  0.00000000000E+00 -0.00000000000E+00 -0.11947839899E+04  0.11947839899E+04  0.25500000000E-02 0.  1.
    5000001    1    1    2    0    0 -0.10397827421E+03 -0.75837611052E+02 -0.47580490120E+03  0.49888087632E+03  0.77000000000E+02 0.  0.
   -5000001    1    1    2    0    0  0.10397827421E+03  0.75837611052E+02 -0.69949279823E+03  0.71538940412E+03  0.77000000000E+02 0.  0.
<mgrwt>
<rscale>  0 0.30516820E+03</rscale>
<asrwt>0</asrwt>
<pdfrwt beam="1">  1        2 0.17068338E+00 0.30516820E+03</pdfrwt>
<pdfrwt beam="2">  1       -2 0.27837565E-02 0.30516820E+03</pdfrwt>
<totfact> 0.10703502E+04</totfact>
</mgrwt>
</event>
<event>
 4    1  0.1308644E-003  0.2892852E+03  0.7818608E-02  0.1090723E+00
          2   -1    0    0  501    0  0.00000000000E+00  0.00000000000E+00  0.24186586785E+04  0.24186586785E+04  0.25500000000E-02 0.  1.
         -2   -1    0    0    0  501 -0.00000000000E+00 -0.00000000000E+00 -0.86500322505E+01  0.86500326263E+01  0.25500000000E-02 0. -1.
    5000001    1    1    2    0    0 -0.11762964869E+03  0.18267047808E+02  0.14455789141E+04  0.14525143084E+04  0.77000000000E+02 0.  0.
   -5000001    1    1    2    0    0  0.11762964869E+03 -0.18267047808E+02  0.96442973211E+03  0.97479440266E+03  0.77000000000E+02 0.  0.
<mgrwt>
<rscale>  0 0.28928516E+03</rscale>
<asrwt>0</asrwt>
<pdfrwt beam="1">  1        2 0.34552300E+00 0.28928516E+03</pdfrwt>
<pdfrwt beam="2">  1       -2 0.12357177E-02 0.28928516E+03</pdfrwt>
<totfact> 0.86251037E+03</totfact>
</mgrwt>
</event>
<event>
 4    1  0.1308644E-003  0.2654170E+03  0.7818608E-02  0.1103932E+00
         -2   -1    0    0    0  501 -0.00000000000E+00  0.00000000000E+00  0.13824392710E+02  0.13824392945E+02  0.25500000000E-02 0. -1.
          2   -1    0    0  501    0  0.00000000000E+00 -0.00000000000E+00 -0.12739467464E+04  0.12739467464E+04  0.25500000000E-02 0.  1.
    5000001    1    1    2    0    0  0.97543838477E+02  0.33085208518E+02 -0.47112165429E+03  0.48835852054E+03  0.77000000000E+02 0.  0.
   -5000001    1    1    2    0    0 -0.97543838477E+02 -0.33085208518E+02 -0.78900069945E+03  0.79941261885E+03  0.77000000000E+02 0.  0.
<mgrwt>
<rscale>  0 0.26541696E+03</rscale>
<asrwt>0</asrwt>
<pdfrwt beam="1">  1        2 0.18199232E+00 0.26541696E+03</pdfrwt>
<pdfrwt beam="2">  1       -2 0.19749141E-02 0.26541696E+03</pdfrwt>
<totfact> 0.16052318E+04</totfact>
</mgrwt>
</event>
<event>
 4    1  0.1308644E-003  0.2382034E+03  0.7818608E-02  0.1120995E+00
         -2   -1    0    0    0  501 -0.00000000000E+00  0.00000000000E+00  0.26498478117E+02  0.26498478240E+02  0.25500000000E-02 0. -1.
          2   -1    0    0  501    0  0.00000000000E+00 -0.00000000000E+00 -0.53532203219E+03  0.53532203220E+03  0.25500000000E-02 0.  1.
    5000001    1    1    2    0    0  0.64355331507E+02  0.32647699914E+02 -0.12418219874E+03  0.16296533216E+03  0.77000000000E+02 0.  0.
   -5000001    1    1    2    0    0 -0.64355331507E+02 -0.32647699914E+02 -0.38464135533E+03  0.39885517827E+03  0.77000000000E+02 0.  0.
<mgrwt>
<rscale>  0 0.23820344E+03</rscale>
<asrwt>0</asrwt>
<pdfrwt beam="1">  1        2 0.76474570E-01 0.23820344E+03</pdfrwt>
<pdfrwt beam="2">  1       -2 0.37854972E-02 0.23820344E+03</pdfrwt>
<totfact> 0.18420781E+04</totfact>
</mgrwt>
</event>
<event>
 4    1  0.1308644E-003  0.1066293E+04  0.7818608E-02  0.9238683E-01
          2   -1    0    0  501    0  0.00000000000E+00  0.00000000000E+00  0.16619928630E+04  0.16619928630E+04  0.25500000000E-02 0.  1.
         -2   -1    0    0    0  501 -0.00000000000E+00 -0.00000000000E+00 -0.17102659489E+03  0.17102659491E+03  0.25500000000E-02 0. -1.
    5000001    1    1    2    0    0 -0.22631156735E+03  0.18298981448E+03 -0.10929566601E+02  0.30124849069E+03  0.77000000000E+02 0.  0.
   -5000001    1    1    2    0    0  0.22631156735E+03 -0.18298981448E+03  0.15018958347E+04  0.15317709672E+04  0.77000000000E+02 0.  0.
<mgrwt>
<rscale>  0 0.10662926E+04</rscale>
<asrwt>0</asrwt>
<pdfrwt beam="1">  1        2 0.23742755E+00 0.10662926E+04</pdfrwt>
<pdfrwt beam="2">  1       -2 0.24432371E-01 0.10662926E+04</pdfrwt>
<totfact> 0.17838034E+02</totfact>
</mgrwt>
</event>
<event>
 4    1  0.1308644E-003  0.5071874E+03  0.7818608E-02  0.1011920E+00
          2   -1    0    0  501    0  0.00000000000E+00  0.00000000000E+00  0.24333034010E+03  0.24333034012E+03  0.25500000000E-02 0.  1.
         -2   -1    0    0    0  501 -0.00000000000E+00 -0.00000000000E+00 -0.26428995988E+03  0.26428995989E+03  0.25500000000E-02 0. -1.
    5000001    1    1    2    0    0  0.17329599391E+03 -0.15738503044E+03  0.49397807007E+02  0.25133780585E+03  0.77000000000E+02 0.  0.
   -5000001    1    1    2    0    0 -0.17329599391E+03  0.15738503044E+03 -0.70357426783E+02  0.25628249416E+03  0.77000000000E+02 0.  0.
<mgrwt>
<rscale>  0 0.50718740E+03</rscale>
<asrwt>0</asrwt>
<pdfrwt beam="1">  1        2 0.34761477E-01 0.50718740E+03</pdfrwt>
<pdfrwt beam="2">  1       -2 0.37755709E-01 0.50718740E+03</pdfrwt>
<totfact> 0.99920635E+02</totfact>
</mgrwt>
</event>
<event>
 4    1  0.1308644E-003  0.2619674E+03  0.7818608E-02  0.1105967E+00
          2   -1    0    0  501    0  0.00000000000E+00  0.00000000000E+00  0.12860479030E+03  0.12860479033E+03  0.25500000000E-02 0.  1.
         -2   -1    0    0    0  501 -0.00000000000E+00 -0.00000000000E+00 -0.13340665830E+03  0.13340665832E+03  0.25500000000E-02 0. -1.
    5000001    1    1    2    0    0  0.19707787203E+02 -0.95861205072E+02  0.38225685103E+02  0.13026116273E+03  0.77000000000E+02 0.  0.
   -5000001    1    1    2    0    0 -0.19707787203E+02  0.95861205072E+02 -0.43027553098E+02  0.13175028592E+03  0.77000000000E+02 0.  0.
<mgrwt>
<rscale>  0 0.26196744E+03</rscale>
<asrwt>0</asrwt>
<pdfrwt beam="1">  1        2 0.18372113E-01 0.26196744E+03</pdfrwt>
<pdfrwt beam="2">  1       -2 0.19058094E-01 0.26196744E+03</pdfrwt>
<totfact> 0.69226387E+03</totfact>
</mgrwt>
</event>
<event>
 4    1  0.1308644E-003  0.2247778E+03  0.7818608E-02  0.1130370E+00
         -2   -1    0    0    0  501 -0.00000000000E+00  0.00000000000E+00  0.49997829367E+01  0.49997835870E+01  0.25500000000E-02 0. -1.
          2   -1    0    0  501    0  0.00000000000E+00 -0.00000000000E+00 -0.25263635748E+04  0.25263635748E+04  0.25500000000E-02 0.  1.
    5000001    1    1    2    0    0 -0.73965201598E+02 -0.30059482641E+02 -0.14645909154E+04  0.14687852032E+04  0.77000000000E+02 0.  0.
   -5000001    1    1    2    0    0  0.73965201598E+02  0.30059482641E+02 -0.10567728765E+04  0.10625781552E+04  0.77000000000E+02 0.  0.
<mgrwt>
<rscale>  0 0.22477785E+03</rscale>
<asrwt>0</asrwt>
<pdfrwt beam="1">  1        2 0.36090827E+00 0.22477785E+03</pdfrwt>
<pdfrwt beam="2">  1       -2 0.71425637E-03 0.22477785E+03</pdfrwt>
<totfact> 0.16812769E+04</totfact>
</mgrwt>
</event>
<event>
 4    1  0.1308644E-003  0.2242908E+03  0.7818608E-02  0.1130724E+00
          2   -1    0    0  501    0  0.00000000000E+00  0.00000000000E+00  0.32267636971E+02  0.32267637072E+02  0.25500000000E-02 0.  1.
         -2   -1    0    0    0  501 -0.00000000000E+00 -0.00000000000E+00 -0.38975869321E+03  0.38975869322E+03  0.25500000000E-02 0. -1.
    5000001    1    1    2    0    0  0.19081207680E+02 -0.79005189995E+02 -0.16659795942E+03  0.20072317409E+03  0.77000000000E+02 0.  0.
   -5000001    1    1    2    0    0 -0.19081207680E+02  0.79005189995E+02 -0.19089309682E+03  0.22130315620E+03  0.77000000000E+02 0.  0.
<mgrwt>
<rscale>  0 0.22429081E+03</rscale>
<asrwt>0</asrwt>
<pdfrwt beam="1">  1        2 0.46096627E-02 0.22429081E+03</pdfrwt>
<pdfrwt beam="2">  1       -2 0.55679810E-01 0.22429081E+03</pdfrwt>
<totfact> 0.53172190E+03</totfact>
</mgrwt>
</event>
<event>
 4    1  0.1308644E-003  0.7359096E+03  0.7818608E-02  0.9657719E-01
          2   -1    0    0  501    0  0.00000000000E+00  0.00000000000E+00  0.44726938057E+04  0.44726938057E+04  0.25500000000E-02 0.  1.
         -2   -1    0    0    0  501 -0.00000000000E+00 -0.00000000000E+00 -0.30270511654E+02  0.30270511762E+02  0.25500000000E-02 0. -1.
    5000001    1    1    2    0    0 -0.32846322704E+03 -0.86690615804E+02  0.29467186674E+04  0.29672349518E+04  0.77000000000E+02 0.  0.
   -5000001    1    1    2    0    0  0.32846322704E+03  0.86690615804E+02  0.14957046267E+04  0.15357293657E+04  0.77000000000E+02 0.  0.
<mgrwt>
<rscale>  0 0.73590959E+03</rscale>
<asrwt>0</asrwt>
<pdfrwt beam="1">  1        2 0.63895649E+00 0.73590959E+03</pdfrwt>
<pdfrwt beam="2">  1       -2 0.43243572E-02 0.73590959E+03</pdfrwt>
<totfact> 0.73454090E+01</totfact>
</mgrwt>
</event>
<event>
 4    1  0.1308644E-003  0.2310884E+03  0.7818608E-02  0.1125876E+00
          2   -1    0    0  501    0  0.00000000000E+00  0.00000000000E+00  0.23760154278E+04  0.23760154278E+04  0.25500000000E-02 0. -1.
         -2   -1    0    0    0  501 -0.00000000000E+00 -0.00000000000E+00 -0.56188441228E+01  0.56188447015E+01  0.25500000000E-02 0.  1.
    5000001    1    1    2    0    0  0.76166803906E+02 -0.10091778695E+02  0.78362349941E+03  0.79113716563E+03  0.77000000000E+02 0.  0.
   -5000001    1    1    2    0    0 -0.76166803906E+02  0.10091778695E+02  0.15867730843E+04  0.15904971069E+04  0.77000000000E+02 0.  0.
<mgrwt>
<rscale>  0 0.23108839E+03</rscale>
<asrwt>0</asrwt>
<pdfrwt beam="1">  1        2 0.33943139E+00 0.23108839E+03</pdfrwt>
<pdfrwt beam="2">  1       -2 0.80269061E-03 0.23108839E+03</pdfrwt>
<totfact> 0.16871122E+04</totfact>
</mgrwt>
</event>
<event>
 4    1  0.1308644E-003  0.5210995E+03  0.7818608E-02  0.1008414E+00
         -2   -1    0    0    0  501 -0.00000000000E+00  0.00000000000E+00  0.58988495726E+02  0.58988495782E+02  0.25500000000E-02 0. -1.
          2   -1    0    0  501    0  0.00000000000E+00 -0.00000000000E+00 -0.11508376153E+04  0.11508376153E+04  0.25500000000E-02 0.  1.
    5000001    1    1    2    0    0  0.10402361278E+03  0.15780705499E+03 -0.92195925515E+03  0.94427847946E+03  0.77000000000E+02 0.  0.
   -5000001    1    1    2    0    0 -0.10402361278E+03 -0.15780705499E+03 -0.16988986439E+03  0.26554763159E+03  0.77000000000E+02 0.  0.
<mgrwt>
<rscale>  0 0.52109953E+03</rscale>
<asrwt>0</asrwt>
<pdfrwt beam="1">  1        2 0.16440536E+00 0.52109953E+03</pdfrwt>
<pdfrwt beam="2">  1       -2 0.84269286E-02 0.52109953E+03</pdfrwt>
<totfact> 0.20770702E+03</totfact>
</mgrwt>
</event>
<event>
 4    1  0.1308644E-003  0.2104388E+03  0.7818608E-02  0.1141219E+00
         -2   -1    0    0    0  501 -0.00000000000E+00  0.00000000000E+00  0.57264393773E+02  0.57264393830E+02  0.25500000000E-02 0. -1.
          2   -1    0    0  501    0  0.00000000000E+00 -0.00000000000E+00 -0.19333351641E+03  0.19333351642E+03  0.25500000000E-02 0.  1.
    5000001    1    1    2    0    0 -0.24635488321E+02  0.67334208115E+02 -0.69404670970E+02  0.12604289436E+03  0.77000000000E+02 0.  0.
   -5000001    1    1    2    0    0  0.24635488321E+02 -0.67334208115E+02 -0.66664451664E+02  0.12455501589E+03  0.77000000000E+02 0.  0.
<mgrwt>
<rscale>  0 0.21043884E+03</rscale>
<asrwt>0</asrwt>
<pdfrwt beam="1">  1        2 0.27619073E-01 0.21043884E+03</pdfrwt>
<pdfrwt beam="2">  1       -2 0.81806278E-02 0.21043884E+03</pdfrwt>
<totfact> 0.17008237E+04</totfact>
</mgrwt>
</event>
<event>
 4    1  0.1308644E-003  0.2931124E+03  0.7818608E-02  0.1088735E+00
         -2   -1    0    0    0  501 -0.00000000000E+00  0.00000000000E+00  0.93137494154E+01  0.93137497645E+01  0.25500000000E-02 0. -1.
          2   -1    0    0  501    0  0.00000000000E+00 -0.00000000000E+00 -0.23061296988E+04  0.23061296988E+04  0.25500000000E-02 0.  1.
    5000001    1    1    2    0    0 -0.98913196380E+02  0.71545224898E+02 -0.94744739367E+03  0.95837785002E+03  0.77000000000E+02 0.  0.
   -5000001    1    1    2    0    0  0.98913196380E+02 -0.71545224898E+02 -0.13493685557E+04  0.13570655985E+04  0.77000000000E+02 0.  0.
<mgrwt>
<rscale>  0 0.29311236E+03</rscale>
<asrwt>0</asrwt>
<pdfrwt beam="1">  1        2 0.32944673E+00 0.29311236E+03</pdfrwt>
<pdfrwt beam="2">  1       -2 0.13305371E-02 0.29311236E+03</pdfrwt>
<totfact> 0.88022126E+03</totfact>
</mgrwt>
</event>
<event>
 4    1  0.1308644E-003  0.2756148E+03  0.7818608E-02  0.1098108E+00
         -2   -1    0    0    0  501 -0.00000000000E+00  0.00000000000E+00  0.64642124966E+02  0.64642125017E+02  0.25500000000E-02 0. -1.
          2   -1    0    0  501    0  0.00000000000E+00 -0.00000000000E+00 -0.29378493106E+03  0.29378493107E+03  0.25500000000E-02 0.  1.
    5000001    1    1    2    0    0  0.72413608241E+02  0.67369478458E+02 -0.18904500593E+03  0.22682458322E+03  0.77000000000E+02 0.  0.
   -5000001    1    1    2    0    0 -0.72413608241E+02 -0.67369478458E+02 -0.40097800160E+02  0.13160247286E+03  0.77000000000E+02 0.  0.
<mgrwt>
<rscale>  0 0.27561482E+03</rscale>
<asrwt>0</asrwt>
<pdfrwt beam="1">  1        2 0.41969275E-01 0.27561482E+03</pdfrwt>
<pdfrwt beam="2">  1       -2 0.92345894E-02 0.27561482E+03</pdfrwt>
<totfact> 0.90629409E+03</totfact>
</mgrwt>
</event>
<event>
 4    1  0.1308644E-003  0.2315367E+03  0.7818608E-02  0.1125563E+00
         -2   -1    0    0    0  501 -0.00000000000E+00  0.00000000000E+00  0.15019357312E+02  0.15019357529E+02  0.25500000000E-02 0. -1.
          2   -1    0    0  501    0  0.00000000000E+00 -0.00000000000E+00 -0.89233553546E+03  0.89233553546E+03  0.25500000000E-02 0.  1.
    5000001    1    1    2    0    0  0.16157313814E+01  0.85347169178E+02 -0.38513236109E+03  0.40192373087E+03  0.77000000000E+02 0.  0.
   -5000001    1    1    2    0    0 -0.16157313814E+01 -0.85347169178E+02 -0.49218381705E+03  0.50543116212E+03  0.77000000000E+02 0.  0.
<mgrwt>
<rscale>  0 0.23153666E+03</rscale>
<asrwt>0</asrwt>
<pdfrwt beam="1">  1        2 0.12747647E+00 0.23153666E+03</pdfrwt>
<pdfrwt beam="2">  1       -2 0.21456231E-02 0.23153666E+03</pdfrwt>
<totfact> 0.23289105E+04</totfact>
</mgrwt>
</event>
<event>
 4    1  0.1308644E-003  0.3870152E+03  0.7818608E-02  0.1048371E+00
          2   -1    0    0  501    0  0.00000000000E+00  0.00000000000E+00  0.12163003638E+03  0.12163003641E+03  0.25500000000E-02 0.  1.
         -2   -1    0    0    0  501 -0.00000000000E+00 -0.00000000000E+00 -0.30786145215E+03  0.30786145216E+03  0.25500000000E-02 0. -1.
    5000001    1    1    2    0    0  0.95521291587E+02 -0.14306426827E+03 -0.44431828114E+02  0.19363597122E+03  0.77000000000E+02 0.  0.
   -5000001    1    1    2    0    0 -0.95521291587E+02  0.14306426827E+03 -0.14179958766E+03  0.23585551735E+03  0.77000000000E+02 0.  0.
<mgrwt>
<rscale>  0 0.38701524E+03</rscale>
<asrwt>0</asrwt>
<pdfrwt beam="1">  1        2 0.17375720E-01 0.38701524E+03</pdfrwt>
<pdfrwt beam="2">  1       -2 0.43980207E-01 0.38701524E+03</pdfrwt>
<totfact> 0.16336387E+03</totfact>
</mgrwt>
</event>
<event>
 4    1  0.1308644E-003  0.3484751E+03  0.7818608E-02  0.1063243E+00
          2   -1    0    0  501    0  0.00000000000E+00  0.00000000000E+00  0.19879359925E+04  0.19879359925E+04  0.25500000000E-02 0.  1.
         -2   -1    0    0    0  501 -0.00000000000E+00 -0.00000000000E+00 -0.15271483503E+02  0.15271483716E+02  0.25500000000E-02 0. -1.
    5000001    1    1    2    0    0  0.13398210537E+03  0.11478127204E+02  0.14442957316E+04  0.14525846317E+04  0.77000000000E+02 0.  0.
   -5000001    1    1    2    0    0 -0.13398210537E+03 -0.11478127204E+02  0.52836877734E+03  0.55062284445E+03  0.77000000000E+02 0.  0.
<mgrwt>
<rscale>  0 0.34847515E+03</rscale>
<asrwt>0</asrwt>
<pdfrwt beam="1">  1        2 0.28399051E+00 0.34847515E+03</pdfrwt>
<pdfrwt beam="2">  1       -2 0.21816432E-02 0.34847515E+03</pdfrwt>
<totfact> 0.60961179E+03</totfact>
</mgrwt>
</event>
<event>
 4    1  0.1308644E-003  0.2844032E+03  0.7818608E-02  0.1093308E+00
         -2   -1    0    0    0  501 -0.00000000000E+00  0.00000000000E+00  0.93680691796E+01  0.93680695267E+01  0.25500000000E-02 0. -1.
          2   -1    0    0  501    0  0.00000000000E+00 -0.00000000000E+00 -0.21585331245E+04  0.21585331245E+04  0.25500000000E-02 0.  1.
    5000001    1    1    2    0    0  0.71965789115E+02 -0.55027200044E+02 -0.47995742407E+03  0.49446455532E+03  0.77000000000E+02 0.  0.
   -5000001    1    1    2    0    0 -0.71965789115E+02  0.55027200044E+02 -0.16692076312E+04  0.16734366387E+04  0.77000000000E+02 0.  0.
<mgrwt>
<rscale>  0 0.28440315E+03</rscale>
<asrwt>0</asrwt>
<pdfrwt beam="1">  1        2 0.30836156E+00 0.28440315E+03</pdfrwt>
<pdfrwt beam="2">  1       -2 0.13382970E-02 0.28440315E+03</pdfrwt>
<totfact> 0.10309961E+04</totfact>
</mgrwt>
</event>
<event>
 4    1  0.1308644E-003  0.2751178E+03  0.7818608E-02  0.1098386E+00
         -2   -1    0    0    0  501 -0.00000000000E+00  0.00000000000E+00  0.30602978240E+03  0.30602978241E+03  0.25500000000E-02 0. -1.
          2   -1    0    0  501    0  0.00000000000E+00 -0.00000000000E+00 -0.61832067870E+02  0.61832067922E+02  0.25500000000E-02 0.  1.
    5000001    1    1    2    0    0  0.57478840933E+02 -0.91045053294E+02  0.72061131398E+02  0.15071438399E+03  0.77000000000E+02 0.  0.
   -5000001    1    1    2    0    0 -0.57478840933E+02  0.91045053294E+02  0.17213658313E+03  0.21714746634E+03  0.77000000000E+02 0.  0.
<mgrwt>
<rscale>  0 0.27511782E+03</rscale>
<asrwt>0</asrwt>
<pdfrwt beam="1">  1        2 0.88331522E-02 0.27511782E+03</pdfrwt>
<pdfrwt beam="2">  1       -2 0.43718542E-01 0.27511782E+03</pdfrwt>
<totfact> 0.37397658E+03</totfact>
</mgrwt>
</event>
<event>
 4    1  0.1308644E-003  0.1927268E+03  0.7818608E-02  0.1156025E+00
         -2   -1    0    0    0  501 -0.00000000000E+00  0.00000000000E+00  0.92886918427E+03  0.92886918427E+03  0.25500000000E-02 0. -1.
          2   -1    0    0  501    0  0.00000000000E+00 -0.00000000000E+00 -0.99969946029E+01  0.99969949281E+01  0.25500000000E-02 0.  1.
    5000001    1    1    2    0    0  0.36101715866E+02  0.11143525334E+02  0.24545691782E+03  0.26001078930E+03  0.77000000000E+02 0.  0.
   -5000001    1    1    2    0    0 -0.36101715866E+02 -0.11143525334E+02  0.67341527184E+03  0.67885538990E+03  0.77000000000E+02 0.  0.
<mgrwt>
<rscale>  0 0.19272675E+03</rscale>
<asrwt>0</asrwt>
<pdfrwt beam="1">  1        2 0.14281423E-02 0.19272675E+03</pdfrwt>
<pdfrwt beam="2">  1       -2 0.13269558E+00 0.19272675E+03</pdfrwt>
<totfact> 0.37045918E+03</totfact>
</mgrwt>
</event>
<event>
 4    1  0.1308644E-003  0.1880372E+03  0.7818608E-02  0.1160244E+00
         -2   -1    0    0    0  501 -0.00000000000E+00  0.00000000000E+00  0.13381553067E+02  0.13381553310E+02  0.25500000000E-02 0. -1.
          2   -1    0    0  501    0  0.00000000000E+00 -0.00000000000E+00 -0.66057316415E+03  0.66057316416E+03  0.25500000000E-02 0.  1.
    5000001    1    1    2    0    0 -0.51661175482E+02 -0.12274959229E+02 -0.35777582068E+03  0.36980006698E+03  0.77000000000E+02 0.  0.
   -5000001    1    1    2    0    0  0.51661175482E+02  0.12274959229E+02 -0.28941579040E+03  0.30415465048E+03  0.77000000000E+02 0.  0.
<mgrwt>
<rscale>  0 0.18803718E+03</rscale>
<asrwt>0</asrwt>
<pdfrwt beam="1">  1        2 0.94367574E-01 0.18803718E+03</pdfrwt>
<pdfrwt beam="2">  1       -2 0.19116509E-02 0.18803718E+03</pdfrwt>
<totfact> 0.39145325E+04</totfact>
</mgrwt>
</event>
<event>
 4    1  0.1308644E-003  0.2065487E+03  0.7818608E-02  0.1144329E+00
          2   -1    0    0  501    0  0.00000000000E+00  0.00000000000E+00  0.47793626099E+03  0.47793626100E+03  0.25500000000E-02 0.  1.
         -2   -1    0    0    0  501 -0.00000000000E+00 -0.00000000000E+00 -0.22315932233E+02  0.22315932378E+02  0.25500000000E-02 0. -1.
    5000001    1    1    2    0    0  0.11226808197E+02  0.67900068546E+02  0.22692782974E+03  0.24932248283E+03  0.77000000000E+02 0.  0.
   -5000001    1    1    2    0    0 -0.11226808197E+02 -0.67900068546E+02  0.22869249902E+03  0.25092971055E+03  0.77000000000E+02 0.  0.
<mgrwt>
<rscale>  0 0.20654872E+03</rscale>
<asrwt>0</asrwt>
<pdfrwt beam="1">  1        2 0.68276603E-01 0.20654872E+03</pdfrwt>
<pdfrwt beam="2">  1       -2 0.31879906E-02 0.20654872E+03</pdfrwt>
<totfact> 0.26708355E+04</totfact>
</mgrwt>
</event>
<event>
 4    1  0.1308644E-003  0.3308326E+03  0.7818608E-02  0.1070769E+00
         -2   -1    0    0    0  501 -0.00000000000E+00  0.00000000000E+00  0.18622308415E+03  0.18622308417E+03  0.25500000000E-02 0. -1.
          2   -1    0    0  501    0  0.00000000000E+00 -0.00000000000E+00 -0.14693430232E+03  0.14693430234E+03  0.25500000000E-02 0.  1.
    5000001    1    1    2    0    0  0.37110274254E+01 -0.12340514704E+03 -0.59591142587E+02  0.15723455828E+03  0.77000000000E+02 0.  0.
   -5000001    1    1    2    0    0 -0.37110274254E+01  0.12340514704E+03  0.98879924417E+02  0.17592282824E+03  0.77000000000E+02 0.  0.
<mgrwt>
<rscale>  0 0.33083264E+03</rscale>
<asrwt>0</asrwt>
<pdfrwt beam="1">  1        2 0.20990615E-01 0.33083264E+03</pdfrwt>
<pdfrwt beam="2">  1       -2 0.26603298E-01 0.33083264E+03</pdfrwt>
<totfact> 0.33481304E+03</totfact>
</mgrwt>
</event>
<event>
 4    1  0.1308644E-003  0.2602880E+03  0.7818608E-02  0.1106970E+00
          2   -1    0    0  501    0  0.00000000000E+00  0.00000000000E+00  0.51280138907E+02  0.51280138970E+02  0.25500000000E-02 0.  1.
         -2   -1    0    0    0  501 -0.00000000000E+00 -0.00000000000E+00 -0.33029269403E+03  0.33029269404E+03  0.25500000000E-02 0. -1.
    5000001    1    1    2    0    0  0.87114005067E+02 -0.39115669804E+02 -0.75782012806E+02  0.14419014865E+03  0.77000000000E+02 0.  0.
   -5000001    1    1    2    0    0 -0.87114005067E+02  0.39115669804E+02 -0.20323054232E+03  0.23738268436E+03  0.77000000000E+02 0.  0.
<mgrwt>
<rscale>  0 0.26028796E+03</rscale>
<asrwt>0</asrwt>
<pdfrwt beam="1">  1        2 0.73257343E-02 0.26028796E+03</pdfrwt>
<pdfrwt beam="2">  1       -2 0.47184670E-01 0.26028796E+03</pdfrwt>
<totfact> 0.40768247E+03</totfact>
</mgrwt>
</event>
<event>
 4    1  0.1308644E-003  0.2218160E+03  0.7818608E-02  0.1132536E+00
         -2   -1    0    0    0  501 -0.00000000000E+00  0.00000000000E+00  0.11104336522E+02  0.11104336815E+02  0.25500000000E-02 0. -1.
          2   -1    0    0  501    0  0.00000000000E+00 -0.00000000000E+00 -0.11077279396E+04  0.11077279396E+04  0.25500000000E-02 0.  1.
    5000001    1    1    2    0    0  0.11112521987E+02  0.68067824336E+02 -0.75100562856E+03  0.75808651946E+03  0.77000000000E+02 0.  0.
   -5000001    1    1    2    0    0 -0.11112521987E+02 -0.68067824336E+02 -0.34561797450E+03  0.36074575694E+03  0.77000000000E+02 0.  0.
<mgrwt>
<rscale>  0 0.22181600E+03</rscale>
<asrwt>0</asrwt>
<pdfrwt beam="1">  1        2 0.15824678E+00 0.22181600E+03</pdfrwt>
<pdfrwt beam="2">  1       -2 0.15863345E-02 0.22181600E+03</pdfrwt>
<totfact> 0.26992159E+04</totfact>
</mgrwt>
</event>
<event>
 4    1  0.1308644E-003  0.2241936E+03  0.7818608E-02  0.1130795E+00
          2   -1    0    0  501    0  0.00000000000E+00  0.00000000000E+00  0.43875370064E+03  0.43875370065E+03  0.25500000000E-02 0.  1.
         -2   -1    0    0    0  501 -0.00000000000E+00 -0.00000000000E+00 -0.28639507444E+02  0.28639507558E+02  0.25500000000E-02 0. -1.
    5000001    1    1    2    0    0  0.10897892162E+02  0.80646122295E+02  0.21289341383E+03  0.24057258104E+03  0.77000000000E+02 0.  0.
   -5000001    1    1    2    0    0 -0.10897892162E+02 -0.80646122295E+02  0.19722077936E+03  0.22682062716E+03  0.77000000000E+02 0.  0.
<mgrwt>
<rscale>  0 0.22419358E+03</rscale>
<asrwt>0</asrwt>
<pdfrwt beam="1">  1        2 0.62679098E-01 0.22419358E+03</pdfrwt>
<pdfrwt beam="2">  1       -2 0.40913584E-02 0.22419358E+03</pdfrwt>
<totfact> 0.20319324E+04</totfact>
</mgrwt>
</event>
<event>
 4    1  0.1308644E-003  0.3913930E+03  0.7818608E-02  0.1046801E+00
          2   -1    0    0  501    0  0.00000000000E+00  0.00000000000E+00  0.25225917515E+03  0.25225917516E+03  0.25500000000E-02 0.  1.
         -2   -1    0    0    0  501 -0.00000000000E+00 -0.00000000000E+00 -0.15181658662E+03  0.15181658664E+03  0.25500000000E-02 0. -1.
    5000001    1    1    2    0    0 -0.16689986979E+03 -0.64948838928E+02  0.32512969836E+02  0.19763605800E+03  0.77000000000E+02 0.  0.
   -5000001    1    1    2    0    0  0.16689986979E+03  0.64948838928E+02  0.67929618689E+02  0.20643970381E+03  0.77000000000E+02 0.  0.
<mgrwt>
<rscale>  0 0.39139303E+03</rscale>
<asrwt>0</asrwt>
<pdfrwt beam="1">  1        2 0.36037025E-01 0.39139303E+03</pdfrwt>
<pdfrwt beam="2">  1       -2 0.21688084E-01 0.39139303E+03</pdfrwt>
<totfact> 0.26339083E+03</totfact>
</mgrwt>
</event>
<event>
 4    1  0.1308644E-003  0.4017590E+03  0.7818608E-02  0.1043172E+00
         -2   -1    0    0    0  501 -0.00000000000E+00  0.00000000000E+00  0.17274154200E+02  0.17274154389E+02  0.25500000000E-02 0. -1.
          2   -1    0    0  501    0  0.00000000000E+00 -0.00000000000E+00 -0.23360091578E+04  0.23360091578E+04  0.25500000000E-02 0.  1.
    5000001    1    1    2    0    0  0.10402427068E+03 -0.10340048011E+03 -0.49380877747E+03  0.52085393047E+03  0.77000000000E+02 0.  0.
   -5000001    1    1    2    0    0 -0.10402427068E+03  0.10340048011E+03 -0.18249262262E+04  0.18324293818E+04  0.77000000000E+02 0.  0.
<mgrwt>
<rscale>  0 0.40175905E+03</rscale>
<asrwt>0</asrwt>
<pdfrwt beam="1">  1        2 0.33371539E+00 0.40175905E+03</pdfrwt>
<pdfrwt beam="2">  1       -2 0.24677378E-02 0.40175905E+03</pdfrwt>
<totfact> 0.34083412E+03</totfact>
</mgrwt>
</event>
<event>
 4    1  0.1308644E-003  0.9209631E+03  0.7818608E-02  0.9399749E-01
          2   -1    0    0  501    0  0.00000000000E+00  0.00000000000E+00  0.96786202566E+03  0.96786202566E+03  0.25500000000E-02 0.  1.
         -2   -1    0    0    0  501 -0.00000000000E+00 -0.00000000000E+00 -0.21908416947E+03  0.21908416948E+03  0.25500000000E-02 0. -1.
    5000001    1    1    2    0    0 -0.35433193044E+03  0.17016999242E+03  0.66716527439E+03  0.77816929173E+03  0.77000000000E+02 0.  0.
   -5000001    1    1    2    0    0  0.35433193044E+03 -0.17016999242E+03  0.81612581804E+02  0.40877690341E+03  0.77000000000E+02 0.  0.
<mgrwt>
<rscale>  0 0.92096308E+03</rscale>
<asrwt>0</asrwt>
<pdfrwt beam="1">  1        2 0.13826601E+00 0.92096308E+03</pdfrwt>
<pdfrwt beam="2">  1       -2 0.31297738E-01 0.92096308E+03</pdfrwt>
<totfact> 0.27831071E+02</totfact>
</mgrwt>
</event>
<event>
 4    1  0.1308644E-003  0.1458400E+04  0.7818608E-02  0.8912597E-01
         -2   -1    0    0    0  501 -0.00000000000E+00  0.00000000000E+00  0.44567779276E+03  0.44567779277E+03  0.25500000000E-02 0. -1.
          2   -1    0    0  501    0  0.00000000000E+00 -0.00000000000E+00 -0.11930879538E+04  0.11930879538E+04  0.25500000000E-02 0.  1.
    5000001    1    1    2    0    0 -0.48691075599E+03  0.47495019204E+03 -0.91343031246E+02  0.69060286604E+03  0.77000000000E+02 0.  0.
   -5000001    1    1    2    0    0  0.48691075599E+03 -0.47495019204E+03 -0.65606712980E+03  0.94816288053E+03  0.77000000000E+02 0.  0.
<mgrwt>
<rscale>  0 0.14584002E+04</rscale>
<asrwt>0</asrwt>
<pdfrwt beam="1">  1        2 0.17044114E+00 0.14584002E+04</pdfrwt>
<pdfrwt beam="2">  1       -2 0.63668257E-01 0.14584002E+04</pdfrwt>
<totfact> 0.47779658E+01</totfact>
</mgrwt>
</event>
<event>
 4    1  0.1308644E-003  0.5684616E+03  0.7818608E-02  0.9973089E-01
          2   -1    0    0  501    0  0.00000000000E+00  0.00000000000E+00  0.34465450867E+03  0.34465450868E+03  0.25500000000E-02 0.  1.
         -2   -1    0    0    0  501 -0.00000000000E+00 -0.00000000000E+00 -0.23440041054E+03  0.23440041055E+03  0.25500000000E-02 0. -1.
    5000001    1    1    2    0    0 -0.30146533714E+02  0.26922105401E+03  0.94173720439E+02  0.29696208351E+03  0.77000000000E+02 0.  0.
   -5000001    1    1    2    0    0  0.30146533714E+02 -0.26922105401E+03  0.16080377691E+02  0.28209283572E+03  0.77000000000E+02 0.  0.
<mgrwt>
<rscale>  0 0.56846164E+03</rscale>
<asrwt>0</asrwt>
<pdfrwt beam="1">  1        2 0.49236358E-01 0.56846164E+03</pdfrwt>
<pdfrwt beam="2">  1       -2 0.33485773E-01 0.56846164E+03</pdfrwt>
<totfact> 0.85445236E+02</totfact>
</mgrwt>
</event>
<event>
 4    1  0.1308644E-003  0.4702653E+03  0.7818608E-02  0.1021845E+00
          2   -1    0    0  501    0  0.00000000000E+00  0.00000000000E+00  0.43526157797E+03  0.43526157798E+03  0.25500000000E-02 0.  1.
         -2   -1    0    0    0  501 -0.00000000000E+00 -0.00000000000E+00 -0.12702102905E+03  0.12702102908E+03  0.25500000000E-02 0. -1.
    5000001    1    1    2    0    0 -0.27541863657E+02 -0.19532054694E+03  0.31894259262E+02  0.21413760549E+03  0.77000000000E+02 0.  0.
   -5000001    1    1    2    0    0  0.27541863657E+02  0.19532054694E+03  0.27634628965E+03  0.34814500157E+03  0.77000000000E+02 0.  0.
<mgrwt>
<rscale>  0 0.47026534E+03</rscale>
<asrwt>0</asrwt>
<pdfrwt beam="1">  1        2 0.62180226E-01 0.47026534E+03</pdfrwt>
<pdfrwt beam="2">  1       -2 0.18145861E-01 0.47026534E+03</pdfrwt>
<totfact> 0.19754172E+03</totfact>
</mgrwt>
</event>
<event>
 4    1  0.1308644E-003  0.2015951E+03  0.7818608E-02  0.1148400E+00
         -2   -1    0    0    0  501 -0.00000000000E+00  0.00000000000E+00  0.61995878539E+01  0.61995883783E+01  0.25500000000E-02 0. -1.
          2   -1    0    0  501    0  0.00000000000E+00 -0.00000000000E+00 -0.16388423871E+04  0.16388423871E+04  0.25500000000E-02 0.  1.
    5000001    1    1    2    0    0 -0.61718239890E+02 -0.10843857547E+02 -0.95869573782E+03  0.96382220772E+03  0.77000000000E+02 0.  0.
   -5000001    1    1    2    0    0  0.61718239890E+02  0.10843857547E+02 -0.67394706144E+03  0.68121976777E+03  0.77000000000E+02 0.  0.
<mgrwt>
<rscale>  0 0.20159512E+03</rscale>
<asrwt>0</asrwt>
<pdfrwt beam="1">  1        2 0.23412006E+00 0.20159512E+03</pdfrwt>
<pdfrwt beam="2">  1       -2 0.88565649E-03 0.20159512E+03</pdfrwt>
<totfact> 0.33198161E+04</totfact>
</mgrwt>
</event>
<event>
 4    1  0.1308644E-003  0.2514172E+03  0.7818608E-02  0.1112412E+00
          2   -1    0    0  501    0  0.00000000000E+00  0.00000000000E+00  0.64129932039E+02  0.64129932090E+02  0.25500000000E-02 0.  1.
         -2   -1    0    0    0  501 -0.00000000000E+00 -0.00000000000E+00 -0.24641615791E+03  0.24641615792E+03  0.25500000000E-02 0. -1.
    5000001    1    1    2    0    0  0.12002573276E+02 -0.96157021212E+02 -0.11830075361E+03  0.17121420151E+03  0.77000000000E+02 0.  0.
   -5000001    1    1    2    0    0 -0.12002573276E+02  0.96157021212E+02 -0.63985472258E+02  0.13933188850E+03  0.77000000000E+02 0.  0.
<mgrwt>
<rscale>  0 0.25141719E+03</rscale>
<asrwt>0</asrwt>
<pdfrwt beam="1">  1        2 0.91614190E-02 0.25141719E+03</pdfrwt>
<pdfrwt beam="2">  1       -2 0.35202308E-01 0.25141719E+03</pdfrwt>
<totfact> 0.53754581E+03</totfact>
</mgrwt>
</event>
<event>
 4    1  0.1308644E-003  0.2371245E+03  0.7818608E-02  0.1121723E+00
          2   -1    0    0  501    0  0.00000000000E+00  0.00000000000E+00  0.10677401744E+03  0.10677401747E+03  0.25500000000E-02 0.  1.
         -2   -1    0    0    0  501 -0.00000000000E+00 -0.00000000000E+00 -0.13165196470E+03  0.13165196472E+03  0.25500000000E-02 0. -1.
    5000001    1    1    2    0    0  0.76950128314E+02  0.39530081103E+02 -0.37956593107E+02  0.12187556162E+03  0.77000000000E+02 0.  0.
   -5000001    1    1    2    0    0 -0.76950128314E+02 -0.39530081103E+02  0.13078645853E+02  0.11655042058E+03  0.77000000000E+02 0.  0.
<mgrwt>
<rscale>  0 0.23712452E+03</rscale>
<asrwt>0</asrwt>
<pdfrwt beam="1">  1        2 0.15253431E-01 0.23712452E+03</pdfrwt>
<pdfrwt beam="2">  1       -2 0.18807423E-01 0.23712452E+03</pdfrwt>
<totfact> 0.87568924E+03</totfact>
</mgrwt>
</event>
<event>
 4    1  0.1308644E-003  0.3566600E+03  0.7818608E-02  0.1059914E+00
          2   -1    0    0  501    0  0.00000000000E+00  0.00000000000E+00  0.93359680136E+02  0.93359680171E+02  0.25500000000E-02 0.  1.
         -2   -1    0    0    0  501 -0.00000000000E+00 -0.00000000000E+00 -0.34063519087E+03  0.34063519088E+03  0.25500000000E-02 0. -1.
    5000001    1    1    2    0    0  0.14795157029E+03  0.29827415242E+02 -0.55961281615E+02  0.17843768349E+03  0.77000000000E+02 0.  0.
   -5000001    1    1    2    0    0 -0.14795157029E+03 -0.29827415242E+02 -0.19131422912E+03  0.25555718756E+03  0.77000000000E+02 0.  0.
<mgrwt>
<rscale>  0 0.35666002E+03</rscale>
<asrwt>0</asrwt>
<pdfrwt beam="1">  1        2 0.13337097E-01 0.35666002E+03</pdfrwt>
<pdfrwt beam="2">  1       -2 0.48662170E-01 0.35666002E+03</pdfrwt>
<totfact> 0.18321121E+03</totfact>
</mgrwt>
</event>
<event>
 4    1  0.1308644E-003  0.2055841E+03  0.7818608E-02  0.1145111E+00
         -2   -1    0    0    0  501 -0.00000000000E+00  0.00000000000E+00  0.69230420309E+01  0.69230425005E+01  0.25500000000E-02 0. -1.
          2   -1    0    0  501    0  0.00000000000E+00 -0.00000000000E+00 -0.15262375647E+04  0.15262375647E+04  0.25500000000E-02 0.  1.
    5000001    1    1    2    0    0 -0.49367845518E+02 -0.30470404617E+02 -0.49372593289E+03  0.50305062025E+03  0.77000000000E+02 0.  0.
   -5000001    1    1    2    0    0  0.49367845518E+02  0.30470404617E+02 -0.10255885898E+04  0.10301099870E+04  0.77000000000E+02 0.  0.
<mgrwt>
<rscale>  0 0.20558412E+03</rscale>
<asrwt>0</asrwt>
<pdfrwt beam="1">  1        2 0.21803372E+00 0.20558412E+03</pdfrwt>
<pdfrwt beam="2">  1       -2 0.98900701E-03 0.20558412E+03</pdfrwt>
<totfact> 0.32221028E+04</totfact>
</mgrwt>
</event>
<event>
 4    1  0.1308644E-003  0.2566510E+03  0.7818608E-02  0.1109172E+00
         -2   -1    0    0    0  501 -0.00000000000E+00  0.00000000000E+00  0.15257264076E+02  0.15257264289E+02  0.25500000000E-02 0. -1.
          2   -1    0    0  501    0  0.00000000000E+00 -0.00000000000E+00 -0.10793178242E+04  0.10793178242E+04  0.25500000000E-02 0.  1.
    5000001    1    1    2    0    0 -0.95115731670E+02  0.17463023532E+01 -0.36749454795E+03  0.38733873387E+03  0.77000000000E+02 0.  0.
   -5000001    1    1    2    0    0  0.95115731670E+02 -0.17463023532E+01 -0.69656601216E+03  0.70723635461E+03  0.77000000000E+02 0.  0.
<mgrwt>
<rscale>  0 0.25665103E+03</rscale>
<asrwt>0</asrwt>
<pdfrwt beam="1">  1        2 0.15418821E+00 0.25665103E+03</pdfrwt>
<pdfrwt beam="2">  1       -2 0.21796099E-02 0.25665103E+03</pdfrwt>
<totfact> 0.17716647E+04</totfact>
</mgrwt>
</event>
<event>
 4    1  0.1308644E-003  0.1901423E+03  0.7818608E-02  0.1158333E+00
         -2   -1    0    0    0  501 -0.00000000000E+00  0.00000000000E+00  0.97270823003E+01  0.97270826346E+01  0.25500000000E-02 0. -1.
          2   -1    0    0  501    0  0.00000000000E+00 -0.00000000000E+00 -0.92921255572E+03  0.92921255573E+03  0.25500000000E-02 0.  1.
    5000001    1    1    2    0    0  0.49392506094E+02  0.25685173021E+02 -0.47549778527E+03  0.48489843428E+03  0.77000000000E+02 0.  0.
   -5000001    1    1    2    0    0 -0.49392506094E+02 -0.25685173021E+02 -0.44398768815E+03  0.45404120408E+03  0.77000000000E+02 0.  0.
<mgrwt>
<rscale>  0 0.19014234E+03</rscale>
<asrwt>0</asrwt>
<pdfrwt beam="1">  1        2 0.13274459E+00 0.19014234E+03</pdfrwt>
<pdfrwt beam="2">  1       -2 0.13895838E-02 0.19014234E+03</pdfrwt>
<totfact> 0.41090537E+04</totfact>
</mgrwt>
</event>
<event>
 4    1  0.1308644E-003  0.4189100E+03  0.7818608E-02  0.1037422E+00
         -2   -1    0    0    0  501 -0.00000000000E+00  0.00000000000E+00  0.24604699405E+02  0.24604699537E+02  0.25500000000E-02 0. -1.
          2   -1    0    0  501    0  0.00000000000E+00 -0.00000000000E+00 -0.17830496281E+04  0.17830496281E+04  0.25500000000E-02 0.  1.
    5000001    1    1    2    0    0 -0.45308559107E+02  0.18706949333E+03 -0.10082832706E+04  0.10293745745E+04  0.77000000000E+02 0.  0.
   -5000001    1    1    2    0    0  0.45308559107E+02 -0.18706949333E+03 -0.75016165814E+03  0.77827975318E+03  0.77000000000E+02 0.  0.
<mgrwt>
<rscale>  0 0.41891002E+03</rscale>
<asrwt>0</asrwt>
<pdfrwt beam="1">  1        2 0.25472129E+00 0.41891002E+03</pdfrwt>
<pdfrwt beam="2">  1       -2 0.35149582E-02 0.41891002E+03</pdfrwt>
<totfact> 0.37650502E+03</totfact>
</mgrwt>
</event>
<event>
 4    1  0.1308644E-003  0.3468005E+03  0.7818608E-02  0.1063936E+00
          2   -1    0    0  501    0  0.00000000000E+00  0.00000000000E+00  0.11413830749E+04  0.11413830749E+04  0.25500000000E-02 0.  1.
         -2   -1    0    0    0  501 -0.00000000000E+00 -0.00000000000E+00 -0.26343165333E+02  0.26343165456E+02  0.25500000000E-02 0. -1.
    5000001    1    1    2    0    0 -0.90119950320E+02  0.54531056039E+02  0.17296644139E+03  0.21666017484E+03  0.77000000000E+02 0.  0.
   -5000001    1    1    2    0    0  0.90119950320E+02 -0.54531056039E+02  0.94207346816E+03  0.95106606549E+03  0.77000000000E+02 0.  0.
<mgrwt>
<rscale>  0 0.34680048E+03</rscale>
<asrwt>0</asrwt>
<pdfrwt beam="1">  1        2 0.16305474E+00 0.34680048E+03</pdfrwt>
<pdfrwt beam="2">  1       -2 0.37633090E-02 0.34680048E+03</pdfrwt>
<totfact> 0.73111467E+03</totfact>
</mgrwt>
</event>
<event>
 4    1  0.1308644E-003  0.3223898E+03  0.7818608E-02  0.1074555E+00
          2   -1    0    0  501    0  0.00000000000E+00  0.00000000000E+00  0.27512252050E+04  0.27512252050E+04  0.25500000000E-02 0.  1.
         -2   -1    0    0    0  501 -0.00000000000E+00 -0.00000000000E+00 -0.94444450825E+01  0.94444454268E+01  0.25500000000E-02 0. -1.
    5000001    1    1    2    0    0  0.13263810059E+03 -0.18707702910E+02  0.17644179510E+04  0.17711698252E+04  0.77000000000E+02 0.  0.
   -5000001    1    1    2    0    0 -0.13263810059E+03  0.18707702910E+02  0.97736280891E+03  0.98949982523E+03  0.77000000000E+02 0.  0.
<mgrwt>
<rscale>  0 0.32238980E+03</rscale>
<asrwt>0</asrwt>
<pdfrwt beam="1">  1        2 0.39303227E+00 0.32238980E+03</pdfrwt>
<pdfrwt beam="2">  1       -2 0.13492061E-02 0.32238980E+03</pdfrwt>
<totfact> 0.51487099E+03</totfact>
</mgrwt>
</event>
<event>
 4    1  0.1308644E-003  0.2613676E+03  0.7818608E-02  0.1106324E+00
         -2   -1    0    0    0  501 -0.00000000000E+00  0.00000000000E+00  0.82753340241E+01  0.82753344170E+01  0.25500000000E-02 0. -1.
          2   -1    0    0  501    0  0.00000000000E+00 -0.00000000000E+00 -0.20637545935E+04  0.20637545935E+04  0.25500000000E-02 0.  1.
    5000001    1    1    2    0    0  0.71982555182E+02 -0.63296202242E+02 -0.13788333473E+04  0.13843042647E+04  0.77000000000E+02 0.  0.
   -5000001    1    1    2    0    0 -0.71982555182E+02  0.63296202242E+02 -0.67664591211E+03  0.68772566321E+03  0.77000000000E+02 0.  0.
<mgrwt>
<rscale>  0 0.26136763E+03</rscale>
<asrwt>0</asrwt>
<pdfrwt beam="1">  1        2 0.29482176E+00 0.26136763E+03</pdfrwt>
<pdfrwt beam="2">  1       -2 0.11821919E-02 0.26136763E+03</pdfrwt>
<totfact> 0.13721345E+04</totfact>
</mgrwt>
</event>
<event>
 4    1  0.1308644E-003  0.2349269E+03  0.7818608E-02  0.1123219E+00
          2   -1    0    0  501    0  0.00000000000E+00  0.00000000000E+00  0.15320889569E+04  0.15320889569E+04  0.25500000000E-02 0.  1.
         -2   -1    0    0    0  501 -0.00000000000E+00 -0.00000000000E+00 -0.90057844561E+01  0.90057848171E+01  0.25500000000E-02 0. -1.
    5000001    1    1    2    0    0 -0.31955012340E+02 -0.34595480694E+02  0.26842747203E+03  0.28319653571E+03  0.77000000000E+02 0.  0.
   -5000001    1    1    2    0    0  0.31955012340E+02  0.34595480694E+02  0.12546557004E+04  0.12578982060E+04  0.77000000000E+02 0.  0.
<mgrwt>
<rscale>  0 0.23492691E+03</rscale>
<asrwt>0</asrwt>
<pdfrwt beam="1">  1        2 0.21886985E+00 0.23492691E+03</pdfrwt>
<pdfrwt beam="2">  1       -2 0.12865407E-02 0.23492691E+03</pdfrwt>
<totfact> 0.22021607E+04</totfact>
</mgrwt>
</event>
<event>
 4    1  0.1308644E-003  0.5122014E+03  0.7818608E-02  0.1010642E+00
         -2   -1    0    0    0  501 -0.00000000000E+00  0.00000000000E+00  0.86069734911E+02  0.86069734949E+02  0.25500000000E-02 0. -1.
          2   -1    0    0  501    0  0.00000000000E+00 -0.00000000000E+00 -0.76202833546E+03  0.76202833547E+03  0.25500000000E-02 0.  1.
    5000001    1    1    2    0    0 -0.18046085462E+02 -0.24353313177E+03 -0.32977864538E+03  0.41751287695E+03  0.77000000000E+02 0.  0.
   -5000001    1    1    2    0    0  0.18046085462E+02  0.24353313177E+03 -0.34617995517E+03  0.43058519347E+03  0.77000000000E+02 0.  0.
<mgrwt>
<rscale>  0 0.51220143E+03</rscale>
<asrwt>0</asrwt>
<pdfrwt beam="1">  1        2 0.10886119E+00 0.51220143E+03</pdfrwt>
<pdfrwt beam="2">  1       -2 0.12295677E-01 0.51220143E+03</pdfrwt>
<totfact> 0.19752903E+03</totfact>
</mgrwt>
</event>
<event>
 4    1  0.1308644E-003  0.2094869E+03  0.7818608E-02  0.1141973E+00
         -2   -1    0    0    0  501 -0.00000000000E+00  0.00000000000E+00  0.10098331725E+02  0.10098332047E+02  0.25500000000E-02 0. -1.
          2   -1    0    0  501    0  0.00000000000E+00 -0.00000000000E+00 -0.10864360009E+04  0.10864360009E+04  0.25500000000E-02 0.  1.
    5000001    1    1    2    0    0  0.59569178671E+02  0.15714841815E+02 -0.72299126911E+03  0.72968542435E+03  0.77000000000E+02 0.  0.
   -5000001    1    1    2    0    0 -0.59569178671E+02 -0.15714841815E+02 -0.35334640004E+03  0.36684890857E+03  0.77000000000E+02 0.  0.
<mgrwt>
<rscale>  0 0.20948691E+03</rscale>
<asrwt>0</asrwt>
<pdfrwt beam="1">  1        2 0.15520507E+00 0.20948691E+03</pdfrwt>
<pdfrwt beam="2">  1       -2 0.14426195E-02 0.20948691E+03</pdfrwt>
<totfact> 0.31739804E+04</totfact>
</mgrwt>
</event>
<event>
 4    1  0.1308644E-003  0.2206698E+03  0.7818608E-02  0.1133385E+00
         -2   -1    0    0    0  501 -0.00000000000E+00  0.00000000000E+00  0.38090099273E+02  0.38090099359E+02  0.25500000000E-02 0. -1.
          2   -1    0    0  501    0  0.00000000000E+00 -0.00000000000E+00 -0.31960524790E+03  0.31960524791E+03  0.25500000000E-02 0.  1.
    5000001    1    1    2    0    0  0.90036886862E+01 -0.60571680886E+02 -0.22172087793E+03  0.24256781041E+03  0.77000000000E+02 0.  0.
   -5000001    1    1    2    0    0 -0.90036886862E+01  0.60571680886E+02 -0.59794270691E+02  0.11512753686E+03  0.77000000000E+02 0.  0.
<mgrwt>
<rscale>  0 0.22066985E+03</rscale>
<asrwt>0</asrwt>
<pdfrwt beam="1">  1        2 0.45657891E-01 0.22066985E+03</pdfrwt>
<pdfrwt beam="2">  1       -2 0.54414429E-02 0.22066985E+03</pdfrwt>
<totfact> 0.18550309E+04</totfact>
</mgrwt>
</event>
<event>
 4    1  0.1308644E-003  0.2038237E+03  0.7818608E-02  0.1146552E+00
         -2   -1    0    0    0  501 -0.00000000000E+00  0.00000000000E+00  0.53767752262E+01  0.53767758309E+01  0.25500000000E-02 0. -1.
          2   -1    0    0  501    0  0.00000000000E+00 -0.00000000000E+00 -0.19316456642E+04  0.19316456642E+04  0.25500000000E-02 0.  1.
    5000001    1    1    2    0    0 -0.62683355308E+02  0.10054954187E+02 -0.11594485353E+04  0.11637354558E+04  0.77000000000E+02 0.  0.
   -5000001    1    1    2    0    0  0.62683355308E+02 -0.10054954187E+02 -0.76682035374E+03  0.77328698427E+03  0.77000000000E+02 0.  0.
<mgrwt>
<rscale>  0 0.20382370E+03</rscale>
<asrwt>0</asrwt>
<pdfrwt beam="1">  1        2 0.27594894E+00 0.20382370E+03</pdfrwt>
<pdfrwt beam="2">  1       -2 0.76811203E-03 0.20382370E+03</pdfrwt>
<totfact> 0.29392350E+04</totfact>
</mgrwt>
</event>
<event>
 4    1  0.1308644E-003  0.1666311E+03  0.7818608E-02  0.1181407E+00
          2   -1    0    0  501    0  0.00000000000E+00  0.00000000000E+00  0.12060919546E+03  0.12060919549E+03  0.25500000000E-02 0.  1.
         -2   -1    0    0    0  501 -0.00000000000E+00 -0.00000000000E+00 -0.57553487195E+02  0.57553487252E+02  0.25500000000E-02 0. -1.
    5000001    1    1    2    0    0 -0.29962094782E+02  0.77423246058E+01  0.39443511221E+02  0.91882867235E+02  0.77000000000E+02 0.  0.
   -5000001    1    1    2    0    0  0.29962094782E+02 -0.77423246058E+01  0.23612197044E+02  0.86279815503E+02  0.77000000000E+02 0.  0.
<mgrwt>
<rscale>  0 0.16663109E+03</rscale>
<asrwt>0</asrwt>
<pdfrwt beam="1">  1        2 0.17229885E-01 0.16663109E+03</pdfrwt>
<pdfrwt beam="2">  1       -2 0.82219267E-02 0.16663109E+03</pdfrwt>
<totfact> 0.28174649E+04</totfact>
</mgrwt>
</event>
<event>
 4    1  0.1308644E-003  0.2911249E+03  0.7818608E-02  0.1089763E+00
          2   -1    0    0  501    0  0.00000000000E+00  0.00000000000E+00  0.97313250643E+01  0.97313253984E+01  0.25500000000E-02 0.  1.
         -2   -1    0    0    0  501 -0.00000000000E+00 -0.00000000000E+00 -0.21773430657E+04  0.21773430657E+04  0.25500000000E-02 0. -1.
    5000001    1    1    2    0    0  0.11028801181E+03  0.20533182909E+02 -0.14723097836E+04  0.14785838346E+04  0.77000000000E+02 0.  0.
   -5000001    1    1    2    0    0 -0.11028801181E+03 -0.20533182909E+02 -0.69530195708E+03  0.70849055651E+03  0.77000000000E+02 0.  0.
<mgrwt>
<rscale>  0 0.29112495E+03</rscale>
<asrwt>0</asrwt>
<pdfrwt beam="1">  1        2 0.13901907E-02 0.29112495E+03</pdfrwt>
<pdfrwt beam="2">  1       -2 0.31104870E+00 0.29112495E+03</pdfrwt>
<totfact> 0.28658599E+02</totfact>
</mgrwt>
</event>
<event>
 4    1  0.1308644E-003  0.2494175E+03  0.7818608E-02  0.1113674E+00
          2   -1    0    0  501    0  0.00000000000E+00  0.00000000000E+00  0.13464284514E+04  0.13464284514E+04  0.25500000000E-02 0.  1.
         -2   -1    0    0    0  501 -0.00000000000E+00 -0.00000000000E+00 -0.11550758179E+02  0.11550758461E+02  0.25500000000E-02 0. -1.
    5000001    1    1    2    0    0  0.66286668750E+02  0.56219686446E+02  0.41980251117E+03  0.43556598120E+03  0.77000000000E+02 0.  0.
   -5000001    1    1    2    0    0 -0.66286668750E+02 -0.56219686446E+02  0.91507518205E+03  0.92241322866E+03  0.77000000000E+02 0.  0.
<mgrwt>
<rscale>  0 0.24941748E+03</rscale>
<asrwt>0</asrwt>
<pdfrwt beam="1">  1        2 0.19234686E+00 0.24941748E+03</pdfrwt>
<pdfrwt beam="2">  1       -2 0.16501089E-02 0.24941748E+03</pdfrwt>
<totfact> 0.19092001E+04</totfact>
</mgrwt>
</event>
<event>
 4    1  0.1308644E-003  0.1816715E+03  0.7818608E-02  0.1166195E+00
          2   -1    0    0  501    0  0.00000000000E+00  0.00000000000E+00  0.19293585431E+04  0.19293585431E+04  0.25500000000E-02 0.  1.
         -2   -1    0    0    0  501 -0.00000000000E+00 -0.00000000000E+00 -0.42766193821E+01  0.42766201423E+01  0.25500000000E-02 0. -1.
    5000001    1    1    2    0    0  0.27413646431E+02 -0.12057727577E+02  0.56072132971E+03  0.56677535796E+03  0.77000000000E+02 0.  0.
   -5000001    1    1    2    0    0 -0.27413646431E+02  0.12057727577E+02  0.13643605940E+04  0.13668598053E+04  0.77000000000E+02 0.  0.
<mgrwt>
<rscale>  0 0.18167149E+03</rscale>
<asrwt>0</asrwt>
<pdfrwt beam="1">  1        2 0.27562289E+00 0.18167149E+03</pdfrwt>
<pdfrwt beam="2">  1       -2 0.61094514E-03 0.18167149E+03</pdfrwt>
<totfact> 0.40646706E+04</totfact>
</mgrwt>
</event>
<event>
 4    1  0.1308644E-003  0.1841872E+03  0.7818608E-02  0.1163811E+00
          2   -1    0    0  501    0  0.00000000000E+00  0.00000000000E+00  0.40355568854E+02  0.40355568935E+02  0.25500000000E-02 0.  1.
         -2   -1    0    0    0  501 -0.00000000000E+00 -0.00000000000E+00 -0.21016264335E+03  0.21016264337E+03  0.25500000000E-02 0. -1.
    5000001    1    1    2    0    0 -0.11124758501E+02 -0.47580138305E+02 -0.10235367976E+03  0.13708721886E+03  0.77000000000E+02 0.  0.
   -5000001    1    1    2    0    0  0.11124758501E+02  0.47580138305E+02 -0.67453394736E+02  0.11343099345E+03  0.77000000000E+02 0.  0.
<mgrwt>
<rscale>  0 0.18418722E+03</rscale>
<asrwt>0</asrwt>
<pdfrwt beam="1">  1        2 0.57650814E-02 0.18418722E+03</pdfrwt>
<pdfrwt beam="2">  1       -2 0.30023234E-01 0.18418722E+03</pdfrwt>
<totfact> 0.12758521E+04</totfact>
</mgrwt>
</event>
<event>
 4    1  0.1308644E-003  0.5203575E+03  0.7818608E-02  0.1008598E+00
          2   -1    0    0  501    0  0.00000000000E+00  0.00000000000E+00  0.50517542185E+03  0.50517542186E+03  0.25500000000E-02 0.  1.
         -2   -1    0    0    0  501 -0.00000000000E+00 -0.00000000000E+00 -0.13399894073E+03  0.13399894075E+03  0.25500000000E-02 0. -1.
    5000001    1    1    2    0    0 -0.13873002217E+03 -0.14052244228E+03  0.22979179352E+00  0.21194723079E+03  0.77000000000E+02 0.  0.
   -5000001    1    1    2    0    0  0.13873002217E+03  0.14052244228E+03  0.37094668933E+03  0.42722713182E+03  0.77000000000E+02 0.  0.
<mgrwt>
<rscale>  0 0.52035746E+03</rscale>
<asrwt>0</asrwt>
<pdfrwt beam="1">  1        2 0.72167917E-01 0.52035746E+03</pdfrwt>
<pdfrwt beam="2">  1       -2 0.19142706E-01 0.52035746E+03</pdfrwt>
<totfact> 0.15254418E+03</totfact>
</mgrwt>
</event>
<event>
 4    1  0.1308644E-003  0.2039000E+03  0.7818608E-02  0.1146490E+00
         -2   -1    0    0    0  501 -0.00000000000E+00  0.00000000000E+00  0.94083336270E+01  0.94083339726E+01  0.25500000000E-02 0. -1.
          2   -1    0    0  501    0  0.00000000000E+00 -0.00000000000E+00 -0.11047438735E+04  0.11047438735E+04  0.25500000000E-02 0.  1.
    5000001    1    1    2    0    0  0.56355434703E+02 -0.79893681302E+00 -0.35154710029E+03  0.36426767225E+03  0.77000000000E+02 0.  0.
   -5000001    1    1    2    0    0 -0.56355434703E+02  0.79893681302E+00 -0.74378843960E+03  0.74988453525E+03  0.77000000000E+02 0.  0.
<mgrwt>
<rscale>  0 0.20389997E+03</rscale>
<asrwt>0</asrwt>
<pdfrwt beam="1">  1        2 0.15782047E+00 0.20389997E+03</pdfrwt>
<pdfrwt beam="2">  1       -2 0.13440484E-02 0.20389997E+03</pdfrwt>
<totfact> 0.34292052E+04</totfact>
</mgrwt>
</event>
<event>
 4    1  0.1308644E-003  0.4288370E+03  0.7818608E-02  0.1034228E+00
          2   -1    0    0  501    0  0.00000000000E+00  0.00000000000E+00  0.39483551427E+03  0.39483551428E+03  0.25500000000E-02 0.  1.
         -2   -1    0    0    0  501 -0.00000000000E+00 -0.00000000000E+00 -0.11644161182E+03  0.11644161185E+03  0.25500000000E-02 0. -1.
    5000001    1    1    2    0    0 -0.10562974745E+03  0.16845867906E+03  0.16612982711E+03  0.27030369874E+03  0.77000000000E+02 0.  0.
   -5000001    1    1    2    0    0  0.10562974745E+03 -0.16845867906E+03  0.11226407534E+03  0.24097342739E+03  0.77000000000E+02 0.  0.
<mgrwt>
<rscale>  0 0.42883696E+03</rscale>
<asrwt>0</asrwt>
<pdfrwt beam="1">  1        2 0.56405073E-01 0.42883696E+03</pdfrwt>
<pdfrwt beam="2">  1       -2 0.16634516E-01 0.42883696E+03</pdfrwt>
<totfact> 0.25478952E+03</totfact>
</mgrwt>
</event>
<event>
 4    1  0.1308644E-003  0.2081968E+03  0.7818608E-02  0.1143002E+00
          2   -1    0    0  501    0  0.00000000000E+00  0.00000000000E+00  0.66412620030E+03  0.66412620030E+03  0.25500000000E-02 0.  1.
         -2   -1    0    0    0  501 -0.00000000000E+00 -0.00000000000E+00 -0.16316893274E+02  0.16316893473E+02  0.25500000000E-02 0. -1.
    5000001    1    1    2    0    0 -0.53883653367E+02  0.25087558096E+02  0.44507955901E+03  0.45558495094E+03  0.77000000000E+02 0.  0.
   -5000001    1    1    2    0    0  0.53883653367E+02 -0.25087558096E+02  0.20272974801E+03  0.22485814284E+03  0.77000000000E+02 0.  0.
<mgrwt>
<rscale>  0 0.20819680E+03</rscale>
<asrwt>0</asrwt>
<pdfrwt beam="1">  1        2 0.94875183E-01 0.20819680E+03</pdfrwt>
<pdfrwt beam="2">  1       -2 0.23309845E-02 0.20819680E+03</pdfrwt>
<totfact> 0.29332457E+04</totfact>
</mgrwt>
</event>
