<event>
 4    1  0.9050888E-005  0.3343310E+03  0.7818608E-02  0.1069236E+00
         -2   -1    0    0    0  501 -0.00000000000E+00  0.00000000000E+00  0.20825308607E+03  0.20825308608E+03  0.25500000000E-02 0. -1.
          2   -1    0    0  501    0  0.00000000000E+00 -0.00000000000E+00 -0.13418435179E+03  0.13418435181E+03  0.25500000000E-02 0.  1.
    5000001    1    1    2    0    0  0.18650548547E+02 -0.19117015500E+02  0.39543693423E+02  0.17176148268E+03  0.16500000000E+03 0.  0.
   -5000001    1    1    2    0    0 -0.18650548547E+02  0.19117015500E+02  0.34525040856E+02  0.17067595522E+03  0.16500000000E+03 0.  0.
<mgrwt>
<rscale>  0 0.33433101E+03</rscale>
<asrwt>0</asrwt>
<pdfrwt beam="1">  1        2 0.20643746E-01 0.33433101E+03</pdfrwt>
<pdfrwt beam="2">  1       -2 0.32038936E-01 0.33433101E+03</pdfrwt>
<totfact> 0.24330576E+03</totfact>
</mgrwt>
</event>
<event>
 4    1  0.9050888E-005  0.5709156E+03  0.7818608E-02  0.9967654E-01
          2   -1    0    0  501    0  0.00000000000E+00  0.00000000000E+00  0.91322064628E+03  0.91322064628E+03  0.25500000000E-02 0.  1.
         -2   -1    0    0    0  501 -0.00000000000E+00 -0.00000000000E+00 -0.89229437834E+02  0.89229437870E+02  0.25500000000E-02 0. -1.
    5000001    1    1    2    0    0 -0.22191242523E+03 -0.65881242594E+02  0.45763800948E+03  0.53874206288E+03  0.16500000000E+03 0.  0.
   -5000001    1    1    2    0    0  0.22191242523E+03  0.65881242594E+02  0.36635319896E+03  0.46370802127E+03  0.16500000000E+03 0.  0.
<mgrwt>
<rscale>  0 0.57091563E+03</rscale>
<asrwt>0</asrwt>
<pdfrwt beam="1">  1        2 0.14049549E+00 0.57091563E+03</pdfrwt>
<pdfrwt beam="2">  1       -2 0.13727606E-01 0.57091563E+03</pdfrwt>
<totfact> 0.11760480E+03</totfact>
</mgrwt>
</event>
<event>
 4    1  0.9050888E-005  0.6401242E+03  0.7818608E-02  0.9825489E-01
         -2   -1    0    0    0  501 -0.00000000000E+00  0.00000000000E+00  0.32115529800E+03  0.32115529801E+03  0.25500000000E-02 0. -1.
          2   -1    0    0  501    0  0.00000000000E+00 -0.00000000000E+00 -0.31897261630E+03  0.31897261631E+03  0.25500000000E-02 0.  1.
    5000001    1    1    2    0    0 -0.46495730994E+01  0.25994397030E+03 -0.86214718754E+02  0.31976626457E+03  0.16500000000E+03 0.  0.
   -5000001    1    1    2    0    0  0.46495730994E+01 -0.25994397030E+03  0.88397400454E+02  0.32036164976E+03  0.16500000000E+03 0.  0.
<mgrwt>
<rscale>  0 0.64012419E+03</rscale>
<asrwt>0</asrwt>
<pdfrwt beam="1">  1        2 0.49072710E-01 0.64012419E+03</pdfrwt>
<pdfrwt beam="2">  1       -2 0.49408507E-01 0.64012419E+03</pdfrwt>
<totfact> 0.40120167E+02</totfact>
</mgrwt>
</event>
<event>
 4    1  0.9050888E-005  0.6007411E+03  0.7818608E-02  0.9903870E-01
         -2   -1    0    0    0  501 -0.00000000000E+00  0.00000000000E+00  0.10834502975E+04  0.10834502975E+04  0.25500000000E-02 0. -1.
          2   -1    0    0  501    0  0.00000000000E+00 -0.00000000000E+00 -0.83273286633E+02  0.83273286672E+02  0.25500000000E-02 0.  1.
    5000001    1    1    2    0    0 -0.20178103755E+03  0.80718792348E+02  0.25622528495E+03  0.37430937364E+03  0.16500000000E+03 0.  0.
   -5000001    1    1    2    0    0  0.20178103755E+03 -0.80718792348E+02  0.74395172593E+03  0.79241421054E+03  0.16500000000E+03 0.  0.
<mgrwt>
<rscale>  0 0.60074110E+03</rscale>
<asrwt>0</asrwt>
<pdfrwt beam="1">  1        2 0.12811275E-01 0.60074110E+03</pdfrwt>
<pdfrwt beam="2">  1       -2 0.16668466E+00 0.60074110E+03</pdfrwt>
<totfact> 0.11166897E+02</totfact>
</mgrwt>
</event>
<event>
 4    1  0.9050888E-005  0.4701848E+03  0.7818608E-02  0.1021868E+00
          2   -1    0    0  501    0  0.00000000000E+00  0.00000000000E+00  0.36045920636E+03  0.36045920637E+03  0.25500000000E-02 0.  1.
         -2   -1    0    0    0  501 -0.00000000000E+00 -0.00000000000E+00 -0.15332786519E+03  0.15332786521E+03  0.25500000000E-02 0. -1.
    5000001    1    1    2    0    0 -0.12560033828E+03  0.67145928940E+02  0.19982197786E+03  0.29569890697E+03  0.16500000000E+03 0.  0.
   -5000001    1    1    2    0    0  0.12560033828E+03 -0.67145928940E+02  0.73093633125E+01  0.21808816460E+03  0.16500000000E+03 0.  0.
<mgrwt>
<rscale>  0 0.47018482E+03</rscale>
<asrwt>0</asrwt>
<pdfrwt beam="1">  1        2 0.55455262E-01 0.47018482E+03</pdfrwt>
<pdfrwt beam="2">  1       -2 0.23588903E-01 0.47018482E+03</pdfrwt>
<totfact> 0.14193193E+03</totfact>
</mgrwt>
</event>
<event>
 4    1  0.9050888E-005  0.4172082E+03  0.7818608E-02  0.1037979E+00
          2   -1    0    0  501    0  0.00000000000E+00  0.00000000000E+00  0.22116927445E+04  0.22116927445E+04  0.25500000000E-02 0.  1.
         -2   -1    0    0    0  501 -0.00000000000E+00 -0.00000000000E+00 -0.19675279779E+02  0.19675279944E+02  0.25500000000E-02 0. -1.
    5000001    1    1    2    0    0 -0.17907727323E+02  0.12399907089E+03  0.96563471422E+03  0.98760916236E+03  0.16500000000E+03 0.  0.
   -5000001    1    1    2    0    0  0.17907727323E+02 -0.12399907089E+03  0.12263827505E+04  0.12437588620E+04  0.16500000000E+03 0.  0.
<mgrwt>
<rscale>  0 0.41720822E+03</rscale>
<asrwt>0</asrwt>
<pdfrwt beam="1">  1        2 0.34026029E+00 0.41720822E+03</pdfrwt>
<pdfrwt beam="2">  1       -2 0.30269674E-02 0.41720822E+03</pdfrwt>
<totfact> 0.23768434E+03</totfact>
</mgrwt>
</event>
<event>
 4    1  0.9050888E-005  0.4702187E+03  0.7818608E-02  0.1021858E+00
          2   -1    0    0  501    0  0.00000000000E+00  0.00000000000E+00  0.15949297335E+03  0.15949297338E+03  0.25500000000E-02 0.  1.
         -2   -1    0    0    0  501 -0.00000000000E+00 -0.00000000000E+00 -0.34657584459E+03  0.34657584460E+03  0.25500000000E-02 0. -1.
    5000001    1    1    2    0    0 -0.23296419446E+02 -0.15149086812E+03 -0.16621128374E+03  0.27989890519E+03  0.16500000000E+03 0.  0.
   -5000001    1    1    2    0    0  0.23296419446E+02  0.15149086812E+03 -0.20871587490E+02  0.22616991278E+03  0.16500000000E+03 0.  0.
<mgrwt>
<rscale>  0 0.47021872E+03</rscale>
<asrwt>0</asrwt>
<pdfrwt beam="1">  1        2 0.24537381E-01 0.47021872E+03</pdfrwt>
<pdfrwt beam="2">  1       -2 0.53319360E-01 0.47021872E+03</pdfrwt>
<totfact> 0.74590467E+02</totfact>
</mgrwt>
</event>
<event>
 4    1  0.9050888E-005  0.8484915E+03  0.7818608E-02  0.9492364E-01
          2   -1    0    0  501    0  0.00000000000E+00  0.00000000000E+00  0.15561242362E+04  0.15561242362E+04  0.25500000000E-02 0.  1.
         -2   -1    0    0    0  501 -0.00000000000E+00 -0.00000000000E+00 -0.11566201732E+03  0.11566201735E+03  0.25500000000E-02 0. -1.
    5000001    1    1    2    0    0 -0.11903648297E+03  0.36129250230E+03  0.89709277759E+03  0.98828255479E+03  0.16500000000E+03 0.  0.
   -5000001    1    1    2    0    0  0.11903648297E+03 -0.36129250230E+03  0.54336944126E+03  0.68350369874E+03  0.16500000000E+03 0.  0.
<mgrwt>
<rscale>  0 0.84849153E+03</rscale>
<asrwt>0</asrwt>
<pdfrwt beam="1">  1        2 0.23940370E+00 0.84849153E+03</pdfrwt>
<pdfrwt beam="2">  1       -2 0.17794159E-01 0.84849153E+03</pdfrwt>
<totfact> 0.31113838E+02</totfact>
</mgrwt>
</event>
<event>
 4    1  0.9050888E-005  0.6469058E+03  0.7818608E-02  0.9812603E-01
          2   -1    0    0  501    0  0.00000000000E+00  0.00000000000E+00  0.18960653682E+04  0.18960653683E+04  0.25500000000E-02 0.  1.
         -2   -1    0    0    0  501 -0.00000000000E+00 -0.00000000000E+00 -0.55178368974E+02  0.55178369033E+02  0.25500000000E-02 0. -1.
    5000001    1    1    2    0    0 -0.10950478534E+03  0.22007611544E+03  0.52749380572E+03  0.60489628010E+03  0.16500000000E+03 0.  0.
   -5000001    1    1    2    0    0  0.10950478534E+03 -0.22007611544E+03  0.13133931936E+04  0.13463474572E+04  0.16500000000E+03 0.  0.
<mgrwt>
<rscale>  0 0.64690585E+03</rscale>
<asrwt>0</asrwt>
<pdfrwt beam="1">  1        2 0.29170234E+00 0.64690585E+03</pdfrwt>
<pdfrwt beam="2">  1       -2 0.84889805E-02 0.64690585E+03</pdfrwt>
<totfact> 0.70159713E+02</totfact>
</mgrwt>
</event>
<event>
 4    1  0.9050888E-005  0.1456161E+04  0.7818608E-02  0.8914140E-01
         -2   -1    0    0    0  501 -0.00000000000E+00  0.00000000000E+00  0.24565471369E+03  0.24565471371E+03  0.25500000000E-02 0. -1.
          2   -1    0    0  501    0  0.00000000000E+00 -0.00000000000E+00 -0.21579125310E+04  0.21579125310E+04  0.25500000000E-02 0.  1.
    5000001    1    1    2    0    0  0.51322226587E+03 -0.39134750810E+03 -0.47115466547E+03  0.81594220695E+03  0.16500000000E+03 0.  0.
   -5000001    1    1    2    0    0 -0.51322226587E+03  0.39134750810E+03 -0.14411031519E+04  0.15876250378E+04  0.16500000000E+03 0.  0.
<mgrwt>
<rscale>  0 0.14561612E+04</rscale>
<asrwt>0</asrwt>
<pdfrwt beam="1">  1        2 0.33198653E+00 0.14561612E+04</pdfrwt>
<pdfrwt beam="2">  1       -2 0.37793034E-01 0.14561612E+04</pdfrwt>
<totfact> 0.34958538E+01</totfact>
</mgrwt>
</event>
<event>
 4    1  0.9050888E-005  0.3541224E+03  0.7818608E-02  0.1060936E+00
          2   -1    0    0  501    0  0.00000000000E+00  0.00000000000E+00  0.35530973475E+03  0.35530973476E+03  0.25500000000E-02 0.  1.
         -2   -1    0    0    0  501 -0.00000000000E+00 -0.00000000000E+00 -0.88234746072E+02  0.88234746109E+02  0.25500000000E-02 0. -1.
    5000001    1    1    2    0    0 -0.63915828563E+02  0.38293718130E+01  0.12717956394E+03  0.21794388891E+03  0.16500000000E+03 0.  0.
   -5000001    1    1    2    0    0  0.63915828563E+02 -0.38293718130E+01  0.13989542474E+03  0.22560059196E+03  0.16500000000E+03 0.  0.
<mgrwt>
<rscale>  0 0.35412238E+03</rscale>
<asrwt>0</asrwt>
<pdfrwt beam="1">  1        2 0.54663035E-01 0.35412238E+03</pdfrwt>
<pdfrwt beam="2">  1       -2 0.13574577E-01 0.35412238E+03</pdfrwt>
<totfact> 0.36862407E+03</totfact>
</mgrwt>
</event>
<event>
 4    1  0.9050888E-005  0.3599623E+03  0.7818608E-02  0.1058599E+00
          2   -1    0    0  501    0  0.00000000000E+00  0.00000000000E+00  0.19607839188E+03  0.19607839189E+03  0.25500000000E-02 0.  1.
         -2   -1    0    0    0  501 -0.00000000000E+00 -0.00000000000E+00 -0.16520539779E+03  0.16520539781E+03  0.25500000000E-02 0. -1.
    5000001    1    1    2    0    0 -0.80436825753E+01  0.71378263253E+02  0.12484365391E+02  0.18038962463E+03  0.16500000000E+03 0.  0.
   -5000001    1    1    2    0    0  0.80436825753E+01 -0.71378263253E+02  0.18388628691E+02  0.18089416508E+03  0.16500000000E+03 0.  0.
<mgrwt>
<rscale>  0 0.35996227E+03</rscale>
<asrwt>0</asrwt>
<pdfrwt beam="1">  1        2 0.30165906E-01 0.35996227E+03</pdfrwt>
<pdfrwt beam="2">  1       -2 0.25416215E-01 0.35996227E+03</pdfrwt>
<totfact> 0.24174899E+03</totfact>
</mgrwt>
</event>
<event>
 4    1  0.9050888E-005  0.3572909E+03  0.7818608E-02  0.1059662E+00
          2   -1    0    0  501    0  0.00000000000E+00  0.00000000000E+00  0.85514833192E+03  0.85514833193E+03  0.25500000000E-02 0.  1.
         -2   -1    0    0    0  501 -0.00000000000E+00 -0.00000000000E+00 -0.37320070676E+02  0.37320070763E+02  0.25500000000E-02 0. -1.
    5000001    1    1    2    0    0  0.54452528158E+02 -0.37839481086E+02  0.45161919865E+03  0.48536770055E+03  0.16500000000E+03 0.  0.
   -5000001    1    1    2    0    0 -0.54452528158E+02  0.37839481086E+02  0.36620906260E+03  0.40710070214E+03  0.16500000000E+03 0.  0.
<mgrwt>
<rscale>  0 0.35729090E+03</rscale>
<asrwt>0</asrwt>
<pdfrwt beam="1">  1        2 0.13156128E+00 0.35729090E+03</pdfrwt>
<pdfrwt beam="2">  1       -2 0.57415495E-02 0.35729090E+03</pdfrwt>
<totfact> 0.51747574E+03</totfact>
</mgrwt>
</event>
<event>
 4    1  0.9050888E-005  0.5895813E+03  0.7818608E-02  0.9927260E-01
          2   -1    0    0  501    0  0.00000000000E+00  0.00000000000E+00  0.34948820164E+03  0.34948820165E+03  0.25500000000E-02 0.  1.
         -2   -1    0    0    0  501 -0.00000000000E+00 -0.00000000000E+00 -0.24865365113E+03  0.24865365114E+03  0.25500000000E-02 0. -1.
    5000001    1    1    2    0    0  0.21275933994E+03  0.10537273899E+03 -0.79204039376E+01  0.28923638024E+03  0.16500000000E+03 0.  0.
   -5000001    1    1    2    0    0 -0.21275933994E+03 -0.10537273899E+03  0.10875495445E+03  0.30890547255E+03  0.16500000000E+03 0.  0.
<mgrwt>
<rscale>  0 0.58958127E+03</rscale>
<asrwt>0</asrwt>
<pdfrwt beam="1">  1        2 0.53767416E-01 0.58958127E+03</pdfrwt>
<pdfrwt beam="2">  1       -2 0.38254408E-01 0.58958127E+03</pdfrwt>
<totfact> 0.60144431E+02</totfact>
</mgrwt>
</event>
<event>
 4    1  0.9050888E-005  0.5610054E+03  0.7818608E-02  0.9989782E-01
         -2   -1    0    0    0  501 -0.00000000000E+00  0.00000000000E+00  0.39140710589E+02  0.39140710672E+02  0.25500000000E-02 0. -1.
          2   -1    0    0  501    0  0.00000000000E+00 -0.00000000000E+00 -0.20102279994E+04  0.20102279994E+04  0.25500000000E-02 0.  1.
    5000001    1    1    2    0    0  0.18369384068E+03  0.95369520957E+02 -0.13246655385E+04  0.13508525314E+04  0.16500000000E+03 0.  0.
   -5000001    1    1    2    0    0 -0.18369384068E+03 -0.95369520957E+02 -0.64642175029E+03  0.69851617868E+03  0.16500000000E+03 0.  0.
<mgrwt>
<rscale>  0 0.56100536E+03</rscale>
<asrwt>0</asrwt>
<pdfrwt beam="1">  1        2 0.30926577E+00 0.56100536E+03</pdfrwt>
<pdfrwt beam="2">  1       -2 0.60216493E-02 0.56100536E+03</pdfrwt>
<totfact> 0.10540239E+03</totfact>
</mgrwt>
</event>
<event>
 4    1  0.9050888E-005  0.3824790E+03  0.7818608E-02  0.1050021E+00
          2   -1    0    0  501    0  0.00000000000E+00  0.00000000000E+00  0.74912397076E+02  0.74912397120E+02  0.25500000000E-02 0.  1.
         -2   -1    0    0    0  501 -0.00000000000E+00 -0.00000000000E+00 -0.48820429169E+03  0.48820429170E+03  0.25500000000E-02 0. -1.
    5000001    1    1    2    0    0  0.39652006328E+02  0.40015308231E+02 -0.90961297997E+02  0.19665315719E+03  0.16500000000E+03 0.  0.
   -5000001    1    1    2    0    0 -0.39652006328E+02 -0.40015308231E+02 -0.32233059662E+03  0.36646353163E+03  0.16500000000E+03 0.  0.
<mgrwt>
<rscale>  0 0.38247904E+03</rscale>
<asrwt>0</asrwt>
<pdfrwt beam="1">  1        2 0.11524984E-01 0.38247904E+03</pdfrwt>
<pdfrwt beam="2">  1       -2 0.75108351E-01 0.38247904E+03</pdfrwt>
<totfact> 0.88470718E+02</totfact>
</mgrwt>
</event>
<event>
 4    1  0.9050888E-005  0.4591982E+03  0.7818608E-02  0.1025014E+00
          2   -1    0    0  501    0  0.00000000000E+00  0.00000000000E+00  0.25530689195E+04  0.25530689195E+04  0.25500000000E-02 0.  1.
         -2   -1    0    0    0  501 -0.00000000000E+00 -0.00000000000E+00 -0.20647993806E+02  0.20647993963E+02  0.25500000000E-02 0. -1.
    5000001    1    1    2    0    0  0.13736977111E+03 -0.49596547677E+02  0.90469049198E+03  0.93113917211E+03  0.16500000000E+03 0.  0.
   -5000001    1    1    2    0    0 -0.13736977111E+03  0.49596547677E+02  0.16277304337E+04  0.16425777414E+04  0.16500000000E+03 0.  0.
<mgrwt>
<rscale>  0 0.45919822E+03</rscale>
<asrwt>0</asrwt>
<pdfrwt beam="1">  1        2 0.39277952E+00 0.45919822E+03</pdfrwt>
<pdfrwt beam="2">  1       -2 0.31766170E-02 0.45919822E+03</pdfrwt>
<totfact> 0.14294056E+03</totfact>
</mgrwt>
</event>
<event>
 4    1  0.9050888E-005  0.3645094E+03  0.7818608E-02  0.1056812E+00
         -2   -1    0    0    0  501 -0.00000000000E+00  0.00000000000E+00  0.13471681361E+02  0.13471681603E+02  0.25500000000E-02 0. -1.
          2   -1    0    0  501    0  0.00000000000E+00 -0.00000000000E+00 -0.24656739717E+04  0.24656739717E+04  0.25500000000E-02 0.  1.
    5000001    1    1    2    0    0 -0.64840166722E+02  0.40225703056E+02 -0.13146281220E+04  0.13271376920E+04  0.16500000000E+03 0.  0.
   -5000001    1    1    2    0    0  0.64840166722E+02 -0.40225703056E+02 -0.11375741683E+04  0.11520079613E+04  0.16500000000E+03 0.  0.
<mgrwt>
<rscale>  0 0.36450939E+03</rscale>
<asrwt>0</asrwt>
<pdfrwt beam="1">  1        2 0.37933410E+00 0.36450939E+03</pdfrwt>
<pdfrwt beam="2">  1       -2 0.20725683E-02 0.36450939E+03</pdfrwt>
<totfact> 0.30540253E+03</totfact>
</mgrwt>
</event>
<event>
 4    1  0.9050888E-005  0.4018217E+03  0.7818608E-02  0.1043151E+00
          2   -1    0    0  501    0  0.00000000000E+00  0.00000000000E+00  0.16307882857E+03  0.16307882859E+03  0.25500000000E-02 0.  1.
         -2   -1    0    0    0  501 -0.00000000000E+00 -0.00000000000E+00 -0.24751931493E+03  0.24751931494E+03  0.25500000000E-02 0. -1.
    5000001    1    1    2    0    0  0.50919095451E+02 -0.64099229214E+02  0.39773847820E+02  0.18843679162E+03  0.16500000000E+03 0.  0.
   -5000001    1    1    2    0    0 -0.50919095451E+02  0.64099229214E+02 -0.12421433418E+03  0.22216135191E+03  0.16500000000E+03 0.  0.
<mgrwt>
<rscale>  0 0.40182165E+03</rscale>
<asrwt>0</asrwt>
<pdfrwt beam="1">  1        2 0.25089050E-01 0.40182165E+03</pdfrwt>
<pdfrwt beam="2">  1       -2 0.38079895E-01 0.40182165E+03</pdfrwt>
<totfact> 0.14128112E+03</totfact>
</mgrwt>
</event>
<event>
 4    1  0.9050888E-005  0.4179891E+03  0.7818608E-02  0.1037723E+00
          2   -1    0    0  501    0  0.00000000000E+00  0.00000000000E+00  0.18425112929E+03  0.18425112931E+03  0.25500000000E-02 0.  1.
         -2   -1    0    0    0  501 -0.00000000000E+00 -0.00000000000E+00 -0.23706085253E+03  0.23706085255E+03  0.25500000000E-02 0. -1.
    5000001    1    1    2    0    0 -0.11307758717E+03  0.45536864336E+02  0.13832191590E+02  0.20561244188E+03  0.16500000000E+03 0.  0.
   -5000001    1    1    2    0    0  0.11307758717E+03 -0.45536864336E+02 -0.66641914829E+02  0.21569953997E+03  0.16500000000E+03 0.  0.
<mgrwt>
<rscale>  0 0.41798914E+03</rscale>
<asrwt>0</asrwt>
<pdfrwt beam="1">  1        2 0.28346328E-01 0.41798914E+03</pdfrwt>
<pdfrwt beam="2">  1       -2 0.36470900E-01 0.41798914E+03</pdfrwt>
<totfact> 0.13374590E+03</totfact>
</mgrwt>
</event>
<event>
 4    1  0.9050888E-005  0.5628608E+03  0.7818608E-02  0.9985602E-01
         -2   -1    0    0    0  501 -0.00000000000E+00  0.00000000000E+00  0.29084693867E+02  0.29084693979E+02  0.25500000000E-02 0. -1.
          2   -1    0    0  501    0  0.00000000000E+00 -0.00000000000E+00 -0.27231874307E+04  0.27231874307E+04  0.25500000000E-02 0.  1.
    5000001    1    1    2    0    0  0.72122125332E+02 -0.20226697072E+03 -0.17215131538E+04  0.17426835820E+04  0.16500000000E+03 0.  0.
   -5000001    1    1    2    0    0 -0.72122125332E+02  0.20226697072E+03 -0.97258958304E+03  0.10095885426E+04  0.16500000000E+03 0.  0.
<mgrwt>
<rscale>  0 0.56286081E+03</rscale>
<asrwt>0</asrwt>
<pdfrwt beam="1">  1        2 0.41895171E+00 0.56286081E+03</pdfrwt>
<pdfrwt beam="2">  1       -2 0.44745705E-02 0.56286081E+03</pdfrwt>
<totfact> 0.67100446E+02</totfact>
</mgrwt>
</event>
<event>
 4    1  0.9050888E-005  0.3618121E+03  0.7818608E-02  0.1057869E+00
         -2   -1    0    0    0  501 -0.00000000000E+00  0.00000000000E+00  0.16657236994E+02  0.16657237189E+02  0.25500000000E-02 0. -1.
          2   -1    0    0  501    0  0.00000000000E+00 -0.00000000000E+00 -0.19647318743E+04  0.19647318743E+04  0.25500000000E-02 0.  1.
    5000001    1    1    2    0    0 -0.61047414273E+02  0.41345509527E+02 -0.10184482307E+04  0.10343587562E+04  0.16500000000E+03 0.  0.
   -5000001    1    1    2    0    0  0.61047414273E+02 -0.41345509527E+02 -0.92962640658E+03  0.94703035524E+03  0.16500000000E+03 0.  0.
<mgrwt>
<rscale>  0 0.36181213E+03</rscale>
<asrwt>0</asrwt>
<pdfrwt beam="1">  1        2 0.30226626E+00 0.36181213E+03</pdfrwt>
<pdfrwt beam="2">  1       -2 0.25626534E-02 0.36181213E+03</pdfrwt>
<totfact> 0.41470802E+03</totfact>
</mgrwt>
</event>
<event>
 4    1  0.9050888E-005  0.8487358E+03  0.7818608E-02  0.9492035E-01
          2   -1    0    0  501    0  0.00000000000E+00  0.00000000000E+00  0.68674633980E+03  0.68674633980E+03  0.25500000000E-02 0.  1.
         -2   -1    0    0    0  501 -0.00000000000E+00 -0.00000000000E+00 -0.26223383949E+03  0.26223383951E+03  0.25500000000E-02 0. -1.
    5000001    1    1    2    0    0  0.27702910611E+03 -0.18038438822E+03 -0.21157053749E+02  0.37007603823E+03  0.16500000000E+03 0.  0.
   -5000001    1    1    2    0    0 -0.27702910611E+03  0.18038438822E+03  0.44566955405E+03  0.57890414108E+03  0.16500000000E+03 0.  0.
<mgrwt>
<rscale>  0 0.84873584E+03</rscale>
<asrwt>0</asrwt>
<pdfrwt beam="1">  1        2 0.10565328E+00 0.84873584E+03</pdfrwt>
<pdfrwt beam="2">  1       -2 0.40343668E-01 0.84873584E+03</pdfrwt>
<totfact> 0.24518735E+02</totfact>
</mgrwt>
</event>
<event>
 4    1  0.9050888E-005  0.5148511E+03  0.7818608E-02  0.1009974E+00
         -2   -1    0    0    0  501 -0.00000000000E+00  0.00000000000E+00  0.51374232747E+02  0.51374232811E+02  0.25500000000E-02 0.  1.
          2   -1    0    0  501    0  0.00000000000E+00 -0.00000000000E+00 -0.12899054502E+04  0.12899054502E+04  0.25500000000E-02 0. -1.
    5000001    1    1    2    0    0 -0.13464139677E+03  0.12683573475E+03 -0.43826101752E+03  0.50350107131E+03  0.16500000000E+03 0.  0.
   -5000001    1    1    2    0    0  0.13464139677E+03 -0.12683573475E+03 -0.80027019997E+03  0.83777861174E+03  0.16500000000E+03 0.  0.
<mgrwt>
<rscale>  0 0.51485106E+03</rscale>
<asrwt>0</asrwt>
<pdfrwt beam="1">  1        2 0.19844697E+00 0.51485106E+03</pdfrwt>
<pdfrwt beam="2">  1       -2 0.79037291E-02 0.51485106E+03</pdfrwt>
<totfact> 0.17041369E+03</totfact>
</mgrwt>
</event>
<event>
 4    1  0.9050888E-005  0.4919960E+03  0.7818608E-02  0.1015889E+00
          2   -1    0    0  501    0  0.00000000000E+00  0.00000000000E+00  0.32536755068E+04  0.32536755068E+04  0.25500000000E-02 0.  1.
         -2   -1    0    0    0  501 -0.00000000000E+00 -0.00000000000E+00 -0.18598969022E+02  0.18598969197E+02  0.25500000000E-02 0. -1.
    5000001    1    1    2    0    0 -0.27314224460E+02  0.17477046190E+03  0.19149235358E+04  0.19301419454E+04  0.16500000000E+03 0.  0.
   -5000001    1    1    2    0    0  0.27314224460E+02 -0.17477046190E+03  0.13201530020E+04  0.13421325306E+04  0.16500000000E+03 0.  0.
<mgrwt>
<rscale>  0 0.49199598E+03</rscale>
<asrwt>0</asrwt>
<pdfrwt beam="1">  1        2 0.50056544E+00 0.49199598E+03</pdfrwt>
<pdfrwt beam="2">  1       -2 0.28613800E-02 0.49199598E+03</pdfrwt>
<totfact> 0.63869360E+02</totfact>
</mgrwt>
</event>
<event>
 4    1  0.9050888E-005  0.6646700E+03  0.7818608E-02  0.9779635E-01
         -2   -1    0    0    0  501 -0.00000000000E+00  0.00000000000E+00  0.11999835722E+03  0.11999835724E+03  0.25500000000E-02 0. -1.
          2   -1    0    0  501    0  0.00000000000E+00 -0.00000000000E+00 -0.92040051886E+03  0.92040051887E+03  0.25500000000E-02 0.  1.
    5000001    1    1    2    0    0  0.21036066475E+03 -0.16516188912E+02 -0.92284321146E+02  0.28331217711E+03  0.16500000000E+03 0.  0.
   -5000001    1    1    2    0    0 -0.21036066475E+03  0.16516188912E+02 -0.70811784050E+03  0.75708669900E+03  0.16500000000E+03 0.  0.
<mgrwt>
<rscale>  0 0.66466999E+03</rscale>
<asrwt>0</asrwt>
<pdfrwt beam="1">  1        2 0.14160008E+00 0.66466999E+03</pdfrwt>
<pdfrwt beam="2">  1       -2 0.18461286E-01 0.66466999E+03</pdfrwt>
<totfact> 0.70187439E+02</totfact>
</mgrwt>
</event>
<event>
 4    1  0.9050888E-005  0.4723305E+03  0.7818608E-02  0.1021264E+00
          2   -1    0    0  501    0  0.00000000000E+00  0.00000000000E+00  0.16324021386E+04  0.16324021386E+04  0.25500000000E-02 0.  1.
         -2   -1    0    0    0  501 -0.00000000000E+00 -0.00000000000E+00 -0.34166845400E+02  0.34166845496E+02  0.25500000000E-02 0. -1.
    5000001    1    1    2    0    0 -0.29421059077E+02  0.16406504701E+03  0.70145733897E+03  0.73962851267E+03  0.16500000000E+03 0.  0.
   -5000001    1    1    2    0    0  0.29421059077E+02 -0.16406504701E+03  0.89677795420E+03  0.92694047139E+03  0.16500000000E+03 0.  0.
<mgrwt>
<rscale>  0 0.47233053E+03</rscale>
<asrwt>0</asrwt>
<pdfrwt beam="1">  1        2 0.25113878E+00 0.47233053E+03</pdfrwt>
<pdfrwt beam="2">  1       -2 0.52564380E-02 0.47233053E+03</pdfrwt>
<totfact> 0.20904170E+03</totfact>
</mgrwt>
</event>
<event>
 4    1  0.9050888E-005  0.5200372E+03  0.7818608E-02  0.1008677E+00
         -2   -1    0    0    0  501 -0.00000000000E+00  0.00000000000E+00  0.10636330282E+03  0.10636330285E+03  0.25500000000E-02 0. -1.
          2   -1    0    0  501    0  0.00000000000E+00 -0.00000000000E+00 -0.63564841628E+03  0.63564841628E+03  0.25500000000E-02 0.  1.
    5000001    1    1    2    0    0  0.92178677977E+02 -0.16705828615E+03 -0.35465010219E+03  0.43520923086E+03  0.16500000000E+03 0.  0.
   -5000001    1    1    2    0    0 -0.92178677977E+02  0.16705828615E+03 -0.17463501127E+03  0.30680248826E+03  0.16500000000E+03 0.  0.
<mgrwt>
<rscale>  0 0.52003717E+03</rscale>
<asrwt>0</asrwt>
<pdfrwt beam="1">  1        2 0.97792062E-01 0.52003717E+03</pdfrwt>
<pdfrwt beam="2">  1       -2 0.16363585E-01 0.52003717E+03</pdfrwt>
<totfact> 0.13982787E+03</totfact>
</mgrwt>
</event>
<event>
 4    1  0.9050888E-005  0.6540587E+03  0.7818608E-02  0.9799193E-01
         -2   -1    0    0    0  501 -0.00000000000E+00  0.00000000000E+00  0.75964972683E+02  0.75964972725E+02  0.25500000000E-02 0. -1.
          2   -1    0    0  501    0  0.00000000000E+00 -0.00000000000E+00 -0.14078621023E+04  0.14078621023E+04  0.25500000000E-02 0.  1.
    5000001    1    1    2    0    0  0.25784867979E+03 -0.87203509173E+02 -0.83621505773E+03  0.89474634196E+03  0.16500000000E+03 0.  0.
   -5000001    1    1    2    0    0 -0.25784867979E+03  0.87203509173E+02 -0.49568207191E+03  0.58908073309E+03  0.16500000000E+03 0.  0.
<mgrwt>
<rscale>  0 0.65405873E+03</rscale>
<asrwt>0</asrwt>
<pdfrwt beam="1">  1        2 0.21659415E+00 0.65405873E+03</pdfrwt>
<pdfrwt beam="2">  1       -2 0.11686920E-01 0.65405873E+03</pdfrwt>
<totfact> 0.77271818E+02</totfact>
</mgrwt>
</event>
<event>
 4    1  0.9050888E-005  0.5916930E+03  0.7818608E-02  0.9922792E-01
          2   -1    0    0  501    0  0.00000000000E+00  0.00000000000E+00  0.96172344110E+03  0.96172344110E+03  0.25500000000E-02 0.  1.
         -2   -1    0    0    0  501 -0.00000000000E+00 -0.00000000000E+00 -0.91008644495E+02  0.91008644530E+02  0.25500000000E-02 0. -1.
    5000001    1    1    2    0    0 -0.15217686203E+03 -0.19272335279E+03  0.43492623265E+03  0.52600942567E+03  0.16500000000E+03 0.  0.
   -5000001    1    1    2    0    0  0.15217686203E+03  0.19272335279E+03  0.43578856395E+03  0.52672265996E+03  0.16500000000E+03 0.  0.
<mgrwt>
<rscale>  0 0.59169298E+03</rscale>
<asrwt>0</asrwt>
<pdfrwt beam="1">  1        2 0.14795745E+00 0.59169298E+03</pdfrwt>
<pdfrwt beam="2">  1       -2 0.14001330E-01 0.59169298E+03</pdfrwt>
<totfact> 0.10574032E+03</totfact>
</mgrwt>
</event>
<event>
 4    1  0.9050888E-005  0.1372800E+04  0.7818608E-02  0.8973746E-01
          2   -1    0    0  501    0  0.00000000000E+00  0.00000000000E+00  0.24707947277E+04  0.24707947277E+04  0.25500000000E-02 0.  1.
         -2   -1    0    0    0  501 -0.00000000000E+00 -0.00000000000E+00 -0.19068566915E+03  0.19068566917E+03  0.25500000000E-02 0. -1.
    5000001    1    1    2    0    0  0.55105467002E+03 -0.34269731186E+03  0.14329073831E+04  0.15816293072E+04  0.16500000000E+03 0.  0.
   -5000001    1    1    2    0    0 -0.55105467002E+03  0.34269731186E+03  0.84720167542E+03  0.10798510896E+04  0.16500000000E+03 0.  0.
<mgrwt>
<rscale>  0 0.13728003E+04</rscale>
<asrwt>0</asrwt>
<pdfrwt beam="1">  1        2 0.38012225E+00 0.13728003E+04</pdfrwt>
<pdfrwt beam="2">  1       -2 0.29336258E-01 0.13728003E+04</pdfrwt>
<totfact> 0.37875856E+01</totfact>
</mgrwt>
</event>
<event>
 4    1  0.9050888E-005  0.6468920E+03  0.7818608E-02  0.9812629E-01
          2   -1    0    0  501    0  0.00000000000E+00  0.00000000000E+00  0.10443908412E+03  0.10443908415E+03  0.25500000000E-02 0.  1.
         -2   -1    0    0    0  501 -0.00000000000E+00 -0.00000000000E+00 -0.10017066271E+04  0.10017066271E+04  0.25500000000E-02 0. -1.
    5000001    1    1    2    0    0 -0.70482278563E+02 -0.21120078952E+03 -0.73383390257E+03  0.78441744093E+03  0.16500000000E+03 0.  0.
   -5000001    1    1    2    0    0  0.70482278563E+02  0.21120078952E+03 -0.16343364037E+03  0.32172827027E+03  0.16500000000E+03 0.  0.
<mgrwt>
<rscale>  0 0.64689202E+03</rscale>
<asrwt>0</asrwt>
<pdfrwt beam="1">  1        2 0.16067552E-01 0.64689202E+03</pdfrwt>
<pdfrwt beam="2">  1       -2 0.15410871E+00 0.64689202E+03</pdfrwt>
<totfact> 0.10447228E+02</totfact>
</mgrwt>
</event>
<event>
 4    1  0.9050888E-005  0.8744741E+03  0.7818608E-02  0.9458065E-01
          2   -1    0    0  501    0  0.00000000000E+00  0.00000000000E+00  0.16921433847E+04  0.16921433847E+04  0.25500000000E-02 0.  1.
         -2   -1    0    0    0  501 -0.00000000000E+00 -0.00000000000E+00 -0.11297874691E+03  0.11297874694E+03  0.25500000000E-02 0. -1.
    5000001    1    1    2    0    0 -0.14953134447E+03  0.36284816803E+03  0.99531154435E+03  0.10825379838E+04  0.16500000000E+03 0.  0.
   -5000001    1    1    2    0    0  0.14953134447E+03 -0.36284816803E+03  0.58385309345E+03  0.72258414787E+03  0.16500000000E+03 0.  0.
<mgrwt>
<rscale>  0 0.87447410E+03</rscale>
<asrwt>0</asrwt>
<pdfrwt beam="1">  1        2 0.26032977E+00 0.87447410E+03</pdfrwt>
<pdfrwt beam="2">  1       -2 0.17381345E-01 0.87447410E+03</pdfrwt>
<totfact> 0.27206124E+02</totfact>
</mgrwt>
</event>
<event>
 4    1  0.9050888E-005  0.4410783E+03  0.7818608E-02  0.1030416E+00
          2   -1    0    0  501    0  0.00000000000E+00  0.00000000000E+00  0.16587553057E+03  0.16587553059E+03  0.25500000000E-02 0.  1.
         -2   -1    0    0    0  501 -0.00000000000E+00 -0.00000000000E+00 -0.29321693949E+03  0.29321693950E+03  0.25500000000E-02 0. -1.
    5000001    1    1    2    0    0  0.96371616408E+02  0.61152565861E+02 -0.15898238636E+03  0.25598344465E+03  0.16500000000E+03 0.  0.
   -5000001    1    1    2    0    0 -0.96371616408E+02 -0.61152565861E+02  0.31640977445E+02  0.20310902544E+03  0.16500000000E+03 0.  0.
<mgrwt>
<rscale>  0 0.44107829E+03</rscale>
<asrwt>0</asrwt>
<pdfrwt beam="1">  1        2 0.25519312E-01 0.44107829E+03</pdfrwt>
<pdfrwt beam="2">  1       -2 0.45110298E-01 0.44107829E+03</pdfrwt>
<totfact> 0.99803512E+02</totfact>
</mgrwt>
</event>
<event>
 4    1  0.9050888E-005  0.5986218E+03  0.7818608E-02  0.9908270E-01
          2   -1    0    0  501    0  0.00000000000E+00  0.00000000000E+00  0.58143563700E+03  0.58143563701E+03  0.25500000000E-02 0. -1.
         -2   -1    0    0    0  501 -0.00000000000E+00 -0.00000000000E+00 -0.15407896950E+03  0.15407896952E+03  0.25500000000E-02 0.  1.
    5000001    1    1    2    0    0 -0.13660173536E+03 -0.67653942938E+02  0.45671147282E+03  0.50896705149E+03  0.16500000000E+03 0.  0.
   -5000001    1    1    2    0    0  0.13660173536E+03  0.67653942938E+02 -0.29354805322E+02  0.22654755504E+03  0.16500000000E+03 0.  0.
<mgrwt>
<rscale>  0 0.59862176E+03</rscale>
<asrwt>0</asrwt>
<pdfrwt beam="1">  1        2 0.89451635E-01 0.59862176E+03</pdfrwt>
<pdfrwt beam="2">  1       -2 0.23704457E-01 0.59862176E+03</pdfrwt>
<totfact> 0.81664224E+02</totfact>
</mgrwt>
</event>
<event>
 4    1  0.9050888E-005  0.4198272E+03  0.7818608E-02  0.1037123E+00
          2   -1    0    0  501    0  0.00000000000E+00  0.00000000000E+00  0.50973295018E+03  0.50973295019E+03  0.25500000000E-02 0.  1.
         -2   -1    0    0    0  501 -0.00000000000E+00 -0.00000000000E+00 -0.86444727040E+02  0.86444727078E+02  0.25500000000E-02 0. -1.
    5000001    1    1    2    0    0  0.86866746853E+02  0.93789928452E+02  0.18000704427E+03  0.27562641088E+03  0.16500000000E+03 0.  0.
   -5000001    1    1    2    0    0 -0.86866746853E+02 -0.93789928452E+02  0.24328117887E+03  0.32055126639E+03  0.16500000000E+03 0.  0.
<mgrwt>
<rscale>  0 0.41982723E+03</rscale>
<asrwt>0</asrwt>
<pdfrwt beam="1">  1        2 0.78420451E-01 0.41982723E+03</pdfrwt>
<pdfrwt beam="2">  1       -2 0.13299189E-01 0.41982723E+03</pdfrwt>
<totfact> 0.25604176E+03</totfact>
</mgrwt>
</event>
<event>
 4    1  0.9050888E-005  0.4772466E+03  0.7818608E-02  0.1019895E+00
          2   -1    0    0  501    0  0.00000000000E+00  0.00000000000E+00  0.16254485122E+03  0.16254485124E+03  0.25500000000E-02 0.  1.
         -2   -1    0    0    0  501 -0.00000000000E+00 -0.00000000000E+00 -0.35030993853E+03  0.35030993854E+03  0.25500000000E-02 0. -1.
    5000001    1    1    2    0    0 -0.94421355908E+02  0.28153057523E+02  0.58121239003E+02  0.20077615775E+03  0.16500000000E+03 0.  0.
   -5000001    1    1    2    0    0  0.94421355908E+02 -0.28153057523E+02 -0.24588632631E+03  0.31207863202E+03  0.16500000000E+03 0.  0.
<mgrwt>
<rscale>  0 0.47724659E+03</rscale>
<asrwt>0</asrwt>
<pdfrwt beam="1">  1        2 0.25006900E-01 0.47724659E+03</pdfrwt>
<pdfrwt beam="2">  1       -2 0.53893837E-01 0.47724659E+03</pdfrwt>
<totfact> 0.71414886E+02</totfact>
</mgrwt>
</event>
<event>
 4    1  0.9050888E-005  0.5774862E+03  0.7818608E-02  0.9953248E-01
          2   -1    0    0  501    0  0.00000000000E+00  0.00000000000E+00  0.40472559227E+03  0.40472559228E+03  0.25500000000E-02 0.  1.
         -2   -1    0    0    0  501 -0.00000000000E+00 -0.00000000000E+00 -0.20599779316E+03  0.20599779317E+03  0.25500000000E-02 0. -1.
    5000001    1    1    2    0    0 -0.12454782230E+03  0.19956413025E+03  0.69273223587E+02  0.29557026513E+03  0.16500000000E+03 0.  0.
   -5000001    1    1    2    0    0  0.12454782230E+03 -0.19956413025E+03  0.12945457552E+03  0.31515312032E+03  0.16500000000E+03 0.  0.
<mgrwt>
<rscale>  0 0.57748620E+03</rscale>
<asrwt>0</asrwt>
<pdfrwt beam="1">  1        2 0.62265476E-01 0.57748620E+03</pdfrwt>
<pdfrwt beam="2">  1       -2 0.31691968E-01 0.57748620E+03</pdfrwt>
<totfact> 0.72968370E+02</totfact>
</mgrwt>
</event>
<event>
 4    1  0.9050888E-005  0.6481974E+03  0.7818608E-02  0.9810168E-01
          2   -1    0    0  501    0  0.00000000000E+00  0.00000000000E+00  0.47567004478E+03  0.47567004479E+03  0.25500000000E-02 0.  1.
         -2   -1    0    0    0  501 -0.00000000000E+00 -0.00000000000E+00 -0.22082526088E+03  0.22082526089E+03  0.25500000000E-02 0. -1.
    5000001    1    1    2    0    0  0.17981942973E+03 -0.11041124617E+03 -0.68625959327E+02  0.27651436288E+03  0.16500000000E+03 0.  0.
   -5000001    1    1    2    0    0 -0.17981942973E+03  0.11041124617E+03  0.32347074323E+03  0.41998094280E+03  0.16500000000E+03 0.  0.
<mgrwt>
<rscale>  0 0.64819738E+03</rscale>
<asrwt>0</asrwt>
<pdfrwt beam="1">  1        2 0.73180006E-01 0.64819738E+03</pdfrwt>
<pdfrwt beam="2">  1       -2 0.33973117E-01 0.64819738E+03</pdfrwt>
<totfact> 0.53278934E+02</totfact>
</mgrwt>
</event>
<event>
 4    1  0.9050888E-005  0.4775669E+03  0.7818608E-02  0.1019806E+00
         -2   -1    0    0    0  501 -0.00000000000E+00  0.00000000000E+00  0.25373341760E+03  0.25373341762E+03  0.25500000000E-02 0. -1.
          2   -1    0    0  501    0  0.00000000000E+00 -0.00000000000E+00 -0.22471436295E+03  0.22471436296E+03  0.25500000000E-02 0.  1.
    5000001    1    1    2    0    0  0.79828967176E+02  0.10353628149E+03 -0.98393131963E+02  0.23237606159E+03  0.16500000000E+03 0.  0.
   -5000001    1    1    2    0    0 -0.79828967176E+02 -0.10353628149E+03  0.12741218662E+03  0.24607171898E+03  0.16500000000E+03 0.  0.
<mgrwt>
<rscale>  0 0.47756693E+03</rscale>
<asrwt>0</asrwt>
<pdfrwt beam="1">  1        2 0.34571440E-01 0.47756693E+03</pdfrwt>
<pdfrwt beam="2">  1       -2 0.39035910E-01 0.47756693E+03</pdfrwt>
<totfact> 0.94247796E+02</totfact>
</mgrwt>
</event>
<event>
 4    1  0.9050888E-005  0.5517484E+03  0.7818608E-02  0.1001090E+00
          2   -1    0    0  501    0  0.00000000000E+00  0.00000000000E+00  0.14755091950E+04  0.14755091950E+04  0.25500000000E-02 0. -1.
         -2   -1    0    0    0  501 -0.00000000000E+00 -0.00000000000E+00 -0.51579870412E+02  0.51579870475E+02  0.25500000000E-02 0.  1.
    5000001    1    1    2    0    0  0.68300291706E+02 -0.54510060529E+02  0.12740606737E+04  0.12876691643E+04  0.16500000000E+03 0.  0.
   -5000001    1    1    2    0    0 -0.68300291706E+02  0.54510060529E+02  0.14986865094E+03  0.23941990118E+03  0.16500000000E+03 0.  0.
<mgrwt>
<rscale>  0 0.55174840E+03</rscale>
<asrwt>0</asrwt>
<pdfrwt beam="1">  1        2 0.22700143E+00 0.55174840E+03</pdfrwt>
<pdfrwt beam="2">  1       -2 0.79353642E-02 0.55174840E+03</pdfrwt>
<totfact> 0.13310317E+03</totfact>
</mgrwt>
</event>
<event>
 4    1  0.9050888E-005  0.5204137E+03  0.7818608E-02  0.1008584E+00
          2   -1    0    0  501    0  0.00000000000E+00  0.00000000000E+00  0.26111410389E+04  0.26111410389E+04  0.25500000000E-02 0.  1.
         -2   -1    0    0    0  501 -0.00000000000E+00 -0.00000000000E+00 -0.25930273964E+02  0.25930274089E+02  0.25500000000E-02 0. -1.
    5000001    1    1    2    0    0 -0.21928098997E+02 -0.19649736826E+03  0.14815635845E+04  0.15037778134E+04  0.16500000000E+03 0.  0.
   -5000001    1    1    2    0    0  0.21928098997E+02  0.19649736826E+03  0.11036471805E+04  0.11332934996E+04  0.16500000000E+03 0.  0.
<mgrwt>
<rscale>  0 0.52041369E+03</rscale>
<asrwt>0</asrwt>
<pdfrwt beam="1">  1        2 0.40171418E+00 0.52041369E+03</pdfrwt>
<pdfrwt beam="2">  1       -2 0.39892712E-02 0.52041369E+03</pdfrwt>
<totfact> 0.93191321E+02</totfact>
</mgrwt>
</event>
<event>
 4    1  0.9050888E-005  0.4299511E+03  0.7818608E-02  0.1033875E+00
          2   -1    0    0  501    0  0.00000000000E+00  0.00000000000E+00  0.12393774912E+04  0.12393774912E+04  0.25500000000E-02 0.  1.
         -2   -1    0    0    0  501 -0.00000000000E+00 -0.00000000000E+00 -0.37288467657E+02  0.37288467744E+02  0.25500000000E-02 0. -1.
    5000001    1    1    2    0    0 -0.41439326392E+02 -0.50154679499E+02  0.24033800013E+03  0.29869727812E+03  0.16500000000E+03 0.  0.
   -5000001    1    1    2    0    0  0.41439326392E+02  0.50154679499E+02  0.96175102338E+03  0.97796868080E+03  0.16500000000E+03 0.  0.
<mgrwt>
<rscale>  0 0.42995110E+03</rscale>
<asrwt>0</asrwt>
<pdfrwt beam="1">  1        2 0.19067346E+00 0.42995110E+03</pdfrwt>
<pdfrwt beam="2">  1       -2 0.57366873E-02 0.42995110E+03</pdfrwt>
<totfact> 0.30146773E+03</totfact>
</mgrwt>
</event>
<event>
 4    1  0.9050888E-005  0.4288171E+03  0.7818608E-02  0.1034234E+00
         -2   -1    0    0    0  501 -0.00000000000E+00  0.00000000000E+00  0.16310300771E+03  0.16310300773E+03  0.25500000000E-02 0. -1.
          2   -1    0    0  501    0  0.00000000000E+00 -0.00000000000E+00 -0.28185271610E+03  0.28185271611E+03  0.25500000000E-02 0.  1.
    5000001    1    1    2    0    0  0.12755871608E+03 -0.49612076140E+02 -0.55570596203E+02  0.22146258219E+03  0.16500000000E+03 0.  0.
   -5000001    1    1    2    0    0 -0.12755871608E+03  0.49612076140E+02 -0.63179112184E+02  0.22349314165E+03  0.16500000000E+03 0.  0.
<mgrwt>
<rscale>  0 0.42881710E+03</rscale>
<asrwt>0</asrwt>
<pdfrwt beam="1">  1        2 0.43361956E-01 0.42881710E+03</pdfrwt>
<pdfrwt beam="2">  1       -2 0.25092771E-01 0.42881710E+03</pdfrwt>
<totfact> 0.16642475E+03</totfact>
</mgrwt>
</event>
<event>
 4    1  0.9050888E-005  0.4426806E+03  0.7818608E-02  0.1029928E+00
          2   -1    0    0  501    0  0.00000000000E+00  0.00000000000E+00  0.24586540646E+04  0.24586540646E+04  0.25500000000E-02 0.  1.
         -2   -1    0    0    0  501 -0.00000000000E+00 -0.00000000000E+00 -0.19926154608E+02  0.19926154771E+02  0.25500000000E-02 0. -1.
    5000001    1    1    2    0    0 -0.39812284656E+02 -0.70557411030E+02  0.52899797428E+03  0.56002430577E+03  0.16500000000E+03 0.  0.
   -5000001    1    1    2    0    0  0.39812284656E+02  0.70557411030E+02  0.19097299357E+04  0.19185559136E+04  0.16500000000E+03 0.  0.
<mgrwt>
<rscale>  0 0.44268057E+03</rscale>
<asrwt>0</asrwt>
<pdfrwt beam="1">  1        2 0.37825427E+00 0.44268057E+03</pdfrwt>
<pdfrwt beam="2">  1       -2 0.30655639E-02 0.44268057E+03</pdfrwt>
<totfact> 0.17053235E+03</totfact>
</mgrwt>
</event>
<event>
 4    1  0.9050888E-005  0.4255569E+03  0.7818608E-02  0.1035273E+00
          2   -1    0    0  501    0  0.00000000000E+00  0.00000000000E+00  0.42109374473E+03  0.42109374473E+03  0.25500000000E-02 0.  1.
         -2   -1    0    0    0  501 -0.00000000000E+00 -0.00000000000E+00 -0.10751684250E+03  0.10751684253E+03  0.25500000000E-02 0. -1.
    5000001    1    1    2    0    0 -0.83823665756E+02  0.84569251061E+02  0.79501372541E+02  0.21845785269E+03  0.16500000000E+03 0.  0.
   -5000001    1    1    2    0    0  0.83823665756E+02 -0.84569251061E+02  0.23407552969E+03  0.31015273457E+03  0.16500000000E+03 0.  0.
<mgrwt>
<rscale>  0 0.42555690E+03</rscale>
<asrwt>0</asrwt>
<pdfrwt beam="1">  1        2 0.64783653E-01 0.42555690E+03</pdfrwt>
<pdfrwt beam="2">  1       -2 0.16541053E-01 0.42555690E+03</pdfrwt>
<totfact> 0.22061048E+03</totfact>
</mgrwt>
</event>
<event>
 4    1  0.9050888E-005  0.5145273E+03  0.7818608E-02  0.1010055E+00
         -2   -1    0    0    0  501 -0.00000000000E+00  0.00000000000E+00  0.19714432464E+03  0.19714432466E+03  0.25500000000E-02 0. -1.
          2   -1    0    0  501    0  0.00000000000E+00 -0.00000000000E+00 -0.33571638781E+03  0.33571638782E+03  0.25500000000E-02 0.  1.
    5000001    1    1    2    0    0  0.11005040407E+03  0.16379134241E+03 -0.74018909851E+02  0.26766115575E+03  0.16500000000E+03 0.  0.
   -5000001    1    1    2    0    0 -0.11005040407E+03 -0.16379134241E+03 -0.64553153322E+02  0.26519955673E+03  0.16500000000E+03 0.  0.
<mgrwt>
<rscale>  0 0.51452728E+03</rscale>
<asrwt>0</asrwt>
<pdfrwt beam="1">  1        2 0.51648675E-01 0.51452728E+03</pdfrwt>
<pdfrwt beam="2">  1       -2 0.30329896E-01 0.51452728E+03</pdfrwt>
<totfact> 0.97459930E+02</totfact>
</mgrwt>
</event>
<event>
 4    1  0.9050888E-005  0.4754961E+03  0.7818608E-02  0.1020380E+00
         -2   -1    0    0    0  501 -0.00000000000E+00  0.00000000000E+00  0.42469078355E+03  0.42469078356E+03  0.25500000000E-02 0. -1.
          2   -1    0    0  501    0  0.00000000000E+00 -0.00000000000E+00 -0.13309482337E+03  0.13309482339E+03  0.25500000000E-02 0.  1.
    5000001    1    1    2    0    0 -0.20708812182E+02 -0.15005560360E+03  0.52293926386E+02  0.23001129061E+03  0.16500000000E+03 0.  0.
   -5000001    1    1    2    0    0  0.20708812182E+02  0.15005560360E+03  0.23930203380E+03  0.32777431634E+03  0.16500000000E+03 0.  0.
<mgrwt>
<rscale>  0 0.47549614E+03</rscale>
<asrwt>0</asrwt>
<pdfrwt beam="1">  1        2 0.20476126E-01 0.47549614E+03</pdfrwt>
<pdfrwt beam="2">  1       -2 0.65337044E-01 0.47549614E+03</pdfrwt>
<totfact> 0.60083767E+02</totfact>
</mgrwt>
</event>
<event>
 4    1  0.9050888E-005  0.4442096E+03  0.7818608E-02  0.1029463E+00
         -2   -1    0    0    0  501 -0.00000000000E+00  0.00000000000E+00  0.15591378452E+03  0.15591378454E+03  0.25500000000E-02 0. -1.
          2   -1    0    0  501    0  0.00000000000E+00 -0.00000000000E+00 -0.31639632730E+03  0.31639632731E+03  0.25500000000E-02 0.  1.
    5000001    1    1    2    0    0 -0.93395808260E+02  0.91960022946E+02 -0.56149504077E+01  0.21079836453E+03  0.16500000000E+03 0.  0.
   -5000001    1    1    2    0    0  0.93395808260E+02 -0.91960022946E+02 -0.15486759238E+03  0.26151174732E+03  0.16500000000E+03 0.  0.
<mgrwt>
<rscale>  0 0.44420963E+03</rscale>
<asrwt>0</asrwt>
<pdfrwt beam="1">  1        2 0.48676358E-01 0.44420963E+03</pdfrwt>
<pdfrwt beam="2">  1       -2 0.23986736E-01 0.44420963E+03</pdfrwt>
<totfact> 0.15894847E+03</totfact>
</mgrwt>
</event>
<event>
 4    1  0.9050888E-005  0.5529531E+03  0.7818608E-02  0.1000813E+00
          2   -1    0    0  501    0  0.00000000000E+00  0.00000000000E+00  0.16031465164E+04  0.16031465164E+04  0.25500000000E-02 0.  1.
         -2   -1    0    0    0  501 -0.00000000000E+00 -0.00000000000E+00 -0.47680776911E+02  0.47680776979E+02  0.25500000000E-02 0. -1.
    5000001    1    1    2    0    0 -0.10631144104E+03 -0.19049865276E+03  0.65748040530E+03  0.71210767623E+03  0.16500000000E+03 0.  0.
   -5000001    1    1    2    0    0  0.10631144104E+03  0.19049865276E+03  0.89798533420E+03  0.93871961716E+03  0.16500000000E+03 0.  0.
<mgrwt>
<rscale>  0 0.55295306E+03</rscale>
<asrwt>0</asrwt>
<pdfrwt beam="1">  1        2 0.24663793E+00 0.55295306E+03</pdfrwt>
<pdfrwt beam="2">  1       -2 0.73355041E-02 0.55295306E+03</pdfrwt>
<totfact> 0.12832631E+03</totfact>
</mgrwt>
</event>
<event>
 4    1  0.9050888E-005  0.4098322E+03  0.7818608E-02  0.1040427E+00
         -2   -1    0    0    0  501 -0.00000000000E+00  0.00000000000E+00  0.11843117151E+03  0.11843117154E+03  0.25500000000E-02 0. -1.
          2   -1    0    0  501    0  0.00000000000E+00 -0.00000000000E+00 -0.35455714466E+03  0.35455714467E+03  0.25500000000E-02 0.  1.
    5000001    1    1    2    0    0 -0.59974261888E+02  0.10563959333E+03 -0.12152187760E+03  0.23822091114E+03  0.16500000000E+03 0.  0.
   -5000001    1    1    2    0    0  0.59974261888E+02 -0.10563959333E+03 -0.11460409555E+03  0.23476740507E+03  0.16500000000E+03 0.  0.
<mgrwt>
<rscale>  0 0.40983225E+03</rscale>
<asrwt>0</asrwt>
<pdfrwt beam="1">  1        2 0.54547253E-01 0.40983225E+03</pdfrwt>
<pdfrwt beam="2">  1       -2 0.18220180E-01 0.40983225E+03</pdfrwt>
<totfact> 0.22621513E+03</totfact>
</mgrwt>
</event>
<event>
 4    1  0.9050888E-005  0.4247817E+03  0.7818608E-02  0.1035521E+00
         -2   -1    0    0    0  501 -0.00000000000E+00  0.00000000000E+00  0.23934305827E+02  0.23934305963E+02  0.25500000000E-02 0.  1.
          2   -1    0    0  501    0  0.00000000000E+00 -0.00000000000E+00 -0.18847372380E+04  0.18847372380E+04  0.25500000000E-02 0. -1.
    5000001    1    1    2    0    0 -0.10081028607E+03  0.79623152045E+02 -0.10974602352E+04  0.11172047834E+04  0.16500000000E+03 0.  0.
   -5000001    1    1    2    0    0  0.10081028607E+03 -0.79623152045E+02 -0.76334269696E+03  0.79146676059E+03  0.16500000000E+03 0.  0.
<mgrwt>
<rscale>  0 0.42478172E+03</rscale>
<asrwt>0</asrwt>
<pdfrwt beam="1">  1        2 0.28995946E+00 0.42478172E+03</pdfrwt>
<pdfrwt beam="2">  1       -2 0.36822024E-02 0.42478172E+03</pdfrwt>
<totfact> 0.26452947E+03</totfact>
</mgrwt>
</event>
<event>
 4    1  0.9050888E-005  0.5186090E+03  0.7818608E-02  0.1009033E+00
         -2   -1    0    0    0  501 -0.00000000000E+00  0.00000000000E+00  0.55942459472E+02  0.55942459530E+02  0.25500000000E-02 0. -1.
          2   -1    0    0  501    0  0.00000000000E+00 -0.00000000000E+00 -0.12019281276E+04  0.12019281276E+04  0.25500000000E-02 0.  1.
    5000001    1    1    2    0    0 -0.66408107474E+02 -0.92366180278E+02 -0.97207126513E+03  0.99251654519E+03  0.16500000000E+03 0.  0.
   -5000001    1    1    2    0    0  0.66408107474E+02  0.92366180278E+02 -0.17391440297E+03  0.26535404191E+03  0.16500000000E+03 0.  0.
<mgrwt>
<rscale>  0 0.51860897E+03</rscale>
<asrwt>0</asrwt>
<pdfrwt beam="1">  1        2 0.18491200E+00 0.51860897E+03</pdfrwt>
<pdfrwt beam="2">  1       -2 0.86065331E-02 0.51860897E+03</pdfrwt>
<totfact> 0.16721361E+03</totfact>
</mgrwt>
</event>
<event>
 4    1  0.9050888E-005  0.4011085E+03  0.7818608E-02  0.1043397E+00
          2   -1    0    0  501    0  0.00000000000E+00  0.00000000000E+00  0.91439638622E+02  0.91439638658E+02  0.25500000000E-02 0.  1.
         -2   -1    0    0    0  501 -0.00000000000E+00 -0.00000000000E+00 -0.43987498802E+03  0.43987498803E+03  0.25500000000E-02 0. -1.
    5000001    1    1    2    0    0  0.54773306956E+02  0.81357951571E+02 -0.97232787780E+02  0.21517073792E+03  0.16500000000E+03 0.  0.
   -5000001    1    1    2    0    0 -0.54773306956E+02 -0.81357951571E+02 -0.25120256162E+03  0.31614388876E+03  0.16500000000E+03 0.  0.
<mgrwt>
<rscale>  0 0.40110851E+03</rscale>
<asrwt>0</asrwt>
<pdfrwt beam="1">  1        2 0.14067637E-01 0.40110851E+03</pdfrwt>
<pdfrwt beam="2">  1       -2 0.67673074E-01 0.40110851E+03</pdfrwt>
<totfact> 0.86934198E+02</totfact>
</mgrwt>
</event>
<event>
 4    1  0.9050888E-005  0.5413755E+03  0.7818608E-02  0.1003510E+00
          2   -1    0    0  501    0  0.00000000000E+00  0.00000000000E+00  0.69321669541E+03  0.69321669541E+03  0.25500000000E-02 0.  1.
         -2   -1    0    0    0  501 -0.00000000000E+00 -0.00000000000E+00 -0.10569832793E+03  0.10569832796E+03  0.25500000000E-02 0. -1.
    5000001    1    1    2    0    0  0.10589185126E+03 -0.16486731670E+03  0.16466563837E+03  0.30452272286E+03  0.16500000000E+03 0.  0.
   -5000001    1    1    2    0    0 -0.10589185126E+03  0.16486731670E+03  0.42285272911E+03  0.49439230051E+03  0.16500000000E+03 0.  0.
<mgrwt>
<rscale>  0 0.54137545E+03</rscale>
<asrwt>0</asrwt>
<pdfrwt beam="1">  1        2 0.10664873E+00 0.54137545E+03</pdfrwt>
<pdfrwt beam="2">  1       -2 0.16261281E-01 0.54137545E+03</pdfrwt>
<totfact> 0.12703818E+03</totfact>
</mgrwt>
</event>
<event>
 4    1  0.9050888E-005  0.5789926E+03  0.7818608E-02  0.9949974E-01
          2   -1    0    0  501    0  0.00000000000E+00  0.00000000000E+00  0.52484205969E+02  0.52484206031E+02  0.25500000000E-02 0.  1.
         -2   -1    0    0    0  501 -0.00000000000E+00 -0.00000000000E+00 -0.15968255359E+04  0.15968255359E+04  0.25500000000E-02 0. -1.
    5000001    1    1    2    0    0 -0.17944551295E+03  0.14294373209E+03 -0.59315080575E+03  0.65702852375E+03  0.16500000000E+03 0.  0.
   -5000001    1    1    2    0    0  0.17944551295E+03 -0.14294373209E+03 -0.95119052417E+03  0.99228121817E+03  0.16500000000E+03 0.  0.
<mgrwt>
<rscale>  0 0.57899264E+03</rscale>
<asrwt>0</asrwt>
<pdfrwt beam="1">  1        2 0.80744945E-02 0.57899264E+03</pdfrwt>
<pdfrwt beam="2">  1       -2 0.24566543E+00 0.57899264E+03</pdfrwt>
<totfact> 0.62184758E+01</totfact>
</mgrwt>
</event>
<event>
 4    1  0.9050888E-005  0.6206047E+03  0.7818608E-02  0.9863556E-01
         -2   -1    0    0    0  501 -0.00000000000E+00  0.00000000000E+00  0.56629592991E+02  0.56629593049E+02  0.25500000000E-02 0. -1.
          2   -1    0    0  501    0  0.00000000000E+00 -0.00000000000E+00 -0.17003046497E+04  0.17003046497E+04  0.25500000000E-02 0.  1.
    5000001    1    1    2    0    0 -0.65814139190E+01  0.26121297719E+03 -0.74241660677E+03  0.80416599808E+03  0.16500000000E+03 0.  0.
   -5000001    1    1    2    0    0  0.65814139190E+01 -0.26121297719E+03 -0.90125844994E+03  0.95276824467E+03  0.16500000000E+03 0.  0.
<mgrwt>
<rscale>  0 0.62060474E+03</rscale>
<asrwt>0</asrwt>
<pdfrwt beam="1">  1        2 0.26158529E+00 0.62060474E+03</pdfrwt>
<pdfrwt beam="2">  1       -2 0.87122464E-02 0.62060474E+03</pdfrwt>
<totfact> 0.86077910E+02</totfact>
</mgrwt>
</event>
<event>
 4    1  0.9050888E-005  0.6360167E+03  0.7818608E-02  0.9833378E-01
          2   -1    0    0  501    0  0.00000000000E+00  0.00000000000E+00  0.29984150908E+03  0.29984150909E+03  0.25500000000E-02 0.  1.
         -2   -1    0    0    0  501 -0.00000000000E+00 -0.00000000000E+00 -0.33727583667E+03  0.33727583668E+03  0.25500000000E-02 0. -1.
    5000001    1    1    2    0    0 -0.14872169444E+03 -0.19572468256E+03  0.97578548077E+02  0.31172562744E+03  0.16500000000E+03 0.  0.
   -5000001    1    1    2    0    0  0.14872169444E+03  0.19572468256E+03 -0.13501287567E+03  0.32539171833E+03  0.16500000000E+03 0.  0.
<mgrwt>
<rscale>  0 0.63601665E+03</rscale>
<asrwt>0</asrwt>
<pdfrwt beam="1">  1        2 0.46129463E-01 0.63601665E+03</pdfrwt>
<pdfrwt beam="2">  1       -2 0.51888590E-01 0.63601665E+03</pdfrwt>
<totfact> 0.38892537E+02</totfact>
</mgrwt>
</event>
<event>
 4    1  0.9050888E-005  0.1065836E+04  0.7818608E-02  0.9239145E-01
          2   -1    0    0  501    0  0.00000000000E+00  0.00000000000E+00  0.25262926056E+04  0.25262926056E+04  0.25500000000E-02 0.  1.
         -2   -1    0    0    0  501 -0.00000000000E+00 -0.00000000000E+00 -0.11241835753E+03  0.11241835756E+03  0.25500000000E-02 0. -1.
    5000001    1    1    2    0    0  0.33039101783E+03 -0.38413296140E+03  0.11877110164E+04  0.13017675734E+04  0.16500000000E+03 0.  0.
   -5000001    1    1    2    0    0 -0.33039101783E+03  0.38413296140E+03  0.12261632317E+04  0.13369433897E+04  0.16500000000E+03 0.  0.
<mgrwt>
<rscale>  0 0.10658361E+04</rscale>
<asrwt>0</asrwt>
<pdfrwt beam="1">  1        2 0.38866039E+00 0.10658361E+04</pdfrwt>
<pdfrwt beam="2">  1       -2 0.17295132E-01 0.10658361E+04</pdfrwt>
<totfact> 0.92998064E+01</totfact>
</mgrwt>
</event>
<event>
 4    1  0.9050888E-005  0.5229588E+03  0.7818608E-02  0.1007954E+00
         -2   -1    0    0    0  501 -0.00000000000E+00  0.00000000000E+00  0.42528459823E+02  0.42528459899E+02  0.25500000000E-02 0. -1.
          2   -1    0    0  501    0  0.00000000000E+00 -0.00000000000E+00 -0.16076638518E+04  0.16076638518E+04  0.25500000000E-02 0.  1.
    5000001    1    1    2    0    0  0.45164954453E+02  0.19201078091E+03 -0.93186131571E+03  0.96669463887E+03  0.16500000000E+03 0.  0.
   -5000001    1    1    2    0    0 -0.45164954453E+02 -0.19201078091E+03 -0.63327407627E+03  0.68349767284E+03  0.16500000000E+03 0.  0.
<mgrwt>
<rscale>  0 0.52295877E+03</rscale>
<asrwt>0</asrwt>
<pdfrwt beam="1">  1        2 0.24733285E+00 0.52295877E+03</pdfrwt>
<pdfrwt beam="2">  1       -2 0.65428412E-02 0.52295877E+03</pdfrwt>
<totfact> 0.15300086E+03</totfact>
</mgrwt>
</event>
<event>
 4    1  0.9050888E-005  0.4380626E+03  0.7818608E-02  0.1031343E+00
          2   -1    0    0  501    0  0.00000000000E+00  0.00000000000E+00  0.21003335001E+04  0.21003335001E+04  0.25500000000E-02 0.  1.
         -2   -1    0    0    0  501 -0.00000000000E+00 -0.00000000000E+00 -0.22841474691E+02  0.22841474833E+02  0.25500000000E-02 0. -1.
    5000001    1    1    2    0    0 -0.24494016155E+02  0.13323419540E+03  0.80138410093E+03  0.82933273471E+03  0.16500000000E+03 0.  0.
   -5000001    1    1    2    0    0  0.24494016155E+02 -0.13323419540E+03  0.12761079245E+04  0.12938422402E+04  0.16500000000E+03 0.  0.
<mgrwt>
<rscale>  0 0.43806262E+03</rscale>
<asrwt>0</asrwt>
<pdfrwt beam="1">  1        2 0.32312828E+00 0.43806262E+03</pdfrwt>
<pdfrwt beam="2">  1       -2 0.35140725E-02 0.43806262E+03</pdfrwt>
<totfact> 0.21755285E+03</totfact>
</mgrwt>
</event>
<event>
 4    1  0.9050888E-005  0.4201566E+03  0.7818608E-02  0.1037015E+00
         -2   -1    0    0    0  501 -0.00000000000E+00  0.00000000000E+00  0.67956577340E+02  0.67956577388E+02  0.25500000000E-02 0. -1.
          2   -1    0    0  501    0  0.00000000000E+00 -0.00000000000E+00 -0.64942793977E+03  0.64942793977E+03  0.25500000000E-02 0.  1.
    5000001    1    1    2    0    0 -0.11774477460E+03 -0.32019243083E+02 -0.36745262760E+03  0.42087468136E+03  0.16500000000E+03 0.  0.
   -5000001    1    1    2    0    0  0.11774477460E+03  0.32019243083E+02 -0.21401873482E+03  0.29650983580E+03  0.16500000000E+03 0.  0.
<mgrwt>
<rscale>  0 0.42015664E+03</rscale>
<asrwt>0</asrwt>
<pdfrwt beam="1">  1        2 0.99911986E-01 0.42015664E+03</pdfrwt>
<pdfrwt beam="2">  1       -2 0.10454859E-01 0.42015664E+03</pdfrwt>
<totfact> 0.28541176E+03</totfact>
</mgrwt>
</event>
<event>
 4    1  0.9050888E-005  0.4071967E+03  0.7818608E-02  0.1041316E+00
         -2   -1    0    0    0  501 -0.00000000000E+00  0.00000000000E+00  0.64202769249E+02  0.64202769300E+02  0.25500000000E-02 0. -1.
          2   -1    0    0  501    0  0.00000000000E+00 -0.00000000000E+00 -0.64564631385E+03  0.64564631385E+03  0.25500000000E-02 0.  1.
    5000001    1    1    2    0    0  0.72819625250E+02  0.90268142472E+02 -0.33929103238E+03  0.39470804403E+03  0.16500000000E+03 0.  0.
   -5000001    1    1    2    0    0 -0.72819625250E+02 -0.90268142472E+02 -0.24215251222E+03  0.31514103913E+03  0.16500000000E+03 0.  0.
<mgrwt>
<rscale>  0 0.40719667E+03</rscale>
<asrwt>0</asrwt>
<pdfrwt beam="1">  1        2 0.99330198E-01 0.40719667E+03</pdfrwt>
<pdfrwt beam="2">  1       -2 0.98773496E-02 0.40719667E+03</pdfrwt>
<totfact> 0.31484943E+03</totfact>
</mgrwt>
</event>
<event>
 4    1  0.9050888E-005  0.4977439E+03  0.7818608E-02  0.1014369E+00
          2   -1    0    0  501    0  0.00000000000E+00  0.00000000000E+00  0.88883345547E+02  0.88883345583E+02  0.25500000000E-02 0.  1.
         -2   -1    0    0    0  501 -0.00000000000E+00 -0.00000000000E+00 -0.69683743530E+03  0.69683743530E+03  0.25500000000E-02 0. -1.
    5000001    1    1    2    0    0  0.71652874790E+02 -0.16586366490E+03 -0.23220263914E+03  0.33732470325E+03  0.16500000000E+03 0.  0.
   -5000001    1    1    2    0    0 -0.71652874790E+02  0.16586366490E+03 -0.37575145061E+03  0.44839607763E+03  0.16500000000E+03 0.  0.
<mgrwt>
<rscale>  0 0.49774388E+03</rscale>
<asrwt>0</asrwt>
<pdfrwt beam="1">  1        2 0.13674361E-01 0.49774388E+03</pdfrwt>
<pdfrwt beam="2">  1       -2 0.10720576E+00 0.49774388E+03</pdfrwt>
<totfact> 0.31783813E+02</totfact>
</mgrwt>
</event>
<event>
 4    1  0.9050888E-005  0.4696888E+03  0.7818608E-02  0.1022008E+00
         -2   -1    0    0    0  501 -0.00000000000E+00  0.00000000000E+00  0.58091820631E+02  0.58091820687E+02  0.25500000000E-02 0. -1.
          2   -1    0    0  501    0  0.00000000000E+00 -0.00000000000E+00 -0.94939174932E+03  0.94939174932E+03  0.25500000000E-02 0.  1.
    5000001    1    1    2    0    0  0.85275226570E+02 -0.69513550243E+02 -0.17583206244E+03  0.26503945389E+03  0.16500000000E+03 0.  0.
   -5000001    1    1    2    0    0 -0.85275226570E+02  0.69513550243E+02 -0.71546786624E+03  0.74244411612E+03  0.16500000000E+03 0.  0.
<mgrwt>
<rscale>  0 0.46968881E+03</rscale>
<asrwt>0</asrwt>
<pdfrwt beam="1">  1        2 0.14606026E+00 0.46968881E+03</pdfrwt>
<pdfrwt beam="2">  1       -2 0.89372039E-02 0.46968881E+03</pdfrwt>
<totfact> 0.22459306E+03</totfact>
</mgrwt>
</event>
<event>
 4    1  0.9050888E-005  0.9620777E+03  0.7818608E-02  0.9351144E-01
          2   -1    0    0  501    0  0.00000000000E+00  0.00000000000E+00  0.62721386137E+03  0.62721386137E+03  0.25500000000E-02 0. -1.
         -2   -1    0    0    0  501 -0.00000000000E+00 -0.00000000000E+00 -0.36893055223E+03  0.36893055224E+03  0.25500000000E-02 0.  1.
    5000001    1    1    2    0    0  0.43986634720E+03  0.78145758882E+02  0.19924578885E+03  0.51624901686E+03  0.16500000000E+03 0.  0.
   -5000001    1    1    2    0    0 -0.43986634720E+03 -0.78145758882E+02  0.59037520288E+02  0.47989539676E+03  0.16500000000E+03 0.  0.
<mgrwt>
<rscale>  0 0.96207766E+03</rscale>
<asrwt>0</asrwt>
<pdfrwt beam="1">  1        2 0.96494439E-01 0.96207766E+03</pdfrwt>
<pdfrwt beam="2">  1       -2 0.56758547E-01 0.96207766E+03</pdfrwt>
<totfact> 0.13689331E+02</totfact>
</mgrwt>
</event>
<event>
 4    1  0.9050888E-005  0.5507312E+03  0.7818608E-02  0.1001325E+00
         -2   -1    0    0    0  501 -0.00000000000E+00  0.00000000000E+00  0.76506279025E+02  0.76506279068E+02  0.25500000000E-02 0. -1.
          2   -1    0    0  501    0  0.00000000000E+00 -0.00000000000E+00 -0.99111091204E+03  0.99111091204E+03  0.25500000000E-02 0.  1.
    5000001    1    1    2    0    0  0.19044849604E+03  0.10965816005E+03 -0.42341012360E+03  0.50477388451E+03  0.16500000000E+03 0.  0.
   -5000001    1    1    2    0    0 -0.19044849604E+03 -0.10965816005E+03 -0.49119450941E+03  0.56284330660E+03  0.16500000000E+03 0.  0.
<mgrwt>
<rscale>  0 0.55073118E+03</rscale>
<asrwt>0</asrwt>
<pdfrwt beam="1">  1        2 0.15247859E+00 0.55073118E+03</pdfrwt>
<pdfrwt beam="2">  1       -2 0.11770198E-01 0.55073118E+03</pdfrwt>
<totfact> 0.13511748E+03</totfact>
</mgrwt>
</event>
<event>
 4    1  0.9050888E-005  0.4100512E+03  0.7818608E-02  0.1040354E+00
          2   -1    0    0  501    0  0.00000000000E+00  0.00000000000E+00  0.45137455429E+03  0.45137455430E+03  0.25500000000E-02 0.  1.
         -2   -1    0    0    0  501 -0.00000000000E+00 -0.00000000000E+00 -0.93127741225E+02  0.93127741260E+02  0.25500000000E-02 0. -1.
    5000001    1    1    2    0    0 -0.75297477976E+02  0.95534252211E+02  0.18408998761E+03  0.27551883252E+03  0.16500000000E+03 0.  0.
   -5000001    1    1    2    0    0  0.75297477976E+02 -0.95534252211E+02  0.17415682546E+03  0.26898346304E+03  0.16500000000E+03 0.  0.
<mgrwt>
<rscale>  0 0.41005118E+03</rscale>
<asrwt>0</asrwt>
<pdfrwt beam="1">  1        2 0.69442240E-01 0.41005118E+03</pdfrwt>
<pdfrwt beam="2">  1       -2 0.14327345E-01 0.41005118E+03</pdfrwt>
<totfact> 0.25961744E+03</totfact>
</mgrwt>
</event>
<event>
 4    1  0.9050888E-005  0.4826726E+03  0.7818608E-02  0.1018403E+00
         -2   -1    0    0    0  501 -0.00000000000E+00  0.00000000000E+00  0.68790996855E+02  0.68790996902E+02  0.25500000000E-02 0. -1.
          2   -1    0    0  501    0  0.00000000000E+00 -0.00000000000E+00 -0.84666890776E+03  0.84666890776E+03  0.25500000000E-02 0.  1.
    5000001    1    1    2    0    0 -0.50475202866E+02 -0.15244827030E+03 -0.25177606982E+03  0.34118090591E+03  0.16500000000E+03 0.  0.
   -5000001    1    1    2    0    0  0.50475202866E+02  0.15244827030E+03 -0.52610184108E+03  0.57427899876E+03  0.16500000000E+03 0.  0.
<mgrwt>
<rscale>  0 0.48267255E+03</rscale>
<asrwt>0</asrwt>
<pdfrwt beam="1">  1        2 0.13025675E+00 0.48267255E+03</pdfrwt>
<pdfrwt beam="2">  1       -2 0.10583231E-01 0.48267255E+03</pdfrwt>
<totfact> 0.20013142E+03</totfact>
</mgrwt>
</event>
<event>
 4    1  0.9050888E-005  0.4276622E+03  0.7818608E-02  0.1034601E+00
         -2   -1    0    0    0  501 -0.00000000000E+00  0.00000000000E+00  0.57330197669E+02  0.57330197726E+02  0.25500000000E-02 0. -1.
          2   -1    0    0  501    0  0.00000000000E+00 -0.00000000000E+00 -0.79755061652E+03  0.79755061652E+03  0.25500000000E-02 0.  1.
    5000001    1    1    2    0    0  0.13573460611E+03 -0.77075482189E+01 -0.36225427890E+03  0.42063814875E+03  0.16500000000E+03 0.  0.
   -5000001    1    1    2    0    0 -0.13573460611E+03  0.77075482189E+01 -0.37796613995E+03  0.43424266550E+03  0.16500000000E+03 0.  0.
<mgrwt>
<rscale>  0 0.42766218E+03</rscale>
<asrwt>0</asrwt>
<pdfrwt beam="1">  1        2 0.12270009E+00 0.42766218E+03</pdfrwt>
<pdfrwt beam="2">  1       -2 0.88200310E-02 0.42766218E+03</pdfrwt>
<totfact> 0.29004443E+03</totfact>
</mgrwt>
</event>
<event>
 4    1  0.9050888E-005  0.5691473E+03  0.7818608E-02  0.9971567E-01
         -2   -1    0    0    0  501 -0.00000000000E+00  0.00000000000E+00  0.90607909389E+02  0.90607909425E+02  0.25500000000E-02 0. -1.
          2   -1    0    0  501    0  0.00000000000E+00 -0.00000000000E+00 -0.89376480190E+03  0.89376480190E+03  0.25500000000E-02 0.  1.
    5000001    1    1    2    0    0 -0.15205629153E+03 -0.23860441960E+02 -0.10167742490E+03  0.24749491958E+03  0.16500000000E+03 0.  0.
   -5000001    1    1    2    0    0  0.15205629153E+03  0.23860441960E+02 -0.70147946761E+03  0.73687779174E+03  0.16500000000E+03 0.  0.
<mgrwt>
<rscale>  0 0.56914729E+03</rscale>
<asrwt>0</asrwt>
<pdfrwt beam="1">  1        2 0.13750227E+00 0.56914729E+03</pdfrwt>
<pdfrwt beam="2">  1       -2 0.13939679E-01 0.56914729E+03</pdfrwt>
<totfact> 0.11810495E+03</totfact>
</mgrwt>
</event>
<event>
 4    1  0.9050888E-005  0.6042573E+03  0.7818608E-02  0.9896613E-01
         -2   -1    0    0    0  501 -0.00000000000E+00  0.00000000000E+00  0.34728202449E+02  0.34728202543E+02  0.25500000000E-02 0. -1.
          2   -1    0    0  501    0  0.00000000000E+00 -0.00000000000E+00 -0.26284612881E+04  0.26284612881E+04  0.25500000000E-02 0.  1.
    5000001    1    1    2    0    0 -0.87523311665E+02  0.23610426868E+03 -0.11843980989E+04  0.12220594963E+04  0.16500000000E+03 0.  0.
   -5000001    1    1    2    0    0  0.87523311665E+02 -0.23610426868E+03 -0.14093349867E+04  0.14411299943E+04  0.16500000000E+03 0.  0.
<mgrwt>
<rscale>  0 0.60425735E+03</rscale>
<asrwt>0</asrwt>
<pdfrwt beam="1">  1        2 0.40437850E+00 0.60425735E+03</pdfrwt>
<pdfrwt beam="2">  1       -2 0.53428024E-02 0.60425735E+03</pdfrwt>
<totfact> 0.57567576E+02</totfact>
</mgrwt>
</event>
<event>
 4    1  0.9050888E-005  0.4437605E+03  0.7818608E-02  0.1029599E+00
          2   -1    0    0  501    0  0.00000000000E+00  0.00000000000E+00  0.12110173875E+04  0.12110173875E+04  0.25500000000E-02 0.  1.
         -2   -1    0    0    0  501 -0.00000000000E+00 -0.00000000000E+00 -0.40652467829E+02  0.40652467909E+02  0.25500000000E-02 0. -1.
    5000001    1    1    2    0    0 -0.14551685966E+03 -0.26525842359E+02  0.61697757558E+03  0.65556472261E+03  0.16500000000E+03 0.  0.
   -5000001    1    1    2    0    0  0.14551685966E+03  0.26525842359E+02  0.55338734412E+03  0.59610513283E+03  0.16500000000E+03 0.  0.
<mgrwt>
<rscale>  0 0.44376050E+03</rscale>
<asrwt>0</asrwt>
<pdfrwt beam="1">  1        2 0.18631039E+00 0.44376050E+03</pdfrwt>
<pdfrwt beam="2">  1       -2 0.62542252E-02 0.44376050E+03</pdfrwt>
<totfact> 0.27367205E+03</totfact>
</mgrwt>
</event>
<event>
 4    1  0.9050888E-005  0.3882010E+03  0.7818608E-02  0.1047944E+00
          2   -1    0    0  501    0  0.00000000000E+00  0.00000000000E+00  0.78519647742E+03  0.78519647743E+03  0.25500000000E-02 0.  1.
         -2   -1    0    0    0  501 -0.00000000000E+00 -0.00000000000E+00 -0.47981614669E+02  0.47981614737E+02  0.25500000000E-02 0. -1.
    5000001    1    1    2    0    0  0.53617696690E+00 -0.96856483412E+02  0.29844988387E+03  0.35451205768E+03  0.16500000000E+03 0.  0.
   -5000001    1    1    2    0    0 -0.53617696690E+00  0.96856483412E+02  0.43876497889E+03  0.47866603448E+03  0.16500000000E+03 0.  0.
<mgrwt>
<rscale>  0 0.38820095E+03</rscale>
<asrwt>0</asrwt>
<pdfrwt beam="1">  1        2 0.12079945E+00 0.38820095E+03</pdfrwt>
<pdfrwt beam="2">  1       -2 0.73817874E-02 0.38820095E+03</pdfrwt>
<totfact> 0.39172452E+03</totfact>
</mgrwt>
</event>
<event>
 4    1  0.9050888E-005  0.3754536E+03  0.7818608E-02  0.1052627E+00
          2   -1    0    0  501    0  0.00000000000E+00  0.00000000000E+00  0.10865187723E+03  0.10865187726E+03  0.25500000000E-02 0.  1.
         -2   -1    0    0    0  501 -0.00000000000E+00 -0.00000000000E+00 -0.32435110347E+03  0.32435110348E+03  0.25500000000E-02 0. -1.
    5000001    1    1    2    0    0 -0.81925396809E+00 -0.85850888298E+02 -0.78552906019E+02  0.20190741750E+03  0.16500000000E+03 0.  0.
   -5000001    1    1    2    0    0  0.81925396809E+00  0.85850888298E+02 -0.13714632022E+03  0.23109556324E+03  0.16500000000E+03 0.  0.
<mgrwt>
<rscale>  0 0.37545363E+03</rscale>
<asrwt>0</asrwt>
<pdfrwt beam="1">  1        2 0.16715674E-01 0.37545363E+03</pdfrwt>
<pdfrwt beam="2">  1       -2 0.49900169E-01 0.37545363E+03</pdfrwt>
<totfact> 0.13296233E+03</totfact>
</mgrwt>
</event>
<event>
 4    1  0.9050888E-005  0.6067490E+03  0.7818608E-02  0.9891502E-01
         -2   -1    0    0    0  501 -0.00000000000E+00  0.00000000000E+00  0.45582538065E+03  0.45582538066E+03  0.25500000000E-02 0. -1.
          2   -1    0    0  501    0  0.00000000000E+00 -0.00000000000E+00 -0.20191082247E+03  0.20191082249E+03  0.25500000000E-02 0.  1.
    5000001    1    1    2    0    0 -0.14365208345E+03  0.19775260355E+03  0.20413760314E+03  0.35866303728E+03  0.16500000000E+03 0.  0.
   -5000001    1    1    2    0    0  0.14365208345E+03 -0.19775260355E+03  0.49776955037E+02  0.29907316587E+03  0.16500000000E+03 0.  0.
<mgrwt>
<rscale>  0 0.60674897E+03</rscale>
<asrwt>0</asrwt>
<pdfrwt beam="1">  1        2 0.31063203E-01 0.60674897E+03</pdfrwt>
<pdfrwt beam="2">  1       -2 0.70126982E-01 0.60674897E+03</pdfrwt>
<totfact> 0.32009927E+02</totfact>
</mgrwt>
</event>
<event>
 4    1  0.9050888E-005  0.5906673E+03  0.7818608E-02  0.9924960E-01
          2   -1    0    0  501    0  0.00000000000E+00  0.00000000000E+00  0.45786900244E+03  0.45786900245E+03  0.25500000000E-02 0.  1.
         -2   -1    0    0    0  501 -0.00000000000E+00 -0.00000000000E+00 -0.19049548399E+03  0.19049548401E+03  0.25500000000E-02 0. -1.
    5000001    1    1    2    0    0 -0.39535322978E+02  0.23524877170E+03  0.72649847343E+02  0.29901175005E+03  0.16500000000E+03 0.  0.
   -5000001    1    1    2    0    0  0.39535322978E+02 -0.23524877170E+03  0.19472367110E+03  0.34935273641E+03  0.16500000000E+03 0.  0.
<mgrwt>
<rscale>  0 0.59066734E+03</rscale>
<asrwt>0</asrwt>
<pdfrwt beam="1">  1        2 0.70441384E-01 0.59066734E+03</pdfrwt>
<pdfrwt beam="2">  1       -2 0.29306998E-01 0.59066734E+03</pdfrwt>
<totfact> 0.73385442E+02</totfact>
</mgrwt>
</event>
<event>
 4    1  0.9050888E-005  0.4136492E+03  0.7818608E-02  0.1039153E+00
         -2   -1    0    0    0  501 -0.00000000000E+00  0.00000000000E+00  0.49362333290E+02  0.49362333355E+02  0.25500000000E-02 0. -1.
          2   -1    0    0  501    0  0.00000000000E+00 -0.00000000000E+00 -0.86658024390E+03  0.86658024390E+03  0.25500000000E-02 0.  1.
    5000001    1    1    2    0    0 -0.34150227369E+02  0.10967898922E+03 -0.30113669246E+03  0.36208289969E+03  0.16500000000E+03 0.  0.
   -5000001    1    1    2    0    0  0.34150227369E+02 -0.10967898922E+03 -0.51608121815E+03  0.55385967756E+03  0.16500000000E+03 0.  0.
<mgrwt>
<rscale>  0 0.41364924E+03</rscale>
<asrwt>0</asrwt>
<pdfrwt beam="1">  1        2 0.13332003E+00 0.41364924E+03</pdfrwt>
<pdfrwt beam="2">  1       -2 0.75942058E-02 0.41364924E+03</pdfrwt>
<totfact> 0.32943721E+03</totfact>
</mgrwt>
</event>
<event>
 4    1  0.9050888E-005  0.4535867E+03  0.7818608E-02  0.1026658E+00
          2   -1    0    0  501    0  0.00000000000E+00  0.00000000000E+00  0.10990245541E+04  0.10990245541E+04  0.25500000000E-02 0.  1.
         -2   -1    0    0    0  501 -0.00000000000E+00 -0.00000000000E+00 -0.46800785448E+02  0.46800785517E+02  0.25500000000E-02 0. -1.
    5000001    1    1    2    0    0 -0.90760437695E+02  0.23022980915E+02  0.84003243162E+03  0.86118929445E+03  0.16500000000E+03 0.  0.
   -5000001    1    1    2    0    0  0.90760437695E+02 -0.23022980915E+02  0.21219133705E+03  0.28463604518E+03  0.16500000000E+03 0.  0.
<mgrwt>
<rscale>  0 0.45358665E+03</rscale>
<asrwt>0</asrwt>
<pdfrwt beam="1">  1        2 0.16908069E+00 0.45358665E+03</pdfrwt>
<pdfrwt beam="2">  1       -2 0.72001211E-02 0.45358665E+03</pdfrwt>
<totfact> 0.25549112E+03</totfact>
</mgrwt>
</event>
<event>
 4    1  0.9050888E-005  0.3512193E+03  0.7818608E-02  0.1062116E+00
          2   -1    0    0  501    0  0.00000000000E+00  0.00000000000E+00  0.14607487413E+03  0.14607487416E+03  0.25500000000E-02 0.  1.
         -2   -1    0    0    0  501 -0.00000000000E+00 -0.00000000000E+00 -0.21111600508E+03  0.21111600509E+03  0.25500000000E-02 0. -1.
    5000001    1    1    2    0    0  0.39640896663E+02 -0.31195318617E+02  0.73394371887E+00  0.17254010335E+03  0.16500000000E+03 0.  0.
   -5000001    1    1    2    0    0 -0.39640896663E+02  0.31195318617E+02 -0.65775074661E+02  0.18465077589E+03  0.16500000000E+03 0.  0.
<mgrwt>
<rscale>  0 0.35121927E+03</rscale>
<asrwt>0</asrwt>
<pdfrwt beam="1">  1        2 0.22473058E-01 0.35121927E+03</pdfrwt>
<pdfrwt beam="2">  1       -2 0.32479385E-01 0.35121927E+03</pdfrwt>
<totfact> 0.21548646E+03</totfact>
</mgrwt>
</event>
<event>
 4    1  0.9050888E-005  0.4668007E+03  0.7818608E-02  0.1022827E+00
          2   -1    0    0  501    0  0.00000000000E+00  0.00000000000E+00  0.15251733235E+03  0.15251733237E+03  0.25500000000E-02 0.  1.
         -2   -1    0    0    0  501 -0.00000000000E+00 -0.00000000000E+00 -0.35717720365E+03  0.35717720366E+03  0.25500000000E-02 0. -1.
    5000001    1    1    2    0    0 -0.98649384107E+02 -0.11549710847E+03 -0.17291894834E+03  0.28319118232E+03  0.16500000000E+03 0.  0.
   -5000001    1    1    2    0    0  0.98649384107E+02  0.11549710847E+03 -0.31740922961E+02  0.22650335371E+03  0.16500000000E+03 0.  0.
<mgrwt>
<rscale>  0 0.46680066E+03</rscale>
<asrwt>0</asrwt>
<pdfrwt beam="1">  1        2 0.23464205E-01 0.46680066E+03</pdfrwt>
<pdfrwt beam="2">  1       -2 0.54950339E-01 0.46680066E+03</pdfrwt>
<totfact> 0.73793574E+02</totfact>
</mgrwt>
</event>
<event>
 4    1  0.9050888E-005  0.5409324E+03  0.7818608E-02  0.1003615E+00
         -2   -1    0    0    0  501 -0.00000000000E+00  0.00000000000E+00  0.23368188773E+02  0.23368188912E+02  0.25500000000E-02 0. -1.
          2   -1    0    0  501    0  0.00000000000E+00 -0.00000000000E+00 -0.31304084408E+04  0.31304084408E+04  0.25500000000E-02 0.  1.
    5000001    1    1    2    0    0 -0.90069057506E+01 -0.21140051117E+03 -0.17517211017E+04  0.17721521150E+04  0.16500000000E+03 0.  0.
   -5000001    1    1    2    0    0  0.90069057506E+01  0.21140051117E+03 -0.13553191503E+04  0.13816245147E+04  0.16500000000E+03 0.  0.
<mgrwt>
<rscale>  0 0.54093244E+03</rscale>
<asrwt>0</asrwt>
<pdfrwt beam="1">  1        2 0.48160097E+00 0.54093244E+03</pdfrwt>
<pdfrwt beam="2">  1       -2 0.35951085E-02 0.54093244E+03</pdfrwt>
<totfact> 0.53655611E+02</totfact>
</mgrwt>
</event>
<event>
 4    1  0.9050888E-005  0.6154237E+03  0.7818608E-02  0.9873914E-01
          2   -1    0    0  501    0  0.00000000000E+00  0.00000000000E+00  0.10267015256E+04  0.10267015256E+04  0.25500000000E-02 0.  1.
         -2   -1    0    0    0  501 -0.00000000000E+00 -0.00000000000E+00 -0.92224056634E+02  0.92224056669E+02  0.25500000000E-02 0. -1.
    5000001    1    1    2    0    0 -0.11296279871E+03  0.20842654407E+03  0.27431579308E+03  0.39834202954E+03  0.16500000000E+03 0.  0.
   -5000001    1    1    2    0    0  0.11296279871E+03 -0.20842654407E+03  0.66016167590E+03  0.72058355274E+03  0.16500000000E+03 0.  0.
<mgrwt>
<rscale>  0 0.61542369E+03</rscale>
<asrwt>0</asrwt>
<pdfrwt beam="1">  1        2 0.15795409E+00 0.61542369E+03</pdfrwt>
<pdfrwt beam="2">  1       -2 0.14188315E-01 0.61542369E+03</pdfrwt>
<totfact> 0.93980673E+02</totfact>
</mgrwt>
</event>
<event>
 4    1  0.9050888E-005  0.5925572E+03  0.7818608E-02  0.9920969E-01
          2   -1    0    0  501    0  0.00000000000E+00  0.00000000000E+00  0.65336863384E+02  0.65336863434E+02  0.25500000000E-02 0.  1.
         -2   -1    0    0    0  501 -0.00000000000E+00 -0.00000000000E+00 -0.13435142011E+04  0.13435142011E+04  0.25500000000E-02 0. -1.
    5000001    1    1    2    0    0  0.20782319346E+03 -0.15732097954E+01 -0.95237959335E+03  0.98865810296E+03  0.16500000000E+03 0.  0.
   -5000001    1    1    2    0    0 -0.20782319346E+03  0.15732097954E+01 -0.32579774440E+03  0.42019296161E+03  0.16500000000E+03 0.  0.
<mgrwt>
<rscale>  0 0.59255718E+03</rscale>
<asrwt>0</asrwt>
<pdfrwt beam="1">  1        2 0.10051826E-01 0.59255718E+03</pdfrwt>
<pdfrwt beam="2">  1       -2 0.20669447E+00 0.59255718E+03</pdfrwt>
<totfact> 0.81609242E+01</totfact>
</mgrwt>
</event>
<event>
 4    1  0.9050888E-005  0.4407524E+03  0.7818608E-02  0.1030516E+00
          2   -1    0    0  501    0  0.00000000000E+00  0.00000000000E+00  0.58723069788E+03  0.58723069789E+03  0.25500000000E-02 0.  1.
         -2   -1    0    0    0  501 -0.00000000000E+00 -0.00000000000E+00 -0.82702890567E+02  0.82702890607E+02  0.25500000000E-02 0. -1.
    5000001    1    1    2    0    0 -0.67787469593E+02  0.85104827485E+02  0.10409378602E+03  0.22337969689E+03  0.16500000000E+03 0.  0.
   -5000001    1    1    2    0    0  0.67787469593E+02 -0.85104827485E+02  0.40043402130E+03  0.44655389160E+03  0.16500000000E+03 0.  0.
<mgrwt>
<rscale>  0 0.44075243E+03</rscale>
<asrwt>0</asrwt>
<pdfrwt beam="1">  1        2 0.90343183E-01 0.44075243E+03</pdfrwt>
<pdfrwt beam="2">  1       -2 0.12723522E-01 0.44075243E+03</pdfrwt>
<totfact> 0.23382938E+03</totfact>
</mgrwt>
</event>
<event>
 4    1  0.9050888E-005  0.3728590E+03  0.7818608E-02  0.1053605E+00
          2   -1    0    0  501    0  0.00000000000E+00  0.00000000000E+00  0.24975536614E+03  0.24975536615E+03  0.25500000000E-02 0.  1.
         -2   -1    0    0    0  501 -0.00000000000E+00 -0.00000000000E+00 -0.13916000145E+03  0.13916000148E+03  0.25500000000E-02 0. -1.
    5000001    1    1    2    0    0 -0.34736986885E+02  0.78592195155E+02  0.67968458798E+02  0.19806085628E+03  0.16500000000E+03 0.  0.
   -5000001    1    1    2    0    0  0.34736986885E+02 -0.78592195155E+02  0.42626905884E+02  0.19085451135E+03  0.16500000000E+03 0.  0.
<mgrwt>
<rscale>  0 0.37285899E+03</rscale>
<asrwt>0</asrwt>
<pdfrwt beam="1">  1        2 0.38423902E-01 0.37285899E+03</pdfrwt>
<pdfrwt beam="2">  1       -2 0.21409231E-01 0.37285899E+03</pdfrwt>
<totfact> 0.25073767E+03</totfact>
</mgrwt>
</event>
<event>
 4    1  0.9050888E-005  0.6198292E+03  0.7818608E-02  0.9865100E-01
          2   -1    0    0  501    0  0.00000000000E+00  0.00000000000E+00  0.10610689168E+04  0.10610689168E+04  0.25500000000E-02 0.  1.
         -2   -1    0    0    0  501 -0.00000000000E+00 -0.00000000000E+00 -0.90519158629E+02  0.90519158665E+02  0.25500000000E-02 0. -1.
    5000001    1    1    2    0    0 -0.18721112028E+03  0.98477256285E+02  0.77355846429E+03  0.81875727248E+03  0.16500000000E+03 0.  0.
   -5000001    1    1    2    0    0  0.18721112028E+03 -0.98477256285E+02  0.19699129391E+03  0.33283080302E+03  0.16500000000E+03 0.  0.
<mgrwt>
<rscale>  0 0.61982922E+03</rscale>
<asrwt>0</asrwt>
<pdfrwt beam="1">  1        2 0.16324138E+00 0.61982922E+03</pdfrwt>
<pdfrwt beam="2">  1       -2 0.13926024E-01 0.61982922E+03</pdfrwt>
<totfact> 0.92297038E+02</totfact>
</mgrwt>
</event>
<event>
 4    1  0.9050888E-005  0.5373914E+03  0.7818608E-02  0.1004455E+00
          2   -1    0    0  501    0  0.00000000000E+00  0.00000000000E+00  0.18080459828E+04  0.18080459828E+04  0.25500000000E-02 0.  1.
         -2   -1    0    0    0  501 -0.00000000000E+00 -0.00000000000E+00 -0.39931168786E+02  0.39931168867E+02  0.25500000000E-02 0. -1.
    5000001    1    1    2    0    0  0.19175027741E+03  0.29478720769E+02  0.58953890016E+03  0.64219800581E+03  0.16500000000E+03 0.  0.
   -5000001    1    1    2    0    0 -0.19175027741E+03 -0.29478720769E+02  0.11785759138E+04  0.12057791458E+04  0.16500000000E+03 0.  0.
<mgrwt>
<rscale>  0 0.53739144E+03</rscale>
<asrwt>0</asrwt>
<pdfrwt beam="1">  1        2 0.27816091E+00 0.53739144E+03</pdfrwt>
<pdfrwt beam="2">  1       -2 0.61432569E-02 0.53739144E+03</pdfrwt>
<totfact> 0.13150069E+03</totfact>
</mgrwt>
</event>
<event>
 4    1  0.9050888E-005  0.6241131E+03  0.7818608E-02  0.9856604E-01
          2   -1    0    0  501    0  0.00000000000E+00  0.00000000000E+00  0.49059118324E+03  0.49059118325E+03  0.25500000000E-02 0.  1.
         -2   -1    0    0    0  501 -0.00000000000E+00 -0.00000000000E+00 -0.19849377135E+03  0.19849377136E+03  0.25500000000E-02 0. -1.
    5000001    1    1    2    0    0 -0.67465662241E+02  0.20249303748E+03 -0.27120385913E+02  0.27113753178E+03  0.16500000000E+03 0.  0.
   -5000001    1    1    2    0    0  0.67465662241E+02 -0.20249303748E+03  0.31921779781E+03  0.41794742283E+03  0.16500000000E+03 0.  0.
<mgrwt>
<rscale>  0 0.62411311E+03</rscale>
<asrwt>0</asrwt>
<pdfrwt beam="1">  1        2 0.75475567E-01 0.62411311E+03</pdfrwt>
<pdfrwt beam="2">  1       -2 0.30537503E-01 0.62411311E+03</pdfrwt>
<totfact> 0.62814933E+02</totfact>
</mgrwt>
</event>
<event>
 4    1  0.9050888E-005  0.3440059E+03  0.7818608E-02  0.1065102E+00
         -2   -1    0    0    0  501 -0.00000000000E+00  0.00000000000E+00  0.25533312781E+02  0.25533312908E+02  0.25500000000E-02 0. -1.
          2   -1    0    0  501    0  0.00000000000E+00 -0.00000000000E+00 -0.11586832478E+04  0.11586832478E+04  0.25500000000E-02 0.  1.
    5000001    1    1    2    0    0 -0.38788979226E+02 -0.28270628040E+02 -0.54076625544E+03  0.56741250986E+03  0.16500000000E+03 0.  0.
   -5000001    1    1    2    0    0  0.38788979226E+02  0.28270628040E+02 -0.59238367960E+03  0.61680405088E+03  0.16500000000E+03 0.  0.
<mgrwt>
<rscale>  0 0.34400594E+03</rscale>
<asrwt>0</asrwt>
<pdfrwt beam="1">  1        2 0.17825892E+00 0.34400594E+03</pdfrwt>
<pdfrwt beam="2">  1       -2 0.39282029E-02 0.34400594E+03</pdfrwt>
<totfact> 0.59846866E+03</totfact>
</mgrwt>
</event>
<event>
 4    1  0.9050888E-005  0.6054374E+03  0.7818608E-02  0.9894189E-01
          2   -1    0    0  501    0  0.00000000000E+00  0.00000000000E+00  0.20198248981E+03  0.20198248983E+03  0.25500000000E-02 0.  1.
         -2   -1    0    0    0  501 -0.00000000000E+00 -0.00000000000E+00 -0.45369577707E+03  0.45369577707E+03  0.25500000000E-02 0. -1.
    5000001    1    1    2    0    0 -0.24126787382E+03  0.67026083319E+02 -0.17065235133E+03  0.34503609637E+03  0.16500000000E+03 0.  0.
   -5000001    1    1    2    0    0  0.24126787382E+03 -0.67026083319E+02 -0.81060935928E+02  0.31064217053E+03  0.16500000000E+03 0.  0.
<mgrwt>
<rscale>  0 0.60543737E+03</rscale>
<asrwt>0</asrwt>
<pdfrwt beam="1">  1        2 0.31074229E-01 0.60543737E+03</pdfrwt>
<pdfrwt beam="2">  1       -2 0.69799350E-01 0.60543737E+03</pdfrwt>
<totfact> 0.32325684E+02</totfact>
</mgrwt>
</event>
<event>
 4    1  0.9050888E-005  0.3760171E+03  0.7818608E-02  0.1052416E+00
          2   -1    0    0  501    0  0.00000000000E+00  0.00000000000E+00  0.12428332776E+03  0.12428332778E+03  0.25500000000E-02 0.  1.
         -2   -1    0    0    0  501 -0.00000000000E+00 -0.00000000000E+00 -0.28440835170E+03  0.28440835171E+03  0.25500000000E-02 0. -1.
    5000001    1    1    2    0    0  0.25517783228E+01 -0.41911824288E+02 -0.16673597487E+03  0.23830442276E+03  0.16500000000E+03 0.  0.
   -5000001    1    1    2    0    0 -0.25517783228E+01  0.41911824288E+02  0.66109509267E+01  0.17038725674E+03  0.16500000000E+03 0.  0.
<mgrwt>
<rscale>  0 0.37601711E+03</rscale>
<asrwt>0</asrwt>
<pdfrwt beam="1">  1        2 0.19120512E-01 0.37601711E+03</pdfrwt>
<pdfrwt beam="2">  1       -2 0.43755131E-01 0.37601711E+03</pdfrwt>
<totfact> 0.14736906E+03</totfact>
</mgrwt>
</event>
<event>
 4    1  0.9050888E-005  0.4791124E+03  0.7818608E-02  0.1019379E+00
         -2   -1    0    0    0  501 -0.00000000000E+00  0.00000000000E+00  0.31380351299E+03  0.31380351300E+03  0.25500000000E-02 0. -1.
          2   -1    0    0  501    0  0.00000000000E+00 -0.00000000000E+00 -0.18287616588E+03  0.18287616589E+03  0.25500000000E-02 0.  1.
    5000001    1    1    2    0    0  0.53641981326E+02 -0.16419167730E+03  0.84175835904E+02  0.25327246279E+03  0.16500000000E+03 0.  0.
   -5000001    1    1    2    0    0 -0.53641981326E+02  0.16419167730E+03  0.46751511213E+02  0.24340721611E+03  0.16500000000E+03 0.  0.
<mgrwt>
<rscale>  0 0.47911244E+03</rscale>
<asrwt>0</asrwt>
<pdfrwt beam="1">  1        2 0.28134795E-01 0.47911244E+03</pdfrwt>
<pdfrwt beam="2">  1       -2 0.48277463E-01 0.47911244E+03</pdfrwt>
<totfact> 0.78124787E+02</totfact>
</mgrwt>
</event>
<event>
 4    1  0.9050888E-005  0.5542781E+03  0.7818608E-02  0.1000509E+00
          2   -1    0    0  501    0  0.00000000000E+00  0.00000000000E+00  0.21054911803E+04  0.21054911803E+04  0.25500000000E-02 0.  1.
         -2   -1    0    0    0  501 -0.00000000000E+00 -0.00000000000E+00 -0.36478919081E+02  0.36478919170E+02  0.25500000000E-02 0. -1.
    5000001    1    1    2    0    0  0.19868497385E+03  0.60687494601E+02  0.72481215655E+03  0.77183959028E+03  0.16500000000E+03 0.  0.
   -5000001    1    1    2    0    0 -0.19868497385E+03 -0.60687494601E+02  0.13442001047E+04  0.13701305092E+04  0.16500000000E+03 0.  0.
<mgrwt>
<rscale>  0 0.55427806E+03</rscale>
<asrwt>0</asrwt>
<pdfrwt beam="1">  1        2 0.32392176E+00 0.55427806E+03</pdfrwt>
<pdfrwt beam="2">  1       -2 0.56121407E-02 0.55427806E+03</pdfrwt>
<totfact> 0.10451994E+03</totfact>
</mgrwt>
</event>
<event>
 4    1  0.9050888E-005  0.5138218E+03  0.7818608E-02  0.1010233E+00
          2   -1    0    0  501    0  0.00000000000E+00  0.00000000000E+00  0.23085610547E+04  0.23085610547E+04  0.25500000000E-02 0.  1.
         -2   -1    0    0    0  501 -0.00000000000E+00 -0.00000000000E+00 -0.28590630464E+02  0.28590630578E+02  0.25500000000E-02 0. -1.
    5000001    1    1    2    0    0  0.86736661892E+02  0.14594060235E+03  0.68612352671E+03  0.72581843586E+03  0.16500000000E+03 0.  0.
   -5000001    1    1    2    0    0 -0.86736661892E+02 -0.14594060235E+03  0.15938468975E+04  0.16113332494E+04  0.16500000000E+03 0.  0.
<mgrwt>
<rscale>  0 0.51382182E+03</rscale>
<asrwt>0</asrwt>
<pdfrwt beam="1">  1        2 0.35516321E+00 0.51382182E+03</pdfrwt>
<pdfrwt beam="2">  1       -2 0.43985590E-02 0.51382182E+03</pdfrwt>
<totfact> 0.11841670E+03</totfact>
</mgrwt>
</event>
<event>
 4    1  0.9050888E-005  0.3534679E+03  0.7818608E-02  0.1061201E+00
         -2   -1    0    0    0  501 -0.00000000000E+00  0.00000000000E+00  0.23356575477E+02  0.23356575616E+02  0.25500000000E-02 0. -1.
          2   -1    0    0  501    0  0.00000000000E+00 -0.00000000000E+00 -0.13373061950E+04  0.13373061950E+04  0.25500000000E-02 0.  1.
    5000001    1    1    2    0    0  0.39617077140E+02 -0.48342765511E+02 -0.61783927474E+03  0.64253941917E+03  0.16500000000E+03 0.  0.
   -5000001    1    1    2    0    0 -0.39617077140E+02  0.48342765511E+02 -0.69611034477E+03  0.71812335144E+03  0.16500000000E+03 0.  0.
<mgrwt>
<rscale>  0 0.35346792E+03</rscale>
<asrwt>0</asrwt>
<pdfrwt beam="1">  1        2 0.20573935E+00 0.35346792E+03</pdfrwt>
<pdfrwt beam="2">  1       -2 0.35933204E-02 0.35346792E+03</pdfrwt>
<totfact> 0.54238878E+03</totfact>
</mgrwt>
</event>
<event>
 4    1  0.9050888E-005  0.4724221E+03  0.7818608E-02  0.1021239E+00
          2   -1    0    0  501    0  0.00000000000E+00  0.00000000000E+00  0.25792097980E+04  0.25792097980E+04  0.25500000000E-02 0.  1.
         -2   -1    0    0    0  501 -0.00000000000E+00 -0.00000000000E+00 -0.21632847772E+02  0.21632847922E+02  0.25500000000E-02 0. -1.
    5000001    1    1    2    0    0 -0.37532903064E+02  0.15953393869E+03  0.15065029929E+04  0.15243477503E+04  0.16500000000E+03 0.  0.
   -5000001    1    1    2    0    0  0.37532903064E+02 -0.15953393869E+03  0.10510739573E+04  0.10764948956E+04  0.16500000000E+03 0.  0.
<mgrwt>
<rscale>  0 0.47242207E+03</rscale>
<asrwt>0</asrwt>
<pdfrwt beam="1">  1        2 0.39680153E+00 0.47242207E+03</pdfrwt>
<pdfrwt beam="2">  1       -2 0.33281303E-02 0.47242207E+03</pdfrwt>
<totfact> 0.12860873E+03</totfact>
</mgrwt>
</event>
<event>
 4    1  0.9050888E-005  0.5574669E+03  0.7818608E-02  0.9997803E-01
          2   -1    0    0  501    0  0.00000000000E+00  0.00000000000E+00  0.13198833602E+04  0.13198833602E+04  0.25500000000E-02 0.  1.
         -2   -1    0    0    0  501 -0.00000000000E+00 -0.00000000000E+00 -0.58863039681E+02  0.58863039736E+02  0.25500000000E-02 0. -1.
    5000001    1    1    2    0    0  0.18380288184E+03  0.11708412554E+03  0.76541267984E+03  0.81275689003E+03  0.16500000000E+03 0.  0.
   -5000001    1    1    2    0    0 -0.18380288184E+03 -0.11708412554E+03  0.49560764063E+03  0.56598950986E+03  0.16500000000E+03 0.  0.
<mgrwt>
<rscale>  0 0.55746694E+03</rscale>
<asrwt>0</asrwt>
<pdfrwt beam="1">  1        2 0.20305898E+00 0.55746694E+03</pdfrwt>
<pdfrwt beam="2">  1       -2 0.90558520E-02 0.55746694E+03</pdfrwt>
<totfact> 0.13168005E+03</totfact>
</mgrwt>
</event>
<event>
 4    1  0.9050888E-005  0.4984824E+03  0.7818608E-02  0.1014176E+00
         -2   -1    0    0    0  501 -0.00000000000E+00  0.00000000000E+00  0.67574099285E+02  0.67574099333E+02  0.25500000000E-02 0. -1.
          2   -1    0    0  501    0  0.00000000000E+00 -0.00000000000E+00 -0.91930464453E+03  0.91930464453E+03  0.25500000000E-02 0.  1.
    5000001    1    1    2    0    0 -0.14164845822E+03 -0.12174119376E+03 -0.43242525553E+03  0.49910099739E+03  0.16500000000E+03 0.  0.
   -5000001    1    1    2    0    0  0.14164845822E+03  0.12174119376E+03 -0.41930528971E+03  0.48777774648E+03  0.16500000000E+03 0.  0.
<mgrwt>
<rscale>  0 0.49848243E+03</rscale>
<asrwt>0</asrwt>
<pdfrwt beam="1">  1        2 0.14143147E+00 0.49848243E+03</pdfrwt>
<pdfrwt beam="2">  1       -2 0.10396016E-01 0.49848243E+03</pdfrwt>
<totfact> 0.18416687E+03</totfact>
</mgrwt>
</event>
<event>
 4    1  0.9050888E-005  0.5482727E+03  0.7818608E-02  0.1001895E+00
         -2   -1    0    0    0  501 -0.00000000000E+00  0.00000000000E+00  0.76844919495E+02  0.76844919537E+02  0.25500000000E-02 0. -1.
          2   -1    0    0  501    0  0.00000000000E+00 -0.00000000000E+00 -0.97795317280E+03  0.97795317280E+03  0.25500000000E-02 0.  1.
    5000001    1    1    2    0    0  0.13215478766E+03  0.16671280482E+03 -0.54992064142E+03  0.61228731741E+03  0.16500000000E+03 0.  0.
   -5000001    1    1    2    0    0 -0.13215478766E+03 -0.16671280482E+03 -0.35118761188E+03  0.44251077493E+03  0.16500000000E+03 0.  0.
<mgrwt>
<rscale>  0 0.54827268E+03</rscale>
<asrwt>0</asrwt>
<pdfrwt beam="1">  1        2 0.15045433E+00 0.54827268E+03</pdfrwt>
<pdfrwt beam="2">  1       -2 0.11822296E-01 0.54827268E+03</pdfrwt>
<totfact> 0.13675669E+03</totfact>
</mgrwt>
</event>
<event>
 4    1  0.9050888E-005  0.4802295E+03  0.7818608E-02  0.1019072E+00
          2   -1    0    0  501    0  0.00000000000E+00  0.00000000000E+00  0.79111467392E+03  0.79111467393E+03  0.25500000000E-02 0.  1.
         -2   -1    0    0    0  501 -0.00000000000E+00 -0.00000000000E+00 -0.72878299876E+02  0.72878299921E+02  0.25500000000E-02 0. -1.
    5000001    1    1    2    0    0  0.32679548775E+02 -0.17077521388E+03  0.33380443338E+03  0.41095319239E+03  0.16500000000E+03 0.  0.
   -5000001    1    1    2    0    0 -0.32679548775E+02  0.17077521388E+03  0.38443194066E+03  0.45303978146E+03  0.16500000000E+03 0.  0.
<mgrwt>
<rscale>  0 0.48022950E+03</rscale>
<asrwt>0</asrwt>
<pdfrwt beam="1">  1        2 0.12170995E+00 0.48022950E+03</pdfrwt>
<pdfrwt beam="2">  1       -2 0.11212046E-01 0.48022950E+03</pdfrwt>
<totfact> 0.19924054E+03</totfact>
</mgrwt>
</event>
<event>
 4    1  0.9050888E-005  0.1108210E+04  0.7818608E-02  0.9197227E-01
         -2   -1    0    0    0  501 -0.00000000000E+00  0.00000000000E+00  0.70440614883E+02  0.70440614929E+02  0.25500000000E-02 0. -1.
          2   -1    0    0  501    0  0.00000000000E+00 -0.00000000000E+00 -0.43587381543E+04  0.43587381543E+04  0.25500000000E-02 0.  1.
    5000001    1    1    2    0    0  0.51918374360E+03  0.50391883710E+02 -0.24952238601E+04  0.25544976441E+04  0.16500000000E+03 0.  0.
   -5000001    1    1    2    0    0 -0.51918374360E+03 -0.50391883710E+02 -0.17930736793E+04  0.18746811251E+04  0.16500000000E+03 0.  0.
<mgrwt>
<rscale>  0 0.11082097E+04</rscale>
<asrwt>0</asrwt>
<pdfrwt beam="1">  1        2 0.67057489E+00 0.11082097E+04</pdfrwt>
<pdfrwt beam="2">  1       -2 0.10837021E-01 0.11082097E+04</pdfrwt>
<totfact> 0.10668796E+01</totfact>
</mgrwt>
</event>
<event>
 4    1  0.9050888E-005  0.4419682E+03  0.7818608E-02  0.1030145E+00
          2   -1    0    0  501    0  0.00000000000E+00  0.00000000000E+00  0.24037994480E+02  0.24037994615E+02  0.25500000000E-02 0.  1.
         -2   -1    0    0    0  501 -0.00000000000E+00 -0.00000000000E+00 -0.20315330815E+04  0.20315330815E+04  0.25500000000E-02 0. -1.
    5000001    1    1    2    0    0 -0.10640623318E+03  0.68810572780E+02 -0.65720358377E+03  0.68934659780E+03  0.16500000000E+03 0.  0.
   -5000001    1    1    2    0    0  0.10640623318E+03 -0.68810572780E+02 -0.13502915032E+04  0.13662244783E+04  0.16500000000E+03 0.  0.
<mgrwt>
<rscale>  0 0.44196824E+03</rscale>
<asrwt>0</asrwt>
<pdfrwt beam="1">  1        2 0.36981546E-02 0.44196824E+03</pdfrwt>
<pdfrwt beam="2">  1       -2 0.31254341E+00 0.44196824E+03</pdfrwt>
<totfact> 0.71404472E+01</totfact>
</mgrwt>
</event>
<event>
 4    1  0.9050888E-005  0.8796042E+03  0.7818608E-02  0.9451442E-01
          2   -1    0    0  501    0  0.00000000000E+00  0.00000000000E+00  0.19277761129E+04  0.19277761129E+04  0.25500000000E-02 0.  1.
         -2   -1    0    0    0  501 -0.00000000000E+00 -0.00000000000E+00 -0.10033629299E+03  0.10033629302E+03  0.25500000000E-02 0. -1.
    5000001    1    1    2    0    0  0.20141061129E+03  0.34961131391E+03  0.10482952584E+04  0.11353159269E+04  0.16500000000E+03 0.  0.
   -5000001    1    1    2    0    0 -0.20141061129E+03 -0.34961131391E+03  0.77914456147E+03  0.89279647894E+03  0.16500000000E+03 0.  0.
<mgrwt>
<rscale>  0 0.87960425E+03</rscale>
<asrwt>0</asrwt>
<pdfrwt beam="1">  1        2 0.29658094E+00 0.87960425E+03</pdfrwt>
<pdfrwt beam="2">  1       -2 0.15436353E-01 0.87960425E+03</pdfrwt>
<totfact> 0.24748865E+02</totfact>
</mgrwt>
</event>
<event>
 4    1  0.9050888E-005  0.4494644E+03  0.7818608E-02  0.1027882E+00
          2   -1    0    0  501    0  0.00000000000E+00  0.00000000000E+00  0.10298535267E+03  0.10298535270E+03  0.25500000000E-02 0.  1.
         -2   -1    0    0    0  501 -0.00000000000E+00 -0.00000000000E+00 -0.49040534714E+03  0.49040534715E+03  0.25500000000E-02 0. -1.
    5000001    1    1    2    0    0 -0.69254099043E+02 -0.13526765736E+03 -0.17569987819E+03  0.28493668868E+03  0.16500000000E+03 0.  0.
   -5000001    1    1    2    0    0  0.69254099043E+02  0.13526765736E+03 -0.21172011629E+03  0.30845401117E+03  0.16500000000E+03 0.  0.
<mgrwt>
<rscale>  0 0.44946443E+03</rscale>
<asrwt>0</asrwt>
<pdfrwt beam="1">  1        2 0.15843901E-01 0.44946443E+03</pdfrwt>
<pdfrwt beam="2">  1       -2 0.75446975E-01 0.44946443E+03</pdfrwt>
<totfact> 0.59530159E+02</totfact>
</mgrwt>
</event>
<event>
 4    1  0.9050888E-005  0.5513511E+03  0.7818608E-02  0.1001182E+00
         -2   -1    0    0    0  501 -0.00000000000E+00  0.00000000000E+00  0.50234616330E+02  0.50234616395E+02  0.25500000000E-02 0. -1.
          2   -1    0    0  501    0  0.00000000000E+00 -0.00000000000E+00 -0.15128414351E+04  0.15128414351E+04  0.25500000000E-02 0.  1.
    5000001    1    1    2    0    0 -0.63903430787E+02  0.17445208857E+03 -0.10697833029E+04  0.10982615785E+04  0.16500000000E+03 0.  0.
   -5000001    1    1    2    0    0  0.63903430787E+02 -0.17445208857E+03 -0.39282351584E+03  0.46481447295E+03  0.16500000000E+03 0.  0.
<mgrwt>
<rscale>  0 0.55135110E+03</rscale>
<asrwt>0</asrwt>
<pdfrwt beam="1">  1        2 0.23274480E+00 0.55135110E+03</pdfrwt>
<pdfrwt beam="2">  1       -2 0.77284037E-02 0.55135110E+03</pdfrwt>
<totfact> 0.13239012E+03</totfact>
</mgrwt>
</event>
<event>
 4    1  0.9050888E-005  0.5476020E+03  0.7818608E-02  0.1002050E+00
         -2   -1    0    0    0  501 -0.00000000000E+00  0.00000000000E+00  0.80088967233E+02  0.80088967273E+02  0.25500000000E-02 0.  1.
          2   -1    0    0  501    0  0.00000000000E+00 -0.00000000000E+00 -0.93604643007E+03  0.93604643007E+03  0.25500000000E-02 0. -1.
    5000001    1    1    2    0    0 -0.18423782775E+03 -0.10848138248E+03 -0.34436907832E+03  0.43763780643E+03  0.16500000000E+03 0.  0.
   -5000001    1    1    2    0    0  0.18423782775E+03  0.10848138248E+03 -0.51158838452E+03  0.57849759091E+03  0.16500000000E+03 0.  0.
<mgrwt>
<rscale>  0 0.54760202E+03</rscale>
<asrwt>0</asrwt>
<pdfrwt beam="1">  1        2 0.14400714E+00 0.54760202E+03</pdfrwt>
<pdfrwt beam="2">  1       -2 0.12321380E-01 0.54760202E+03</pdfrwt>
<totfact> 0.13596640E+03</totfact>
</mgrwt>
</event>
<event>
 4    1  0.9050888E-005  0.4379164E+03  0.7818608E-02  0.1031388E+00
         -2   -1    0    0    0  501 -0.00000000000E+00  0.00000000000E+00  0.46720276765E+02  0.46720276834E+02  0.25500000000E-02 0. -1.
          2   -1    0    0  501    0  0.00000000000E+00 -0.00000000000E+00 -0.10261643944E+04  0.10261643944E+04  0.25500000000E-02 0.  1.
    5000001    1    1    2    0    0 -0.44990642390E+02 -0.13403104836E+03 -0.42356341300E+03  0.47604563296E+03  0.16500000000E+03 0.  0.
   -5000001    1    1    2    0    0  0.44990642390E+02  0.13403104836E+03 -0.55588070466E+03  0.59683903830E+03  0.16500000000E+03 0.  0.
<mgrwt>
<rscale>  0 0.43791636E+03</rscale>
<asrwt>0</asrwt>
<pdfrwt beam="1">  1        2 0.15787143E+00 0.43791636E+03</pdfrwt>
<pdfrwt beam="2">  1       -2 0.71877357E-02 0.43791636E+03</pdfrwt>
<totfact> 0.28373756E+03</totfact>
</mgrwt>
</event>
<event>
 4    1  0.9050888E-005  0.6839451E+03  0.7818608E-02  0.9745089E-01
         -2   -1    0    0    0  501 -0.00000000000E+00  0.00000000000E+00  0.11657673609E+04  0.11657673609E+04  0.25500000000E-02 0. -1.
          2   -1    0    0  501    0  0.00000000000E+00 -0.00000000000E+00 -0.10031608597E+03  0.10031608600E+03  0.25500000000E-02 0.  1.
    5000001    1    1    2    0    0 -0.26381655454E+03 -0.13131448489E+03  0.63202639712E+03  0.71660661108E+03  0.16500000000E+03 0.  0.
   -5000001    1    1    2    0    0  0.26381655454E+03  0.13131448489E+03  0.43342487778E+03  0.54947683579E+03  0.16500000000E+03 0.  0.
<mgrwt>
<rscale>  0 0.68394508E+03</rscale>
<asrwt>0</asrwt>
<pdfrwt beam="1">  1        2 0.15433243E-01 0.68394508E+03</pdfrwt>
<pdfrwt beam="2">  1       -2 0.17934884E+00 0.68394508E+03</pdfrwt>
<totfact> 0.72224327E+01</totfact>
</mgrwt>
</event>
<event>
 4    1  0.9050888E-005  0.5036551E+03  0.7818608E-02  0.1012829E+00
          2   -1    0    0  501    0  0.00000000000E+00  0.00000000000E+00  0.80069097573E+02  0.80069097614E+02  0.25500000000E-02 0. -1.
         -2   -1    0    0    0  501 -0.00000000000E+00 -0.00000000000E+00 -0.79202994438E+03  0.79202994439E+03  0.25500000000E-02 0.  1.
    5000001    1    1    2    0    0  0.18380972909E+03  0.44083445379E+02 -0.39322891525E+03  0.46645830087E+03  0.16500000000E+03 0.  0.
   -5000001    1    1    2    0    0 -0.18380972909E+03 -0.44083445379E+02 -0.31873193157E+03  0.40564074113E+03  0.16500000000E+03 0.  0.
<mgrwt>
<rscale>  0 0.50365513E+03</rscale>
<asrwt>0</asrwt>
<pdfrwt beam="1">  1        2 0.12318323E-01 0.50365513E+03</pdfrwt>
<pdfrwt beam="2">  1       -2 0.12185076E+00 0.50365513E+03</pdfrwt>
<totfact> 0.26483900E+02</totfact>
</mgrwt>
</event>
<event>
 4    1  0.9050888E-005  0.5427536E+03  0.7818608E-02  0.1003185E+00
          2   -1    0    0  501    0  0.00000000000E+00  0.00000000000E+00  0.51368527660E+03  0.51368527661E+03  0.25500000000E-02 0.  1.
         -2   -1    0    0    0  501 -0.00000000000E+00 -0.00000000000E+00 -0.14336671819E+03  0.14336671821E+03  0.25500000000E-02 0. -1.
    5000001    1    1    2    0    0  0.62885338808E+02  0.20607160946E+03  0.18449816609E+03  0.32815338998E+03  0.16500000000E+03 0.  0.
   -5000001    1    1    2    0    0 -0.62885338808E+02 -0.20607160946E+03  0.18582039232E+03  0.32889860484E+03  0.16500000000E+03 0.  0.
<mgrwt>
<rscale>  0 0.54275362E+03</rscale>
<asrwt>0</asrwt>
<pdfrwt beam="1">  1        2 0.79028505E-01 0.54275362E+03</pdfrwt>
<pdfrwt beam="2">  1       -2 0.22056418E-01 0.54275362E+03</pdfrwt>
<totfact> 0.10734903E+03</totfact>
</mgrwt>
</event>
<event>
 4    1  0.9050888E-005  0.4918595E+03  0.7818608E-02  0.1015926E+00
          2   -1    0    0  501    0  0.00000000000E+00  0.00000000000E+00  0.49179725751E+03  0.49179725752E+03  0.25500000000E-02 0.  1.
         -2   -1    0    0    0  501 -0.00000000000E+00 -0.00000000000E+00 -0.12298042454E+03  0.12298042457E+03  0.25500000000E-02 0. -1.
    5000001    1    1    2    0    0 -0.10657702477E+03 -0.11804456668E+03  0.29594628102E+03  0.37430252896E+03  0.16500000000E+03 0.  0.
   -5000001    1    1    2    0    0  0.10657702477E+03  0.11804456668E+03  0.72870551948E+02  0.24047515313E+03  0.16500000000E+03 0.  0.
<mgrwt>
<rscale>  0 0.49185947E+03</rscale>
<asrwt>0</asrwt>
<pdfrwt beam="1">  1        2 0.75661117E-01 0.49185947E+03</pdfrwt>
<pdfrwt beam="2">  1       -2 0.18920065E-01 0.49185947E+03</pdfrwt>
<totfact> 0.14744055E+03</totfact>
</mgrwt>
</event>
<event>
 4    1  0.9050888E-005  0.6600959E+03  0.7818608E-02  0.9788017E-01
          2   -1    0    0  501    0  0.00000000000E+00  0.00000000000E+00  0.29354741776E+04  0.29354741776E+04  0.25500000000E-02 0.  1.
         -2   -1    0    0    0  501 -0.00000000000E+00 -0.00000000000E+00 -0.37108703887E+02  0.37108703975E+02  0.25500000000E-02 0. -1.
    5000001    1    1    2    0    0  0.26060398741E+03 -0.39058442479E+02  0.95042482701E+03  0.99998617590E+03  0.16500000000E+03 0.  0.
   -5000001    1    1    2    0    0 -0.26060398741E+03  0.39058442479E+02  0.19479406467E+04  0.19725967057E+04  0.16500000000E+03 0.  0.
<mgrwt>
<rscale>  0 0.66009588E+03</rscale>
<asrwt>0</asrwt>
<pdfrwt beam="1">  1        2 0.45161143E+00 0.66009588E+03</pdfrwt>
<pdfrwt beam="2">  1       -2 0.57090311E-02 0.66009588E+03</pdfrwt>
<totfact> 0.34088428E+02</totfact>
</mgrwt>
</event>
<event>
 4    1  0.9050888E-005  0.6349391E+03  0.7818608E-02  0.9835458E-01
         -2   -1    0    0    0  501 -0.00000000000E+00  0.00000000000E+00  0.17990778057E+03  0.17990778059E+03  0.25500000000E-02 0. -1.
          2   -1    0    0  501    0  0.00000000000E+00 -0.00000000000E+00 -0.56021438036E+03  0.56021438036E+03  0.25500000000E-02 0.  1.
    5000001    1    1    2    0    0  0.98501763345E+02 -0.25262785704E+03 -0.18292111573E+03  0.36634487319E+03  0.16500000000E+03 0.  0.
   -5000001    1    1    2    0    0 -0.98501763345E+02  0.25262785704E+03 -0.19738548405E+03  0.37377728776E+03  0.16500000000E+03 0.  0.
<mgrwt>
<rscale>  0 0.63493913E+03</rscale>
<asrwt>0</asrwt>
<pdfrwt beam="1">  1        2 0.86186827E-01 0.63493913E+03</pdfrwt>
<pdfrwt beam="2">  1       -2 0.27678120E-01 0.63493913E+03</pdfrwt>
<totfact> 0.64477608E+02</totfact>
</mgrwt>
</event>
<event>
 4    1  0.9050888E-005  0.7498138E+03  0.7818608E-02  0.9635643E-01
          2   -1    0    0  501    0  0.00000000000E+00  0.00000000000E+00  0.18881991539E+03  0.18881991541E+03  0.25500000000E-02 0.  1.
         -2   -1    0    0    0  501 -0.00000000000E+00 -0.00000000000E+00 -0.74438739537E+03  0.74438739538E+03  0.25500000000E-02 0. -1.
    5000001    1    1    2    0    0  0.27903558681E+03 -0.18143341374E+03 -0.34064729206E+03  0.50402829277E+03  0.16500000000E+03 0.  0.
   -5000001    1    1    2    0    0 -0.27903558681E+03  0.18143341374E+03 -0.21492018793E+03  0.42917901802E+03  0.16500000000E+03 0.  0.
<mgrwt>
<rscale>  0 0.74981375E+03</rscale>
<asrwt>0</asrwt>
<pdfrwt beam="1">  1        2 0.29049218E-01 0.74981375E+03</pdfrwt>
<pdfrwt beam="2">  1       -2 0.11452114E+00 0.74981375E+03</pdfrwt>
<totfact> 0.11096252E+02</totfact>
</mgrwt>
</event>
<event>
 4    1  0.9050888E-005  0.4309637E+03  0.7818608E-02  0.1033556E+00
         -2   -1    0    0    0  501 -0.00000000000E+00  0.00000000000E+00  0.57558713484E+02  0.57558713541E+02  0.25500000000E-02 0.  1.
          2   -1    0    0  501    0  0.00000000000E+00 -0.00000000000E+00 -0.80669687320E+03  0.80669687321E+03  0.25500000000E-02 0. -1.
    5000001    1    1    2    0    0  0.94530418717E+02  0.99500260843E+02 -0.33593542279E+03  0.39864007608E+03  0.16500000000E+03 0.  0.
   -5000001    1    1    2    0    0 -0.94530418717E+02 -0.99500260843E+02 -0.41320273692E+03  0.46561551066E+03  0.16500000000E+03 0.  0.
<mgrwt>
<rscale>  0 0.43096373E+03</rscale>
<asrwt>0</asrwt>
<pdfrwt beam="1">  1        2 0.12410720E+00 0.43096373E+03</pdfrwt>
<pdfrwt beam="2">  1       -2 0.88551873E-02 0.43096373E+03</pdfrwt>
<totfact> 0.28398764E+03</totfact>
</mgrwt>
</event>
<event>
 4    1  0.9050888E-005  0.5187230E+03  0.7818608E-02  0.1009004E+00
         -2   -1    0    0    0  501 -0.00000000000E+00  0.00000000000E+00  0.88871007965E+02  0.88871008002E+02  0.25500000000E-02 0. -1.
          2   -1    0    0  501    0  0.00000000000E+00 -0.00000000000E+00 -0.75692151062E+03  0.75692151063E+03  0.25500000000E-02 0.  1.
    5000001    1    1    2    0    0 -0.13829469736E+03  0.13420764364E+03 -0.24612384970E+03  0.35346720402E+03  0.16500000000E+03 0.  0.
   -5000001    1    1    2    0    0  0.13829469736E+03 -0.13420764364E+03 -0.42192665296E+03  0.49232531461E+03  0.16500000000E+03 0.  0.
<mgrwt>
<rscale>  0 0.51872296E+03</rscale>
<asrwt>0</asrwt>
<pdfrwt beam="1">  1        2 0.11644946E+00 0.51872296E+03</pdfrwt>
<pdfrwt beam="2">  1       -2 0.13672463E-01 0.51872296E+03</pdfrwt>
<totfact> 0.15215447E+03</totfact>
</mgrwt>
</event>
<event>
 4    1  0.9050888E-005  0.7059626E+03  0.7818608E-02  0.9707089E-01
          2   -1    0    0  501    0  0.00000000000E+00  0.00000000000E+00  0.23146355909E+03  0.23146355911E+03  0.25500000000E-02 0.  1.
         -2   -1    0    0    0  501 -0.00000000000E+00 -0.00000000000E+00 -0.53829549106E+03  0.53829549106E+03  0.25500000000E-02 0. -1.
    5000001    1    1    2    0    0  0.17516358988E+03  0.10517628880E+03 -0.41058212391E+03  0.48738795166E+03  0.16500000000E+03 0.  0.
   -5000001    1    1    2    0    0 -0.17516358988E+03 -0.10517628880E+03  0.10375019195E+03  0.28237109851E+03  0.16500000000E+03 0.  0.
<mgrwt>
<rscale>  0 0.70596258E+03</rscale>
<asrwt>0</asrwt>
<pdfrwt beam="1">  1        2 0.35609779E-01 0.70596258E+03</pdfrwt>
<pdfrwt beam="2">  1       -2 0.82814690E-01 0.70596258E+03</pdfrwt>
<totfact> 0.18940309E+02</totfact>
</mgrwt>
</event>
<event>
 4    1  0.9050888E-005  0.4185624E+03  0.7818608E-02  0.1037535E+00
          2   -1    0    0  501    0  0.00000000000E+00  0.00000000000E+00  0.90408560347E+03  0.90408560348E+03  0.25500000000E-02 0.  1.
         -2   -1    0    0    0  501 -0.00000000000E+00 -0.00000000000E+00 -0.48445215904E+02  0.48445215971E+02  0.25500000000E-02 0. -1.
    5000001    1    1    2    0    0  0.11076407724E+03 -0.34989409109E+02  0.55413152231E+03  0.58972848293E+03  0.16500000000E+03 0.  0.
   -5000001    1    1    2    0    0 -0.11076407724E+03  0.34989409109E+02  0.30150886526E+03  0.36280233652E+03  0.16500000000E+03 0.  0.
<mgrwt>
<rscale>  0 0.41856241E+03</rscale>
<asrwt>0</asrwt>
<pdfrwt beam="1">  1        2 0.13909009E+00 0.41856241E+03</pdfrwt>
<pdfrwt beam="2">  1       -2 0.74531101E-02 0.41856241E+03</pdfrwt>
<totfact> 0.32042597E+03</totfact>
</mgrwt>
</event>
<event>
 4    1  0.9050888E-005  0.4866258E+03  0.7818608E-02  0.1017330E+00
          2   -1    0    0  501    0  0.00000000000E+00  0.00000000000E+00  0.49524774396E+03  0.49524774397E+03  0.25500000000E-02 0.  1.
         -2   -1    0    0    0  501 -0.00000000000E+00 -0.00000000000E+00 -0.11953851227E+03  0.11953851229E+03  0.25500000000E-02 0. -1.
    5000001    1    1    2    0    0 -0.16172880274E+03  0.56752137214E+02  0.25226355388E+03  0.34675482884E+03  0.16500000000E+03 0.  0.
   -5000001    1    1    2    0    0  0.16172880274E+03 -0.56752137214E+02  0.12344567782E+03  0.26803142742E+03  0.16500000000E+03 0.  0.
<mgrwt>
<rscale>  0 0.48662585E+03</rscale>
<asrwt>0</asrwt>
<pdfrwt beam="1">  1        2 0.76191960E-01 0.48662585E+03</pdfrwt>
<pdfrwt beam="2">  1       -2 0.18390540E-01 0.48662585E+03</pdfrwt>
<totfact> 0.15357852E+03</totfact>
</mgrwt>
</event>
<event>
 4    1  0.9050888E-005  0.3376636E+03  0.7818608E-02  0.1067795E+00
         -2   -1    0    0    0  501 -0.00000000000E+00  0.00000000000E+00  0.82936124646E+01  0.82936128567E+01  0.25500000000E-02 0. -1.
          2   -1    0    0  501    0  0.00000000000E+00 -0.00000000000E+00 -0.34368826474E+04  0.34368826474E+04  0.25500000000E-02 0.  1.
    5000001    1    1    2    0    0 -0.15330999353E+02 -0.26297274928E+02 -0.15227099537E+04  0.15319259738E+04  0.16500000000E+03 0.  0.
   -5000001    1    1    2    0    0  0.15330999353E+02  0.26297274928E+02 -0.19058790813E+04  0.19132502865E+04  0.16500000000E+03 0.  0.
<mgrwt>
<rscale>  0 0.33766358E+03</rscale>
<asrwt>0</asrwt>
<pdfrwt beam="1">  1        2 0.52875004E+00 0.33766358E+03</pdfrwt>
<pdfrwt beam="2">  1       -2 0.12759432E-02 0.33766358E+03</pdfrwt>
<totfact> 0.16517220E+03</totfact>
</mgrwt>
</event>
<event>
 4    1  0.9050888E-005  0.5037331E+03  0.7818608E-02  0.1012809E+00
         -2   -1    0    0    0  501 -0.00000000000E+00  0.00000000000E+00  0.54292321311E+02  0.54292321371E+02  0.25500000000E-02 0. -1.
          2   -1    0    0  501    0  0.00000000000E+00 -0.00000000000E+00 -0.11684295272E+04  0.11684295272E+04  0.25500000000E-02 0.  1.
    5000001    1    1    2    0    0 -0.17497798367E+03  0.45408209490E+02 -0.41280012962E+03  0.47990431054E+03  0.16500000000E+03 0.  0.
   -5000001    1    1    2    0    0  0.17497798367E+03 -0.45408209490E+02 -0.70133707626E+03  0.74281753802E+03  0.16500000000E+03 0.  0.
<mgrwt>
<rscale>  0 0.50373307E+03</rscale>
<asrwt>0</asrwt>
<pdfrwt beam="1">  1        2 0.17975837E+00 0.50373307E+03</pdfrwt>
<pdfrwt beam="2">  1       -2 0.83526657E-02 0.50373307E+03</pdfrwt>
<totfact> 0.18356400E+03</totfact>
</mgrwt>
</event>
<event>
 4    1  0.9050888E-005  0.8637601E+03  0.7818608E-02  0.9472053E-01
          2   -1    0    0  501    0  0.00000000000E+00  0.00000000000E+00  0.22981411629E+04  0.22981411629E+04  0.25500000000E-02 0.  1.
         -2   -1    0    0    0  501 -0.00000000000E+00 -0.00000000000E+00 -0.81161402285E+02  0.81161402325E+02  0.25500000000E-02 0. -1.
    5000001    1    1    2    0    0 -0.89911941272E+02 -0.26390452032E+03  0.18951915829E+04  0.19226819521E+04  0.16500000000E+03 0.  0.
   -5000001    1    1    2    0    0  0.89911941272E+02  0.26390452032E+03  0.32178817775E+03  0.45662061316E+03  0.16500000000E+03 0.  0.
<mgrwt>
<rscale>  0 0.86376006E+03</rscale>
<asrwt>0</asrwt>
<pdfrwt beam="1">  1        2 0.35356013E+00 0.86376006E+03</pdfrwt>
<pdfrwt beam="2">  1       -2 0.12486371E-01 0.86376006E+03</pdfrwt>
<totfact> 0.22119336E+02</totfact>
</mgrwt>
</event>
<event>
 4    1  0.9050888E-005  0.6728860E+03  0.7818608E-02  0.9764758E-01
          2   -1    0    0  501    0  0.00000000000E+00  0.00000000000E+00  0.14184834152E+04  0.14184834152E+04  0.25500000000E-02 0.  1.
         -2   -1    0    0    0  501 -0.00000000000E+00 -0.00000000000E+00 -0.79799236878E+02  0.79799236919E+02  0.25500000000E-02 0. -1.
    5000001    1    1    2    0    0 -0.17231498459E+03 -0.17631723534E+03  0.10227326104E+04  0.10648883574E+04  0.16500000000E+03 0.  0.
   -5000001    1    1    2    0    0  0.17231498459E+03  0.17631723534E+03  0.31595156785E+03  0.43339429463E+03  0.16500000000E+03 0.  0.
<mgrwt>
<rscale>  0 0.67288601E+03</rscale>
<asrwt>0</asrwt>
<pdfrwt beam="1">  1        2 0.21822822E+00 0.67288601E+03</pdfrwt>
<pdfrwt beam="2">  1       -2 0.12276805E-01 0.67288601E+03</pdfrwt>
<totfact> 0.70206392E+02</totfact>
</mgrwt>
</event>
<event>
 4    1  0.9050888E-005  0.4291104E+03  0.7818608E-02  0.1034141E+00
          2   -1    0    0  501    0  0.00000000000E+00  0.00000000000E+00  0.93762838861E+02  0.93762838895E+02  0.25500000000E-02 0.  1.
         -2   -1    0    0    0  501 -0.00000000000E+00 -0.00000000000E+00 -0.49096146468E+03  0.49096146468E+03  0.25500000000E-02 0. -1.
    5000001    1    1    2    0    0 -0.70127738457E+02  0.71153455287E+02 -0.32663139666E+03  0.37933334046E+03  0.16500000000E+03 0.  0.
   -5000001    1    1    2    0    0  0.70127738457E+02 -0.71153455287E+02 -0.70567229157E+02  0.20539096312E+03  0.16500000000E+03 0.  0.
<mgrwt>
<rscale>  0 0.42911043E+03</rscale>
<asrwt>0</asrwt>
<pdfrwt beam="1">  1        2 0.14425052E-01 0.42911043E+03</pdfrwt>
<pdfrwt beam="2">  1       -2 0.75532531E-01 0.42911043E+03</pdfrwt>
<totfact> 0.66466417E+02</totfact>
</mgrwt>
</event>
<event>
 4    1  0.9050888E-005  0.7328041E+03  0.7818608E-02  0.9662721E-01
          2   -1    0    0  501    0  0.00000000000E+00  0.00000000000E+00  0.10513918252E+04  0.10513918252E+04  0.25500000000E-02 0.  1.
         -2   -1    0    0    0  501 -0.00000000000E+00 -0.00000000000E+00 -0.12768831191E+03  0.12768831193E+03  0.25500000000E-02 0. -1.
    5000001    1    1    2    0    0 -0.23738460915E+03 -0.19627123862E+03  0.28448504675E+03  0.45058916276E+03  0.16500000000E+03 0.  0.
   -5000001    1    1    2    0    0  0.23738460915E+03  0.19627123862E+03  0.63921846651E+03  0.72849097435E+03  0.16500000000E+03 0.  0.
<mgrwt>
<rscale>  0 0.73280406E+03</rscale>
<asrwt>0</asrwt>
<pdfrwt beam="1">  1        2 0.16175259E+00 0.73280406E+03</pdfrwt>
<pdfrwt beam="2">  1       -2 0.19644355E-01 0.73280406E+03</pdfrwt>
<totfact> 0.51795060E+02</totfact>
</mgrwt>
</event>
<event>
 4    1  0.9050888E-005  0.8613176E+03  0.7818608E-02  0.9475271E-01
         -2   -1    0    0    0  501 -0.00000000000E+00  0.00000000000E+00  0.88577895878E+02  0.88577895915E+02  0.25500000000E-02 0. -1.
          2   -1    0    0  501    0  0.00000000000E+00 -0.00000000000E+00 -0.20938295778E+04  0.20938295778E+04  0.25500000000E-02 0.  1.
    5000001    1    1    2    0    0 -0.10727579244E+03 -0.31046059741E+03 -0.43408166400E+03  0.56881083781E+03  0.16500000000E+03 0.  0.
   -5000001    1    1    2    0    0  0.10727579244E+03  0.31046059741E+03 -0.15711700179E+04  0.16135966359E+04  0.16500000000E+03 0.  0.
<mgrwt>
<rscale>  0 0.86131764E+03</rscale>
<asrwt>0</asrwt>
<pdfrwt beam="1">  1        2 0.32212759E+00 0.86131764E+03</pdfrwt>
<pdfrwt beam="2">  1       -2 0.13627370E-01 0.86131764E+03</pdfrwt>
<totfact> 0.24802644E+02</totfact>
</mgrwt>
</event>
<event>
 4    1  0.9050888E-005  0.4809754E+03  0.7818608E-02  0.1018867E+00
         -2   -1    0    0    0  501 -0.00000000000E+00  0.00000000000E+00  0.25541716831E+02  0.25541716958E+02  0.25500000000E-02 0. -1.
          2   -1    0    0  501    0  0.00000000000E+00 -0.00000000000E+00 -0.22643084123E+04  0.22643084123E+04  0.25500000000E-02 0.  1.
    5000001    1    1    2    0    0 -0.43595719591E+02 -0.15514942777E+03 -0.14435894373E+04  0.14618985585E+04  0.16500000000E+03 0.  0.
   -5000001    1    1    2    0    0  0.43595719591E+02  0.15514942777E+03 -0.79517725817E+03  0.82795157081E+03  0.16500000000E+03 0.  0.
<mgrwt>
<rscale>  0 0.48097536E+03</rscale>
<asrwt>0</asrwt>
<pdfrwt beam="1">  1        2 0.34835498E+00 0.48097536E+03</pdfrwt>
<pdfrwt beam="2">  1       -2 0.39294967E-02 0.48097536E+03</pdfrwt>
<totfact> 0.14918099E+03</totfact>
</mgrwt>
</event>
<event>
 4    1  0.9050888E-005  0.4487565E+03  0.7818608E-02  0.1028094E+00
          2   -1    0    0  501    0  0.00000000000E+00  0.00000000000E+00  0.18177229370E+04  0.18177229370E+04  0.25500000000E-02 0.  1.
         -2   -1    0    0    0  501 -0.00000000000E+00 -0.00000000000E+00 -0.27697074018E+02  0.27697074135E+02  0.25500000000E-02 0. -1.
    5000001    1    1    2    0    0 -0.17194475513E+02  0.11851933276E+03  0.50972508411E+03  0.54898738018E+03  0.16500000000E+03 0.  0.
   -5000001    1    1    2    0    0  0.17194475513E+02 -0.11851933276E+03  0.12803007788E+04  0.12964326309E+04  0.16500000000E+03 0.  0.
<mgrwt>
<rscale>  0 0.44875653E+03</rscale>
<asrwt>0</asrwt>
<pdfrwt beam="1">  1        2 0.27964981E+00 0.44875653E+03</pdfrwt>
<pdfrwt beam="2">  1       -2 0.42610863E-02 0.44875653E+03</pdfrwt>
<totfact> 0.22974983E+03</totfact>
</mgrwt>
</event>
<event>
 4    1  0.9050888E-005  0.5888896E+03  0.7818608E-02  0.9928729E-01
          2   -1    0    0  501    0  0.00000000000E+00  0.00000000000E+00  0.67399041055E+03  0.67399041055E+03  0.25500000000E-02 0.  1.
         -2   -1    0    0    0  501 -0.00000000000E+00 -0.00000000000E+00 -0.12863349133E+03  0.12863349135E+03  0.25500000000E-02 0. -1.
    5000001    1    1    2    0    0 -0.19101111345E+03  0.82110039785E+02  0.98960833742E+02  0.28327645633E+03  0.16500000000E+03 0.  0.
   -5000001    1    1    2    0    0  0.19101111345E+03 -0.82110039785E+02  0.44639608548E+03  0.51934744558E+03  0.16500000000E+03 0.  0.
<mgrwt>
<rscale>  0 0.58888960E+03</rscale>
<asrwt>0</asrwt>
<pdfrwt beam="1">  1        2 0.10369083E+00 0.58888960E+03</pdfrwt>
<pdfrwt beam="2">  1       -2 0.19789768E-01 0.58888960E+03</pdfrwt>
<totfact> 0.93839173E+02</totfact>
</mgrwt>
</event>
<event>
 4    1  0.9050888E-005  0.4156820E+03  0.7818608E-02  0.1038481E+00
         -2   -1    0    0    0  501 -0.00000000000E+00  0.00000000000E+00  0.41221558209E+02  0.41221558288E+02  0.25500000000E-02 0. -1.
          2   -1    0    0  501    0  0.00000000000E+00 -0.00000000000E+00 -0.10479440496E+04  0.10479440496E+04  0.25500000000E-02 0.  1.
    5000001    1    1    2    0    0  0.65314145658E+02 -0.10643152118E+03 -0.45233274006E+03  0.49741684134E+03  0.16500000000E+03 0.  0.
   -5000001    1    1    2    0    0 -0.65314145658E+02  0.10643152118E+03 -0.55438975130E+03  0.59174876651E+03  0.16500000000E+03 0.  0.
<mgrwt>
<rscale>  0 0.41568203E+03</rscale>
<asrwt>0</asrwt>
<pdfrwt beam="1">  1        2 0.16122214E+00 0.41568203E+03</pdfrwt>
<pdfrwt beam="2">  1       -2 0.63417790E-02 0.41568203E+03</pdfrwt>
<totfact> 0.33462395E+03</totfact>
</mgrwt>
</event>
<event>
 4    1  0.9050888E-005  0.6708107E+03  0.7818608E-02  0.9768494E-01
         -2   -1    0    0    0  501 -0.00000000000E+00  0.00000000000E+00  0.14410965591E+03  0.14410965594E+03  0.25500000000E-02 0. -1.
          2   -1    0    0  501    0  0.00000000000E+00 -0.00000000000E+00 -0.78063296011E+03  0.78063296011E+03  0.25500000000E-02 0.  1.
    5000001    1    1    2    0    0  0.23393065263E+03 -0.94576265398E+01 -0.77672005374E+02  0.29676748029E+03  0.16500000000E+03 0.  0.
   -5000001    1    1    2    0    0 -0.23393065263E+03  0.94576265398E+01 -0.55885129882E+03  0.62797513576E+03  0.16500000000E+03 0.  0.
<mgrwt>
<rscale>  0 0.67081070E+03</rscale>
<asrwt>0</asrwt>
<pdfrwt beam="1">  1        2 0.12009738E+00 0.67081070E+03</pdfrwt>
<pdfrwt beam="2">  1       -2 0.22170717E-01 0.67081070E+03</pdfrwt>
<totfact> 0.63660635E+02</totfact>
</mgrwt>
</event>
<event>
 4    1  0.9050888E-005  0.7352472E+03  0.7818608E-02  0.9658784E-01
         -2   -1    0    0    0  501 -0.00000000000E+00  0.00000000000E+00  0.30618889610E+02  0.30618889716E+02  0.25500000000E-02 0. -1.
          2   -1    0    0  501    0  0.00000000000E+00 -0.00000000000E+00 -0.44138471839E+04  0.44138471839E+04  0.25500000000E-02 0.  1.
    5000001    1    1    2    0    0  0.75531099263E+02  0.31366757730E+03 -0.18175255215E+04  0.18532987663E+04  0.16500000000E+03 0.  0.
   -5000001    1    1    2    0    0 -0.75531099263E+02 -0.31366757730E+03 -0.25657027728E+04  0.25911673073E+04  0.16500000000E+03 0.  0.
<mgrwt>
<rscale>  0 0.73524717E+03</rscale>
<asrwt>0</asrwt>
<pdfrwt beam="1">  1        2 0.67905291E+00 0.73524717E+03</pdfrwt>
<pdfrwt beam="2">  1       -2 0.47106019E-02 0.73524717E+03</pdfrwt>
<totfact> 0.38112363E+01</totfact>
</mgrwt>
</event>
<event>
 4    1  0.9050888E-005  0.5879813E+03  0.7818608E-02  0.9930659E-01
          2   -1    0    0  501    0  0.00000000000E+00  0.00000000000E+00  0.23882773109E+04  0.23882773109E+04  0.25500000000E-02 0.  1.
         -2   -1    0    0    0  501 -0.00000000000E+00 -0.00000000000E+00 -0.36189480418E+02  0.36189480508E+02  0.25500000000E-02 0. -1.
    5000001    1    1    2    0    0  0.17377472075E+03  0.15437677942E+02  0.47665434803E+03  0.53372309578E+03  0.16500000000E+03 0.  0.
   -5000001    1    1    2    0    0 -0.17377472075E+03 -0.15437677942E+02  0.18754334824E+04  0.18907436956E+04  0.16500000000E+03 0.  0.
<mgrwt>
<rscale>  0 0.58798134E+03</rscale>
<asrwt>0</asrwt>
<pdfrwt beam="1">  1        2 0.36742741E+00 0.58798134E+03</pdfrwt>
<pdfrwt beam="2">  1       -2 0.55676104E-02 0.58798134E+03</pdfrwt>
<totfact> 0.73846240E+02</totfact>
</mgrwt>
</event>
<event>
 4    1  0.9050888E-005  0.5117555E+03  0.7818608E-02  0.1010755E+00
         -2   -1    0    0    0  501 -0.00000000000E+00  0.00000000000E+00  0.41206731862E+02  0.41206731941E+02  0.25500000000E-02 0. -1.
          2   -1    0    0  501    0  0.00000000000E+00 -0.00000000000E+00 -0.15889011409E+04  0.15889011409E+04  0.25500000000E-02 0.  1.
    5000001    1    1    2    0    0 -0.12851094909E+02 -0.18693539928E+03 -0.95229450887E+03  0.98447946945E+03  0.16500000000E+03 0.  0.
   -5000001    1    1    2    0    0  0.12851094909E+02  0.18693539928E+03 -0.59539990016E+03  0.64562840338E+03  0.16500000000E+03 0.  0.
<mgrwt>
<rscale>  0 0.51175550E+03</rscale>
<asrwt>0</asrwt>
<pdfrwt beam="1">  1        2 0.24444628E+00 0.51175550E+03</pdfrwt>
<pdfrwt beam="2">  1       -2 0.63394985E-02 0.51175550E+03</pdfrwt>
<totfact> 0.16466120E+03</totfact>
</mgrwt>
</event>
<event>
 4    1  0.9050888E-005  0.3987261E+03  0.7818608E-02  0.1044222E+00
         -2   -1    0    0    0  501 -0.00000000000E+00  0.00000000000E+00  0.60916234906E+02  0.60916234959E+02  0.25500000000E-02 0. -1.
          2   -1    0    0  501    0  0.00000000000E+00 -0.00000000000E+00 -0.65246362360E+03  0.65246362360E+03  0.25500000000E-02 0.  1.
    5000001    1    1    2    0    0 -0.10977473691E+03 -0.16320921908E+02 -0.27023446456E+03  0.33551234134E+03  0.16500000000E+03 0.  0.
   -5000001    1    1    2    0    0  0.10977473691E+03  0.16320921908E+02 -0.32131292413E+03  0.37786751722E+03  0.16500000000E+03 0.  0.
<mgrwt>
<rscale>  0 0.39872611E+03</rscale>
<asrwt>0</asrwt>
<pdfrwt beam="1">  1        2 0.10037901E+00 0.39872611E+03</pdfrwt>
<pdfrwt beam="2">  1       -2 0.93717289E-02 0.39872611E+03</pdfrwt>
<totfact> 0.33808221E+03</totfact>
</mgrwt>
</event>
<event>
 4    1  0.9050888E-005  0.4389487E+03  0.7818608E-02  0.1031070E+00
          2   -1    0    0  501    0  0.00000000000E+00  0.00000000000E+00  0.42212833803E+03  0.42212833804E+03  0.25500000000E-02 0.  1.
         -2   -1    0    0    0  501 -0.00000000000E+00 -0.00000000000E+00 -0.11410980260E+03  0.11410980263E+03  0.25500000000E-02 0. -1.
    5000001    1    1    2    0    0  0.13337428661E+03  0.55316895927E+02  0.16593652563E+03  0.27497016173E+03  0.16500000000E+03 0.  0.
   -5000001    1    1    2    0    0 -0.13337428661E+03 -0.55316895927E+02  0.14208200981E+03  0.26126797893E+03  0.16500000000E+03 0.  0.
<mgrwt>
<rscale>  0 0.43894866E+03</rscale>
<asrwt>0</asrwt>
<pdfrwt beam="1">  1        2 0.64942821E-01 0.43894866E+03</pdfrwt>
<pdfrwt beam="2">  1       -2 0.17555354E-01 0.43894866E+03</pdfrwt>
<totfact> 0.19894895E+03</totfact>
</mgrwt>
</event>
<event>
 4    1  0.9050888E-005  0.7639993E+03  0.7818608E-02  0.9613640E-01
          2   -1    0    0  501    0  0.00000000000E+00  0.00000000000E+00  0.45236647357E+03  0.45236647358E+03  0.25500000000E-02 0.  1.
         -2   -1    0    0    0  501 -0.00000000000E+00 -0.00000000000E+00 -0.32257854936E+03  0.32257854937E+03  0.25500000000E-02 0. -1.
    5000001    1    1    2    0    0  0.59663350143E+02 -0.12661076331E+03  0.38421967032E+03  0.44095323539E+03  0.16500000000E+03 0.  0.
   -5000001    1    1    2    0    0 -0.59663350143E+02  0.12661076331E+03 -0.25443174610E+03  0.33399178756E+03  0.16500000000E+03 0.  0.
<mgrwt>
<rscale>  0 0.76399927E+03</rscale>
<asrwt>0</asrwt>
<pdfrwt beam="1">  1        2 0.69594842E-01 0.76399927E+03</pdfrwt>
<pdfrwt beam="2">  1       -2 0.49627469E-01 0.76399927E+03</pdfrwt>
<totfact> 0.26777011E+02</totfact>
</mgrwt>
</event>
<event>
 4    1  0.9050888E-005  0.5151791E+03  0.7818608E-02  0.1009891E+00
          2   -1    0    0  501    0  0.00000000000E+00  0.00000000000E+00  0.11425179058E+04  0.11425179058E+04  0.25500000000E-02 0.  1.
         -2   -1    0    0    0  501 -0.00000000000E+00 -0.00000000000E+00 -0.58075558345E+02  0.58075558401E+02  0.25500000000E-02 0. -1.
    5000001    1    1    2    0    0 -0.15734338848E+03  0.11927339837E+03  0.51422873993E+03  0.57501241937E+03  0.16500000000E+03 0.  0.
   -5000001    1    1    2    0    0  0.15734338848E+03 -0.11927339837E+03  0.57021360755E+03  0.62558104486E+03  0.16500000000E+03 0.  0.
<mgrwt>
<rscale>  0 0.51517906E+03</rscale>
<asrwt>0</asrwt>
<pdfrwt beam="1">  1        2 0.17577198E+00 0.51517906E+03</pdfrwt>
<pdfrwt beam="2">  1       -2 0.89347014E-02 0.51517906E+03</pdfrwt>
<totfact> 0.17072282E+03</totfact>
</mgrwt>
</event>
<event>
 4    1  0.9050888E-005  0.1313255E+04  0.7818608E-02  0.9019120E-01
         -2   -1    0    0    0  501 -0.00000000000E+00  0.00000000000E+00  0.19518891232E+03  0.19518891234E+03  0.25500000000E-02 0. -1.
          2   -1    0    0  501    0  0.00000000000E+00 -0.00000000000E+00 -0.22089337457E+04  0.22089337457E+04  0.25500000000E-02 0.  1.
    5000001    1    1    2    0    0  0.19826261799E+03 -0.58973009563E+03 -0.76927612574E+03  0.10030455668E+04  0.16500000000E+03 0.  0.
   -5000001    1    1    2    0    0 -0.19826261799E+03  0.58973009563E+03 -0.12444687077E+04  0.14010770913E+04  0.16500000000E+03 0.  0.
<mgrwt>
<rscale>  0 0.13132545E+04</rscale>
<asrwt>0</asrwt>
<pdfrwt beam="1">  1        2 0.33983594E+00 0.13132545E+04</pdfrwt>
<pdfrwt beam="2">  1       -2 0.30029065E-01 0.13132545E+04</pdfrwt>
<totfact> 0.51272279E+01</totfact>
</mgrwt>
</event>
<event>
 4    1  0.9050888E-005  0.3865253E+03  0.7818608E-02  0.1048548E+00
         -2   -1    0    0    0  501 -0.00000000000E+00  0.00000000000E+00  0.85644326984E+02  0.85644327022E+02  0.25500000000E-02 0. -1.
          2   -1    0    0  501    0  0.00000000000E+00 -0.00000000000E+00 -0.43611113298E+03  0.43611113299E+03  0.25500000000E-02 0.  1.
    5000001    1    1    2    0    0  0.78580364659E+02 -0.59334106450E+02 -0.20322584670E+03  0.27968045099E+03  0.16500000000E+03 0.  0.
   -5000001    1    1    2    0    0 -0.78580364659E+02  0.59334106450E+02 -0.14724095930E+03  0.24207500902E+03  0.16500000000E+03 0.  0.
<mgrwt>
<rscale>  0 0.38652526E+03</rscale>
<asrwt>0</asrwt>
<pdfrwt beam="1">  1        2 0.67094019E-01 0.38652526E+03</pdfrwt>
<pdfrwt beam="2">  1       -2 0.13176051E-01 0.38652526E+03</pdfrwt>
<totfact> 0.30956450E+03</totfact>
</mgrwt>
</event>
<event>
 4    1  0.9050888E-005  0.6213604E+03  0.7818608E-02  0.9862055E-01
          2   -1    0    0  501    0  0.00000000000E+00  0.00000000000E+00  0.10200679469E+04  0.10200679469E+04  0.25500000000E-02 0.  1.
         -2   -1    0    0    0  501 -0.00000000000E+00 -0.00000000000E+00 -0.94623294211E+02  0.94623294246E+02  0.25500000000E-02 0. -1.
    5000001    1    1    2    0    0  0.14270223772E+03  0.16421327810E+03  0.19683419188E+03  0.33659861623E+03  0.16500000000E+03 0.  0.
   -5000001    1    1    2    0    0 -0.14270223772E+03 -0.16421327810E+03  0.72861046078E+03  0.77809262489E+03  0.16500000000E+03 0.  0.
<mgrwt>
<rscale>  0 0.62136041E+03</rscale>
<asrwt>0</asrwt>
<pdfrwt beam="1">  1        2 0.15693354E+00 0.62136041E+03</pdfrwt>
<pdfrwt beam="2">  1       -2 0.14557429E-01 0.62136041E+03</pdfrwt>
<totfact> 0.90866168E+02</totfact>
</mgrwt>
</event>
<event>
 4    1  0.9050888E-005  0.5833730E+03  0.7818608E-02  0.9940515E-01
         -2   -1    0    0    0  501 -0.00000000000E+00  0.00000000000E+00  0.97810051694E+02  0.97810051728E+02  0.25500000000E-02 0. -1.
          2   -1    0    0  501    0  0.00000000000E+00 -0.00000000000E+00 -0.86985975190E+03  0.86985975191E+03  0.25500000000E-02 0.  1.
    5000001    1    1    2    0    0  0.22480166506E+03  0.73176888501E+02 -0.45956157505E+03  0.54250574825E+03  0.16500000000E+03 0.  0.
   -5000001    1    1    2    0    0 -0.22480166506E+03 -0.73176888501E+02 -0.31248812516E+03  0.42516405539E+03  0.16500000000E+03 0.  0.
<mgrwt>
<rscale>  0 0.58337304E+03</rscale>
<asrwt>0</asrwt>
<pdfrwt beam="1">  1        2 0.13382457E+00 0.58337304E+03</pdfrwt>
<pdfrwt beam="2">  1       -2 0.15047701E-01 0.58337304E+03</pdfrwt>
<totfact> 0.10778381E+03</totfact>
</mgrwt>
</event>
<event>
 4    1  0.9050888E-005  0.5541432E+03  0.7818608E-02  0.1000539E+00
          2   -1    0    0  501    0  0.00000000000E+00  0.00000000000E+00  0.23104634602E+03  0.23104634603E+03  0.25500000000E-02 0.  1.
         -2   -1    0    0    0  501 -0.00000000000E+00 -0.00000000000E+00 -0.33226520000E+03  0.33226520001E+03  0.25500000000E-02 0. -1.
    5000001    1    1    2    0    0 -0.48956275452E+02 -0.11494206790E+03  0.13665371049E+03  0.24800732342E+03  0.16500000000E+03 0.  0.
   -5000001    1    1    2    0    0  0.48956275452E+02  0.11494206790E+03 -0.23787256447E+03  0.31530422263E+03  0.16500000000E+03 0.  0.
<mgrwt>
<rscale>  0 0.55414316E+03</rscale>
<asrwt>0</asrwt>
<pdfrwt beam="1">  1        2 0.35545592E-01 0.55414316E+03</pdfrwt>
<pdfrwt beam="2">  1       -2 0.51117723E-01 0.55414316E+03</pdfrwt>
<totfact> 0.53587936E+02</totfact>
</mgrwt>
</event>
<event>
 4    1  0.9050888E-005  0.3877343E+03  0.7818608E-02  0.1048112E+00
         -2   -1    0    0    0  501 -0.00000000000E+00  0.00000000000E+00  0.23678915197E+03  0.23678915198E+03  0.25500000000E-02 0. -1.
          2   -1    0    0  501    0  0.00000000000E+00 -0.00000000000E+00 -0.15872551647E+03  0.15872551650E+03  0.25500000000E-02 0.  1.
    5000001    1    1    2    0    0  0.97571025670E+01  0.54207746377E+02 -0.48276544488E+02  0.18052508293E+03  0.16500000000E+03 0.  0.
   -5000001    1    1    2    0    0 -0.97571025670E+01 -0.54207746377E+02  0.12634017998E+03  0.21498958555E+03  0.16500000000E+03 0.  0.
<mgrwt>
<rscale>  0 0.38773434E+03</rscale>
<asrwt>0</asrwt>
<pdfrwt beam="1">  1        2 0.24419310E-01 0.38773434E+03</pdfrwt>
<pdfrwt beam="2">  1       -2 0.36429100E-01 0.38773434E+03</pdfrwt>
<totfact> 0.15841271E+03</totfact>
</mgrwt>
</event>
<event>
 4    1  0.9050888E-005  0.5571117E+03  0.7818608E-02  0.9998611E-01
          2   -1    0    0  501    0  0.00000000000E+00  0.00000000000E+00  0.10943834026E+04  0.10943834026E+04  0.25500000000E-02 0.  1.
         -2   -1    0    0    0  501 -0.00000000000E+00 -0.00000000000E+00 -0.70901442316E+02  0.70901442362E+02  0.25500000000E-02 0. -1.
    5000001    1    1    2    0    0 -0.13375315267E+03 -0.14784917217E+03  0.72728363473E+03  0.77195580761E+03  0.16500000000E+03 0.  0.
   -5000001    1    1    2    0    0  0.13375315267E+03  0.14784917217E+03  0.29619832555E+03  0.39332903735E+03  0.16500000000E+03 0.  0.
<mgrwt>
<rscale>  0 0.55711170E+03</rscale>
<asrwt>0</asrwt>
<pdfrwt beam="1">  1        2 0.16836668E+00 0.55711170E+03</pdfrwt>
<pdfrwt beam="2">  1       -2 0.10907914E-01 0.55711170E+03</pdfrwt>
<totfact> 0.13204567E+03</totfact>
</mgrwt>
</event>
<event>
 4    1  0.9050888E-005  0.9056846E+03  0.7818608E-02  0.9418503E-01
          2   -1    0    0  501    0  0.00000000000E+00  0.00000000000E+00  0.43858052886E+04  0.43858052886E+04  0.25500000000E-02 0.  1.
         -2   -1    0    0    0  501 -0.00000000000E+00 -0.00000000000E+00 -0.46756783604E+02  0.46756783674E+02  0.25500000000E-02 0. -1.
    5000001    1    1    2    0    0  0.26525014527E+03  0.32775880400E+03  0.22066927213E+04  0.22526653634E+04  0.16500000000E+03 0.  0.
   -5000001    1    1    2    0    0 -0.26525014527E+03 -0.32775880400E+03  0.21323557838E+04  0.21798967089E+04  0.16500000000E+03 0.  0.
<mgrwt>
<rscale>  0 0.90568460E+03</rscale>
<asrwt>0</asrwt>
<pdfrwt beam="1">  1        2 0.67473918E+00 0.90568460E+03</pdfrwt>
<pdfrwt beam="2">  1       -2 0.71933524E-02 0.90568460E+03</pdfrwt>
<totfact> 0.20184284E+01</totfact>
</mgrwt>
</event>
<event>
 4    1  0.9050888E-005  0.6343188E+03  0.7818608E-02  0.9836657E-01
          2   -1    0    0  501    0  0.00000000000E+00  0.00000000000E+00  0.63567757616E+03  0.63567757616E+03  0.25500000000E-02 0.  1.
         -2   -1    0    0    0  501 -0.00000000000E+00 -0.00000000000E+00 -0.15824071464E+03  0.15824071466E+03  0.25500000000E-02 0. -1.
    5000001    1    1    2    0    0  0.34071330760E+02  0.22947138829E+03  0.63729966716E+02  0.29172672535E+03  0.16500000000E+03 0.  0.
   -5000001    1    1    2    0    0 -0.34071330760E+02 -0.22947138829E+03  0.41370689480E+03  0.50219156547E+03  0.16500000000E+03 0.  0.
<mgrwt>
<rscale>  0 0.63431877E+03</rscale>
<asrwt>0</asrwt>
<pdfrwt beam="1">  1        2 0.97796550E-01 0.63431877E+03</pdfrwt>
<pdfrwt beam="2">  1       -2 0.24344725E-01 0.63431877E+03</pdfrwt>
<totfact> 0.69886186E+02</totfact>
</mgrwt>
</event>
<event>
 4    1  0.9050888E-005  0.3995849E+03  0.7818608E-02  0.1043923E+00
          2   -1    0    0  501    0  0.00000000000E+00  0.00000000000E+00  0.27133705634E+03  0.27133705635E+03  0.25500000000E-02 0.  1.
         -2   -1    0    0    0  501 -0.00000000000E+00 -0.00000000000E+00 -0.14711234792E+03  0.14711234794E+03  0.25500000000E-02 0. -1.
    5000001    1    1    2    0    0  0.77779519282E+02  0.63391594948E+02  0.84702117172E+01  0.19330000625E+03  0.16500000000E+03 0.  0.
   -5000001    1    1    2    0    0 -0.77779519282E+02 -0.63391594948E+02  0.11575449670E+03  0.22514939804E+03  0.16500000000E+03 0.  0.
<mgrwt>
<rscale>  0 0.39958494E+03</rscale>
<asrwt>0</asrwt>
<pdfrwt beam="1">  1        2 0.41744162E-01 0.39958494E+03</pdfrwt>
<pdfrwt beam="2">  1       -2 0.22632669E-01 0.39958494E+03</pdfrwt>
<totfact> 0.20807814E+03</totfact>
</mgrwt>
</event>
<event>
 4    1  0.9050888E-005  0.4907680E+03  0.7818608E-02  0.1016217E+00
          2   -1    0    0  501    0  0.00000000000E+00  0.00000000000E+00  0.17851835259E+04  0.17851835259E+04  0.25500000000E-02 0.  1.
         -2   -1    0    0    0  501 -0.00000000000E+00 -0.00000000000E+00 -0.33729471263E+02  0.33729471360E+02  0.25500000000E-02 0. -1.
    5000001    1    1    2    0    0  0.15794858928E+03 -0.74656438900E+01  0.54454416605E+03  0.59055638298E+03  0.16500000000E+03 0.  0.
   -5000001    1    1    2    0    0 -0.15794858928E+03  0.74656438900E+01  0.12069098885E+04  0.12283566142E+04  0.16500000000E+03 0.  0.
<mgrwt>
<rscale>  0 0.49076796E+03</rscale>
<asrwt>0</asrwt>
<pdfrwt beam="1">  1        2 0.27464361E+00 0.49076796E+03</pdfrwt>
<pdfrwt beam="2">  1       -2 0.51891496E-02 0.49076796E+03</pdfrwt>
<totfact> 0.17630562E+03</totfact>
</mgrwt>
</event>
<event>
 4    1  0.9050888E-005  0.4260446E+03  0.7818608E-02  0.1035117E+00
         -2   -1    0    0    0  501 -0.00000000000E+00  0.00000000000E+00  0.58830891151E+02  0.58830891206E+02  0.25500000000E-02 0.  1.
          2   -1    0    0  501    0  0.00000000000E+00 -0.00000000000E+00 -0.77133810934E+03  0.77133810934E+03  0.25500000000E-02 0. -1.
    5000001    1    1    2    0    0 -0.10186481013E+03 -0.83840566901E+02 -0.30296770732E+03  0.36935093323E+03  0.16500000000E+03 0.  0.
   -5000001    1    1    2    0    0  0.10186481013E+03  0.83840566901E+02 -0.40953951087E+03  0.46081806732E+03  0.16500000000E+03 0.  0.
<mgrwt>
<rscale>  0 0.42604464E+03</rscale>
<asrwt>0</asrwt>
<pdfrwt beam="1">  1        2 0.11866739E+00 0.42604464E+03</pdfrwt>
<pdfrwt beam="2">  1       -2 0.90509069E-02 0.42604464E+03</pdfrwt>
<totfact> 0.29056970E+03</totfact>
</mgrwt>
</event>
<event>
 4    1  0.9050888E-005  0.4865899E+03  0.7818608E-02  0.1017340E+00
         -2   -1    0    0    0  501 -0.00000000000E+00  0.00000000000E+00  0.42539342381E+02  0.42539342458E+02  0.25500000000E-02 0. -1.
          2   -1    0    0  501    0  0.00000000000E+00 -0.00000000000E+00 -0.13914749363E+04  0.13914749363E+04  0.25500000000E-02 0.  1.
    5000001    1    1    2    0    0 -0.12095976461E+03 -0.79781205150E+02 -0.36578249536E+03  0.42663583917E+03  0.16500000000E+03 0.  0.
   -5000001    1    1    2    0    0  0.12095976461E+03  0.79781205150E+02 -0.98315309859E+03  0.10073784396E+04  0.16500000000E+03 0.  0.
<mgrwt>
<rscale>  0 0.48658988E+03</rscale>
<asrwt>0</asrwt>
<pdfrwt beam="1">  1        2 0.21407303E+00 0.48658988E+03</pdfrwt>
<pdfrwt beam="2">  1       -2 0.65445153E-02 0.48658988E+03</pdfrwt>
<totfact> 0.20130274E+03</totfact>
</mgrwt>
</event>
<event>
 4    1  0.9050888E-005  0.3778239E+03  0.7818608E-02  0.1051741E+00
          2   -1    0    0  501    0  0.00000000000E+00  0.00000000000E+00  0.25666557239E+02  0.25666557366E+02  0.25500000000E-02 0.  1.
         -2   -1    0    0    0  501 -0.00000000000E+00 -0.00000000000E+00 -0.13904364770E+04  0.13904364770E+04  0.25500000000E-02 0. -1.
    5000001    1    1    2    0    0 -0.50544569490E+02 -0.75437082129E+02 -0.62714593156E+03  0.65481487944E+03  0.16500000000E+03 0.  0.
   -5000001    1    1    2    0    0  0.50544569490E+02  0.75437082129E+02 -0.73762398824E+03  0.76128815497E+03  0.16500000000E+03 0.  0.
<mgrwt>
<rscale>  0 0.37782386E+03</rscale>
<asrwt>0</asrwt>
<pdfrwt beam="1">  1        2 0.39487022E-02 0.37782386E+03</pdfrwt>
<pdfrwt beam="2">  1       -2 0.21391325E+00 0.37782386E+03</pdfrwt>
<totfact> 0.25444322E+02</totfact>
</mgrwt>
</event>
<event>
 4    1  0.9050888E-005  0.5066609E+03  0.7818608E-02  0.1012055E+00
         -2   -1    0    0    0  501 -0.00000000000E+00  0.00000000000E+00  0.65699515388E+02  0.65699515438E+02  0.25500000000E-02 0. -1.
          2   -1    0    0  501    0  0.00000000000E+00 -0.00000000000E+00 -0.97681548988E+03  0.97681548988E+03  0.25500000000E-02 0.  1.
    5000001    1    1    2    0    0  0.17438052960E+03 -0.78276316024E+02 -0.41361315310E+03  0.48459941309E+03  0.16500000000E+03 0.  0.
   -5000001    1    1    2    0    0 -0.17438052960E+03  0.78276316024E+02 -0.49750282139E+03  0.55791559223E+03  0.16500000000E+03 0.  0.
<mgrwt>
<rscale>  0 0.50666085E+03</rscale>
<asrwt>0</asrwt>
<pdfrwt beam="1">  1        2 0.15027930E+00 0.50666085E+03</pdfrwt>
<pdfrwt beam="2">  1       -2 0.10107618E-01 0.50666085E+03</pdfrwt>
<totfact> 0.17693922E+03</totfact>
</mgrwt>
</event>
<event>
 4    1  0.9050888E-005  0.5177836E+03  0.7818608E-02  0.1009239E+00
          2   -1    0    0  501    0  0.00000000000E+00  0.00000000000E+00  0.28611142659E+03  0.28611142660E+03  0.25500000000E-02 0.  1.
         -2   -1    0    0    0  501 -0.00000000000E+00 -0.00000000000E+00 -0.23426176391E+03  0.23426176393E+03  0.25500000000E-02 0. -1.
    5000001    1    1    2    0    0  0.88894200428E+02  0.10026400930E+03 -0.12261461885E+03  0.24538621637E+03  0.16500000000E+03 0.  0.
   -5000001    1    1    2    0    0 -0.88894200428E+02 -0.10026400930E+03  0.17446428153E+03  0.27498697416E+03  0.16500000000E+03 0.  0.
<mgrwt>
<rscale>  0 0.51778361E+03</rscale>
<asrwt>0</asrwt>
<pdfrwt beam="1">  1        2 0.44017143E-01 0.51778361E+03</pdfrwt>
<pdfrwt beam="2">  1       -2 0.36040271E-01 0.51778361E+03</pdfrwt>
<totfact> 0.84126310E+02</totfact>
</mgrwt>
</event>
<event>
 4    1  0.9050888E-005  0.4427147E+03  0.7818608E-02  0.1029917E+00
          2   -1    0    0  501    0  0.00000000000E+00  0.00000000000E+00  0.14893176465E+04  0.14893176465E+04  0.25500000000E-02 0.  1.
         -2   -1    0    0    0  501 -0.00000000000E+00 -0.00000000000E+00 -0.32900353703E+02  0.32900353802E+02  0.25500000000E-02 0. -1.
    5000001    1    1    2    0    0 -0.12747697218E+03  0.26593275789E+02  0.48958221958E+03  0.53279764497E+03  0.16500000000E+03 0.  0.
   -5000001    1    1    2    0    0  0.12747697218E+03 -0.26593275789E+02  0.96683507323E+03  0.98942035535E+03  0.16500000000E+03 0.  0.
<mgrwt>
<rscale>  0 0.44271470E+03</rscale>
<asrwt>0</asrwt>
<pdfrwt beam="1">  1        2 0.22912583E+00 0.44271470E+03</pdfrwt>
<pdfrwt beam="2">  1       -2 0.50615920E-02 0.44271470E+03</pdfrwt>
<totfact> 0.26525492E+03</totfact>
</mgrwt>
</event>
<event>
 4    1  0.9050888E-005  0.8981802E+03  0.7818608E-02  0.9427859E-01
          2   -1    0    0  501    0  0.00000000000E+00  0.00000000000E+00  0.96489130301E+03  0.96489130301E+03  0.25500000000E-02 0.  1.
         -2   -1    0    0    0  501 -0.00000000000E+00 -0.00000000000E+00 -0.20902036789E+03  0.20902036791E+03  0.25500000000E-02 0. -1.
    5000001    1    1    2    0    0  0.80365525305E+01 -0.39649445956E+03  0.20660275912E+03  0.47663627927E+03  0.16500000000E+03 0.  0.
   -5000001    1    1    2    0    0 -0.80365525305E+01  0.39649445956E+03  0.54926817600E+03  0.69727539165E+03  0.16500000000E+03 0.  0.
<mgrwt>
<rscale>  0 0.89818024E+03</rscale>
<asrwt>0</asrwt>
<pdfrwt beam="1">  1        2 0.14844481E+00 0.89818024E+03</pdfrwt>
<pdfrwt beam="2">  1       -2 0.32156980E-01 0.89818024E+03</pdfrwt>
<totfact> 0.23924740E+02</totfact>
</mgrwt>
</event>
<event>
 4    1  0.9050888E-005  0.4032001E+03  0.7818608E-02  0.1042677E+00
          2   -1    0    0  501    0  0.00000000000E+00  0.00000000000E+00  0.23917051386E+03  0.23917051387E+03  0.25500000000E-02 0.  1.
         -2   -1    0    0    0  501 -0.00000000000E+00 -0.00000000000E+00 -0.16993138333E+03  0.16993138335E+03  0.25500000000E-02 0. -1.
    5000001    1    1    2    0    0 -0.13968018947E+02 -0.11207947225E+03  0.60699154843E+02  0.20896483209E+03  0.16500000000E+03 0.  0.
   -5000001    1    1    2    0    0  0.13968018947E+02  0.11207947225E+03  0.85399756890E+01  0.20013706513E+03  0.16500000000E+03 0.  0.
<mgrwt>
<rscale>  0 0.40320008E+03</rscale>
<asrwt>0</asrwt>
<pdfrwt beam="1">  1        2 0.36795464E-01 0.40320008E+03</pdfrwt>
<pdfrwt beam="2">  1       -2 0.26143290E-01 0.40320008E+03</pdfrwt>
<totfact> 0.18499402E+03</totfact>
</mgrwt>
</event>
<event>
 4    1  0.9050888E-005  0.4663060E+03  0.7818608E-02  0.1022968E+00
          2   -1    0    0  501    0  0.00000000000E+00  0.00000000000E+00  0.10090240029E+04  0.10090240029E+04  0.25500000000E-02 0.  1.
         -2   -1    0    0    0  501 -0.00000000000E+00 -0.00000000000E+00 -0.53874166880E+02  0.53874166941E+02  0.25500000000E-02 0. -1.
    5000001    1    1    2    0    0 -0.10849443115E+03  0.10414731864E+03  0.32436898815E+03  0.39377397837E+03  0.16500000000E+03 0.  0.
   -5000001    1    1    2    0    0  0.10849443115E+03 -0.10414731864E+03  0.63078084785E+03  0.66912419145E+03  0.16500000000E+03 0.  0.
<mgrwt>
<rscale>  0 0.46630603E+03</rscale>
<asrwt>0</asrwt>
<pdfrwt beam="1">  1        2 0.15523446E+00 0.46630603E+03</pdfrwt>
<pdfrwt beam="2">  1       -2 0.82883335E-02 0.46630603E+03</pdfrwt>
<totfact> 0.23216094E+03</totfact>
</mgrwt>
</event>
<event>
 4    1  0.9050888E-005  0.4853982E+03  0.7818608E-02  0.1017662E+00
          2   -1    0    0  501    0  0.00000000000E+00  0.00000000000E+00  0.11301165380E+04  0.11301165380E+04  0.25500000000E-02 0.  1.
         -2   -1    0    0    0  501 -0.00000000000E+00 -0.00000000000E+00 -0.52121042980E+02  0.52121043042E+02  0.25500000000E-02 0. -1.
    5000001    1    1    2    0    0  0.12495337752E+03  0.83641378060E+02  0.30705684283E+03  0.37962893910E+03  0.16500000000E+03 0.  0.
   -5000001    1    1    2    0    0 -0.12495337752E+03 -0.83641378060E+02  0.77093865216E+03  0.80260864191E+03  0.16500000000E+03 0.  0.
<mgrwt>
<rscale>  0 0.48539820E+03</rscale>
<asrwt>0</asrwt>
<pdfrwt beam="1">  1        2 0.17386408E+00 0.48539820E+03</pdfrwt>
<pdfrwt beam="2">  1       -2 0.80186222E-02 0.48539820E+03</pdfrwt>
<totfact> 0.20643547E+03</totfact>
</mgrwt>
</event>
<event>
 4    1  0.9050888E-005  0.4381462E+03  0.7818608E-02  0.1031317E+00
          2   -1    0    0  501    0  0.00000000000E+00  0.00000000000E+00  0.50359101168E+03  0.50359101168E+03  0.25500000000E-02 0.  1.
         -2   -1    0    0    0  501 -0.00000000000E+00 -0.00000000000E+00 -0.95301578040E+02  0.95301578074E+02  0.25500000000E-02 0. -1.
    5000001    1    1    2    0    0  0.80760753724E+02  0.11918047311E+03  0.19531447028E+03  0.29342635671E+03  0.16500000000E+03 0.  0.
   -5000001    1    1    2    0    0 -0.80760753724E+02 -0.11918047311E+03  0.21297496336E+03  0.30546623305E+03  0.16500000000E+03 0.  0.
<mgrwt>
<rscale>  0 0.43814618E+03</rscale>
<asrwt>0</asrwt>
<pdfrwt beam="1">  1        2 0.77475540E-01 0.43814618E+03</pdfrwt>
<pdfrwt beam="2">  1       -2 0.14661781E-01 0.43814618E+03</pdfrwt>
<totfact> 0.22091273E+03</totfact>
</mgrwt>
</event>
<event>
 4    1  0.9050888E-005  0.6656286E+03  0.7818608E-02  0.9777887E-01
          2   -1    0    0  501    0  0.00000000000E+00  0.00000000000E+00  0.84843362158E+03  0.84843362159E+03  0.25500000000E-02 0.  1.
         -2   -1    0    0    0  501 -0.00000000000E+00 -0.00000000000E+00 -0.13055278337E+03  0.13055278340E+03  0.25500000000E-02 0. -1.
    5000001    1    1    2    0    0 -0.27103087190E+03  0.68192761922E+02  0.25053776544E+03  0.41000263196E+03  0.16500000000E+03 0.  0.
   -5000001    1    1    2    0    0  0.27103087190E+03 -0.68192761922E+02  0.46734307277E+03  0.56898377303E+03  0.16500000000E+03 0.  0.
<mgrwt>
<rscale>  0 0.66562864E+03</rscale>
<asrwt>0</asrwt>
<pdfrwt beam="1">  1        2 0.13052824E+00 0.66562864E+03</pdfrwt>
<pdfrwt beam="2">  1       -2 0.20085044E-01 0.66562864E+03</pdfrwt>
<totfact> 0.67813455E+02</totfact>
</mgrwt>
</event>
<event>
 4    1  0.9050888E-005  0.6609352E+03  0.7818608E-02  0.9786474E-01
          2   -1    0    0  501    0  0.00000000000E+00  0.00000000000E+00  0.11319559530E+04  0.11319559530E+04  0.25500000000E-02 0.  1.
         -2   -1    0    0    0  501 -0.00000000000E+00 -0.00000000000E+00 -0.96478000757E+02  0.96478000791E+02  0.25500000000E-02 0. -1.
    5000001    1    1    2    0    0  0.28295877925E+03 -0.42842239957E+02  0.53464321519E+03  0.62846598621E+03  0.16500000000E+03 0.  0.
   -5000001    1    1    2    0    0 -0.28295877925E+03  0.42842239957E+02  0.50083473701E+03  0.59996796754E+03  0.16500000000E+03 0.  0.
<mgrwt>
<rscale>  0 0.66093524E+03</rscale>
<asrwt>0</asrwt>
<pdfrwt beam="1">  1        2 0.17414707E+00 0.66093524E+03</pdfrwt>
<pdfrwt beam="2">  1       -2 0.14842769E-01 0.66093524E+03</pdfrwt>
<totfact> 0.74966515E+02</totfact>
</mgrwt>
</event>
<event>
 4    1  0.9050888E-005  0.4960680E+03  0.7818608E-02  0.1014810E+00
         -2   -1    0    0    0  501 -0.00000000000E+00  0.00000000000E+00  0.46650042811E+02  0.46650042880E+02  0.25500000000E-02 0. -1.
          2   -1    0    0  501    0  0.00000000000E+00 -0.00000000000E+00 -0.13187741551E+04  0.13187741551E+04  0.25500000000E-02 0.  1.
    5000001    1    1    2    0    0 -0.10285609236E+03 -0.60868804442E+02 -0.10254352125E+04  0.10454792021E+04  0.16500000000E+03 0.  0.
   -5000001    1    1    2    0    0  0.10285609236E+03  0.60868804442E+02 -0.24668889986E+03  0.31994499591E+03  0.16500000000E+03 0.  0.
<mgrwt>
<rscale>  0 0.49606802E+03</rscale>
<asrwt>0</asrwt>
<pdfrwt beam="1">  1        2 0.20288830E+00 0.49606802E+03</pdfrwt>
<pdfrwt beam="2">  1       -2 0.71769307E-02 0.49606802E+03</pdfrwt>
<totfact> 0.19124637E+03</totfact>
</mgrwt>
</event>
<event>
 4    1  0.9050888E-005  0.4930791E+03  0.7818608E-02  0.1015601E+00
         -2   -1    0    0    0  501 -0.00000000000E+00  0.00000000000E+00  0.45820914472E+02  0.45820914543E+02  0.25500000000E-02 0. -1.
          2   -1    0    0  501    0  0.00000000000E+00 -0.00000000000E+00 -0.13265066567E+04  0.13265066567E+04  0.25500000000E-02 0.  1.
    5000001    1    1    2    0    0  0.16363366586E+03 -0.67807829775E+02 -0.77037632838E+03  0.80751381766E+03  0.16500000000E+03 0.  0.
   -5000001    1    1    2    0    0 -0.16363366586E+03  0.67807829775E+02 -0.51030941387E+03  0.56481375361E+03  0.16500000000E+03 0.  0.
<mgrwt>
<rscale>  0 0.49307909E+03</rscale>
<asrwt>0</asrwt>
<pdfrwt beam="1">  1        2 0.20407792E+00 0.49307909E+03</pdfrwt>
<pdfrwt beam="2">  1       -2 0.70493725E-02 0.49307909E+03</pdfrwt>
<totfact> 0.19477104E+03</totfact>
</mgrwt>
</event>
<event>
 4    1  0.9050888E-005  0.6468408E+03  0.7818608E-02  0.9812725E-01
         -2   -1    0    0    0  501 -0.00000000000E+00  0.00000000000E+00  0.21378319900E+03  0.21378319902E+03  0.25500000000E-02 0. -1.
          2   -1    0    0  501    0  0.00000000000E+00 -0.00000000000E+00 -0.48928421651E+03  0.48928421651E+03  0.25500000000E-02 0.  1.
    5000001    1    1    2    0    0 -0.26952596583E+03  0.21753336043E+01 -0.63022799439E+02  0.32225122433E+03  0.16500000000E+03 0.  0.
   -5000001    1    1    2    0    0  0.26952596583E+03 -0.21753336043E+01 -0.21247821807E+03  0.38081619121E+03  0.16500000000E+03 0.  0.
<mgrwt>
<rscale>  0 0.64684077E+03</rscale>
<asrwt>0</asrwt>
<pdfrwt beam="1">  1        2 0.75274494E-01 0.64684077E+03</pdfrwt>
<pdfrwt beam="2">  1       -2 0.32889723E-01 0.64684077E+03</pdfrwt>
<totfact> 0.54829341E+02</totfact>
</mgrwt>
</event>
<event>
 4    1  0.9050888E-005  0.3948770E+03  0.7818608E-02  0.1045568E+00
          2   -1    0    0  501    0  0.00000000000E+00  0.00000000000E+00  0.11074507227E+03  0.11074507229E+03  0.25500000000E-02 0.  1.
         -2   -1    0    0    0  501 -0.00000000000E+00 -0.00000000000E+00 -0.35199720704E+03  0.35199720705E+03  0.25500000000E-02 0. -1.
    5000001    1    1    2    0    0  0.21854654108E+02 -0.75152096301E+02 -0.32685526482E+02  0.18552306360E+03  0.16500000000E+03 0.  0.
   -5000001    1    1    2    0    0 -0.21854654108E+02  0.75152096301E+02 -0.20856660829E+03  0.27721921574E+03  0.16500000000E+03 0.  0.
<mgrwt>
<rscale>  0 0.39487697E+03</rscale>
<asrwt>0</asrwt>
<pdfrwt beam="1">  1        2 0.17037704E-01 0.39487697E+03</pdfrwt>
<pdfrwt beam="2">  1       -2 0.54153416E-01 0.39487697E+03</pdfrwt>
<totfact> 0.11020577E+03</totfact>
</mgrwt>
</event>
<event>
 4    1  0.9050888E-005  0.7799276E+03  0.7818608E-02  0.9589534E-01
          2   -1    0    0  501    0  0.00000000000E+00  0.00000000000E+00  0.85029257197E+03  0.85029257198E+03  0.25500000000E-02 0.  1.
         -2   -1    0    0    0  501 -0.00000000000E+00 -0.00000000000E+00 -0.17884641649E+03  0.17884641650E+03  0.25500000000E-02 0. -1.
    5000001    1    1    2    0    0  0.29105439013E+03 -0.31818516127E+02  0.74730233326E+02  0.34428866342E+03  0.16500000000E+03 0.  0.
   -5000001    1    1    2    0    0 -0.29105439013E+03  0.31818516127E+02  0.59671592216E+03  0.68485032507E+03  0.16500000000E+03 0.  0.
<mgrwt>
<rscale>  0 0.77992764E+03</rscale>
<asrwt>0</asrwt>
<pdfrwt beam="1">  1        2 0.13081425E+00 0.77992764E+03</pdfrwt>
<pdfrwt beam="2">  1       -2 0.27514833E-01 0.77992764E+03</pdfrwt>
<totfact> 0.38360752E+02</totfact>
</mgrwt>
</event>
<event>
 4    1  0.9050888E-005  0.1171516E+04  0.7818608E-02  0.9138160E-01
          2   -1    0    0  501    0  0.00000000000E+00  0.00000000000E+00  0.57945721147E+03  0.57945721148E+03  0.25500000000E-02 0. -1.
         -2   -1    0    0    0  501 -0.00000000000E+00 -0.00000000000E+00 -0.59212777182E+03  0.59212777182E+03  0.25500000000E-02 0.  1.
    5000001    1    1    2    0    0 -0.44924069643E+03 -0.30601255716E+03  0.13659550191E+03  0.58424671126E+03  0.16500000000E+03 0.  0.
   -5000001    1    1    2    0    0  0.44924069643E+03  0.30601255716E+03 -0.14926606225E+03  0.58733827205E+03  0.16500000000E+03 0.  0.
<mgrwt>
<rscale>  0 0.11715165E+04</rscale>
<asrwt>0</asrwt>
<pdfrwt beam="1">  1        2 0.89147263E-01 0.11715165E+04</pdfrwt>
<pdfrwt beam="2">  1       -2 0.91096580E-01 0.11715165E+04</pdfrwt>
<totfact> 0.52567974E+01</totfact>
</mgrwt>
</event>
<event>
 4    1  0.9050888E-005  0.5905372E+03  0.7818608E-02  0.9925235E-01
         -2   -1    0    0    0  501 -0.00000000000E+00  0.00000000000E+00  0.96418260331E+02  0.96418260365E+02  0.25500000000E-02 0. -1.
          2   -1    0    0  501    0  0.00000000000E+00 -0.00000000000E+00 -0.90422234440E+03  0.90422234440E+03  0.25500000000E-02 0.  1.
    5000001    1    1    2    0    0 -0.22438159462E+03  0.97205841759E+02 -0.42550021953E+03  0.51775622884E+03  0.16500000000E+03 0.  0.
   -5000001    1    1    2    0    0  0.22438159462E+03 -0.97205841759E+02 -0.38230386453E+03  0.48288437593E+03  0.16500000000E+03 0.  0.
<mgrwt>
<rscale>  0 0.59053720E+03</rscale>
<asrwt>0</asrwt>
<pdfrwt beam="1">  1        2 0.13911112E+00 0.59053720E+03</pdfrwt>
<pdfrwt beam="2">  1       -2 0.14833579E-01 0.59053720E+03</pdfrwt>
<totfact> 0.10467858E+03</totfact>
</mgrwt>
</event>
<event>
 4    1  0.9050888E-005  0.3856233E+03  0.7818608E-02  0.1048875E+00
         -2   -1    0    0    0  501 -0.00000000000E+00  0.00000000000E+00  0.25523980645E+02  0.25523980772E+02  0.25500000000E-02 0. -1.
          2   -1    0    0  501    0  0.00000000000E+00 -0.00000000000E+00 -0.14565258812E+04  0.14565258812E+04  0.25500000000E-02 0.  1.
    5000001    1    1    2    0    0  0.87336856524E+02 -0.46853789356E+02 -0.67196268945E+03  0.69898630895E+03  0.16500000000E+03 0.  0.
   -5000001    1    1    2    0    0 -0.87336856524E+02  0.46853789356E+02 -0.75903921114E+03  0.78306355307E+03  0.16500000000E+03 0.  0.
<mgrwt>
<rscale>  0 0.38562333E+03</rscale>
<asrwt>0</asrwt>
<pdfrwt beam="1">  1        2 0.22408084E+00 0.38562333E+03</pdfrwt>
<pdfrwt beam="2">  1       -2 0.39267674E-02 0.38562333E+03</pdfrwt>
<totfact> 0.40784391E+03</totfact>
</mgrwt>
</event>
<event>
 4    1  0.9050888E-005  0.5145649E+03  0.7818608E-02  0.1010046E+00
         -2   -1    0    0    0  501 -0.00000000000E+00  0.00000000000E+00  0.33252214114E+02  0.33252214211E+02  0.25500000000E-02 0. -1.
          2   -1    0    0  501    0  0.00000000000E+00 -0.00000000000E+00 -0.19906721690E+04  0.19906721690E+04  0.25500000000E-02 0.  1.
    5000001    1    1    2    0    0  0.15325226716E+03  0.72759888255E+02 -0.13757368298E+04  0.13959430803E+04  0.16500000000E+03 0.  0.
   -5000001    1    1    2    0    0 -0.15325226716E+03 -0.72759888255E+02 -0.58168312512E+03  0.62798130289E+03  0.16500000000E+03 0.  0.
<mgrwt>
<rscale>  0 0.51456489E+03</rscale>
<asrwt>0</asrwt>
<pdfrwt beam="1">  1        2 0.30625716E+00 0.51456489E+03</pdfrwt>
<pdfrwt beam="2">  1       -2 0.51157268E-02 0.51456489E+03</pdfrwt>
<totfact> 0.13958220E+03</totfact>
</mgrwt>
</event>
<event>
 4    1  0.9050888E-005  0.3609504E+03  0.7818608E-02  0.1058208E+00
         -2   -1    0    0    0  501 -0.00000000000E+00  0.00000000000E+00  0.19260435281E+02  0.19260435450E+02  0.25500000000E-02 0. -1.
          2   -1    0    0  501    0  0.00000000000E+00 -0.00000000000E+00 -0.16910982924E+04  0.16910982924E+04  0.25500000000E-02 0.  1.
    5000001    1    1    2    0    0  0.18554995298E+02 -0.65283033554E+02 -0.96483078785E+03  0.98118785740E+03  0.16500000000E+03 0.  0.
   -5000001    1    1    2    0    0 -0.18554995298E+02  0.65283033554E+02 -0.70700706922E+03  0.72917087041E+03  0.16500000000E+03 0.  0.
<mgrwt>
<rscale>  0 0.36095035E+03</rscale>
<asrwt>0</asrwt>
<pdfrwt beam="1">  1        2 0.26016885E+00 0.36095035E+03</pdfrwt>
<pdfrwt beam="2">  1       -2 0.29631452E-02 0.36095035E+03</pdfrwt>
<totfact> 0.46634038E+03</totfact>
</mgrwt>
</event>
<event>
 4    1  0.9050888E-005  0.5251818E+03  0.7818608E-02  0.1007407E+00
          2   -1    0    0  501    0  0.00000000000E+00  0.00000000000E+00  0.26727942504E+04  0.26727942504E+04  0.25500000000E-02 0.  1.
         -2   -1    0    0    0  501 -0.00000000000E+00 -0.00000000000E+00 -0.25798459644E+02  0.25798459770E+02  0.25500000000E-02 0. -1.
    5000001    1    1    2    0    0  0.16058278309E+03 -0.81696293172E+02  0.18181700133E+04  0.18345103739E+04  0.16500000000E+03 0.  0.
   -5000001    1    1    2    0    0 -0.16058278309E+03  0.81696293172E+02  0.82882577741E+03  0.86408233626E+03  0.16500000000E+03 0.  0.
<mgrwt>
<rscale>  0 0.52518178E+03</rscale>
<asrwt>0</asrwt>
<pdfrwt beam="1">  1        2 0.41119929E+00 0.52518178E+03</pdfrwt>
<pdfrwt beam="2">  1       -2 0.39689922E-02 0.52518178E+03</pdfrwt>
<totfact> 0.86570026E+02</totfact>
</mgrwt>
</event>
<event>
 4    1  0.9050888E-005  0.6099063E+03  0.7818608E-02  0.9885064E-01
         -2   -1    0    0    0  501 -0.00000000000E+00  0.00000000000E+00  0.29388772281E+03  0.29388772282E+03  0.25500000000E-02 0. -1.
          2   -1    0    0  501    0  0.00000000000E+00 -0.00000000000E+00 -0.31643523226E+03  0.31643523227E+03  0.25500000000E-02 0.  1.
    5000001    1    1    2    0    0 -0.53454725537E+02 -0.24237372095E+03 -0.75885667634E+02  0.30754847234E+03  0.16500000000E+03 0.  0.
   -5000001    1    1    2    0    0  0.53454725537E+02  0.24237372095E+03  0.53338158178E+02  0.30277448275E+03  0.16500000000E+03 0.  0.
<mgrwt>
<rscale>  0 0.60990632E+03</rscale>
<asrwt>0</asrwt>
<pdfrwt beam="1">  1        2 0.48682343E-01 0.60990632E+03</pdfrwt>
<pdfrwt beam="2">  1       -2 0.45213496E-01 0.60990632E+03</pdfrwt>
<totfact> 0.48394983E+02</totfact>
</mgrwt>
</event>
<event>
 4    1  0.9050888E-005  0.4924870E+03  0.7818608E-02  0.1015759E+00
          2   -1    0    0  501    0  0.00000000000E+00  0.00000000000E+00  0.26411738493E+03  0.26411738495E+03  0.25500000000E-02 0.  1.
         -2   -1    0    0    0  501 -0.00000000000E+00 -0.00000000000E+00 -0.22957922551E+03  0.22957922552E+03  0.25500000000E-02 0. -1.
    5000001    1    1    2    0    0 -0.10701002982E+03 -0.11477987631E+03  0.11122921121E+03  0.25342159323E+03  0.16500000000E+03 0.  0.
   -5000001    1    1    2    0    0  0.10701002982E+03  0.11477987631E+03 -0.76691051781E+02  0.24027501724E+03  0.16500000000E+03 0.  0.
<mgrwt>
<rscale>  0 0.49248701E+03</rscale>
<asrwt>0</asrwt>
<pdfrwt beam="1">  1        2 0.40633444E-01 0.49248701E+03</pdfrwt>
<pdfrwt beam="2">  1       -2 0.35319881E-01 0.49248701E+03</pdfrwt>
<totfact> 0.95450792E+02</totfact>
</mgrwt>
</event>
<event>
 4    1  0.9050888E-005  0.4518149E+03  0.7818608E-02  0.1027182E+00
         -2   -1    0    0    0  501 -0.00000000000E+00  0.00000000000E+00  0.17269460460E+03  0.17269460462E+03  0.25500000000E-02 0. -1.
          2   -1    0    0  501    0  0.00000000000E+00 -0.00000000000E+00 -0.29551687680E+03  0.29551687681E+03  0.25500000000E-02 0.  1.
    5000001    1    1    2    0    0 -0.32905321219E+02  0.15032433101E+03 -0.73181386906E+02  0.23719333896E+03  0.16500000000E+03 0.  0.
   -5000001    1    1    2    0    0  0.32905321219E+02 -0.15032433101E+03 -0.49640885286E+02  0.23101814247E+03  0.16500000000E+03 0.  0.
<mgrwt>
<rscale>  0 0.45181487E+03</rscale>
<asrwt>0</asrwt>
<pdfrwt beam="1">  1        2 0.45464135E-01 0.45181487E+03</pdfrwt>
<pdfrwt beam="2">  1       -2 0.26568401E-01 0.45181487E+03</pdfrwt>
<totfact> 0.14269063E+03</totfact>
</mgrwt>
</event>
<event>
 4    1  0.9050888E-005  0.4902484E+03  0.7818608E-02  0.1016356E+00
         -2   -1    0    0    0  501 -0.00000000000E+00  0.00000000000E+00  0.13344963668E+03  0.13344963670E+03  0.25500000000E-02 0. -1.
          2   -1    0    0  501    0  0.00000000000E+00 -0.00000000000E+00 -0.45025130900E+03  0.45025130901E+03  0.25500000000E-02 0.  1.
    5000001    1    1    2    0    0 -0.12601965726E+03 -0.58520925483E+02 -0.19780320340E+02  0.21661466665E+03  0.16500000000E+03 0.  0.
   -5000001    1    1    2    0    0  0.12601965726E+03  0.58520925483E+02 -0.29702135198E+03  0.36708627906E+03  0.16500000000E+03 0.  0.
<mgrwt>
<rscale>  0 0.49024840E+03</rscale>
<asrwt>0</asrwt>
<pdfrwt beam="1">  1        2 0.69269431E-01 0.49024840E+03</pdfrwt>
<pdfrwt beam="2">  1       -2 0.20530714E-01 0.49024840E+03</pdfrwt>
<totfact> 0.14145545E+03</totfact>
</mgrwt>
</event>
<event>
 4    1  0.9050888E-005  0.4358775E+03  0.7818608E-02  0.1032019E+00
          2   -1    0    0  501    0  0.00000000000E+00  0.00000000000E+00  0.12040899213E+04  0.12040899213E+04  0.25500000000E-02 0.  1.
         -2   -1    0    0    0  501 -0.00000000000E+00 -0.00000000000E+00 -0.39446629601E+02  0.39446629683E+02  0.25500000000E-02 0. -1.
    5000001    1    1    2    0    0  0.91171074750E+02  0.64979018111E+02  0.83328155192E+03  0.85680661904E+03  0.16500000000E+03 0.  0.
   -5000001    1    1    2    0    0 -0.91171074750E+02 -0.64979018111E+02  0.33136173973E+03  0.38672993190E+03  0.16500000000E+03 0.  0.
<mgrwt>
<rscale>  0 0.43587746E+03</rscale>
<asrwt>0</asrwt>
<pdfrwt beam="1">  1        2 0.18524458E+00 0.43587746E+03</pdfrwt>
<pdfrwt beam="2">  1       -2 0.60687129E-02 0.43587746E+03</pdfrwt>
<totfact> 0.28948197E+03</totfact>
</mgrwt>
</event>
<event>
 4    1  0.9050888E-005  0.3779777E+03  0.7818608E-02  0.1051684E+00
         -2   -1    0    0    0  501 -0.00000000000E+00  0.00000000000E+00  0.41046552565E+02  0.41046552644E+02  0.25500000000E-02 0. -1.
          2   -1    0    0  501    0  0.00000000000E+00 -0.00000000000E+00 -0.87015309969E+03  0.87015309969E+03  0.25500000000E-02 0.  1.
    5000001    1    1    2    0    0  0.52710967281E+02 -0.73376505982E+02 -0.45829493533E+03  0.49540065144E+03  0.16500000000E+03 0.  0.
   -5000001    1    1    2    0    0 -0.52710967281E+02  0.73376505982E+02 -0.37081161180E+03  0.41579900089E+03  0.16500000000E+03 0.  0.
<mgrwt>
<rscale>  0 0.37797770E+03</rscale>
<asrwt>0</asrwt>
<pdfrwt beam="1">  1        2 0.13386969E+00 0.37797770E+03</pdfrwt>
<pdfrwt beam="2">  1       -2 0.63148549E-02 0.37797770E+03</pdfrwt>
<totfact> 0.43675757E+03</totfact>
</mgrwt>
</event>
<event>
 4    1  0.9050888E-005  0.7917507E+03  0.7818608E-02  0.9572035E-01
         -2   -1    0    0    0  501 -0.00000000000E+00  0.00000000000E+00  0.18942750077E+03  0.18942750079E+03  0.25500000000E-02 0. -1.
          2   -1    0    0  501    0  0.00000000000E+00 -0.00000000000E+00 -0.82732076344E+03  0.82732076345E+03  0.25500000000E-02 0.  1.
    5000001    1    1    2    0    0 -0.29123621075E+03 -0.12860745806E+03 -0.53434375765E+03  0.64351119653E+03  0.16500000000E+03 0.  0.
   -5000001    1    1    2    0    0  0.29123621075E+03  0.12860745806E+03 -0.10354950502E+03  0.37323706770E+03  0.16500000000E+03 0.  0.
<mgrwt>
<rscale>  0 0.79175073E+03</rscale>
<asrwt>0</asrwt>
<pdfrwt beam="1">  1        2 0.12728012E+00 0.79175073E+03</pdfrwt>
<pdfrwt beam="2">  1       -2 0.29142693E-01 0.79175073E+03</pdfrwt>
<totfact> 0.35796128E+02</totfact>
</mgrwt>
</event>
<event>
 4    1  0.9050888E-005  0.5192642E+03  0.7818608E-02  0.1008869E+00
         -2   -1    0    0    0  501 -0.00000000000E+00  0.00000000000E+00  0.28040490340E+03  0.28040490341E+03  0.25500000000E-02 0. -1.
          2   -1    0    0  501    0  0.00000000000E+00 -0.00000000000E+00 -0.24039821260E+03  0.24039821261E+03  0.25500000000E-02 0.  1.
    5000001    1    1    2    0    0 -0.18211135370E+03 -0.37778456825E+02 -0.54998486663E+02  0.25464011955E+03  0.16500000000E+03 0.  0.
   -5000001    1    1    2    0    0  0.18211135370E+03  0.37778456825E+02  0.95005177462E+02  0.26616299647E+03  0.16500000000E+03 0.  0.
<mgrwt>
<rscale>  0 0.51926424E+03</rscale>
<asrwt>0</asrwt>
<pdfrwt beam="1">  1        2 0.36984340E-01 0.51926424E+03</pdfrwt>
<pdfrwt beam="2">  1       -2 0.43139216E-01 0.51926424E+03</pdfrwt>
<totfact> 0.72011415E+02</totfact>
</mgrwt>
</event>
<event>
 4    1  0.9050888E-005  0.5931154E+03  0.7818608E-02  0.9919793E-01
          2   -1    0    0  501    0  0.00000000000E+00  0.00000000000E+00  0.78592541517E+03  0.78592541517E+03  0.25500000000E-02 0.  1.
         -2   -1    0    0    0  501 -0.00000000000E+00 -0.00000000000E+00 -0.11190181833E+03  0.11190181836E+03  0.25500000000E-02 0. -1.
    5000001    1    1    2    0    0  0.23363715019E+03  0.76773994522E+02  0.36050752828E+03  0.46655250737E+03  0.16500000000E+03 0.  0.
   -5000001    1    1    2    0    0 -0.23363715019E+03 -0.76773994522E+02  0.31351606855E+03  0.43127472616E+03  0.16500000000E+03 0.  0.
<mgrwt>
<rscale>  0 0.59311545E+03</rscale>
<asrwt>0</asrwt>
<pdfrwt beam="1">  1        2 0.12091160E+00 0.59311545E+03</pdfrwt>
<pdfrwt beam="2">  1       -2 0.17215664E-01 0.59311545E+03</pdfrwt>
<totfact> 0.98173623E+02</totfact>
</mgrwt>
</event>
<event>
 4    1  0.9050888E-005  0.4512794E+03  0.7818608E-02  0.1027341E+00
         -2   -1    0    0    0  501 -0.00000000000E+00  0.00000000000E+00  0.31179767699E+03  0.31179767700E+03  0.25500000000E-02 0. -1.
          2   -1    0    0  501    0  0.00000000000E+00 -0.00000000000E+00 -0.16328949444E+03  0.16328949446E+03  0.25500000000E-02 0.  1.
    5000001    1    1    2    0    0 -0.10745534666E+03  0.10654305532E+03  0.10384779030E+03  0.24679432269E+03  0.16500000000E+03 0.  0.
   -5000001    1    1    2    0    0  0.10745534666E+03 -0.10654305532E+03  0.44660392247E+02  0.22829284877E+03  0.16500000000E+03 0.  0.
<mgrwt>
<rscale>  0 0.45127945E+03</rscale>
<asrwt>0</asrwt>
<pdfrwt beam="1">  1        2 0.25121461E-01 0.45127945E+03</pdfrwt>
<pdfrwt beam="2">  1       -2 0.47968873E-01 0.45127945E+03</pdfrwt>
<totfact> 0.89927205E+02</totfact>
</mgrwt>
</event>
<event>
 4    1  0.9050888E-005  0.6159964E+03  0.7818608E-02  0.9872763E-01
         -2   -1    0    0    0  501 -0.00000000000E+00  0.00000000000E+00  0.56907049875E+03  0.56907049875E+03  0.25500000000E-02 0. -1.
          2   -1    0    0  501    0  0.00000000000E+00 -0.00000000000E+00 -0.16669794118E+03  0.16669794120E+03  0.25500000000E-02 0.  1.
    5000001    1    1    2    0    0  0.13414324403E+03 -0.16470961759E+02 -0.64215695271E+02  0.22274280689E+03  0.16500000000E+03 0.  0.
   -5000001    1    1    2    0    0 -0.13414324403E+03  0.16470961759E+02  0.46658825283E+03  0.51302563307E+03  0.16500000000E+03 0.  0.
<mgrwt>
<rscale>  0 0.61599637E+03</rscale>
<asrwt>0</asrwt>
<pdfrwt beam="1">  1        2 0.25645838E-01 0.61599637E+03</pdfrwt>
<pdfrwt beam="2">  1       -2 0.87549304E-01 0.61599637E+03</pdfrwt>
<totfact> 0.24237716E+02</totfact>
</mgrwt>
</event>
<event>
 4    1  0.9050888E-005  0.4710308E+03  0.7818608E-02  0.1021630E+00
          2   -1    0    0  501    0  0.00000000000E+00  0.00000000000E+00  0.97451142652E+03  0.97451142653E+03  0.25500000000E-02 0.  1.
         -2   -1    0    0    0  501 -0.00000000000E+00 -0.00000000000E+00 -0.56918270719E+02  0.56918270776E+02  0.25500000000E-02 0. -1.
    5000001    1    1    2    0    0  0.12110187981E+03 -0.18075886852E+02  0.71085425770E+03  0.73995349764E+03  0.16500000000E+03 0.  0.
   -5000001    1    1    2    0    0 -0.12110187981E+03  0.18075886852E+02  0.20673889810E+03  0.29147619966E+03  0.16500000000E+03 0.  0.
<mgrwt>
<rscale>  0 0.47103081E+03</rscale>
<asrwt>0</asrwt>
<pdfrwt beam="1">  1        2 0.14992484E+00 0.47103081E+03</pdfrwt>
<pdfrwt beam="2">  1       -2 0.87566570E-02 0.47103081E+03</pdfrwt>
<totfact> 0.22361342E+03</totfact>
</mgrwt>
</event>
<event>
 4    1  0.9050888E-005  0.6894833E+03  0.7818608E-02  0.9735388E-01
          2   -1    0    0  501    0  0.00000000000E+00  0.00000000000E+00  0.77482041309E+03  0.77482041309E+03  0.25500000000E-02 0.  1.
         -2   -1    0    0    0  501 -0.00000000000E+00 -0.00000000000E+00 -0.15338625198E+03  0.15338625200E+03  0.25500000000E-02 0. -1.
    5000001    1    1    2    0    0  0.23408369783E+03 -0.13482520324E+03  0.49455971137E+03  0.58718593403E+03  0.16500000000E+03 0.  0.
   -5000001    1    1    2    0    0 -0.23408369783E+03  0.13482520324E+03  0.12687444974E+03  0.34102073106E+03  0.16500000000E+03 0.  0.
<mgrwt>
<rscale>  0 0.68948328E+03</rscale>
<asrwt>0</asrwt>
<pdfrwt beam="1">  1        2 0.11920314E+00 0.68948328E+03</pdfrwt>
<pdfrwt beam="2">  1       -2 0.23597885E-01 0.68948328E+03</pdfrwt>
<totfact> 0.57501805E+02</totfact>
</mgrwt>
</event>
<event>
 4    1  0.9050888E-005  0.4473384E+03  0.7818608E-02  0.1028519E+00
          2   -1    0    0  501    0  0.00000000000E+00  0.00000000000E+00  0.65356177336E+03  0.65356177337E+03  0.25500000000E-02 0.  1.
         -2   -1    0    0    0  501 -0.00000000000E+00 -0.00000000000E+00 -0.76546582687E+02  0.76546582729E+02  0.25500000000E-02 0. -1.
    5000001    1    1    2    0    0 -0.10223850605E+03 -0.73053335880E+02  0.15182413319E+03  0.25703126157E+03  0.16500000000E+03 0.  0.
   -5000001    1    1    2    0    0  0.10223850605E+03  0.73053335880E+02  0.42519105748E+03  0.47307709453E+03  0.16500000000E+03 0.  0.
<mgrwt>
<rscale>  0 0.44733844E+03</rscale>
<asrwt>0</asrwt>
<pdfrwt beam="1">  1        2 0.10054797E+00 0.44733844E+03</pdfrwt>
<pdfrwt beam="2">  1       -2 0.11776397E-01 0.44733844E+03</pdfrwt>
<totfact> 0.23357999E+03</totfact>
</mgrwt>
</event>
<event>
 4    1  0.9050888E-005  0.5363404E+03  0.7818608E-02  0.1004706E+00
          2   -1    0    0  501    0  0.00000000000E+00  0.00000000000E+00  0.94746663330E+03  0.94746663330E+03  0.25500000000E-02 0. -1.
         -2   -1    0    0    0  501 -0.00000000000E+00 -0.00000000000E+00 -0.75902677855E+02  0.75902677898E+02  0.25500000000E-02 0.  1.
    5000001    1    1    2    0    0 -0.13299096361E+03 -0.10199660519E+03  0.18994312811E+03  0.30231324117E+03  0.16500000000E+03 0.  0.
   -5000001    1    1    2    0    0  0.13299096361E+03  0.10199660519E+03  0.68162082733E+03  0.72105607002E+03  0.16500000000E+03 0.  0.
<mgrwt>
<rscale>  0 0.53634039E+03</rscale>
<asrwt>0</asrwt>
<pdfrwt beam="1">  1        2 0.14576410E+00 0.53634039E+03</pdfrwt>
<pdfrwt beam="2">  1       -2 0.11677335E-01 0.53634039E+03</pdfrwt>
<totfact> 0.14602071E+03</totfact>
</mgrwt>
</event>
<event>
 4    1  0.9050888E-005  0.3818727E+03  0.7818608E-02  0.1050244E+00
          2   -1    0    0  501    0  0.00000000000E+00  0.00000000000E+00  0.59832539292E+03  0.59832539292E+03  0.25500000000E-02 0.  1.
         -2   -1    0    0    0  501 -0.00000000000E+00 -0.00000000000E+00 -0.60931217381E+02  0.60931217434E+02  0.25500000000E-02 0. -1.
    5000001    1    1    2    0    0  0.75338813581E+02  0.59566756017E+02  0.27344363661E+03  0.33349746274E+03  0.16500000000E+03 0.  0.
   -5000001    1    1    2    0    0 -0.75338813581E+02 -0.59566756017E+02  0.26395053893E+03  0.32575914761E+03  0.16500000000E+03 0.  0.
<mgrwt>
<rscale>  0 0.38187273E+03</rscale>
<asrwt>0</asrwt>
<pdfrwt beam="1">  1        2 0.92050059E-01 0.38187273E+03</pdfrwt>
<pdfrwt beam="2">  1       -2 0.93740336E-02 0.38187273E+03</pdfrwt>
<totfact> 0.37445266E+03</totfact>
</mgrwt>
</event>
<event>
 4    1  0.9050888E-005  0.4083447E+03  0.7818608E-02  0.1040928E+00
         -2   -1    0    0    0  501 -0.00000000000E+00  0.00000000000E+00  0.50602173040E+02  0.50602173104E+02  0.25500000000E-02 0. -1.
          2   -1    0    0  501    0  0.00000000000E+00 -0.00000000000E+00 -0.82380549986E+03  0.82380549986E+03  0.25500000000E-02 0.  1.
    5000001    1    1    2    0    0  0.86506105484E+02 -0.38862388891E+02 -0.54494202656E+03  0.57721781319E+03  0.16500000000E+03 0.  0.
   -5000001    1    1    2    0    0 -0.86506105484E+02  0.38862388891E+02 -0.22826130026E+03  0.29718985977E+03  0.16500000000E+03 0.  0.
<mgrwt>
<rscale>  0 0.40834470E+03</rscale>
<asrwt>0</asrwt>
<pdfrwt beam="1">  1        2 0.12673930E+00 0.40834470E+03</pdfrwt>
<pdfrwt beam="2">  1       -2 0.77849503E-02 0.40834470E+03</pdfrwt>
<totfact> 0.33875145E+03</totfact>
</mgrwt>
</event>
<event>
 4    1  0.9050888E-005  0.3911436E+03  0.7818608E-02  0.1046890E+00
         -2   -1    0    0    0  501 -0.00000000000E+00  0.00000000000E+00  0.25067651422E+02  0.25067651551E+02  0.25500000000E-02 0. -1.
          2   -1    0    0  501    0  0.00000000000E+00 -0.00000000000E+00 -0.15258039204E+04  0.15258039204E+04  0.25500000000E-02 0.  1.
    5000001    1    1    2    0    0 -0.98133609968E+02  0.20993688145E+02 -0.87272966924E+03  0.89384171749E+03  0.16500000000E+03 0.  0.
   -5000001    1    1    2    0    0  0.98133609968E+02 -0.20993688145E+02 -0.62800659976E+03  0.65702985449E+03  0.16500000000E+03 0.  0.
<mgrwt>
<rscale>  0 0.39114356E+03</rscale>
<asrwt>0</asrwt>
<pdfrwt beam="1">  1        2 0.23473899E+00 0.39114356E+03</pdfrwt>
<pdfrwt beam="2">  1       -2 0.38565630E-02 0.39114356E+03</pdfrwt>
<totfact> 0.38432669E+03</totfact>
</mgrwt>
</event>
<event>
 4    1  0.9050888E-005  0.4596041E+03  0.7818608E-02  0.1024896E+00
         -2   -1    0    0    0  501 -0.00000000000E+00  0.00000000000E+00  0.10642890896E+03  0.10642890899E+03  0.25500000000E-02 0. -1.
          2   -1    0    0  501    0  0.00000000000E+00 -0.00000000000E+00 -0.49619020481E+03  0.49619020481E+03  0.25500000000E-02 0.  1.
    5000001    1    1    2    0    0 -0.12335091711E+03 -0.96336748654E+02 -0.15163659405E+03  0.27334021758E+03  0.16500000000E+03 0.  0.
   -5000001    1    1    2    0    0  0.12335091711E+03  0.96336748654E+02 -0.23812470179E+03  0.32927889622E+03  0.16500000000E+03 0.  0.
<mgrwt>
<rscale>  0 0.45960410E+03</rscale>
<asrwt>0</asrwt>
<pdfrwt beam="1">  1        2 0.76336953E-01 0.45960410E+03</pdfrwt>
<pdfrwt beam="2">  1       -2 0.16373679E-01 0.45960410E+03</pdfrwt>
<totfact> 0.18671474E+03</totfact>
</mgrwt>
</event>
<event>
 4    1  0.9050888E-005  0.4598063E+03  0.7818608E-02  0.1024837E+00
         -2   -1    0    0    0  501 -0.00000000000E+00  0.00000000000E+00  0.70220805766E+02  0.70220805812E+02  0.25500000000E-02 0. -1.
          2   -1    0    0  501    0  0.00000000000E+00 -0.00000000000E+00 -0.75270381186E+03  0.75270381187E+03  0.25500000000E-02 0.  1.
    5000001    1    1    2    0    0 -0.15317750983E+03  0.35482766544E+02 -0.39517393579E+03  0.45619054765E+03  0.16500000000E+03 0.  0.
   -5000001    1    1    2    0    0  0.15317750983E+03 -0.35482766544E+02 -0.28730907031E+03  0.36673407003E+03  0.16500000000E+03 0.  0.
<mgrwt>
<rscale>  0 0.45980634E+03</rscale>
<asrwt>0</asrwt>
<pdfrwt beam="1">  1        2 0.11580058E+00 0.45980634E+03</pdfrwt>
<pdfrwt beam="2">  1       -2 0.10803201E-01 0.45980634E+03</pdfrwt>
<totfact> 0.22559344E+03</totfact>
</mgrwt>
</event>
<event>
 4    1  0.9050888E-005  0.5480338E+03  0.7818608E-02  0.1001950E+00
         -2   -1    0    0    0  501 -0.00000000000E+00  0.00000000000E+00  0.18567011537E+03  0.18567011538E+03  0.25500000000E-02 0. -1.
          2   -1    0    0  501    0  0.00000000000E+00 -0.00000000000E+00 -0.40440146976E+03  0.40440146977E+03  0.25500000000E-02 0.  1.
    5000001    1    1    2    0    0  0.53421365712E+02  0.21123603786E+03 -0.13051306881E+03  0.30287483741E+03  0.16500000000E+03 0.  0.
   -5000001    1    1    2    0    0 -0.53421365712E+02 -0.21123603786E+03 -0.88218285580E+02  0.28719674774E+03  0.16500000000E+03 0.  0.
<mgrwt>
<rscale>  0 0.54803382E+03</rscale>
<asrwt>0</asrwt>
<pdfrwt beam="1">  1        2 0.62215611E-01 0.54803382E+03</pdfrwt>
<pdfrwt beam="2">  1       -2 0.28564633E-01 0.54803382E+03</pdfrwt>
<totfact> 0.88510226E+02</totfact>
</mgrwt>
</event>
<event>
 4    1  0.9050888E-005  0.4918992E+03  0.7818608E-02  0.1015915E+00
         -2   -1    0    0    0  501 -0.00000000000E+00  0.00000000000E+00  0.46402858262E+03  0.46402858262E+03  0.25500000000E-02 0. -1.
          2   -1    0    0  501    0  0.00000000000E+00 -0.00000000000E+00 -0.13036093828E+03  0.13036093830E+03  0.25500000000E-02 0.  1.
    5000001    1    1    2    0    0 -0.20158242224E+02 -0.17255452950E+03  0.23394690915E+03  0.33486949201E+03  0.16500000000E+03 0.  0.
   -5000001    1    1    2    0    0  0.20158242224E+02  0.17255452950E+03  0.99720735188E+02  0.25952002891E+03  0.16500000000E+03 0.  0.
<mgrwt>
<rscale>  0 0.49189918E+03</rscale>
<asrwt>0</asrwt>
<pdfrwt beam="1">  1        2 0.20055529E-01 0.49189918E+03</pdfrwt>
<pdfrwt beam="2">  1       -2 0.71389014E-01 0.49189918E+03</pdfrwt>
<totfact> 0.50854387E+02</totfact>
</mgrwt>
</event>
<event>
 4    1  0.9050888E-005  0.3732692E+03  0.7818608E-02  0.1053450E+00
         -2   -1    0    0    0  501 -0.00000000000E+00  0.00000000000E+00  0.80603968705E+02  0.80603968746E+02  0.25500000000E-02 0. -1.
          2   -1    0    0  501    0  0.00000000000E+00 -0.00000000000E+00 -0.43214335409E+03  0.43214335409E+03  0.25500000000E-02 0.  1.
    5000001    1    1    2    0    0  0.47370052401E+01 -0.79640321716E+02 -0.22418922815E+03  0.28957007801E+03  0.16500000000E+03 0.  0.
   -5000001    1    1    2    0    0 -0.47370052401E+01  0.79640321716E+02 -0.12735015723E+03  0.22317724483E+03  0.16500000000E+03 0.  0.
<mgrwt>
<rscale>  0 0.37326918E+03</rscale>
<asrwt>0</asrwt>
<pdfrwt beam="1">  1        2 0.66483592E-01 0.37326918E+03</pdfrwt>
<pdfrwt beam="2">  1       -2 0.12400611E-01 0.37326918E+03</pdfrwt>
<totfact> 0.34519442E+03</totfact>
</mgrwt>
</event>
<event>
 4    1  0.9050888E-005  0.9329571E+03  0.7818608E-02  0.9385296E-01
          2   -1    0    0  501    0  0.00000000000E+00  0.00000000000E+00  0.17664519681E+04  0.17664519681E+04  0.25500000000E-02 0.  1.
         -2   -1    0    0    0  501 -0.00000000000E+00 -0.00000000000E+00 -0.12318605801E+03  0.12318605804E+03  0.25500000000E-02 0. -1.
    5000001    1    1    2    0    0 -0.42359174285E+03 -0.40337944282E+02  0.10171695974E+04  0.11148614731E+04  0.16500000000E+03 0.  0.
   -5000001    1    1    2    0    0  0.42359174285E+03  0.40337944282E+02  0.62609631270E+03  0.77477655304E+03  0.16500000000E+03 0.  0.
<mgrwt>
<rscale>  0 0.93295714E+03</rscale>
<asrwt>0</asrwt>
<pdfrwt beam="1">  1        2 0.27176183E+00 0.93295714E+03</pdfrwt>
<pdfrwt beam="2">  1       -2 0.18951702E-01 0.93295714E+03</pdfrwt>
<totfact> 0.21233616E+02</totfact>
</mgrwt>
</event>
<event>
 4    1  0.9050888E-005  0.4155846E+03  0.7818608E-02  0.1038513E+00
         -2   -1    0    0    0  501 -0.00000000000E+00  0.00000000000E+00  0.68888620774E+02  0.68888620821E+02  0.25500000000E-02 0. -1.
          2   -1    0    0  501    0  0.00000000000E+00 -0.00000000000E+00 -0.62677460536E+03  0.62677460536E+03  0.25500000000E-02 0.  1.
    5000001    1    1    2    0    0  0.39324326219E+02  0.11118079811E+03 -0.20324345353E+03  0.28712449200E+03  0.16500000000E+03 0.  0.
   -5000001    1    1    2    0    0 -0.39324326219E+02 -0.11118079811E+03 -0.35464253105E+03  0.40853873419E+03  0.16500000000E+03 0.  0.
<mgrwt>
<rscale>  0 0.41558459E+03</rscale>
<asrwt>0</asrwt>
<pdfrwt beam="1">  1        2 0.96426859E-01 0.41558459E+03</pdfrwt>
<pdfrwt beam="2">  1       -2 0.10598250E-01 0.41558459E+03</pdfrwt>
<totfact> 0.29134289E+03</totfact>
</mgrwt>
</event>
<event>
 4    1  0.9050888E-005  0.6078741E+03  0.7818608E-02  0.9889203E-01
         -2   -1    0    0    0  501 -0.00000000000E+00  0.00000000000E+00  0.40607192903E+03  0.40607192904E+03  0.25500000000E-02 0. -1.
          2   -1    0    0  501    0  0.00000000000E+00 -0.00000000000E+00 -0.22749104875E+03  0.22749104876E+03  0.25500000000E-02 0.  1.
    5000001    1    1    2    0    0 -0.12110777093E+02  0.24068048694E+03  0.15982485947E+01  0.29206390074E+03  0.16500000000E+03 0.  0.
   -5000001    1    1    2    0    0  0.12110777093E+02 -0.24068048694E+03  0.17698263169E+03  0.34149907706E+03  0.16500000000E+03 0.  0.
<mgrwt>
<rscale>  0 0.60787410E+03</rscale>
<asrwt>0</asrwt>
<pdfrwt beam="1">  1        2 0.34998623E-01 0.60787410E+03</pdfrwt>
<pdfrwt beam="2">  1       -2 0.62472604E-01 0.60787410E+03</pdfrwt>
<totfact> 0.35908729E+02</totfact>
</mgrwt>
</event>
<event>
 4    1  0.9050888E-005  0.9686452E+03  0.7818608E-02  0.9343619E-01
         -2   -1    0    0    0  501 -0.00000000000E+00  0.00000000000E+00  0.21596015595E+03  0.21596015597E+03  0.25500000000E-02 0. -1.
          2   -1    0    0  501    0  0.00000000000E+00 -0.00000000000E+00 -0.10861650645E+04  0.10861650645E+04  0.25500000000E-02 0.  1.
    5000001    1    1    2    0    0 -0.24620345315E+03  0.27577222516E+03 -0.77725272393E+02  0.41222891514E+03  0.16500000000E+03 0.  0.
   -5000001    1    1    2    0    0  0.24620345315E+03 -0.27577222516E+03 -0.79247963616E+03  0.88989630533E+03  0.16500000000E+03 0.  0.
<mgrwt>
<rscale>  0 0.96864519E+03</rscale>
<asrwt>0</asrwt>
<pdfrwt beam="1">  1        2 0.16710232E+00 0.96864519E+03</pdfrwt>
<pdfrwt beam="2">  1       -2 0.33224640E-01 0.96864519E+03</pdfrwt>
<totfact> 0.18771019E+02</totfact>
</mgrwt>
</event>
<event>
 4    1  0.9050888E-005  0.6997024E+03  0.7818608E-02  0.9717741E-01
          2   -1    0    0  501    0  0.00000000000E+00  0.00000000000E+00  0.50296808553E+03  0.50296808554E+03  0.25500000000E-02 0.  1.
         -2   -1    0    0    0  501 -0.00000000000E+00 -0.00000000000E+00 -0.24334714069E+03  0.24334714070E+03  0.25500000000E-02 0. -1.
    5000001    1    1    2    0    0  0.21087051100E+03 -0.36147604338E+02  0.36687298132E+03  0.45562463293E+03  0.16500000000E+03 0.  0.
   -5000001    1    1    2    0    0 -0.21087051100E+03  0.36147604338E+02 -0.10725203648E+03  0.29069059331E+03  0.16500000000E+03 0.  0.
<mgrwt>
<rscale>  0 0.69970235E+03</rscale>
<asrwt>0</asrwt>
<pdfrwt beam="1">  1        2 0.77379704E-01 0.69970235E+03</pdfrwt>
<pdfrwt beam="2">  1       -2 0.37438022E-01 0.69970235E+03</pdfrwt>
<totfact> 0.41459719E+02</totfact>
</mgrwt>
</event>
<event>
 4    1  0.9050888E-005  0.4643091E+03  0.7818608E-02  0.1023539E+00
         -2   -1    0    0    0  501 -0.00000000000E+00  0.00000000000E+00  0.30403277067E+02  0.30403277174E+02  0.25500000000E-02 0. -1.
          2   -1    0    0  501    0  0.00000000000E+00 -0.00000000000E+00 -0.17726951745E+04  0.17726951745E+04  0.25500000000E-02 0.  1.
    5000001    1    1    2    0    0  0.55822935788E+02  0.14678417371E+03 -0.10452050160E+04  0.10697384350E+04  0.16500000000E+03 0.  0.
   -5000001    1    1    2    0    0 -0.55822935788E+02 -0.14678417371E+03 -0.69708688134E+03  0.73336001660E+03  0.16500000000E+03 0.  0.
<mgrwt>
<rscale>  0 0.46430913E+03</rscale>
<asrwt>0</asrwt>
<pdfrwt beam="1">  1        2 0.27272225E+00 0.46430913E+03</pdfrwt>
<pdfrwt beam="2">  1       -2 0.46774286E-02 0.46430913E+03</pdfrwt>
<totfact> 0.21038599E+03</totfact>
</mgrwt>
</event>
<event>
 4    1  0.9050888E-005  0.4597757E+03  0.7818608E-02  0.1024846E+00
         -2   -1    0    0    0  501 -0.00000000000E+00  0.00000000000E+00  0.59499540545E+02  0.59499540599E+02  0.25500000000E-02 0. -1.
          2   -1    0    0  501    0  0.00000000000E+00 -0.00000000000E+00 -0.88821563596E+03  0.88821563597E+03  0.25500000000E-02 0.  1.
    5000001    1    1    2    0    0 -0.12679246209E+03 -0.88451053347E+02 -0.49993131203E+03  0.54868591565E+03  0.16500000000E+03 0.  0.
   -5000001    1    1    2    0    0  0.12679246209E+03  0.88451053347E+02 -0.32878478339E+03  0.39902926092E+03  0.16500000000E+03 0.  0.
<mgrwt>
<rscale>  0 0.45977569E+03</rscale>
<asrwt>0</asrwt>
<pdfrwt beam="1">  1        2 0.13664855E+00 0.45977569E+03</pdfrwt>
<pdfrwt beam="2">  1       -2 0.91537761E-02 0.45977569E+03</pdfrwt>
<totfact> 0.23700912E+03</totfact>
</mgrwt>
</event>
<event>
 4    1  0.9050888E-005  0.7314003E+03  0.7818608E-02  0.9664991E-01
          2   -1    0    0  501    0  0.00000000000E+00  0.00000000000E+00  0.10863757987E+04  0.10863757988E+04  0.25500000000E-02 0.  1.
         -2   -1    0    0    0  501 -0.00000000000E+00 -0.00000000000E+00 -0.12310343155E+03  0.12310343158E+03  0.25500000000E-02 0. -1.
    5000001    1    1    2    0    0  0.50926511783E+02  0.31181923838E+03  0.61686019713E+03  0.71243683919E+03  0.16500000000E+03 0.  0.
   -5000001    1    1    2    0    0 -0.50926511783E+02 -0.31181923838E+03  0.34641217006E+03  0.49704239114E+03  0.16500000000E+03 0.  0.
<mgrwt>
<rscale>  0 0.73140027E+03</rscale>
<asrwt>0</asrwt>
<pdfrwt beam="1">  1        2 0.16713474E+00 0.73140027E+03</pdfrwt>
<pdfrwt beam="2">  1       -2 0.18938990E-01 0.73140027E+03</pdfrwt>
<totfact> 0.52519757E+02</totfact>
</mgrwt>
</event>
<event>
 4    1  0.9050888E-005  0.8166865E+03  0.7818608E-02  0.9536173E-01
         -2   -1    0    0    0  501 -0.00000000000E+00  0.00000000000E+00  0.17490330902E+03  0.17490330904E+03  0.25500000000E-02 0. -1.
          2   -1    0    0  501    0  0.00000000000E+00 -0.00000000000E+00 -0.95335071803E+03  0.95335071804E+03  0.25500000000E-02 0.  1.
    5000001    1    1    2    0    0  0.36857364349E+03 -0.43984383801E+02 -0.33162917460E+03  0.52438923153E+03  0.16500000000E+03 0.  0.
   -5000001    1    1    2    0    0 -0.36857364349E+03  0.43984383801E+02 -0.44681823441E+03  0.60386479554E+03  0.16500000000E+03 0.  0.
<mgrwt>
<rscale>  0 0.81668646E+03</rscale>
<asrwt>0</asrwt>
<pdfrwt beam="1">  1        2 0.14666934E+00 0.81668646E+03</pdfrwt>
<pdfrwt beam="2">  1       -2 0.26908202E-01 0.81668646E+03</pdfrwt>
<totfact> 0.34000557E+02</totfact>
</mgrwt>
</event>
<event>
 4    1  0.9050888E-005  0.3426836E+03  0.7818608E-02  0.1065659E+00
          2   -1    0    0  501    0  0.00000000000E+00  0.00000000000E+00  0.38421438158E+03  0.38421438158E+03  0.25500000000E-02 0.  1.
         -2   -1    0    0    0  501 -0.00000000000E+00 -0.00000000000E+00 -0.76410508278E+02  0.76410508320E+02  0.25500000000E-02 0. -1.
    5000001    1    1    2    0    0 -0.40913679856E+02 -0.14348991955E+02  0.17529043358E+03  0.24460490362E+03  0.16500000000E+03 0.  0.
   -5000001    1    1    2    0    0  0.40913679856E+02  0.14348991955E+02  0.13251343972E+03  0.21601998629E+03  0.16500000000E+03 0.  0.
<mgrwt>
<rscale>  0 0.34268362E+03</rscale>
<asrwt>0</asrwt>
<pdfrwt beam="1">  1        2 0.59109904E-01 0.34268362E+03</pdfrwt>
<pdfrwt beam="2">  1       -2 0.11755463E-01 0.34268362E+03</pdfrwt>
<totfact> 0.42781015E+03</totfact>
</mgrwt>
</event>
<event>
 4    1  0.9050888E-005  0.4060835E+03  0.7818608E-02  0.1041693E+00
         -2   -1    0    0    0  501 -0.00000000000E+00  0.00000000000E+00  0.66818716357E+02  0.66818716405E+02  0.25500000000E-02 0. -1.
          2   -1    0    0  501    0  0.00000000000E+00 -0.00000000000E+00 -0.61698206182E+03  0.61698206182E+03  0.25500000000E-02 0.  1.
    5000001    1    1    2    0    0  0.10573364685E+03 -0.46855665322E+02 -0.31720900393E+03  0.37579463756E+03  0.16500000000E+03 0.  0.
   -5000001    1    1    2    0    0 -0.10573364685E+03  0.46855665322E+02 -0.23295434153E+03  0.30800614066E+03  0.16500000000E+03 0.  0.
<mgrwt>
<rscale>  0 0.40608349E+03</rscale>
<asrwt>0</asrwt>
<pdfrwt beam="1">  1        2 0.94920313E-01 0.40608349E+03</pdfrwt>
<pdfrwt beam="2">  1       -2 0.10279803E-01 0.40608349E+03</pdfrwt>
<totfact> 0.31175279E+03</totfact>
</mgrwt>
</event>
<event>
 4    1  0.9050888E-005  0.7009341E+03  0.7818608E-02  0.9715636E-01
         -2   -1    0    0    0  501 -0.00000000000E+00  0.00000000000E+00  0.10813437440E+03  0.10813437443E+03  0.25500000000E-02 0. -1.
          2   -1    0    0  501    0  0.00000000000E+00 -0.00000000000E+00 -0.11358753370E+04  0.11358753370E+04  0.25500000000E-02 0.  1.
    5000001    1    1    2    0    0 -0.30546399450E+03 -0.47805248542E+02 -0.51906769145E+03  0.62629854065E+03  0.16500000000E+03 0.  0.
   -5000001    1    1    2    0    0  0.30546399450E+03  0.47805248542E+02 -0.50867327114E+03  0.61771117077E+03  0.16500000000E+03 0.  0.
<mgrwt>
<rscale>  0 0.70093415E+03</rscale>
<asrwt>0</asrwt>
<pdfrwt beam="1">  1        2 0.17475004E+00 0.70093415E+03</pdfrwt>
<pdfrwt beam="2">  1       -2 0.16636058E-01 0.70093415E+03</pdfrwt>
<totfact> 0.61340177E+02</totfact>
</mgrwt>
</event>
<event>
 4    1  0.9050888E-005  0.5918009E+03  0.7818608E-02  0.9922564E-01
         -2   -1    0    0    0  501 -0.00000000000E+00  0.00000000000E+00  0.16280353661E+03  0.16280353663E+03  0.25500000000E-02 0. -1.
          2   -1    0    0  501    0  0.00000000000E+00 -0.00000000000E+00 -0.53780813719E+03  0.53780813720E+03  0.25500000000E-02 0.  1.
    5000001    1    1    2    0    0  0.13376965443E+03  0.14827186860E+03 -0.18192383265E+02  0.25968217165E+03  0.16500000000E+03 0.  0.
   -5000001    1    1    2    0    0 -0.13376965443E+03 -0.14827186860E+03 -0.35681221731E+03  0.44092950218E+03  0.16500000000E+03 0.  0.
<mgrwt>
<rscale>  0 0.59180087E+03</rscale>
<asrwt>0</asrwt>
<pdfrwt beam="1">  1        2 0.82739713E-01 0.59180087E+03</pdfrwt>
<pdfrwt beam="2">  1       -2 0.25046698E-01 0.59180087E+03</pdfrwt>
<totfact> 0.81130733E+02</totfact>
</mgrwt>
</event>
<event>
 4    1  0.9050888E-005  0.8124428E+03  0.7818608E-02  0.9542179E-01
          2   -1    0    0  501    0  0.00000000000E+00  0.00000000000E+00  0.23419352801E+04  0.23419352801E+04  0.25500000000E-02 0. -1.
         -2   -1    0    0    0  501 -0.00000000000E+00 -0.00000000000E+00 -0.70461305792E+02  0.70461305838E+02  0.25500000000E-02 0.  1.
    5000001    1    1    2    0    0 -0.39011938133E+02 -0.36594548514E+03  0.99170884077E+03  0.10705836979E+04  0.16500000000E+03 0.  0.
   -5000001    1    1    2    0    0  0.39011938133E+02  0.36594548514E+03  0.12797651335E+04  0.13418128880E+04  0.16500000000E+03 0.  0.
<mgrwt>
<rscale>  0 0.81244278E+03</rscale>
<asrwt>0</asrwt>
<pdfrwt beam="1">  1        2 0.36029775E+00 0.81244278E+03</pdfrwt>
<pdfrwt beam="2">  1       -2 0.10840200E-01 0.81244278E+03</pdfrwt>
<totfact> 0.26525292E+02</totfact>
</mgrwt>
</event>
<event>
 4    1  0.9050888E-005  0.3741443E+03  0.7818608E-02  0.1053120E+00
         -2   -1    0    0    0  501 -0.00000000000E+00  0.00000000000E+00  0.73013536558E+02  0.73013536602E+02  0.25500000000E-02 0. -1.
          2   -1    0    0  501    0  0.00000000000E+00 -0.00000000000E+00 -0.47930828462E+03  0.47930828462E+03  0.25500000000E-02 0.  1.
    5000001    1    1    2    0    0 -0.96227270265E+01 -0.87618763571E+02 -0.20143318914E+03  0.27489993505E+03  0.16500000000E+03 0.  0.
   -5000001    1    1    2    0    0  0.96227270265E+01  0.87618763571E+02 -0.20486155892E+03  0.27742188617E+03  0.16500000000E+03 0.  0.
<mgrwt>
<rscale>  0 0.37414432E+03</rscale>
<asrwt>0</asrwt>
<pdfrwt beam="1">  1        2 0.73739734E-01 0.37414432E+03</pdfrwt>
<pdfrwt beam="2">  1       -2 0.11232852E-01 0.37414432E+03</pdfrwt>
<totfact> 0.36113755E+03</totfact>
</mgrwt>
</event>
<event>
 4    1  0.9050888E-005  0.6750017E+03  0.7818608E-02  0.9760964E-01
         -2   -1    0    0    0  501 -0.00000000000E+00  0.00000000000E+00  0.16646898977E+03  0.16646898979E+03  0.25500000000E-02 0. -1.
          2   -1    0    0  501    0  0.00000000000E+00 -0.00000000000E+00 -0.68425247232E+03  0.68425247232E+03  0.25500000000E-02 0.  1.
    5000001    1    1    2    0    0  0.12038256960E+03 -0.26408085591E+03 -0.19649411955E+03  0.38738301530E+03  0.16500000000E+03 0.  0.
   -5000001    1    1    2    0    0 -0.12038256960E+03  0.26408085591E+03 -0.32128936300E+03  0.46333844681E+03  0.16500000000E+03 0.  0.
<mgrwt>
<rscale>  0 0.67500168E+03</rscale>
<asrwt>0</asrwt>
<pdfrwt beam="1">  1        2 0.10526961E+00 0.67500168E+03</pdfrwt>
<pdfrwt beam="2">  1       -2 0.25610614E-01 0.67500168E+03</pdfrwt>
<totfact> 0.58192754E+02</totfact>
</mgrwt>
</event>
<event>
 4    1  0.9050888E-005  0.6856235E+03  0.7818608E-02  0.9742139E-01
          2   -1    0    0  501    0  0.00000000000E+00  0.00000000000E+00  0.65741401042E+03  0.65741401043E+03  0.25500000000E-02 0.  1.
         -2   -1    0    0    0  501 -0.00000000000E+00 -0.00000000000E+00 -0.17876083998E+03  0.17876083999E+03  0.25500000000E-02 0. -1.
    5000001    1    1    2    0    0 -0.14426190689E+00 -0.30043325661E+03  0.24651263554E+03  0.42220094975E+03  0.16500000000E+03 0.  0.
   -5000001    1    1    2    0    0  0.14426190689E+00  0.30043325661E+03  0.23214053490E+03  0.41397390067E+03  0.16500000000E+03 0.  0.
<mgrwt>
<rscale>  0 0.68562346E+03</rscale>
<asrwt>0</asrwt>
<pdfrwt beam="1">  1        2 0.10114062E+00 0.68562346E+03</pdfrwt>
<pdfrwt beam="2">  1       -2 0.27501668E-01 0.68562346E+03</pdfrwt>
<totfact> 0.53715257E+02</totfact>
</mgrwt>
</event>
<event>
 4    1  0.9050888E-005  0.3429427E+03  0.7818608E-02  0.1065549E+00
         -2   -1    0    0    0  501 -0.00000000000E+00  0.00000000000E+00  0.15432897121E+04  0.15432897121E+04  0.25500000000E-02 0. -1.
          2   -1    0    0  501    0  0.00000000000E+00 -0.00000000000E+00 -0.19051783931E+02  0.19051784102E+02  0.25500000000E-02 0.  1.
    5000001    1    1    2    0    0  0.44518634640E+02 -0.10086487062E+02  0.80623543707E+03  0.82421127512E+03  0.16500000000E+03 0.  0.
   -5000001    1    1    2    0    0 -0.44518634640E+02  0.10086487062E+02  0.71800249112E+03  0.73813022111E+03  0.16500000000E+03 0.  0.
<mgrwt>
<rscale>  0 0.34294269E+03</rscale>
<asrwt>0</asrwt>
<pdfrwt beam="1">  1        2 0.29310428E-02 0.34294269E+03</pdfrwt>
<pdfrwt beam="2">  1       -2 0.23742926E+00 0.34294269E+03</pdfrwt>
<totfact> 0.27512862E+02</totfact>
</mgrwt>
</event>
<event>
 4    1  0.9050888E-005  0.5055293E+03  0.7818608E-02  0.1012346E+00
         -2   -1    0    0    0  501 -0.00000000000E+00  0.00000000000E+00  0.31536846395E+03  0.31536846396E+03  0.25500000000E-02 0.  1.
          2   -1    0    0  501    0  0.00000000000E+00 -0.00000000000E+00 -0.20258831949E+03  0.20258831951E+03  0.25500000000E-02 0. -1.
    5000001    1    1    2    0    0  0.37798680096E+02 -0.18759711719E+03  0.63151431542E+02  0.26045061317E+03  0.16500000000E+03 0.  0.
   -5000001    1    1    2    0    0 -0.37798680096E+02  0.18759711719E+03  0.49628712919E+02  0.25750617030E+03  0.16500000000E+03 0.  0.
<mgrwt>
<rscale>  0 0.50552930E+03</rscale>
<asrwt>0</asrwt>
<pdfrwt beam="1">  1        2 0.31167434E-01 0.50552930E+03</pdfrwt>
<pdfrwt beam="2">  1       -2 0.48518225E-01 0.50552930E+03</pdfrwt>
<totfact> 0.68965572E+02</totfact>
</mgrwt>
</event>
<event>
 4    1  0.9050888E-005  0.6325877E+03  0.7818608E-02  0.9840012E-01
         -2   -1    0    0    0  501 -0.00000000000E+00  0.00000000000E+00  0.11616471743E+03  0.11616471746E+03  0.25500000000E-02 0. -1.
          2   -1    0    0  501    0  0.00000000000E+00 -0.00000000000E+00 -0.86120630655E+03  0.86120630656E+03  0.25500000000E-02 0.  1.
    5000001    1    1    2    0    0  0.14242765615E+03  0.19382981107E+03 -0.56150316617E+03  0.63274516080E+03  0.16500000000E+03 0.  0.
   -5000001    1    1    2    0    0 -0.14242765615E+03 -0.19382981107E+03 -0.18353842296E+03  0.34462586322E+03  0.16500000000E+03 0.  0.
<mgrwt>
<rscale>  0 0.63258766E+03</rscale>
<asrwt>0</asrwt>
<pdfrwt beam="1">  1        2 0.13249327E+00 0.63258766E+03</pdfrwt>
<pdfrwt beam="2">  1       -2 0.17871496E-01 0.63258766E+03</pdfrwt>
<totfact> 0.81440828E+02</totfact>
</mgrwt>
</event>
<event>
 4    1  0.9050888E-005  0.4909408E+03  0.7818608E-02  0.1016171E+00
         -2   -1    0    0    0  501 -0.00000000000E+00  0.00000000000E+00  0.66881415565E+02  0.66881415614E+02  0.25500000000E-02 0. -1.
          2   -1    0    0  501    0  0.00000000000E+00 -0.00000000000E+00 -0.90093349337E+03  0.90093349337E+03  0.25500000000E-02 0.  1.
    5000001    1    1    2    0    0  0.18095987322E+03 -0.20067897549E+01 -0.45002503657E+03  0.51234562207E+03  0.16500000000E+03 0.  0.
   -5000001    1    1    2    0    0 -0.18095987322E+03  0.20067897549E+01 -0.38402704124E+03  0.45546928691E+03  0.16500000000E+03 0.  0.
<mgrwt>
<rscale>  0 0.49094076E+03</rscale>
<asrwt>0</asrwt>
<pdfrwt beam="1">  1        2 0.13860514E+00 0.49094076E+03</pdfrwt>
<pdfrwt beam="2">  1       -2 0.10289449E-01 0.49094076E+03</pdfrwt>
<totfact> 0.19256645E+03</totfact>
</mgrwt>
</event>
<event>
 4    1  0.9050888E-005  0.4985242E+03  0.7818608E-02  0.1014165E+00
         -2   -1    0    0    0  501 -0.00000000000E+00  0.00000000000E+00  0.37239451467E+03  0.37239451468E+03  0.25500000000E-02 0. -1.
          2   -1    0    0  501    0  0.00000000000E+00 -0.00000000000E+00 -0.16684350151E+03  0.16684350153E+03  0.25500000000E-02 0.  1.
    5000001    1    1    2    0    0  0.98066363060E+02  0.50399657813E+02 -0.60371774643E+02  0.20742923672E+03  0.16500000000E+03 0.  0.
   -5000001    1    1    2    0    0 -0.98066363060E+02 -0.50399657813E+02  0.26592278780E+03  0.33180877949E+03  0.16500000000E+03 0.  0.
<mgrwt>
<rscale>  0 0.49852424E+03</rscale>
<asrwt>0</asrwt>
<pdfrwt beam="1">  1        2 0.25668231E-01 0.49852424E+03</pdfrwt>
<pdfrwt beam="2">  1       -2 0.57291463E-01 0.49852424E+03</pdfrwt>
<totfact> 0.61107083E+02</totfact>
</mgrwt>
</event>
<event>
 4    1  0.9050888E-005  0.4644338E+03  0.7818608E-02  0.1023503E+00
         -2   -1    0    0    0  501 -0.00000000000E+00  0.00000000000E+00  0.15697495498E+03  0.15697495500E+03  0.25500000000E-02 0. -1.
          2   -1    0    0  501    0  0.00000000000E+00 -0.00000000000E+00 -0.34352416745E+03  0.34352416746E+03  0.25500000000E-02 0.  1.
    5000001    1    1    2    0    0  0.13815867992E+03 -0.86724139311E+02 -0.83006106448E+02  0.24642222076E+03  0.16500000000E+03 0.  0.
   -5000001    1    1    2    0    0 -0.13815867992E+03  0.86724139311E+02 -0.10354310602E+03  0.25407690171E+03  0.16500000000E+03 0.  0.
<mgrwt>
<rscale>  0 0.46443381E+03</rscale>
<asrwt>0</asrwt>
<pdfrwt beam="1">  1        2 0.52849872E-01 0.46443381E+03</pdfrwt>
<pdfrwt beam="2">  1       -2 0.24149993E-01 0.46443381E+03</pdfrwt>
<totfact> 0.14353098E+03</totfact>
</mgrwt>
</event>
<event>
 4    1  0.9050888E-005  0.5804003E+03  0.7818608E-02  0.9946925E-01
         -2   -1    0    0    0  501 -0.00000000000E+00  0.00000000000E+00  0.91916301527E+02  0.91916301562E+02  0.25500000000E-02 0. -1.
          2   -1    0    0  501    0  0.00000000000E+00 -0.00000000000E+00 -0.91622637036E+03  0.91622637036E+03  0.25500000000E-02 0.  1.
    5000001    1    1    2    0    0 -0.13143573382E+03 -0.19889125156E+03 -0.39031760168E+03  0.48621591115E+03  0.16500000000E+03 0.  0.
   -5000001    1    1    2    0    0  0.13143573382E+03  0.19889125156E+03 -0.43399246714E+03  0.52192676077E+03  0.16500000000E+03 0.  0.
<mgrwt>
<rscale>  0 0.58040034E+03</rscale>
<asrwt>0</asrwt>
<pdfrwt beam="1">  1        2 0.14095790E+00 0.58040034E+03</pdfrwt>
<pdfrwt beam="2">  1       -2 0.14140970E-01 0.58040034E+03</pdfrwt>
<totfact> 0.11138643E+03</totfact>
</mgrwt>
</event>
<event>
 4    1  0.9050888E-005  0.3629970E+03  0.7818608E-02  0.1057403E+00
         -2   -1    0    0    0  501 -0.00000000000E+00  0.00000000000E+00  0.10528886729E+04  0.10528886729E+04  0.25500000000E-02 0. -1.
          2   -1    0    0  501    0  0.00000000000E+00 -0.00000000000E+00 -0.31286979029E+02  0.31286979133E+02  0.25500000000E-02 0.  1.
    5000001    1    1    2    0    0  0.56337323409E+02 -0.17568622885E+01  0.36028231105E+03  0.40025657300E+03  0.16500000000E+03 0.  0.
   -5000001    1    1    2    0    0 -0.56337323409E+02  0.17568622885E+01  0.66131938279E+03  0.68391907901E+03  0.16500000000E+03 0.  0.
<mgrwt>
<rscale>  0 0.36299700E+03</rscale>
<asrwt>0</asrwt>
<pdfrwt beam="1">  1        2 0.48133820E-02 0.36299700E+03</pdfrwt>
<pdfrwt beam="2">  1       -2 0.16198285E+00 0.36299700E+03</pdfrwt>
<totfact> 0.43004045E+02</totfact>
</mgrwt>
</event>
<event>
 4    1  0.9050888E-005  0.4293736E+03  0.7818608E-02  0.1034058E+00
          2   -1    0    0  501    0  0.00000000000E+00  0.00000000000E+00  0.36573234452E+03  0.36573234453E+03  0.25500000000E-02 0.  1.
         -2   -1    0    0    0  501 -0.00000000000E+00 -0.00000000000E+00 -0.12602228813E+03  0.12602228816E+03  0.25500000000E-02 0. -1.
    5000001    1    1    2    0    0  0.50340014907E+02 -0.12635220190E+03  0.14177849007E+03  0.25656409779E+03  0.16500000000E+03 0.  0.
   -5000001    1    1    2    0    0 -0.50340014907E+02  0.12635220190E+03  0.97931566311E+02  0.23519053490E+03  0.16500000000E+03 0.  0.
<mgrwt>
<rscale>  0 0.42937362E+03</rscale>
<asrwt>0</asrwt>
<pdfrwt beam="1">  1        2 0.56266514E-01 0.42937362E+03</pdfrwt>
<pdfrwt beam="2">  1       -2 0.19388045E-01 0.42937362E+03</pdfrwt>
<totfact> 0.19663493E+03</totfact>
</mgrwt>
</event>
<event>
 4    1  0.9050888E-005  0.4942482E+03  0.7818608E-02  0.1015291E+00
         -2   -1    0    0    0  501 -0.00000000000E+00  0.00000000000E+00  0.34766319481E+03  0.34766319481E+03  0.25500000000E-02 0. -1.
          2   -1    0    0  501    0  0.00000000000E+00 -0.00000000000E+00 -0.17565944229E+03  0.17565944230E+03  0.25500000000E-02 0.  1.
    5000001    1    1    2    0    0  0.16425556989E+03  0.51791755745E+00 -0.17284664620E+01  0.23282643337E+03  0.16500000000E+03 0.  0.
   -5000001    1    1    2    0    0 -0.16425556989E+03 -0.51791755745E+00  0.17373221898E+03  0.29049620375E+03  0.16500000000E+03 0.  0.
<mgrwt>
<rscale>  0 0.49424821E+03</rscale>
<asrwt>0</asrwt>
<pdfrwt beam="1">  1        2 0.27024530E-01 0.49424821E+03</pdfrwt>
<pdfrwt beam="2">  1       -2 0.53486645E-01 0.49424821E+03</pdfrwt>
<totfact> 0.66423585E+02</totfact>
</mgrwt>
</event>
<event>
 4    1  0.9050888E-005  0.4340547E+03  0.7818608E-02  0.1032587E+00
         -2   -1    0    0    0  501 -0.00000000000E+00  0.00000000000E+00  0.46476927848E+03  0.46476927849E+03  0.25500000000E-02 0. -1.
          2   -1    0    0  501    0  0.00000000000E+00 -0.00000000000E+00 -0.10134245530E+03  0.10134245533E+03  0.25500000000E-02 0.  1.
    5000001    1    1    2    0    0 -0.14081014366E+03 -0.39332626603E+01  0.18919351633E+03  0.28785787072E+03  0.16500000000E+03 0.  0.
   -5000001    1    1    2    0    0  0.14081014366E+03  0.39332626603E+01  0.17423330686E+03  0.27825386310E+03  0.16500000000E+03 0.  0.
<mgrwt>
<rscale>  0 0.43405465E+03</rscale>
<asrwt>0</asrwt>
<pdfrwt beam="1">  1        2 0.15591147E-01 0.43405465E+03</pdfrwt>
<pdfrwt beam="2">  1       -2 0.71502967E-01 0.43405465E+03</pdfrwt>
<totfact> 0.68240103E+02</totfact>
</mgrwt>
</event>
<event>
 4    1  0.9050888E-005  0.6850942E+03  0.7818608E-02  0.9743068E-01
          2   -1    0    0  501    0  0.00000000000E+00  0.00000000000E+00  0.51122927830E+03  0.51122927831E+03  0.25500000000E-02 0.  1.
         -2   -1    0    0    0  501 -0.00000000000E+00 -0.00000000000E+00 -0.22952229098E+03  0.22952229099E+03  0.25500000000E-02 0. -1.
    5000001    1    1    2    0    0 -0.24416654286E+03  0.14973220777E+03  0.43683233764E+02  0.33342204428E+03  0.16500000000E+03 0.  0.
   -5000001    1    1    2    0    0  0.24416654286E+03 -0.14973220777E+03  0.23802375356E+03  0.40732952502E+03  0.16500000000E+03 0.  0.
<mgrwt>
<rscale>  0 0.68509420E+03</rscale>
<asrwt>0</asrwt>
<pdfrwt beam="1">  1        2 0.78650658E-01 0.68509420E+03</pdfrwt>
<pdfrwt beam="2">  1       -2 0.35311122E-01 0.68509420E+03</pdfrwt>
<totfact> 0.45520156E+02</totfact>
</mgrwt>
</event>
<event>
 4    1  0.9050888E-005  0.4495376E+03  0.7818608E-02  0.1027860E+00
          2   -1    0    0  501    0  0.00000000000E+00  0.00000000000E+00  0.29143278667E+03  0.29143278668E+03  0.25500000000E-02 0.  1.
         -2   -1    0    0    0  501 -0.00000000000E+00 -0.00000000000E+00 -0.17335394821E+03  0.17335394823E+03  0.25500000000E-02 0. -1.
    5000001    1    1    2    0    0 -0.14274881272E+03 -0.36875787464E+02  0.99862662682E+02  0.24276449211E+03  0.16500000000E+03 0.  0.
   -5000001    1    1    2    0    0  0.14274881272E+03  0.36875787464E+02  0.18216175777E+02  0.22202224279E+03  0.16500000000E+03 0.  0.
<mgrwt>
<rscale>  0 0.44953765E+03</rscale>
<asrwt>0</asrwt>
<pdfrwt beam="1">  1        2 0.44835813E-01 0.44953765E+03</pdfrwt>
<pdfrwt beam="2">  1       -2 0.26669838E-01 0.44953765E+03</pdfrwt>
<totfact> 0.14388496E+03</totfact>
</mgrwt>
</event>
<event>
 4    1  0.9050888E-005  0.4968864E+03  0.7818608E-02  0.1014595E+00
         -2   -1    0    0    0  501 -0.00000000000E+00  0.00000000000E+00  0.24206693720E+03  0.24206693721E+03  0.25500000000E-02 0. -1.
          2   -1    0    0  501    0  0.00000000000E+00 -0.00000000000E+00 -0.25498746917E+03  0.25498746919E+03  0.25500000000E-02 0.  1.
    5000001    1    1    2    0    0 -0.80659460641E+01  0.17837302907E+03  0.44714026687E+02  0.24719696837E+03  0.16500000000E+03 0.  0.
   -5000001    1    1    2    0    0  0.80659460641E+01 -0.17837302907E+03 -0.57634558664E+02  0.24985743803E+03  0.16500000000E+03 0.  0.
<mgrwt>
<rscale>  0 0.49688645E+03</rscale>
<asrwt>0</asrwt>
<pdfrwt beam="1">  1        2 0.39228841E-01 0.49688645E+03</pdfrwt>
<pdfrwt beam="2">  1       -2 0.37241067E-01 0.49688645E+03</pdfrwt>
<totfact> 0.89714183E+02</totfact>
</mgrwt>
</event>
<event>
 4    1  0.9050888E-005  0.5149261E+03  0.7818608E-02  0.1009955E+00
         -2   -1    0    0    0  501 -0.00000000000E+00  0.00000000000E+00  0.39537570168E+02  0.39537570250E+02  0.25500000000E-02 0. -1.
          2   -1    0    0  501    0  0.00000000000E+00 -0.00000000000E+00 -0.16765630981E+04  0.16765630981E+04  0.25500000000E-02 0.  1.
    5000001    1    1    2    0    0 -0.55607392071E+02 -0.18860297058E+03 -0.88508102394E+03  0.92155123651E+03  0.16500000000E+03 0.  0.
   -5000001    1    1    2    0    0  0.55607392071E+02  0.18860297058E+03 -0.75194450398E+03  0.79454943183E+03  0.16500000000E+03 0.  0.
<mgrwt>
<rscale>  0 0.51492614E+03</rscale>
<asrwt>0</asrwt>
<pdfrwt beam="1">  1        2 0.25793273E+00 0.51492614E+03</pdfrwt>
<pdfrwt beam="2">  1       -2 0.60827044E-02 0.51492614E+03</pdfrwt>
<totfact> 0.15742738E+03</totfact>
</mgrwt>
</event>
<event>
 4    1  0.9050888E-005  0.9923573E+03  0.7818608E-02  0.9316967E-01
         -2   -1    0    0    0  501 -0.00000000000E+00  0.00000000000E+00  0.42423412173E+03  0.42423412173E+03  0.25500000000E-02 0. -1.
          2   -1    0    0  501    0  0.00000000000E+00 -0.00000000000E+00 -0.58032398417E+03  0.58032398418E+03  0.25500000000E-02 0.  1.
    5000001    1    1    2    0    0  0.27240142939E+03  0.36227642707E+03 -0.19575652569E+03  0.52056927079E+03  0.16500000000E+03 0.  0.
   -5000001    1    1    2    0    0 -0.27240142939E+03 -0.36227642707E+03  0.39666663241E+02  0.48398883512E+03  0.16500000000E+03 0.  0.
<mgrwt>
<rscale>  0 0.99235727E+03</rscale>
<asrwt>0</asrwt>
<pdfrwt beam="1">  1        2 0.89280613E-01 0.99235727E+03</pdfrwt>
<pdfrwt beam="2">  1       -2 0.65266788E-01 0.99235727E+03</pdfrwt>
<totfact> 0.11167893E+02</totfact>
</mgrwt>
</event>
<event>
 4    1  0.9050888E-005  0.5017712E+03  0.7818608E-02  0.1013318E+00
         -2   -1    0    0    0  501 -0.00000000000E+00  0.00000000000E+00  0.37955294097E+02  0.37955294183E+02  0.25500000000E-02 0. -1.
          2   -1    0    0  501    0  0.00000000000E+00 -0.00000000000E+00 -0.16583612095E+04  0.16583612095E+04  0.25500000000E-02 0.  1.
    5000001    1    1    2    0    0 -0.89200021858E+02 -0.15782121683E+03 -0.99082015688E+03  0.10206927861E+04  0.16500000000E+03 0.  0.
   -5000001    1    1    2    0    0  0.89200021858E+02  0.15782121683E+03 -0.62958575848E+03  0.67562371751E+03  0.16500000000E+03 0.  0.
<mgrwt>
<rscale>  0 0.50177121E+03</rscale>
<asrwt>0</asrwt>
<pdfrwt beam="1">  1        2 0.25513244E+00 0.50177121E+03</pdfrwt>
<pdfrwt beam="2">  1       -2 0.58392773E-02 0.50177121E+03</pdfrwt>
<totfact> 0.17172415E+03</totfact>
</mgrwt>
</event>
<event>
 4    1  0.9050888E-005  0.3754350E+03  0.7818608E-02  0.1052634E+00
          2   -1    0    0  501    0  0.00000000000E+00  0.00000000000E+00  0.21032746298E+03  0.21032746299E+03  0.25500000000E-02 0.  1.
         -2   -1    0    0    0  501 -0.00000000000E+00 -0.00000000000E+00 -0.16753808876E+03  0.16753808878E+03  0.25500000000E-02 0. -1.
    5000001    1    1    2    0    0  0.95960753124E+01  0.49360647961E+02 -0.53140827351E+02  0.18049239807E+03  0.16500000000E+03 0.  0.
   -5000001    1    1    2    0    0 -0.95960753124E+01 -0.49360647961E+02  0.95930201569E+02  0.19737315370E+03  0.16500000000E+03 0.  0.
<mgrwt>
<rscale>  0 0.37543501E+03</rscale>
<asrwt>0</asrwt>
<pdfrwt beam="1">  1        2 0.32358071E-01 0.37543501E+03</pdfrwt>
<pdfrwt beam="2">  1       -2 0.25775091E-01 0.37543501E+03</pdfrwt>
<totfact> 0.21834294E+03</totfact>
</mgrwt>
</event>
<event>
 4    1  0.9050888E-005  0.3585546E+03  0.7818608E-02  0.1059158E+00
         -2   -1    0    0    0  501 -0.00000000000E+00  0.00000000000E+00  0.65042013796E+02  0.65042013846E+02  0.25500000000E-02 0. -1.
          2   -1    0    0  501    0  0.00000000000E+00 -0.00000000000E+00 -0.49414744423E+03  0.49414744424E+03  0.25500000000E-02 0.  1.
    5000001    1    1    2    0    0  0.46809908278E+02 -0.52176638459E+02 -0.21247445879E+03  0.27799993660E+03  0.16500000000E+03 0.  0.
   -5000001    1    1    2    0    0 -0.46809908278E+02  0.52176638459E+02 -0.21663097164E+03  0.28118952148E+03  0.16500000000E+03 0.  0.
<mgrwt>
<rscale>  0 0.35855457E+03</rscale>
<asrwt>0</asrwt>
<pdfrwt beam="1">  1        2 0.76022681E-01 0.35855457E+03</pdfrwt>
<pdfrwt beam="2">  1       -2 0.10006464E-01 0.35855457E+03</pdfrwt>
<totfact> 0.41997134E+03</totfact>
</mgrwt>
</event>
<event>
 4    1  0.9050888E-005  0.5781581E+03  0.7818608E-02  0.9951787E-01
          2   -1    0    0  501    0  0.00000000000E+00  0.00000000000E+00  0.23472221026E+04  0.23472221026E+04  0.25500000000E-02 0. -1.
         -2   -1    0    0    0  501 -0.00000000000E+00 -0.00000000000E+00 -0.35602386969E+02  0.35602387061E+02  0.25500000000E-02 0.  1.
    5000001    1    1    2    0    0  0.12095765715E+02  0.17369669955E+03  0.18206842375E+04  0.18364185099E+04  0.16500000000E+03 0.  0.
   -5000001    1    1    2    0    0 -0.12095765715E+02 -0.17369669955E+03  0.49093547811E+03  0.54640597970E+03  0.16500000000E+03 0.  0.
<mgrwt>
<rscale>  0 0.57815814E+03</rscale>
<asrwt>0</asrwt>
<pdfrwt beam="1">  1        2 0.36111118E+00 0.57815814E+03</pdfrwt>
<pdfrwt beam="2">  1       -2 0.54772890E-02 0.57815814E+03</pdfrwt>
<totfact> 0.79895682E+02</totfact>
</mgrwt>
</event>
<event>
 4    1  0.9050888E-005  0.5402101E+03  0.7818608E-02  0.1003786E+00
          2   -1    0    0  501    0  0.00000000000E+00  0.00000000000E+00  0.66228946196E+03  0.66228946196E+03  0.25500000000E-02 0.  1.
         -2   -1    0    0    0  501 -0.00000000000E+00 -0.00000000000E+00 -0.11015838227E+03  0.11015838230E+03  0.25500000000E-02 0. -1.
    5000001    1    1    2    0    0 -0.13231203706E+03 -0.12894669655E+03  0.12207352098E+03  0.27615334549E+03  0.16500000000E+03 0.  0.
   -5000001    1    1    2    0    0  0.13231203706E+03  0.12894669655E+03  0.43005755871E+03  0.49629449877E+03  0.16500000000E+03 0.  0.
<mgrwt>
<rscale>  0 0.54021009E+03</rscale>
<asrwt>0</asrwt>
<pdfrwt beam="1">  1        2 0.10189068E+00 0.54021009E+03</pdfrwt>
<pdfrwt beam="2">  1       -2 0.16947444E-01 0.54021009E+03</pdfrwt>
<totfact> 0.12529277E+03</totfact>
</mgrwt>
</event>
<event>
 4    1  0.9050888E-005  0.4018545E+03  0.7818608E-02  0.1043139E+00
          2   -1    0    0  501    0  0.00000000000E+00  0.00000000000E+00  0.48892434201E+03  0.48892434202E+03  0.25500000000E-02 0. -1.
         -2   -1    0    0    0  501 -0.00000000000E+00 -0.00000000000E+00 -0.82572628000E+02  0.82572628039E+02  0.25500000000E-02 0.  1.
    5000001    1    1    2    0    0  0.93745721696E+02 -0.60044695221E+02  0.16414720913E+03  0.25799793028E+03  0.16500000000E+03 0.  0.
   -5000001    1    1    2    0    0 -0.93745721696E+02  0.60044695221E+02  0.24220450488E+03  0.31349903978E+03  0.16500000000E+03 0.  0.
<mgrwt>
<rscale>  0 0.40185454E+03</rscale>
<asrwt>0</asrwt>
<pdfrwt beam="1">  1        2 0.75219128E-01 0.40185454E+03</pdfrwt>
<pdfrwt beam="2">  1       -2 0.12703481E-01 0.40185454E+03</pdfrwt>
<totfact> 0.28933166E+03</totfact>
</mgrwt>
</event>
<event>
 4    1  0.9050888E-005  0.4622886E+03  0.7818608E-02  0.1024120E+00
         -2   -1    0    0    0  501 -0.00000000000E+00  0.00000000000E+00  0.98864987632E+02  0.98864987664E+02  0.25500000000E-02 0. -1.
          2   -1    0    0  501    0  0.00000000000E+00 -0.00000000000E+00 -0.54041049531E+03  0.54041049532E+03  0.25500000000E-02 0.  1.
    5000001    1    1    2    0    0 -0.11267869406E+02  0.88424148830E+02 -0.33924857934E+02  0.19058250435E+03  0.16500000000E+03 0.  0.
   -5000001    1    1    2    0    0  0.11267869406E+02 -0.88424148830E+02 -0.40762064975E+03  0.44869297864E+03  0.16500000000E+03 0.  0.
<mgrwt>
<rscale>  0 0.46228855E+03</rscale>
<asrwt>0</asrwt>
<pdfrwt beam="1">  1        2 0.83140075E-01 0.46228855E+03</pdfrwt>
<pdfrwt beam="2">  1       -2 0.15209998E-01 0.46228855E+03</pdfrwt>
<totfact> 0.19163306E+03</totfact>
</mgrwt>
</event>
<event>
 4    1  0.9050888E-005  0.7473657E+03  0.7818608E-02  0.9639492E-01
         -2   -1    0    0    0  501 -0.00000000000E+00  0.00000000000E+00  0.83408087977E+02  0.83408088016E+02  0.25500000000E-02 0. -1.
          2   -1    0    0  501    0  0.00000000000E+00 -0.00000000000E+00 -0.16741648249E+04  0.16741648249E+04  0.25500000000E-02 0.  1.
    5000001    1    1    2    0    0 -0.28452854753E+02  0.23315091652E+03 -0.23271474296E+03  0.36952681420E+03  0.16500000000E+03 0.  0.
   -5000001    1    1    2    0    0  0.28452854753E+02 -0.23315091652E+03 -0.13580419940E+04  0.13880460988E+04  0.16500000000E+03 0.  0.
<mgrwt>
<rscale>  0 0.74736574E+03</rscale>
<asrwt>0</asrwt>
<pdfrwt beam="1">  1        2 0.25756379E+00 0.74736574E+03</pdfrwt>
<pdfrwt beam="2">  1       -2 0.12832015E-01 0.74736574E+03</pdfrwt>
<totfact> 0.46902023E+02</totfact>
</mgrwt>
</event>
<event>
 4    1  0.9050888E-005  0.3781734E+03  0.7818608E-02  0.1051611E+00
         -2   -1    0    0    0  501 -0.00000000000E+00  0.00000000000E+00  0.57870139482E+02  0.57870139538E+02  0.25500000000E-02 0. -1.
          2   -1    0    0  501    0  0.00000000000E+00 -0.00000000000E+00 -0.61782784846E+03  0.61782784847E+03  0.25500000000E-02 0.  1.
    5000001    1    1    2    0    0  0.54892641573E+02  0.70747604132E+02 -0.23961439207E+03  0.30439855860E+03  0.16500000000E+03 0.  0.
   -5000001    1    1    2    0    0 -0.54892641573E+02 -0.70747604132E+02 -0.32034331691E+03  0.37129942941E+03  0.16500000000E+03 0.  0.
<mgrwt>
<rscale>  0 0.37817342E+03</rscale>
<asrwt>0</asrwt>
<pdfrwt beam="1">  1        2 0.95050434E-01 0.37817342E+03</pdfrwt>
<pdfrwt beam="2">  1       -2 0.89030988E-02 0.37817342E+03</pdfrwt>
<totfact> 0.39130044E+03</totfact>
</mgrwt>
</event>
<event>
 4    1  0.9050888E-005  0.1218082E+04  0.7818608E-02  0.9097175E-01
          2   -1    0    0  501    0  0.00000000000E+00  0.00000000000E+00  0.43267159799E+03  0.43267159800E+03  0.25500000000E-02 0.  1.
         -2   -1    0    0    0  501 -0.00000000000E+00 -0.00000000000E+00 -0.85730404250E+03  0.85730404250E+03  0.25500000000E-02 0. -1.
    5000001    1    1    2    0    0  0.39843697034E+03 -0.38717493998E+03 -0.14050896711E+02  0.57972310733E+03  0.16500000000E+03 0.  0.
   -5000001    1    1    2    0    0 -0.39843697034E+03  0.38717493998E+03 -0.41058154779E+03  0.71025253317E+03  0.16500000000E+03 0.  0.
<mgrwt>
<rscale>  0 0.12180823E+04</rscale>
<asrwt>0</asrwt>
<pdfrwt beam="1">  1        2 0.66564861E-01 0.12180823E+04</pdfrwt>
<pdfrwt beam="2">  1       -2 0.13189293E+00 0.12180823E+04</pdfrwt>
<totfact> 0.29993851E+01</totfact>
</mgrwt>
</event>
<event>
 4    1  0.9050888E-005  0.3997223E+03  0.7818608E-02  0.1043876E+00
         -2   -1    0    0    0  501 -0.00000000000E+00  0.00000000000E+00  0.31082875874E+02  0.31082875979E+02  0.25500000000E-02 0.  1.
          2   -1    0    0  501    0  0.00000000000E+00 -0.00000000000E+00 -0.12850957394E+04  0.12850957394E+04  0.25500000000E-02 0. -1.
    5000001    1    1    2    0    0  0.50821182794E+02 -0.98957985413E+02 -0.56593569704E+03  0.59990306608E+03  0.16500000000E+03 0.  0.
   -5000001    1    1    2    0    0 -0.50821182794E+02  0.98957985413E+02 -0.68807716644E+03  0.71627554926E+03  0.16500000000E+03 0.  0.
<mgrwt>
<rscale>  0 0.39972226E+03</rscale>
<asrwt>0</asrwt>
<pdfrwt beam="1">  1        2 0.19770700E+00 0.39972226E+03</pdfrwt>
<pdfrwt beam="2">  1       -2 0.47819819E-02 0.39972226E+03</pdfrwt>
<totfact> 0.37590262E+03</totfact>
</mgrwt>
</event>
<event>
 4    1  0.9050888E-005  0.4303587E+03  0.7818608E-02  0.1033747E+00
          2   -1    0    0  501    0  0.00000000000E+00  0.00000000000E+00  0.10128809124E+04  0.10128809124E+04  0.25500000000E-02 0.  1.
         -2   -1    0    0    0  501 -0.00000000000E+00 -0.00000000000E+00 -0.45713330231E+02  0.45713330302E+02  0.25500000000E-02 0. -1.
    5000001    1    1    2    0    0  0.56179507102E+02 -0.11643339628E+03  0.60318869708E+03  0.63857221759E+03  0.16500000000E+03 0.  0.
   -5000001    1    1    2    0    0 -0.56179507102E+02  0.11643339628E+03  0.36397888504E+03  0.42002202507E+03  0.16500000000E+03 0.  0.
<mgrwt>
<rscale>  0 0.43035873E+03</rscale>
<asrwt>0</asrwt>
<pdfrwt beam="1">  1        2 0.15582783E+00 0.43035873E+03</pdfrwt>
<pdfrwt beam="2">  1       -2 0.70328201E-02 0.43035873E+03</pdfrwt>
<totfact> 0.29921681E+03</totfact>
</mgrwt>
</event>
<event>
 4    1  0.9050888E-005  0.3887826E+03  0.7818608E-02  0.1047735E+00
         -2   -1    0    0    0  501 -0.00000000000E+00  0.00000000000E+00  0.33024069626E+02  0.33024069725E+02  0.25500000000E-02 0. -1.
          2   -1    0    0  501    0  0.00000000000E+00 -0.00000000000E+00 -0.11442553498E+04  0.11442553498E+04  0.25500000000E-02 0.  1.
    5000001    1    1    2    0    0  0.36579446325E+02 -0.38320722081E+02 -0.82230387487E+03  0.84036610847E+03  0.16500000000E+03 0.  0.
   -5000001    1    1    2    0    0 -0.36579446325E+02  0.38320722081E+02 -0.28892740531E+03  0.33691331106E+03  0.16500000000E+03 0.  0.
<mgrwt>
<rscale>  0 0.38878255E+03</rscale>
<asrwt>0</asrwt>
<pdfrwt beam="1">  1        2 0.17603925E+00 0.38878255E+03</pdfrwt>
<pdfrwt beam="2">  1       -2 0.50806270E-02 0.38878255E+03</pdfrwt>
<totfact> 0.41273719E+03</totfact>
</mgrwt>
</event>
<event>
 4    1  0.9050888E-005  0.4983428E+03  0.7818608E-02  0.1014212E+00
         -2   -1    0    0    0  501 -0.00000000000E+00  0.00000000000E+00  0.40938573563E+02  0.40938573643E+02  0.25500000000E-02 0. -1.
          2   -1    0    0  501    0  0.00000000000E+00 -0.00000000000E+00 -0.15165740415E+04  0.15165740415E+04  0.25500000000E-02 0.  1.
    5000001    1    1    2    0    0  0.46905552319E+02  0.17997922014E+03 -0.68658359088E+03  0.73021550092E+03  0.16500000000E+03 0.  0.
   -5000001    1    1    2    0    0 -0.46905552319E+02 -0.17997922014E+03 -0.78905187708E+03  0.82729711425E+03  0.16500000000E+03 0.  0.
<mgrwt>
<rscale>  0 0.49834277E+03</rscale>
<asrwt>0</asrwt>
<pdfrwt beam="1">  1        2 0.23331904E+00 0.49834277E+03</pdfrwt>
<pdfrwt beam="2">  1       -2 0.62982433E-02 0.49834277E+03</pdfrwt>
<totfact> 0.18227035E+03</totfact>
</mgrwt>
</event>
<event>
 4    1  0.9050888E-005  0.5993695E+03  0.7818608E-02  0.9906715E-01
         -2   -1    0    0    0  501 -0.00000000000E+00  0.00000000000E+00  0.46366756148E+03  0.46366756149E+03  0.25500000000E-02 0. -1.
          2   -1    0    0  501    0  0.00000000000E+00 -0.00000000000E+00 -0.19369685663E+03  0.19369685665E+03  0.25500000000E-02 0.  1.
    5000001    1    1    2    0    0 -0.16604642287E+03 -0.16839017876E+03  0.22448581259E+03  0.36543884154E+03  0.16500000000E+03 0.  0.
   -5000001    1    1    2    0    0  0.16604642287E+03  0.16839017876E+03  0.45484892267E+02  0.29192557660E+03  0.16500000000E+03 0.  0.
<mgrwt>
<rscale>  0 0.59936950E+03</rscale>
<asrwt>0</asrwt>
<pdfrwt beam="1">  1        2 0.29799517E-01 0.59936950E+03</pdfrwt>
<pdfrwt beam="2">  1       -2 0.71333470E-01 0.59936950E+03</pdfrwt>
<totfact> 0.32321190E+02</totfact>
</mgrwt>
</event>
<event>
 4    1  0.9050888E-005  0.5311555E+03  0.7818608E-02  0.1005952E+00
          2   -1    0    0  501    0  0.00000000000E+00  0.00000000000E+00  0.25358651341E+03  0.25358651342E+03  0.25500000000E-02 0.  1.
         -2   -1    0    0    0  501 -0.00000000000E+00 -0.00000000000E+00 -0.27813601040E+03  0.27813601041E+03  0.25500000000E-02 0. -1.
    5000001    1    1    2    0    0  0.20562498895E+03  0.32012578327E+02 -0.12591135373E+02  0.26587586942E+03  0.16500000000E+03 0.  0.
   -5000001    1    1    2    0    0 -0.20562498895E+03 -0.32012578327E+02 -0.11958361622E+02  0.26584665441E+03  0.16500000000E+03 0.  0.
<mgrwt>
<rscale>  0 0.53115550E+03</rscale>
<asrwt>0</asrwt>
<pdfrwt beam="1">  1        2 0.39013310E-01 0.53115550E+03</pdfrwt>
<pdfrwt beam="2">  1       -2 0.42790156E-01 0.53115550E+03</pdfrwt>
<totfact> 0.68967952E+02</totfact>
</mgrwt>
</event>
<event>
 4    1  0.9050888E-005  0.4287045E+03  0.7818608E-02  0.1034270E+00
         -2   -1    0    0    0  501 -0.00000000000E+00  0.00000000000E+00  0.16898854964E+03  0.16898854966E+03  0.25500000000E-02 0. -1.
          2   -1    0    0  501    0  0.00000000000E+00 -0.00000000000E+00 -0.27189354786E+03  0.27189354787E+03  0.25500000000E-02 0.  1.
    5000001    1    1    2    0    0 -0.61517991055E+02  0.11833147580E+03 -0.20004557167E+02  0.21310087680E+03  0.16500000000E+03 0.  0.
   -5000001    1    1    2    0    0  0.61517991055E+02 -0.11833147580E+03 -0.82900441049E+02  0.22778122072E+03  0.16500000000E+03 0.  0.
<mgrwt>
<rscale>  0 0.42870454E+03</rscale>
<asrwt>0</asrwt>
<pdfrwt beam="1">  1        2 0.41829776E-01 0.42870454E+03</pdfrwt>
<pdfrwt beam="2">  1       -2 0.25998238E-01 0.42870454E+03</pdfrwt>
<totfact> 0.16246295E+03</totfact>
</mgrwt>
</event>
<event>
 4    1  0.9050888E-005  0.4273841E+03  0.7818608E-02  0.1034690E+00
         -2   -1    0    0    0  501 -0.00000000000E+00  0.00000000000E+00  0.65433249652E+02  0.65433249702E+02  0.25500000000E-02 0. -1.
          2   -1    0    0  501    0  0.00000000000E+00 -0.00000000000E+00 -0.69787585210E+03  0.69787585210E+03  0.25500000000E-02 0.  1.
    5000001    1    1    2    0    0 -0.10277152020E+03 -0.45868668850E+02 -0.45192653962E+03  0.49409363218E+03  0.16500000000E+03 0.  0.
   -5000001    1    1    2    0    0  0.10277152020E+03  0.45868668850E+02 -0.18051606282E+03  0.26921546962E+03  0.16500000000E+03 0.  0.
<mgrwt>
<rscale>  0 0.42738407E+03</rscale>
<asrwt>0</asrwt>
<pdfrwt beam="1">  1        2 0.10736551E+00 0.42738407E+03</pdfrwt>
<pdfrwt beam="2">  1       -2 0.10066654E-01 0.42738407E+03</pdfrwt>
<totfact> 0.27787557E+03</totfact>
</mgrwt>
</event>
<event>
 4    1  0.9050888E-005  0.8891745E+03  0.7818608E-02  0.9439216E-01
         -2   -1    0    0    0  501 -0.00000000000E+00  0.00000000000E+00  0.15216520458E+03  0.15216520460E+03  0.25500000000E-02 0. -1.
          2   -1    0    0  501    0  0.00000000000E+00 -0.00000000000E+00 -0.12989686192E+04  0.12989686192E+04  0.25500000000E-02 0.  1.
    5000001    1    1    2    0    0 -0.20783250061E+02  0.31715282190E+03 -0.14342291859E+03  0.38576286693E+03  0.16500000000E+03 0.  0.
   -5000001    1    1    2    0    0  0.20783250061E+02 -0.31715282190E+03 -0.10033804960E+04  0.10653709569E+04  0.16500000000E+03 0.  0.
<mgrwt>
<rscale>  0 0.88917451E+03</rscale>
<asrwt>0</asrwt>
<pdfrwt beam="1">  1        2 0.19984132E+00 0.88917451E+03</pdfrwt>
<pdfrwt beam="2">  1       -2 0.23410032E-01 0.88917451E+03</pdfrwt>
<totfact> 0.26791324E+02</totfact>
</mgrwt>
</event>
<event>
 4    1  0.9050888E-005  0.5595614E+03  0.7818608E-02  0.9993048E-01
         -2   -1    0    0    0  501 -0.00000000000E+00  0.00000000000E+00  0.48007504204E+02  0.48007504272E+02  0.25500000000E-02 0. -1.
          2   -1    0    0  501    0  0.00000000000E+00 -0.00000000000E+00 -0.16305210213E+04  0.16305210213E+04  0.25500000000E-02 0.  1.
    5000001    1    1    2    0    0 -0.17829071088E+03  0.10737220750E+03 -0.10550937729E+04  0.10880093005E+04  0.16500000000E+03 0.  0.
   -5000001    1    1    2    0    0  0.17829071088E+03 -0.10737220750E+03 -0.52741974427E+03  0.59051922507E+03  0.16500000000E+03 0.  0.
<mgrwt>
<rscale>  0 0.55956142E+03</rscale>
<asrwt>0</asrwt>
<pdfrwt beam="1">  1        2 0.25084935E+00 0.55956142E+03</pdfrwt>
<pdfrwt beam="2">  1       -2 0.73857711E-02 0.55956142E+03</pdfrwt>
<totfact> 0.12262546E+03</totfact>
</mgrwt>
</event>
<event>
 4    1  0.9050888E-005  0.4658586E+03  0.7818608E-02  0.1023096E+00
          2   -1    0    0  501    0  0.00000000000E+00  0.00000000000E+00  0.11472865536E+04  0.11472865536E+04  0.25500000000E-02 0.  1.
         -2   -1    0    0    0  501 -0.00000000000E+00 -0.00000000000E+00 -0.47290769542E+02  0.47290769611E+02  0.25500000000E-02 0. -1.
    5000001    1    1    2    0    0  0.17053710837E+02  0.15000998242E+03  0.71691531389E+03  0.75099027369E+03  0.16500000000E+03 0.  0.
   -5000001    1    1    2    0    0 -0.17053710837E+02 -0.15000998242E+03  0.38308047012E+03  0.44358704948E+03  0.16500000000E+03 0.  0.
<mgrwt>
<rscale>  0 0.46585862E+03</rscale>
<asrwt>0</asrwt>
<pdfrwt beam="1">  1        2 0.17650560E+00 0.46585862E+03</pdfrwt>
<pdfrwt beam="2">  1       -2 0.72755039E-02 0.46585862E+03</pdfrwt>
<totfact> 0.23521781E+03</totfact>
</mgrwt>
</event>
<event>
 4    1  0.9050888E-005  0.5995957E+03  0.7818608E-02  0.9906245E-01
          2   -1    0    0  501    0  0.00000000000E+00  0.00000000000E+00  0.37778384652E+03  0.37778384653E+03  0.25500000000E-02 0.  1.
         -2   -1    0    0    0  501 -0.00000000000E+00 -0.00000000000E+00 -0.23791052102E+03  0.23791052103E+03  0.25500000000E-02 0. -1.
    5000001    1    1    2    0    0 -0.93033147757E+02  0.22896383004E+03  0.11067747526E+03  0.31710267356E+03  0.16500000000E+03 0.  0.
   -5000001    1    1    2    0    0  0.93033147757E+02 -0.22896383004E+03  0.29195850238E+02  0.29859169399E+03  0.16500000000E+03 0.  0.
<mgrwt>
<rscale>  0 0.59959570E+03</rscale>
<asrwt>0</asrwt>
<pdfrwt beam="1">  1        2 0.58120592E-01 0.59959570E+03</pdfrwt>
<pdfrwt beam="2">  1       -2 0.36601619E-01 0.59959570E+03</pdfrwt>
<totfact> 0.60026126E+02</totfact>
</mgrwt>
</event>
<event>
 4    1  0.9050888E-005  0.4446721E+03  0.7818608E-02  0.1029323E+00
          2   -1    0    0  501    0  0.00000000000E+00  0.00000000000E+00  0.14109208838E+04  0.14109208838E+04  0.25500000000E-02 0.  1.
         -2   -1    0    0    0  501 -0.00000000000E+00 -0.00000000000E+00 -0.35036209628E+02  0.35036209721E+02  0.25500000000E-02 0. -1.
    5000001    1    1    2    0    0  0.12351934520E+03  0.43413678716E+02  0.45648475004E+03  0.50273760866E+03  0.16500000000E+03 0.  0.
   -5000001    1    1    2    0    0 -0.12351934520E+03 -0.43413678716E+02  0.91939992412E+03  0.94321948486E+03  0.16500000000E+03 0.  0.
<mgrwt>
<rscale>  0 0.44467210E+03</rscale>
<asrwt>0</asrwt>
<pdfrwt beam="1">  1        2 0.21706478E+00 0.44467210E+03</pdfrwt>
<pdfrwt beam="2">  1       -2 0.53901854E-02 0.44467210E+03</pdfrwt>
<totfact> 0.26582249E+03</totfact>
</mgrwt>
</event>
<event>
 4    1  0.9050888E-005  0.4198723E+03  0.7818608E-02  0.1037108E+00
         -2   -1    0    0    0  501 -0.00000000000E+00  0.00000000000E+00  0.14250070230E+04  0.14250070230E+04  0.25500000000E-02 0. -1.
          2   -1    0    0  501    0  0.00000000000E+00 -0.00000000000E+00 -0.30928403868E+02  0.30928403973E+02  0.25500000000E-02 0.  1.
    5000001    1    1    2    0    0  0.95882080261E+02 -0.39728326191E+02  0.42673629889E+03  0.46914878451E+03  0.16500000000E+03 0.  0.
   -5000001    1    1    2    0    0 -0.95882080261E+02  0.39728326191E+02  0.96734232024E+03  0.98678664246E+03  0.16500000000E+03 0.  0.
<mgrwt>
<rscale>  0 0.41987233E+03</rscale>
<asrwt>0</asrwt>
<pdfrwt beam="1">  1        2 0.47582167E-02 0.41987233E+03</pdfrwt>
<pdfrwt beam="2">  1       -2 0.21923182E+00 0.41987233E+03</pdfrwt>
<totfact> 0.18309104E+02</totfact>
</mgrwt>
</event>
<event>
 4    1  0.9050888E-005  0.5889516E+03  0.7818608E-02  0.9928597E-01
          2   -1    0    0  501    0  0.00000000000E+00  0.00000000000E+00  0.16764646474E+04  0.16764646474E+04  0.25500000000E-02 0.  1.
         -2   -1    0    0    0  501 -0.00000000000E+00 -0.00000000000E+00 -0.51725514479E+02  0.51725514541E+02  0.25500000000E-02 0. -1.
    5000001    1    1    2    0    0 -0.38521435099E+02 -0.24070583745E+03  0.83653039024E+03  0.88680961595E+03  0.16500000000E+03 0.  0.
   -5000001    1    1    2    0    0  0.38521435099E+02  0.24070583745E+03  0.78820874272E+03  0.84138054603E+03  0.16500000000E+03 0.  0.
<mgrwt>
<rscale>  0 0.58895160E+03</rscale>
<asrwt>0</asrwt>
<pdfrwt beam="1">  1        2 0.25791761E+00 0.58895160E+03</pdfrwt>
<pdfrwt beam="2">  1       -2 0.79577722E-02 0.58895160E+03</pdfrwt>
<totfact> 0.10268352E+03</totfact>
</mgrwt>
</event>
<event>
 4    1  0.9050888E-005  0.8793848E+03  0.7818608E-02  0.9451725E-01
         -2   -1    0    0    0  501 -0.00000000000E+00  0.00000000000E+00  0.65973453258E+03  0.65973453259E+03  0.25500000000E-02 0. -1.
          2   -1    0    0  501    0  0.00000000000E+00 -0.00000000000E+00 -0.29304117962E+03  0.29304117963E+03  0.25500000000E-02 0.  1.
    5000001    1    1    2    0    0  0.33078514539E+03 -0.21178127184E+03  0.30121101224E+03  0.52175012545E+03  0.16500000000E+03 0.  0.
   -5000001    1    1    2    0    0 -0.33078514539E+03  0.21178127184E+03  0.65482340722E+02  0.43102558678E+03  0.16500000000E+03 0.  0.
<mgrwt>
<rscale>  0 0.87938475E+03</rscale>
<asrwt>0</asrwt>
<pdfrwt beam="1">  1        2 0.45083259E-01 0.87938475E+03</pdfrwt>
<pdfrwt beam="2">  1       -2 0.10149762E+00 0.87938475E+03</pdfrwt>
<totfact> 0.90235000E+01</totfact>
</mgrwt>
</event>
<event>
 4    1  0.9050888E-005  0.4477596E+03  0.7818608E-02  0.1028392E+00
          2   -1    0    0  501    0  0.00000000000E+00  0.00000000000E+00  0.42364147405E+04  0.42364147405E+04  0.25500000000E-02 0.  1.
         -2   -1    0    0    0  501 -0.00000000000E+00 -0.00000000000E+00 -0.11831269662E+02  0.11831269937E+02  0.25500000000E-02 0. -1.
    5000001    1    1    2    0    0 -0.12112722502E+03  0.88589721674E+02  0.19280179925E+04  0.19408756588E+04  0.16500000000E+03 0.  0.
   -5000001    1    1    2    0    0  0.12112722502E+03 -0.88589721674E+02  0.22965654783E+04  0.23073703516E+04  0.16500000000E+03 0.  0.
<mgrwt>
<rscale>  0 0.44775960E+03</rscale>
<asrwt>0</asrwt>
<pdfrwt beam="1">  1        2 0.65175514E+00 0.44775960E+03</pdfrwt>
<pdfrwt beam="2">  1       -2 0.18201981E-02 0.44775960E+03</pdfrwt>
<totfact> 0.24495910E+02</totfact>
</mgrwt>
</event>
<event>
 4    1  0.9050888E-005  0.6591915E+03  0.7818608E-02  0.9789683E-01
         -2   -1    0    0    0  501 -0.00000000000E+00  0.00000000000E+00  0.14613247101E+03  0.14613247103E+03  0.25500000000E-02 0. -1.
          2   -1    0    0  501    0  0.00000000000E+00 -0.00000000000E+00 -0.74338970159E+03  0.74338970160E+03  0.25500000000E-02 0.  1.
    5000001    1    1    2    0    0  0.24539574106E+03  0.14175555736E+03 -0.34327497087E+03  0.47473825778E+03  0.16500000000E+03 0.  0.
   -5000001    1    1    2    0    0 -0.24539574106E+03 -0.14175555736E+03 -0.25398225971E+03  0.41478391485E+03  0.16500000000E+03 0.  0.
<mgrwt>
<rscale>  0 0.65919155E+03</rscale>
<asrwt>0</asrwt>
<pdfrwt beam="1">  1        2 0.11436764E+00 0.65919155E+03</pdfrwt>
<pdfrwt beam="2">  1       -2 0.22481919E-01 0.65919155E+03</pdfrwt>
<totfact> 0.66188523E+02</totfact>
</mgrwt>
</event>
<event>
 4    1  0.9050888E-005  0.4402270E+03  0.7818608E-02  0.1030677E+00
         -2   -1    0    0    0  501 -0.00000000000E+00  0.00000000000E+00  0.22256727634E+04  0.22256727634E+04  0.25500000000E-02 0. -1.
          2   -1    0    0  501    0  0.00000000000E+00 -0.00000000000E+00 -0.21768676240E+02  0.21768676389E+02  0.25500000000E-02 0.  1.
    5000001    1    1    2    0    0 -0.11035146826E+03 -0.85262065870E+02  0.88669202274E+03  0.91263070823E+03  0.16500000000E+03 0.  0.
   -5000001    1    1    2    0    0  0.11035146826E+03  0.85262065870E+02  0.13172120644E+04  0.13348107316E+04  0.16500000000E+03 0.  0.
<mgrwt>
<rscale>  0 0.44022699E+03</rscale>
<asrwt>0</asrwt>
<pdfrwt beam="1">  1        2 0.33490250E-02 0.44022699E+03</pdfrwt>
<pdfrwt beam="2">  1       -2 0.34241141E+00 0.44022699E+03</pdfrwt>
<totfact> 0.54064288E+01</totfact>
</mgrwt>
</event>
<event>
 4    1  0.9050888E-005  0.5271268E+03  0.7818608E-02  0.1006931E+00
          2   -1    0    0  501    0  0.00000000000E+00  0.00000000000E+00  0.27471469497E+04  0.27471469497E+04  0.25500000000E-02 0.  1.
         -2   -1    0    0    0  501 -0.00000000000E+00 -0.00000000000E+00 -0.25286477007E+02  0.25286477135E+02  0.25500000000E-02 0. -1.
    5000001    1    1    2    0    0  0.15599781327E+03 -0.12387532954E+03  0.10948041223E+04  0.11249451014E+04  0.16500000000E+03 0.  0.
   -5000001    1    1    2    0    0 -0.15599781327E+03  0.12387532954E+03  0.16270563504E+04  0.16474883254E+04  0.16500000000E+03 0.  0.
<mgrwt>
<rscale>  0 0.52712681E+03</rscale>
<asrwt>0</asrwt>
<pdfrwt beam="1">  1        2 0.42263778E+00 0.52712681E+03</pdfrwt>
<pdfrwt beam="2">  1       -2 0.38902292E-02 0.52712681E+03</pdfrwt>
<totfact> 0.80859204E+02</totfact>
</mgrwt>
</event>
<event>
 4    1  0.9050888E-005  0.1011850E+04  0.7818608E-02  0.9295643E-01
         -2   -1    0    0    0  501 -0.00000000000E+00  0.00000000000E+00  0.40214150501E+03  0.40214150502E+03  0.25500000000E-02 0. -1.
          2   -1    0    0  501    0  0.00000000000E+00 -0.00000000000E+00 -0.63649267628E+03  0.63649267629E+03  0.25500000000E-02 0.  1.
    5000001    1    1    2    0    0  0.25461266209E+03  0.30167316776E+03  0.15997299073E+03  0.45678295240E+03  0.16500000000E+03 0.  0.
   -5000001    1    1    2    0    0 -0.25461266209E+03 -0.30167316776E+03 -0.39432416200E+03  0.58185122891E+03  0.16500000000E+03 0.  0.
<mgrwt>
<rscale>  0 0.10118500E+04</rscale>
<asrwt>0</asrwt>
<pdfrwt beam="1">  1        2 0.97921950E-01 0.10118500E+04</pdfrwt>
<pdfrwt beam="2">  1       -2 0.61867924E-01 0.10118500E+04</pdfrwt>
<totfact> 0.11179717E+02</totfact>
</mgrwt>
</event>
<event>
 4    1  0.9050888E-005  0.7096143E+03  0.7818608E-02  0.9700930E-01
          2   -1    0    0  501    0  0.00000000000E+00  0.00000000000E+00  0.22271373130E+03  0.22271373132E+03  0.25500000000E-02 0.  1.
         -2   -1    0    0    0  501 -0.00000000000E+00 -0.00000000000E+00 -0.56524622944E+03  0.56524622945E+03  0.25500000000E-02 0. -1.
    5000001    1    1    2    0    0  0.88535547381E+01 -0.26185267496E+03  0.21119051885E+02  0.31034855109E+03  0.16500000000E+03 0.  0.
   -5000001    1    1    2    0    0 -0.88535547381E+01  0.26185267496E+03 -0.36365155003E+03  0.47761140967E+03  0.16500000000E+03 0.  0.
<mgrwt>
<rscale>  0 0.70961425E+03</rscale>
<asrwt>0</asrwt>
<pdfrwt beam="1">  1        2 0.34263651E-01 0.70961425E+03</pdfrwt>
<pdfrwt beam="2">  1       -2 0.86960957E-01 0.70961425E+03</pdfrwt>
<totfact> 0.17693766E+02</totfact>
</mgrwt>
</event>
<event>
 4    1  0.9050888E-005  0.1191083E+04  0.7818608E-02  0.9120698E-01
         -2   -1    0    0    0  501 -0.00000000000E+00  0.00000000000E+00  0.24324286778E+03  0.24324286779E+03  0.25500000000E-02 0. -1.
          2   -1    0    0  501    0  0.00000000000E+00 -0.00000000000E+00 -0.14580875225E+04  0.14580875225E+04  0.25500000000E-02 0.  1.
    5000001    1    1    2    0    0  0.57066515635E+02  0.52507241331E+03 -0.29289498155E+03  0.62607515255E+03  0.16500000000E+03 0.  0.
   -5000001    1    1    2    0    0 -0.57066515635E+02 -0.52507241331E+03 -0.92194967314E+03  0.10752552377E+04  0.16500000000E+03 0.  0.
<mgrwt>
<rscale>  0 0.11910825E+04</rscale>
<asrwt>0</asrwt>
<pdfrwt beam="1">  1        2 0.22432115E+00 0.11910825E+04</pdfrwt>
<pdfrwt beam="2">  1       -2 0.37421981E-01 0.11910825E+04</pdfrwt>
<totfact> 0.89087964E+01</totfact>
</mgrwt>
</event>
<event>
 4    1  0.9050888E-005  0.4364455E+03  0.7818608E-02  0.1031843E+00
         -2   -1    0    0    0  501 -0.00000000000E+00  0.00000000000E+00  0.19331457092E+02  0.19331457260E+02  0.25500000000E-02 0. -1.
          2   -1    0    0  501    0  0.00000000000E+00 -0.00000000000E+00 -0.24634032436E+04  0.24634032436E+04  0.25500000000E-02 0.  1.
    5000001    1    1    2    0    0 -0.10941493908E+03  0.62248887018E+02 -0.16057324496E+04  0.16190887105E+04  0.16500000000E+03 0.  0.
   -5000001    1    1    2    0    0  0.10941493908E+03 -0.62248887018E+02 -0.83833933689E+03  0.86364599033E+03  0.16500000000E+03 0.  0.
<mgrwt>
<rscale>  0 0.43644553E+03</rscale>
<asrwt>0</asrwt>
<pdfrwt beam="1">  1        2 0.37898487E+00 0.43644553E+03</pdfrwt>
<pdfrwt beam="2">  1       -2 0.29740723E-02 0.43644553E+03</pdfrwt>
<totfact> 0.17751700E+03</totfact>
</mgrwt>
</event>
<event>
 4    1  0.9050888E-005  0.7130869E+03  0.7818608E-02  0.9695110E-01
         -2   -1    0    0    0  501 -0.00000000000E+00  0.00000000000E+00  0.25667964133E+03  0.25667964134E+03  0.25500000000E-02 0. -1.
          2   -1    0    0  501    0  0.00000000000E+00 -0.00000000000E+00 -0.49526027542E+03  0.49526027542E+03  0.25500000000E-02 0.  1.
    5000001    1    1    2    0    0 -0.26484943932E+03 -0.16307089515E+03 -0.60005265028E+02  0.35715959204E+03  0.16500000000E+03 0.  0.
   -5000001    1    1    2    0    0  0.26484943932E+03  0.16307089515E+03 -0.17857536906E+03  0.39478032472E+03  0.16500000000E+03 0.  0.
<mgrwt>
<rscale>  0 0.71308689E+03</rscale>
<asrwt>0</asrwt>
<pdfrwt beam="1">  1        2 0.76193888E-01 0.71308689E+03</pdfrwt>
<pdfrwt beam="2">  1       -2 0.39489176E-01 0.71308689E+03</pdfrwt>
<totfact> 0.38056990E+02</totfact>
</mgrwt>
</event>
<event>
 4    1  0.9050888E-005  0.5944291E+03  0.7818608E-02  0.9917032E-01
          2   -1    0    0  501    0  0.00000000000E+00  0.00000000000E+00  0.33486870192E+03  0.33486870193E+03  0.25500000000E-02 0.  1.
         -2   -1    0    0    0  501 -0.00000000000E+00 -0.00000000000E+00 -0.26379441631E+03  0.26379441632E+03  0.25500000000E-02 0. -1.
    5000001    1    1    2    0    0  0.22660187641E+03 -0.68185365719E+02  0.10755761534E+03  0.30788194995E+03  0.16500000000E+03 0.  0.
   -5000001    1    1    2    0    0 -0.22660187641E+03  0.68185365719E+02 -0.36483329731E+02  0.29078116830E+03  0.16500000000E+03 0.  0.
<mgrwt>
<rscale>  0 0.59442912E+03</rscale>
<asrwt>0</asrwt>
<pdfrwt beam="1">  1        2 0.51518262E-01 0.59442912E+03</pdfrwt>
<pdfrwt beam="2">  1       -2 0.40583757E-01 0.59442912E+03</pdfrwt>
<totfact> 0.56236749E+02</totfact>
</mgrwt>
</event>
<event>
 4    1  0.9050888E-005  0.4696826E+03  0.7818608E-02  0.1022010E+00
         -2   -1    0    0    0  501 -0.00000000000E+00  0.00000000000E+00  0.24618036454E+03  0.24618036455E+03  0.25500000000E-02 0. -1.
          2   -1    0    0  501    0  0.00000000000E+00 -0.00000000000E+00 -0.22402447404E+03  0.22402447405E+03  0.25500000000E-02 0.  1.
    5000001    1    1    2    0    0  0.13275660799E+03  0.91967419714E+02 -0.31901174282E+02  0.23307725795E+03  0.16500000000E+03 0.  0.
   -5000001    1    1    2    0    0 -0.13275660799E+03 -0.91967419714E+02  0.54057064786E+02  0.23712758065E+03  0.16500000000E+03 0.  0.
<mgrwt>
<rscale>  0 0.46968256E+03</rscale>
<asrwt>0</asrwt>
<pdfrwt beam="1">  1        2 0.34465304E-01 0.46968256E+03</pdfrwt>
<pdfrwt beam="2">  1       -2 0.37873902E-01 0.46968256E+03</pdfrwt>
<totfact> 0.10021187E+03</totfact>
</mgrwt>
</event>
<event>
 4    1  0.9050888E-005  0.3779523E+03  0.7818608E-02  0.1051693E+00
          2   -1    0    0  501    0  0.00000000000E+00  0.00000000000E+00  0.51311018249E+03  0.51311018249E+03  0.25500000000E-02 0.  1.
         -2   -1    0    0    0  501 -0.00000000000E+00 -0.00000000000E+00 -0.69599057140E+02  0.69599057186E+02  0.25500000000E-02 0. -1.
    5000001    1    1    2    0    0  0.70156067877E+02 -0.16905263157E+02  0.13346647665E+03  0.22415611116E+03  0.16500000000E+03 0.  0.
   -5000001    1    1    2    0    0 -0.70156067877E+02  0.16905263157E+02  0.31004464870E+03  0.35855312852E+03  0.16500000000E+03 0.  0.
<mgrwt>
<rscale>  0 0.37795230E+03</rscale>
<asrwt>0</asrwt>
<pdfrwt beam="1">  1        2 0.78940027E-01 0.37795230E+03</pdfrwt>
<pdfrwt beam="2">  1       -2 0.10707547E-01 0.37795230E+03</pdfrwt>
<totfact> 0.36129126E+03</totfact>
</mgrwt>
</event>
<event>
 4    1  0.9050888E-005  0.4118306E+03  0.7818608E-02  0.1039758E+00
          2   -1    0    0  501    0  0.00000000000E+00  0.00000000000E+00  0.11997063357E+03  0.11997063360E+03  0.25500000000E-02 0.  1.
         -2   -1    0    0    0  501 -0.00000000000E+00 -0.00000000000E+00 -0.35342910115E+03  0.35342910116E+03  0.25500000000E-02 0. -1.
    5000001    1    1    2    0    0 -0.15228322277E+02  0.12183294078E+03 -0.12827848439E+03  0.24239541418E+03  0.16500000000E+03 0.  0.
   -5000001    1    1    2    0    0  0.15228322277E+02 -0.12183294078E+03 -0.10517998319E+03  0.23100432057E+03  0.16500000000E+03 0.  0.
<mgrwt>
<rscale>  0 0.41183061E+03</rscale>
<asrwt>0</asrwt>
<pdfrwt beam="1">  1        2 0.18457021E-01 0.41183061E+03</pdfrwt>
<pdfrwt beam="2">  1       -2 0.54373707E-01 0.41183061E+03</pdfrwt>
<totfact> 0.99510756E+02</totfact>
</mgrwt>
</event>
<event>
 4    1  0.9050888E-005  0.4588175E+03  0.7818608E-02  0.1025125E+00
         -2   -1    0    0    0  501 -0.00000000000E+00  0.00000000000E+00  0.12856128520E+03  0.12856128522E+03  0.25500000000E-02 0. -1.
          2   -1    0    0  501    0  0.00000000000E+00 -0.00000000000E+00 -0.40936405260E+03  0.40936405261E+03  0.25500000000E-02 0.  1.
    5000001    1    1    2    0    0  0.64733517496E+02 -0.13691098060E+03 -0.19864966551E+03  0.29936889368E+03  0.16500000000E+03 0.  0.
   -5000001    1    1    2    0    0 -0.64733517496E+02  0.13691098060E+03 -0.82153101895E+02  0.23855644415E+03  0.16500000000E+03 0.  0.
<mgrwt>
<rscale>  0 0.45881747E+03</rscale>
<asrwt>0</asrwt>
<pdfrwt beam="1">  1        2 0.62979084E-01 0.45881747E+03</pdfrwt>
<pdfrwt beam="2">  1       -2 0.19778660E-01 0.45881747E+03</pdfrwt>
<totfact> 0.16782547E+03</totfact>
</mgrwt>
</event>
<event>
 4    1  0.9050888E-005  0.4315558E+03  0.7818608E-02  0.1033370E+00
         -2   -1    0    0    0  501 -0.00000000000E+00  0.00000000000E+00  0.96298150524E+02  0.96298150557E+02  0.25500000000E-02 0. -1.
          2   -1    0    0  501    0  0.00000000000E+00 -0.00000000000E+00 -0.48349949325E+03  0.48349949326E+03  0.25500000000E-02 0.  1.
    5000001    1    1    2    0    0  0.11279126214E+03 -0.65206818046E+02 -0.25888604321E+03  0.33349779805E+03  0.16500000000E+03 0.  0.
   -5000001    1    1    2    0    0 -0.11279126214E+03  0.65206818046E+02 -0.12831529952E+03  0.24629984577E+03  0.16500000000E+03 0.  0.
<mgrwt>
<rscale>  0 0.43155582E+03</rscale>
<asrwt>0</asrwt>
<pdfrwt beam="1">  1        2 0.74384536E-01 0.43155582E+03</pdfrwt>
<pdfrwt beam="2">  1       -2 0.14815100E-01 0.43155582E+03</pdfrwt>
<totfact> 0.22736914E+03</totfact>
</mgrwt>
</event>
<event>
 4    1  0.9050888E-005  0.4750722E+03  0.7818608E-02  0.1020498E+00
          2   -1    0    0  501    0  0.00000000000E+00  0.00000000000E+00  0.22043245612E+04  0.22043245612E+04  0.25500000000E-02 0.  1.
         -2   -1    0    0    0  501 -0.00000000000E+00 -0.00000000000E+00 -0.25596688193E+02  0.25596688320E+02  0.25500000000E-02 0. -1.
    5000001    1    1    2    0    0 -0.16832591119E+03 -0.15766808131E+02  0.12058816963E+04  0.12288034302E+04  0.16500000000E+03 0.  0.
   -5000001    1    1    2    0    0  0.16832591119E+03  0.15766808131E+02  0.97284617668E+03  0.10011178193E+04  0.16500000000E+03 0.  0.
<mgrwt>
<rscale>  0 0.47507224E+03</rscale>
<asrwt>0</asrwt>
<pdfrwt beam="1">  1        2 0.33912695E+00 0.47507224E+03</pdfrwt>
<pdfrwt beam="2">  1       -2 0.39379509E-02 0.47507224E+03</pdfrwt>
<totfact> 0.16036828E+03</totfact>
</mgrwt>
</event>
<event>
 4    1  0.9050888E-005  0.3607463E+03  0.7818608E-02  0.1058289E+00
          2   -1    0    0  501    0  0.00000000000E+00  0.00000000000E+00  0.69782963241E+02  0.69782963287E+02  0.25500000000E-02 0.  1.
         -2   -1    0    0    0  501 -0.00000000000E+00 -0.00000000000E+00 -0.46622383199E+03  0.46622383200E+03  0.25500000000E-02 0. -1.
    5000001    1    1    2    0    0 -0.42671157601E+02  0.57377541216E+02 -0.17739389240E+03  0.25259968921E+03  0.16500000000E+03 0.  0.
   -5000001    1    1    2    0    0  0.42671157601E+02 -0.57377541216E+02 -0.21904697635E+03  0.28340710607E+03  0.16500000000E+03 0.  0.
<mgrwt>
<rscale>  0 0.36074634E+03</rscale>
<asrwt>0</asrwt>
<pdfrwt beam="1">  1        2 0.10735841E-01 0.36074634E+03</pdfrwt>
<pdfrwt beam="2">  1       -2 0.71726741E-01 0.36074634E+03</pdfrwt>
<totfact> 0.10673445E+03</totfact>
</mgrwt>
</event>
<event>
 4    1  0.9050888E-005  0.3424368E+03  0.7818608E-02  0.1065763E+00
          2   -1    0    0  501    0  0.00000000000E+00  0.00000000000E+00  0.22626500624E+03  0.22626500625E+03  0.25500000000E-02 0.  1.
         -2   -1    0    0    0  501 -0.00000000000E+00 -0.00000000000E+00 -0.12956371059E+03  0.12956371061E+03  0.25500000000E-02 0. -1.
    5000001    1    1    2    0    0  0.30462365742E+01 -0.45423374071E+02  0.52780139291E+02  0.17911813301E+03  0.16500000000E+03 0.  0.
   -5000001    1    1    2    0    0 -0.30462365742E+01  0.45423374071E+02  0.43921156360E+02  0.17671058385E+03  0.16500000000E+03 0.  0.
<mgrwt>
<rscale>  0 0.34243676E+03</rscale>
<asrwt>0</asrwt>
<pdfrwt beam="1">  1        2 0.34810001E-01 0.34243676E+03</pdfrwt>
<pdfrwt beam="2">  1       -2 0.19932879E-01 0.34243676E+03</pdfrwt>
<totfact> 0.31557306E+03</totfact>
</mgrwt>
</event>
<event>
 4    1  0.9050888E-005  0.5867921E+03  0.7818608E-02  0.9933194E-01
          2   -1    0    0  501    0  0.00000000000E+00  0.00000000000E+00  0.40585641251E+03  0.40585641251E+03  0.25500000000E-02 0.  1.
         -2   -1    0    0    0  501 -0.00000000000E+00 -0.00000000000E+00 -0.21209777891E+03  0.21209777892E+03  0.25500000000E-02 0. -1.
    5000001    1    1    2    0    0 -0.20087020623E+03 -0.86510642595E+02 -0.13688334005E+02  0.27430877040E+03  0.16500000000E+03 0.  0.
   -5000001    1    1    2    0    0  0.20087020623E+03  0.86510642595E+02  0.20744696760E+03  0.34364542104E+03  0.16500000000E+03 0.  0.
<mgrwt>
<rscale>  0 0.58679211E+03</rscale>
<asrwt>0</asrwt>
<pdfrwt beam="1">  1        2 0.62439448E-01 0.58679211E+03</pdfrwt>
<pdfrwt beam="2">  1       -2 0.32630428E-01 0.58679211E+03</pdfrwt>
<totfact> 0.68872545E+02</totfact>
</mgrwt>
</event>
<event>
 4    1  0.9050888E-005  0.6068830E+03  0.7818608E-02  0.9891228E-01
          2   -1    0    0  501    0  0.00000000000E+00  0.00000000000E+00  0.12712538228E+04  0.12712538228E+04  0.25500000000E-02 0.  1.
         -2   -1    0    0    0  501 -0.00000000000E+00 -0.00000000000E+00 -0.72429854636E+02  0.72429854681E+02  0.25500000000E-02 0. -1.
    5000001    1    1    2    0    0  0.19682437555E+03 -0.12099697249E+03  0.83655187754E+03  0.88341617937E+03  0.16500000000E+03 0.  0.
   -5000001    1    1    2    0    0 -0.19682437555E+03  0.12099697249E+03  0.36227209059E+03  0.46026749808E+03  0.16500000000E+03 0.  0.
<mgrwt>
<rscale>  0 0.60688295E+03</rscale>
<asrwt>0</asrwt>
<pdfrwt beam="1">  1        2 0.19557751E+00 0.60688295E+03</pdfrwt>
<pdfrwt beam="2">  1       -2 0.11143055E-01 0.60688295E+03</pdfrwt>
<totfact> 0.10012179E+03</totfact>
</mgrwt>
</event>
<event>
 4    1  0.9050888E-005  0.8758042E+03  0.7818608E-02  0.9456343E-01
          2   -1    0    0  501    0  0.00000000000E+00  0.00000000000E+00  0.27886711612E+04  0.27886711612E+04  0.25500000000E-02 0.  1.
         -2   -1    0    0    0  501 -0.00000000000E+00 -0.00000000000E+00 -0.68763313334E+02  0.68763313382E+02  0.25500000000E-02 0. -1.
    5000001    1    1    2    0    0 -0.11274268142E+03 -0.38797856942E+03  0.12425448038E+04  0.13169589485E+04  0.16500000000E+03 0.  0.
   -5000001    1    1    2    0    0  0.11274268142E+03  0.38797856942E+03  0.14773630440E+04  0.15404755261E+04  0.16500000000E+03 0.  0.
<mgrwt>
<rscale>  0 0.87580425E+03</rscale>
<asrwt>0</asrwt>
<pdfrwt beam="1">  1        2 0.42902638E+00 0.87580425E+03</pdfrwt>
<pdfrwt beam="2">  1       -2 0.10578970E-01 0.87580425E+03</pdfrwt>
<totfact> 0.15204111E+02</totfact>
</mgrwt>
</event>
<event>
 4    1  0.9050888E-005  0.6496753E+03  0.7818608E-02  0.9807389E-01
          2   -1    0    0  501    0  0.00000000000E+00  0.00000000000E+00  0.84739509168E+03  0.84739509169E+03  0.25500000000E-02 0.  1.
         -2   -1    0    0    0  501 -0.00000000000E+00 -0.00000000000E+00 -0.12452220015E+03  0.12452220018E+03  0.25500000000E-02 0. -1.
    5000001    1    1    2    0    0  0.52406102328E+02  0.26782969354E+03  0.45384252312E+03  0.55468656023E+03  0.16500000000E+03 0.  0.
   -5000001    1    1    2    0    0 -0.52406102328E+02 -0.26782969354E+03  0.26903036841E+03  0.41723073164E+03  0.16500000000E+03 0.  0.
<mgrwt>
<rscale>  0 0.64967531E+03</rscale>
<asrwt>0</asrwt>
<pdfrwt beam="1">  1        2 0.13036848E+00 0.64967531E+03</pdfrwt>
<pdfrwt beam="2">  1       -2 0.19157261E-01 0.64967531E+03</pdfrwt>
<totfact> 0.73792911E+02</totfact>
</mgrwt>
</event>
<event>
 4    1  0.9050888E-005  0.1035932E+04  0.7818608E-02  0.9269990E-01
          2   -1    0    0  501    0  0.00000000000E+00  0.00000000000E+00  0.28214083112E+03  0.28214083113E+03  0.25500000000E-02 0.  1.
         -2   -1    0    0    0  501 -0.00000000000E+00 -0.00000000000E+00 -0.95090456659E+03  0.95090456659E+03  0.25500000000E-02 0. -1.
    5000001    1    1    2    0    0  0.19822378045E+03  0.42302995007E+03 -0.51417657164E+03  0.71403750085E+03  0.16500000000E+03 0.  0.
   -5000001    1    1    2    0    0 -0.19822378045E+03 -0.42302995007E+03 -0.15458716383E+03  0.51900789687E+03  0.16500000000E+03 0.  0.
<mgrwt>
<rscale>  0 0.10359324E+04</rscale>
<asrwt>0</asrwt>
<pdfrwt beam="1">  1        2 0.43406282E-01 0.10359324E+04</pdfrwt>
<pdfrwt beam="2">  1       -2 0.14629301E+00 0.10359324E+04</pdfrwt>
<totfact> 0.37468114E+01</totfact>
</mgrwt>
</event>
<event>
 4    1  0.9050888E-005  0.1028047E+04  0.7818608E-02  0.9278307E-01
          2   -1    0    0  501    0  0.00000000000E+00  0.00000000000E+00  0.30217119543E+04  0.30217119543E+04  0.25500000000E-02 0. -1.
         -2   -1    0    0    0  501 -0.00000000000E+00 -0.00000000000E+00 -0.87440635606E+02  0.87440635643E+02  0.25500000000E-02 0.  1.
    5000001    1    1    2    0    0  0.39703246204E+03 -0.15254914840E+03  0.75087807124E+03  0.87860622378E+03  0.16500000000E+03 0.  0.
   -5000001    1    1    2    0    0 -0.39703246204E+03  0.15254914840E+03  0.21833932475E+04  0.22305463662E+04  0.16500000000E+03 0.  0.
<mgrwt>
<rscale>  0 0.10280475E+04</rscale>
<asrwt>0</asrwt>
<pdfrwt beam="1">  1        2 0.46487877E+00 0.10280475E+04</pdfrwt>
<pdfrwt beam="2">  1       -2 0.13452405E-01 0.10280475E+04</pdfrwt>
<totfact> 0.72618409E+01</totfact>
</mgrwt>
</event>
<event>
 4    1  0.9050888E-005  0.5248343E+03  0.7818608E-02  0.1007493E+00
          2   -1    0    0  501    0  0.00000000000E+00  0.00000000000E+00  0.93090512091E+03  0.93090512091E+03  0.25500000000E-02 0.  1.
         -2   -1    0    0    0  501 -0.00000000000E+00 -0.00000000000E+00 -0.73973997884E+02  0.73973997928E+02  0.25500000000E-02 0. -1.
    5000001    1    1    2    0    0 -0.18352837021E+03  0.89186180416E+02  0.42661316639E+03  0.50085989177E+03  0.16500000000E+03 0.  0.
   -5000001    1    1    2    0    0  0.18352837021E+03 -0.89186180416E+02  0.43031795664E+03  0.50401922707E+03  0.16500000000E+03 0.  0.
<mgrwt>
<rscale>  0 0.52483435E+03</rscale>
<asrwt>0</asrwt>
<pdfrwt beam="1">  1        2 0.14321618E+00 0.52483435E+03</pdfrwt>
<pdfrwt beam="2">  1       -2 0.11380614E-01 0.52483435E+03</pdfrwt>
<totfact> 0.15615232E+03</totfact>
</mgrwt>
</event>
<event>
 4    1  0.9050888E-005  0.4293552E+03  0.7818608E-02  0.1034064E+00
         -2   -1    0    0    0  501 -0.00000000000E+00  0.00000000000E+00  0.20958382712E+02  0.20958382867E+02  0.25500000000E-02 0. -1.
          2   -1    0    0  501    0  0.00000000000E+00 -0.00000000000E+00 -0.21989521705E+04  0.21989521705E+04  0.25500000000E-02 0.  1.
    5000001    1    1    2    0    0  0.59239580843E+02  0.12390368063E+03 -0.10880819307E+04  0.11090575900E+04  0.16500000000E+03 0.  0.
   -5000001    1    1    2    0    0 -0.59239580843E+02 -0.12390368063E+03 -0.10899118571E+04  0.11108529634E+04  0.16500000000E+03 0.  0.
<mgrwt>
<rscale>  0 0.42935524E+03</rscale>
<asrwt>0</asrwt>
<pdfrwt beam="1">  1        2 0.33830015E+00 0.42935524E+03</pdfrwt>
<pdfrwt beam="2">  1       -2 0.32243683E-02 0.42935524E+03</pdfrwt>
<totfact> 0.21936945E+03</totfact>
</mgrwt>
</event>
<event>
 4    1  0.9050888E-005  0.6294794E+03  0.7818608E-02  0.9846065E-01
         -2   -1    0    0    0  501 -0.00000000000E+00  0.00000000000E+00  0.10297654252E+03  0.10297654255E+03  0.25500000000E-02 0. -1.
          2   -1    0    0  501    0  0.00000000000E+00 -0.00000000000E+00 -0.96197699846E+03  0.96197699846E+03  0.25500000000E-02 0.  1.
    5000001    1    1    2    0    0 -0.22461450473E+03 -0.14200253841E+03 -0.48858425659E+03  0.58013444342E+03  0.16500000000E+03 0.  0.
   -5000001    1    1    2    0    0  0.22461450473E+03  0.14200253841E+03 -0.37041619935E+03  0.48481909759E+03  0.16500000000E+03 0.  0.
<mgrwt>
<rscale>  0 0.62947936E+03</rscale>
<asrwt>0</asrwt>
<pdfrwt beam="1">  1        2 0.14799646E+00 0.62947936E+03</pdfrwt>
<pdfrwt beam="2">  1       -2 0.15842546E-01 0.62947936E+03</pdfrwt>
<totfact> 0.85756788E+02</totfact>
</mgrwt>
</event>
<event>
 4    1  0.9050888E-005  0.6344264E+03  0.7818608E-02  0.9836449E-01
         -2   -1    0    0    0  501 -0.00000000000E+00  0.00000000000E+00  0.10863273152E+03  0.10863273155E+03  0.25500000000E-02 0. -1.
          2   -1    0    0  501    0  0.00000000000E+00 -0.00000000000E+00 -0.92627897227E+03  0.92627897228E+03  0.25500000000E-02 0.  1.
    5000001    1    1    2    0    0  0.16832795972E+03 -0.18426448207E+03 -0.23687055470E+03  0.38160235987E+03  0.16500000000E+03 0.  0.
   -5000001    1    1    2    0    0 -0.16832795972E+03  0.18426448207E+03 -0.58077568606E+03  0.65330934395E+03  0.16500000000E+03 0.  0.
<mgrwt>
<rscale>  0 0.63442640E+03</rscale>
<asrwt>0</asrwt>
<pdfrwt beam="1">  1        2 0.14250445E+00 0.63442640E+03</pdfrwt>
<pdfrwt beam="2">  1       -2 0.16712729E-01 0.63442640E+03</pdfrwt>
<totfact> 0.82601512E+02</totfact>
</mgrwt>
</event>
<event>
 4    1  0.9050888E-005  0.7449525E+03  0.7818608E-02  0.9643303E-01
         -2   -1    0    0    0  501 -0.00000000000E+00  0.00000000000E+00  0.90706337609E+03  0.90706337610E+03  0.25500000000E-02 0. -1.
          2   -1    0    0  501    0  0.00000000000E+00 -0.00000000000E+00 -0.15295353581E+03  0.15295353583E+03  0.25500000000E-02 0.  1.
    5000001    1    1    2    0    0 -0.39243478498E+02 -0.32333862956E+03  0.27224332429E+03  0.45544412126E+03  0.16500000000E+03 0.  0.
   -5000001    1    1    2    0    0  0.39243478498E+02  0.32333862956E+03  0.48186651599E+03  0.60457279066E+03  0.16500000000E+03 0.  0.
<mgrwt>
<rscale>  0 0.74495248E+03</rscale>
<asrwt>0</asrwt>
<pdfrwt beam="1">  1        2 0.23531313E-01 0.74495248E+03</pdfrwt>
<pdfrwt beam="2">  1       -2 0.13954821E+00 0.74495248E+03</pdfrwt>
<totfact> 0.86002773E+01</totfact>
</mgrwt>
</event>
<event>
 4    1  0.9050888E-005  0.4750974E+03  0.7818608E-02  0.1020491E+00
         -2   -1    0    0    0  501 -0.00000000000E+00  0.00000000000E+00  0.13822119100E+03  0.13822119103E+03  0.25500000000E-02 0. -1.
          2   -1    0    0  501    0  0.00000000000E+00 -0.00000000000E+00 -0.40825420370E+03  0.40825420371E+03  0.25500000000E-02 0.  1.
    5000001    1    1    2    0    0  0.10830131024E+03  0.13202681893E+03 -0.14265737852E+03  0.27701332524E+03  0.16500000000E+03 0.  0.
   -5000001    1    1    2    0    0 -0.10830131024E+03 -0.13202681893E+03 -0.12737563417E+03  0.26946206949E+03  0.16500000000E+03 0.  0.
<mgrwt>
<rscale>  0 0.47509739E+03</rscale>
<asrwt>0</asrwt>
<pdfrwt beam="1">  1        2 0.62808339E-01 0.47509739E+03</pdfrwt>
<pdfrwt beam="2">  1       -2 0.21264799E-01 0.47509739E+03</pdfrwt>
<totfact> 0.14843586E+03</totfact>
</mgrwt>
</event>
<event>
 4    1  0.9050888E-005  0.4184619E+03  0.7818608E-02  0.1037568E+00
          2   -1    0    0  501    0  0.00000000000E+00  0.00000000000E+00  0.16393705407E+03  0.16393705409E+03  0.25500000000E-02 0.  1.
         -2   -1    0    0    0  501 -0.00000000000E+00 -0.00000000000E+00 -0.26703905583E+03  0.26703905584E+03  0.25500000000E-02 0. -1.
    5000001    1    1    2    0    0  0.40092076252E+02  0.11674784518E+03 -0.14201319065E+02  0.20655292638E+03  0.16500000000E+03 0.  0.
   -5000001    1    1    2    0    0 -0.40092076252E+02 -0.11674784518E+03 -0.88900682687E+02  0.22442318355E+03  0.16500000000E+03 0.  0.
<mgrwt>
<rscale>  0 0.41846193E+03</rscale>
<asrwt>0</asrwt>
<pdfrwt beam="1">  1        2 0.25221085E-01 0.41846193E+03</pdfrwt>
<pdfrwt beam="2">  1       -2 0.41082932E-01 0.41846193E+03</pdfrwt>
<totfact> 0.12140935E+03</totfact>
</mgrwt>
</event>
<event>
 4    1  0.9050888E-005  0.4529055E+03  0.7818608E-02  0.1026859E+00
         -2   -1    0    0    0  501 -0.00000000000E+00  0.00000000000E+00  0.26546960802E+02  0.26546960924E+02  0.25500000000E-02 0. -1.
          2   -1    0    0  501    0  0.00000000000E+00 -0.00000000000E+00 -0.19317032192E+04  0.19317032192E+04  0.25500000000E-02 0.  1.
    5000001    1    1    2    0    0 -0.85628450441E+02  0.89970923318E+02 -0.55093803272E+03  0.58837463785E+03  0.16500000000E+03 0.  0.
   -5000001    1    1    2    0    0  0.85628450441E+02 -0.89970923318E+02 -0.13542182257E+04  0.13698755423E+04  0.16500000000E+03 0.  0.
<mgrwt>
<rscale>  0 0.45290551E+03</rscale>
<asrwt>0</asrwt>
<pdfrwt beam="1">  1        2 0.29718500E+00 0.45290551E+03</pdfrwt>
<pdfrwt beam="2">  1       -2 0.40841493E-02 0.45290551E+03</pdfrwt>
<totfact> 0.21297229E+03</totfact>
</mgrwt>
</event>
<event>
 4    1  0.9050888E-005  0.1109474E+04  0.7818608E-02  0.9196007E-01
         -2   -1    0    0    0  501 -0.00000000000E+00  0.00000000000E+00  0.15324414797E+03  0.15324414799E+03  0.25500000000E-02 0. -1.
          2   -1    0    0  501    0  0.00000000000E+00 -0.00000000000E+00 -0.20081220554E+04  0.20081220554E+04  0.25500000000E-02 0.  1.
    5000001    1    1    2    0    0  0.14508527907E+03 -0.25867215682E+03 -0.17822687624E+04  0.18142954457E+04  0.16500000000E+03 0.  0.
   -5000001    1    1    2    0    0 -0.14508527907E+03  0.25867215682E+03 -0.72609145074E+02  0.34707075772E+03  0.16500000000E+03 0.  0.
<mgrwt>
<rscale>  0 0.11094737E+04</rscale>
<asrwt>0</asrwt>
<pdfrwt beam="1">  1        2 0.30894184E+00 0.11094737E+04</pdfrwt>
<pdfrwt beam="2">  1       -2 0.23576024E-01 0.11094737E+04</pdfrwt>
<totfact> 0.10488213E+02</totfact>
</mgrwt>
</event>
<event>
 4    1  0.9050888E-005  0.9368730E+03  0.7818608E-02  0.9380627E-01
          2   -1    0    0  501    0  0.00000000000E+00  0.00000000000E+00  0.22817392049E+04  0.22817392049E+04  0.25500000000E-02 0.  1.
         -2   -1    0    0    0  501 -0.00000000000E+00 -0.00000000000E+00 -0.96169074437E+02  0.96169074471E+02  0.25500000000E-02 0. -1.
    5000001    1    1    2    0    0 -0.19410123370E+03 -0.37508694409E+02  0.20859885229E+04  0.21018219022E+04  0.16500000000E+03 0.  0.
   -5000001    1    1    2    0    0  0.19410123370E+03  0.37508694409E+02  0.99581607583E+02  0.27608637715E+03  0.16500000000E+03 0.  0.
<mgrwt>
<rscale>  0 0.93687298E+03</rscale>
<asrwt>0</asrwt>
<pdfrwt beam="1">  1        2 0.35103678E+00 0.93687298E+03</pdfrwt>
<pdfrwt beam="2">  1       -2 0.14795243E-01 0.93687298E+03</pdfrwt>
<totfact> 0.16888591E+02</totfact>
</mgrwt>
</event>
<event>
 4    1  0.9050888E-005  0.8819297E+03  0.7818608E-02  0.9448456E-01
         -2   -1    0    0    0  501 -0.00000000000E+00  0.00000000000E+00  0.12827797081E+03  0.12827797083E+03  0.25500000000E-02 0. -1.
          2   -1    0    0  501    0  0.00000000000E+00 -0.00000000000E+00 -0.15158488674E+04  0.15158488674E+04  0.25500000000E-02 0.  1.
    5000001    1    1    2    0    0  0.53434967293E+02  0.39204593202E+03 -0.88635055848E+03  0.98457992111E+03  0.16500000000E+03 0.  0.
   -5000001    1    1    2    0    0 -0.53434967293E+02 -0.39204593202E+03 -0.50122033808E+03  0.65954691710E+03  0.16500000000E+03 0.  0.
<mgrwt>
<rscale>  0 0.88192974E+03</rscale>
<asrwt>0</asrwt>
<pdfrwt beam="1">  1        2 0.23320750E+00 0.88192974E+03</pdfrwt>
<pdfrwt beam="2">  1       -2 0.19735074E-01 0.88192974E+03</pdfrwt>
<totfact> 0.27309442E+02</totfact>
</mgrwt>
</event>
<event>
 4    1  0.9050888E-005  0.5962866E+03  0.7818608E-02  0.9913140E-01
         -2   -1    0    0    0  501 -0.00000000000E+00  0.00000000000E+00  0.46406734272E+02  0.46406734342E+02  0.25500000000E-02 0. -1.
          2   -1    0    0  501    0  0.00000000000E+00 -0.00000000000E+00 -0.19154426149E+04  0.19154426149E+04  0.25500000000E-02 0.  1.
    5000001    1    1    2    0    0  0.16846959621E+03  0.28553688351E+02 -0.34168482385E+03  0.41613800213E+03  0.16500000000E+03 0.  0.
   -5000001    1    1    2    0    0 -0.16846959621E+03 -0.28553688351E+02 -0.15273510567E+04  0.15457113471E+04  0.16500000000E+03 0.  0.
<mgrwt>
<rscale>  0 0.59628663E+03</rscale>
<asrwt>0</asrwt>
<pdfrwt beam="1">  1        2 0.29468342E+00 0.59628663E+03</pdfrwt>
<pdfrwt beam="2">  1       -2 0.71394991E-02 0.59628663E+03</pdfrwt>
<totfact> 0.90522000E+02</totfact>
</mgrwt>
</event>
<event>
 4    1  0.9050888E-005  0.7659477E+03  0.7818608E-02  0.9610658E-01
         -2   -1    0    0    0  501 -0.00000000000E+00  0.00000000000E+00  0.17570879300E+03  0.17570879302E+03  0.25500000000E-02 0. -1.
          2   -1    0    0  501    0  0.00000000000E+00 -0.00000000000E+00 -0.83472761302E+03  0.83472761303E+03  0.25500000000E-02 0.  1.
    5000001    1    1    2    0    0 -0.35289321409E+02  0.33463448007E+03 -0.22548158322E+03  0.43736999877E+03  0.16500000000E+03 0.  0.
   -5000001    1    1    2    0    0  0.35289321409E+02 -0.33463448007E+03 -0.43353723680E+03  0.57306640728E+03  0.16500000000E+03 0.  0.
<mgrwt>
<rscale>  0 0.76594773E+03</rscale>
<asrwt>0</asrwt>
<pdfrwt beam="1">  1        2 0.12841963E+00 0.76594773E+03</pdfrwt>
<pdfrwt beam="2">  1       -2 0.27032123E-01 0.76594773E+03</pdfrwt>
<totfact> 0.40649353E+02</totfact>
</mgrwt>
</event>
<event>
 4    1  0.9050888E-005  0.3720180E+03  0.7818608E-02  0.1053924E+00
          2   -1    0    0  501    0  0.00000000000E+00  0.00000000000E+00  0.38197920233E+03  0.38197920234E+03  0.25500000000E-02 0.  1.
         -2   -1    0    0    0  501 -0.00000000000E+00 -0.00000000000E+00 -0.90579155993E+02  0.90579156029E+02  0.25500000000E-02 0. -1.
    5000001    1    1    2    0    0  0.14494587944E+02 -0.84109315694E+02  0.15774294662E+03  0.24370536981E+03  0.16500000000E+03 0.  0.
   -5000001    1    1    2    0    0 -0.14494587944E+02  0.84109315694E+02  0.13365709971E+03  0.22885298855E+03  0.16500000000E+03 0.  0.
<mgrwt>
<rscale>  0 0.37201803E+03</rscale>
<asrwt>0</asrwt>
<pdfrwt beam="1">  1        2 0.58766030E-01 0.37201803E+03</pdfrwt>
<pdfrwt beam="2">  1       -2 0.13935255E-01 0.37201803E+03</pdfrwt>
<totfact> 0.32647534E+03</totfact>
</mgrwt>
</event>
<event>
 4    1  0.9050888E-005  0.4398498E+03  0.7818608E-02  0.1030793E+00
         -2   -1    0    0    0  501 -0.00000000000E+00  0.00000000000E+00  0.57209952018E+02  0.57209952075E+02  0.25500000000E-02 0. -1.
          2   -1    0    0  501    0  0.00000000000E+00 -0.00000000000E+00 -0.84542931020E+03  0.84542931020E+03  0.25500000000E-02 0.  1.
    5000001    1    1    2    0    0  0.77699322286E+02  0.81486309143E+02 -0.58291632951E+03  0.61619286791E+03  0.16500000000E+03 0.  0.
   -5000001    1    1    2    0    0 -0.77699322286E+02 -0.81486309143E+02 -0.20530302867E+03  0.28644639436E+03  0.16500000000E+03 0.  0.
<mgrwt>
<rscale>  0 0.43984984E+03</rscale>
<asrwt>0</asrwt>
<pdfrwt beam="1">  1        2 0.13006604E+00 0.43984984E+03</pdfrwt>
<pdfrwt beam="2">  1       -2 0.88015317E-02 0.43984984E+03</pdfrwt>
<totfact> 0.26962360E+03</totfact>
</mgrwt>
</event>
<event>
 4    1  0.9050888E-005  0.4416334E+03  0.7818608E-02  0.1030247E+00
          2   -1    0    0  501    0  0.00000000000E+00  0.00000000000E+00  0.28675255642E+04  0.28675255642E+04  0.25500000000E-02 0.  1.
         -2   -1    0    0    0  501 -0.00000000000E+00 -0.00000000000E+00 -0.17004211850E+02  0.17004212041E+02  0.25500000000E-02 0. -1.
    5000001    1    1    2    0    0  0.11309336861E+03 -0.92600158958E+02  0.13400720000E+04  0.13580805811E+04  0.16500000000E+03 0.  0.
   -5000001    1    1    2    0    0 -0.11309336861E+03  0.92600158958E+02  0.15104493524E+04  0.15264491952E+04  0.16500000000E+03 0.  0.
<mgrwt>
<rscale>  0 0.44163339E+03</rscale>
<asrwt>0</asrwt>
<pdfrwt beam="1">  1        2 0.44115804E+00 0.44163339E+03</pdfrwt>
<pdfrwt beam="2">  1       -2 0.26160310E-02 0.44163339E+03</pdfrwt>
<totfact> 0.12660992E+03</totfact>
</mgrwt>
</event>
<event>
 4    1  0.9050888E-005  0.5810688E+03  0.7818608E-02  0.9945480E-01
         -2   -1    0    0    0  501 -0.00000000000E+00  0.00000000000E+00  0.10048285299E+03  0.10048285303E+03  0.25500000000E-02 0. -1.
          2   -1    0    0  501    0  0.00000000000E+00 -0.00000000000E+00 -0.84004622597E+03  0.84004622598E+03  0.25500000000E-02 0.  1.
    5000001    1    1    2    0    0 -0.91479650105E+02 -0.21840107289E+03 -0.31566830801E+03  0.42771373102E+03  0.16500000000E+03 0.  0.
   -5000001    1    1    2    0    0  0.91479650105E+02  0.21840107289E+03 -0.42389506497E+03  0.51281534798E+03  0.16500000000E+03 0.  0.
<mgrwt>
<rscale>  0 0.58106881E+03</rscale>
<asrwt>0</asrwt>
<pdfrwt beam="1">  1        2 0.12923788E+00 0.58106881E+03</pdfrwt>
<pdfrwt beam="2">  1       -2 0.15458901E-01 0.58106881E+03</pdfrwt>
<totfact> 0.10796440E+03</totfact>
</mgrwt>
</event>
<event>
 4    1  0.9050888E-005  0.5908545E+03  0.7818608E-02  0.9924564E-01
          2   -1    0    0  501    0  0.00000000000E+00  0.00000000000E+00  0.13901692475E+04  0.13901692475E+04  0.25500000000E-02 0.  1.
         -2   -1    0    0    0  501 -0.00000000000E+00 -0.00000000000E+00 -0.62781758451E+02  0.62781758503E+02  0.25500000000E-02 0. -1.
    5000001    1    1    2    0    0  0.15473741855E+03  0.74027284736E+02  0.10940555333E+04  0.11196455768E+04  0.16500000000E+03 0.  0.
   -5000001    1    1    2    0    0 -0.15473741855E+03 -0.74027284736E+02  0.23333195567E+03  0.33330542918E+03  0.16500000000E+03 0.  0.
<mgrwt>
<rscale>  0 0.59085453E+03</rscale>
<asrwt>0</asrwt>
<pdfrwt beam="1">  1        2 0.21387220E+00 0.59085453E+03</pdfrwt>
<pdfrwt beam="2">  1       -2 0.96587316E-02 0.59085453E+03</pdfrwt>
<totfact> 0.10818898E+03</totfact>
</mgrwt>
</event>
<event>
 4    1  0.9050888E-005  0.8373448E+03  0.7818608E-02  0.9507482E-01
         -2   -1    0    0    0  501 -0.00000000000E+00  0.00000000000E+00  0.24363159273E+03  0.24363159274E+03  0.25500000000E-02 0. -1.
          2   -1    0    0  501    0  0.00000000000E+00 -0.00000000000E+00 -0.71947385056E+03  0.71947385056E+03  0.25500000000E-02 0.  1.
    5000001    1    1    2    0    0  0.12411250640E+03 -0.36389437703E+03 -0.25568507557E+03  0.49032936864E+03  0.16500000000E+03 0.  0.
   -5000001    1    1    2    0    0 -0.12411250640E+03  0.36389437703E+03 -0.22015718225E+03  0.47277607467E+03  0.16500000000E+03 0.  0.
<mgrwt>
<rscale>  0 0.83734476E+03</rscale>
<asrwt>0</asrwt>
<pdfrwt beam="1">  1        2 0.11068828E+00 0.83734476E+03</pdfrwt>
<pdfrwt beam="2">  1       -2 0.37481784E-01 0.83734476E+03</pdfrwt>
<totfact> 0.26677378E+02</totfact>
</mgrwt>
</event>
<event>
 4    1  0.9050888E-005  0.3611433E+03  0.7818608E-02  0.1058132E+00
          2   -1    0    0  501    0  0.00000000000E+00  0.00000000000E+00  0.11086541879E+03  0.11086541882E+03  0.25500000000E-02 0.  1.
         -2   -1    0    0    0  501 -0.00000000000E+00 -0.00000000000E+00 -0.29410534659E+03  0.29410534660E+03  0.25500000000E-02 0. -1.
    5000001    1    1    2    0    0 -0.46899037786E+02  0.51854426662E+02 -0.11651084940E+03  0.21374793411E+03  0.16500000000E+03 0.  0.
   -5000001    1    1    2    0    0  0.46899037786E+02 -0.51854426662E+02 -0.66729078401E+02  0.19122283131E+03  0.16500000000E+03 0.  0.
<mgrwt>
<rscale>  0 0.36114325E+03</rscale>
<asrwt>0</asrwt>
<pdfrwt beam="1">  1        2 0.17056218E-01 0.36114325E+03</pdfrwt>
<pdfrwt beam="2">  1       -2 0.45246976E-01 0.36114325E+03</pdfrwt>
<totfact> 0.15764419E+03</totfact>
</mgrwt>
</event>
<event>
 4    1  0.9050888E-005  0.4840095E+03  0.7818608E-02  0.1018039E+00
         -2   -1    0    0    0  501 -0.00000000000E+00  0.00000000000E+00  0.14550822549E+03  0.14550822552E+03  0.25500000000E-02 0.  1.
          2   -1    0    0  501    0  0.00000000000E+00 -0.00000000000E+00 -0.40249473632E+03  0.40249473633E+03  0.25500000000E-02 0. -1.
    5000001    1    1    2    0    0 -0.15979301852E+03 -0.66919272792E+02 -0.87213220929E+02  0.25464316944E+03  0.16500000000E+03 0.  0.
   -5000001    1    1    2    0    0  0.15979301852E+03  0.66919272792E+02 -0.16977328990E+03  0.29335979241E+03  0.16500000000E+03 0.  0.
<mgrwt>
<rscale>  0 0.48400948E+03</rscale>
<asrwt>0</asrwt>
<pdfrwt beam="1">  1        2 0.61922267E-01 0.48400948E+03</pdfrwt>
<pdfrwt beam="2">  1       -2 0.22385881E-01 0.48400948E+03</pdfrwt>
<totfact> 0.13781297E+03</totfact>
</mgrwt>
</event>
<event>
 4    1  0.9050888E-005  0.5091885E+03  0.7818608E-02  0.1011408E+00
          2   -1    0    0  501    0  0.00000000000E+00  0.00000000000E+00  0.43965027846E+03  0.43965027847E+03  0.25500000000E-02 0.  1.
         -2   -1    0    0    0  501 -0.00000000000E+00 -0.00000000000E+00 -0.14743134171E+03  0.14743134173E+03  0.25500000000E-02 0. -1.
    5000001    1    1    2    0    0  0.28032887372E+02 -0.17977772343E+03  0.22334466462E+03  0.33198450540E+03  0.16500000000E+03 0.  0.
   -5000001    1    1    2    0    0 -0.28032887372E+02  0.17977772343E+03  0.68874272131E+02  0.25509711480E+03  0.16500000000E+03 0.  0.
<mgrwt>
<rscale>  0 0.50918849E+03</rscale>
<asrwt>0</asrwt>
<pdfrwt beam="1">  1        2 0.67638504E-01 0.50918849E+03</pdfrwt>
<pdfrwt beam="2">  1       -2 0.22681745E-01 0.50918849E+03</pdfrwt>
<totfact> 0.12201259E+03</totfact>
</mgrwt>
</event>
<event>
 4    1  0.9050888E-005  0.4155030E+03  0.7818608E-02  0.1038540E+00
          2   -1    0    0  501    0  0.00000000000E+00  0.00000000000E+00  0.16077737288E+04  0.16077737288E+04  0.25500000000E-02 0.  1.
         -2   -1    0    0    0  501 -0.00000000000E+00 -0.00000000000E+00 -0.26845001365E+02  0.26845001486E+02  0.25500000000E-02 0. -1.
    5000001    1    1    2    0    0  0.10806460898E+03  0.56025042194E+02  0.65886845370E+03  0.69003579932E+03  0.16500000000E+03 0.  0.
   -5000001    1    1    2    0    0 -0.10806460898E+03 -0.56025042194E+02  0.92206027373E+03  0.94458293096E+03  0.16500000000E+03 0.  0.
<mgrwt>
<rscale>  0 0.41550301E+03</rscale>
<asrwt>0</asrwt>
<pdfrwt beam="1">  1        2 0.24734988E+00 0.41550301E+03</pdfrwt>
<pdfrwt beam="2">  1       -2 0.41299989E-02 0.41550301E+03</pdfrwt>
<totfact> 0.31263206E+03</totfact>
</mgrwt>
</event>
<event>
 4    1  0.9050888E-005  0.4634115E+03  0.7818608E-02  0.1023796E+00
         -2   -1    0    0    0  501 -0.00000000000E+00  0.00000000000E+00  0.14555031423E+03  0.14555031426E+03  0.25500000000E-02 0. -1.
          2   -1    0    0  501    0  0.00000000000E+00 -0.00000000000E+00 -0.36885906658E+03  0.36885906659E+03  0.25500000000E-02 0.  1.
    5000001    1    1    2    0    0  0.15642725866E+03  0.18818328706E+02 -0.66715405813E+02  0.23769636539E+03  0.16500000000E+03 0.  0.
   -5000001    1    1    2    0    0 -0.15642725866E+03 -0.18818328706E+02 -0.15659334654E+03  0.27671301546E+03  0.16500000000E+03 0.  0.
<mgrwt>
<rscale>  0 0.46341149E+03</rscale>
<asrwt>0</asrwt>
<pdfrwt beam="1">  1        2 0.56747549E-01 0.46341149E+03</pdfrwt>
<pdfrwt beam="2">  1       -2 0.22392356E-01 0.46341149E+03</pdfrwt>
<totfact> 0.15167943E+03</totfact>
</mgrwt>
</event>
<event>
 4    1  0.9050888E-005  0.4509749E+03  0.7818608E-02  0.1027432E+00
          2   -1    0    0  501    0  0.00000000000E+00  0.00000000000E+00  0.54719585333E+03  0.54719585333E+03  0.25500000000E-02 0.  1.
         -2   -1    0    0    0  501 -0.00000000000E+00 -0.00000000000E+00 -0.92918455983E+02  0.92918456018E+02  0.25500000000E-02 0. -1.
    5000001    1    1    2    0    0  0.82255893904E+02  0.12347679445E+03  0.28403956705E+03  0.36043865844E+03  0.16500000000E+03 0.  0.
   -5000001    1    1    2    0    0 -0.82255893904E+02 -0.12347679445E+03  0.17023783029E+03  0.27967565091E+03  0.16500000000E+03 0.  0.
<mgrwt>
<rscale>  0 0.45097492E+03</rscale>
<asrwt>0</asrwt>
<pdfrwt beam="1">  1        2 0.84183979E-01 0.45097492E+03</pdfrwt>
<pdfrwt beam="2">  1       -2 0.14295147E-01 0.45097492E+03</pdfrwt>
<totfact> 0.20947606E+03</totfact>
</mgrwt>
</event>
<event>
 4    1  0.9050888E-005  0.5882865E+03  0.7818608E-02  0.9930010E-01
         -2   -1    0    0    0  501 -0.00000000000E+00  0.00000000000E+00  0.41187957912E+02  0.41187957991E+02  0.25500000000E-02 0. -1.
          2   -1    0    0  501    0  0.00000000000E+00 -0.00000000000E+00 -0.21006200197E+04  0.21006200197E+04  0.25500000000E-02 0.  1.
    5000001    1    1    2    0    0  0.19777624494E+03 -0.79971297613E+02 -0.14571662564E+04  0.14819140833E+04  0.16500000000E+03 0.  0.
   -5000001    1    1    2    0    0 -0.19777624494E+03  0.79971297613E+02 -0.60226580535E+03  0.65989389435E+03  0.16500000000E+03 0.  0.
<mgrwt>
<rscale>  0 0.58828649E+03</rscale>
<asrwt>0</asrwt>
<pdfrwt beam="1">  1        2 0.32317223E+00 0.58828649E+03</pdfrwt>
<pdfrwt beam="2">  1       -2 0.63366106E-02 0.58828649E+03</pdfrwt>
<totfact> 0.86762262E+02</totfact>
</mgrwt>
</event>
<event>
 4    1  0.9050888E-005  0.8104610E+03  0.7818608E-02  0.9544997E-01
          2   -1    0    0  501    0  0.00000000000E+00  0.00000000000E+00  0.21162269401E+04  0.21162269401E+04  0.25500000000E-02 0.  1.
         -2   -1    0    0    0  501 -0.00000000000E+00 -0.00000000000E+00 -0.77596478343E+02  0.77596478385E+02  0.25500000000E-02 0. -1.
    5000001    1    1    2    0    0 -0.16465582046E+03  0.32548940439E+03  0.84958120073E+03  0.93918481047E+03  0.16500000000E+03 0.  0.
   -5000001    1    1    2    0    0  0.16465582046E+03 -0.32548940439E+03  0.11890492610E+04  0.12546386080E+04  0.16500000000E+03 0.  0.
<mgrwt>
<rscale>  0 0.81046100E+03</rscale>
<asrwt>0</asrwt>
<pdfrwt beam="1">  1        2 0.32557335E+00 0.81046100E+03</pdfrwt>
<pdfrwt beam="2">  1       -2 0.11937921E-01 0.81046100E+03</pdfrwt>
<totfact> 0.30178537E+02</totfact>
</mgrwt>
</event>
<event>
 4    1  0.9050888E-005  0.4527384E+03  0.7818608E-02  0.1026909E+00
         -2   -1    0    0    0  501 -0.00000000000E+00  0.00000000000E+00  0.61652562850E+03  0.61652562850E+03  0.25500000000E-02 0. -1.
          2   -1    0    0  501    0  0.00000000000E+00 -0.00000000000E+00 -0.83115805685E+02  0.83115805724E+02  0.25500000000E-02 0.  1.
    5000001    1    1    2    0    0 -0.14797215484E+03 -0.41641094433E+02  0.29715604441E+03  0.37303679990E+03  0.16500000000E+03 0.  0.
   -5000001    1    1    2    0    0  0.14797215484E+03  0.41641094433E+02  0.23625377840E+03  0.32660463432E+03  0.16500000000E+03 0.  0.
<mgrwt>
<rscale>  0 0.45273844E+03</rscale>
<asrwt>0</asrwt>
<pdfrwt beam="1">  1        2 0.12787048E-01 0.45273844E+03</pdfrwt>
<pdfrwt beam="2">  1       -2 0.94850092E-01 0.45273844E+03</pdfrwt>
<totfact> 0.46057642E+02</totfact>
</mgrwt>
</event>
<event>
 4    1  0.9050888E-005  0.3828753E+03  0.7818608E-02  0.1049876E+00
          2   -1    0    0  501    0  0.00000000000E+00  0.00000000000E+00  0.24311311101E+04  0.24311311101E+04  0.25500000000E-02 0.  1.
         -2   -1    0    0    0  501 -0.00000000000E+00 -0.00000000000E+00 -0.15074621257E+02  0.15074621473E+02  0.25500000000E-02 0. -1.
    5000001    1    1    2    0    0 -0.73115114151E+02 -0.50361361625E+02  0.14588576074E+04  0.14708407818E+04  0.16500000000E+03 0.  0.
   -5000001    1    1    2    0    0  0.73115114151E+02  0.50361361625E+02  0.95719888145E+03  0.97536494981E+03  0.16500000000E+03 0.  0.
<mgrwt>
<rscale>  0 0.38287534E+03</rscale>
<asrwt>0</asrwt>
<pdfrwt beam="1">  1        2 0.37402000E+00 0.38287534E+03</pdfrwt>
<pdfrwt beam="2">  1       -2 0.23191736E-02 0.38287534E+03</pdfrwt>
<totfact> 0.26959829E+03</totfact>
</mgrwt>
</event>
<event>
 4    1  0.9050888E-005  0.4965974E+03  0.7818608E-02  0.1014671E+00
         -2   -1    0    0    0  501 -0.00000000000E+00  0.00000000000E+00  0.81346224033E+02  0.81346224073E+02  0.25500000000E-02 0. -1.
          2   -1    0    0  501    0  0.00000000000E+00 -0.00000000000E+00 -0.75789917098E+03  0.75789917098E+03  0.25500000000E-02 0.  1.
    5000001    1    1    2    0    0  0.11665727253E+03  0.14421556499E+03 -0.33068328306E+03  0.41350148985E+03  0.16500000000E+03 0.  0.
   -5000001    1    1    2    0    0 -0.11665727253E+03 -0.14421556499E+03 -0.34586966389E+03  0.42574390520E+03  0.16500000000E+03 0.  0.
<mgrwt>
<rscale>  0 0.49659737E+03</rscale>
<asrwt>0</asrwt>
<pdfrwt beam="1">  1        2 0.11659987E+00 0.49659737E+03</pdfrwt>
<pdfrwt beam="2">  1       -2 0.12514804E-01 0.49659737E+03</pdfrwt>
<totfact> 0.17587489E+03</totfact>
</mgrwt>
</event>
<event>
 4    1  0.9050888E-005  0.7703618E+03  0.7818608E-02  0.9603937E-01
          2   -1    0    0  501    0  0.00000000000E+00  0.00000000000E+00  0.19322485660E+03  0.19322485662E+03  0.25500000000E-02 0.  1.
         -2   -1    0    0    0  501 -0.00000000000E+00 -0.00000000000E+00 -0.76783253037E+03  0.76783253037E+03  0.25500000000E-02 0. -1.
    5000001    1    1    2    0    0 -0.29217858687E+03 -0.89401699987E+02 -0.79378353672E+02  0.35621189427E+03  0.16500000000E+03 0.  0.
   -5000001    1    1    2    0    0  0.29217858687E+03  0.89401699987E+02 -0.49522932009E+03  0.60484549272E+03  0.16500000000E+03 0.  0.
<mgrwt>
<rscale>  0 0.77036181E+03</rscale>
<asrwt>0</asrwt>
<pdfrwt beam="1">  1        2 0.29726901E-01 0.77036181E+03</pdfrwt>
<pdfrwt beam="2">  1       -2 0.11812808E+00 0.77036181E+03</pdfrwt>
<totfact> 0.10011895E+02</totfact>
</mgrwt>
</event>
<event>
 4    1  0.9050888E-005  0.6085474E+03  0.7818608E-02  0.9887830E-01
         -2   -1    0    0    0  501 -0.00000000000E+00  0.00000000000E+00  0.18811133856E+03  0.18811133858E+03  0.25500000000E-02 0. -1.
          2   -1    0    0  501    0  0.00000000000E+00 -0.00000000000E+00 -0.49216848072E+03  0.49216848073E+03  0.25500000000E-02 0.  1.
    5000001    1    1    2    0    0 -0.23245351408E+03  0.62742171828E+02 -0.55954683134E+02  0.29719882721E+03  0.16500000000E+03 0.  0.
   -5000001    1    1    2    0    0  0.23245351408E+03 -0.62742171828E+02 -0.24810245903E+03  0.38308099210E+03  0.16500000000E+03 0.  0.
<mgrwt>
<rscale>  0 0.60854736E+03</rscale>
<asrwt>0</asrwt>
<pdfrwt beam="1">  1        2 0.75718227E-01 0.60854736E+03</pdfrwt>
<pdfrwt beam="2">  1       -2 0.28940206E-01 0.60854736E+03</pdfrwt>
<totfact> 0.69131976E+02</totfact>
</mgrwt>
</event>
<event>
 4    1  0.9050888E-005  0.4254979E+03  0.7818608E-02  0.1035292E+00
         -2   -1    0    0    0  501 -0.00000000000E+00  0.00000000000E+00  0.14022742544E+02  0.14022742776E+02  0.25500000000E-02 0. -1.
          2   -1    0    0  501    0  0.00000000000E+00 -0.00000000000E+00 -0.32277643952E+04  0.32277643952E+04  0.25500000000E-02 0.  1.
    5000001    1    1    2    0    0  0.91536757653E+01 -0.46482831243E+01 -0.26271006045E+04  0.26322970924E+04  0.16500000000E+03 0.  0.
   -5000001    1    1    2    0    0 -0.91536757653E+01  0.46482831243E+01 -0.58664104815E+03  0.60949004560E+03  0.16500000000E+03 0.  0.
<mgrwt>
<rscale>  0 0.42549787E+03</rscale>
<asrwt>0</asrwt>
<pdfrwt beam="1">  1        2 0.49657855E+00 0.42549787E+03</pdfrwt>
<pdfrwt beam="2">  1       -2 0.21573476E-02 0.42549787E+03</pdfrwt>
<totfact> 0.10225795E+03</totfact>
</mgrwt>
</event>
<event>
 4    1  0.9050888E-005  0.7213692E+03  0.7818608E-02  0.9681370E-01
          2   -1    0    0  501    0  0.00000000000E+00  0.00000000000E+00  0.18721418695E+04  0.18721418695E+04  0.25500000000E-02 0.  1.
         -2   -1    0    0    0  501 -0.00000000000E+00 -0.00000000000E+00 -0.69489060299E+02  0.69489060346E+02  0.25500000000E-02 0. -1.
    5000001    1    1    2    0    0 -0.74561952423E+01 -0.28751230642E+03  0.51925830880E+03  0.61609505147E+03  0.16500000000E+03 0.  0.
   -5000001    1    1    2    0    0  0.74561952423E+01  0.28751230642E+03  0.12833945004E+04  0.13255358783E+04  0.16500000000E+03 0.  0.
<mgrwt>
<rscale>  0 0.72136920E+03</rscale>
<asrwt>0</asrwt>
<pdfrwt beam="1">  1        2 0.28802186E+00 0.72136920E+03</pdfrwt>
<pdfrwt beam="2">  1       -2 0.10690623E-01 0.72136920E+03</pdfrwt>
<totfact> 0.49513390E+02</totfact>
</mgrwt>
</event>
<event>
 4    1  0.9050888E-005  0.6224929E+03  0.7818608E-02  0.9859809E-01
         -2   -1    0    0    0  501 -0.00000000000E+00  0.00000000000E+00  0.64008070355E+02  0.64008070406E+02  0.25500000000E-02 0. -1.
          2   -1    0    0  501    0  0.00000000000E+00 -0.00000000000E+00 -0.15134711445E+04  0.15134711445E+04  0.25500000000E-02 0.  1.
    5000001    1    1    2    0    0 -0.20269239672E+03 -0.15041145990E+03 -0.92006613926E+03  0.96822234820E+03  0.16500000000E+03 0.  0.
   -5000001    1    1    2    0    0  0.20269239672E+03  0.15041145990E+03 -0.52939693490E+03  0.60925686672E+03  0.16500000000E+03 0.  0.
<mgrwt>
<rscale>  0 0.62249295E+03</rscale>
<asrwt>0</asrwt>
<pdfrwt beam="1">  1        2 0.23284169E+00 0.62249295E+03</pdfrwt>
<pdfrwt beam="2">  1       -2 0.98473966E-02 0.62249295E+03</pdfrwt>
<totfact> 0.89400165E+02</totfact>
</mgrwt>
</event>
<event>
 4    1  0.9050888E-005  0.4338724E+03  0.7818608E-02  0.1032644E+00
         -2   -1    0    0    0  501 -0.00000000000E+00  0.00000000000E+00  0.49975297638E+02  0.49975297703E+02  0.25500000000E-02 0. -1.
          2   -1    0    0  501    0  0.00000000000E+00 -0.00000000000E+00 -0.94169152678E+03  0.94169152678E+03  0.25500000000E-02 0.  1.
    5000001    1    1    2    0    0  0.48514855329E+02  0.13210651336E+03 -0.45847926407E+03  0.50718246977E+03  0.16500000000E+03 0.  0.
   -5000001    1    1    2    0    0 -0.48514855329E+02 -0.13210651336E+03 -0.43323696507E+03  0.48448435471E+03  0.16500000000E+03 0.  0.
<mgrwt>
<rscale>  0 0.43387240E+03</rscale>
<asrwt>0</asrwt>
<pdfrwt beam="1">  1        2 0.14487561E+00 0.43387240E+03</pdfrwt>
<pdfrwt beam="2">  1       -2 0.76885080E-02 0.43387240E+03</pdfrwt>
<totfact> 0.28845726E+03</totfact>
</mgrwt>
</event>
<event>
 4    1  0.9050888E-005  0.4407719E+03  0.7818608E-02  0.1030510E+00
          2   -1    0    0  501    0  0.00000000000E+00  0.00000000000E+00  0.78968994805E+02  0.78968994846E+02  0.25500000000E-02 0.  1.
         -2   -1    0    0    0  501 -0.00000000000E+00 -0.00000000000E+00 -0.61505104153E+03  0.61505104154E+03  0.25500000000E-02 0. -1.
    5000001    1    1    2    0    0 -0.85726752954E+02 -0.11688681941E+03 -0.29678940728E+03  0.36921613859E+03  0.16500000000E+03 0.  0.
   -5000001    1    1    2    0    0  0.85726752954E+02  0.11688681941E+03 -0.23929263945E+03  0.32480389779E+03  0.16500000000E+03 0.  0.
<mgrwt>
<rscale>  0 0.44077188E+03</rscale>
<asrwt>0</asrwt>
<pdfrwt beam="1">  1        2 0.12149076E-01 0.44077188E+03</pdfrwt>
<pdfrwt beam="2">  1       -2 0.94623234E-01 0.44077188E+03</pdfrwt>
<totfact> 0.49325666E+02</totfact>
</mgrwt>
</event>
<event>
 4    1  0.9050888E-005  0.4870543E+03  0.7818608E-02  0.1017214E+00
          2   -1    0    0  501    0  0.00000000000E+00  0.00000000000E+00  0.19955885714E+04  0.19955885714E+04  0.25500000000E-02 0. -1.
         -2   -1    0    0    0  501 -0.00000000000E+00 -0.00000000000E+00 -0.29718290460E+02  0.29718290569E+02  0.25500000000E-02 0.  1.
    5000001    1    1    2    0    0 -0.11803674804E+03  0.12722597399E+03  0.11670937051E+04  0.11914075032E+04  0.16500000000E+03 0.  0.
   -5000001    1    1    2    0    0  0.11803674804E+03 -0.12722597399E+03  0.79877657589E+03  0.83389935876E+03  0.16500000000E+03 0.  0.
<mgrwt>
<rscale>  0 0.48705433E+03</rscale>
<asrwt>0</asrwt>
<pdfrwt beam="1">  1        2 0.30701361E+00 0.48705433E+03</pdfrwt>
<pdfrwt beam="2">  1       -2 0.45720449E-02 0.48705433E+03</pdfrwt>
<totfact> 0.16525616E+03</totfact>
</mgrwt>
</event>
<event>
 4    1  0.9050888E-005  0.4261277E+03  0.7818608E-02  0.1035090E+00
         -2   -1    0    0    0  501 -0.00000000000E+00  0.00000000000E+00  0.21368783741E+03  0.21368783743E+03  0.25500000000E-02 0. -1.
          2   -1    0    0  501    0  0.00000000000E+00 -0.00000000000E+00 -0.21244164203E+03  0.21244164205E+03  0.25500000000E-02 0.  1.
    5000001    1    1    2    0    0  0.58682604693E+02 -0.11708079917E+03  0.32554933852E+02  0.21315812287E+03  0.16500000000E+03 0.  0.
   -5000001    1    1    2    0    0 -0.58682604693E+02  0.11708079917E+03 -0.31308738472E+02  0.21297135660E+03  0.16500000000E+03 0.  0.
<mgrwt>
<rscale>  0 0.42612766E+03</rscale>
<asrwt>0</asrwt>
<pdfrwt beam="1">  1        2 0.32683330E-01 0.42612766E+03</pdfrwt>
<pdfrwt beam="2">  1       -2 0.32875052E-01 0.42612766E+03</pdfrwt>
<totfact> 0.13876563E+03</totfact>
</mgrwt>
</event>
<event>
 4    1  0.9050888E-005  0.6979681E+03  0.7818608E-02  0.9720713E-01
         -2   -1    0    0    0  501 -0.00000000000E+00  0.00000000000E+00  0.10944783054E+03  0.10944783057E+03  0.25500000000E-02 0. -1.
          2   -1    0    0  501    0  0.00000000000E+00 -0.00000000000E+00 -0.11127663945E+04  0.11127663945E+04  0.25500000000E-02 0.  1.
    5000001    1    1    2    0    0 -0.25509521489E+03 -0.45885901428E+02 -0.79144324113E+03  0.84899145375E+03  0.16500000000E+03 0.  0.
   -5000001    1    1    2    0    0  0.25509521489E+03  0.45885901428E+02 -0.21187532283E+03  0.37322277133E+03  0.16500000000E+03 0.  0.
<mgrwt>
<rscale>  0 0.69796810E+03</rscale>
<asrwt>0</asrwt>
<pdfrwt beam="1">  1        2 0.17119482E+00 0.69796810E+03</pdfrwt>
<pdfrwt beam="2">  1       -2 0.16838129E-01 0.69796810E+03</pdfrwt>
<totfact> 0.62060231E+02</totfact>
</mgrwt>
</event>
<event>
 4    1  0.9050888E-005  0.7567517E+03  0.7818608E-02  0.9624817E-01
         -2   -1    0    0    0  501 -0.00000000000E+00  0.00000000000E+00  0.33367598619E+03  0.33367598620E+03  0.25500000000E-02 0. -1.
          2   -1    0    0  501    0  0.00000000000E+00 -0.00000000000E+00 -0.42906380924E+03  0.42906380925E+03  0.25500000000E-02 0.  1.
    5000001    1    1    2    0    0  0.33830398727E+03  0.37100813335E+02 -0.36780884634E+02  0.38000512053E+03  0.16500000000E+03 0.  0.
   -5000001    1    1    2    0    0 -0.33830398727E+03 -0.37100813335E+02 -0.58606938413E+02  0.38273467492E+03  0.16500000000E+03 0.  0.
<mgrwt>
<rscale>  0 0.75675172E+03</rscale>
<asrwt>0</asrwt>
<pdfrwt beam="1">  1        2 0.66009817E-01 0.75675172E+03</pdfrwt>
<pdfrwt beam="2">  1       -2 0.51334767E-01 0.75675172E+03</pdfrwt>
<totfact> 0.26550325E+02</totfact>
</mgrwt>
</event>
<event>
 4    1  0.9050888E-005  0.4290946E+03  0.7818608E-02  0.1034146E+00
         -2   -1    0    0    0  501 -0.00000000000E+00  0.00000000000E+00  0.31948205768E+03  0.31948205769E+03  0.25500000000E-02 0. -1.
          2   -1    0    0  501    0  0.00000000000E+00 -0.00000000000E+00 -0.14407865494E+03  0.14407865496E+03  0.25500000000E-02 0.  1.
    5000001    1    1    2    0    0  0.30060619773E+01  0.13347450153E+03  0.12153954826E+03  0.24458401575E+03  0.16500000000E+03 0.  0.
   -5000001    1    1    2    0    0 -0.30060619773E+01 -0.13347450153E+03  0.53863854474E+02  0.21897669690E+03  0.16500000000E+03 0.  0.
<mgrwt>
<rscale>  0 0.42909461E+03</rscale>
<asrwt>0</asrwt>
<pdfrwt beam="1">  1        2 0.22165947E-01 0.42909461E+03</pdfrwt>
<pdfrwt beam="2">  1       -2 0.49151086E-01 0.42909461E+03</pdfrwt>
<totfact> 0.98780408E+02</totfact>
</mgrwt>
</event>
<event>
 4    1  0.9050888E-005  0.4823852E+03  0.7818608E-02  0.1018482E+00
          2   -1    0    0  501    0  0.00000000000E+00  0.00000000000E+00  0.21838420012E+04  0.21838420012E+04  0.25500000000E-02 0.  1.
         -2   -1    0    0    0  501 -0.00000000000E+00 -0.00000000000E+00 -0.26638309111E+02  0.26638309233E+02  0.25500000000E-02 0. -1.
    5000001    1    1    2    0    0  0.54665014844E+02 -0.14541775920E+03  0.70033142302E+03  0.73608674122E+03  0.16500000000E+03 0.  0.
   -5000001    1    1    2    0    0 -0.54665014844E+02  0.14541775920E+03  0.14568722690E+04  0.14743935692E+04  0.16500000000E+03 0.  0.
<mgrwt>
<rscale>  0 0.48238515E+03</rscale>
<asrwt>0</asrwt>
<pdfrwt beam="1">  1        2 0.33597572E+00 0.48238515E+03</pdfrwt>
<pdfrwt beam="2">  1       -2 0.40982011E-02 0.48238515E+03</pdfrwt>
<totfact> 0.15472046E+03</totfact>
</mgrwt>
</event>
<event>
 4    1  0.9050888E-005  0.4841910E+03  0.7818608E-02  0.1017990E+00
          2   -1    0    0  501    0  0.00000000000E+00  0.00000000000E+00  0.32644103370E+03  0.32644103371E+03  0.25500000000E-02 0. -1.
         -2   -1    0    0    0  501 -0.00000000000E+00 -0.00000000000E+00 -0.17954307367E+03  0.17954307369E+03  0.25500000000E-02 0.  1.
    5000001    1    1    2    0    0  0.14882537769E+03  0.44455898244E+02  0.16248909212E+03  0.27884229413E+03  0.16500000000E+03 0.  0.
   -5000001    1    1    2    0    0 -0.14882537769E+03 -0.44455898244E+02 -0.15591132092E+02  0.22714181327E+03  0.16500000000E+03 0.  0.
<mgrwt>
<rscale>  0 0.48419098E+03</rscale>
<asrwt>0</asrwt>
<pdfrwt beam="1">  1        2 0.50221697E-01 0.48419098E+03</pdfrwt>
<pdfrwt beam="2">  1       -2 0.27622012E-01 0.48419098E+03</pdfrwt>
<totfact> 0.11928235E+03</totfact>
</mgrwt>
</event>
<event>
 4    1  0.9050888E-005  0.8767389E+03  0.7818608E-02  0.9455135E-01
          2   -1    0    0  501    0  0.00000000000E+00  0.00000000000E+00  0.16121665467E+04  0.16121665467E+04  0.25500000000E-02 0.  1.
         -2   -1    0    0    0  501 -0.00000000000E+00 -0.00000000000E+00 -0.11919847184E+03  0.11919847187E+03  0.25500000000E-02 0. -1.
    5000001    1    1    2    0    0  0.39393769537E+03 -0.73445268230E+02  0.87690425557E+03  0.97814476878E+03  0.16500000000E+03 0.  0.
   -5000001    1    1    2    0    0 -0.39393769537E+03  0.73445268230E+02  0.61606381931E+03  0.75322024981E+03  0.16500000000E+03 0.  0.
<mgrwt>
<rscale>  0 0.87673893E+03</rscale>
<asrwt>0</asrwt>
<pdfrwt beam="1">  1        2 0.24802561E+00 0.87673893E+03</pdfrwt>
<pdfrwt beam="2">  1       -2 0.18338227E-01 0.87673893E+03</pdfrwt>
<totfact> 0.27446374E+02</totfact>
</mgrwt>
</event>
<event>
 4    1  0.9050888E-005  0.6237519E+03  0.7818608E-02  0.9857318E-01
         -2   -1    0    0    0  501 -0.00000000000E+00  0.00000000000E+00  0.38934249390E+03  0.38934249391E+03  0.25500000000E-02 0.  1.
          2   -1    0    0  501    0  0.00000000000E+00 -0.00000000000E+00 -0.24982275117E+03  0.24982275118E+03  0.25500000000E-02 0. -1.
    5000001    1    1    2    0    0  0.10647500051E+03  0.18804280531E+03 -0.86805023581E+02  0.28540696292E+03  0.16500000000E+03 0.  0.
   -5000001    1    1    2    0    0 -0.10647500051E+03 -0.18804280531E+03  0.22632476631E+03  0.35375828218E+03  0.16500000000E+03 0.  0.
<mgrwt>
<rscale>  0 0.62375192E+03</rscale>
<asrwt>0</asrwt>
<pdfrwt beam="1">  1        2 0.38434270E-01 0.62375192E+03</pdfrwt>
<pdfrwt beam="2">  1       -2 0.59898845E-01 0.62375192E+03</pdfrwt>
<totfact> 0.35352459E+02</totfact>
</mgrwt>
</event>
<event>
 4    1  0.9050888E-005  0.5618186E+03  0.7818608E-02  0.9987948E-01
          2   -1    0    0  501    0  0.00000000000E+00  0.00000000000E+00  0.20397903232E+04  0.20397903232E+04  0.25500000000E-02 0.  1.
         -2   -1    0    0    0  501 -0.00000000000E+00 -0.00000000000E+00 -0.38685363521E+02  0.38685363605E+02  0.25500000000E-02 0. -1.
    5000001    1    1    2    0    0  0.57408065201E+02 -0.21918211582E+03  0.10696206430E+04  0.11057349618E+04  0.16500000000E+03 0.  0.
   -5000001    1    1    2    0    0 -0.57408065201E+02  0.21918211582E+03  0.93148431673E+03  0.97274072504E+03  0.16500000000E+03 0.  0.
<mgrwt>
<rscale>  0 0.56181858E+03</rscale>
<asrwt>0</asrwt>
<pdfrwt beam="1">  1        2 0.31381392E+00 0.56181858E+03</pdfrwt>
<pdfrwt beam="2">  1       -2 0.59515939E-02 0.56181858E+03</pdfrwt>
<totfact> 0.10346208E+03</totfact>
</mgrwt>
</event>
<event>
 4    1  0.9050888E-005  0.4769348E+03  0.7818608E-02  0.1019981E+00
          2   -1    0    0  501    0  0.00000000000E+00  0.00000000000E+00  0.69108585368E+03  0.69108585368E+03  0.25500000000E-02 0.  1.
         -2   -1    0    0    0  501 -0.00000000000E+00 -0.00000000000E+00 -0.82286003988E+02  0.82286004027E+02  0.25500000000E-02 0. -1.
    5000001    1    1    2    0    0  0.11676664981E+02  0.11733375071E+03  0.10097410271E+03  0.22654872098E+03  0.16500000000E+03 0.  0.
   -5000001    1    1    2    0    0 -0.11676664981E+02 -0.11733375071E+03  0.50782574698E+03  0.54682313672E+03  0.16500000000E+03 0.  0.
<mgrwt>
<rscale>  0 0.47693477E+03</rscale>
<asrwt>0</asrwt>
<pdfrwt beam="1">  1        2 0.10632090E+00 0.47693477E+03</pdfrwt>
<pdfrwt beam="2">  1       -2 0.12659385E-01 0.47693477E+03</pdfrwt>
<totfact> 0.19380611E+03</totfact>
</mgrwt>
</event>
<event>
 4    1  0.9050888E-005  0.4069138E+03  0.7818608E-02  0.1041412E+00
         -2   -1    0    0    0  501 -0.00000000000E+00  0.00000000000E+00  0.30206675260E+02  0.30206675368E+02  0.25500000000E-02 0. -1.
          2   -1    0    0  501    0  0.00000000000E+00 -0.00000000000E+00 -0.13703830436E+04  0.13703830436E+04  0.25500000000E-02 0.  1.
    5000001    1    1    2    0    0 -0.11024016149E+03 -0.20179889495E+01 -0.51566822879E+03  0.55253568905E+03  0.16500000000E+03 0.  0.
   -5000001    1    1    2    0    0  0.11024016149E+03  0.20179889495E+01 -0.82450813950E+03  0.84805402988E+03  0.16500000000E+03 0.  0.
<mgrwt>
<rscale>  0 0.40691383E+03</rscale>
<asrwt>0</asrwt>
<pdfrwt beam="1">  1        2 0.21082811E+00 0.40691383E+03</pdfrwt>
<pdfrwt beam="2">  1       -2 0.46471819E-02 0.40691383E+03</pdfrwt>
<totfact> 0.35185095E+03</totfact>
</mgrwt>
</event>
<event>
 4    1  0.9050888E-005  0.2159623E+04  0.7818608E-02  0.8535424E-01
         -2   -1    0    0    0  501 -0.00000000000E+00  0.00000000000E+00  0.14347823708E+04  0.14347823708E+04  0.25500000000E-02 0. -1.
          2   -1    0    0  501    0  0.00000000000E+00 -0.00000000000E+00 -0.81266172076E+03  0.81266172076E+03  0.25500000000E-02 0.  1.
    5000001    1    1    2    0    0  0.10335088375E+04  0.45577807152E+02  0.38593105982E+02  0.10482997098E+04  0.16500000000E+03 0.  0.
   -5000001    1    1    2    0    0 -0.10335088375E+04 -0.45577807152E+02  0.58352754401E+03  0.11991443818E+04  0.16500000000E+03 0.  0.
<mgrwt>
<rscale>  0 0.21596228E+04</rscale>
<asrwt>0</asrwt>
<pdfrwt beam="1">  1        2 0.12502488E+00 0.21596228E+04</pdfrwt>
<pdfrwt beam="2">  1       -2 0.22073575E+00 0.21596228E+04</pdfrwt>
<totfact> 0.30234393E+00</totfact>
</mgrwt>
</event>
<event>
 4    1  0.9050888E-005  0.5393279E+03  0.7818608E-02  0.1003995E+00
         -2   -1    0    0    0  501 -0.00000000000E+00  0.00000000000E+00  0.13971050970E+03  0.13971050973E+03  0.25500000000E-02 0. -1.
          2   -1    0    0  501    0  0.00000000000E+00 -0.00000000000E+00 -0.52049507908E+03  0.52049507909E+03  0.25500000000E-02 0.  1.
    5000001    1    1    2    0    0  0.14637242851E+03 -0.71053198029E+02 -0.35921611570E+03  0.42747475078E+03  0.16500000000E+03 0.  0.
   -5000001    1    1    2    0    0 -0.14637242851E+03  0.71053198029E+02 -0.21568453678E+02  0.23273083803E+03  0.16500000000E+03 0.  0.
<mgrwt>
<rscale>  0 0.53932785E+03</rscale>
<asrwt>0</asrwt>
<pdfrwt beam="1">  1        2 0.80076165E-01 0.53932785E+03</pdfrwt>
<pdfrwt beam="2">  1       -2 0.21493925E-01 0.53932785E+03</pdfrwt>
<totfact> 0.11064355E+03</totfact>
</mgrwt>
</event>
<event>
 4    1  0.9050888E-005  0.6242754E+03  0.7818608E-02  0.9856284E-01
         -2   -1    0    0    0  501 -0.00000000000E+00  0.00000000000E+00  0.99187100649E+02  0.99187100682E+02  0.25500000000E-02 0. -1.
          2   -1    0    0  501    0  0.00000000000E+00 -0.00000000000E+00 -0.98228441146E+03  0.98228441146E+03  0.25500000000E-02 0.  1.
    5000001    1    1    2    0    0 -0.10788471284E+03  0.22704167246E+03 -0.29642347346E+03  0.42223087040E+03  0.16500000000E+03 0.  0.
   -5000001    1    1    2    0    0  0.10788471284E+03 -0.22704167246E+03 -0.58667383735E+03  0.65924064174E+03  0.16500000000E+03 0.  0.
<mgrwt>
<rscale>  0 0.62427540E+03</rscale>
<asrwt>0</asrwt>
<pdfrwt beam="1">  1        2 0.15112067E+00 0.62427540E+03</pdfrwt>
<pdfrwt beam="2">  1       -2 0.15259555E-01 0.62427540E+03</pdfrwt>
<totfact> 0.88683373E+02</totfact>
</mgrwt>
</event>
<event>
 4    1  0.9050888E-005  0.4622148E+03  0.7818608E-02  0.1024141E+00
         -2   -1    0    0    0  501 -0.00000000000E+00  0.00000000000E+00  0.35843719311E+02  0.35843719401E+02  0.25500000000E-02 0. -1.
          2   -1    0    0  501    0  0.00000000000E+00 -0.00000000000E+00 -0.14900970927E+04  0.14900970927E+04  0.25500000000E-02 0.  1.
    5000001    1    1    2    0    0 -0.11451917966E+03  0.10328151189E+03 -0.88899165570E+03  0.91723109254E+03  0.16500000000E+03 0.  0.
   -5000001    1    1    2    0    0  0.11451917966E+03 -0.10328151189E+03 -0.56526171767E+03  0.60870971954E+03  0.16500000000E+03 0.  0.
<mgrwt>
<rscale>  0 0.46221476E+03</rscale>
<asrwt>0</asrwt>
<pdfrwt beam="1">  1        2 0.22924566E+00 0.46221476E+03</pdfrwt>
<pdfrwt beam="2">  1       -2 0.55144195E-02 0.46221476E+03</pdfrwt>
<totfact> 0.23202414E+03</totfact>
</mgrwt>
</event>
<event>
 4    1  0.9050888E-005  0.3905931E+03  0.7818608E-02  0.1047087E+00
         -2   -1    0    0    0  501 -0.00000000000E+00  0.00000000000E+00  0.19166603502E+03  0.19166603503E+03  0.25500000000E-02 0. -1.
          2   -1    0    0  501    0  0.00000000000E+00 -0.00000000000E+00 -0.19899582764E+03  0.19899582765E+03  0.25500000000E-02 0.  1.
    5000001    1    1    2    0    0 -0.29345632075E+02 -0.93599359349E+02  0.32309965434E+02  0.19465595305E+03  0.16500000000E+03 0.  0.
   -5000001    1    1    2    0    0  0.29345632075E+02  0.93599359349E+02 -0.39639758056E+02  0.19600590963E+03  0.16500000000E+03 0.  0.
<mgrwt>
<rscale>  0 0.39059309E+03</rscale>
<asrwt>0</asrwt>
<pdfrwt beam="1">  1        2 0.30614743E-01 0.39059309E+03</pdfrwt>
<pdfrwt beam="2">  1       -2 0.29487082E-01 0.39059309E+03</pdfrwt>
<totfact> 0.18216706E+03</totfact>
</mgrwt>
</event>
<event>
 4    1  0.9050888E-005  0.1957734E+04  0.7818608E-02  0.8626640E-01
          2   -1    0    0  501    0  0.00000000000E+00  0.00000000000E+00  0.19303550163E+04  0.19303550163E+04  0.25500000000E-02 0.  1.
         -2   -1    0    0    0  501 -0.00000000000E+00 -0.00000000000E+00 -0.49637527436E+03  0.49637527437E+03  0.25500000000E-02 0. -1.
    5000001    1    1    2    0    0  0.37648655984E+03 -0.44041269172E+03  0.16733414182E+04  0.17784830532E+04  0.16500000000E+03 0.  0.
   -5000001    1    1    2    0    0 -0.37648655984E+03  0.44041269172E+03 -0.23936167628E+03  0.64824723743E+03  0.16500000000E+03 0.  0.
<mgrwt>
<rscale>  0 0.19577339E+04</rscale>
<asrwt>0</asrwt>
<pdfrwt beam="1">  1        2 0.29697770E+00 0.19577339E+04</pdfrwt>
<pdfrwt beam="2">  1       -2 0.76365426E-01 0.19577339E+04</pdfrwt>
<totfact> 0.10444662E+01</totfact>
</mgrwt>
</event>
<event>
 4    1  0.9050888E-005  0.8155466E+03  0.7818608E-02  0.9537783E-01
          2   -1    0    0  501    0  0.00000000000E+00  0.00000000000E+00  0.28729416509E+03  0.28729416510E+03  0.25500000000E-02 0.  1.
         -2   -1    0    0    0  501 -0.00000000000E+00 -0.00000000000E+00 -0.57877633944E+03  0.57877633945E+03  0.25500000000E-02 0. -1.
    5000001    1    1    2    0    0 -0.34855622696E+03 -0.11918518291E+03 -0.84207336983E+02  0.41232563197E+03  0.16500000000E+03 0.  0.
   -5000001    1    1    2    0    0  0.34855622696E+03  0.11918518291E+03 -0.20727483737E+03  0.45374487257E+03  0.16500000000E+03 0.  0.
<mgrwt>
<rscale>  0 0.81554660E+03</rscale>
<asrwt>0</asrwt>
<pdfrwt beam="1">  1        2 0.44199102E-01 0.81554660E+03</pdfrwt>
<pdfrwt beam="2">  1       -2 0.89042513E-01 0.81554660E+03</pdfrwt>
<totfact> 0.12567181E+02</totfact>
</mgrwt>
</event>
<event>
 4    1  0.9050888E-005  0.4249675E+03  0.7818608E-02  0.1035462E+00
         -2   -1    0    0    0  501 -0.00000000000E+00  0.00000000000E+00  0.40218614705E+02  0.40218614786E+02  0.25500000000E-02 0. -1.
          2   -1    0    0  501    0  0.00000000000E+00 -0.00000000000E+00 -0.11225982418E+04  0.11225982418E+04  0.25500000000E-02 0.  1.
    5000001    1    1    2    0    0 -0.10665061827E+02  0.13334302611E+03 -0.55623670641E+03  0.59541446045E+03  0.16500000000E+03 0.  0.
   -5000001    1    1    2    0    0  0.10665061827E+02 -0.13334302611E+03 -0.52614292066E+03  0.56740239611E+03  0.16500000000E+03 0.  0.
<mgrwt>
<rscale>  0 0.42496751E+03</rscale>
<asrwt>0</asrwt>
<pdfrwt beam="1">  1        2 0.17270740E+00 0.42496751E+03</pdfrwt>
<pdfrwt beam="2">  1       -2 0.61874801E-02 0.42496751E+03</pdfrwt>
<totfact> 0.31354349E+03</totfact>
</mgrwt>
</event>
<event>
 4    1  0.9050888E-005  0.3953879E+03  0.7818608E-02  0.1045388E+00
          2   -1    0    0  501    0  0.00000000000E+00  0.00000000000E+00  0.19553114595E+04  0.19553114595E+04  0.25500000000E-02 0.  1.
         -2   -1    0    0    0  501 -0.00000000000E+00 -0.00000000000E+00 -0.19988071541E+02  0.19988071704E+02  0.25500000000E-02 0. -1.
    5000001    1    1    2    0    0  0.27072142762E+02 -0.10544209365E+03  0.95447276393E+03  0.97472775333E+03  0.16500000000E+03 0.  0.
   -5000001    1    1    2    0    0 -0.27072142762E+02  0.10544209365E+03  0.98085062406E+03  0.10005717779E+04  0.16500000000E+03 0.  0.
<mgrwt>
<rscale>  0 0.39538794E+03</rscale>
<asrwt>0</asrwt>
<pdfrwt beam="1">  1        2 0.30081710E+00 0.39538794E+03</pdfrwt>
<pdfrwt beam="2">  1       -2 0.30750884E-02 0.39538794E+03</pdfrwt>
<totfact> 0.31887046E+03</totfact>
</mgrwt>
</event>
<event>
 4    1  0.9050888E-005  0.1207388E+04  0.7818608E-02  0.9106414E-01
         -2   -1    0    0    0  501 -0.00000000000E+00  0.00000000000E+00  0.24809288377E+04  0.24809288377E+04  0.25500000000E-02 0. -1.
          2   -1    0    0  501    0  0.00000000000E+00 -0.00000000000E+00 -0.14689920747E+03  0.14689920749E+03  0.25500000000E-02 0.  1.
    5000001    1    1    2    0    0 -0.40297400646E+03  0.25763782559E+03  0.18837805267E+04  0.19505433530E+04  0.16500000000E+03 0.  0.
   -5000001    1    1    2    0    0  0.40297400646E+03 -0.25763782559E+03  0.45024910345E+03  0.67728469215E+03  0.16500000000E+03 0.  0.
<mgrwt>
<rscale>  0 0.12073881E+04</rscale>
<asrwt>0</asrwt>
<pdfrwt beam="1">  1        2 0.22599877E-01 0.12073881E+04</pdfrwt>
<pdfrwt beam="2">  1       -2 0.38168137E+00 0.12073881E+04</pdfrwt>
<totfact> 0.24167865E+00</totfact>
</mgrwt>
</event>
<event>
 4    1  0.9050888E-005  0.4137520E+03  0.7818608E-02  0.1039119E+00
         -2   -1    0    0    0  501 -0.00000000000E+00  0.00000000000E+00  0.13409850210E+03  0.13409850212E+03  0.25500000000E-02 0.  1.
          2   -1    0    0  501    0  0.00000000000E+00 -0.00000000000E+00 -0.31915099510E+03  0.31915099511E+03  0.25500000000E-02 0. -1.
    5000001    1    1    2    0    0  0.11969183380E+03 -0.22764467841E+02 -0.62962688917E+02  0.21455455313E+03  0.16500000000E+03 0.  0.
   -5000001    1    1    2    0    0 -0.11969183380E+03  0.22764467841E+02 -0.12208980408E+03  0.23869494409E+03  0.16500000000E+03 0.  0.
<mgrwt>
<rscale>  0 0.41375196E+03</rscale>
<asrwt>0</asrwt>
<pdfrwt beam="1">  1        2 0.49100153E-01 0.41375196E+03</pdfrwt>
<pdfrwt beam="2">  1       -2 0.20630539E-01 0.41375196E+03</pdfrwt>
<totfact> 0.20497727E+03</totfact>
</mgrwt>
</event>
<event>
 4    1  0.9050888E-005  0.3399133E+03  0.7818608E-02  0.1066833E+00
          2   -1    0    0  501    0  0.00000000000E+00  0.00000000000E+00  0.26161307722E+03  0.26161307724E+03  0.25500000000E-02 0.  1.
         -2   -1    0    0    0  501 -0.00000000000E+00 -0.00000000000E+00 -0.11041212301E+03  0.11041212304E+03  0.25500000000E-02 0. -1.
    5000001    1    1    2    0    0  0.92859278647E+01  0.35798452282E+02  0.94318735304E+02  0.19362019903E+03  0.16500000000E+03 0.  0.
   -5000001    1    1    2    0    0 -0.92859278647E+01 -0.35798452282E+02  0.56882218911E+02  0.17840500125E+03  0.16500000000E+03 0.  0.
<mgrwt>
<rscale>  0 0.33991326E+03</rscale>
<asrwt>0</asrwt>
<pdfrwt beam="1">  1        2 0.40248165E-01 0.33991326E+03</pdfrwt>
<pdfrwt beam="2">  1       -2 0.16986481E-01 0.33991326E+03</pdfrwt>
<totfact> 0.35357524E+03</totfact>
</mgrwt>
</event>
<event>
 4    1  0.9050888E-005  0.4369364E+03  0.7818608E-02  0.1031691E+00
         -2   -1    0    0    0  501 -0.00000000000E+00  0.00000000000E+00  0.99244553658E+02  0.99244553691E+02  0.25500000000E-02 0. -1.
          2   -1    0    0  501    0  0.00000000000E+00 -0.00000000000E+00 -0.48091652655E+03  0.48091652656E+03  0.25500000000E-02 0.  1.
    5000001    1    1    2    0    0 -0.63490176267E+02  0.12527519898E+03 -0.22788279543E+03  0.31445261394E+03  0.16500000000E+03 0.  0.
   -5000001    1    1    2    0    0  0.63490176267E+02 -0.12527519898E+03 -0.15378917747E+03  0.26570846631E+03  0.16500000000E+03 0.  0.
<mgrwt>
<rscale>  0 0.43693636E+03</rscale>
<asrwt>0</asrwt>
<pdfrwt beam="1">  1        2 0.73987157E-01 0.43693636E+03</pdfrwt>
<pdfrwt beam="2">  1       -2 0.15268393E-01 0.43693636E+03</pdfrwt>
<totfact> 0.21753350E+03</totfact>
</mgrwt>
</event>
<event>
 4    1  0.9050888E-005  0.3503970E+03  0.7818608E-02  0.1062452E+00
         -2   -1    0    0    0  501 -0.00000000000E+00  0.00000000000E+00  0.88649027948E+02  0.88649027984E+02  0.25500000000E-02 0. -1.
          2   -1    0    0  501    0  0.00000000000E+00 -0.00000000000E+00 -0.34624759071E+03  0.34624759072E+03  0.25500000000E-02 0.  1.
    5000001    1    1    2    0    0  0.44962182094E+02 -0.37930416382E+02 -0.12503507398E+03  0.21521868885E+03  0.16500000000E+03 0.  0.
   -5000001    1    1    2    0    0 -0.44962182094E+02  0.37930416382E+02 -0.13256348877E+03  0.21967792985E+03  0.16500000000E+03 0.  0.
<mgrwt>
<rscale>  0 0.35039699E+03</rscale>
<asrwt>0</asrwt>
<pdfrwt beam="1">  1        2 0.53268859E-01 0.35039699E+03</pdfrwt>
<pdfrwt beam="2">  1       -2 0.13638312E-01 0.35039699E+03</pdfrwt>
<totfact> 0.37615564E+03</totfact>
</mgrwt>
</event>
<event>
 4    1  0.9050888E-005  0.7359231E+03  0.7818608E-02  0.9657697E-01
         -2   -1    0    0    0  501 -0.00000000000E+00  0.00000000000E+00  0.21942254627E+03  0.21942254628E+03  0.25500000000E-02 0. -1.
          2   -1    0    0  501    0  0.00000000000E+00 -0.00000000000E+00 -0.61705465284E+03  0.61705465284E+03  0.25500000000E-02 0.  1.
    5000001    1    1    2    0    0  0.96091282233E+02 -0.24798201836E+03 -0.41875477457E+03  0.52278980210E+03  0.16500000000E+03 0.  0.
   -5000001    1    1    2    0    0 -0.96091282233E+02  0.24798201836E+03  0.21122667997E+02  0.31368739703E+03  0.16500000000E+03 0.  0.
<mgrwt>
<rscale>  0 0.73592310E+03</rscale>
<asrwt>0</asrwt>
<pdfrwt beam="1">  1        2 0.94931484E-01 0.73592310E+03</pdfrwt>
<pdfrwt beam="2">  1       -2 0.33757315E-01 0.73592310E+03</pdfrwt>
<totfact> 0.39595923E+02</totfact>
</mgrwt>
</event>
<event>
 4    1  0.9050888E-005  0.5964468E+03  0.7818608E-02  0.9912805E-01
         -2   -1    0    0    0  501 -0.00000000000E+00  0.00000000000E+00  0.53968512909E+02  0.53968512969E+02  0.25500000000E-02 0. -1.
          2   -1    0    0  501    0  0.00000000000E+00 -0.00000000000E+00 -0.16479460636E+04  0.16479460636E+04  0.25500000000E-02 0.  1.
    5000001    1    1    2    0    0 -0.22785377612E+03 -0.80074844046E+02 -0.63102665141E+03  0.69552063861E+03  0.16500000000E+03 0.  0.
   -5000001    1    1    2    0    0  0.22785377612E+03  0.80074844046E+02 -0.96295089931E+03  0.10063939380E+04  0.16500000000E+03 0.  0.
<mgrwt>
<rscale>  0 0.59644681E+03</rscale>
<asrwt>0</asrwt>
<pdfrwt beam="1">  1        2 0.25353013E+00 0.59644681E+03</pdfrwt>
<pdfrwt beam="2">  1       -2 0.83028494E-02 0.59644681E+03</pdfrwt>
<totfact> 0.99409469E+02</totfact>
</mgrwt>
</event>
<event>
 4    1  0.9050888E-005  0.3875105E+03  0.7818608E-02  0.1048192E+00
          2   -1    0    0  501    0  0.00000000000E+00  0.00000000000E+00  0.28140531061E+04  0.28140531061E+04  0.25500000000E-02 0.  1.
         -2   -1    0    0    0  501 -0.00000000000E+00 -0.00000000000E+00 -0.13340575467E+02  0.13340575711E+02  0.25500000000E-02 0. -1.
    5000001    1    1    2    0    0  0.31842207291E+02  0.75398299448E+02  0.96152998456E+03  0.97901161430E+03  0.16500000000E+03 0.  0.
   -5000001    1    1    2    0    0 -0.31842207291E+02 -0.75398299448E+02  0.18391825461E+04  0.18483820676E+04  0.16500000000E+03 0.  0.
<mgrwt>
<rscale>  0 0.38751045E+03</rscale>
<asrwt>0</asrwt>
<pdfrwt beam="1">  1        2 0.43293124E+00 0.38751045E+03</pdfrwt>
<pdfrwt beam="2">  1       -2 0.20523963E-02 0.38751045E+03</pdfrwt>
<totfact> 0.19659955E+03</totfact>
</mgrwt>
</event>
<event>
 4    1  0.9050888E-005  0.5174112E+03  0.7818608E-02  0.1009332E+00
          2   -1    0    0  501    0  0.00000000000E+00  0.00000000000E+00  0.77655609998E+03  0.77655609998E+03  0.25500000000E-02 0.  1.
         -2   -1    0    0    0  501 -0.00000000000E+00 -0.00000000000E+00 -0.86186423970E+02  0.86186424008E+02  0.25500000000E-02 0. -1.
    5000001    1    1    2    0    0 -0.89667631547E+02 -0.16459175437E+03  0.23242888474E+03  0.34114354196E+03  0.16500000000E+03 0.  0.
   -5000001    1    1    2    0    0  0.89667631547E+02  0.16459175437E+03  0.45794079126E+03  0.52159898203E+03  0.16500000000E+03 0.  0.
<mgrwt>
<rscale>  0 0.51741122E+03</rscale>
<asrwt>0</asrwt>
<pdfrwt beam="1">  1        2 0.11947017E+00 0.51741122E+03</pdfrwt>
<pdfrwt beam="2">  1       -2 0.13259450E-01 0.51741122E+03</pdfrwt>
<totfact> 0.15491813E+03</totfact>
</mgrwt>
</event>
<event>
 4    1  0.9050888E-005  0.5713090E+03  0.7818608E-02  0.9966786E-01
          2   -1    0    0  501    0  0.00000000000E+00  0.00000000000E+00  0.37894286391E+03  0.37894286392E+03  0.25500000000E-02 0.  1.
         -2   -1    0    0    0  501 -0.00000000000E+00 -0.00000000000E+00 -0.21533192135E+03  0.21533192136E+03  0.25500000000E-02 0. -1.
    5000001    1    1    2    0    0 -0.13901698345E+03  0.18601618491E+03  0.59843920690E+02  0.29109111560E+03  0.16500000000E+03 0.  0.
   -5000001    1    1    2    0    0  0.13901698345E+03 -0.18601618491E+03  0.10376702188E+03  0.30318366969E+03  0.16500000000E+03 0.  0.
<mgrwt>
<rscale>  0 0.57130901E+03</rscale>
<asrwt>0</asrwt>
<pdfrwt beam="1">  1        2 0.58298901E-01 0.57130901E+03</pdfrwt>
<pdfrwt beam="2">  1       -2 0.33127989E-01 0.57130901E+03</pdfrwt>
<totfact> 0.72285653E+02</totfact>
</mgrwt>
</event>
<event>
 4    1  0.9050888E-005  0.4414692E+03  0.7818608E-02  0.1030297E+00
         -2   -1    0    0    0  501 -0.00000000000E+00  0.00000000000E+00  0.22347717399E+02  0.22347717544E+02  0.25500000000E-02 0. -1.
          2   -1    0    0  501    0  0.00000000000E+00 -0.00000000000E+00 -0.21802564822E+04  0.21802564822E+04  0.25500000000E-02 0.  1.
    5000001    1    1    2    0    0 -0.52270373492E+01 -0.13611228253E+03 -0.13497052934E+04  0.13665589100E+04  0.16500000000E+03 0.  0.
   -5000001    1    1    2    0    0  0.52270373492E+01  0.13611228253E+03 -0.80820347137E+03  0.83604528975E+03  0.16500000000E+03 0.  0.
<mgrwt>
<rscale>  0 0.44146916E+03</rscale>
<asrwt>0</asrwt>
<pdfrwt beam="1">  1        2 0.33542390E+00 0.44146916E+03</pdfrwt>
<pdfrwt beam="2">  1       -2 0.34381121E-02 0.44146916E+03</pdfrwt>
<totfact> 0.20359960E+03</totfact>
</mgrwt>
</event>
<event>
 4    1  0.9050888E-005  0.5639536E+03  0.7818608E-02  0.9983148E-01
         -2   -1    0    0    0  501 -0.00000000000E+00  0.00000000000E+00  0.69726087023E+02  0.69726087069E+02  0.25500000000E-02 0. -1.
          2   -1    0    0  501    0  0.00000000000E+00 -0.00000000000E+00 -0.11403323070E+04  0.11403323070E+04  0.25500000000E-02 0.  1.
    5000001    1    1    2    0    0  0.15481380080E+03 -0.15286350703E+03 -0.68628489868E+03  0.73861121495E+03  0.16500000000E+03 0.  0.
   -5000001    1    1    2    0    0 -0.15481380080E+03  0.15286350703E+03 -0.38432132132E+03  0.47144717914E+03  0.16500000000E+03 0.  0.
<mgrwt>
<rscale>  0 0.56395358E+03</rscale>
<asrwt>0</asrwt>
<pdfrwt beam="1">  1        2 0.17543573E+00 0.56395358E+03</pdfrwt>
<pdfrwt beam="2">  1       -2 0.10727091E-01 0.56395358E+03</pdfrwt>
<totfact> 0.12730105E+03</totfact>
</mgrwt>
</event>
<event>
 4    1  0.9050888E-005  0.5492351E+03  0.7818608E-02  0.1001671E+00
         -2   -1    0    0    0  501 -0.00000000000E+00  0.00000000000E+00  0.52118971655E+02  0.52118971718E+02  0.25500000000E-02 0. -1.
          2   -1    0    0  501    0  0.00000000000E+00 -0.00000000000E+00 -0.14469738762E+04  0.14469738762E+04  0.25500000000E-02 0.  1.
    5000001    1    1    2    0    0 -0.13815029928E+02  0.21846010704E+03 -0.74261703286E+03  0.79159379161E+03  0.16500000000E+03 0.  0.
   -5000001    1    1    2    0    0  0.13815029928E+02 -0.21846010704E+03 -0.65223787168E+03  0.70749905631E+03  0.16500000000E+03 0.  0.
<mgrwt>
<rscale>  0 0.54923507E+03</rscale>
<asrwt>0</asrwt>
<pdfrwt beam="1">  1        2 0.22261134E+00 0.54923507E+03</pdfrwt>
<pdfrwt beam="2">  1       -2 0.80183044E-02 0.54923507E+03</pdfrwt>
<totfact> 0.13578311E+03</totfact>
</mgrwt>
</event>
<event>
 4    1  0.9050888E-005  0.5214673E+03  0.7818608E-02  0.1008323E+00
          2   -1    0    0  501    0  0.00000000000E+00  0.00000000000E+00  0.42834703441E+03  0.42834703442E+03  0.25500000000E-02 0.  1.
         -2   -1    0    0    0  501 -0.00000000000E+00 -0.00000000000E+00 -0.15870782489E+03  0.15870782491E+03  0.25500000000E-02 0. -1.
    5000001    1    1    2    0    0  0.10774400413E+03  0.17043745525E+03  0.12359965560E+03  0.28837401312E+03  0.16500000000E+03 0.  0.
   -5000001    1    1    2    0    0 -0.10774400413E+03 -0.17043745525E+03  0.14603955392E+03  0.29868084620E+03  0.16500000000E+03 0.  0.
<mgrwt>
<rscale>  0 0.52146726E+03</rscale>
<asrwt>0</asrwt>
<pdfrwt beam="1">  1        2 0.65899543E-01 0.52146726E+03</pdfrwt>
<pdfrwt beam="2">  1       -2 0.24416589E-01 0.52146726E+03</pdfrwt>
<totfact> 0.11022100E+03</totfact>
</mgrwt>
</event>
<event>
 4    1  0.9050888E-005  0.7052653E+03  0.7818608E-02  0.9708270E-01
          2   -1    0    0  501    0  0.00000000000E+00  0.00000000000E+00  0.29750964635E+04  0.29750964635E+04  0.25500000000E-02 0.  1.
         -2   -1    0    0    0  501 -0.00000000000E+00 -0.00000000000E+00 -0.41796895995E+02  0.41796896073E+02  0.25500000000E-02 0. -1.
    5000001    1    1    2    0    0 -0.10245480874E+02 -0.14664077207E+03  0.29113577990E+03  0.36550448458E+03  0.16500000000E+03 0.  0.
   -5000001    1    1    2    0    0  0.10245480874E+02  0.14664077207E+03  0.26421637876E+04  0.26513888750E+04  0.16500000000E+03 0.  0.
<mgrwt>
<rscale>  0 0.70526533E+03</rscale>
<asrwt>0</asrwt>
<pdfrwt beam="1">  1        2 0.45770730E+00 0.70526533E+03</pdfrwt>
<pdfrwt beam="2">  1       -2 0.64302895E-02 0.70526533E+03</pdfrwt>
<totfact> 0.26623479E+02</totfact>
</mgrwt>
</event>
<event>
 4    1  0.9050888E-005  0.7435069E+03  0.7818608E-02  0.9645592E-01
          2   -1    0    0  501    0  0.00000000000E+00  0.00000000000E+00  0.86984418896E+03  0.86984418897E+03  0.25500000000E-02 0.  1.
         -2   -1    0    0    0  501 -0.00000000000E+00 -0.00000000000E+00 -0.15887974094E+03  0.15887974096E+03  0.25500000000E-02 0. -1.
    5000001    1    1    2    0    0  0.19837233340E+03  0.25472378434E+03  0.24189268484E+03  0.43585876147E+03  0.16500000000E+03 0.  0.
   -5000001    1    1    2    0    0 -0.19837233340E+03 -0.25472378434E+03  0.46907176318E+03  0.59286516847E+03  0.16500000000E+03 0.  0.
<mgrwt>
<rscale>  0 0.74350688E+03</rscale>
<asrwt>0</asrwt>
<pdfrwt beam="1">  1        2 0.13382218E+00 0.74350688E+03</pdfrwt>
<pdfrwt beam="2">  1       -2 0.24443037E-01 0.74350688E+03</pdfrwt>
<totfact> 0.46162175E+02</totfact>
</mgrwt>
</event>
<event>
 4    1  0.9050888E-005  0.4919922E+03  0.7818608E-02  0.1015890E+00
          2   -1    0    0  501    0  0.00000000000E+00  0.00000000000E+00  0.55876576176E+03  0.55876576176E+03  0.25500000000E-02 0.  1.
         -2   -1    0    0    0  501 -0.00000000000E+00 -0.00000000000E+00 -0.10829953107E+03  0.10829953110E+03  0.25500000000E-02 0. -1.
    5000001    1    1    2    0    0 -0.11110987577E+03  0.77648589228E+02  0.59651349780E+02  0.22171601528E+03  0.16500000000E+03 0.  0.
   -5000001    1    1    2    0    0  0.11110987577E+03 -0.77648589228E+02  0.39081488091E+03  0.44534927758E+03  0.16500000000E+03 0.  0.
<mgrwt>
<rscale>  0 0.49199215E+03</rscale>
<asrwt>0</asrwt>
<pdfrwt beam="1">  1        2 0.85963966E-01 0.49199215E+03</pdfrwt>
<pdfrwt beam="2">  1       -2 0.16661466E-01 0.49199215E+03</pdfrwt>
<totfact> 0.15809777E+03</totfact>
</mgrwt>
</event>
<event>
 4    1  0.9050888E-005  0.3906272E+03  0.7818608E-02  0.1047074E+00
         -2   -1    0    0    0  501 -0.00000000000E+00  0.00000000000E+00  0.25065061990E+03  0.25065061992E+03  0.25500000000E-02 0. -1.
          2   -1    0    0  501    0  0.00000000000E+00 -0.00000000000E+00 -0.15219354792E+03  0.15219354794E+03  0.25500000000E-02 0.  1.
    5000001    1    1    2    0    0 -0.92690177611E+02  0.20718480163E+02  0.42563912798E+01  0.19043067324E+03  0.16500000000E+03 0.  0.
   -5000001    1    1    2    0    0  0.92690177611E+02 -0.20718480163E+02  0.94200680710E+02  0.21241349461E+03  0.16500000000E+03 0.  0.
<mgrwt>
<rscale>  0 0.39062722E+03</rscale>
<asrwt>0</asrwt>
<pdfrwt beam="1">  1        2 0.23414392E-01 0.39062722E+03</pdfrwt>
<pdfrwt beam="2">  1       -2 0.38561633E-01 0.39062722E+03</pdfrwt>
<totfact> 0.14912591E+03</totfact>
</mgrwt>
</event>
<event>
 4    1  0.9050888E-005  0.3620678E+03  0.7818608E-02  0.1057768E+00
         -2   -1    0    0    0  501 -0.00000000000E+00  0.00000000000E+00  0.22383402154E+03  0.22383402155E+03  0.25500000000E-02 0. -1.
          2   -1    0    0  501    0  0.00000000000E+00 -0.00000000000E+00 -0.14641775152E+03  0.14641775154E+03  0.25500000000E-02 0.  1.
    5000001    1    1    2    0    0  0.36838713866E+02  0.64433981326E+02  0.45130651417E+02  0.18646877617E+03  0.16500000000E+03 0.  0.
   -5000001    1    1    2    0    0 -0.36838713866E+02 -0.64433981326E+02  0.32285618599E+02  0.18378299692E+03  0.16500000000E+03 0.  0.
<mgrwt>
<rscale>  0 0.36206781E+03</rscale>
<asrwt>0</asrwt>
<pdfrwt beam="1">  1        2 0.22525808E-01 0.36206781E+03</pdfrwt>
<pdfrwt beam="2">  1       -2 0.34436003E-01 0.36206781E+03</pdfrwt>
<totfact> 0.19283840E+03</totfact>
</mgrwt>
</event>
<event>
 4    1  0.9050888E-005  0.4380394E+03  0.7818608E-02  0.1031350E+00
         -2   -1    0    0    0  501 -0.00000000000E+00  0.00000000000E+00  0.29451025183E+03  0.29451025184E+03  0.25500000000E-02 0. -1.
          2   -1    0    0  501    0  0.00000000000E+00 -0.00000000000E+00 -0.16287928106E+03  0.16287928108E+03  0.25500000000E-02 0.  1.
    5000001    1    1    2    0    0  0.85091143013E+02  0.10555169566E+03  0.11657305540E+03  0.24330215848E+03  0.16500000000E+03 0.  0.
   -5000001    1    1    2    0    0 -0.85091143013E+02 -0.10555169566E+03  0.15057915369E+02  0.21408737443E+03  0.16500000000E+03 0.  0.
<mgrwt>
<rscale>  0 0.43803935E+03</rscale>
<asrwt>0</asrwt>
<pdfrwt beam="1">  1        2 0.25058351E-01 0.43803935E+03</pdfrwt>
<pdfrwt beam="2">  1       -2 0.45309270E-01 0.43803935E+03</pdfrwt>
<totfact> 0.10100185E+03</totfact>
</mgrwt>
</event>
<event>
 4    1  0.9050888E-005  0.6672364E+03  0.7818608E-02  0.9774963E-01
         -2   -1    0    0    0  501 -0.00000000000E+00  0.00000000000E+00  0.51592725493E+02  0.51592725556E+02  0.25500000000E-02 0. -1.
          2   -1    0    0  501    0  0.00000000000E+00 -0.00000000000E+00 -0.21573019742E+04  0.21573019742E+04  0.25500000000E-02 0.  1.
    5000001    1    1    2    0    0  0.10577916166E+03 -0.25394086009E+03 -0.74942488385E+03  0.81519190869E+03  0.16500000000E+03 0.  0.
   -5000001    1    1    2    0    0 -0.10577916166E+03  0.25394086009E+03 -0.13562843649E+04  0.13937027911E+04  0.16500000000E+03 0.  0.
<mgrwt>
<rscale>  0 0.66723636E+03</rscale>
<asrwt>0</asrwt>
<pdfrwt beam="1">  1        2 0.33189254E+00 0.66723636E+03</pdfrwt>
<pdfrwt beam="2">  1       -2 0.79373441E-02 0.66723636E+03</pdfrwt>
<totfact> 0.56231376E+02</totfact>
</mgrwt>
</event>
<event>
 4    1  0.9050888E-005  0.5003265E+03  0.7818608E-02  0.1013694E+00
         -2   -1    0    0    0  501 -0.00000000000E+00  0.00000000000E+00  0.51937661567E+02  0.51937661629E+02  0.25500000000E-02 0. -1.
          2   -1    0    0  501    0  0.00000000000E+00 -0.00000000000E+00 -0.12049378691E+04  0.12049378691E+04  0.25500000000E-02 0.  1.
    5000001    1    1    2    0    0 -0.17207281169E+03 -0.74853884403E+02 -0.54630261564E+03  0.60073596895E+03  0.16500000000E+03 0.  0.
   -5000001    1    1    2    0    0  0.17207281169E+03  0.74853884403E+02 -0.60669759192E+03  0.65613956181E+03  0.16500000000E+03 0.  0.
<mgrwt>
<rscale>  0 0.50032651E+03</rscale>
<asrwt>0</asrwt>
<pdfrwt beam="1">  1        2 0.18537504E+00 0.50032651E+03</pdfrwt>
<pdfrwt beam="2">  1       -2 0.79904104E-02 0.50032651E+03</pdfrwt>
<totfact> 0.18752738E+03</totfact>
</mgrwt>
</event>
<event>
 4    1  0.9050888E-005  0.4355824E+03  0.7818608E-02  0.1032111E+00
         -2   -1    0    0    0  501 -0.00000000000E+00  0.00000000000E+00  0.36756193420E+03  0.36756193420E+03  0.25500000000E-02 0.  1.
          2   -1    0    0  501    0  0.00000000000E+00 -0.00000000000E+00 -0.12904766560E+03  0.12904766562E+03  0.25500000000E-02 0. -1.
    5000001    1    1    2    0    0 -0.73666442671E+02  0.90101281134E+02  0.26193402999E+02  0.20360766193E+03  0.16500000000E+03 0.  0.
   -5000001    1    1    2    0    0  0.73666442671E+02 -0.90101281134E+02  0.21232086560E+03  0.29300193789E+03  0.16500000000E+03 0.  0.
<mgrwt>
<rscale>  0 0.43558241E+03</rscale>
<asrwt>0</asrwt>
<pdfrwt beam="1">  1        2 0.19853488E-01 0.43558241E+03</pdfrwt>
<pdfrwt beam="2">  1       -2 0.56547988E-01 0.43558241E+03</pdfrwt>
<totfact> 0.84331379E+02</totfact>
</mgrwt>
</event>
<event>
 4    1  0.9050888E-005  0.4309880E+03  0.7818608E-02  0.1033548E+00
         -2   -1    0    0    0  501 -0.00000000000E+00  0.00000000000E+00  0.12556662914E+04  0.12556662914E+04  0.25500000000E-02 0. -1.
          2   -1    0    0  501    0  0.00000000000E+00 -0.00000000000E+00 -0.36982480852E+02  0.36982480940E+02  0.25500000000E-02 0.  1.
    5000001    1    1    2    0    0  0.91683860549E+02 -0.13931839829E+02  0.91831942195E+03  0.93762230518E+03  0.16500000000E+03 0.  0.
   -5000001    1    1    2    0    0 -0.91683860549E+02  0.13931839829E+02  0.30036438861E+03  0.35502646717E+03  0.16500000000E+03 0.  0.
<mgrwt>
<rscale>  0 0.43098796E+03</rscale>
<asrwt>0</asrwt>
<pdfrwt beam="1">  1        2 0.56896128E-02 0.43098796E+03</pdfrwt>
<pdfrwt beam="2">  1       -2 0.19317942E+00 0.43098796E+03</pdfrwt>
<totfact> 0.21068177E+02</totfact>
</mgrwt>
</event>
<event>
 4    1  0.9050888E-005  0.7672136E+03  0.7818608E-02  0.9608725E-01
         -2   -1    0    0    0  501 -0.00000000000E+00  0.00000000000E+00  0.21841125985E+03  0.21841125986E+03  0.25500000000E-02 0. -1.
          2   -1    0    0  501    0  0.00000000000E+00 -0.00000000000E+00 -0.67374808406E+03  0.67374808406E+03  0.25500000000E-02 0.  1.
    5000001    1    1    2    0    0 -0.16797509210E+03 -0.28818499040E+03 -0.33590123684E+03  0.50131912108E+03  0.16500000000E+03 0.  0.
   -5000001    1    1    2    0    0  0.16797509210E+03  0.28818499040E+03 -0.11943558737E+03  0.39084022284E+03  0.16500000000E+03 0.  0.
<mgrwt>
<rscale>  0 0.76721358E+03</rscale>
<asrwt>0</asrwt>
<pdfrwt beam="1">  1        2 0.10365355E+00 0.76721358E+03</pdfrwt>
<pdfrwt beam="2">  1       -2 0.33601732E-01 0.76721358E+03</pdfrwt>
<totfact> 0.35808063E+02</totfact>
</mgrwt>
</event>
<event>
 4    1  0.9050888E-005  0.4559818E+03  0.7818608E-02  0.1025953E+00
          2   -1    0    0  501    0  0.00000000000E+00  0.00000000000E+00  0.77900208545E+03  0.77900208546E+03  0.25500000000E-02 0.  1.
         -2   -1    0    0    0  501 -0.00000000000E+00 -0.00000000000E+00 -0.66726204314E+02  0.66726204362E+02  0.25500000000E-02 0. -1.
    5000001    1    1    2    0    0 -0.10222617812E+03 -0.98961157419E+02  0.48071457984E+03  0.52778310833E+03  0.16500000000E+03 0.  0.
   -5000001    1    1    2    0    0  0.10222617812E+03  0.98961157419E+02  0.23156130130E+03  0.31794518149E+03  0.16500000000E+03 0.  0.
<mgrwt>
<rscale>  0 0.45598181E+03</rscale>
<asrwt>0</asrwt>
<pdfrwt beam="1">  1        2 0.11984647E+00 0.45598181E+03</pdfrwt>
<pdfrwt beam="2">  1       -2 0.10265570E-01 0.45598181E+03</pdfrwt>
<totfact> 0.23448004E+03</totfact>
</mgrwt>
</event>
<event>
 4    1  0.9050888E-005  0.3714604E+03  0.7818608E-02  0.1054136E+00
         -2   -1    0    0    0  501 -0.00000000000E+00  0.00000000000E+00  0.14186721425E+03  0.14186721428E+03  0.25500000000E-02 0. -1.
          2   -1    0    0  501    0  0.00000000000E+00 -0.00000000000E+00 -0.24315484067E+03  0.24315484068E+03  0.25500000000E-02 0.  1.
    5000001    1    1    2    0    0 -0.39231707764E+02  0.52491366025E+02  0.59027661982E+01  0.17763533728E+03  0.16500000000E+03 0.  0.
   -5000001    1    1    2    0    0  0.39231707764E+02 -0.52491366025E+02 -0.10719039261E+03  0.20738671768E+03  0.16500000000E+03 0.  0.
<mgrwt>
<rscale>  0 0.37146036E+03</rscale>
<asrwt>0</asrwt>
<pdfrwt beam="1">  1        2 0.37408437E-01 0.37146036E+03</pdfrwt>
<pdfrwt beam="2">  1       -2 0.21825725E-01 0.37146036E+03</pdfrwt>
<totfact> 0.24965321E+03</totfact>
</mgrwt>
</event>
<event>
 4    1  0.9050888E-005  0.4784560E+03  0.7818608E-02  0.1019560E+00
          2   -1    0    0  501    0  0.00000000000E+00  0.00000000000E+00  0.85723775619E+02  0.85723775657E+02  0.25500000000E-02 0.  1.
         -2   -1    0    0    0  501 -0.00000000000E+00 -0.00000000000E+00 -0.66760989407E+03  0.66760989407E+03  0.25500000000E-02 0. -1.
    5000001    1    1    2    0    0  0.75486202777E+02 -0.14938997494E+03 -0.36117236050E+03  0.43091299054E+03  0.16500000000E+03 0.  0.
   -5000001    1    1    2    0    0 -0.75486202777E+02  0.14938997494E+03 -0.22071375795E+03  0.32242067919E+03  0.16500000000E+03 0.  0.
<mgrwt>
<rscale>  0 0.47845602E+03</rscale>
<asrwt>0</asrwt>
<pdfrwt beam="1">  1        2 0.13188274E-01 0.47845602E+03</pdfrwt>
<pdfrwt beam="2">  1       -2 0.10270921E+00 0.47845602E+03</pdfrwt>
<totfact> 0.36798934E+02</totfact>
</mgrwt>
</event>
<event>
 4    1  0.9050888E-005  0.3754179E+03  0.7818608E-02  0.1052640E+00
         -2   -1    0    0    0  501 -0.00000000000E+00  0.00000000000E+00  0.87543366304E+03  0.87543366305E+03  0.25500000000E-02 0. -1.
          2   -1    0    0  501    0  0.00000000000E+00 -0.00000000000E+00 -0.40248213553E+02  0.40248213633E+02  0.25500000000E-02 0.  1.
    5000001    1    1    2    0    0  0.30746411722E+02  0.25040418871E+02  0.61328819990E+03  0.63633307359E+03  0.16500000000E+03 0.  0.
   -5000001    1    1    2    0    0 -0.30746411722E+02 -0.25040418871E+02  0.22189724959E+03  0.27934880309E+03  0.16500000000E+03 0.  0.
<mgrwt>
<rscale>  0 0.37541785E+03</rscale>
<asrwt>0</asrwt>
<pdfrwt beam="1">  1        2 0.61920323E-02 0.37541785E+03</pdfrwt>
<pdfrwt beam="2">  1       -2 0.13468211E+00 0.37541785E+03</pdfrwt>
<totfact> 0.49715716E+02</totfact>
</mgrwt>
</event>
<event>
 4    1  0.9050888E-005  0.7218234E+03  0.7818608E-02  0.9680622E-01
          2   -1    0    0  501    0  0.00000000000E+00  0.00000000000E+00  0.65595315267E+03  0.65595315267E+03  0.25500000000E-02 0.  1.
         -2   -1    0    0    0  501 -0.00000000000E+00 -0.00000000000E+00 -0.19857706508E+03  0.19857706509E+03  0.25500000000E-02 0. -1.
    5000001    1    1    2    0    0  0.15327349615E+02  0.30934331742E+03  0.32846932057E+03  0.48067172814E+03  0.16500000000E+03 0.  0.
   -5000001    1    1    2    0    0 -0.15327349615E+02 -0.30934331742E+03  0.12890676703E+03  0.37385848963E+03  0.16500000000E+03 0.  0.
<mgrwt>
<rscale>  0 0.72182339E+03</rscale>
<asrwt>0</asrwt>
<pdfrwt beam="1">  1        2 0.10091587E+00 0.72182339E+03</pdfrwt>
<pdfrwt beam="2">  1       -2 0.30550318E-01 0.72182339E+03</pdfrwt>
<totfact> 0.44323853E+02</totfact>
</mgrwt>
</event>
<event>
 4    1  0.9050888E-005  0.5553429E+03  0.7818608E-02  0.1000265E+00
          2   -1    0    0  501    0  0.00000000000E+00  0.00000000000E+00  0.84769443748E+03  0.84769443748E+03  0.25500000000E-02 0.  1.
         -2   -1    0    0    0  501 -0.00000000000E+00 -0.00000000000E+00 -0.90954263525E+02  0.90954263561E+02  0.25500000000E-02 0. -1.
    5000001    1    1    2    0    0  0.81324427422E+02  0.20799602425E+03  0.37728166738E+03  0.46844686480E+03  0.16500000000E+03 0.  0.
   -5000001    1    1    2    0    0 -0.81324427422E+02 -0.20799602425E+03  0.37945850657E+03  0.47020183625E+03  0.16500000000E+03 0.  0.
<mgrwt>
<rscale>  0 0.55534286E+03</rscale>
<asrwt>0</asrwt>
<pdfrwt beam="1">  1        2 0.13041453E+00 0.55534286E+03</pdfrwt>
<pdfrwt beam="2">  1       -2 0.13992963E-01 0.55534286E+03</pdfrwt>
<totfact> 0.12613988E+03</totfact>
</mgrwt>
</event>
<event>
 4    1  0.9050888E-005  0.5460427E+03  0.7818608E-02  0.1002414E+00
         -2   -1    0    0    0  501 -0.00000000000E+00  0.00000000000E+00  0.73184446115E+02  0.73184446160E+02  0.25500000000E-02 0. -1.
          2   -1    0    0  501    0  0.00000000000E+00 -0.00000000000E+00 -0.10185313200E+04  0.10185313200E+04  0.25500000000E-02 0.  1.
    5000001    1    1    2    0    0  0.12293762618E+03 -0.14808152044E+03 -0.27002199880E+03  0.37037639836E+03  0.16500000000E+03 0.  0.
   -5000001    1    1    2    0    0 -0.12293762618E+03  0.14808152044E+03 -0.67532487505E+03  0.72133936776E+03  0.16500000000E+03 0.  0.
<mgrwt>
<rscale>  0 0.54604267E+03</rscale>
<asrwt>0</asrwt>
<pdfrwt beam="1">  1        2 0.15669712E+00 0.54604267E+03</pdfrwt>
<pdfrwt beam="2">  1       -2 0.11259146E-01 0.54604267E+03</pdfrwt>
<totfact> 0.13965745E+03</totfact>
</mgrwt>
</event>
<event>
 4    1  0.9050888E-005  0.6831528E+03  0.7818608E-02  0.9746485E-01
          2   -1    0    0  501    0  0.00000000000E+00  0.00000000000E+00  0.10495327696E+04  0.10495327696E+04  0.25500000000E-02 0.  1.
         -2   -1    0    0    0  501 -0.00000000000E+00 -0.00000000000E+00 -0.11116797084E+03  0.11116797087E+03  0.25500000000E-02 0. -1.
    5000001    1    1    2    0    0  0.29018169443E+03  0.34185745756E+01  0.59208181537E+03  0.67970800975E+03  0.16500000000E+03 0.  0.
   -5000001    1    1    2    0    0 -0.29018169443E+03 -0.34185745756E+01  0.34628298343E+03  0.48099273076E+03  0.16500000000E+03 0.  0.
<mgrwt>
<rscale>  0 0.68315277E+03</rscale>
<asrwt>0</asrwt>
<pdfrwt beam="1">  1        2 0.16146657E+00 0.68315277E+03</pdfrwt>
<pdfrwt beam="2">  1       -2 0.17102765E-01 0.68315277E+03</pdfrwt>
<totfact> 0.66119837E+02</totfact>
</mgrwt>
</event>
<event>
 4    1  0.9050888E-005  0.4948732E+03  0.7818608E-02  0.1015126E+00
         -2   -1    0    0    0  501 -0.00000000000E+00  0.00000000000E+00  0.31320374841E+03  0.31320374842E+03  0.25500000000E-02 0. -1.
          2   -1    0    0  501    0  0.00000000000E+00 -0.00000000000E+00 -0.19547940078E+03  0.19547940080E+03  0.25500000000E-02 0.  1.
    5000001    1    1    2    0    0 -0.17195799912E+03  0.56240602873E+02  0.22269267697E+02  0.24587289228E+03  0.16500000000E+03 0.  0.
   -5000001    1    1    2    0    0  0.17195799912E+03 -0.56240602873E+02  0.95455079933E+02  0.26281025695E+03  0.16500000000E+03 0.  0.
<mgrwt>
<rscale>  0 0.49487324E+03</rscale>
<asrwt>0</asrwt>
<pdfrwt beam="1">  1        2 0.30073754E-01 0.49487324E+03</pdfrwt>
<pdfrwt beam="2">  1       -2 0.48185192E-01 0.49487324E+03</pdfrwt>
<totfact> 0.72777949E+02</totfact>
</mgrwt>
</event>
<event>
 4    1  0.9050888E-005  0.4518463E+03  0.7818608E-02  0.1027173E+00
          2   -1    0    0  501    0  0.00000000000E+00  0.00000000000E+00  0.23955578413E+03  0.23955578414E+03  0.25500000000E-02 0.  1.
         -2   -1    0    0    0  501 -0.00000000000E+00 -0.00000000000E+00 -0.21306634009E+03  0.21306634011E+03  0.25500000000E-02 0. -1.
    5000001    1    1    2    0    0 -0.70989804735E+02 -0.13628708525E+03  0.27501241411E+02  0.22714541655E+03  0.16500000000E+03 0.  0.
   -5000001    1    1    2    0    0  0.70989804735E+02  0.13628708525E+03 -0.10117973770E+01  0.22547670770E+03  0.16500000000E+03 0.  0.
<mgrwt>
<rscale>  0 0.45184632E+03</rscale>
<asrwt>0</asrwt>
<pdfrwt beam="1">  1        2 0.36854736E-01 0.45184632E+03</pdfrwt>
<pdfrwt beam="2">  1       -2 0.32779437E-01 0.45184632E+03</pdfrwt>
<totfact> 0.12223616E+03</totfact>
</mgrwt>
</event>
<event>
 4    1  0.9050888E-005  0.4266590E+03  0.7818608E-02  0.1034921E+00
         -2   -1    0    0    0  501 -0.00000000000E+00  0.00000000000E+00  0.42857203456E+02  0.42857203532E+02  0.25500000000E-02 0. -1.
          2   -1    0    0  501    0  0.00000000000E+00 -0.00000000000E+00 -0.10618863452E+04  0.10618863452E+04  0.25500000000E-02 0.  1.
    5000001    1    1    2    0    0  0.93111886768E+02 -0.95209143818E+02 -0.44879727800E+03  0.49636539088E+03  0.16500000000E+03 0.  0.
   -5000001    1    1    2    0    0 -0.93111886768E+02  0.95209143818E+02 -0.57023186374E+03  0.60837815785E+03  0.16500000000E+03 0.  0.
<mgrwt>
<rscale>  0 0.42665902E+03</rscale>
<asrwt>0</asrwt>
<pdfrwt beam="1">  1        2 0.16336711E+00 0.42665902E+03</pdfrwt>
<pdfrwt beam="2">  1       -2 0.65934167E-02 0.42665902E+03</pdfrwt>
<totfact> 0.30884191E+03</totfact>
</mgrwt>
</event>
<event>
 4    1  0.9050888E-005  0.3670523E+03  0.7818608E-02  0.1055826E+00
         -2   -1    0    0    0  501 -0.00000000000E+00  0.00000000000E+00  0.22325073128E+04  0.22325073128E+04  0.25500000000E-02 0. -1.
          2   -1    0    0  501    0  0.00000000000E+00 -0.00000000000E+00 -0.15087001473E+02  0.15087001689E+02  0.25500000000E-02 0.  1.
    5000001    1    1    2    0    0  0.55463458999E+02  0.57835964473E+02  0.10721504005E+04  0.10877282176E+04  0.16500000000E+03 0.  0.
   -5000001    1    1    2    0    0 -0.55463458999E+02 -0.57835964473E+02  0.11452699109E+04  0.11598660970E+04  0.16500000000E+03 0.  0.
<mgrwt>
<rscale>  0 0.36705227E+03</rscale>
<asrwt>0</asrwt>
<pdfrwt beam="1">  1        2 0.23210759E-02 0.36705227E+03</pdfrwt>
<pdfrwt beam="2">  1       -2 0.34346285E+00 0.36705227E+03</pdfrwt>
<totfact> 0.89165337E+01</totfact>
</mgrwt>
</event>
<event>
 4    1  0.9050888E-005  0.6669531E+03  0.7818608E-02  0.9775478E-01
         -2   -1    0    0    0  501 -0.00000000000E+00  0.00000000000E+00  0.45165266825E+02  0.45165266897E+02  0.25500000000E-02 0. -1.
          2   -1    0    0  501    0  0.00000000000E+00 -0.00000000000E+00 -0.24622155340E+04  0.24622155340E+04  0.25500000000E-02 0.  1.
    5000001    1    1    2    0    0  0.33634359130E+02 -0.22846160546E+03 -0.18667589884E+04  0.18882108188E+04  0.16500000000E+03 0.  0.
   -5000001    1    1    2    0    0 -0.33634359130E+02  0.22846160546E+03 -0.55029127871E+03  0.61916998208E+03  0.16500000000E+03 0.  0.
<mgrwt>
<rscale>  0 0.66695314E+03</rscale>
<asrwt>0</asrwt>
<pdfrwt beam="1">  1        2 0.37880229E+00 0.66695314E+03</pdfrwt>
<pdfrwt beam="2">  1       -2 0.69485045E-02 0.66695314E+03</pdfrwt>
<totfact> 0.47082031E+02</totfact>
</mgrwt>
</event>
<event>
 4    1  0.9050888E-005  0.5656856E+03  0.7818608E-02  0.9979271E-01
         -2   -1    0    0    0  501 -0.00000000000E+00  0.00000000000E+00  0.31515299560E+03  0.31515299561E+03  0.25500000000E-02 0. -1.
          2   -1    0    0  501    0  0.00000000000E+00 -0.00000000000E+00 -0.25384515514E+03  0.25384515515E+03  0.25500000000E-02 0.  1.
    5000001    1    1    2    0    0  0.77140275609E+02  0.11894805981E+03  0.21247691280E+03  0.30408995631E+03  0.16500000000E+03 0.  0.
   -5000001    1    1    2    0    0 -0.77140275609E+02 -0.11894805981E+03 -0.15116907234E+03  0.26490819445E+03  0.16500000000E+03 0.  0.
<mgrwt>
<rscale>  0 0.56568564E+03</rscale>
<asrwt>0</asrwt>
<pdfrwt beam="1">  1        2 0.39053101E-01 0.56568564E+03</pdfrwt>
<pdfrwt beam="2">  1       -2 0.48485076E-01 0.56568564E+03</pdfrwt>
<totfact> 0.53722037E+02</totfact>
</mgrwt>
</event>
<event>
 4    1  0.9050888E-005  0.6049184E+03  0.7818608E-02  0.9895254E-01
         -2   -1    0    0    0  501 -0.00000000000E+00  0.00000000000E+00  0.27751209953E+03  0.27751209954E+03  0.25500000000E-02 0. -1.
          2   -1    0    0  501    0  0.00000000000E+00 -0.00000000000E+00 -0.32964894012E+03  0.32964894013E+03  0.25500000000E-02 0.  1.
    5000001    1    1    2    0    0 -0.24148395028E+03  0.65640364369E+02  0.14496927890E+02  0.30009717859E+03  0.16500000000E+03 0.  0.
   -5000001    1    1    2    0    0  0.24148395028E+03 -0.65640364369E+02 -0.66633768486E+02  0.30706386108E+03  0.16500000000E+03 0.  0.
<mgrwt>
<rscale>  0 0.60491841E+03</rscale>
<asrwt>0</asrwt>
<pdfrwt beam="1">  1        2 0.50715222E-01 0.60491841E+03</pdfrwt>
<pdfrwt beam="2">  1       -2 0.42694169E-01 0.60491841E+03</pdfrwt>
<totfact> 0.51809884E+02</totfact>
</mgrwt>
</event>
<event>
 4    1  0.9050888E-005  0.5949450E+03  0.7818608E-02  0.9915949E-01
         -2   -1    0    0    0  501 -0.00000000000E+00  0.00000000000E+00  0.25256745517E+03  0.25256745518E+03  0.25500000000E-02 0. -1.
          2   -1    0    0  501    0  0.00000000000E+00 -0.00000000000E+00 -0.35036142271E+03  0.35036142272E+03  0.25500000000E-02 0.  1.
    5000001    1    1    2    0    0  0.15134584344E+03  0.24956937930E+02  0.14796866742E+03  0.26953318834E+03  0.16500000000E+03 0.  0.
   -5000001    1    1    2    0    0 -0.15134584344E+03 -0.24956937930E+02 -0.24576263496E+03  0.33339568956E+03  0.16500000000E+03 0.  0.
<mgrwt>
<rscale>  0 0.59494502E+03</rscale>
<asrwt>0</asrwt>
<pdfrwt beam="1">  1        2 0.53901758E-01 0.59494502E+03</pdfrwt>
<pdfrwt beam="2">  1       -2 0.38856531E-01 0.59494502E+03</pdfrwt>
<totfact> 0.58193815E+02</totfact>
</mgrwt>
</event>
<event>
 4    1  0.9050888E-005  0.3551729E+03  0.7818608E-02  0.1060512E+00
          2   -1    0    0  501    0  0.00000000000E+00  0.00000000000E+00  0.10635782553E+04  0.10635782553E+04  0.25500000000E-02 0.  1.
         -2   -1    0    0    0  501 -0.00000000000E+00 -0.00000000000E+00 -0.29651748766E+02  0.29651748875E+02  0.25500000000E-02 0. -1.
    5000001    1    1    2    0    0 -0.39181455833E+02 -0.45091191175E+02  0.43303122618E+03  0.46723596271E+03  0.16500000000E+03 0.  0.
   -5000001    1    1    2    0    0  0.39181455833E+02  0.45091191175E+02  0.60089528037E+03  0.62599404149E+03  0.16500000000E+03 0.  0.
<mgrwt>
<rscale>  0 0.35517295E+03</rscale>
<asrwt>0</asrwt>
<pdfrwt beam="1">  1        2 0.16362742E+00 0.35517295E+03</pdfrwt>
<pdfrwt beam="2">  1       -2 0.45618076E-02 0.35517295E+03</pdfrwt>
<totfact> 0.54305608E+03</totfact>
</mgrwt>
</event>
<event>
 4    1  0.9050888E-005  0.6572364E+03  0.7818608E-02  0.9793295E-01
         -2   -1    0    0    0  501 -0.00000000000E+00  0.00000000000E+00  0.28974740593E+03  0.28974740594E+03  0.25500000000E-02 0. -1.
          2   -1    0    0  501    0  0.00000000000E+00 -0.00000000000E+00 -0.37270369542E+03  0.37270369543E+03  0.25500000000E-02 0.  1.
    5000001    1    1    2    0    0 -0.45875327610E+02 -0.27323581891E+03  0.22289694182E+02  0.32324014120E+03  0.16500000000E+03 0.  0.
   -5000001    1    1    2    0    0  0.45875327610E+02  0.27323581891E+03 -0.10524598368E+03  0.33921096017E+03  0.16500000000E+03 0.  0.
<mgrwt>
<rscale>  0 0.65723642E+03</rscale>
<asrwt>0</asrwt>
<pdfrwt beam="1">  1        2 0.57339030E-01 0.65723642E+03</pdfrwt>
<pdfrwt beam="2">  1       -2 0.44576524E-01 0.65723642E+03</pdfrwt>
<totfact> 0.41459931E+02</totfact>
</mgrwt>
</event>
<event>
 4    1  0.9050888E-005  0.3826441E+03  0.7818608E-02  0.1049961E+00
          2   -1    0    0  501    0  0.00000000000E+00  0.00000000000E+00  0.13988707525E+03  0.13988707527E+03  0.25500000000E-02 0.  1.
         -2   -1    0    0    0  501 -0.00000000000E+00 -0.00000000000E+00 -0.26166913346E+03  0.26166913347E+03  0.25500000000E-02 0. -1.
    5000001    1    1    2    0    0  0.30800387471E+01  0.79489283378E+02 -0.29242311567E+01  0.18319820943E+03  0.16500000000E+03 0.  0.
   -5000001    1    1    2    0    0 -0.30800387471E+01 -0.79489283378E+02 -0.11885782706E+03  0.21835799931E+03  0.16500000000E+03 0.  0.
<mgrwt>
<rscale>  0 0.38264412E+03</rscale>
<asrwt>0</asrwt>
<pdfrwt beam="1">  1        2 0.21521089E-01 0.38264412E+03</pdfrwt>
<pdfrwt beam="2">  1       -2 0.40256790E-01 0.38264412E+03</pdfrwt>
<totfact> 0.15115879E+03</totfact>
</mgrwt>
</event>
<event>
 4    1  0.9050888E-005  0.3941830E+03  0.7818608E-02  0.1045813E+00
         -2   -1    0    0    0  501 -0.00000000000E+00  0.00000000000E+00  0.54360311592E+02  0.54360311652E+02  0.25500000000E-02 0. -1.
          2   -1    0    0  501    0  0.00000000000E+00 -0.00000000000E+00 -0.71458480915E+03  0.71458480915E+03  0.25500000000E-02 0.  1.
    5000001    1    1    2    0    0  0.59689601109E+02 -0.76504497349E+02 -0.42169833975E+03  0.46310935678E+03  0.16500000000E+03 0.  0.
   -5000001    1    1    2    0    0 -0.59689601109E+02  0.76504497349E+02 -0.23852615781E+03  0.30583576402E+03  0.16500000000E+03 0.  0.
<mgrwt>
<rscale>  0 0.39418297E+03</rscale>
<asrwt>0</asrwt>
<pdfrwt beam="1">  1        2 0.10993612E+00 0.39418297E+03</pdfrwt>
<pdfrwt beam="2">  1       -2 0.83631254E-02 0.39418297E+03</pdfrwt>
<totfact> 0.36245987E+03</totfact>
</mgrwt>
</event>
<event>
 4    1  0.9050888E-005  0.8714329E+03  0.7818608E-02  0.9462014E-01
          2   -1    0    0  501    0  0.00000000000E+00  0.00000000000E+00  0.17872266891E+03  0.17872266893E+03  0.25500000000E-02 0.  1.
         -2   -1    0    0    0  501 -0.00000000000E+00 -0.00000000000E+00 -0.10622536550E+04  0.10622536550E+04  0.25500000000E-02 0. -1.
    5000001    1    1    2    0    0  0.12997927662E+03 -0.38026644094E+03 -0.48956464472E+03  0.65451945717E+03  0.16500000000E+03 0.  0.
   -5000001    1    1    2    0    0 -0.12997927662E+03  0.38026644094E+03 -0.39396634138E+03  0.58645686678E+03  0.16500000000E+03 0.  0.
<mgrwt>
<rscale>  0 0.87143286E+03</rscale>
<asrwt>0</asrwt>
<pdfrwt beam="1">  1        2 0.27495796E-01 0.87143286E+03</pdfrwt>
<pdfrwt beam="2">  1       -2 0.16342364E+00 0.87143286E+03</pdfrwt>
<totfact> 0.46965499E+01</totfact>
</mgrwt>
</event>
<event>
 4    1  0.9050888E-005  0.8774332E+03  0.7818608E-02  0.9454239E-01
         -2   -1    0    0    0  501 -0.00000000000E+00  0.00000000000E+00  0.25140824512E+03  0.25140824513E+03  0.25500000000E-02 0. -1.
          2   -1    0    0  501    0  0.00000000000E+00 -0.00000000000E+00 -0.76557662871E+03  0.76557662871E+03  0.25500000000E-02 0.  1.
    5000001    1    1    2    0    0  0.39094628230E+03 -0.79723900234E+02 -0.34725449485E+03  0.55408084258E+03  0.16500000000E+03 0.  0.
   -5000001    1    1    2    0    0 -0.39094628230E+03  0.79723900234E+02 -0.16691388873E+03  0.46290403127E+03  0.16500000000E+03 0.  0.
<mgrwt>
<rscale>  0 0.87743325E+03</rscale>
<asrwt>0</asrwt>
<pdfrwt beam="1">  1        2 0.11778102E+00 0.87743325E+03</pdfrwt>
<pdfrwt beam="2">  1       -2 0.38678192E-01 0.87743325E+03</pdfrwt>
<totfact> 0.23127321E+02</totfact>
</mgrwt>
</event>
<event>
 4    1  0.9050888E-005  0.3689904E+03  0.7818608E-02  0.1055080E+00
          2   -1    0    0  501    0  0.00000000000E+00  0.00000000000E+00  0.56026421462E+02  0.56026421520E+02  0.25500000000E-02 0.  1.
         -2   -1    0    0    0  501 -0.00000000000E+00 -0.00000000000E+00 -0.60754317228E+03  0.60754317228E+03  0.25500000000E-02 0. -1.
    5000001    1    1    2    0    0  0.67367425652E+02 -0.14487063503E+02 -0.19403333703E+03  0.26386015411E+03  0.16500000000E+03 0.  0.
   -5000001    1    1    2    0    0 -0.67367425652E+02  0.14487063503E+02 -0.35748341379E+03  0.39970943969E+03  0.16500000000E+03 0.  0.
<mgrwt>
<rscale>  0 0.36899035E+03</rscale>
<asrwt>0</asrwt>
<pdfrwt beam="1">  1        2 0.86194499E-02 0.36899035E+03</pdfrwt>
<pdfrwt beam="2">  1       -2 0.93468176E-01 0.36899035E+03</pdfrwt>
<totfact> 0.77981690E+02</totfact>
</mgrwt>
</event>
<event>
 4    1  0.9050888E-005  0.5229785E+03  0.7818608E-02  0.1007949E+00
          2   -1    0    0  501    0  0.00000000000E+00  0.00000000000E+00  0.95491507607E+03  0.95491507607E+03  0.25500000000E-02 0.  1.
         -2   -1    0    0    0  501 -0.00000000000E+00 -0.00000000000E+00 -0.71604930529E+02  0.71604930574E+02  0.25500000000E-02 0. -1.
    5000001    1    1    2    0    0  0.19982841017E+03  0.12152839190E+02  0.37737285106E+03  0.45794579781E+03  0.16500000000E+03 0.  0.
   -5000001    1    1    2    0    0 -0.19982841017E+03 -0.12152839190E+02  0.50593729447E+03  0.56857420883E+03  0.16500000000E+03 0.  0.
<mgrwt>
<rscale>  0 0.52297850E+03</rscale>
<asrwt>0</asrwt>
<pdfrwt beam="1">  1        2 0.14691000E+00 0.52297850E+03</pdfrwt>
<pdfrwt beam="2">  1       -2 0.11016144E-01 0.52297850E+03</pdfrwt>
<totfact> 0.15887924E+03</totfact>
</mgrwt>
</event>
<event>
 4    1  0.9050888E-005  0.5033069E+03  0.7818608E-02  0.1012919E+00
          2   -1    0    0  501    0  0.00000000000E+00  0.00000000000E+00  0.74819375361E+03  0.74819375361E+03  0.25500000000E-02 0.  1.
         -2   -1    0    0    0  501 -0.00000000000E+00 -0.00000000000E+00 -0.84643112991E+02  0.84643113029E+02  0.25500000000E-02 0. -1.
    5000001    1    1    2    0    0 -0.11567546452E+03 -0.92496838867E+02  0.13481401685E+03  0.25949238415E+03  0.16500000000E+03 0.  0.
   -5000001    1    1    2    0    0  0.11567546452E+03  0.92496838867E+02  0.52873662377E+03  0.57334448250E+03  0.16500000000E+03 0.  0.
<mgrwt>
<rscale>  0 0.50330686E+03</rscale>
<asrwt>0</asrwt>
<pdfrwt beam="1">  1        2 0.11510673E+00 0.50330686E+03</pdfrwt>
<pdfrwt beam="2">  1       -2 0.13022017E-01 0.50330686E+03</pdfrwt>
<totfact> 0.16744243E+03</totfact>
</mgrwt>
</event>
<event>
 4    1  0.9050888E-005  0.7031508E+03  0.7818608E-02  0.9711859E-01
          2   -1    0    0  501    0  0.00000000000E+00  0.00000000000E+00  0.12479188863E+04  0.12479188863E+04  0.25500000000E-02 0.  1.
         -2   -1    0    0    0  501 -0.00000000000E+00 -0.00000000000E+00 -0.99049121675E+02  0.99049121708E+02  0.25500000000E-02 0. -1.
    5000001    1    1    2    0    0 -0.94684340053E+02  0.29459631923E+03  0.62244600734E+03  0.71443414505E+03  0.16500000000E+03 0.  0.
   -5000001    1    1    2    0    0  0.94684340053E+02 -0.29459631923E+03  0.52642375725E+03  0.63253386293E+03  0.16500000000E+03 0.  0.
<mgrwt>
<rscale>  0 0.70315082E+03</rscale>
<asrwt>0</asrwt>
<pdfrwt beam="1">  1        2 0.19198751E+00 0.70315082E+03</pdfrwt>
<pdfrwt beam="2">  1       -2 0.15238327E-01 0.70315082E+03</pdfrwt>
<totfact> 0.61117720E+02</totfact>
</mgrwt>
</event>
<event>
 4    1  0.9050888E-005  0.3930812E+03  0.7818608E-02  0.1046202E+00
          2   -1    0    0  501    0  0.00000000000E+00  0.00000000000E+00  0.21574707968E+04  0.21574707968E+04  0.25500000000E-02 0.  1.
         -2   -1    0    0    0  501 -0.00000000000E+00 -0.00000000000E+00 -0.17904394193E+02  0.17904394374E+02  0.25500000000E-02 0. -1.
    5000001    1    1    2    0    0  0.74308246232E+02 -0.24125281203E+02  0.66691050551E+03  0.69144657568E+03  0.16500000000E+03 0.  0.
   -5000001    1    1    2    0    0 -0.74308246232E+02  0.24125281203E+02  0.14726558971E+04  0.14839286155E+04  0.16500000000E+03 0.  0.
<mgrwt>
<rscale>  0 0.39308120E+03</rscale>
<asrwt>0</asrwt>
<pdfrwt beam="1">  1        2 0.33191851E+00 0.39308120E+03</pdfrwt>
<pdfrwt beam="2">  1       -2 0.27545228E-02 0.39308120E+03</pdfrwt>
<totfact> 0.29334715E+03</totfact>
</mgrwt>
</event>
<event>
 4    1  0.9050888E-005  0.8937043E+03  0.7818608E-02  0.9433486E-01
         -2   -1    0    0    0  501 -0.00000000000E+00  0.00000000000E+00  0.19965686324E+03  0.19965686325E+03  0.25500000000E-02 0. -1.
          2   -1    0    0  501    0  0.00000000000E+00 -0.00000000000E+00 -0.10001000265E+04  0.10001000265E+04  0.25500000000E-02 0.  1.
    5000001    1    1    2    0    0 -0.34052304267E+03 -0.23102731572E+02 -0.82646343558E+02  0.38800141353E+03  0.16500000000E+03 0.  0.
   -5000001    1    1    2    0    0  0.34052304267E+03  0.23102731572E+02 -0.71779681966E+03  0.81175547618E+03  0.16500000000E+03 0.  0.
<mgrwt>
<rscale>  0 0.89370428E+03</rscale>
<asrwt>0</asrwt>
<pdfrwt beam="1">  1        2 0.15386154E+00 0.89370428E+03</pdfrwt>
<pdfrwt beam="2">  1       -2 0.30716441E-01 0.89370428E+03</pdfrwt>
<totfact> 0.24744280E+02</totfact>
</mgrwt>
</event>
<event>
 4    1  0.9050888E-005  0.9332220E+03  0.7818608E-02  0.9384979E-01
         -2   -1    0    0    0  501 -0.00000000000E+00  0.00000000000E+00  0.85727509764E+02  0.85727509802E+02  0.25500000000E-02 0. -1.
          2   -1    0    0  501    0  0.00000000000E+00 -0.00000000000E+00 -0.25397427429E+04  0.25397427429E+04  0.25500000000E-02 0.  1.
    5000001    1    1    2    0    0 -0.38968436991E+03  0.16090400832E+03 -0.15447632283E+04  0.16097398671E+04  0.16500000000E+03 0.  0.
   -5000001    1    1    2    0    0  0.38968436991E+03 -0.16090400832E+03 -0.90925200480E+03  0.10157303856E+04  0.16500000000E+03 0.  0.
<mgrwt>
<rscale>  0 0.93322199E+03</rscale>
<asrwt>0</asrwt>
<pdfrwt beam="1">  1        2 0.39072960E+00 0.93322199E+03</pdfrwt>
<pdfrwt beam="2">  1       -2 0.13188850E-01 0.93322199E+03</pdfrwt>
<totfact> 0.14654949E+02</totfact>
</mgrwt>
</event>
<event>
 4    1  0.9050888E-005  0.6932907E+03  0.7818608E-02  0.9728775E-01
          2   -1    0    0  501    0  0.00000000000E+00  0.00000000000E+00  0.25078095085E+04  0.25078095085E+04  0.25500000000E-02 0.  1.
         -2   -1    0    0    0  501 -0.00000000000E+00 -0.00000000000E+00 -0.47915517697E+02  0.47915517765E+02  0.25500000000E-02 0. -1.
    5000001    1    1    2    0    0 -0.23294741673E+03 -0.15571917677E+03  0.16726955252E+04  0.17040094721E+04  0.16500000000E+03 0.  0.
   -5000001    1    1    2    0    0  0.23294741673E+03  0.15571917677E+03  0.78719846565E+03  0.85171555422E+03  0.16500000000E+03 0.  0.
<mgrwt>
<rscale>  0 0.69329068E+03</rscale>
<asrwt>0</asrwt>
<pdfrwt beam="1">  1        2 0.38581683E+00 0.69329068E+03</pdfrwt>
<pdfrwt beam="2">  1       -2 0.73716184E-02 0.69329068E+03</pdfrwt>
<totfact> 0.40304326E+02</totfact>
</mgrwt>
</event>
<event>
 4    1  0.9050888E-005  0.3611132E+03  0.7818608E-02  0.1058144E+00
         -2   -1    0    0    0  501 -0.00000000000E+00  0.00000000000E+00  0.11271409114E+03  0.11271409117E+03  0.25500000000E-02 0. -1.
          2   -1    0    0  501    0  0.00000000000E+00 -0.00000000000E+00 -0.28923337685E+03  0.28923337686E+03  0.25500000000E-02 0.  1.
    5000001    1    1    2    0    0 -0.61686677228E+02  0.38708694772E+02 -0.97708890903E+02  0.20512346662E+03  0.16500000000E+03 0.  0.
   -5000001    1    1    2    0    0  0.61686677228E+02 -0.38708694772E+02 -0.78810394810E+02  0.19682400140E+03  0.16500000000E+03 0.  0.
<mgrwt>
<rscale>  0 0.36111315E+03</rscale>
<asrwt>0</asrwt>
<pdfrwt beam="1">  1        2 0.44497442E-01 0.36111315E+03</pdfrwt>
<pdfrwt beam="2">  1       -2 0.17340630E-01 0.36111315E+03</pdfrwt>
<totfact> 0.30659216E+03</totfact>
</mgrwt>
</event>
<event>
 4    1  0.9050888E-005  0.4487989E+03  0.7818608E-02  0.1028081E+00
         -2   -1    0    0    0  501 -0.00000000000E+00  0.00000000000E+00  0.16669777703E+02  0.16669777898E+02  0.25500000000E-02 0. -1.
          2   -1    0    0  501    0  0.00000000000E+00 -0.00000000000E+00 -0.30207423386E+04  0.30207423386E+04  0.25500000000E-02 0.  1.
    5000001    1    1    2    0    0 -0.65004084439E+02  0.12560942963E+03 -0.18804832833E+04  0.18929991121E+04  0.16500000000E+03 0.  0.
   -5000001    1    1    2    0    0  0.65004084439E+02 -0.12560942963E+03 -0.11235892776E+04  0.11444130044E+04  0.16500000000E+03 0.  0.
<mgrwt>
<rscale>  0 0.44879886E+03</rscale>
<asrwt>0</asrwt>
<pdfrwt beam="1">  1        2 0.46472916E+00 0.44879886E+03</pdfrwt>
<pdfrwt beam="2">  1       -2 0.25645836E-02 0.44879886E+03</pdfrwt>
<totfact> 0.10561648E+03</totfact>
</mgrwt>
</event>
<event>
 4    1  0.9050888E-005  0.1090591E+04  0.7818608E-02  0.9214411E-01
         -2   -1    0    0    0  501 -0.00000000000E+00  0.00000000000E+00  0.11781584410E+03  0.11781584412E+03  0.25500000000E-02 0. -1.
          2   -1    0    0  501    0  0.00000000000E+00 -0.00000000000E+00 -0.25238297627E+04  0.25238297627E+04  0.25500000000E-02 0.  1.
    5000001    1    1    2    0    0 -0.27854407198E+02  0.51006860539E+03 -0.97097591460E+03  0.11094886556E+04  0.16500000000E+03 0.  0.
   -5000001    1    1    2    0    0  0.27854407198E+02 -0.51006860539E+03 -0.14350380040E+04  0.15321569512E+04  0.16500000000E+03 0.  0.
<mgrwt>
<rscale>  0 0.10905909E+04</rscale>
<asrwt>0</asrwt>
<pdfrwt beam="1">  1        2 0.38828146E+00 0.10905909E+04</pdfrwt>
<pdfrwt beam="2">  1       -2 0.18125516E-01 0.10905909E+04</pdfrwt>
<totfact> 0.85841745E+01</totfact>
</mgrwt>
</event>
<event>
 4    1  0.9050888E-005  0.6130485E+03  0.7818608E-02  0.9878698E-01
          2   -1    0    0  501    0  0.00000000000E+00  0.00000000000E+00  0.40641145087E+03  0.40641145088E+03  0.25500000000E-02 0.  1.
         -2   -1    0    0    0  501 -0.00000000000E+00 -0.00000000000E+00 -0.23118719614E+03  0.23118719615E+03  0.25500000000E-02 0. -1.
    5000001    1    1    2    0    0 -0.23193744414E+03  0.95968800976E+02  0.24117043753E+02  0.30134966493E+03  0.16500000000E+03 0.  0.
   -5000001    1    1    2    0    0  0.23193744414E+03 -0.95968800976E+02  0.15110721098E+03  0.33624898210E+03  0.16500000000E+03 0.  0.
<mgrwt>
<rscale>  0 0.61304853E+03</rscale>
<asrwt>0</asrwt>
<pdfrwt beam="1">  1        2 0.62524838E-01 0.61304853E+03</pdfrwt>
<pdfrwt beam="2">  1       -2 0.35567262E-01 0.61304853E+03</pdfrwt>
<totfact> 0.58416266E+02</totfact>
</mgrwt>
</event>
<event>
 4    1  0.9050888E-005  0.3990374E+03  0.7818608E-02  0.1044113E+00
         -2   -1    0    0    0  501 -0.00000000000E+00  0.00000000000E+00  0.24680381874E+02  0.24680382006E+02  0.25500000000E-02 0. -1.
          2   -1    0    0  501    0  0.00000000000E+00 -0.00000000000E+00 -0.16129295177E+04  0.16129295177E+04  0.25500000000E-02 0.  1.
    5000001    1    1    2    0    0 -0.96091491362E+02  0.42804777900E+02 -0.95396044705E+03  0.97382306312E+03  0.16500000000E+03 0.  0.
   -5000001    1    1    2    0    0  0.96091491362E+02 -0.42804777900E+02 -0.63428868879E+03  0.66378683660E+03  0.16500000000E+03 0.  0.
<mgrwt>
<rscale>  0 0.39903742E+03</rscale>
<asrwt>0</asrwt>
<pdfrwt beam="1">  1        2 0.24814292E+00 0.39903742E+03</pdfrwt>
<pdfrwt beam="2">  1       -2 0.37969831E-02 0.39903742E+03</pdfrwt>
<totfact> 0.35311307E+03</totfact>
</mgrwt>
</event>
<event>
 4    1  0.9050888E-005  0.8296253E+03  0.7818608E-02  0.9518099E-01
         -2   -1    0    0    0  501 -0.00000000000E+00  0.00000000000E+00  0.55173745920E+02  0.55173745979E+02  0.25500000000E-02 0. -1.
          2   -1    0    0  501    0  0.00000000000E+00 -0.00000000000E+00 -0.31186852979E+04  0.31186852979E+04  0.25500000000E-02 0.  1.
    5000001    1    1    2    0    0  0.22785017218E+02  0.31537730747E+03 -0.23420590468E+04  0.23690604851E+04  0.16500000000E+03 0.  0.
   -5000001    1    1    2    0    0 -0.22785017218E+02 -0.31537730747E+03 -0.72145250512E+03  0.80479855878E+03  0.16500000000E+03 0.  0.
<mgrwt>
<rscale>  0 0.82962534E+03</rscale>
<asrwt>0</asrwt>
<pdfrwt beam="1">  1        2 0.47979760E+00 0.82962534E+03</pdfrwt>
<pdfrwt beam="2">  1       -2 0.84882711E-02 0.82962534E+03</pdfrwt>
<totfact> 0.13753415E+02</totfact>
</mgrwt>
</event>
<event>
 4    1  0.9050888E-005  0.5110745E+03  0.7818608E-02  0.1010928E+00
         -2   -1    0    0    0  501 -0.00000000000E+00  0.00000000000E+00  0.80144962118E+02  0.80144962158E+02  0.25500000000E-02 0. -1.
          2   -1    0    0  501    0  0.00000000000E+00 -0.00000000000E+00 -0.81476481482E+03  0.81476481483E+03  0.25500000000E-02 0.  1.
    5000001    1    1    2    0    0 -0.19383016527E+03  0.16619414798E+02 -0.39374751145E+03  0.46915715990E+03  0.16500000000E+03 0.  0.
   -5000001    1    1    2    0    0  0.19383016527E+03 -0.16619414798E+02 -0.34087234126E+03  0.42575261708E+03  0.16500000000E+03 0.  0.
<mgrwt>
<rscale>  0 0.51107454E+03</rscale>
<asrwt>0</asrwt>
<pdfrwt beam="1">  1        2 0.12534843E+00 0.51107454E+03</pdfrwt>
<pdfrwt beam="2">  1       -2 0.12329995E-01 0.51107454E+03</pdfrwt>
<totfact> 0.16407239E+03</totfact>
</mgrwt>
</event>
<event>
 4    1  0.9050888E-005  0.4905234E+03  0.7818608E-02  0.1016282E+00
          2   -1    0    0  501    0  0.00000000000E+00  0.00000000000E+00  0.24597118546E+03  0.24597118547E+03  0.25500000000E-02 0.  1.
         -2   -1    0    0    0  501 -0.00000000000E+00 -0.00000000000E+00 -0.24455430385E+03  0.24455430386E+03  0.25500000000E-02 0. -1.
    5000001    1    1    2    0    0 -0.15458236381E+03 -0.44117791101E+02  0.84888512464E+02  0.24550589859E+03  0.16500000000E+03 0.  0.
   -5000001    1    1    2    0    0  0.15458236381E+03  0.44117791101E+02 -0.83471630851E+02  0.24501959075E+03  0.16500000000E+03 0.  0.
<mgrwt>
<rscale>  0 0.49052344E+03</rscale>
<asrwt>0</asrwt>
<pdfrwt beam="1">  1        2 0.37841721E-01 0.49052344E+03</pdfrwt>
<pdfrwt beam="2">  1       -2 0.37623739E-01 0.49052344E+03</pdfrwt>
<totfact> 0.91540963E+02</totfact>
</mgrwt>
</event>
<event>
 4    1  0.9050888E-005  0.7978448E+03  0.7818608E-02  0.9563142E-01
         -2   -1    0    0    0  501 -0.00000000000E+00  0.00000000000E+00  0.57991201363E+02  0.57991201419E+02  0.25500000000E-02 0. -1.
          2   -1    0    0  501    0  0.00000000000E+00 -0.00000000000E+00 -0.27441933750E+04  0.27441933750E+04  0.25500000000E-02 0.  1.
    5000001    1    1    2    0    0  0.35748709787E+03  0.38716869376E+02 -0.15228090266E+04  0.15733621174E+04  0.16500000000E+03 0.  0.
   -5000001    1    1    2    0    0 -0.35748709787E+03 -0.38716869376E+02 -0.11633931471E+04  0.12288224590E+04  0.16500000000E+03 0.  0.
<mgrwt>
<rscale>  0 0.79784477E+03</rscale>
<asrwt>0</asrwt>
<pdfrwt beam="1">  1        2 0.42218350E+00 0.79784477E+03</pdfrwt>
<pdfrwt beam="2">  1       -2 0.89217254E-02 0.79784477E+03</pdfrwt>
<totfact> 0.21478647E+02</totfact>
</mgrwt>
</event>
<event>
 4    1  0.9050888E-005  0.4253019E+03  0.7818608E-02  0.1035354E+00
         -2   -1    0    0    0  501 -0.00000000000E+00  0.00000000000E+00  0.13003525534E+02  0.13003525784E+02  0.25500000000E-02 0. -1.
          2   -1    0    0  501    0  0.00000000000E+00 -0.00000000000E+00 -0.34775514479E+04  0.34775514479E+04  0.25500000000E-02 0.  1.
    5000001    1    1    2    0    0 -0.58985721209E+02 -0.10676348460E+03 -0.21905344285E+04  0.22001235964E+04  0.16500000000E+03 0.  0.
   -5000001    1    1    2    0    0  0.58985721209E+02  0.10676348460E+03 -0.12740134938E+04  0.12904313772E+04  0.16500000000E+03 0.  0.
<mgrwt>
<rscale>  0 0.42530191E+03</rscale>
<asrwt>0</asrwt>
<pdfrwt beam="1">  1        2 0.53500718E+00 0.42530191E+03</pdfrwt>
<pdfrwt beam="2">  1       -2 0.20005452E-02 0.42530191E+03</pdfrwt>
<totfact> 0.78832266E+02</totfact>
</mgrwt>
</event>
<event>
 4    1  0.9050888E-005  0.6314496E+03  0.7818608E-02  0.9842224E-01
         -2   -1    0    0    0  501 -0.00000000000E+00  0.00000000000E+00  0.13234519177E+03  0.13234519179E+03  0.25500000000E-02 0. -1.
          2   -1    0    0  501    0  0.00000000000E+00 -0.00000000000E+00 -0.75319803723E+03  0.75319803723E+03  0.25500000000E-02 0.  1.
    5000001    1    1    2    0    0 -0.12929460303E+03  0.11813798095E+03 -0.23762323605E+02  0.24179190420E+03  0.16500000000E+03 0.  0.
   -5000001    1    1    2    0    0  0.12929460303E+03 -0.11813798095E+03 -0.59709052186E+03  0.64375132482E+03  0.16500000000E+03 0.  0.
<mgrwt>
<rscale>  0 0.63144957E+03</rscale>
<asrwt>0</asrwt>
<pdfrwt beam="1">  1        2 0.11587662E+00 0.63144957E+03</pdfrwt>
<pdfrwt beam="2">  1       -2 0.20360799E-01 0.63144957E+03</pdfrwt>
<totfact> 0.77547342E+02</totfact>
</mgrwt>
</event>
<event>
 4    1  0.9050888E-005  0.3519971E+03  0.7818608E-02  0.1061798E+00
          2   -1    0    0  501    0  0.00000000000E+00  0.00000000000E+00  0.95219117569E+02  0.95219117604E+02  0.25500000000E-02 0.  1.
         -2   -1    0    0    0  501 -0.00000000000E+00 -0.00000000000E+00 -0.32530747126E+03  0.32530747127E+03  0.25500000000E-02 0. -1.
    5000001    1    1    2    0    0  0.61025051250E+02 -0.51071177339E+01 -0.11575180088E+03  0.21065046627E+03  0.16500000000E+03 0.  0.
   -5000001    1    1    2    0    0 -0.61025051250E+02  0.51071177339E+01 -0.11433655281E+03  0.20987612261E+03  0.16500000000E+03 0.  0.
<mgrwt>
<rscale>  0 0.35199710E+03</rscale>
<asrwt>0</asrwt>
<pdfrwt beam="1">  1        2 0.14649095E-01 0.35199710E+03</pdfrwt>
<pdfrwt beam="2">  1       -2 0.50047303E-01 0.35199710E+03</pdfrwt>
<totfact> 0.15452817E+03</totfact>
</mgrwt>
</event>
<event>
 4    1  0.9050888E-005  0.3598697E+03  0.7818608E-02  0.1058635E+00
          2   -1    0    0  501    0  0.00000000000E+00  0.00000000000E+00  0.14872833381E+04  0.14872833381E+04  0.25500000000E-02 0.  1.
         -2   -1    0    0    0  501 -0.00000000000E+00 -0.00000000000E+00 -0.21768921060E+02  0.21768921210E+02  0.25500000000E-02 0. -1.
    5000001    1    1    2    0    0 -0.70455324528E+02  0.25820775320E+01  0.78916237003E+03  0.80930393929E+03  0.16500000000E+03 0.  0.
   -5000001    1    1    2    0    0  0.70455324528E+02 -0.25820775320E+01  0.67635204699E+03  0.69974832000E+03  0.16500000000E+03 0.  0.
<mgrwt>
<rscale>  0 0.35986972E+03</rscale>
<asrwt>0</asrwt>
<pdfrwt beam="1">  1        2 0.22881282E+00 0.35986972E+03</pdfrwt>
<pdfrwt beam="2">  1       -2 0.33490649E-02 0.35986972E+03</pdfrwt>
<totfact> 0.49911608E+03</totfact>
</mgrwt>
</event>
<event>
 4    1  0.9050888E-005  0.9532345E+03  0.7818608E-02  0.9361378E-01
          2   -1    0    0  501    0  0.00000000000E+00  0.00000000000E+00  0.29022783188E+03  0.29022783189E+03  0.25500000000E-02 0. -1.
         -2   -1    0    0    0  501 -0.00000000000E+00 -0.00000000000E+00 -0.78270915868E+03  0.78270915868E+03  0.25500000000E-02 0.  1.
    5000001    1    1    2    0    0  0.34636772243E+03  0.27609980365E+03 -0.17743053215E+03  0.50488443673E+03  0.16500000000E+03 0.  0.
   -5000001    1    1    2    0    0 -0.34636772243E+03 -0.27609980365E+03 -0.31505079465E+03  0.56805255384E+03  0.16500000000E+03 0.  0.
<mgrwt>
<rscale>  0 0.95323446E+03</rscale>
<asrwt>0</asrwt>
<pdfrwt beam="1">  1        2 0.44650436E-01 0.95323446E+03</pdfrwt>
<pdfrwt beam="2">  1       -2 0.12041679E+00 0.95323446E+03</pdfrwt>
<totfact> 0.59992184E+01</totfact>
</mgrwt>
</event>
<event>
 4    1  0.9050888E-005  0.5509825E+03  0.7818608E-02  0.1001267E+00
          2   -1    0    0  501    0  0.00000000000E+00  0.00000000000E+00  0.80208137063E+03  0.80208137063E+03  0.25500000000E-02 0.  1.
         -2   -1    0    0    0  501 -0.00000000000E+00 -0.00000000000E+00 -0.94623102273E+02  0.94623102307E+02  0.25500000000E-02 0. -1.
    5000001    1    1    2    0    0  0.18825658684E+03 -0.10864081694E+03  0.41520891981E+03  0.49685693784E+03  0.16500000000E+03 0.  0.
   -5000001    1    1    2    0    0 -0.18825658684E+03  0.10864081694E+03  0.29224934855E+03  0.39984753510E+03  0.16500000000E+03 0.  0.
<mgrwt>
<rscale>  0 0.55098250E+03</rscale>
<asrwt>0</asrwt>
<pdfrwt beam="1">  1        2 0.12339713E+00 0.55098250E+03</pdfrwt>
<pdfrwt beam="2">  1       -2 0.14557401E-01 0.55098250E+03</pdfrwt>
<totfact> 0.12706812E+03</totfact>
</mgrwt>
</event>
<event>
 4    1  0.9050888E-005  0.5917560E+03  0.7818608E-02  0.9922659E-01
         -2   -1    0    0    0  501 -0.00000000000E+00  0.00000000000E+00  0.43408916499E+02  0.43408916574E+02  0.25500000000E-02 0. -1.
          2   -1    0    0  501    0  0.00000000000E+00 -0.00000000000E+00 -0.20167236150E+04  0.20167236150E+04  0.25500000000E-02 0.  1.
    5000001    1    1    2    0    0 -0.72536166939E+02 -0.10001011517E+03 -0.24768993126E+03  0.32224031513E+03  0.16500000000E+03 0.  0.
   -5000001    1    1    2    0    0  0.72536166939E+02  0.10001011517E+03 -0.17256247673E+04  0.17378922165E+04  0.16500000000E+03 0.  0.
<mgrwt>
<rscale>  0 0.59175599E+03</rscale>
<asrwt>0</asrwt>
<pdfrwt beam="1">  1        2 0.31026510E+00 0.59175599E+03</pdfrwt>
<pdfrwt beam="2">  1       -2 0.66782964E-02 0.59175599E+03</pdfrwt>
<totfact> 0.88688768E+02</totfact>
</mgrwt>
</event>
<event>
 4    1  0.9050888E-005  0.4565888E+03  0.7818608E-02  0.1025775E+00
          2   -1    0    0  501    0  0.00000000000E+00  0.00000000000E+00  0.11642897961E+03  0.11642897963E+03  0.25500000000E-02 0.  1.
         -2   -1    0    0    0  501 -0.00000000000E+00 -0.00000000000E+00 -0.44764050586E+03  0.44764050587E+03  0.25500000000E-02 0. -1.
    5000001    1    1    2    0    0 -0.26596028316E+02  0.15457504387E+03 -0.18673558660E+03  0.29444179766E+03  0.16500000000E+03 0.  0.
   -5000001    1    1    2    0    0  0.26596028316E+02 -0.15457504387E+03 -0.14447593965E+03  0.26962768784E+03  0.16500000000E+03 0.  0.
<mgrwt>
<rscale>  0 0.45658877E+03</rscale>
<asrwt>0</asrwt>
<pdfrwt beam="1">  1        2 0.17912151E-01 0.45658877E+03</pdfrwt>
<pdfrwt beam="2">  1       -2 0.68867769E-01 0.45658877E+03</pdfrwt>
<totfact> 0.62768870E+02</totfact>
</mgrwt>
</event>
<event>
 4    1  0.9050888E-005  0.5346741E+03  0.7818608E-02  0.1005105E+00
         -2   -1    0    0    0  501 -0.00000000000E+00  0.00000000000E+00  0.10623185733E+03  0.10623185736E+03  0.25500000000E-02 0. -1.
          2   -1    0    0  501    0  0.00000000000E+00 -0.00000000000E+00 -0.67276512686E+03  0.67276512687E+03  0.25500000000E-02 0.  1.
    5000001    1    1    2    0    0  0.16613020679E+03  0.38895137661E+02 -0.10404311961E+03  0.25915641624E+03  0.16500000000E+03 0.  0.
   -5000001    1    1    2    0    0 -0.16613020679E+03 -0.38895137661E+02 -0.46249014993E+03  0.51984056799E+03  0.16500000000E+03 0.  0.
<mgrwt>
<rscale>  0 0.53467407E+03</rscale>
<asrwt>0</asrwt>
<pdfrwt beam="1">  1        2 0.10350232E+00 0.53467407E+03</pdfrwt>
<pdfrwt beam="2">  1       -2 0.16343363E-01 0.53467407E+03</pdfrwt>
<totfact> 0.13072482E+03</totfact>
</mgrwt>
</event>
<event>
 4    1  0.9050888E-005  0.4155394E+03  0.7818608E-02  0.1038528E+00
         -2   -1    0    0    0  501 -0.00000000000E+00  0.00000000000E+00  0.25205647822E+02  0.25205647951E+02  0.25500000000E-02 0. -1.
          2   -1    0    0  501    0  0.00000000000E+00 -0.00000000000E+00 -0.17126420345E+04  0.17126420345E+04  0.25500000000E-02 0.  1.
    5000001    1    1    2    0    0  0.17918129832E+02  0.10261121527E+03 -0.11421821647E+04  0.11587300023E+04  0.16500000000E+03 0.  0.
   -5000001    1    1    2    0    0 -0.17918129832E+02 -0.10261121527E+03 -0.54525422193E+03  0.57911768010E+03  0.16500000000E+03 0.  0.
<mgrwt>
<rscale>  0 0.41553942E+03</rscale>
<asrwt>0</asrwt>
<pdfrwt beam="1">  1        2 0.26348330E+00 0.41553942E+03</pdfrwt>
<pdfrwt beam="2">  1       -2 0.38777933E-02 0.41553942E+03</pdfrwt>
<totfact> 0.30226825E+03</totfact>
</mgrwt>
</event>
<event>
 4    1  0.9050888E-005  0.6592988E+03  0.7818608E-02  0.9789485E-01
         -2   -1    0    0    0  501 -0.00000000000E+00  0.00000000000E+00  0.66651775428E+02  0.66651775477E+02  0.25500000000E-02 0. -1.
          2   -1    0    0  501    0  0.00000000000E+00 -0.00000000000E+00 -0.16303950983E+04  0.16303950983E+04  0.25500000000E-02 0.  1.
    5000001    1    1    2    0    0 -0.23638179566E+03  0.14679964480E+03 -0.61872605470E+03  0.69819296745E+03  0.16500000000E+03 0.  0.
   -5000001    1    1    2    0    0  0.23638179566E+03 -0.14679964480E+03 -0.94501726813E+03  0.99885390628E+03  0.16500000000E+03 0.  0.
<mgrwt>
<rscale>  0 0.65929880E+03</rscale>
<asrwt>0</asrwt>
<pdfrwt beam="1">  1        2 0.25082999E+00 0.65929880E+03</pdfrwt>
<pdfrwt beam="2">  1       -2 0.10254120E-01 0.65929880E+03</pdfrwt>
<totfact> 0.72059083E+02</totfact>
</mgrwt>
</event>
<event>
 4    1  0.9050888E-005  0.5021353E+03  0.7818608E-02  0.1013223E+00
          2   -1    0    0  501    0  0.00000000000E+00  0.00000000000E+00  0.25505302777E+03  0.25505302778E+03  0.25500000000E-02 0.  1.
         -2   -1    0    0    0  501 -0.00000000000E+00 -0.00000000000E+00 -0.24714452449E+03  0.24714452450E+03  0.25500000000E-02 0. -1.
    5000001    1    1    2    0    0 -0.16992417334E+03  0.83136593590E+02  0.88580621208E+01  0.25117600034E+03  0.16500000000E+03 0.  0.
   -5000001    1    1    2    0    0  0.16992417334E+03 -0.83136593590E+02 -0.94955884517E+00  0.25102155195E+03  0.16500000000E+03 0.  0.
<mgrwt>
<rscale>  0 0.50213528E+03</rscale>
<asrwt>0</asrwt>
<pdfrwt beam="1">  1        2 0.39238927E-01 0.50213528E+03</pdfrwt>
<pdfrwt beam="2">  1       -2 0.38022234E-01 0.50213528E+03</pdfrwt>
<totfact> 0.86194187E+02</totfact>
</mgrwt>
</event>
<event>
 4    1  0.9050888E-005  0.8820861E+03  0.7818608E-02  0.9448256E-01
          2   -1    0    0  501    0  0.00000000000E+00  0.00000000000E+00  0.63721527911E+03  0.63721527911E+03  0.25500000000E-02 0.  1.
         -2   -1    0    0    0  501 -0.00000000000E+00 -0.00000000000E+00 -0.30526414875E+03  0.30526414876E+03  0.25500000000E-02 0. -1.
    5000001    1    1    2    0    0  0.28947473859E+03 -0.28782285376E+03  0.19334917386E+03  0.48088098575E+03  0.16500000000E+03 0.  0.
   -5000001    1    1    2    0    0 -0.28947473859E+03  0.28782285376E+03  0.13860195649E+03  0.46159844212E+03  0.16500000000E+03 0.  0.
<mgrwt>
<rscale>  0 0.88208612E+03</rscale>
<asrwt>0</asrwt>
<pdfrwt beam="1">  1        2 0.98033119E-01 0.88208612E+03</pdfrwt>
<pdfrwt beam="2">  1       -2 0.46963716E-01 0.88208612E+03</pdfrwt>
<totfact> 0.19879613E+02</totfact>
</mgrwt>
</event>
<event>
 4    1  0.9050888E-005  0.9611331E+03  0.7818608E-02  0.9352231E-01
          2   -1    0    0  501    0  0.00000000000E+00  0.00000000000E+00  0.45348175395E+03  0.45348175396E+03  0.25500000000E-02 0.  1.
         -2   -1    0    0    0  501 -0.00000000000E+00 -0.00000000000E+00 -0.50926904487E+03  0.50926904488E+03  0.25500000000E-02 0. -1.
    5000001    1    1    2    0    0  0.19895884415E+03 -0.34578220354E+03  0.18357602248E+03  0.46912163666E+03  0.16500000000E+03 0.  0.
   -5000001    1    1    2    0    0 -0.19895884415E+03  0.34578220354E+03 -0.23936331340E+03  0.49362916218E+03  0.16500000000E+03 0.  0.
<mgrwt>
<rscale>  0 0.96113312E+03</rscale>
<asrwt>0</asrwt>
<pdfrwt beam="1">  1        2 0.69766424E-01 0.96113312E+03</pdfrwt>
<pdfrwt beam="2">  1       -2 0.78349083E-01 0.96113312E+03</pdfrwt>
<totfact> 0.99972857E+01</totfact>
</mgrwt>
</event>
<event>
 4    1  0.9050888E-005  0.5757989E+03  0.7818608E-02  0.9956928E-01
          2   -1    0    0  501    0  0.00000000000E+00  0.00000000000E+00  0.25009359335E+04  0.25009359335E+04  0.25500000000E-02 0.  1.
         -2   -1    0    0    0  501 -0.00000000000E+00 -0.00000000000E+00 -0.33142028722E+02  0.33142028820E+02  0.25500000000E-02 0. -1.
    5000001    1    1    2    0    0 -0.14396176639E+03  0.83753521631E+02  0.49850627944E+03  0.55088397436E+03  0.16500000000E+03 0.  0.
   -5000001    1    1    2    0    0  0.14396176639E+03 -0.83753521631E+02  0.19692876253E+04  0.19831939879E+04  0.16500000000E+03 0.  0.
<mgrwt>
<rscale>  0 0.57579889E+03</rscale>
<asrwt>0</asrwt>
<pdfrwt beam="1">  1        2 0.38475945E+00 0.57579889E+03</pdfrwt>
<pdfrwt beam="2">  1       -2 0.50987727E-02 0.57579889E+03</pdfrwt>
<totfact> 0.73322677E+02</totfact>
</mgrwt>
</event>
<event>
 4    1  0.9050888E-005  0.7947354E+03  0.7818608E-02  0.9567669E-01
         -2   -1    0    0    0  501 -0.00000000000E+00  0.00000000000E+00  0.16284322810E+03  0.16284322812E+03  0.25500000000E-02 0. -1.
          2   -1    0    0  501    0  0.00000000000E+00 -0.00000000000E+00 -0.96965097236E+03  0.96965097237E+03  0.25500000000E-02 0.  1.
    5000001    1    1    2    0    0  0.21381536041E+03 -0.21654131489E+03 -0.12536927405E+03  0.36817061843E+03  0.16500000000E+03 0.  0.
   -5000001    1    1    2    0    0 -0.21381536041E+03  0.21654131489E+03 -0.68143847021E+03  0.76432358206E+03  0.16500000000E+03 0.  0.
<mgrwt>
<rscale>  0 0.79473541E+03</rscale>
<asrwt>0</asrwt>
<pdfrwt beam="1">  1        2 0.14917707E+00 0.79473541E+03</pdfrwt>
<pdfrwt beam="2">  1       -2 0.25052805E-01 0.79473541E+03</pdfrwt>
<totfact> 0.37811616E+02</totfact>
</mgrwt>
</event>
<event>
 4    1  0.9050888E-005  0.6559951E+03  0.7818608E-02  0.9795594E-01
         -2   -1    0    0    0  501 -0.00000000000E+00  0.00000000000E+00  0.16782726128E+03  0.16782726130E+03  0.25500000000E-02 0. -1.
          2   -1    0    0  501    0  0.00000000000E+00 -0.00000000000E+00 -0.64103040910E+03  0.64103040911E+03  0.25500000000E-02 0.  1.
    5000001    1    1    2    0    0  0.15559872739E+03  0.20450299806E+03 -0.89024833015E+02  0.31809253540E+03  0.16500000000E+03 0.  0.
   -5000001    1    1    2    0    0 -0.15559872739E+03 -0.20450299806E+03 -0.38417831480E+03  0.49076513501E+03  0.16500000000E+03 0.  0.
<mgrwt>
<rscale>  0 0.65599505E+03</rscale>
<asrwt>0</asrwt>
<pdfrwt beam="1">  1        2 0.98620062E-01 0.65599505E+03</pdfrwt>
<pdfrwt beam="2">  1       -2 0.25819579E-01 0.65599505E+03</pdfrwt>
<totfact> 0.62192336E+02</totfact>
</mgrwt>
</event>
<event>
 4    1  0.9050888E-005  0.5878739E+03  0.7818608E-02  0.9930888E-01
         -2   -1    0    0    0  501 -0.00000000000E+00  0.00000000000E+00  0.66290165972E+02  0.66290166021E+02  0.25500000000E-02 0. -1.
          2   -1    0    0  501    0  0.00000000000E+00 -0.00000000000E+00 -0.13033446817E+04  0.13033446817E+04  0.25500000000E-02 0.  1.
    5000001    1    1    2    0    0  0.18341114526E+03 -0.33684603000E+02 -0.25460194191E+03  0.35611999313E+03  0.16500000000E+03 0.  0.
   -5000001    1    1    2    0    0 -0.18341114526E+03  0.33684603000E+02 -0.98245257385E+03  0.10135148546E+04  0.16500000000E+03 0.  0.
<mgrwt>
<rscale>  0 0.58787392E+03</rscale>
<asrwt>0</asrwt>
<pdfrwt beam="1">  1        2 0.20051455E+00 0.58787392E+03</pdfrwt>
<pdfrwt beam="2">  1       -2 0.10198488E-01 0.58787392E+03</pdfrwt>
<totfact> 0.11095096E+03</totfact>
</mgrwt>
</event>
<event>
 4    1  0.9050888E-005  0.6045731E+03  0.7818608E-02  0.9895963E-01
         -2   -1    0    0    0  501 -0.00000000000E+00  0.00000000000E+00  0.46817975757E+02  0.46817975827E+02  0.25500000000E-02 0. -1.
          2   -1    0    0  501    0  0.00000000000E+00 -0.00000000000E+00 -0.19517538146E+04  0.19517538146E+04  0.25500000000E-02 0.  1.
    5000001    1    1    2    0    0 -0.67802326091E+02 -0.24225093038E+03 -0.10499453910E+04  0.10921964076E+04  0.16500000000E+03 0.  0.
   -5000001    1    1    2    0    0  0.67802326091E+02  0.24225093038E+03 -0.85499044789E+03  0.90637538287E+03  0.16500000000E+03 0.  0.
<mgrwt>
<rscale>  0 0.60457312E+03</rscale>
<asrwt>0</asrwt>
<pdfrwt beam="1">  1        2 0.30026975E+00 0.60457312E+03</pdfrwt>
<pdfrwt beam="2">  1       -2 0.72027670E-02 0.60457312E+03</pdfrwt>
<totfact> 0.85273424E+02</totfact>
</mgrwt>
</event>
<event>
 4    1  0.9050888E-005  0.7041060E+03  0.7818608E-02  0.9710236E-01
         -2   -1    0    0    0  501 -0.00000000000E+00  0.00000000000E+00  0.37601021405E+03  0.37601021405E+03  0.25500000000E-02 0. -1.
          2   -1    0    0  501    0  0.00000000000E+00 -0.00000000000E+00 -0.32962224627E+03  0.32962224628E+03  0.25500000000E-02 0.  1.
    5000001    1    1    2    0    0 -0.29732968138E+03 -0.59575608431E+02  0.92351836979E+02  0.35736263703E+03  0.16500000000E+03 0.  0.
   -5000001    1    1    2    0    0  0.29732968138E+03  0.59575608431E+02 -0.45963869202E+02  0.34826982330E+03  0.16500000000E+03 0.  0.
<mgrwt>
<rscale>  0 0.70410605E+03</rscale>
<asrwt>0</asrwt>
<pdfrwt beam="1">  1        2 0.50711115E-01 0.70410605E+03</pdfrwt>
<pdfrwt beam="2">  1       -2 0.57847725E-01 0.70410605E+03</pdfrwt>
<totfact> 0.27912229E+02</totfact>
</mgrwt>
</event>
<event>
 4    1  0.9050888E-005  0.6588410E+03  0.7818608E-02  0.9790330E-01
         -2   -1    0    0    0  501 -0.00000000000E+00  0.00000000000E+00  0.56288366008E+02  0.56288366065E+02  0.25500000000E-02 0. -1.
          2   -1    0    0  501    0  0.00000000000E+00 -0.00000000000E+00 -0.19278917665E+04  0.19278917665E+04  0.25500000000E-02 0.  1.
    5000001    1    1    2    0    0 -0.10240524445E+03 -0.25159959343E+03 -0.11966799294E+04  0.12381668074E+04  0.16500000000E+03 0.  0.
   -5000001    1    1    2    0    0  0.10240524445E+03  0.25159959343E+03 -0.67492347111E+03  0.74601332519E+03  0.16500000000E+03 0.  0.
<mgrwt>
<rscale>  0 0.65884104E+03</rscale>
<asrwt>0</asrwt>
<pdfrwt beam="1">  1        2 0.29659868E+00 0.65884104E+03</pdfrwt>
<pdfrwt beam="2">  1       -2 0.86597501E-02 0.65884104E+03</pdfrwt>
<totfact> 0.65252807E+02</totfact>
</mgrwt>
</event>
<event>
 4    1  0.9050888E-005  0.4346802E+03  0.7818608E-02  0.1032392E+00
          2   -1    0    0  501    0  0.00000000000E+00  0.00000000000E+00  0.35894047898E+03  0.35894047899E+03  0.25500000000E-02 0.  1.
         -2   -1    0    0    0  501 -0.00000000000E+00 -0.00000000000E+00 -0.13160040379E+03  0.13160040381E+03  0.25500000000E-02 0. -1.
    5000001    1    1    2    0    0 -0.33471992570E+02 -0.13080335055E+03  0.16130627389E+03  0.26734734859E+03  0.16500000000E+03 0.  0.
   -5000001    1    1    2    0    0  0.33471992570E+02  0.13080335055E+03  0.66033801296E+02  0.22319353421E+03  0.16500000000E+03 0.  0.
<mgrwt>
<rscale>  0 0.43468017E+03</rscale>
<asrwt>0</asrwt>
<pdfrwt beam="1">  1        2 0.55221611E-01 0.43468017E+03</pdfrwt>
<pdfrwt beam="2">  1       -2 0.20246216E-01 0.43468017E+03</pdfrwt>
<totfact> 0.18627828E+03</totfact>
</mgrwt>
</event>
<event>
 4    1  0.9050888E-005  0.6679616E+03  0.7818608E-02  0.9773647E-01
         -2   -1    0    0    0  501 -0.00000000000E+00  0.00000000000E+00  0.57485726910E+03  0.57485726911E+03  0.25500000000E-02 0. -1.
          2   -1    0    0  501    0  0.00000000000E+00 -0.00000000000E+00 -0.19403629502E+03  0.19403629503E+03  0.25500000000E-02 0.  1.
    5000001    1    1    2    0    0  0.27800960549E+03 -0.69214369991E+02  0.24486885874E+03  0.41141916307E+03  0.16500000000E+03 0.  0.
   -5000001    1    1    2    0    0 -0.27800960549E+03  0.69214369991E+02  0.13595211534E+03  0.35747440107E+03  0.16500000000E+03 0.  0.
<mgrwt>
<rscale>  0 0.66796160E+03</rscale>
<asrwt>0</asrwt>
<pdfrwt beam="1">  1        2 0.29851737E-01 0.66796160E+03</pdfrwt>
<pdfrwt beam="2">  1       -2 0.88439581E-01 0.66796160E+03</pdfrwt>
<totfact> 0.19902698E+02</totfact>
</mgrwt>
</event>
<event>
 4    1  0.9050888E-005  0.7859214E+03  0.7818608E-02  0.9580622E-01
         -2   -1    0    0    0  501 -0.00000000000E+00  0.00000000000E+00  0.13847685709E+04  0.13847685709E+04  0.25500000000E-02 0. -1.
          2   -1    0    0  501    0  0.00000000000E+00 -0.00000000000E+00 -0.11151184732E+03  0.11151184735E+03  0.25500000000E-02 0.  1.
    5000001    1    1    2    0    0  0.92918498207E+02  0.25577119195E+03  0.10755086788E+04  0.11216045061E+04  0.16500000000E+03 0.  0.
   -5000001    1    1    2    0    0 -0.92918498207E+02 -0.25577119195E+03  0.19774804483E+03  0.37467591219E+03  0.16500000000E+03 0.  0.
<mgrwt>
<rscale>  0 0.78592137E+03</rscale>
<asrwt>0</asrwt>
<pdfrwt beam="1">  1        2 0.17155668E-01 0.78592137E+03</pdfrwt>
<pdfrwt beam="2">  1       -2 0.21304133E+00 0.78592137E+03</pdfrwt>
<totfact> 0.37960287E+01</totfact>
</mgrwt>
</event>
<event>
 4    1  0.9050888E-005  0.3690371E+03  0.7818608E-02  0.1055062E+00
         -2   -1    0    0    0  501 -0.00000000000E+00  0.00000000000E+00  0.27837752865E+02  0.27837752982E+02  0.25500000000E-02 0. -1.
          2   -1    0    0  501    0  0.00000000000E+00 -0.00000000000E+00 -0.12230546990E+04  0.12230546990E+04  0.25500000000E-02 0.  1.
    5000001    1    1    2    0    0 -0.80345532059E+02 -0.17803581775E+02 -0.57370690773E+03  0.60260848652E+03  0.16500000000E+03 0.  0.
   -5000001    1    1    2    0    0  0.80345532059E+02  0.17803581775E+02 -0.62151003843E+03  0.64828396550E+03  0.16500000000E+03 0.  0.
<mgrwt>
<rscale>  0 0.36903710E+03</rscale>
<asrwt>0</asrwt>
<pdfrwt beam="1">  1        2 0.18816222E+00 0.36903710E+03</pdfrwt>
<pdfrwt beam="2">  1       -2 0.42827322E-02 0.36903710E+03</pdfrwt>
<totfact> 0.48228925E+03</totfact>
</mgrwt>
</event>
<event>
 4    1  0.9050888E-005  0.6978037E+03  0.7818608E-02  0.9720995E-01
          2   -1    0    0  501    0  0.00000000000E+00  0.00000000000E+00  0.22653506482E+04  0.22653506482E+04  0.25500000000E-02 0.  1.
         -2   -1    0    0    0  501 -0.00000000000E+00 -0.00000000000E+00 -0.53736720392E+02  0.53736720452E+02  0.25500000000E-02 0. -1.
    5000001    1    1    2    0    0 -0.92522036852E+02  0.28609294623E+03  0.13185574190E+04  0.13624346474E+04  0.16500000000E+03 0.  0.
   -5000001    1    1    2    0    0  0.92522036852E+02 -0.28609294623E+03  0.89305650880E+03  0.95665272126E+03  0.16500000000E+03 0.  0.
<mgrwt>
<rscale>  0 0.69780374E+03</rscale>
<asrwt>0</asrwt>
<pdfrwt beam="1">  1        2 0.34851548E+00 0.69780374E+03</pdfrwt>
<pdfrwt beam="2">  1       -2 0.82671880E-02 0.69780374E+03</pdfrwt>
<totfact> 0.45835463E+02</totfact>
</mgrwt>
</event>
<event>
 4    1  0.9050888E-005  0.3547949E+03  0.7818608E-02  0.1060664E+00
         -2   -1    0    0    0  501 -0.00000000000E+00  0.00000000000E+00  0.72739584274E+02  0.72739584319E+02  0.25500000000E-02 0. -1.
          2   -1    0    0  501    0  0.00000000000E+00 -0.00000000000E+00 -0.43263732467E+03  0.43263732467E+03  0.25500000000E-02 0.  1.
    5000001    1    1    2    0    0 -0.63148461757E+02 -0.60930501584E+01 -0.15882103820E+03  0.23764253756E+03  0.16500000000E+03 0.  0.
   -5000001    1    1    2    0    0  0.63148461757E+02  0.60930501584E+01 -0.20107670219E+03  0.26773437144E+03  0.16500000000E+03 0.  0.
<mgrwt>
<rscale>  0 0.35479492E+03</rscale>
<asrwt>0</asrwt>
<pdfrwt beam="1">  1        2 0.66559587E-01 0.35479492E+03</pdfrwt>
<pdfrwt beam="2">  1       -2 0.11190706E-01 0.35479492E+03</pdfrwt>
<totfact> 0.40691507E+03</totfact>
</mgrwt>
</event>
<event>
 4    1  0.9050888E-005  0.6104005E+03  0.7818608E-02  0.9884060E-01
          2   -1    0    0  501    0  0.00000000000E+00  0.00000000000E+00  0.63509099794E+03  0.63509099795E+03  0.25500000000E-02 0.  1.
         -2   -1    0    0    0  501 -0.00000000000E+00 -0.00000000000E+00 -0.14666747068E+03  0.14666747070E+03  0.25500000000E-02 0. -1.
    5000001    1    1    2    0    0 -0.16869245699E+03 -0.17285664473E+03  0.35575761505E+03  0.46057034787E+03  0.16500000000E+03 0.  0.
   -5000001    1    1    2    0    0  0.16869245699E+03  0.17285664473E+03  0.13266591222E+03  0.32118812079E+03  0.16500000000E+03 0.  0.
<mgrwt>
<rscale>  0 0.61040049E+03</rscale>
<asrwt>0</asrwt>
<pdfrwt beam="1">  1        2 0.97706307E-01 0.61040049E+03</pdfrwt>
<pdfrwt beam="2">  1       -2 0.22564226E-01 0.61040049E+03</pdfrwt>
<totfact> 0.80143618E+02</totfact>
</mgrwt>
</event>
<event>
 4    1  0.9050888E-005  0.5536624E+03  0.7818608E-02  0.1000650E+00
          2   -1    0    0  501    0  0.00000000000E+00  0.00000000000E+00  0.38294653701E+03  0.38294653702E+03  0.25500000000E-02 0.  1.
         -2   -1    0    0    0  501 -0.00000000000E+00 -0.00000000000E+00 -0.20012066709E+03  0.20012066711E+03  0.25500000000E-02 0. -1.
    5000001    1    1    2    0    0  0.32715022261E+02  0.20801228859E+03  0.16640684778E+03  0.31504860557E+03  0.16500000000E+03 0.  0.
   -5000001    1    1    2    0    0 -0.32715022261E+02 -0.20801228859E+03  0.16419022143E+02  0.26801859856E+03  0.16500000000E+03 0.  0.
<mgrwt>
<rscale>  0 0.55366241E+03</rscale>
<asrwt>0</asrwt>
<pdfrwt beam="1">  1        2 0.58914851E-01 0.55366241E+03</pdfrwt>
<pdfrwt beam="2">  1       -2 0.30787795E-01 0.55366241E+03</pdfrwt>
<totfact> 0.81921092E+02</totfact>
</mgrwt>
</event>
<event>
 4    1  0.9050888E-005  0.4327045E+03  0.7818608E-02  0.1033009E+00
         -2   -1    0    0    0  501 -0.00000000000E+00  0.00000000000E+00  0.97186825381E+02  0.97186825414E+02  0.25500000000E-02 0. -1.
          2   -1    0    0  501    0  0.00000000000E+00 -0.00000000000E+00 -0.48163203217E+03  0.48163203217E+03  0.25500000000E-02 0.  1.
    5000001    1    1    2    0    0 -0.72899683400E+02  0.11476415244E+03 -0.23655027811E+03  0.31885138952E+03  0.16500000000E+03 0.  0.
   -5000001    1    1    2    0    0  0.72899683400E+02 -0.11476415244E+03 -0.14789492868E+03  0.25996746807E+03  0.16500000000E+03 0.  0.
<mgrwt>
<rscale>  0 0.43270446E+03</rscale>
<asrwt>0</asrwt>
<pdfrwt beam="1">  1        2 0.74097234E-01 0.43270446E+03</pdfrwt>
<pdfrwt beam="2">  1       -2 0.14951820E-01 0.43270446E+03</pdfrwt>
<totfact> 0.22489636E+03</totfact>
</mgrwt>
</event>
<event>
 4    1  0.9050888E-005  0.6989017E+03  0.7818608E-02  0.9719112E-01
         -2   -1    0    0    0  501 -0.00000000000E+00  0.00000000000E+00  0.27209287265E+03  0.27209287266E+03  0.25500000000E-02 0.  1.
          2   -1    0    0  501    0  0.00000000000E+00 -0.00000000000E+00 -0.44880222250E+03  0.44880222251E+03  0.25500000000E-02 0. -1.
    5000001    1    1    2    0    0  0.12870147333E+03  0.25805765081E+03 -0.20008260220E+03  0.38783484641E+03  0.16500000000E+03 0.  0.
   -5000001    1    1    2    0    0 -0.12870147333E+03 -0.25805765081E+03  0.23373252356E+02  0.33306024877E+03  0.16500000000E+03 0.  0.
<mgrwt>
<rscale>  0 0.69890167E+03</rscale>
<asrwt>0</asrwt>
<pdfrwt beam="1">  1        2 0.69046496E-01 0.69890167E+03</pdfrwt>
<pdfrwt beam="2">  1       -2 0.41860442E-01 0.69890167E+03</pdfrwt>
<totfact> 0.38038436E+02</totfact>
</mgrwt>
</event>
<event>
 4    1  0.9050888E-005  0.4798009E+03  0.7818608E-02  0.1019190E+00
          2   -1    0    0  501    0  0.00000000000E+00  0.00000000000E+00  0.19621988734E+04  0.19621988735E+04  0.25500000000E-02 0.  1.
         -2   -1    0    0    0  501 -0.00000000000E+00 -0.00000000000E+00 -0.29330471299E+02  0.29330471410E+02  0.25500000000E-02 0. -1.
    5000001    1    1    2    0    0 -0.78568840267E+02  0.15043562337E+03  0.11284343172E+04  0.11529930389E+04  0.16500000000E+03 0.  0.
   -5000001    1    1    2    0    0  0.78568840267E+02 -0.15043562337E+03  0.80443408494E+03  0.83853630598E+03  0.16500000000E+03 0.  0.
<mgrwt>
<rscale>  0 0.47980087E+03</rscale>
<asrwt>0</asrwt>
<pdfrwt beam="1">  1        2 0.30187681E+00 0.47980087E+03</pdfrwt>
<pdfrwt beam="2">  1       -2 0.45123792E-02 0.47980087E+03</pdfrwt>
<totfact> 0.17580969E+03</totfact>
</mgrwt>
</event>
<event>
 4    1  0.9050888E-005  0.7638124E+03  0.7818608E-02  0.9613927E-01
         -2   -1    0    0    0  501 -0.00000000000E+00  0.00000000000E+00  0.24479205612E+03  0.24479205614E+03  0.25500000000E-02 0. -1.
          2   -1    0    0  501    0  0.00000000000E+00 -0.00000000000E+00 -0.59582136191E+03  0.59582136192E+03  0.25500000000E-02 0.  1.
    5000001    1    1    2    0    0  0.31033164380E+03 -0.21805970004E+01 -0.11105460800E+02  0.35165155396E+03  0.16500000000E+03 0.  0.
   -5000001    1    1    2    0    0 -0.31033164380E+03  0.21805970004E+01 -0.33992384499E+03  0.48896186409E+03  0.16500000000E+03 0.  0.
<mgrwt>
<rscale>  0 0.76381238E+03</rscale>
<asrwt>0</asrwt>
<pdfrwt beam="1">  1        2 0.91664824E-01 0.76381238E+03</pdfrwt>
<pdfrwt beam="2">  1       -2 0.37660317E-01 0.76381238E+03</pdfrwt>
<totfact> 0.33487829E+02</totfact>
</mgrwt>
</event>
<event>
 4    1  0.9050888E-005  0.6570010E+03  0.7818608E-02  0.9793730E-01
         -2   -1    0    0    0  501 -0.00000000000E+00  0.00000000000E+00  0.70265362817E+02  0.70265362864E+02  0.25500000000E-02 0. -1.
          2   -1    0    0  501    0  0.00000000000E+00 -0.00000000000E+00 -0.15357864564E+04  0.15357864564E+04  0.25500000000E-02 0.  1.
    5000001    1    1    2    0    0 -0.20206293888E+03  0.15227735592E+03 -0.41714508179E+03  0.51502703197E+03  0.16500000000E+03 0.  0.
   -5000001    1    1    2    0    0  0.20206293888E+03 -0.15227735592E+03 -0.10483760118E+04  0.10910247873E+04  0.16500000000E+03 0.  0.
<mgrwt>
<rscale>  0 0.65700104E+03</rscale>
<asrwt>0</asrwt>
<pdfrwt beam="1">  1        2 0.23627481E+00 0.65700104E+03</pdfrwt>
<pdfrwt beam="2">  1       -2 0.10810057E-01 0.65700104E+03</pdfrwt>
<totfact> 0.74528642E+02</totfact>
</mgrwt>
</event>
<event>
 4    1  0.9050888E-005  0.5657594E+03  0.7818608E-02  0.9979107E-01
         -2   -1    0    0    0  501 -0.00000000000E+00  0.00000000000E+00  0.47712627784E+02  0.47712627852E+02  0.25500000000E-02 0. -1.
          2   -1    0    0  501    0  0.00000000000E+00 -0.00000000000E+00 -0.16771435164E+04  0.16771435164E+04  0.25500000000E-02 0.  1.
    5000001    1    1    2    0    0  0.22447487671E+03  0.49037216705E+02 -0.81934462246E+03  0.86680114746E+03  0.16500000000E+03 0.  0.
   -5000001    1    1    2    0    0 -0.22447487671E+03 -0.49037216705E+02 -0.81008626615E+03  0.85805499679E+03  0.16500000000E+03 0.  0.
<mgrwt>
<rscale>  0 0.56575940E+03</rscale>
<asrwt>0</asrwt>
<pdfrwt beam="1">  1        2 0.25802203E+00 0.56575940E+03</pdfrwt>
<pdfrwt beam="2">  1       -2 0.73404056E-02 0.56575940E+03</pdfrwt>
<totfact> 0.11677628E+03</totfact>
</mgrwt>
</event>
<event>
 4    1  0.9050888E-005  0.4466026E+03  0.7818608E-02  0.1028740E+00
         -2   -1    0    0    0  501 -0.00000000000E+00  0.00000000000E+00  0.46047196553E+02  0.46047196624E+02  0.25500000000E-02 0. -1.
          2   -1    0    0  501    0  0.00000000000E+00 -0.00000000000E+00 -0.10828775479E+04  0.10828775479E+04  0.25500000000E-02 0.  1.
    5000001    1    1    2    0    0  0.32234832260E+02 -0.14596266310E+03 -0.47505082173E+03  0.52463555604E+03  0.16500000000E+03 0.  0.
   -5000001    1    1    2    0    0 -0.32234832260E+02  0.14596266310E+03 -0.56177952962E+03  0.60428918850E+03  0.16500000000E+03 0.  0.
<mgrwt>
<rscale>  0 0.44660262E+03</rscale>
<asrwt>0</asrwt>
<pdfrwt beam="1">  1        2 0.16659653E+00 0.44660262E+03</pdfrwt>
<pdfrwt beam="2">  1       -2 0.70841849E-02 0.44660262E+03</pdfrwt>
<totfact> 0.26803466E+03</totfact>
</mgrwt>
</event>
<event>
 4    1  0.9050888E-005  0.6778624E+03  0.7818608E-02  0.9755858E-01
         -2   -1    0    0    0  501 -0.00000000000E+00  0.00000000000E+00  0.10241825095E+03  0.10241825098E+03  0.25500000000E-02 0. -1.
          2   -1    0    0  501    0  0.00000000000E+00 -0.00000000000E+00 -0.11216198535E+04  0.11216198535E+04  0.25500000000E-02 0.  1.
    5000001    1    1    2    0    0  0.25809409346E+03  0.88544929759E+02 -0.71703677988E+03  0.78474168321E+03  0.16500000000E+03 0.  0.
   -5000001    1    1    2    0    0 -0.25809409346E+03 -0.88544929759E+02 -0.30216482263E+03  0.43929642123E+03  0.16500000000E+03 0.  0.
<mgrwt>
<rscale>  0 0.67786236E+03</rscale>
<asrwt>0</asrwt>
<pdfrwt beam="1">  1        2 0.17255689E+00 0.67786236E+03</pdfrwt>
<pdfrwt beam="2">  1       -2 0.15756655E-01 0.67786236E+03</pdfrwt>
<totfact> 0.68695030E+02</totfact>
</mgrwt>
</event>
<event>
 4    1  0.9050888E-005  0.5341417E+03  0.7818608E-02  0.1005233E+00
          2   -1    0    0  501    0  0.00000000000E+00  0.00000000000E+00  0.14101078578E+03  0.14101078581E+03  0.25500000000E-02 0.  1.
         -2   -1    0    0    0  501 -0.00000000000E+00 -0.00000000000E+00 -0.50582550560E+03  0.50582550561E+03  0.25500000000E-02 0. -1.
    5000001    1    1    2    0    0 -0.81915151962E+02 -0.10325013795E+03 -0.38039898915E+03  0.43508513426E+03  0.16500000000E+03 0.  0.
   -5000001    1    1    2    0    0  0.81915151962E+02  0.10325013795E+03  0.15584269330E+02  0.21175115716E+03  0.16500000000E+03 0.  0.
<mgrwt>
<rscale>  0 0.53414175E+03</rscale>
<asrwt>0</asrwt>
<pdfrwt beam="1">  1        2 0.21693967E-01 0.53414175E+03</pdfrwt>
<pdfrwt beam="2">  1       -2 0.77819308E-01 0.53414175E+03</pdfrwt>
<totfact> 0.38380703E+02</totfact>
</mgrwt>
</event>
<event>
 4    1  0.9050888E-005  0.8306444E+03  0.7818608E-02  0.9516690E-01
         -2   -1    0    0    0  501 -0.00000000000E+00  0.00000000000E+00  0.26331040397E+03  0.26331040398E+03  0.25500000000E-02 0. -1.
          2   -1    0    0  501    0  0.00000000000E+00 -0.00000000000E+00 -0.65509200487E+03  0.65509200487E+03  0.25500000000E-02 0.  1.
    5000001    1    1    2    0    0 -0.28626706155E+03  0.10942435788E+03  0.54643401361E+02  0.35232573272E+03  0.16500000000E+03 0.  0.
   -5000001    1    1    2    0    0  0.28626706155E+03 -0.10942435788E+03 -0.44642500226E+03  0.56607667613E+03  0.16500000000E+03 0.  0.
<mgrwt>
<rscale>  0 0.83064443E+03</rscale>
<asrwt>0</asrwt>
<pdfrwt beam="1">  1        2 0.10078338E+00 0.83064443E+03</pdfrwt>
<pdfrwt beam="2">  1       -2 0.40509293E-01 0.83064443E+03</pdfrwt>
<totfact> 0.25818820E+02</totfact>
</mgrwt>
</event>
<event>
 4    1  0.9050888E-005  0.4377251E+03  0.7818608E-02  0.1031447E+00
          2   -1    0    0  501    0  0.00000000000E+00  0.00000000000E+00  0.24875768714E+04  0.24875768714E+04  0.25500000000E-02 0.  1.
         -2   -1    0    0    0  501 -0.00000000000E+00 -0.00000000000E+00 -0.19256011602E+02  0.19256011771E+02  0.25500000000E-02 0. -1.
    5000001    1    1    2    0    0 -0.10835923196E+03 -0.26612304095E+02  0.71474491209E+03  0.74198061109E+03  0.16500000000E+03 0.  0.
   -5000001    1    1    2    0    0  0.10835923196E+03  0.26612304095E+02  0.17535759477E+04  0.17648522720E+04  0.16500000000E+03 0.  0.
<mgrwt>
<rscale>  0 0.43772507E+03</rscale>
<asrwt>0</asrwt>
<pdfrwt beam="1">  1        2 0.38270389E+00 0.43772507E+03</pdfrwt>
<pdfrwt beam="2">  1       -2 0.29624653E-02 0.43772507E+03</pdfrwt>
<totfact> 0.17311278E+03</totfact>
</mgrwt>
</event>
<event>
 4    1  0.9050888E-005  0.7331658E+03  0.7818608E-02  0.9662137E-01
         -2   -1    0    0    0  501 -0.00000000000E+00  0.00000000000E+00  0.45625991950E+02  0.45625992021E+02  0.25500000000E-02 0. -1.
          2   -1    0    0  501    0  0.00000000000E+00 -0.00000000000E+00 -0.29453171929E+04  0.29453171929E+04  0.25500000000E-02 0.  1.
    5000001    1    1    2    0    0 -0.21319589218E+03 -0.22746126048E+03 -0.18571190836E+04  0.18903193921E+04  0.16500000000E+03 0.  0.
   -5000001    1    1    2    0    0  0.21319589218E+03  0.22746126048E+03 -0.10425721174E+04  0.11006237928E+04  0.16500000000E+03 0.  0.
<mgrwt>
<rscale>  0 0.73316579E+03</rscale>
<asrwt>0</asrwt>
<pdfrwt beam="1">  1        2 0.45312557E+00 0.73316579E+03</pdfrwt>
<pdfrwt beam="2">  1       -2 0.70193857E-02 0.73316579E+03</pdfrwt>
<totfact> 0.24086120E+02</totfact>
</mgrwt>
</event>
<event>
 4    1  0.9050888E-005  0.7004047E+03  0.7818608E-02  0.9716540E-01
         -2   -1    0    0    0  501 -0.00000000000E+00  0.00000000000E+00  0.12198488687E+04  0.12198488687E+04  0.25500000000E-02 0. -1.
          2   -1    0    0  501    0  0.00000000000E+00 -0.00000000000E+00 -0.10053842515E+03  0.10053842518E+03  0.25500000000E-02 0.  1.
    5000001    1    1    2    0    0 -0.20375355389E+03 -0.79363693998E+02  0.14834687536E+03  0.31152191267E+03  0.16500000000E+03 0.  0.
   -5000001    1    1    2    0    0  0.20375355389E+03  0.79363693998E+02  0.97096356814E+03  0.10088653812E+04  0.16500000000E+03 0.  0.
<mgrwt>
<rscale>  0 0.70040470E+03</rscale>
<asrwt>0</asrwt>
<pdfrwt beam="1">  1        2 0.15467450E-01 0.70040470E+03</pdfrwt>
<pdfrwt beam="2">  1       -2 0.18766906E+00 0.70040470E+03</pdfrwt>
<totfact> 0.63210052E+01</totfact>
</mgrwt>
</event>
<event>
 4    1  0.9050888E-005  0.5082374E+03  0.7818608E-02  0.1011651E+00
         -2   -1    0    0    0  501 -0.00000000000E+00  0.00000000000E+00  0.60636480720E+02  0.60636480773E+02  0.25500000000E-02 0. -1.
          2   -1    0    0  501    0  0.00000000000E+00 -0.00000000000E+00 -0.10649747640E+04  0.10649747640E+04  0.25500000000E-02 0.  1.
    5000001    1    1    2    0    0  0.18862489694E+03  0.93964062829E+01 -0.41129271544E+03  0.48172019054E+03  0.16500000000E+03 0.  0.
   -5000001    1    1    2    0    0 -0.18862489694E+03 -0.93964062829E+01 -0.59304556782E+03  0.64389105422E+03  0.16500000000E+03 0.  0.
<mgrwt>
<rscale>  0 0.50823743E+03</rscale>
<asrwt>0</asrwt>
<pdfrwt beam="1">  1        2 0.16384226E+00 0.50823743E+03</pdfrwt>
<pdfrwt beam="2">  1       -2 0.93286901E-02 0.50823743E+03</pdfrwt>
<totfact> 0.17742154E+03</totfact>
</mgrwt>
</event>
<event>
 4    1  0.9050888E-005  0.1072869E+04  0.7818608E-02  0.9232046E-01
          2   -1    0    0  501    0  0.00000000000E+00  0.00000000000E+00  0.18490165106E+04  0.18490165106E+04  0.25500000000E-02 0.  1.
         -2   -1    0    0    0  501 -0.00000000000E+00 -0.00000000000E+00 -0.15562980994E+03  0.15562980996E+03  0.25500000000E-02 0. -1.
    5000001    1    1    2    0    0 -0.48244641972E+03 -0.11150596068E+03  0.10781824087E+04  0.11978691220E+04  0.16500000000E+03 0.  0.
   -5000001    1    1    2    0    0  0.48244641972E+03  0.11150596068E+03  0.61520429196E+03  0.80677719850E+03  0.16500000000E+03 0.  0.
<mgrwt>
<rscale>  0 0.10728692E+04</rscale>
<asrwt>0</asrwt>
<pdfrwt beam="1">  1        2 0.28446408E+00 0.10728692E+04</pdfrwt>
<pdfrwt beam="2">  1       -2 0.23943047E-01 0.10728692E+04</pdfrwt>
<totfact> 0.12516347E+02</totfact>
</mgrwt>
</event>
<event>
 4    1  0.9050888E-005  0.3617435E+03  0.7818608E-02  0.1057896E+00
          2   -1    0    0  501    0  0.00000000000E+00  0.00000000000E+00  0.19496751531E+04  0.19496751531E+04  0.25500000000E-02 0.  1.
         -2   -1    0    0    0  501 -0.00000000000E+00 -0.00000000000E+00 -0.16779508529E+02  0.16779508723E+02  0.25500000000E-02 0. -1.
    5000001    1    1    2    0    0 -0.61344627603E+02  0.36952347159E+02  0.86316983302E+03  0.88171185765E+03  0.16500000000E+03 0.  0.
   -5000001    1    1    2    0    0  0.61344627603E+02 -0.36952347159E+02  0.10697258115E+04  0.10847428041E+04  0.16500000000E+03 0.  0.
<mgrwt>
<rscale>  0 0.36174351E+03</rscale>
<asrwt>0</asrwt>
<pdfrwt beam="1">  1        2 0.29994985E+00 0.36174351E+03</pdfrwt>
<pdfrwt beam="2">  1       -2 0.25814644E-02 0.36174351E+03</pdfrwt>
<totfact> 0.41782742E+03</totfact>
</mgrwt>
</event>
<event>
 4    1  0.9050888E-005  0.4414672E+03  0.7818608E-02  0.1030298E+00
          2   -1    0    0  501    0  0.00000000000E+00  0.00000000000E+00  0.23704756202E+04  0.23704756202E+04  0.25500000000E-02 0.  1.
         -2   -1    0    0    0  501 -0.00000000000E+00 -0.00000000000E+00 -0.20554238401E+02  0.20554238560E+02  0.25500000000E-02 0. -1.
    5000001    1    1    2    0    0  0.12462751468E+03  0.76175334770E+02  0.11056807298E+04  0.11274260842E+04  0.16500000000E+03 0.  0.
   -5000001    1    1    2    0    0 -0.12462751468E+03 -0.76175334770E+02  0.12442406520E+04  0.12636037746E+04  0.16500000000E+03 0.  0.
<mgrwt>
<rscale>  0 0.44146720E+03</rscale>
<asrwt>0</asrwt>
<pdfrwt beam="1">  1        2 0.36468866E+00 0.44146720E+03</pdfrwt>
<pdfrwt beam="2">  1       -2 0.31621896E-02 0.44146720E+03</pdfrwt>
<totfact> 0.18203555E+03</totfact>
</mgrwt>
</event>
<event>
 4    1  0.9050888E-005  0.5306967E+03  0.7818608E-02  0.1006063E+00
         -2   -1    0    0    0  501 -0.00000000000E+00  0.00000000000E+00  0.13494209065E+03  0.13494209068E+03  0.25500000000E-02 0. -1.
          2   -1    0    0  501    0  0.00000000000E+00 -0.00000000000E+00 -0.52177757246E+03  0.52177757246E+03  0.25500000000E-02 0.  1.
    5000001    1    1    2    0    0 -0.20570023898E+02  0.20563067337E+03 -0.16637245509E+03  0.31242902159E+03  0.16500000000E+03 0.  0.
   -5000001    1    1    2    0    0  0.20570023898E+02 -0.20563067337E+03 -0.22046302671E+03  0.34429064155E+03  0.16500000000E+03 0.  0.
<mgrwt>
<rscale>  0 0.53069674E+03</rscale>
<asrwt>0</asrwt>
<pdfrwt beam="1">  1        2 0.80273472E-01 0.53069674E+03</pdfrwt>
<pdfrwt beam="2">  1       -2 0.20760322E-01 0.53069674E+03</pdfrwt>
<totfact> 0.11725199E+03</totfact>
</mgrwt>
</event>
<event>
 4    1  0.9050888E-005  0.4841269E+03  0.7818608E-02  0.1018007E+00
         -2   -1    0    0    0  501 -0.00000000000E+00  0.00000000000E+00  0.35202651162E+03  0.35202651163E+03  0.25500000000E-02 0. -1.
          2   -1    0    0  501    0  0.00000000000E+00 -0.00000000000E+00 -0.16644971259E+03  0.16644971261E+03  0.25500000000E-02 0.  1.
    5000001    1    1    2    0    0  0.41381462670E+02  0.12210124239E+03 -0.37271866520E+02  0.21268599126E+03  0.16500000000E+03 0.  0.
   -5000001    1    1    2    0    0 -0.41381462670E+02 -0.12210124239E+03  0.22284866555E+03  0.30579023298E+03  0.16500000000E+03 0.  0.
<mgrwt>
<rscale>  0 0.48412689E+03</rscale>
<asrwt>0</asrwt>
<pdfrwt beam="1">  1        2 0.25607648E-01 0.48412689E+03</pdfrwt>
<pdfrwt beam="2">  1       -2 0.54157925E-01 0.48412689E+03</pdfrwt>
<totfact> 0.68820516E+02</totfact>
</mgrwt>
</event>
<event>
 4    1  0.9050888E-005  0.3613645E+03  0.7818608E-02  0.1058045E+00
         -2   -1    0    0    0  501 -0.00000000000E+00  0.00000000000E+00  0.12337150966E+03  0.12337150968E+03  0.25500000000E-02 0. -1.
          2   -1    0    0  501    0  0.00000000000E+00 -0.00000000000E+00 -0.26461600457E+03  0.26461600458E+03  0.25500000000E-02 0.  1.
    5000001    1    1    2    0    0 -0.73179035159E+02 -0.56600913597E+01 -0.64373859385E+02  0.19171906946E+03  0.16500000000E+03 0.  0.
   -5000001    1    1    2    0    0  0.73179035159E+02  0.56600913597E+01 -0.76870635531E+02  0.19626844481E+03  0.16500000000E+03 0.  0.
<mgrwt>
<rscale>  0 0.36136450E+03</rscale>
<asrwt>0</asrwt>
<pdfrwt beam="1">  1        2 0.40710154E-01 0.36136450E+03</pdfrwt>
<pdfrwt beam="2">  1       -2 0.18980232E-01 0.36136450E+03</pdfrwt>
<totfact> 0.28961832E+03</totfact>
</mgrwt>
</event>
<event>
 4    1  0.9050888E-005  0.8109198E+03  0.7818608E-02  0.9544344E-01
         -2   -1    0    0    0  501 -0.00000000000E+00  0.00000000000E+00  0.36551807765E+03  0.36551807766E+03  0.25500000000E-02 0. -1.
          2   -1    0    0  501    0  0.00000000000E+00 -0.00000000000E+00 -0.44976632588E+03  0.44976632589E+03  0.25500000000E-02 0.  1.
    5000001    1    1    2    0    0  0.33609081274E+03 -0.15383695938E+03 -0.65699821704E+02  0.41007842061E+03  0.16500000000E+03 0.  0.
   -5000001    1    1    2    0    0 -0.33609081274E+03  0.15383695938E+03 -0.18548426534E+02  0.40520598293E+03  0.16500000000E+03 0.  0.
<mgrwt>
<rscale>  0 0.81091978E+03</rscale>
<asrwt>0</asrwt>
<pdfrwt beam="1">  1        2 0.69194819E-01 0.81091978E+03</pdfrwt>
<pdfrwt beam="2">  1       -2 0.56233551E-01 0.81091978E+03</pdfrwt>
<totfact> 0.20804502E+02</totfact>
</mgrwt>
</event>
<event>
 4    1  0.9050888E-005  0.5274637E+03  0.7818608E-02  0.1006849E+00
         -2   -1    0    0    0  501 -0.00000000000E+00  0.00000000000E+00  0.43030804776E+03  0.43030804777E+03  0.25500000000E-02 0. -1.
          2   -1    0    0  501    0  0.00000000000E+00 -0.00000000000E+00 -0.16163882577E+03  0.16163882579E+03  0.25500000000E-02 0.  1.
    5000001    1    1    2    0    0  0.11977168424E+03  0.16560616781E+03  0.16086413112E+03  0.30801449291E+03  0.16500000000E+03 0.  0.
   -5000001    1    1    2    0    0 -0.11977168424E+03 -0.16560616781E+03  0.10780509088E+03  0.28393238065E+03  0.16500000000E+03 0.  0.
<mgrwt>
<rscale>  0 0.52746370E+03</rscale>
<asrwt>0</asrwt>
<pdfrwt beam="1">  1        2 0.24867511E-01 0.52746370E+03</pdfrwt>
<pdfrwt beam="2">  1       -2 0.66201240E-01 0.52746370E+03</pdfrwt>
<totfact> 0.46689188E+02</totfact>
</mgrwt>
</event>
<event>
 4    1  0.9050888E-005  0.8295616E+03  0.7818608E-02  0.9518187E-01
          2   -1    0    0  501    0  0.00000000000E+00  0.00000000000E+00  0.10765383652E+04  0.10765383652E+04  0.25500000000E-02 0.  1.
         -2   -1    0    0    0  501 -0.00000000000E+00 -0.00000000000E+00 -0.15981142256E+03  0.15981142258E+03  0.25500000000E-02 0. -1.
    5000001    1    1    2    0    0  0.23342065541E+03  0.18189671828E+03  0.81495186428E+03  0.88257756576E+03  0.16500000000E+03 0.  0.
   -5000001    1    1    2    0    0 -0.23342065541E+03 -0.18189671828E+03  0.10177507835E+03  0.35377222201E+03  0.16500000000E+03 0.  0.
<mgrwt>
<rscale>  0 0.82956164E+03</rscale>
<asrwt>0</asrwt>
<pdfrwt beam="1">  1        2 0.16562129E+00 0.82956164E+03</pdfrwt>
<pdfrwt beam="2">  1       -2 0.24586373E-01 0.82956164E+03</pdfrwt>
<totfact> 0.33417778E+02</totfact>
</mgrwt>
</event>
<event>
 4    1  0.9050888E-005  0.7528810E+03  0.7818608E-02  0.9630841E-01
         -2   -1    0    0    0  501 -0.00000000000E+00  0.00000000000E+00  0.67418514110E+02  0.67418514158E+02  0.25500000000E-02 0. -1.
          2   -1    0    0  501    0  0.00000000000E+00 -0.00000000000E+00 -0.21019072332E+04  0.21019072332E+04  0.25500000000E-02 0.  1.
    5000001    1    1    2    0    0 -0.24249737659E+03  0.22309501046E+03 -0.79580803951E+03  0.87699019213E+03  0.16500000000E+03 0.  0.
   -5000001    1    1    2    0    0  0.24249737659E+03 -0.22309501046E+03 -0.12386806796E+04  0.12923355552E+04  0.16500000000E+03 0.  0.
<mgrwt>
<rscale>  0 0.75288103E+03</rscale>
<asrwt>0</asrwt>
<pdfrwt beam="1">  1        2 0.32337029E+00 0.75288103E+03</pdfrwt>
<pdfrwt beam="2">  1       -2 0.10372081E-01 0.75288103E+03</pdfrwt>
<totfact> 0.38892835E+02</totfact>
</mgrwt>
</event>
<event>
 4    1  0.9050888E-005  0.7554485E+03  0.7818608E-02  0.9626841E-01
          2   -1    0    0  501    0  0.00000000000E+00  0.00000000000E+00  0.25689572535E+04  0.25689572535E+04  0.25500000000E-02 0.  1.
         -2   -1    0    0    0  501 -0.00000000000E+00 -0.00000000000E+00 -0.55538329170E+02  0.55538329229E+02  0.25500000000E-02 0. -1.
    5000001    1    1    2    0    0  0.31925011134E+03  0.51840875227E+02  0.16184568431E+04  0.16586849198E+04  0.16500000000E+03 0.  0.
   -5000001    1    1    2    0    0 -0.31925011134E+03 -0.51840875227E+02  0.89496208119E+03  0.96581066297E+03  0.16500000000E+03 0.  0.
<mgrwt>
<rscale>  0 0.75544846E+03</rscale>
<asrwt>0</asrwt>
<pdfrwt beam="1">  1        2 0.39522423E+00 0.75544846E+03</pdfrwt>
<pdfrwt beam="2">  1       -2 0.85443575E-02 0.75544846E+03</pdfrwt>
<totfact> 0.29209498E+02</totfact>
</mgrwt>
</event>
<event>
 4    1  0.9050888E-005  0.6210613E+03  0.7818608E-02  0.9862649E-01
          2   -1    0    0  501    0  0.00000000000E+00  0.00000000000E+00  0.23042702314E+04  0.23042702314E+04  0.25500000000E-02 0.  1.
         -2   -1    0    0    0  501 -0.00000000000E+00 -0.00000000000E+00 -0.41848084976E+02  0.41848085053E+02  0.25500000000E-02 0. -1.
    5000001    1    1    2    0    0 -0.13358830745E+03  0.22598079279E+03  0.11956677342E+04  0.12352163718E+04  0.16500000000E+03 0.  0.
   -5000001    1    1    2    0    0  0.13358830745E+03 -0.22598079279E+03  0.10667544122E+04  0.11109019446E+04  0.16500000000E+03 0.  0.
<mgrwt>
<rscale>  0 0.62106134E+03</rscale>
<asrwt>0</asrwt>
<pdfrwt beam="1">  1        2 0.35450321E+00 0.62106134E+03</pdfrwt>
<pdfrwt beam="2">  1       -2 0.64381651E-02 0.62106134E+03</pdfrwt>
<totfact> 0.65292508E+02</totfact>
</mgrwt>
</event>
<event>
 4    1  0.9050888E-005  0.4380712E+03  0.7818608E-02  0.1031340E+00
          2   -1    0    0  501    0  0.00000000000E+00  0.00000000000E+00  0.25998522794E+03  0.25998522795E+03  0.25500000000E-02 0.  1.
         -2   -1    0    0    0  501 -0.00000000000E+00 -0.00000000000E+00 -0.18453588661E+03  0.18453588663E+03  0.25500000000E-02 0. -1.
    5000001    1    1    2    0    0  0.97843560507E+02 -0.99853714260E+02  0.72985072065E+02  0.22824536650E+03  0.16500000000E+03 0.  0.
   -5000001    1    1    2    0    0 -0.97843560507E+02  0.99853714260E+02  0.24642692578E+01  0.21627574808E+03  0.16500000000E+03 0.  0.
<mgrwt>
<rscale>  0 0.43807125E+03</rscale>
<asrwt>0</asrwt>
<pdfrwt beam="1">  1        2 0.39997728E-01 0.43807125E+03</pdfrwt>
<pdfrwt beam="2">  1       -2 0.28390136E-01 0.43807125E+03</pdfrwt>
<totfact> 0.14556406E+03</totfact>
</mgrwt>
</event>
<event>
 4    1  0.9050888E-005  0.5770296E+03  0.7818608E-02  0.9954243E-01
          2   -1    0    0  501    0  0.00000000000E+00  0.00000000000E+00  0.45579901289E+03  0.45579901290E+03  0.25500000000E-02 0.  1.
         -2   -1    0    0    0  501 -0.00000000000E+00 -0.00000000000E+00 -0.18262611665E+03  0.18262611667E+03  0.25500000000E-02 0. -1.
    5000001    1    1    2    0    0 -0.23551989679E+03  0.22812782796E+02  0.13097111955E+03  0.31680984675E+03  0.16500000000E+03 0.  0.
   -5000001    1    1    2    0    0  0.23551989679E+03 -0.22812782796E+02  0.14220177669E+03  0.32161528281E+03  0.16500000000E+03 0.  0.
<mgrwt>
<rscale>  0 0.57702965E+03</rscale>
<asrwt>0</asrwt>
<pdfrwt beam="1">  1        2 0.70122925E-01 0.57702965E+03</pdfrwt>
<pdfrwt beam="2">  1       -2 0.28096326E-01 0.57702965E+03</pdfrwt>
<totfact> 0.79713734E+02</totfact>
</mgrwt>
</event>
<event>
 4    1  0.9050888E-005  0.5606549E+03  0.7818608E-02  0.9990574E-01
         -2   -1    0    0    0  501 -0.00000000000E+00  0.00000000000E+00  0.42567809736E+02  0.42567809812E+02  0.25500000000E-02 0. -1.
          2   -1    0    0  501    0  0.00000000000E+00 -0.00000000000E+00 -0.18460777069E+04  0.18460777069E+04  0.25500000000E-02 0.  1.
    5000001    1    1    2    0    0 -0.72919743402E+02 -0.20426020337E+03 -0.11231381468E+04  0.11557265319E+04  0.16500000000E+03 0.  0.
   -5000001    1    1    2    0    0  0.72919743402E+02  0.20426020337E+03 -0.68037175035E+03  0.73291898483E+03  0.16500000000E+03 0.  0.
<mgrwt>
<rscale>  0 0.56065492E+03</rscale>
<asrwt>0</asrwt>
<pdfrwt beam="1">  1        2 0.28401189E+00 0.56065492E+03</pdfrwt>
<pdfrwt beam="2">  1       -2 0.65488952E-02 0.56065492E+03</pdfrwt>
<totfact> 0.11331980E+03</totfact>
</mgrwt>
</event>
<event>
 4    1  0.9050888E-005  0.5894409E+03  0.7818608E-02  0.9927558E-01
         -2   -1    0    0    0  501 -0.00000000000E+00  0.00000000000E+00  0.88440426755E+02  0.88440426792E+02  0.25500000000E-02 0. -1.
          2   -1    0    0  501    0  0.00000000000E+00 -0.00000000000E+00 -0.98213175360E+03  0.98213175360E+03  0.25500000000E-02 0.  1.
    5000001    1    1    2    0    0  0.18855865665E+03  0.71096282165E+02 -0.69737038602E+03  0.74441890333E+03  0.16500000000E+03 0.  0.
   -5000001    1    1    2    0    0 -0.18855865665E+03 -0.71096282165E+02 -0.19632094083E+03  0.32615327707E+03  0.16500000000E+03 0.  0.
<mgrwt>
<rscale>  0 0.58944093E+03</rscale>
<asrwt>0</asrwt>
<pdfrwt beam="1">  1        2 0.15109719E+00 0.58944093E+03</pdfrwt>
<pdfrwt beam="2">  1       -2 0.13606220E-01 0.58944093E+03</pdfrwt>
<totfact> 0.10762900E+03</totfact>
</mgrwt>
</event>
<event>
 4    1  0.9050888E-005  0.6142341E+03  0.7818608E-02  0.9876307E-01
         -2   -1    0    0    0  501 -0.00000000000E+00  0.00000000000E+00  0.72603178883E+03  0.72603178883E+03  0.25500000000E-02 0. -1.
          2   -1    0    0  501    0  0.00000000000E+00 -0.00000000000E+00 -0.12991286210E+03  0.12991286212E+03  0.25500000000E-02 0.  1.
    5000001    1    1    2    0    0  0.24469150952E+03  0.13109109876E+02  0.41506568118E+03  0.50946079661E+03  0.16500000000E+03 0.  0.
   -5000001    1    1    2    0    0 -0.24469150952E+03 -0.13109109876E+02  0.18105324555E+03  0.34648385434E+03  0.16500000000E+03 0.  0.
<mgrwt>
<rscale>  0 0.61423405E+03</rscale>
<asrwt>0</asrwt>
<pdfrwt beam="1">  1        2 0.19986593E-01 0.61423405E+03</pdfrwt>
<pdfrwt beam="2">  1       -2 0.11169720E+00 0.61423405E+03</pdfrwt>
<totfact> 0.18231313E+02</totfact>
</mgrwt>
</event>
<event>
 4    1  0.9050888E-005  0.1133071E+04  0.7818608E-02  0.9173545E-01
         -2   -1    0    0    0  501 -0.00000000000E+00  0.00000000000E+00  0.72931424365E+03  0.72931424366E+03  0.25500000000E-02 0. -1.
          2   -1    0    0  501    0  0.00000000000E+00 -0.00000000000E+00 -0.44008828573E+03  0.44008828574E+03  0.25500000000E-02 0.  1.
    5000001    1    1    2    0    0  0.42513394074E+03 -0.11522175995E+03 -0.18130166069E+03  0.50409345731E+03  0.16500000000E+03 0.  0.
   -5000001    1    1    2    0    0 -0.42513394074E+03  0.11522175995E+03  0.47052761860E+03  0.66530907209E+03  0.16500000000E+03 0.  0.
<mgrwt>
<rscale>  0 0.11330713E+04</rscale>
<asrwt>0</asrwt>
<pdfrwt beam="1">  1        2 0.67705891E-01 0.11330713E+04</pdfrwt>
<pdfrwt beam="2">  1       -2 0.11220219E+00 0.11330713E+04</pdfrwt>
<totfact> 0.44259350E+01</totfact>
</mgrwt>
</event>
<event>
 4    1  0.9050888E-005  0.4923643E+03  0.7818608E-02  0.1015791E+00
          2   -1    0    0  501    0  0.00000000000E+00  0.00000000000E+00  0.27396296975E+04  0.27396296975E+04  0.25500000000E-02 0.  1.
         -2   -1    0    0    0  501 -0.00000000000E+00 -0.00000000000E+00 -0.22121843025E+02  0.22121843172E+02  0.25500000000E-02 0. -1.
    5000001    1    1    2    0    0  0.40675764151E+02 -0.17414671007E+03  0.15685593933E+04  0.15873201204E+04  0.16500000000E+03 0.  0.
   -5000001    1    1    2    0    0 -0.40675764151E+02  0.17414671007E+03  0.11489484612E+04  0.11744314202E+04  0.16500000000E+03 0.  0.
<mgrwt>
<rscale>  0 0.49236433E+03</rscale>
<asrwt>0</asrwt>
<pdfrwt beam="1">  1        2 0.42148111E+00 0.49236433E+03</pdfrwt>
<pdfrwt beam="2">  1       -2 0.34033636E-02 0.49236433E+03</pdfrwt>
<totfact> 0.10048633E+03</totfact>
</mgrwt>
</event>
<event>
 4    1  0.9050888E-005  0.7474629E+03  0.7818608E-02  0.9639339E-01
          2   -1    0    0  501    0  0.00000000000E+00  0.00000000000E+00  0.12229126385E+04  0.12229126386E+04  0.25500000000E-02 0.  1.
         -2   -1    0    0    0  501 -0.00000000000E+00 -0.00000000000E+00 -0.11421519217E+03  0.11421519220E+03  0.25500000000E-02 0. -1.
    5000001    1    1    2    0    0  0.79251146861E+02 -0.31366083084E+03  0.71220068620E+03  0.79944898431E+03  0.16500000000E+03 0.  0.
   -5000001    1    1    2    0    0 -0.79251146861E+02  0.31366083084E+03  0.39649676017E+03  0.53767884644E+03  0.16500000000E+03 0.  0.
<mgrwt>
<rscale>  0 0.74746291E+03</rscale>
<asrwt>0</asrwt>
<pdfrwt beam="1">  1        2 0.18814041E+00 0.74746291E+03</pdfrwt>
<pdfrwt beam="2">  1       -2 0.17571567E-01 0.74746291E+03</pdfrwt>
<totfact> 0.49466888E+02</totfact>
</mgrwt>
</event>
<event>
 4    1  0.9050888E-005  0.3985395E+03  0.7818608E-02  0.1044287E+00
         -2   -1    0    0    0  501 -0.00000000000E+00  0.00000000000E+00  0.62925071327E+02  0.62925071379E+02  0.25500000000E-02 0. -1.
          2   -1    0    0  501    0  0.00000000000E+00 -0.00000000000E+00 -0.63104313227E+03  0.63104313227E+03  0.25500000000E-02 0.  1.
    5000001    1    1    2    0    0 -0.61941583295E+02  0.79633273218E+02 -0.20045561388E+03  0.27854204545E+03  0.16500000000E+03 0.  0.
   -5000001    1    1    2    0    0  0.61941583295E+02 -0.79633273218E+02 -0.36766244706E+03  0.41542615821E+03  0.16500000000E+03 0.  0.
<mgrwt>
<rscale>  0 0.39853950E+03</rscale>
<asrwt>0</asrwt>
<pdfrwt beam="1">  1        2 0.97083555E-01 0.39853950E+03</pdfrwt>
<pdfrwt beam="2">  1       -2 0.96807806E-02 0.39853950E+03</pdfrwt>
<totfact> 0.33411625E+03</totfact>
</mgrwt>
</event>
<event>
 4    1  0.9050888E-005  0.6657416E+03  0.7818608E-02  0.9777682E-01
          2   -1    0    0  501    0  0.00000000000E+00  0.00000000000E+00  0.11329494407E+04  0.11329494407E+04  0.25500000000E-02 0.  1.
         -2   -1    0    0    0  501 -0.00000000000E+00 -0.00000000000E+00 -0.97800443847E+02  0.97800443881E+02  0.25500000000E-02 0. -1.
    5000001    1    1    2    0    0  0.27362116324E+03  0.91849888781E+02  0.48702827743E+03  0.58968337781E+03  0.16500000000E+03 0.  0.
   -5000001    1    1    2    0    0 -0.27362116324E+03 -0.91849888781E+02  0.54812071938E+03  0.64106650673E+03  0.16500000000E+03 0.  0.
<mgrwt>
<rscale>  0 0.66574157E+03</rscale>
<asrwt>0</asrwt>
<pdfrwt beam="1">  1        2 0.17429991E+00 0.66574157E+03</pdfrwt>
<pdfrwt beam="2">  1       -2 0.15046222E-01 0.66574157E+03</pdfrwt>
<totfact> 0.73149870E+02</totfact>
</mgrwt>
</event>
<event>
 4    1  0.9050888E-005  0.3944417E+03  0.7818608E-02  0.1045721E+00
         -2   -1    0    0    0  501 -0.00000000000E+00  0.00000000000E+00  0.10919839307E+04  0.10919839307E+04  0.25500000000E-02 0. -1.
          2   -1    0    0  501    0  0.00000000000E+00 -0.00000000000E+00 -0.35619635906E+02  0.35619635998E+02  0.25500000000E-02 0.  1.
    5000001    1    1    2    0    0  0.54298349098E+02  0.88669133858E+02  0.61204316738E+03  0.64236466648E+03  0.16500000000E+03 0.  0.
   -5000001    1    1    2    0    0 -0.54298349098E+02 -0.88669133858E+02  0.44432112740E+03  0.48523890020E+03  0.16500000000E+03 0.  0.
<mgrwt>
<rscale>  0 0.39444173E+03</rscale>
<asrwt>0</asrwt>
<pdfrwt beam="1">  1        2 0.54799431E-02 0.39444173E+03</pdfrwt>
<pdfrwt beam="2">  1       -2 0.16799756E+00 0.39444173E+03</pdfrwt>
<totfact> 0.32786476E+02</totfact>
</mgrwt>
</event>
<event>
 4    1  0.9050888E-005  0.4198228E+03  0.7818608E-02  0.1037124E+00
         -2   -1    0    0    0  501 -0.00000000000E+00  0.00000000000E+00  0.43343553893E+02  0.43343553968E+02  0.25500000000E-02 0. -1.
          2   -1    0    0  501    0  0.00000000000E+00 -0.00000000000E+00 -0.10165940072E+04  0.10165940072E+04  0.25500000000E-02 0.  1.
    5000001    1    1    2    0    0 -0.12084034908E+03  0.45679145125E+02 -0.51742511594E+03  0.55824969760E+03  0.16500000000E+03 0.  0.
   -5000001    1    1    2    0    0  0.12084034908E+03 -0.45679145125E+02 -0.45582533735E+03  0.50168786356E+03  0.16500000000E+03 0.  0.
<mgrwt>
<rscale>  0 0.41982281E+03</rscale>
<asrwt>0</asrwt>
<pdfrwt beam="1">  1        2 0.15639906E+00 0.41982281E+03</pdfrwt>
<pdfrwt beam="2">  1       -2 0.66682399E-02 0.41982281E+03</pdfrwt>
<totfact> 0.32347619E+03</totfact>
</mgrwt>
</event>
<event>
 4    1  0.9050888E-005  0.4360072E+03  0.7818608E-02  0.1031979E+00
         -2   -1    0    0    0  501 -0.00000000000E+00  0.00000000000E+00  0.43569260097E+02  0.43569260171E+02  0.25500000000E-02 0. -1.
          2   -1    0    0  501    0  0.00000000000E+00 -0.00000000000E+00 -0.10908049011E+04  0.10908049011E+04  0.25500000000E-02 0.  1.
    5000001    1    1    2    0    0  0.31976655588E+02  0.13457852325E+03 -0.61248431087E+03  0.64922716863E+03  0.16500000000E+03 0.  0.
   -5000001    1    1    2    0    0 -0.31976655588E+02 -0.13457852325E+03 -0.43475133013E+03  0.48514699264E+03  0.16500000000E+03 0.  0.
<mgrwt>
<rscale>  0 0.43600717E+03</rscale>
<asrwt>0</asrwt>
<pdfrwt beam="1">  1        2 0.16781612E+00 0.43600717E+03</pdfrwt>
<pdfrwt beam="2">  1       -2 0.67029639E-02 0.43600717E+03</pdfrwt>
<totfact> 0.28911909E+03</totfact>
</mgrwt>
</event>
<event>
 4    1  0.9050888E-005  0.4826694E+03  0.7818608E-02  0.1018404E+00
         -2   -1    0    0    0  501 -0.00000000000E+00  0.00000000000E+00  0.68001738913E+02  0.68001738961E+02  0.25500000000E-02 0. -1.
          2   -1    0    0  501    0  0.00000000000E+00 -0.00000000000E+00 -0.85648463758E+03  0.85648463758E+03  0.25500000000E-02 0.  1.
    5000001    1    1    2    0    0 -0.80293916385E+02  0.28433074473E+02 -0.98990548941E+02  0.21042737824E+03  0.16500000000E+03 0.  0.
   -5000001    1    1    2    0    0  0.80293916385E+02 -0.28433074473E+02 -0.68949234972E+03  0.71405899830E+03  0.16500000000E+03 0.  0.
<mgrwt>
<rscale>  0 0.48266943E+03</rscale>
<asrwt>0</asrwt>
<pdfrwt beam="1">  1        2 0.13176686E+00 0.48266943E+03</pdfrwt>
<pdfrwt beam="2">  1       -2 0.10461807E-01 0.48266943E+03</pdfrwt>
<totfact> 0.20078727E+03</totfact>
</mgrwt>
</event>
<event>
 4    1  0.9050888E-005  0.4352973E+03  0.7818608E-02  0.1032200E+00
         -2   -1    0    0    0  501 -0.00000000000E+00  0.00000000000E+00  0.34113631949E+02  0.34113632045E+02  0.25500000000E-02 0. -1.
          2   -1    0    0  501    0  0.00000000000E+00 -0.00000000000E+00 -0.13886216138E+04  0.13886216138E+04  0.25500000000E-02 0.  1.
    5000001    1    1    2    0    0  0.41766040706E+02 -0.61015475555E+02 -0.28126691716E+03  0.33437010796E+03  0.16500000000E+03 0.  0.
   -5000001    1    1    2    0    0 -0.41766040706E+02  0.61015475555E+02 -0.10732410647E+04  0.10883651379E+04  0.16500000000E+03 0.  0.
<mgrwt>
<rscale>  0 0.43529726E+03</rscale>
<asrwt>0</asrwt>
<pdfrwt beam="1">  1        2 0.21363405E+00 0.43529726E+03</pdfrwt>
<pdfrwt beam="2">  1       -2 0.52482521E-02 0.43529726E+03</pdfrwt>
<totfact> 0.28504434E+03</totfact>
</mgrwt>
</event>
<event>
 4    1  0.9050888E-005  0.4256715E+03  0.7818608E-02  0.1035236E+00
         -2   -1    0    0    0  501 -0.00000000000E+00  0.00000000000E+00  0.15237045867E+03  0.15237045870E+03  0.25500000000E-02 0. -1.
          2   -1    0    0  501    0  0.00000000000E+00 -0.00000000000E+00 -0.29729553955E+03  0.29729553956E+03  0.25500000000E-02 0.  1.
    5000001    1    1    2    0    0  0.18262524358E+01 -0.12980549956E+03 -0.35546202369E+02  0.21293504976E+03  0.16500000000E+03 0.  0.
   -5000001    1    1    2    0    0 -0.18262524358E+01  0.12980549956E+03 -0.10937887851E+03  0.23673094850E+03  0.16500000000E+03 0.  0.
<mgrwt>
<rscale>  0 0.42567151E+03</rscale>
<asrwt>0</asrwt>
<pdfrwt beam="1">  1        2 0.45737775E-01 0.42567151E+03</pdfrwt>
<pdfrwt beam="2">  1       -2 0.23441609E-01 0.42567151E+03</pdfrwt>
<totfact> 0.17715793E+03</totfact>
</mgrwt>
</event>
<event>
 4    1  0.9050888E-005  0.4939976E+03  0.7818608E-02  0.1015358E+00
         -2   -1    0    0    0  501 -0.00000000000E+00  0.00000000000E+00  0.51113231335E+02  0.51113231399E+02  0.25500000000E-02 0. -1.
          2   -1    0    0  501    0  0.00000000000E+00 -0.00000000000E+00 -0.11935933400E+04  0.11935933400E+04  0.25500000000E-02 0.  1.
    5000001    1    1    2    0    0 -0.10358952760E+03 -0.80908064562E+02 -0.89496019461E+03  0.91948662583E+03  0.16500000000E+03 0.  0.
   -5000001    1    1    2    0    0  0.10358952760E+03  0.80908064562E+02 -0.24751991401E+03  0.32521994553E+03  0.16500000000E+03 0.  0.
<mgrwt>
<rscale>  0 0.49399762E+03</rscale>
<asrwt>0</asrwt>
<pdfrwt beam="1">  1        2 0.18362972E+00 0.49399762E+03</pdfrwt>
<pdfrwt beam="2">  1       -2 0.78635749E-02 0.49399762E+03</pdfrwt>
<totfact> 0.19532528E+03</totfact>
</mgrwt>
</event>
<event>
 4    1  0.9050888E-005  0.4083273E+03  0.7818608E-02  0.1040934E+00
          2   -1    0    0  501    0  0.00000000000E+00  0.00000000000E+00  0.34015373477E+03  0.34015373478E+03  0.25500000000E-02 0.  1.
         -2   -1    0    0    0  501 -0.00000000000E+00 -0.00000000000E+00 -0.12254103210E+03  0.12254103213E+03  0.25500000000E-02 0. -1.
    5000001    1    1    2    0    0  0.87213196953E+02 -0.61179211774E+02  0.45626405906E+02  0.20163285097E+03  0.16500000000E+03 0.  0.
   -5000001    1    1    2    0    0 -0.87213196953E+02  0.61179211774E+02  0.17198629676E+03  0.26106191593E+03  0.16500000000E+03 0.  0.
<mgrwt>
<rscale>  0 0.40832727E+03</rscale>
<asrwt>0</asrwt>
<pdfrwt beam="1">  1        2 0.52331344E-01 0.40832727E+03</pdfrwt>
<pdfrwt beam="2">  1       -2 0.18852466E-01 0.40832727E+03</pdfrwt>
<totfact> 0.22330040E+03</totfact>
</mgrwt>
</event>
<event>
 4    1  0.9050888E-005  0.4836744E+03  0.7818608E-02  0.1018130E+00
         -2   -1    0    0    0  501 -0.00000000000E+00  0.00000000000E+00  0.38037319541E+02  0.38037319626E+02  0.25500000000E-02 0. -1.
          2   -1    0    0  501    0  0.00000000000E+00 -0.00000000000E+00 -0.15375747615E+04  0.15375747615E+04  0.25500000000E-02 0.  1.
    5000001    1    1    2    0    0  0.28909198759E+02  0.12692361809E+03 -0.36001521735E+03  0.41687084730E+03  0.16500000000E+03 0.  0.
   -5000001    1    1    2    0    0 -0.28909198759E+02 -0.12692361809E+03 -0.11395222246E+04  0.11587412338E+04  0.16500000000E+03 0.  0.
<mgrwt>
<rscale>  0 0.48367436E+03</rscale>
<asrwt>0</asrwt>
<pdfrwt beam="1">  1        2 0.23654992E+00 0.48367436E+03</pdfrwt>
<pdfrwt beam="2">  1       -2 0.58518965E-02 0.48367436E+03</pdfrwt>
<totfact> 0.19918205E+03</totfact>
</mgrwt>
</event>
<event>
 4    1  0.9050888E-005  0.5009030E+03  0.7818608E-02  0.1013543E+00
          2   -1    0    0  501    0  0.00000000000E+00  0.00000000000E+00  0.11149367365E+04  0.11149367366E+04  0.25500000000E-02 0.  1.
         -2   -1    0    0    0  501 -0.00000000000E+00 -0.00000000000E+00 -0.56259658262E+02  0.56259658320E+02  0.25500000000E-02 0. -1.
    5000001    1    1    2    0    0 -0.17059199623E+03 -0.55080219453E+02  0.66498262878E+03  0.70821067228E+03  0.16500000000E+03 0.  0.
   -5000001    1    1    2    0    0  0.17059199623E+03  0.55080219453E+02  0.39369444951E+03  0.46298572259E+03  0.16500000000E+03 0.  0.
<mgrwt>
<rscale>  0 0.50090302E+03</rscale>
<asrwt>0</asrwt>
<pdfrwt beam="1">  1        2 0.17152873E+00 0.50090302E+03</pdfrwt>
<pdfrwt beam="2">  1       -2 0.86553322E-02 0.50090302E+03</pdfrwt>
<totfact> 0.18660919E+03</totfact>
</mgrwt>
</event>
<event>
 4    1  0.9050888E-005  0.8463587E+03  0.7818608E-02  0.9495237E-01
         -2   -1    0    0    0  501 -0.00000000000E+00  0.00000000000E+00  0.66403199926E+02  0.66403199975E+02  0.25500000000E-02 0. -1.
          2   -1    0    0  501    0  0.00000000000E+00 -0.00000000000E+00 -0.26968695919E+04  0.26968695919E+04  0.25500000000E-02 0.  1.
    5000001    1    1    2    0    0 -0.57944432501E+02 -0.38507196409E+03 -0.13634162374E+04  0.14275036992E+04  0.16500000000E+03 0.  0.
   -5000001    1    1    2    0    0  0.57944432501E+02  0.38507196409E+03 -0.12670501546E+04  0.13357690927E+04  0.16500000000E+03 0.  0.
<mgrwt>
<rscale>  0 0.84635872E+03</rscale>
<asrwt>0</asrwt>
<pdfrwt beam="1">  1        2 0.41490293E+00 0.84635872E+03</pdfrwt>
<pdfrwt beam="2">  1       -2 0.10215879E-01 0.84635872E+03</pdfrwt>
<totfact> 0.18282897E+02</totfact>
</mgrwt>
</event>
<event>
 4    1  0.9050888E-005  0.6038315E+03  0.7818608E-02  0.9897489E-01
         -2   -1    0    0    0  501 -0.00000000000E+00  0.00000000000E+00  0.19601652151E+03  0.19601652153E+03  0.25500000000E-02 0. -1.
          2   -1    0    0  501    0  0.00000000000E+00 -0.00000000000E+00 -0.46502771110E+03  0.46502771111E+03  0.25500000000E-02 0.  1.
    5000001    1    1    2    0    0  0.90626192893E+02 -0.16171757057E+03  0.53722683515E+02  0.25392283512E+03  0.16500000000E+03 0.  0.
   -5000001    1    1    2    0    0 -0.90626192893E+02  0.16171757057E+03 -0.32273387311E+03  0.40712139752E+03  0.16500000000E+03 0.  0.
<mgrwt>
<rscale>  0 0.60383148E+03</rscale>
<asrwt>0</asrwt>
<pdfrwt beam="1">  1        2 0.71542724E-01 0.60383148E+03</pdfrwt>
<pdfrwt beam="2">  1       -2 0.30156388E-01 0.60383148E+03</pdfrwt>
<totfact> 0.68383206E+02</totfact>
</mgrwt>
</event>
<event>
 4    1  0.9050888E-005  0.4441415E+03  0.7818608E-02  0.1029484E+00
         -2   -1    0    0    0  501 -0.00000000000E+00  0.00000000000E+00  0.14582198973E+03  0.14582198975E+03  0.25500000000E-02 0. -1.
          2   -1    0    0  501    0  0.00000000000E+00 -0.00000000000E+00 -0.33818922460E+03  0.33818922461E+03  0.25500000000E-02 0.  1.
    5000001    1    1    2    0    0 -0.44699490250E+02 -0.14027401613E+03 -0.73967805061E+02  0.23317607127E+03  0.16500000000E+03 0.  0.
   -5000001    1    1    2    0    0  0.44699490250E+02  0.14027401613E+03 -0.11839942982E+03  0.25083514309E+03  0.16500000000E+03 0.  0.
<mgrwt>
<rscale>  0 0.44414153E+03</rscale>
<asrwt>0</asrwt>
<pdfrwt beam="1">  1        2 0.52029111E-01 0.44414153E+03</pdfrwt>
<pdfrwt beam="2">  1       -2 0.22434152E-01 0.44414153E+03</pdfrwt>
<totfact> 0.16629081E+03</totfact>
</mgrwt>
</event>
<event>
 4    1  0.9050888E-005  0.4662835E+03  0.7818608E-02  0.1022974E+00
          2   -1    0    0  501    0  0.00000000000E+00  0.00000000000E+00  0.15884703380E+04  0.15884703380E+04  0.25500000000E-02 0.  1.
         -2   -1    0    0    0  501 -0.00000000000E+00 -0.00000000000E+00 -0.34218503742E+02  0.34218503837E+02  0.25500000000E-02 0. -1.
    5000001    1    1    2    0    0 -0.15089511182E+03  0.18195979138E+02  0.55621415145E+03  0.59974962335E+03  0.16500000000E+03 0.  0.
   -5000001    1    1    2    0    0  0.15089511182E+03 -0.18195979138E+02  0.99803768279E+03  0.10229392185E+04  0.16500000000E+03 0.  0.
<mgrwt>
<rscale>  0 0.46628351E+03</rscale>
<asrwt>0</asrwt>
<pdfrwt beam="1">  1        2 0.24438004E+00 0.46628351E+03</pdfrwt>
<pdfrwt beam="2">  1       -2 0.52643854E-02 0.46628351E+03</pdfrwt>
<totfact> 0.22033630E+03</totfact>
</mgrwt>
</event>
<event>
 4    1  0.9050888E-005  0.9226369E+03  0.7818608E-02  0.9397718E-01
          2   -1    0    0  501    0  0.00000000000E+00  0.00000000000E+00  0.80689512455E+03  0.80689512456E+03  0.25500000000E-02 0.  1.
         -2   -1    0    0    0  501 -0.00000000000E+00 -0.00000000000E+00 -0.26374517603E+03  0.26374517604E+03  0.25500000000E-02 0. -1.
    5000001    1    1    2    0    0 -0.37704753663E+03  0.16364054966E+03  0.42129360477E+03  0.61127438666E+03  0.16500000000E+03 0.  0.
   -5000001    1    1    2    0    0  0.37704753663E+03 -0.16364054966E+03  0.12185634375E+03  0.45936591393E+03  0.16500000000E+03 0.  0.
<mgrwt>
<rscale>  0 0.92263687E+03</rscale>
<asrwt>0</asrwt>
<pdfrwt beam="1">  1        2 0.12413771E+00 0.92263687E+03</pdfrwt>
<pdfrwt beam="2">  1       -2 0.40576181E-01 0.92263687E+03</pdfrwt>
<totfact> 0.19608903E+02</totfact>
</mgrwt>
</event>
<event>
 4    1  0.9050888E-005  0.9250028E+03  0.7818608E-02  0.9394855E-01
          2   -1    0    0  501    0  0.00000000000E+00  0.00000000000E+00  0.44745234310E+03  0.44745234311E+03  0.25500000000E-02 0.  1.
         -2   -1    0    0    0  501 -0.00000000000E+00 -0.00000000000E+00 -0.47805661268E+03  0.47805661268E+03  0.25500000000E-02 0. -1.
    5000001    1    1    2    0    0  0.39890644789E+03 -0.14994766936E+03  0.55954063201E+02  0.46039821340E+03  0.16500000000E+03 0.  0.
   -5000001    1    1    2    0    0 -0.39890644789E+03  0.14994766936E+03 -0.86558332779E+02  0.46511074239E+03  0.16500000000E+03 0.  0.
<mgrwt>
<rscale>  0 0.92500281E+03</rscale>
<asrwt>0</asrwt>
<pdfrwt beam="1">  1        2 0.68838821E-01 0.92500281E+03</pdfrwt>
<pdfrwt beam="2">  1       -2 0.73547172E-01 0.92500281E+03</pdfrwt>
<totfact> 0.11706838E+02</totfact>
</mgrwt>
</event>
<event>
 4    1  0.9050888E-005  0.3525959E+03  0.7818608E-02  0.1061555E+00
         -2   -1    0    0    0  501 -0.00000000000E+00  0.00000000000E+00  0.24191034359E+02  0.24191034493E+02  0.25500000000E-02 0. -1.
          2   -1    0    0  501    0  0.00000000000E+00 -0.00000000000E+00 -0.12848136819E+04  0.12848136819E+04  0.25500000000E-02 0.  1.
    5000001    1    1    2    0    0  0.14456824422E+02 -0.41254475351E+02 -0.79404131711E+03  0.81218073407E+03  0.16500000000E+03 0.  0.
   -5000001    1    1    2    0    0 -0.14456824422E+02  0.41254475351E+02 -0.46658133039E+03  0.49682398229E+03  0.16500000000E+03 0.  0.
<mgrwt>
<rscale>  0 0.35259593E+03</rscale>
<asrwt>0</asrwt>
<pdfrwt beam="1">  1        2 0.19766359E+00 0.35259593E+03</pdfrwt>
<pdfrwt beam="2">  1       -2 0.37216986E-02 0.35259593E+03</pdfrwt>
<totfact> 0.55030315E+03</totfact>
</mgrwt>
</event>
<event>
 4    1  0.9050888E-005  0.4230184E+03  0.7818608E-02  0.1036088E+00
          2   -1    0    0  501    0  0.00000000000E+00  0.00000000000E+00  0.45092320976E+03  0.45092320977E+03  0.25500000000E-02 0. -1.
         -2   -1    0    0    0  501 -0.00000000000E+00 -0.00000000000E+00 -0.99210128864E+02  0.99210128897E+02  0.25500000000E-02 0.  1.
    5000001    1    1    2    0    0 -0.63838027006E+02 -0.11590539301E+03  0.17411371341E+03  0.27395243934E+03  0.16500000000E+03 0.  0.
   -5000001    1    1    2    0    0  0.63838027006E+02  0.11590539301E+03  0.17759936748E+03  0.27618089932E+03  0.16500000000E+03 0.  0.
<mgrwt>
<rscale>  0 0.42301844E+03</rscale>
<asrwt>0</asrwt>
<pdfrwt beam="1">  1        2 0.69372802E-01 0.42301844E+03</pdfrwt>
<pdfrwt beam="2">  1       -2 0.15263097E-01 0.42301844E+03</pdfrwt>
<totfact> 0.23396366E+03</totfact>
</mgrwt>
</event>
<event>
 4    1  0.9050888E-005  0.4006051E+03  0.7818608E-02  0.1043570E+00
         -2   -1    0    0    0  501 -0.00000000000E+00  0.00000000000E+00  0.90398567988E+02  0.90398568024E+02  0.25500000000E-02 0. -1.
          2   -1    0    0  501    0  0.00000000000E+00 -0.00000000000E+00 -0.44382461626E+03  0.44382461627E+03  0.25500000000E-02 0.  1.
    5000001    1    1    2    0    0 -0.92820997710E+02  0.28401729996E+02 -0.98116509227E+02  0.21511449339E+03  0.16500000000E+03 0.  0.
   -5000001    1    1    2    0    0  0.92820997710E+02 -0.28401729996E+02 -0.25530953904E+03  0.31910869090E+03  0.16500000000E+03 0.  0.
<mgrwt>
<rscale>  0 0.40060509E+03</rscale>
<asrwt>0</asrwt>
<pdfrwt beam="1">  1        2 0.68280709E-01 0.40060509E+03</pdfrwt>
<pdfrwt beam="2">  1       -2 0.13907472E-01 0.40060509E+03</pdfrwt>
<totfact> 0.27784291E+03</totfact>
</mgrwt>
</event>
<event>
 4    1  0.9050888E-005  0.3759936E+03  0.7818608E-02  0.1052425E+00
          2   -1    0    0  501    0  0.00000000000E+00  0.00000000000E+00  0.16277645917E+03  0.16277645919E+03  0.25500000000E-02 0.  1.
         -2   -1    0    0    0  501 -0.00000000000E+00 -0.00000000000E+00 -0.21712469720E+03  0.21712469721E+03  0.25500000000E-02 0. -1.
    5000001    1    1    2    0    0 -0.81542739627E+02  0.38270143967E+02 -0.29186579291E+02  0.19023847854E+03  0.16500000000E+03 0.  0.
   -5000001    1    1    2    0    0  0.81542739627E+02 -0.38270143967E+02 -0.25161658734E+02  0.18966267787E+03  0.16500000000E+03 0.  0.
<mgrwt>
<rscale>  0 0.37599356E+03</rscale>
<asrwt>0</asrwt>
<pdfrwt beam="1">  1        2 0.25042532E-01 0.37599356E+03</pdfrwt>
<pdfrwt beam="2">  1       -2 0.33403800E-01 0.37599356E+03</pdfrwt>
<totfact> 0.18110401E+03</totfact>
</mgrwt>
</event>
<event>
 4    1  0.9050888E-005  0.4743383E+03  0.7818608E-02  0.1020703E+00
          2   -1    0    0  501    0  0.00000000000E+00  0.00000000000E+00  0.26380142372E+03  0.26380142373E+03  0.25500000000E-02 0.  1.
         -2   -1    0    0    0  501 -0.00000000000E+00 -0.00000000000E+00 -0.21322558506E+03  0.21322558508E+03  0.25500000000E-02 0. -1.
    5000001    1    1    2    0    0  0.15981002200E+03 -0.51692144687E+02 -0.33849505860E+01  0.23547352047E+03  0.16500000000E+03 0.  0.
   -5000001    1    1    2    0    0 -0.15981002200E+03  0.51692144687E+02  0.53960789244E+02  0.24155348834E+03  0.16500000000E+03 0.  0.
<mgrwt>
<rscale>  0 0.47433833E+03</rscale>
<asrwt>0</asrwt>
<pdfrwt beam="1">  1        2 0.40584834E-01 0.47433833E+03</pdfrwt>
<pdfrwt beam="2">  1       -2 0.32803936E-01 0.47433833E+03</pdfrwt>
<totfact> 0.10980558E+03</totfact>
</mgrwt>
</event>
<event>
 4    1  0.9050888E-005  0.3872577E+03  0.7818608E-02  0.1048283E+00
         -2   -1    0    0    0  501 -0.00000000000E+00  0.00000000000E+00  0.27319145022E+02  0.27319145141E+02  0.25500000000E-02 0.  1.
          2   -1    0    0  501    0  0.00000000000E+00 -0.00000000000E+00 -0.13723758967E+04  0.13723758967E+04  0.25500000000E-02 0. -1.
    5000001    1    1    2    0    0  0.95951671414E+02 -0.25715971593E+02 -0.74473468946E+03  0.76923519949E+03  0.16500000000E+03 0.  0.
   -5000001    1    1    2    0    0 -0.95951671414E+02  0.25715971593E+02 -0.60032206226E+03  0.63045984240E+03  0.16500000000E+03 0.  0.
<mgrwt>
<rscale>  0 0.38725772E+03</rscale>
<asrwt>0</asrwt>
<pdfrwt beam="1">  1        2 0.21113470E+00 0.38725772E+03</pdfrwt>
<pdfrwt beam="2">  1       -2 0.42029465E-02 0.38725772E+03</pdfrwt>
<totfact> 0.40915591E+03</totfact>
</mgrwt>
</event>
<event>
 4    1  0.9050888E-005  0.3978185E+03  0.7818608E-02  0.1044538E+00
         -2   -1    0    0    0  501 -0.00000000000E+00  0.00000000000E+00  0.17126467986E+02  0.17126468176E+02  0.25500000000E-02 0. -1.
          2   -1    0    0  501    0  0.00000000000E+00 -0.00000000000E+00 -0.23101605430E+04  0.23101605430E+04  0.25500000000E-02 0.  1.
    5000001    1    1    2    0    0  0.56909207334E+02 -0.70793244870E+02 -0.77240412861E+03  0.79503677858E+03  0.16500000000E+03 0.  0.
   -5000001    1    1    2    0    0 -0.56909207334E+02  0.70793244870E+02 -0.15206299464E+04  0.15322502326E+04  0.16500000000E+03 0.  0.
<mgrwt>
<rscale>  0 0.39781851E+03</rscale>
<asrwt>0</asrwt>
<pdfrwt beam="1">  1        2 0.35540907E+00 0.39781851E+03</pdfrwt>
<pdfrwt beam="2">  1       -2 0.26348431E-02 0.39781851E+03</pdfrwt>
<totfact> 0.25919742E+03</totfact>
</mgrwt>
</event>
<event>
 4    1  0.9050888E-005  0.4628216E+03  0.7818608E-02  0.1023966E+00
          2   -1    0    0  501    0  0.00000000000E+00  0.00000000000E+00  0.24412858356E+03  0.24412858357E+03  0.25500000000E-02 0.  1.
         -2   -1    0    0    0  501 -0.00000000000E+00 -0.00000000000E+00 -0.21935551338E+03  0.21935551339E+03  0.25500000000E-02 0. -1.
    5000001    1    1    2    0    0  0.12849541131E+03 -0.32852796702E+02  0.10598462095E+03  0.23674483491E+03  0.16500000000E+03 0.  0.
   -5000001    1    1    2    0    0 -0.12849541131E+03  0.32852796702E+02 -0.81211550776E+02  0.22673926205E+03  0.16500000000E+03 0.  0.
<mgrwt>
<rscale>  0 0.46282157E+03</rscale>
<asrwt>0</asrwt>
<pdfrwt beam="1">  1        2 0.37558244E-01 0.46282157E+03</pdfrwt>
<pdfrwt beam="2">  1       -2 0.33747002E-01 0.46282157E+03</pdfrwt>
<totfact> 0.11339163E+03</totfact>
</mgrwt>
</event>
<event>
 4    1  0.9050888E-005  0.1136125E+04  0.7818608E-02  0.9170680E-01
         -2   -1    0    0    0  501 -0.00000000000E+00  0.00000000000E+00  0.85222352331E+03  0.85222352331E+03  0.25500000000E-02 0. -1.
          2   -1    0    0  501    0  0.00000000000E+00 -0.00000000000E+00 -0.37865099648E+03  0.37865099649E+03  0.25500000000E-02 0.  1.
    5000001    1    1    2    0    0  0.41771181361E+03  0.23771884544E+03 -0.38313029446E+02  0.50959424735E+03  0.16500000000E+03 0.  0.
   -5000001    1    1    2    0    0 -0.41771181361E+03 -0.23771884544E+03  0.51188555627E+03  0.72128027245E+03  0.16500000000E+03 0.  0.
<mgrwt>
<rscale>  0 0.11361255E+04</rscale>
<asrwt>0</asrwt>
<pdfrwt beam="1">  1        2 0.58254000E-01 0.11361255E+04</pdfrwt>
<pdfrwt beam="2">  1       -2 0.13111131E+00 0.11361255E+04</pdfrwt>
<totfact> 0.35594840E+01</totfact>
</mgrwt>
</event>
<event>
 4    1  0.9050888E-005  0.4921472E+03  0.7818608E-02  0.1015849E+00
         -2   -1    0    0    0  501 -0.00000000000E+00  0.00000000000E+00  0.16601208965E+03  0.16601208967E+03  0.25500000000E-02 0. -1.
          2   -1    0    0  501    0  0.00000000000E+00 -0.00000000000E+00 -0.36474579644E+03  0.36474579645E+03  0.25500000000E-02 0.  1.
    5000001    1    1    2    0    0  0.17826415005E+03  0.10322813662E+02 -0.14032742580E+03  0.28071596696E+03  0.16500000000E+03 0.  0.
   -5000001    1    1    2    0    0 -0.17826415005E+03 -0.10322813662E+02 -0.58406280992E+02  0.25004191915E+03  0.16500000000E+03 0.  0.
<mgrwt>
<rscale>  0 0.49214718E+03</rscale>
<asrwt>0</asrwt>
<pdfrwt beam="1">  1        2 0.56114738E-01 0.49214718E+03</pdfrwt>
<pdfrwt beam="2">  1       -2 0.25540322E-01 0.49214718E+03</pdfrwt>
<totfact> 0.12159695E+03</totfact>
</mgrwt>
</event>
<event>
 4    1  0.9050888E-005  0.3973057E+03  0.7818608E-02  0.1044717E+00
          2   -1    0    0  501    0  0.00000000000E+00  0.00000000000E+00  0.36854137085E+03  0.36854137086E+03  0.25500000000E-02 0.  1.
         -2   -1    0    0    0  501 -0.00000000000E+00 -0.00000000000E+00 -0.10707878923E+03  0.10707878926E+03  0.25500000000E-02 0. -1.
    5000001    1    1    2    0    0  0.38260756330E+02  0.82035175432E+02  0.20686159005E+03  0.27966117521E+03  0.16500000000E+03 0.  0.
   -5000001    1    1    2    0    0 -0.38260756330E+02 -0.82035175432E+02  0.54600991573E+02  0.19595898490E+03  0.16500000000E+03 0.  0.
<mgrwt>
<rscale>  0 0.39730575E+03</rscale>
<asrwt>0</asrwt>
<pdfrwt beam="1">  1        2 0.56698672E-01 0.39730575E+03</pdfrwt>
<pdfrwt beam="2">  1       -2 0.16473660E-01 0.39730575E+03</pdfrwt>
<totfact> 0.25710758E+03</totfact>
</mgrwt>
</event>
<event>
 4    1  0.9050888E-005  0.3930030E+03  0.7818608E-02  0.1046230E+00
         -2   -1    0    0    0  501 -0.00000000000E+00  0.00000000000E+00  0.23585442397E+02  0.23585442535E+02  0.25500000000E-02 0. -1.
          2   -1    0    0  501    0  0.00000000000E+00 -0.00000000000E+00 -0.16371473494E+04  0.16371473494E+04  0.25500000000E-02 0.  1.
    5000001    1    1    2    0    0 -0.45660733220E+02 -0.92812880278E+02 -0.69588326949E+03  0.72261861175E+03  0.16500000000E+03 0.  0.
   -5000001    1    1    2    0    0  0.45660733220E+02  0.92812880278E+02 -0.91767863747E+03  0.93811418014E+03  0.16500000000E+03 0.  0.
<mgrwt>
<rscale>  0 0.39300303E+03</rscale>
<asrwt>0</asrwt>
<pdfrwt beam="1">  1        2 0.25186873E+00 0.39300303E+03</pdfrwt>
<pdfrwt beam="2">  1       -2 0.36285309E-02 0.39300303E+03</pdfrwt>
<totfact> 0.36713166E+03</totfact>
</mgrwt>
</event>
<event>
 4    1  0.9050888E-005  0.5367863E+03  0.7818608E-02  0.1004599E+00
         -2   -1    0    0    0  501 -0.00000000000E+00  0.00000000000E+00  0.61481360831E+02  0.61481360884E+02  0.25500000000E-02 0. -1.
          2   -1    0    0  501    0  0.00000000000E+00 -0.00000000000E+00 -0.11716540003E+04  0.11716540003E+04  0.25500000000E-02 0.  1.
    5000001    1    1    2    0    0 -0.12020270682E+03 -0.15859317135E+03 -0.72089340543E+03  0.76584122813E+03  0.16500000000E+03 0.  0.
   -5000001    1    1    2    0    0  0.12020270682E+03  0.15859317135E+03 -0.38927923403E+03  0.46729413303E+03  0.16500000000E+03 0.  0.
<mgrwt>
<rscale>  0 0.53678630E+03</rscale>
<asrwt>0</asrwt>
<pdfrwt beam="1">  1        2 0.18025445E+00 0.53678630E+03</pdfrwt>
<pdfrwt beam="2">  1       -2 0.94586718E-02 0.53678630E+03</pdfrwt>
<totfact> 0.14964859E+03</totfact>
</mgrwt>
</event>
<event>
 4    1  0.9050888E-005  0.3785936E+03  0.7818608E-02  0.1051455E+00
         -2   -1    0    0    0  501 -0.00000000000E+00  0.00000000000E+00  0.10874808643E+03  0.10874808646E+03  0.25500000000E-02 0. -1.
          2   -1    0    0  501    0  0.00000000000E+00 -0.00000000000E+00 -0.32950718942E+03  0.32950718943E+03  0.25500000000E-02 0.  1.
    5000001    1    1    2    0    0  0.71020106017E+01 -0.92506007026E+02 -0.11117856692E+03  0.21953012010E+03  0.16500000000E+03 0.  0.
   -5000001    1    1    2    0    0 -0.71020106017E+01  0.92506007026E+02 -0.10958053606E+03  0.21872515579E+03  0.16500000000E+03 0.  0.
<mgrwt>
<rscale>  0 0.37859359E+03</rscale>
<asrwt>0</asrwt>
<pdfrwt beam="1">  1        2 0.50693413E-01 0.37859359E+03</pdfrwt>
<pdfrwt beam="2">  1       -2 0.16730475E-01 0.37859359E+03</pdfrwt>
<totfact> 0.28289215E+03</totfact>
</mgrwt>
</event>
<event>
 4    1  0.9050888E-005  0.6265042E+03  0.7818608E-02  0.9851894E-01
          2   -1    0    0  501    0  0.00000000000E+00  0.00000000000E+00  0.25859028732E+03  0.25859028733E+03  0.25500000000E-02 0. -1.
         -2   -1    0    0    0  501 -0.00000000000E+00 -0.00000000000E+00 -0.37946859211E+03  0.37946859211E+03  0.25500000000E-02 0.  1.
    5000001    1    1    2    0    0 -0.21855336433E+03 -0.13826644725E+03  0.41232981498E+01  0.30679828077E+03  0.16500000000E+03 0.  0.
   -5000001    1    1    2    0    0  0.21855336433E+03  0.13826644725E+03 -0.12500160294E+03  0.33126059867E+03  0.16500000000E+03 0.  0.
<mgrwt>
<rscale>  0 0.62650425E+03</rscale>
<asrwt>0</asrwt>
<pdfrwt beam="1">  1        2 0.39783121E-01 0.62650425E+03</pdfrwt>
<pdfrwt beam="2">  1       -2 0.58379783E-01 0.62650425E+03</pdfrwt>
<totfact> 0.35907337E+02</totfact>
</mgrwt>
</event>
<event>
 4    1  0.9050888E-005  0.6539929E+03  0.7818608E-02  0.9799316E-01
          2   -1    0    0  501    0  0.00000000000E+00  0.00000000000E+00  0.18980513900E+04  0.18980513900E+04  0.25500000000E-02 0.  1.
         -2   -1    0    0    0  501 -0.00000000000E+00 -0.00000000000E+00 -0.56334968556E+02  0.56334968614E+02  0.25500000000E-02 0. -1.
    5000001    1    1    2    0    0  0.27394397743E+03  0.67068491883E+02  0.88327332109E+03  0.94177505017E+03  0.16500000000E+03 0.  0.
   -5000001    1    1    2    0    0 -0.27394397743E+03 -0.67068491883E+02  0.95844310037E+03  0.10126113085E+04  0.16500000000E+03 0.  0.
<mgrwt>
<rscale>  0 0.65399286E+03</rscale>
<asrwt>0</asrwt>
<pdfrwt beam="1">  1        2 0.29200791E+00 0.65399286E+03</pdfrwt>
<pdfrwt beam="2">  1       -2 0.86669183E-02 0.65399286E+03</pdfrwt>
<totfact> 0.67663014E+02</totfact>
</mgrwt>
</event>
<event>
 4    1  0.9050888E-005  0.5038125E+03  0.7818608E-02  0.1012789E+00
          2   -1    0    0  501    0  0.00000000000E+00  0.00000000000E+00  0.10863908814E+04  0.10863908814E+04  0.25500000000E-02 0.  1.
         -2   -1    0    0    0  501 -0.00000000000E+00 -0.00000000000E+00 -0.58410604688E+02  0.58410604744E+02  0.25500000000E-02 0. -1.
    5000001    1    1    2    0    0 -0.15433584120E+03 -0.10254138250E+03  0.41501007002E+03  0.48352109078E+03  0.16500000000E+03 0.  0.
   -5000001    1    1    2    0    0  0.15433584120E+03  0.10254138250E+03  0.61297020664E+03  0.66128039532E+03  0.16500000000E+03 0.  0.
<mgrwt>
<rscale>  0 0.50381246E+03</rscale>
<asrwt>0</asrwt>
<pdfrwt beam="1">  1        2 0.16713705E+00 0.50381246E+03</pdfrwt>
<pdfrwt beam="2">  1       -2 0.89862473E-02 0.50381246E+03</pdfrwt>
<totfact> 0.18283526E+03</totfact>
</mgrwt>
</event>
<event>
 4    1  0.9050888E-005  0.4887307E+03  0.7818608E-02  0.1016763E+00
          2   -1    0    0  501    0  0.00000000000E+00  0.00000000000E+00  0.17437075016E+04  0.17437075016E+04  0.25500000000E-02 0.  1.
         -2   -1    0    0    0  501 -0.00000000000E+00 -0.00000000000E+00 -0.34245671899E+02  0.34245671994E+02  0.25500000000E-02 0. -1.
    5000001    1    1    2    0    0  0.78429943373E+00 -0.17821843369E+03  0.95282002696E+03  0.98328705321E+03  0.16500000000E+03 0.  0.
   -5000001    1    1    2    0    0 -0.78429943373E+00  0.17821843369E+03  0.75664180273E+03  0.79466612037E+03  0.16500000000E+03 0.  0.
<mgrwt>
<rscale>  0 0.48873074E+03</rscale>
<asrwt>0</asrwt>
<pdfrwt beam="1">  1        2 0.26826271E+00 0.48873074E+03</pdfrwt>
<pdfrwt beam="2">  1       -2 0.52685646E-02 0.48873074E+03</pdfrwt>
<totfact> 0.18130033E+03</totfact>
</mgrwt>
</event>
<event>
 4    1  0.9050888E-005  0.4027770E+03  0.7818608E-02  0.1042822E+00
          2   -1    0    0  501    0  0.00000000000E+00  0.00000000000E+00  0.75592193317E+03  0.75592193318E+03  0.25500000000E-02 0.  1.
         -2   -1    0    0    0  501 -0.00000000000E+00 -0.00000000000E+00 -0.53652793440E+02  0.53652793501E+02  0.25500000000E-02 0. -1.
    5000001    1    1    2    0    0  0.10816650466E+03 -0.22091641351E+02  0.28314217197E+03  0.34580706022E+03  0.16500000000E+03 0.  0.
   -5000001    1    1    2    0    0 -0.10816650466E+03  0.22091641351E+02  0.41912696776E+03  0.46376766646E+03  0.16500000000E+03 0.  0.
<mgrwt>
<rscale>  0 0.40277698E+03</rscale>
<asrwt>0</asrwt>
<pdfrwt beam="1">  1        2 0.11629568E+00 0.40277698E+03</pdfrwt>
<pdfrwt beam="2">  1       -2 0.82542763E-02 0.40277698E+03</pdfrwt>
<totfact> 0.34495926E+03</totfact>
</mgrwt>
</event>
<event>
 4    1  0.9050888E-005  0.6960443E+03  0.7818608E-02  0.9724021E-01
         -2   -1    0    0    0  501 -0.00000000000E+00  0.00000000000E+00  0.49352494085E+02  0.49352494151E+02  0.25500000000E-02 0. -1.
          2   -1    0    0  501    0  0.00000000000E+00 -0.00000000000E+00 -0.24541699047E+04  0.24541699047E+04  0.25500000000E-02 0.  1.
    5000001    1    1    2    0    0 -0.29443220812E+03 -0.21348087710E+02 -0.90693891098E+03  0.96794072870E+03  0.16500000000E+03 0.  0.
   -5000001    1    1    2    0    0  0.29443220812E+03  0.21348087710E+02 -0.14978784996E+04  0.15355816701E+04  0.16500000000E+03 0.  0.
<mgrwt>
<rscale>  0 0.69604427E+03</rscale>
<asrwt>0</asrwt>
<pdfrwt beam="1">  1        2 0.37756451E+00 0.69604427E+03</pdfrwt>
<pdfrwt beam="2">  1       -2 0.75926933E-02 0.69604427E+03</pdfrwt>
<totfact> 0.41218075E+02</totfact>
</mgrwt>
</event>
<event>
 4    1  0.9050888E-005  0.4149494E+03  0.7818608E-02  0.1038723E+00
         -2   -1    0    0    0  501 -0.00000000000E+00  0.00000000000E+00  0.27336621002E+03  0.27336621003E+03  0.25500000000E-02 0. -1.
          2   -1    0    0  501    0  0.00000000000E+00 -0.00000000000E+00 -0.15746550212E+03  0.15746550214E+03  0.25500000000E-02 0.  1.
    5000001    1    1    2    0    0 -0.10791594033E+03  0.30121007828E+02  0.11730141148E+03  0.23138225175E+03  0.16500000000E+03 0.  0.
   -5000001    1    1    2    0    0  0.10791594033E+03 -0.30121007828E+02 -0.14007035764E+01  0.19944946042E+03  0.16500000000E+03 0.  0.
<mgrwt>
<rscale>  0 0.41494938E+03</rscale>
<asrwt>0</asrwt>
<pdfrwt beam="1">  1        2 0.24225462E-01 0.41494938E+03</pdfrwt>
<pdfrwt beam="2">  1       -2 0.42056339E-01 0.41494938E+03</pdfrwt>
<totfact> 0.12142692E+03</totfact>
</mgrwt>
</event>
<event>
 4    1  0.9050888E-005  0.7169091E+03  0.7818608E-02  0.9688744E-01
         -2   -1    0    0    0  501 -0.00000000000E+00  0.00000000000E+00  0.17656687846E+03  0.17656687848E+03  0.25500000000E-02 0.  1.
          2   -1    0    0  501    0  0.00000000000E+00 -0.00000000000E+00 -0.72771107489E+03  0.72771107490E+03  0.25500000000E-02 0. -1.
    5000001    1    1    2    0    0 -0.11103150885E+03  0.15574649815E+03  0.45218662495E+02  0.25662169644E+03  0.16500000000E+03 0.  0.
   -5000001    1    1    2    0    0  0.11103150885E+03 -0.15574649815E+03 -0.59636285893E+03  0.64765625694E+03  0.16500000000E+03 0.  0.
<mgrwt>
<rscale>  0 0.71690912E+03</rscale>
<asrwt>0</asrwt>
<pdfrwt beam="1">  1        2 0.11195555E+00 0.71690912E+03</pdfrwt>
<pdfrwt beam="2">  1       -2 0.27164136E-01 0.71690912E+03</pdfrwt>
<totfact> 0.48318119E+02</totfact>
</mgrwt>
</event>
<event>
 4    1  0.9050888E-005  0.5595340E+03  0.7818608E-02  0.9993110E-01
          2   -1    0    0  501    0  0.00000000000E+00  0.00000000000E+00  0.11539522183E+03  0.11539522186E+03  0.25500000000E-02 0.  1.
         -2   -1    0    0    0  501 -0.00000000000E+00 -0.00000000000E+00 -0.67827396902E+03  0.67827396903E+03  0.25500000000E-02 0. -1.
    5000001    1    1    2    0    0 -0.11832417941E+03  0.16409172983E+03 -0.42411754690E+03  0.49802349425E+03  0.16500000000E+03 0.  0.
   -5000001    1    1    2    0    0  0.11832417941E+03 -0.16409172983E+03 -0.13876120029E+03  0.29564569663E+03  0.16500000000E+03 0.  0.
<mgrwt>
<rscale>  0 0.55953400E+03</rscale>
<asrwt>0</asrwt>
<pdfrwt beam="1">  1        2 0.17753111E-01 0.55953400E+03</pdfrwt>
<pdfrwt beam="2">  1       -2 0.10434984E+00 0.55953400E+03</pdfrwt>
<totfact> 0.24727408E+02</totfact>
</mgrwt>
</event>
<event>
 4    1  0.9050888E-005  0.6213391E+03  0.7818608E-02  0.9862097E-01
          2   -1    0    0  501    0  0.00000000000E+00  0.00000000000E+00  0.15252417154E+04  0.15252417154E+04  0.25500000000E-02 0.  1.
         -2   -1    0    0    0  501 -0.00000000000E+00 -0.00000000000E+00 -0.63278870996E+02  0.63278871047E+02  0.25500000000E-02 0. -1.
    5000001    1    1    2    0    0 -0.24314090194E+03  0.99453134682E+02  0.68803728632E+03  0.75473752495E+03  0.16500000000E+03 0.  0.
   -5000001    1    1    2    0    0  0.24314090194E+03 -0.99453134682E+02  0.77392555806E+03  0.83378306148E+03  0.16500000000E+03 0.  0.
<mgrwt>
<rscale>  0 0.62133911E+03</rscale>
<asrwt>0</asrwt>
<pdfrwt beam="1">  1        2 0.23465258E+00 0.62133911E+03</pdfrwt>
<pdfrwt beam="2">  1       -2 0.97352105E-02 0.62133911E+03</pdfrwt>
<totfact> 0.89727808E+02</totfact>
</mgrwt>
</event>
<event>
 4    1  0.9050888E-005  0.1192294E+04  0.7818608E-02  0.9119628E-01
         -2   -1    0    0    0  501 -0.00000000000E+00  0.00000000000E+00  0.13430289191E+03  0.13430289193E+03  0.25500000000E-02 0. -1.
          2   -1    0    0  501    0  0.00000000000E+00 -0.00000000000E+00 -0.26461922244E+04  0.26461922244E+04  0.25500000000E-02 0.  1.
    5000001    1    1    2    0    0  0.56836602166E+03  0.38290380555E+02 -0.13970326463E+04  0.15177059342E+04  0.16500000000E+03 0.  0.
   -5000001    1    1    2    0    0 -0.56836602166E+03 -0.38290380555E+02 -0.11148566862E+04  0.12627891822E+04  0.16500000000E+03 0.  0.
<mgrwt>
<rscale>  0 0.11922940E+04</rscale>
<asrwt>0</asrwt>
<pdfrwt beam="1">  1        2 0.40710646E+00 0.11922940E+04</pdfrwt>
<pdfrwt beam="2">  1       -2 0.20661985E-01 0.11922940E+04</pdfrwt>
<totfact> 0.57445708E+01</totfact>
</mgrwt>
</event>
<event>
 4    1  0.9050888E-005  0.4088098E+03  0.7818608E-02  0.1040771E+00
         -2   -1    0    0    0  501 -0.00000000000E+00  0.00000000000E+00  0.23719718128E+02  0.23719718265E+02  0.25500000000E-02 0. -1.
          2   -1    0    0  501    0  0.00000000000E+00 -0.00000000000E+00 -0.17614610773E+04  0.17614610773E+04  0.25500000000E-02 0.  1.
    5000001    1    1    2    0    0 -0.11976726324E+03 -0.14508036784E+02 -0.87453049579E+03  0.89809980990E+03  0.16500000000E+03 0.  0.
   -5000001    1    1    2    0    0  0.11976726324E+03  0.14508036784E+02 -0.86321086341E+03  0.88708098570E+03  0.16500000000E+03 0.  0.
<mgrwt>
<rscale>  0 0.40880979E+03</rscale>
<asrwt>0</asrwt>
<pdfrwt beam="1">  1        2 0.27099391E+00 0.40880979E+03</pdfrwt>
<pdfrwt beam="2">  1       -2 0.36491888E-02 0.40880979E+03</pdfrwt>
<totfact> 0.31220298E+03</totfact>
</mgrwt>
</event>
<event>
 4    1  0.9050888E-005  0.5415557E+03  0.7818608E-02  0.1003468E+00
         -2   -1    0    0    0  501 -0.00000000000E+00  0.00000000000E+00  0.47077464328E+02  0.47077464397E+02  0.25500000000E-02 0. -1.
          2   -1    0    0  501    0  0.00000000000E+00 -0.00000000000E+00 -0.15574464805E+04  0.15574464805E+04  0.25500000000E-02 0.  1.
    5000001    1    1    2    0    0 -0.90447388963E+01  0.19371177026E+03 -0.48219493632E+03  0.54529167778E+03  0.16500000000E+03 0.  0.
   -5000001    1    1    2    0    0  0.90447388963E+01 -0.19371177026E+03 -0.10281740799E+04  0.10592322671E+04  0.16500000000E+03 0.  0.
<mgrwt>
<rscale>  0 0.54155565E+03</rscale>
<asrwt>0</asrwt>
<pdfrwt beam="1">  1        2 0.23960711E+00 0.54155565E+03</pdfrwt>
<pdfrwt beam="2">  1       -2 0.72426880E-02 0.54155565E+03</pdfrwt>
<totfact> 0.13874866E+03</totfact>
</mgrwt>
</event>
<event>
 4    1  0.9050888E-005  0.3571565E+03  0.7818608E-02  0.1059715E+00
         -2   -1    0    0    0  501 -0.00000000000E+00  0.00000000000E+00  0.23856618096E+02  0.23856618232E+02  0.25500000000E-02 0.  1.
          2   -1    0    0  501    0  0.00000000000E+00 -0.00000000000E+00 -0.13367442935E+04  0.13367442935E+04  0.25500000000E-02 0. -1.
    5000001    1    1    2    0    0  0.89151178273E+01 -0.37543720787E+02 -0.44174719847E+03  0.47313274845E+03  0.16500000000E+03 0.  0.
   -5000001    1    1    2    0    0 -0.89151178273E+01  0.37543720787E+02 -0.87114047690E+03  0.88746816326E+03  0.16500000000E+03 0.  0.
<mgrwt>
<rscale>  0 0.35715654E+03</rscale>
<asrwt>0</asrwt>
<pdfrwt beam="1">  1        2 0.20565291E+00 0.35715654E+03</pdfrwt>
<pdfrwt beam="2">  1       -2 0.36702500E-02 0.35715654E+03</pdfrwt>
<totfact> 0.52573303E+03</totfact>
</mgrwt>
</event>
<event>
 4    1  0.9050888E-005  0.4964765E+03  0.7818608E-02  0.1014703E+00
         -2   -1    0    0    0  501 -0.00000000000E+00  0.00000000000E+00  0.19488460686E+03  0.19488460688E+03  0.25500000000E-02 0. -1.
          2   -1    0    0  501    0  0.00000000000E+00 -0.00000000000E+00 -0.31619853232E+03  0.31619853233E+03  0.25500000000E-02 0.  1.
    5000001    1    1    2    0    0  0.10212094176E+03  0.15241958215E+03 -0.32714100812E+02  0.24890887522E+03  0.16500000000E+03 0.  0.
   -5000001    1    1    2    0    0 -0.10212094176E+03 -0.15241958215E+03 -0.88599824645E+02  0.26217426399E+03  0.16500000000E+03 0.  0.
<mgrwt>
<rscale>  0 0.49647649E+03</rscale>
<asrwt>0</asrwt>
<pdfrwt beam="1">  1        2 0.48645928E-01 0.49647649E+03</pdfrwt>
<pdfrwt beam="2">  1       -2 0.29982247E-01 0.49647649E+03</pdfrwt>
<totfact> 0.10634139E+03</totfact>
</mgrwt>
</event>
<event>
 4    1  0.9050888E-005  0.9436049E+03  0.7818608E-02  0.9372657E-01
          2   -1    0    0  501    0  0.00000000000E+00  0.00000000000E+00  0.82486740085E+03  0.82486740086E+03  0.25500000000E-02 0.  1.
         -2   -1    0    0    0  501 -0.00000000000E+00 -0.00000000000E+00 -0.26985861495E+03  0.26985861496E+03  0.25500000000E-02 0. -1.
    5000001    1    1    2    0    0  0.40718080915E+03 -0.13171366665E+03  0.40579376795E+03  0.61240369318E+03  0.16500000000E+03 0.  0.
   -5000001    1    1    2    0    0 -0.40718080915E+03  0.13171366665E+03  0.14921501796E+03  0.48232232263E+03  0.16500000000E+03 0.  0.
<mgrwt>
<rscale>  0 0.94360495E+03</rscale>
<asrwt>0</asrwt>
<pdfrwt beam="1">  1        2 0.12690268E+00 0.94360495E+03</pdfrwt>
<pdfrwt beam="2">  1       -2 0.41516710E-01 0.94360495E+03</pdfrwt>
<totfact> 0.18181035E+02</totfact>
</mgrwt>
</event>
<event>
 4    1  0.9050888E-005  0.9217334E+03  0.7818608E-02  0.9398814E-01
         -2   -1    0    0    0  501 -0.00000000000E+00  0.00000000000E+00  0.78901456240E+02  0.78901456282E+02  0.25500000000E-02 0. -1.
          2   -1    0    0  501    0  0.00000000000E+00 -0.00000000000E+00 -0.26919419207E+04  0.26919419207E+04  0.25500000000E-02 0.  1.
    5000001    1    1    2    0    0  0.15279628272E+00 -0.41042065972E+03 -0.91771813974E+03  0.10187623498E+04  0.16500000000E+03 0.  0.
   -5000001    1    1    2    0    0 -0.15279628272E+00  0.41042065972E+03 -0.16953223247E+04  0.17520810272E+04  0.16500000000E+03 0.  0.
<mgrwt>
<rscale>  0 0.92173345E+03</rscale>
<asrwt>0</asrwt>
<pdfrwt beam="1">  1        2 0.41414484E+00 0.92173345E+03</pdfrwt>
<pdfrwt beam="2">  1       -2 0.12138688E-01 0.92173345E+03</pdfrwt>
<totfact> 0.13754096E+02</totfact>
</mgrwt>
</event>
<event>
 4    1  0.9050888E-005  0.4619276E+03  0.7818608E-02  0.1024224E+00
          2   -1    0    0  501    0  0.00000000000E+00  0.00000000000E+00  0.10062345456E+04  0.10062345456E+04  0.25500000000E-02 0.  1.
         -2   -1    0    0    0  501 -0.00000000000E+00 -0.00000000000E+00 -0.53013752754E+02  0.53013752816E+02  0.25500000000E-02 0. -1.
    5000001    1    1    2    0    0  0.13266937235E+03 -0.63912652546E+02  0.32392887780E+03  0.39222558227E+03  0.16500000000E+03 0.  0.
   -5000001    1    1    2    0    0 -0.13266937235E+03  0.63912652546E+02  0.62929191501E+03  0.66702271612E+03  0.16500000000E+03 0.  0.
<mgrwt>
<rscale>  0 0.46192757E+03</rscale>
<asrwt>0</asrwt>
<pdfrwt beam="1">  1        2 0.15480530E+00 0.46192757E+03</pdfrwt>
<pdfrwt beam="2">  1       -2 0.81559628E-02 0.46192757E+03</pdfrwt>
<totfact> 0.23913276E+03</totfact>
</mgrwt>
</event>
<event>
 4    1  0.9050888E-005  0.9778092E+03  0.7818608E-02  0.9333224E-01
          2   -1    0    0  501    0  0.00000000000E+00  0.00000000000E+00  0.63766209051E+03  0.63766209052E+03  0.25500000000E-02 0.  1.
         -2   -1    0    0    0  501 -0.00000000000E+00 -0.00000000000E+00 -0.37485010300E+03  0.37485010301E+03  0.25500000000E-02 0. -1.
    5000001    1    1    2    0    0 -0.54874435572E+02 -0.44846660270E+03  0.40723957478E+02  0.48271828029E+03  0.16500000000E+03 0.  0.
   -5000001    1    1    2    0    0  0.54874435572E+02  0.44846660270E+03  0.22208803003E+03  0.52979391324E+03  0.16500000000E+03 0.  0.
<mgrwt>
<rscale>  0 0.97780918E+03</rscale>
<asrwt>0</asrwt>
<pdfrwt beam="1">  1        2 0.98101860E-01 0.97780918E+03</pdfrwt>
<pdfrwt beam="2">  1       -2 0.57669247E-01 0.97780918E+03</pdfrwt>
<totfact> 0.12963692E+02</totfact>
</mgrwt>
</event>
<event>
 4    1  0.9050888E-005  0.5493778E+03  0.7818608E-02  0.1001638E+00
         -2   -1    0    0    0  501 -0.00000000000E+00  0.00000000000E+00  0.15233755269E+04  0.15233755269E+04  0.25500000000E-02 0. -1.
          2   -1    0    0  501    0  0.00000000000E+00 -0.00000000000E+00 -0.49530792577E+02  0.49530792642E+02  0.25500000000E-02 0.  1.
    5000001    1    1    2    0    0  0.20831240569E+03 -0.22696016822E+02  0.92509872172E+03  0.96277817408E+03  0.16500000000E+03 0.  0.
   -5000001    1    1    2    0    0 -0.20831240569E+03  0.22696016822E+02  0.54874601258E+03  0.61012814545E+03  0.16500000000E+03 0.  0.
<mgrwt>
<rscale>  0 0.54937782E+03</rscale>
<asrwt>0</asrwt>
<pdfrwt beam="1">  1        2 0.76201229E-02 0.54937782E+03</pdfrwt>
<pdfrwt beam="2">  1       -2 0.23436544E+00 0.54937782E+03</pdfrwt>
<totfact> 0.78658362E+01</totfact>
</mgrwt>
</event>
<event>
 4    1  0.9050888E-005  0.4185634E+03  0.7818608E-02  0.1037535E+00
         -2   -1    0    0    0  501 -0.00000000000E+00  0.00000000000E+00  0.13281219484E+03  0.13281219486E+03  0.25500000000E-02 0. -1.
          2   -1    0    0  501    0  0.00000000000E+00 -0.00000000000E+00 -0.32978020702E+03  0.32978020703E+03  0.25500000000E-02 0.  1.
    5000001    1    1    2    0    0 -0.89514536445E+02  0.91507049397E+02 -0.11361506372E+03  0.23773887993E+03  0.16500000000E+03 0.  0.
   -5000001    1    1    2    0    0  0.89514536445E+02 -0.91507049397E+02 -0.83352948458E+02  0.22485352197E+03  0.16500000000E+03 0.  0.
<mgrwt>
<rscale>  0 0.41856342E+03</rscale>
<asrwt>0</asrwt>
<pdfrwt beam="1">  1        2 0.50735416E-01 0.41856342E+03</pdfrwt>
<pdfrwt beam="2">  1       -2 0.20432645E-01 0.41856342E+03</pdfrwt>
<totfact> 0.20112307E+03</totfact>
</mgrwt>
</event>
<event>
 4    1  0.9050888E-005  0.5504608E+03  0.7818608E-02  0.1001387E+00
          2   -1    0    0  501    0  0.00000000000E+00  0.00000000000E+00  0.10698046684E+04  0.10698046684E+04  0.25500000000E-02 0.  1.
         -2   -1    0    0    0  501 -0.00000000000E+00 -0.00000000000E+00 -0.70808969607E+02  0.70808969653E+02  0.25500000000E-02 0. -1.
    5000001    1    1    2    0    0  0.17399195538E+03 -0.67298333101E+02  0.74224852654E+03  0.78291771044E+03  0.16500000000E+03 0.  0.
   -5000001    1    1    2    0    0 -0.17399195538E+03  0.67298333101E+02  0.25674717227E+03  0.35769592763E+03  0.16500000000E+03 0.  0.
<mgrwt>
<rscale>  0 0.55046078E+03</rscale>
<asrwt>0</asrwt>
<pdfrwt beam="1">  1        2 0.16458533E+00 0.55046078E+03</pdfrwt>
<pdfrwt beam="2">  1       -2 0.10893688E-01 0.55046078E+03</pdfrwt>
<totfact> 0.13699160E+03</totfact>
</mgrwt>
</event>
<event>
 4    1  0.9050888E-005  0.7614611E+03  0.7818608E-02  0.9617539E-01
          2   -1    0    0  501    0  0.00000000000E+00  0.00000000000E+00  0.31820093039E+03  0.31820093040E+03  0.25500000000E-02 0.  1.
         -2   -1    0    0    0  501 -0.00000000000E+00 -0.00000000000E+00 -0.45554783242E+03  0.45554783242E+03  0.25500000000E-02 0. -1.
    5000001    1    1    2    0    0  0.12732789922E+02  0.33939357793E+03 -0.11825239189E+03  0.39567505970E+03  0.16500000000E+03 0.  0.
   -5000001    1    1    2    0    0 -0.12732789922E+02 -0.33939357793E+03 -0.19094510140E+02  0.37807370313E+03  0.16500000000E+03 0.  0.
<mgrwt>
<rscale>  0 0.76146108E+03</rscale>
<asrwt>0</asrwt>
<pdfrwt beam="1">  1        2 0.48953989E-01 0.76146108E+03</pdfrwt>
<pdfrwt beam="2">  1       -2 0.70084282E-01 0.76146108E+03</pdfrwt>
<totfact> 0.19227056E+02</totfact>
</mgrwt>
</event>
<event>
 4    1  0.9050888E-005  0.6989662E+03  0.7818608E-02  0.9719002E-01
          2   -1    0    0  501    0  0.00000000000E+00  0.00000000000E+00  0.34137389541E+03  0.34137389542E+03  0.25500000000E-02 0. -1.
         -2   -1    0    0    0  501 -0.00000000000E+00 -0.00000000000E+00 -0.35778493661E+03  0.35778493662E+03  0.25500000000E-02 0.  1.
    5000001    1    1    2    0    0 -0.23357302391E+03  0.16675688819E+03 -0.12025969597E+03  0.35220961334E+03  0.16500000000E+03 0.  0.
   -5000001    1    1    2    0    0  0.23357302391E+03 -0.16675688819E+03  0.10384865477E+03  0.34694921870E+03  0.16500000000E+03 0.  0.
<mgrwt>
<rscale>  0 0.69896620E+03</rscale>
<asrwt>0</asrwt>
<pdfrwt beam="1">  1        2 0.52519061E-01 0.69896620E+03</pdfrwt>
<pdfrwt beam="2">  1       -2 0.55043837E-01 0.69896620E+03</pdfrwt>
<totfact> 0.29776951E+02</totfact>
</mgrwt>
</event>
<event>
 4    1  0.9050888E-005  0.3907878E+03  0.7818608E-02  0.1047017E+00
          2   -1    0    0  501    0  0.00000000000E+00  0.00000000000E+00  0.89897202075E+03  0.89897202075E+03  0.25500000000E-02 0.  1.
         -2   -1    0    0    0  501 -0.00000000000E+00 -0.00000000000E+00 -0.42469371577E+02  0.42469371653E+02  0.25500000000E-02 0. -1.
    5000001    1    1    2    0    0 -0.10108323082E+03  0.71770114268E+01  0.49127771670E+03  0.52806071997E+03  0.16500000000E+03 0.  0.
   -5000001    1    1    2    0    0  0.10108323082E+03 -0.71770114268E+01  0.36522493247E+03  0.41338067244E+03  0.16500000000E+03 0.  0.
<mgrwt>
<rscale>  0 0.39078780E+03</rscale>
<asrwt>0</asrwt>
<pdfrwt beam="1">  1        2 0.13830339E+00 0.39078780E+03</pdfrwt>
<pdfrwt beam="2">  1       -2 0.65337496E-02 0.39078780E+03</pdfrwt>
<totfact> 0.39657298E+03</totfact>
</mgrwt>
</event>
<event>
 4    1  0.9050888E-005  0.6568152E+03  0.7818608E-02  0.9794074E-01
          2   -1    0    0  501    0  0.00000000000E+00  0.00000000000E+00  0.12151539918E+04  0.12151539918E+04  0.25500000000E-02 0.  1.
         -2   -1    0    0    0  501 -0.00000000000E+00 -0.00000000000E+00 -0.88755461700E+02  0.88755461737E+02  0.25500000000E-02 0. -1.
    5000001    1    1    2    0    0  0.25496264018E+03 -0.11354830902E+03  0.66687512293E+03  0.74151641651E+03  0.16500000000E+03 0.  0.
   -5000001    1    1    2    0    0 -0.25496264018E+03  0.11354830902E+03  0.45952340719E+03  0.56239303705E+03  0.16500000000E+03 0.  0.
<mgrwt>
<rscale>  0 0.65681521E+03</rscale>
<asrwt>0</asrwt>
<pdfrwt beam="1">  1        2 0.18694677E+00 0.65681521E+03</pdfrwt>
<pdfrwt beam="2">  1       -2 0.13654686E-01 0.65681521E+03</pdfrwt>
<totfact> 0.76971597E+02</totfact>
</mgrwt>
</event>
<event>
 4    1  0.9050888E-005  0.7021534E+03  0.7818608E-02  0.9713557E-01
          2   -1    0    0  501    0  0.00000000000E+00  0.00000000000E+00  0.20611622178E+04  0.20611622178E+04  0.25500000000E-02 0.  1.
         -2   -1    0    0    0  501 -0.00000000000E+00 -0.00000000000E+00 -0.59798711681E+02  0.59798711735E+02  0.25500000000E-02 0. -1.
    5000001    1    1    2    0    0  0.20215190094E+02  0.28300785331E+03  0.13770863215E+04  0.14156602120E+04  0.16500000000E+03 0.  0.
   -5000001    1    1    2    0    0 -0.20215190094E+02 -0.28300785331E+03  0.62427718468E+03  0.70530071761E+03  0.16500000000E+03 0.  0.
<mgrwt>
<rscale>  0 0.70215339E+03</rscale>
<asrwt>0</asrwt>
<pdfrwt beam="1">  1        2 0.31710185E+00 0.70215339E+03</pdfrwt>
<pdfrwt beam="2">  1       -2 0.91998026E-02 0.70215339E+03</pdfrwt>
<totfact> 0.49937305E+02</totfact>
</mgrwt>
</event>
<event>
 4    1  0.9050888E-005  0.5628715E+03  0.7818608E-02  0.9985578E-01
          2   -1    0    0  501    0  0.00000000000E+00  0.00000000000E+00  0.11397160741E+03  0.11397160744E+03  0.25500000000E-02 0.  1.
         -2   -1    0    0    0  501 -0.00000000000E+00 -0.00000000000E+00 -0.69496332638E+03  0.69496332638E+03  0.25500000000E-02 0. -1.
    5000001    1    1    2    0    0 -0.26331389661E+00  0.22086540170E+03 -0.20920441196E+03  0.34608247714E+03  0.16500000000E+03 0.  0.
   -5000001    1    1    2    0    0  0.26331389661E+00 -0.22086540170E+03 -0.37178730701E+03  0.46285245668E+03  0.16500000000E+03 0.  0.
<mgrwt>
<rscale>  0 0.56287152E+03</rscale>
<asrwt>0</asrwt>
<pdfrwt beam="1">  1        2 0.17534094E-01 0.56287152E+03</pdfrwt>
<pdfrwt beam="2">  1       -2 0.10691743E+00 0.56287152E+03</pdfrwt>
<totfact> 0.23676477E+02</totfact>
</mgrwt>
</event>
<event>
 4    1  0.9050888E-005  0.4820549E+03  0.7818608E-02  0.1018572E+00
          2   -1    0    0  501    0  0.00000000000E+00  0.00000000000E+00  0.17746233660E+04  0.17746233660E+04  0.25500000000E-02 0.  1.
         -2   -1    0    0    0  501 -0.00000000000E+00 -0.00000000000E+00 -0.32736092907E+02  0.32736093006E+02  0.25500000000E-02 0. -1.
    5000001    1    1    2    0    0 -0.14104236046E+03 -0.73604027595E+02  0.11504785199E+04  0.11730883706E+04  0.16500000000E+03 0.  0.
   -5000001    1    1    2    0    0  0.14104236046E+03  0.73604027595E+02  0.59140875315E+03  0.63427108843E+03  0.16500000000E+03 0.  0.
<mgrwt>
<rscale>  0 0.48205492E+03</rscale>
<asrwt>0</asrwt>
<pdfrwt beam="1">  1        2 0.27301890E+00 0.48205492E+03</pdfrwt>
<pdfrwt beam="2">  1       -2 0.50363234E-02 0.48205492E+03</pdfrwt>
<totfact> 0.18714596E+03</totfact>
</mgrwt>
</event>
<event>
 4    1  0.9050888E-005  0.4277316E+03  0.7818608E-02  0.1034579E+00
          2   -1    0    0  501    0  0.00000000000E+00  0.00000000000E+00  0.86949941883E+03  0.86949941884E+03  0.25500000000E-02 0. -1.
         -2   -1    0    0    0  501 -0.00000000000E+00 -0.00000000000E+00 -0.52603338628E+02  0.52603338690E+02  0.25500000000E-02 0.  1.
    5000001    1    1    2    0    0 -0.78622618260E+02 -0.10350999531E+03  0.49515660612E+03  0.53786699082E+03  0.16500000000E+03 0.  0.
   -5000001    1    1    2    0    0  0.78622618260E+02  0.10350999531E+03  0.32173947409E+03  0.38423576671E+03  0.16500000000E+03 0.  0.
<mgrwt>
<rscale>  0 0.42773156E+03</rscale>
<asrwt>0</asrwt>
<pdfrwt beam="1">  1        2 0.13376913E+00 0.42773156E+03</pdfrwt>
<pdfrwt beam="2">  1       -2 0.80928221E-02 0.42773156E+03</pdfrwt>
<totfact> 0.29669081E+03</totfact>
</mgrwt>
</event>
<event>
 4    1  0.9050888E-005  0.4252810E+03  0.7818608E-02  0.1035361E+00
          2   -1    0    0  501    0  0.00000000000E+00  0.00000000000E+00  0.27458498001E+04  0.27458498001E+04  0.25500000000E-02 0.  1.
         -2   -1    0    0    0  501 -0.00000000000E+00 -0.00000000000E+00 -0.16467024742E+02  0.16467024939E+02  0.25500000000E-02 0. -1.
    5000001    1    1    2    0    0  0.70902144905E+00 -0.12914085144E+03  0.11293226072E+04  0.11485958442E+04  0.16500000000E+03 0.  0.
   -5000001    1    1    2    0    0 -0.70902144905E+00  0.12914085144E+03  0.16000601682E+04  0.16137209809E+04  0.16500000000E+03 0.  0.
<mgrwt>
<rscale>  0 0.42528097E+03</rscale>
<asrwt>0</asrwt>
<pdfrwt beam="1">  1        2 0.42243853E+00 0.42528097E+03</pdfrwt>
<pdfrwt beam="2">  1       -2 0.25333879E-02 0.42528097E+03</pdfrwt>
<totfact> 0.15663369E+03</totfact>
</mgrwt>
</event>
<event>
 4    1  0.9050888E-005  0.4168469E+03  0.7818608E-02  0.1038097E+00
         -2   -1    0    0    0  501 -0.00000000000E+00  0.00000000000E+00  0.63129981388E+02  0.63129981440E+02  0.25500000000E-02 0. -1.
          2   -1    0    0  501    0  0.00000000000E+00 -0.00000000000E+00 -0.68810935530E+03  0.68810935531E+03  0.25500000000E-02 0.  1.
    5000001    1    1    2    0    0 -0.84976782071E+02 -0.58289252801E+02 -0.17766622896E+03  0.26345583956E+03  0.16500000000E+03 0.  0.
   -5000001    1    1    2    0    0  0.84976782071E+02  0.58289252801E+02 -0.44731314495E+03  0.48778349719E+03  0.16500000000E+03 0.  0.
<mgrwt>
<rscale>  0 0.41684688E+03</rscale>
<asrwt>0</asrwt>
<pdfrwt beam="1">  1        2 0.10586297E+00 0.41684688E+03</pdfrwt>
<pdfrwt beam="2">  1       -2 0.97123053E-02 0.41684688E+03</pdfrwt>
<totfact> 0.29943449E+03</totfact>
</mgrwt>
</event>
<event>
 4    1  0.9050888E-005  0.7913352E+03  0.7818608E-02  0.9572644E-01
          2   -1    0    0  501    0  0.00000000000E+00  0.00000000000E+00  0.43468538542E+03  0.43468538542E+03  0.25500000000E-02 0.  1.
         -2   -1    0    0    0  501 -0.00000000000E+00 -0.00000000000E+00 -0.36015211106E+03  0.36015211107E+03  0.25500000000E-02 0. -1.
    5000001    1    1    2    0    0  0.33602895217E+03 -0.11798207155E+03 -0.12880604107E+02  0.39271635548E+03  0.16500000000E+03 0.  0.
   -5000001    1    1    2    0    0 -0.33602895217E+03  0.11798207155E+03  0.87413878459E+02  0.40212114101E+03  0.16500000000E+03 0.  0.
<mgrwt>
<rscale>  0 0.79133522E+03</rscale>
<asrwt>0</asrwt>
<pdfrwt beam="1">  1        2 0.66874675E-01 0.79133522E+03</pdfrwt>
<pdfrwt beam="2">  1       -2 0.55408017E-01 0.79133522E+03</pdfrwt>
<totfact> 0.22322238E+02</totfact>
</mgrwt>
</event>
<event>
 4    1  0.9050888E-005  0.4088423E+03  0.7818608E-02  0.1040760E+00
         -2   -1    0    0    0  501 -0.00000000000E+00  0.00000000000E+00  0.77542089090E+02  0.77542089131E+02  0.25500000000E-02 0. -1.
          2   -1    0    0  501    0  0.00000000000E+00 -0.00000000000E+00 -0.53890739891E+03  0.53890739892E+03  0.25500000000E-02 0.  1.
    5000001    1    1    2    0    0  0.90294387127E+02 -0.76796214400E+02 -0.26480912900E+03  0.33376580067E+03  0.16500000000E+03 0.  0.
   -5000001    1    1    2    0    0 -0.90294387127E+02  0.76796214400E+02 -0.19655618082E+03  0.28268368738E+03  0.16500000000E+03 0.  0.
<mgrwt>
<rscale>  0 0.40884230E+03</rscale>
<asrwt>0</asrwt>
<pdfrwt beam="1">  1        2 0.82908828E-01 0.40884230E+03</pdfrwt>
<pdfrwt beam="2">  1       -2 0.11929553E-01 0.40884230E+03</pdfrwt>
<totfact> 0.28698927E+03</totfact>
</mgrwt>
</event>
<event>
 4    1  0.9050888E-005  0.4535666E+03  0.7818608E-02  0.1026664E+00
         -2   -1    0    0    0  501 -0.00000000000E+00  0.00000000000E+00  0.52029813769E+02  0.52029813832E+02  0.25500000000E-02 0. -1.
          2   -1    0    0  501    0  0.00000000000E+00 -0.00000000000E+00 -0.98848455163E+03  0.98848455163E+03  0.25500000000E-02 0.  1.
    5000001    1    1    2    0    0 -0.11616139872E+03 -0.76185430690E+02 -0.30751168718E+03  0.37561433433E+03  0.16500000000E+03 0.  0.
   -5000001    1    1    2    0    0  0.11616139872E+03  0.76185430690E+02 -0.62894305068E+03  0.66490003114E+03  0.16500000000E+03 0.  0.
<mgrwt>
<rscale>  0 0.45356661E+03</rscale>
<asrwt>0</asrwt>
<pdfrwt beam="1">  1        2 0.15207453E+00 0.45356661E+03</pdfrwt>
<pdfrwt beam="2">  1       -2 0.80045875E-02 0.45356661E+03</pdfrwt>
<totfact> 0.25273975E+03</totfact>
</mgrwt>
</event>
<event>
 4    1  0.9050888E-005  0.6661571E+03  0.7818608E-02  0.9776925E-01
          2   -1    0    0  501    0  0.00000000000E+00  0.00000000000E+00  0.21093438891E+04  0.21093438891E+04  0.25500000000E-02 0.  1.
         -2   -1    0    0    0  501 -0.00000000000E+00 -0.00000000000E+00 -0.52595186347E+02  0.52595186408E+02  0.25500000000E-02 0. -1.
    5000001    1    1    2    0    0  0.10938421785E+03 -0.19235049215E+03  0.16333823796E+04  0.16565405570E+04  0.16500000000E+03 0.  0.
   -5000001    1    1    2    0    0 -0.10938421785E+03  0.19235049215E+03  0.42336632312E+03  0.50539851850E+03  0.16500000000E+03 0.  0.
<mgrwt>
<rscale>  0 0.66615714E+03</rscale>
<asrwt>0</asrwt>
<pdfrwt beam="1">  1        2 0.32451450E+00 0.66615714E+03</pdfrwt>
<pdfrwt beam="2">  1       -2 0.80915659E-02 0.66615714E+03</pdfrwt>
<totfact> 0.57927430E+02</totfact>
</mgrwt>
</event>
<event>
 4    1  0.9050888E-005  0.4726173E+03  0.7818608E-02  0.1021184E+00
         -2   -1    0    0    0  501 -0.00000000000E+00  0.00000000000E+00  0.74698903951E+02  0.74698903995E+02  0.25500000000E-02 0. -1.
          2   -1    0    0  501    0  0.00000000000E+00 -0.00000000000E+00 -0.74755805526E+03  0.74755805527E+03  0.25500000000E-02 0.  1.
    5000001    1    1    2    0    0 -0.15357105596E+03  0.69848875872E+02 -0.31485102294E+03  0.39347058510E+03  0.16500000000E+03 0.  0.
   -5000001    1    1    2    0    0  0.15357105596E+03 -0.69848875872E+02 -0.35800812837E+03  0.42878637417E+03  0.16500000000E+03 0.  0.
<mgrwt>
<rscale>  0 0.47261725E+03</rscale>
<asrwt>0</asrwt>
<pdfrwt beam="1">  1        2 0.11500893E+00 0.47261725E+03</pdfrwt>
<pdfrwt beam="2">  1       -2 0.11492140E-01 0.47261725E+03</pdfrwt>
<totfact> 0.20581205E+03</totfact>
</mgrwt>
</event>
<event>
 4    1  0.9050888E-005  0.4009301E+03  0.7818608E-02  0.1043458E+00
          2   -1    0    0  501    0  0.00000000000E+00  0.00000000000E+00  0.36517969220E+03  0.36517969221E+03  0.25500000000E-02 0.  1.
         -2   -1    0    0    0  501 -0.00000000000E+00 -0.00000000000E+00 -0.11004511031E+03  0.11004511034E+03  0.25500000000E-02 0. -1.
    5000001    1    1    2    0    0  0.22350889181E+02 -0.11161481129E+03  0.12988127188E+03  0.23885471135E+03  0.16500000000E+03 0.  0.
   -5000001    1    1    2    0    0 -0.22350889181E+02  0.11161481129E+03  0.12525331000E+03  0.23637009120E+03  0.16500000000E+03 0.  0.
<mgrwt>
<rscale>  0 0.40093012E+03</rscale>
<asrwt>0</asrwt>
<pdfrwt beam="1">  1        2 0.56181491E-01 0.40093012E+03</pdfrwt>
<pdfrwt beam="2">  1       -2 0.16930017E-01 0.40093012E+03</pdfrwt>
<totfact> 0.24803196E+03</totfact>
</mgrwt>
</event>
<event>
 4    1  0.9050888E-005  0.5326922E+03  0.7818608E-02  0.1005581E+00
          2   -1    0    0  501    0  0.00000000000E+00  0.00000000000E+00  0.23974832426E+04  0.23974832426E+04  0.25500000000E-02 0.  1.
         -2   -1    0    0    0  501 -0.00000000000E+00 -0.00000000000E+00 -0.29589461899E+02  0.29589462009E+02  0.25500000000E-02 0. -1.
    5000001    1    1    2    0    0 -0.16156240221E+03  0.13259344081E+03  0.11582500100E+04  0.11884660348E+04  0.16500000000E+03 0.  0.
   -5000001    1    1    2    0    0  0.16156240221E+03 -0.13259344081E+03  0.12096437707E+04  0.12386066698E+04  0.16500000000E+03 0.  0.
<mgrwt>
<rscale>  0 0.53269218E+03</rscale>
<asrwt>0</asrwt>
<pdfrwt beam="1">  1        2 0.36884356E+00 0.53269218E+03</pdfrwt>
<pdfrwt beam="2">  1       -2 0.45522251E-02 0.53269218E+03</pdfrwt>
<totfact> 0.10017424E+03</totfact>
</mgrwt>
</event>
<event>
 4    1  0.9050888E-005  0.5042787E+03  0.7818608E-02  0.1012668E+00
         -2   -1    0    0    0  501 -0.00000000000E+00  0.00000000000E+00  0.29289473927E+02  0.29289474038E+02  0.25500000000E-02 0. -1.
          2   -1    0    0  501    0  0.00000000000E+00 -0.00000000000E+00 -0.21705491972E+04  0.21705491972E+04  0.25500000000E-02 0.  1.
    5000001    1    1    2    0    0  0.14340443333E+03  0.10301767152E+03 -0.13843482122E+04  0.14052837595E+04  0.16500000000E+03 0.  0.
   -5000001    1    1    2    0    0 -0.14340443333E+03 -0.10301767152E+03 -0.75691151109E+03  0.79455491173E+03  0.16500000000E+03 0.  0.
<mgrwt>
<rscale>  0 0.50427867E+03</rscale>
<asrwt>0</asrwt>
<pdfrwt beam="1">  1        2 0.33393052E+00 0.50427867E+03</pdfrwt>
<pdfrwt beam="2">  1       -2 0.45060746E-02 0.50427867E+03</pdfrwt>
<totfact> 0.13580496E+03</totfact>
</mgrwt>
</event>
<event>
 4    1  0.9050888E-005  0.7042672E+03  0.7818608E-02  0.9709962E-01
         -2   -1    0    0    0  501 -0.00000000000E+00  0.00000000000E+00  0.12425443630E+03  0.12425443633E+03  0.25500000000E-02 0.  1.
          2   -1    0    0  501    0  0.00000000000E+00 -0.00000000000E+00 -0.99793671827E+03  0.99793671828E+03  0.25500000000E-02 0. -1.
    5000001    1    1    2    0    0  0.27146617715E+03  0.49365807139E+02 -0.66577358405E+03  0.73933100400E+03  0.16500000000E+03 0.  0.
   -5000001    1    1    2    0    0 -0.27146617715E+03 -0.49365807139E+02 -0.20790869792E+03  0.38286015060E+03  0.16500000000E+03 0.  0.
<mgrwt>
<rscale>  0 0.70426718E+03</rscale>
<asrwt>0</asrwt>
<pdfrwt beam="1">  1        2 0.15352872E+00 0.70426718E+03</pdfrwt>
<pdfrwt beam="2">  1       -2 0.19116068E-01 0.70426718E+03</pdfrwt>
<totfact> 0.58759964E+02</totfact>
</mgrwt>
</event>
<event>
 4    1  0.9050888E-005  0.3447436E+03  0.7818608E-02  0.1064793E+00
         -2   -1    0    0    0  501 -0.00000000000E+00  0.00000000000E+00  0.20863988687E+02  0.20863988842E+02  0.25500000000E-02 0. -1.
          2   -1    0    0  501    0  0.00000000000E+00 -0.00000000000E+00 -0.14240826847E+04  0.14240826847E+04  0.25500000000E-02 0.  1.
    5000001    1    1    2    0    0 -0.21082915263E+01  0.46968416233E+02 -0.77131317275E+03  0.79016421551E+03  0.16500000000E+03 0.  0.
   -5000001    1    1    2    0    0  0.21082915263E+01 -0.46968416233E+02 -0.63190552324E+03  0.65478245801E+03  0.16500000000E+03 0.  0.
<mgrwt>
<rscale>  0 0.34474364E+03</rscale>
<asrwt>0</asrwt>
<pdfrwt beam="1">  1        2 0.21908957E+00 0.34474364E+03</pdfrwt>
<pdfrwt beam="2">  1       -2 0.32098456E-02 0.34474364E+03</pdfrwt>
<totfact> 0.57574689E+03</totfact>
</mgrwt>
</event>
<event>
 4    1  0.9050888E-005  0.6107150E+03  0.7818608E-02  0.9883422E-01
         -2   -1    0    0    0  501 -0.00000000000E+00  0.00000000000E+00  0.16805878827E+03  0.16805878829E+03  0.25500000000E-02 0. -1.
          2   -1    0    0  501    0  0.00000000000E+00 -0.00000000000E+00 -0.55482487034E+03  0.55482487034E+03  0.25500000000E-02 0.  1.
    5000001    1    1    2    0    0  0.11234955146E+03 -0.23104769902E+03 -0.18915907444E+03  0.35918187090E+03  0.16500000000E+03 0.  0.
   -5000001    1    1    2    0    0 -0.11234955146E+03  0.23104769902E+03 -0.19760700763E+03  0.36370178773E+03  0.16500000000E+03 0.  0.
<mgrwt>
<rscale>  0 0.61071498E+03</rscale>
<asrwt>0</asrwt>
<pdfrwt beam="1">  1        2 0.85357671E-01 0.61071498E+03</pdfrwt>
<pdfrwt beam="2">  1       -2 0.25855198E-01 0.61071498E+03</pdfrwt>
<totfact> 0.73845021E+02</totfact>
</mgrwt>
</event>
<event>
 4    1  0.9050888E-005  0.4801877E+03  0.7818608E-02  0.1019084E+00
         -2   -1    0    0    0  501 -0.00000000000E+00  0.00000000000E+00  0.92834509694E+02  0.92834509729E+02  0.25500000000E-02 0. -1.
          2   -1    0    0  501    0  0.00000000000E+00 -0.00000000000E+00 -0.62094436440E+03  0.62094436441E+03  0.25500000000E-02 0.  1.
    5000001    1    1    2    0    0 -0.14498067426E+03 -0.18720160981E+02 -0.40546564313E+03  0.46151622734E+03  0.16500000000E+03 0.  0.
   -5000001    1    1    2    0    0  0.14498067426E+03  0.18720160981E+02 -0.12264421158E+03  0.25226264680E+03  0.16500000000E+03 0.  0.
<mgrwt>
<rscale>  0 0.48018774E+03</rscale>
<asrwt>0</asrwt>
<pdfrwt beam="1">  1        2 0.95529899E-01 0.48018774E+03</pdfrwt>
<pdfrwt beam="2">  1       -2 0.14282233E-01 0.48018774E+03</pdfrwt>
<totfact> 0.18078720E+03</totfact>
</mgrwt>
</event>
<event>
 4    1  0.9050888E-005  0.4748685E+03  0.7818608E-02  0.1020555E+00
          2   -1    0    0  501    0  0.00000000000E+00  0.00000000000E+00  0.80132860440E+03  0.80132860441E+03  0.25500000000E-02 0.  1.
         -2   -1    0    0    0  501 -0.00000000000E+00 -0.00000000000E+00 -0.70351946401E+02  0.70351946447E+02  0.25500000000E-02 0. -1.
    5000001    1    1    2    0    0 -0.80879612295E+02 -0.58753822722E+02  0.11142493095E+03  0.22278698034E+03  0.16500000000E+03 0.  0.
   -5000001    1    1    2    0    0  0.80879612295E+02  0.58753822722E+02  0.61955172705E+03  0.64889357052E+03  0.16500000000E+03 0.  0.
<mgrwt>
<rscale>  0 0.47486852E+03</rscale>
<asrwt>0</asrwt>
<pdfrwt beam="1">  1        2 0.12328133E+00 0.47486852E+03</pdfrwt>
<pdfrwt beam="2">  1       -2 0.10823376E-01 0.47486852E+03</pdfrwt>
<totfact> 0.20751029E+03</totfact>
</mgrwt>
</event>
<event>
 4    1  0.9050888E-005  0.5079956E+03  0.7818608E-02  0.1011713E+00
          2   -1    0    0  501    0  0.00000000000E+00  0.00000000000E+00  0.26753380453E+04  0.26753380453E+04  0.25500000000E-02 0.  1.
         -2   -1    0    0    0  501 -0.00000000000E+00 -0.00000000000E+00 -0.24114666815E+02  0.24114666950E+02  0.25500000000E-02 0. -1.
    5000001    1    1    2    0    0  0.12916468905E+02  0.18647468970E+03  0.15832271558E+04  0.16027391778E+04  0.16500000000E+03 0.  0.
   -5000001    1    1    2    0    0 -0.12916468905E+02 -0.18647468970E+03  0.10679962227E+04  0.10967135345E+04  0.16500000000E+03 0.  0.
<mgrwt>
<rscale>  0 0.50799561E+03</rscale>
<asrwt>0</asrwt>
<pdfrwt beam="1">  1        2 0.41159057E+00 0.50799561E+03</pdfrwt>
<pdfrwt beam="2">  1       -2 0.37099478E-02 0.50799561E+03</pdfrwt>
<totfact> 0.95811445E+02</totfact>
</mgrwt>
</event>
<event>
 4    1  0.9050888E-005  0.4763058E+03  0.7818608E-02  0.1020155E+00
          2   -1    0    0  501    0  0.00000000000E+00  0.00000000000E+00  0.70170077909E+03  0.70170077909E+03  0.25500000000E-02 0.  1.
         -2   -1    0    0    0  501 -0.00000000000E+00 -0.00000000000E+00 -0.80827619397E+02  0.80827619437E+02  0.25500000000E-02 0. -1.
    5000001    1    1    2    0    0 -0.89900854838E+02  0.94011684622E+02  0.12622929416E+03  0.24511057760E+03  0.16500000000E+03 0.  0.
   -5000001    1    1    2    0    0  0.89900854838E+02 -0.94011684622E+02  0.49464386553E+03  0.53741782093E+03  0.16500000000E+03 0.  0.
<mgrwt>
<rscale>  0 0.47630580E+03</rscale>
<asrwt>0</asrwt>
<pdfrwt beam="1">  1        2 0.10795397E+00 0.47630580E+03</pdfrwt>
<pdfrwt beam="2">  1       -2 0.12435018E-01 0.47630580E+03</pdfrwt>
<totfact> 0.19585427E+03</totfact>
</mgrwt>
</event>
<event>
 4    1  0.9050888E-005  0.5909981E+03  0.7818608E-02  0.9924260E-01
         -2   -1    0    0    0  501 -0.00000000000E+00  0.00000000000E+00  0.27214756748E+02  0.27214756867E+02  0.25500000000E-02 0. -1.
          2   -1    0    0  501    0  0.00000000000E+00 -0.00000000000E+00 -0.32085414529E+04  0.32085414529E+04  0.25500000000E-02 0.  1.
    5000001    1    1    2    0    0  0.17891594943E+03  0.26691364426E+02 -0.68485214551E+03  0.72730379286E+03  0.16500000000E+03 0.  0.
   -5000001    1    1    2    0    0 -0.17891594943E+03 -0.26691364426E+02 -0.24964745506E+04  0.25084524169E+04  0.16500000000E+03 0.  0.
<mgrwt>
<rscale>  0 0.59099806E+03</rscale>
<asrwt>0</asrwt>
<pdfrwt beam="1">  1        2 0.49362146E+00 0.59099806E+03</pdfrwt>
<pdfrwt beam="2">  1       -2 0.41868882E-02 0.59099806E+03</pdfrwt>
<totfact> 0.37709567E+02</totfact>
</mgrwt>
</event>
<event>
 4    1  0.9050888E-005  0.3798358E+03  0.7818608E-02  0.1050994E+00
         -2   -1    0    0    0  501 -0.00000000000E+00  0.00000000000E+00  0.87579172045E+02  0.87579172082E+02  0.25500000000E-02 0. -1.
          2   -1    0    0  501    0  0.00000000000E+00 -0.00000000000E+00 -0.41184221060E+03  0.41184221061E+03  0.25500000000E-02 0.  1.
    5000001    1    1    2    0    0 -0.81711204715E+02 -0.45933595987E+02 -0.17207428224E+03  0.25616630306E+03  0.16500000000E+03 0.  0.
   -5000001    1    1    2    0    0  0.81711204715E+02  0.45933595987E+02 -0.15218875632E+03  0.24325507963E+03  0.16500000000E+03 0.  0.
<mgrwt>
<rscale>  0 0.37983575E+03</rscale>
<asrwt>0</asrwt>
<pdfrwt beam="1">  1        2 0.63360339E-01 0.37983575E+03</pdfrwt>
<pdfrwt beam="2">  1       -2 0.13473719E-01 0.37983575E+03</pdfrwt>
<totfact> 0.31783125E+03</totfact>
</mgrwt>
</event>
<event>
 4    1  0.9050888E-005  0.4864803E+03  0.7818608E-02  0.1017369E+00
         -2   -1    0    0    0  501 -0.00000000000E+00  0.00000000000E+00  0.89276078686E+02  0.89276078723E+02  0.25500000000E-02 0. -1.
          2   -1    0    0  501    0  0.00000000000E+00 -0.00000000000E+00 -0.66272813982E+03  0.66272813982E+03  0.25500000000E-02 0.  1.
    5000001    1    1    2    0    0 -0.69932887761E+02  0.15575778894E+03 -0.20508065492E+03  0.31374220727E+03  0.16500000000E+03 0.  0.
   -5000001    1    1    2    0    0  0.69932887761E+02 -0.15575778894E+03 -0.36837140622E+03  0.43826201127E+03  0.16500000000E+03 0.  0.
<mgrwt>
<rscale>  0 0.48648030E+03</rscale>
<asrwt>0</asrwt>
<pdfrwt beam="1">  1        2 0.10195817E+00 0.48648030E+03</pdfrwt>
<pdfrwt beam="2">  1       -2 0.13734782E-01 0.48648030E+03</pdfrwt>
<totfact> 0.17831703E+03</totfact>
</mgrwt>
</event>
<event>
 4    1  0.9050888E-005  0.6660142E+03  0.7818608E-02  0.9777185E-01
          2   -1    0    0  501    0  0.00000000000E+00  0.00000000000E+00  0.73385157504E+03  0.73385157504E+03  0.25500000000E-02 0.  1.
         -2   -1    0    0    0  501 -0.00000000000E+00 -0.00000000000E+00 -0.15111194762E+03  0.15111194765E+03  0.25500000000E-02 0. -1.
    5000001    1    1    2    0    0 -0.21658633998E+03  0.17486312263E+03  0.39584325062E+03  0.51127647451E+03  0.16500000000E+03 0.  0.
   -5000001    1    1    2    0    0  0.21658633998E+03 -0.17486312263E+03  0.18689637679E+03  0.37368704818E+03  0.16500000000E+03 0.  0.
<mgrwt>
<rscale>  0 0.66601424E+03</rscale>
<asrwt>0</asrwt>
<pdfrwt beam="1">  1        2 0.11290024E+00 0.66601424E+03</pdfrwt>
<pdfrwt beam="2">  1       -2 0.23247992E-01 0.66601424E+03</pdfrwt>
<totfact> 0.63389101E+02</totfact>
</mgrwt>
</event>
<event>
 4    1  0.9050888E-005  0.4295469E+03  0.7818608E-02  0.1034003E+00
          2   -1    0    0  501    0  0.00000000000E+00  0.00000000000E+00  0.57225667114E+02  0.57225667171E+02  0.25500000000E-02 0.  1.
         -2   -1    0    0    0  501 -0.00000000000E+00 -0.00000000000E+00 -0.80606551504E+03  0.80606551505E+03  0.25500000000E-02 0. -1.
    5000001    1    1    2    0    0 -0.32039797065E+02 -0.13215234079E+03 -0.41520626136E+03  0.46702465593E+03  0.16500000000E+03 0.  0.
   -5000001    1    1    2    0    0  0.32039797065E+02  0.13215234079E+03 -0.33363358656E+03  0.39626652629E+03  0.16500000000E+03 0.  0.
<mgrwt>
<rscale>  0 0.42954691E+03</rscale>
<asrwt>0</asrwt>
<pdfrwt beam="1">  1        2 0.88039494E-02 0.42954691E+03</pdfrwt>
<pdfrwt beam="2">  1       -2 0.12401007E+00 0.42954691E+03</pdfrwt>
<totfact> 0.38715983E+02</totfact>
</mgrwt>
</event>
<event>
 4    1  0.9050888E-005  0.4680318E+03  0.7818608E-02  0.1022477E+00
         -2   -1    0    0    0  501 -0.00000000000E+00  0.00000000000E+00  0.28472707345E+02  0.28472707459E+02  0.25500000000E-02 0. -1.
          2   -1    0    0  501    0  0.00000000000E+00 -0.00000000000E+00 -0.19233660532E+04  0.19233660532E+04  0.25500000000E-02 0.  1.
    5000001    1    1    2    0    0 -0.45192594256E+02 -0.60681445625E+02 -0.33151214097E+03  0.37795490211E+03  0.16500000000E+03 0.  0.
   -5000001    1    1    2    0    0  0.45192594256E+02  0.60681445625E+02 -0.15633812049E+04  0.15738838586E+04  0.16500000000E+03 0.  0.
<mgrwt>
<rscale>  0 0.46803179E+03</rscale>
<asrwt>0</asrwt>
<pdfrwt beam="1">  1        2 0.29590237E+00 0.46803179E+03</pdfrwt>
<pdfrwt beam="2">  1       -2 0.43804180E-02 0.46803179E+03</pdfrwt>
<totfact> 0.19316535E+03</totfact>
</mgrwt>
</event>
<event>
 4    1  0.9050888E-005  0.4350865E+03  0.7818608E-02  0.1032265E+00
          2   -1    0    0  501    0  0.00000000000E+00  0.00000000000E+00  0.62423526472E+03  0.62423526473E+03  0.25500000000E-02 0.  1.
         -2   -1    0    0    0  501 -0.00000000000E+00 -0.00000000000E+00 -0.75812859608E+02  0.75812859651E+02  0.25500000000E-02 0. -1.
    5000001    1    1    2    0    0  0.22201941280E+02 -0.13905263112E+03  0.30072288552E+03  0.37079349278E+03  0.16500000000E+03 0.  0.
   -5000001    1    1    2    0    0 -0.22201941280E+02  0.13905263112E+03  0.24769951960E+03  0.32925463159E+03  0.16500000000E+03 0.  0.
<mgrwt>
<rscale>  0 0.43508648E+03</rscale>
<asrwt>0</asrwt>
<pdfrwt beam="1">  1        2 0.96036195E-01 0.43508648E+03</pdfrwt>
<pdfrwt beam="2">  1       -2 0.11663517E-01 0.43508648E+03</pdfrwt>
<totfact> 0.25072425E+03</totfact>
</mgrwt>
</event>
<event>
 4    1  0.9050888E-005  0.4114686E+03  0.7818608E-02  0.1039879E+00
         -2   -1    0    0    0  501 -0.00000000000E+00  0.00000000000E+00  0.16735184586E+03  0.16735184588E+03  0.25500000000E-02 0. -1.
          2   -1    0    0  501    0  0.00000000000E+00 -0.00000000000E+00 -0.25291979840E+03  0.25291979842E+03  0.25500000000E-02 0.  1.
    5000001    1    1    2    0    0  0.93637802417E+02 -0.60716582116E+02  0.97662760538E+01  0.19943651003E+03  0.16500000000E+03 0.  0.
   -5000001    1    1    2    0    0 -0.93637802417E+02  0.60716582116E+02 -0.95334228594E+02  0.22083513427E+03  0.16500000000E+03 0.  0.
<mgrwt>
<rscale>  0 0.41146857E+03</rscale>
<asrwt>0</asrwt>
<pdfrwt beam="1">  1        2 0.38910738E-01 0.41146857E+03</pdfrwt>
<pdfrwt beam="2">  1       -2 0.25746438E-01 0.41146857E+03</pdfrwt>
<totfact> 0.17886999E+03</totfact>
</mgrwt>
</event>
<event>
 4    1  0.9050888E-005  0.3899846E+03  0.7818608E-02  0.1047304E+00
          2   -1    0    0  501    0  0.00000000000E+00  0.00000000000E+00  0.12676858091E+04  0.12676858091E+04  0.25500000000E-02 0.  1.
         -2   -1    0    0    0  501 -0.00000000000E+00 -0.00000000000E+00 -0.29993239766E+02  0.29993239874E+02  0.25500000000E-02 0. -1.
    5000001    1    1    2    0    0 -0.60632709568E+02 -0.64025525622E+02  0.43594165330E+03  0.47438983809E+03  0.16500000000E+03 0.  0.
   -5000001    1    1    2    0    0  0.60632709568E+02  0.64025525622E+02  0.80175091599E+03  0.82328921085E+03  0.16500000000E+03 0.  0.
<mgrwt>
<rscale>  0 0.38998464E+03</rscale>
<asrwt>0</asrwt>
<pdfrwt beam="1">  1        2 0.19502858E+00 0.38998464E+03</pdfrwt>
<pdfrwt beam="2">  1       -2 0.46143446E-02 0.38998464E+03</pdfrwt>
<totfact> 0.40609209E+03</totfact>
</mgrwt>
</event>
<event>
 4    1  0.9050888E-005  0.5667765E+03  0.7818608E-02  0.9976837E-01
         -2   -1    0    0    0  501 -0.00000000000E+00  0.00000000000E+00  0.19511938889E+03  0.19511938891E+03  0.25500000000E-02 0. -1.
          2   -1    0    0  501    0  0.00000000000E+00 -0.00000000000E+00 -0.41158846837E+03  0.41158846838E+03  0.25500000000E-02 0.  1.
    5000001    1    1    2    0    0  0.20764664014E+03  0.48434091215E+02 -0.14786326579E+02  0.27001226603E+03  0.16500000000E+03 0.  0.
   -5000001    1    1    2    0    0 -0.20764664014E+03 -0.48434091215E+02 -0.20168275290E+03  0.33669559125E+03  0.16500000000E+03 0.  0.
<mgrwt>
<rscale>  0 0.56677647E+03</rscale>
<asrwt>0</asrwt>
<pdfrwt beam="1">  1        2 0.63321302E-01 0.56677647E+03</pdfrwt>
<pdfrwt beam="2">  1       -2 0.30018368E-01 0.56677647E+03</pdfrwt>
<totfact> 0.79199677E+02</totfact>
</mgrwt>
</event>
<event>
 4    1  0.9050888E-005  0.5086562E+03  0.7818608E-02  0.1011544E+00
          2   -1    0    0  501    0  0.00000000000E+00  0.00000000000E+00  0.73024243428E+02  0.73024243473E+02  0.25500000000E-02 0. -1.
         -2   -1    0    0    0  501 -0.00000000000E+00 -0.00000000000E+00 -0.88577125182E+03  0.88577125182E+03  0.25500000000E-02 0.  1.
    5000001    1    1    2    0    0 -0.14949279366E+03  0.86610651579E+02 -0.24195724131E+03  0.34002618568E+03  0.16500000000E+03 0.  0.
   -5000001    1    1    2    0    0  0.14949279366E+03 -0.86610651579E+02 -0.57078976707E+03  0.61876930961E+03  0.16500000000E+03 0.  0.
<mgrwt>
<rscale>  0 0.50865617E+03</rscale>
<asrwt>0</asrwt>
<pdfrwt beam="1">  1        2 0.11234500E-01 0.50865617E+03</pdfrwt>
<pdfrwt beam="2">  1       -2 0.13627249E+00 0.50865617E+03</pdfrwt>
<totfact> 0.22436392E+02</totfact>
</mgrwt>
</event>
<event>
 4    1  0.9050888E-005  0.6747391E+03  0.7818608E-02  0.9761434E-01
         -2   -1    0    0    0  501 -0.00000000000E+00  0.00000000000E+00  0.22199490303E+03  0.22199490304E+03  0.25500000000E-02 0. -1.
          2   -1    0    0  501    0  0.00000000000E+00 -0.00000000000E+00 -0.51270648360E+03  0.51270648360E+03  0.25500000000E-02 0.  1.
    5000001    1    1    2    0    0 -0.23213432407E+02 -0.25861939015E+03  0.54056393260E+01  0.30769639800E+03  0.16500000000E+03 0.  0.
   -5000001    1    1    2    0    0  0.23213432407E+02  0.25861939015E+03 -0.29611721990E+03  0.42700498864E+03  0.16500000000E+03 0.  0.
<mgrwt>
<rscale>  0 0.67473914E+03</rscale>
<asrwt>0</asrwt>
<pdfrwt beam="1">  1        2 0.78877920E-01 0.67473914E+03</pdfrwt>
<pdfrwt beam="2">  1       -2 0.34153062E-01 0.67473914E+03</pdfrwt>
<totfact> 0.48345376E+02</totfact>
</mgrwt>
</event>
<event>
 4    1  0.9050888E-005  0.5968094E+03  0.7818608E-02  0.9912048E-01
         -2   -1    0    0    0  501 -0.00000000000E+00  0.00000000000E+00  0.53677629743E+02  0.53677629804E+02  0.25500000000E-02 0. -1.
          2   -1    0    0  501    0  0.00000000000E+00 -0.00000000000E+00 -0.16588913404E+04  0.16588913404E+04  0.25500000000E-02 0.  1.
    5000001    1    1    2    0    0  0.20304441683E+03 -0.13624150454E+03 -0.93194558650E+03  0.97751540088E+03  0.16500000000E+03 0.  0.
   -5000001    1    1    2    0    0 -0.20304441683E+03  0.13624150454E+03 -0.67326812413E+03  0.73505356929E+03  0.16500000000E+03 0.  0.
<mgrwt>
<rscale>  0 0.59680937E+03</rscale>
<asrwt>0</asrwt>
<pdfrwt beam="1">  1        2 0.25521401E+00 0.59680937E+03</pdfrwt>
<pdfrwt beam="2">  1       -2 0.82580982E-02 0.59680937E+03</pdfrwt>
<totfact> 0.98903243E+02</totfact>
</mgrwt>
</event>
<event>
 4    1  0.9050888E-005  0.3710045E+03  0.7818608E-02  0.1054310E+00
          2   -1    0    0  501    0  0.00000000000E+00  0.00000000000E+00  0.24932033785E+03  0.24932033786E+03  0.25500000000E-02 0.  1.
         -2   -1    0    0    0  501 -0.00000000000E+00 -0.00000000000E+00 -0.13801958729E+03  0.13801958732E+03  0.25500000000E-02 0. -1.
    5000001    1    1    2    0    0  0.50987485658E+02  0.67597019332E+02  0.59956215035E+02  0.19490723034E+03  0.16500000000E+03 0.  0.
   -5000001    1    1    2    0    0 -0.50987485658E+02 -0.67597019332E+02  0.51344535524E+02  0.19243269484E+03  0.16500000000E+03 0.  0.
<mgrwt>
<rscale>  0 0.37100453E+03</rscale>
<asrwt>0</asrwt>
<pdfrwt beam="1">  1        2 0.38356975E-01 0.37100453E+03</pdfrwt>
<pdfrwt beam="2">  1       -2 0.21233783E-01 0.37100453E+03</pdfrwt>
<totfact> 0.25481318E+03</totfact>
</mgrwt>
</event>
<event>
 4    1  0.9050888E-005  0.5161394E+03  0.7818608E-02  0.1009650E+00
         -2   -1    0    0    0  501 -0.00000000000E+00  0.00000000000E+00  0.24614145871E+02  0.24614146003E+02  0.25500000000E-02 0. -1.
          2   -1    0    0  501    0  0.00000000000E+00 -0.00000000000E+00 -0.27057603694E+04  0.27057603694E+04  0.25500000000E-02 0.  1.
    5000001    1    1    2    0    0 -0.16803169353E+03  0.29524584583E+02 -0.80451556255E+03  0.83879475530E+03  0.16500000000E+03 0.  0.
   -5000001    1    1    2    0    0  0.16803169353E+03 -0.29524584583E+02 -0.18766306610E+04  0.18915797601E+04  0.16500000000E+03 0.  0.
<mgrwt>
<rscale>  0 0.51613944E+03</rscale>
<asrwt>0</asrwt>
<pdfrwt beam="1">  1        2 0.41627059E+00 0.51613944E+03</pdfrwt>
<pdfrwt beam="2">  1       -2 0.37867938E-02 0.51613944E+03</pdfrwt>
<totfact> 0.89127048E+02</totfact>
</mgrwt>
</event>
<event>
 4    1  0.9050888E-005  0.6766878E+03  0.7818608E-02  0.9757951E-01
          2   -1    0    0  501    0  0.00000000000E+00  0.00000000000E+00  0.74357257104E+03  0.74357257105E+03  0.25500000000E-02 0.  1.
         -2   -1    0    0    0  501 -0.00000000000E+00 -0.00000000000E+00 -0.15395484127E+03  0.15395484129E+03  0.25500000000E-02 0. -1.
    5000001    1    1    2    0    0  0.22876637659E+03 -0.15880882662E+03  0.42542136922E+03  0.53456771307E+03  0.16500000000E+03 0.  0.
   -5000001    1    1    2    0    0 -0.22876637659E+03  0.15880882662E+03  0.16419636055E+03  0.36295969927E+03  0.16500000000E+03 0.  0.
<mgrwt>
<rscale>  0 0.67668781E+03</rscale>
<asrwt>0</asrwt>
<pdfrwt beam="1">  1        2 0.11439578E+00 0.67668781E+03</pdfrwt>
<pdfrwt beam="2">  1       -2 0.23685360E-01 0.67668781E+03</pdfrwt>
<totfact> 0.60272334E+02</totfact>
</mgrwt>
</event>
<event>
 4    1  0.9050888E-005  0.6877856E+03  0.7818608E-02  0.9738351E-01
          2   -1    0    0  501    0  0.00000000000E+00  0.00000000000E+00  0.15659248120E+04  0.15659248120E+04  0.25500000000E-02 0.  1.
         -2   -1    0    0    0  501 -0.00000000000E+00 -0.00000000000E+00 -0.75522307542E+02  0.75522307585E+02  0.25500000000E-02 0. -1.
    5000001    1    1    2    0    0  0.36394460867E+01  0.29293709924E+03  0.57290714420E+03  0.66428381401E+03  0.16500000000E+03 0.  0.
   -5000001    1    1    2    0    0 -0.36394460867E+01 -0.29293709924E+03  0.91749536027E+03  0.97716330559E+03  0.16500000000E+03 0.  0.
<mgrwt>
<rscale>  0 0.68778559E+03</rscale>
<asrwt>0</asrwt>
<pdfrwt beam="1">  1        2 0.24091149E+00 0.68778559E+03</pdfrwt>
<pdfrwt beam="2">  1       -2 0.11618818E-01 0.68778559E+03</pdfrwt>
<totfact> 0.63616589E+02</totfact>
</mgrwt>
</event>
<event>
 4    1  0.9050888E-005  0.5330608E+03  0.7818608E-02  0.1005493E+00
          2   -1    0    0  501    0  0.00000000000E+00  0.00000000000E+00  0.60201135598E+03  0.60201135598E+03  0.25500000000E-02 0.  1.
         -2   -1    0    0    0  501 -0.00000000000E+00 -0.00000000000E+00 -0.11800183468E+03  0.11800183470E+03  0.25500000000E-02 0. -1.
    5000001    1    1    2    0    0 -0.83255474784E+02  0.18425269009E+03  0.16885488466E+03  0.31083355669E+03  0.16500000000E+03 0.  0.
   -5000001    1    1    2    0    0  0.83255474784E+02 -0.18425269009E+03  0.31515463664E+03  0.40917963400E+03  0.16500000000E+03 0.  0.
<mgrwt>
<rscale>  0 0.53306076E+03</rscale>
<asrwt>0</asrwt>
<pdfrwt beam="1">  1        2 0.92617130E-01 0.53306076E+03</pdfrwt>
<pdfrwt beam="2">  1       -2 0.18154129E-01 0.53306076E+03</pdfrwt>
<totfact> 0.12503366E+03</totfact>
</mgrwt>
</event>
<event>
 4    1  0.9050888E-005  0.4043533E+03  0.7818608E-02  0.1042283E+00
          2   -1    0    0  501    0  0.00000000000E+00  0.00000000000E+00  0.62647976147E+03  0.62647976147E+03  0.25500000000E-02 0.  1.
         -2   -1    0    0    0  501 -0.00000000000E+00 -0.00000000000E+00 -0.65246171338E+02  0.65246171388E+02  0.25500000000E-02 0. -1.
    5000001    1    1    2    0    0  0.11409402264E+03  0.22466670282E+02  0.29998688344E+03  0.36157893677E+03  0.16500000000E+03 0.  0.
   -5000001    1    1    2    0    0 -0.11409402264E+03 -0.22466670282E+02  0.26124670669E+03  0.33014699610E+03  0.16500000000E+03 0.  0.
<mgrwt>
<rscale>  0 0.40435334E+03</rscale>
<asrwt>0</asrwt>
<pdfrwt beam="1">  1        2 0.96381498E-01 0.40435334E+03</pdfrwt>
<pdfrwt beam="2">  1       -2 0.10037873E-01 0.40435334E+03</pdfrwt>
<totfact> 0.31806434E+03</totfact>
</mgrwt>
</event>
<event>
 4    1  0.9050888E-005  0.3880473E+03  0.7818608E-02  0.1047999E+00
         -2   -1    0    0    0  501 -0.00000000000E+00  0.00000000000E+00  0.19404659492E+02  0.19404659659E+02  0.25500000000E-02 0. -1.
          2   -1    0    0  501    0  0.00000000000E+00 -0.00000000000E+00 -0.19400074406E+04  0.19400074406E+04  0.25500000000E-02 0.  1.
    5000001    1    1    2    0    0  0.18532680530E+02 -0.95852303126E+02 -0.11108603278E+04  0.11272829246E+04  0.16500000000E+03 0.  0.
   -5000001    1    1    2    0    0 -0.18532680530E+02  0.95852303126E+02 -0.80974245331E+03  0.83212917564E+03  0.16500000000E+03 0.  0.
<mgrwt>
<rscale>  0 0.38804734E+03</rscale>
<asrwt>0</asrwt>
<pdfrwt beam="1">  1        2 0.29846253E+00 0.38804734E+03</pdfrwt>
<pdfrwt beam="2">  1       -2 0.29853338E-02 0.38804734E+03</pdfrwt>
<totfact> 0.33980764E+03</totfact>
</mgrwt>
</event>
<event>
 4    1  0.9050888E-005  0.4548632E+03  0.7818608E-02  0.1026282E+00
          2   -1    0    0  501    0  0.00000000000E+00  0.00000000000E+00  0.93511223987E+03  0.93511223987E+03  0.25500000000E-02 0.  1.
         -2   -1    0    0    0  501 -0.00000000000E+00 -0.00000000000E+00 -0.55314363135E+02  0.55314363194E+02  0.25500000000E-02 0. -1.
    5000001    1    1    2    0    0  0.12502296975E+02  0.14181595537E+03  0.29824858638E+03  0.36938501852E+03  0.16500000000E+03 0.  0.
   -5000001    1    1    2    0    0 -0.12502296975E+02 -0.14181595537E+03  0.58154929035E+03  0.62104158455E+03  0.16500000000E+03 0.  0.
<mgrwt>
<rscale>  0 0.45486322E+03</rscale>
<asrwt>0</asrwt>
<pdfrwt beam="1">  1        2 0.14386342E+00 0.45486322E+03</pdfrwt>
<pdfrwt beam="2">  1       -2 0.85099022E-02 0.45486322E+03</pdfrwt>
<totfact> 0.24804598E+03</totfact>
</mgrwt>
</event>
<event>
 4    1  0.9050888E-005  0.8178220E+03  0.7818608E-02  0.9534573E-01
          2   -1    0    0  501    0  0.00000000000E+00  0.00000000000E+00  0.21134459404E+04  0.21134459404E+04  0.25500000000E-02 0.  1.
         -2   -1    0    0    0  501 -0.00000000000E+00 -0.00000000000E+00 -0.79116378532E+02  0.79116378574E+02  0.25500000000E-02 0. -1.
    5000001    1    1    2    0    0 -0.30775611684E+03 -0.17935411128E+03  0.71029572359E+03  0.81155821703E+03  0.16500000000E+03 0.  0.
   -5000001    1    1    2    0    0  0.30775611684E+03  0.17935411128E+03  0.13240338383E+04  0.13810041019E+04  0.16500000000E+03 0.  0.
<mgrwt>
<rscale>  0 0.81782196E+03</rscale>
<asrwt>0</asrwt>
<pdfrwt beam="1">  1        2 0.32514549E+00 0.81782196E+03</pdfrwt>
<pdfrwt beam="2">  1       -2 0.12171752E-01 0.81782196E+03</pdfrwt>
<totfact> 0.29310385E+02</totfact>
</mgrwt>
</event>
<event>
 4    1  0.9050888E-005  0.5988335E+03  0.7818608E-02  0.9907829E-01
         -2   -1    0    0    0  501 -0.00000000000E+00  0.00000000000E+00  0.10882604656E+03  0.10882604659E+03  0.25500000000E-02 0. -1.
          2   -1    0    0  501    0  0.00000000000E+00 -0.00000000000E+00 -0.82379544279E+03  0.82379544279E+03  0.25500000000E-02 0.  1.
    5000001    1    1    2    0    0  0.18200731333E+03 -0.13324674615E+03 -0.19015297397E+03  0.33803034032E+03  0.16500000000E+03 0.  0.
   -5000001    1    1    2    0    0 -0.18200731333E+03  0.13324674615E+03 -0.52481642226E+03  0.59459114906E+03  0.16500000000E+03 0.  0.
<mgrwt>
<rscale>  0 0.59883354E+03</rscale>
<asrwt>0</asrwt>
<pdfrwt beam="1">  1        2 0.12673776E+00 0.59883354E+03</pdfrwt>
<pdfrwt beam="2">  1       -2 0.16742469E-01 0.59883354E+03</pdfrwt>
<totfact> 0.96755056E+02</totfact>
</mgrwt>
</event>
<event>
 4    1  0.9050888E-005  0.3684137E+03  0.7818608E-02  0.1055301E+00
         -2   -1    0    0    0  501 -0.00000000000E+00  0.00000000000E+00  0.45228795827E+02  0.45228795899E+02  0.25500000000E-02 0. -1.
          2   -1    0    0  501    0  0.00000000000E+00 -0.00000000000E+00 -0.75023350034E+03  0.75023350034E+03  0.25500000000E-02 0.  1.
    5000001    1    1    2    0    0 -0.80994805605E+02  0.11396975564E+02 -0.36143307678E+03  0.40564629738E+03  0.16500000000E+03 0.  0.
   -5000001    1    1    2    0    0  0.80994805605E+02 -0.11396975564E+02 -0.34357162773E+03  0.38981599886E+03  0.16500000000E+03 0.  0.
<mgrwt>
<rscale>  0 0.36841367E+03</rscale>
<asrwt>0</asrwt>
<pdfrwt beam="1">  1        2 0.11542053E+00 0.36841367E+03</pdfrwt>
<pdfrwt beam="2">  1       -2 0.69582768E-02 0.36841367E+03</pdfrwt>
<totfact> 0.45492035E+03</totfact>
</mgrwt>
</event>
<event>
 4    1  0.9050888E-005  0.6492016E+03  0.7818608E-02  0.9808278E-01
         -2   -1    0    0    0  501 -0.00000000000E+00  0.00000000000E+00  0.94432271282E+02  0.94432271317E+02  0.25500000000E-02 0. -1.
          2   -1    0    0  501    0  0.00000000000E+00 -0.00000000000E+00 -0.11157804947E+04  0.11157804947E+04  0.25500000000E-02 0.  1.
    5000001    1    1    2    0    0 -0.21400115484E+03  0.10175164781E+02 -0.17595224634E+03  0.32262086300E+03  0.16500000000E+03 0.  0.
   -5000001    1    1    2    0    0  0.21400115484E+03 -0.10175164781E+02 -0.84539597708E+03  0.88759190303E+03  0.16500000000E+03 0.  0.
<mgrwt>
<rscale>  0 0.64920162E+03</rscale>
<asrwt>0</asrwt>
<pdfrwt beam="1">  1        2 0.17165853E+00 0.64920162E+03</pdfrwt>
<pdfrwt beam="2">  1       -2 0.14528042E-01 0.64920162E+03</pdfrwt>
<totfact> 0.79523332E+02</totfact>
</mgrwt>
</event>
<event>
 4    1  0.9050888E-005  0.6555953E+03  0.7818608E-02  0.9796336E-01
          2   -1    0    0  501    0  0.00000000000E+00  0.00000000000E+00  0.13853715669E+03  0.13853715671E+03  0.25500000000E-02 0.  1.
         -2   -1    0    0    0  501 -0.00000000000E+00 -0.00000000000E+00 -0.77561358264E+03  0.77561358264E+03  0.25500000000E-02 0. -1.
    5000001    1    1    2    0    0  0.17292948561E+03 -0.21542134882E+03 -0.23128800007E+03  0.39627024049E+03  0.16500000000E+03 0.  0.
   -5000001    1    1    2    0    0 -0.17292948561E+03  0.21542134882E+03 -0.40578842589E+03  0.51788049887E+03  0.16500000000E+03 0.  0.
<mgrwt>
<rscale>  0 0.65559530E+03</rscale>
<asrwt>0</asrwt>
<pdfrwt beam="1">  1        2 0.21313409E-01 0.65559530E+03</pdfrwt>
<pdfrwt beam="2">  1       -2 0.11932516E+00 0.65559530E+03</pdfrwt>
<totfact> 0.14375090E+02</totfact>
</mgrwt>
</event>
<event>
 4    1  0.9050888E-005  0.7138239E+03  0.7818608E-02  0.9693879E-01
         -2   -1    0    0    0  501 -0.00000000000E+00  0.00000000000E+00  0.74899625531E+02  0.74899625575E+02  0.25500000000E-02 0. -1.
          2   -1    0    0  501    0  0.00000000000E+00 -0.00000000000E+00 -0.17007579378E+04  0.17007579378E+04  0.25500000000E-02 0.  1.
    5000001    1    1    2    0    0 -0.98779247740E+02  0.21084471029E+03 -0.27971352487E+03  0.39959665619E+03  0.16500000000E+03 0.  0.
   -5000001    1    1    2    0    0  0.98779247740E+02 -0.21084471029E+03 -0.13461447874E+04  0.13760609072E+04  0.16500000000E+03 0.  0.
<mgrwt>
<rscale>  0 0.71382388E+03</rscale>
<asrwt>0</asrwt>
<pdfrwt beam="1">  1        2 0.26165504E+00 0.71382388E+03</pdfrwt>
<pdfrwt beam="2">  1       -2 0.11523021E-01 0.71382388E+03</pdfrwt>
<totfact> 0.54309418E+02</totfact>
</mgrwt>
</event>
<event>
 4    1  0.9050888E-005  0.4438078E+03  0.7818608E-02  0.1029585E+00
          2   -1    0    0  501    0  0.00000000000E+00  0.00000000000E+00  0.85234967267E+03  0.85234967267E+03  0.25500000000E-02 0.  1.
         -2   -1    0    0    0  501 -0.00000000000E+00 -0.00000000000E+00 -0.57771302867E+02  0.57771302923E+02  0.25500000000E-02 0. -1.
    5000001    1    1    2    0    0 -0.14081707685E+01  0.12281352556E+03  0.56801867933E+03  0.60411535742E+03  0.16500000000E+03 0.  0.
   -5000001    1    1    2    0    0  0.14081707685E+01 -0.12281352556E+03  0.22655969047E+03  0.30600561817E+03  0.16500000000E+03 0.  0.
<mgrwt>
<rscale>  0 0.44380785E+03</rscale>
<asrwt>0</asrwt>
<pdfrwt beam="1">  1        2 0.13113072E+00 0.44380785E+03</pdfrwt>
<pdfrwt beam="2">  1       -2 0.88878928E-02 0.44380785E+03</pdfrwt>
<totfact> 0.26260263E+03</totfact>
</mgrwt>
</event>
<event>
 4    1  0.9050888E-005  0.8447490E+03  0.7818608E-02  0.9497412E-01
         -2   -1    0    0    0  501 -0.00000000000E+00  0.00000000000E+00  0.93961568155E+02  0.93961568190E+02  0.25500000000E-02 0. -1.
          2   -1    0    0  501    0  0.00000000000E+00 -0.00000000000E+00 -0.18986508759E+04  0.18986508759E+04  0.25500000000E-02 0.  1.
    5000001    1    1    2    0    0 -0.33546257829E+03  0.70494546210E+02 -0.13351778172E+04  0.13883189208E+04  0.16500000000E+03 0.  0.
   -5000001    1    1    2    0    0  0.33546257829E+03 -0.70494546210E+02 -0.46951149060E+03  0.60429352328E+03  0.16500000000E+03 0.  0.
<mgrwt>
<rscale>  0 0.84474899E+03</rscale>
<asrwt>0</asrwt>
<pdfrwt beam="1">  1        2 0.29210011E+00 0.84474899E+03</pdfrwt>
<pdfrwt beam="2">  1       -2 0.14455627E-01 0.84474899E+03</pdfrwt>
<totfact> 0.28766292E+02</totfact>
</mgrwt>
</event>
<event>
 4    1  0.9050888E-005  0.4285491E+03  0.7818608E-02  0.1034319E+00
         -2   -1    0    0    0  501 -0.00000000000E+00  0.00000000000E+00  0.12523342634E+03  0.12523342636E+03  0.25500000000E-02 0. -1.
          2   -1    0    0  501    0  0.00000000000E+00 -0.00000000000E+00 -0.36662396275E+03  0.36662396275E+03  0.25500000000E-02 0.  1.
    5000001    1    1    2    0    0 -0.10295243178E+03  0.87552187866E+02 -0.97062503795E+02  0.23433036178E+03  0.16500000000E+03 0.  0.
   -5000001    1    1    2    0    0  0.10295243178E+03 -0.87552187866E+02 -0.14432803261E+03  0.25752702733E+03  0.16500000000E+03 0.  0.
<mgrwt>
<rscale>  0 0.42854906E+03</rscale>
<asrwt>0</asrwt>
<pdfrwt beam="1">  1        2 0.56403686E-01 0.42854906E+03</pdfrwt>
<pdfrwt beam="2">  1       -2 0.19266681E-01 0.42854906E+03</pdfrwt>
<totfact> 0.19823742E+03</totfact>
</mgrwt>
</event>
<event>
 4    1  0.9050888E-005  0.4639316E+03  0.7818608E-02  0.1023647E+00
          2   -1    0    0  501    0  0.00000000000E+00  0.00000000000E+00  0.95739098432E+03  0.95739098432E+03  0.25500000000E-02 0.  1.
         -2   -1    0    0    0  501 -0.00000000000E+00 -0.00000000000E+00 -0.56202887642E+02  0.56202887700E+02  0.25500000000E-02 0. -1.
    5000001    1    1    2    0    0  0.50463053867E+02 -0.75346549984E+02  0.15456072031E+03  0.24359318271E+03  0.16500000000E+03 0.  0.
   -5000001    1    1    2    0    0 -0.50463053867E+02  0.75346549984E+02  0.74662737637E+03  0.77000068931E+03  0.16500000000E+03 0.  0.
<mgrwt>
<rscale>  0 0.46393162E+03</rscale>
<asrwt>0</asrwt>
<pdfrwt beam="1">  1        2 0.14729092E+00 0.46393162E+03</pdfrwt>
<pdfrwt beam="2">  1       -2 0.86465979E-02 0.46393162E+03</pdfrwt>
<totfact> 0.23397905E+03</totfact>
</mgrwt>
</event>
<event>
 4    1  0.9050888E-005  0.5508138E+03  0.7818608E-02  0.1001306E+00
         -2   -1    0    0    0  501 -0.00000000000E+00  0.00000000000E+00  0.14368065717E+03  0.14368065719E+03  0.25500000000E-02 0. -1.
          2   -1    0    0  501    0  0.00000000000E+00 -0.00000000000E+00 -0.52789960767E+03  0.52789960767E+03  0.25500000000E-02 0.  1.
    5000001    1    1    2    0    0 -0.15137723304E+03 -0.53051900849E+02 -0.76259190777E+01  0.23024492504E+03  0.16500000000E+03 0.  0.
   -5000001    1    1    2    0    0  0.15137723304E+03  0.53051900849E+02 -0.37659303142E+03  0.44133533982E+03  0.16500000000E+03 0.  0.
<mgrwt>
<rscale>  0 0.55081381E+03</rscale>
<asrwt>0</asrwt>
<pdfrwt beam="1">  1        2 0.81215323E-01 0.55081381E+03</pdfrwt>
<pdfrwt beam="2">  1       -2 0.22104717E-01 0.55081381E+03</pdfrwt>
<totfact> 0.10360215E+03</totfact>
</mgrwt>
</event>
<event>
 4    1  0.9050888E-005  0.4752017E+03  0.7818608E-02  0.1020462E+00
         -2   -1    0    0    0  501 -0.00000000000E+00  0.00000000000E+00  0.74966011581E+02  0.74966011625E+02  0.25500000000E-02 0. -1.
          2   -1    0    0  501    0  0.00000000000E+00 -0.00000000000E+00 -0.75306338235E+03  0.75306338235E+03  0.25500000000E-02 0.  1.
    5000001    1    1    2    0    0 -0.40523235820E+02 -0.15211262985E+03 -0.22282679482E+03  0.31883720814E+03  0.16500000000E+03 0.  0.
   -5000001    1    1    2    0    0  0.40523235820E+02  0.15211262985E+03 -0.45527057594E+03  0.50919218584E+03  0.16500000000E+03 0.  0.
<mgrwt>
<rscale>  0 0.47520168E+03</rscale>
<asrwt>0</asrwt>
<pdfrwt beam="1">  1        2 0.11585590E+00 0.47520168E+03</pdfrwt>
<pdfrwt beam="2">  1       -2 0.11533233E-01 0.47520168E+03</pdfrwt>
<totfact> 0.20271854E+03</totfact>
</mgrwt>
</event>
<event>
 4    1  0.9050888E-005  0.4564971E+03  0.7818608E-02  0.1025802E+00
          2   -1    0    0  501    0  0.00000000000E+00  0.00000000000E+00  0.48732311475E+03  0.48732311476E+03  0.25500000000E-02 0.  1.
         -2   -1    0    0    0  501 -0.00000000000E+00 -0.00000000000E+00 -0.10690526766E+03  0.10690526769E+03  0.25500000000E-02 0. -1.
    5000001    1    1    2    0    0 -0.74151420766E+02  0.86536605850E+02  0.48295960398E+02  0.20626322296E+03  0.16500000000E+03 0.  0.
   -5000001    1    1    2    0    0  0.74151420766E+02 -0.86536605850E+02  0.33212188669E+03  0.38796515949E+03  0.16500000000E+03 0.  0.
<mgrwt>
<rscale>  0 0.45649713E+03</rscale>
<asrwt>0</asrwt>
<pdfrwt beam="1">  1        2 0.74972787E-01 0.45649713E+03</pdfrwt>
<pdfrwt beam="2">  1       -2 0.16446964E-01 0.45649713E+03</pdfrwt>
<totfact> 0.18914682E+03</totfact>
</mgrwt>
</event>
<event>
 4    1  0.9050888E-005  0.4876309E+03  0.7818608E-02  0.1017059E+00
          2   -1    0    0  501    0  0.00000000000E+00  0.00000000000E+00  0.13286663536E+04  0.13286663536E+04  0.25500000000E-02 0.  1.
         -2   -1    0    0    0  501 -0.00000000000E+00 -0.00000000000E+00 -0.44741092955E+02  0.44741093027E+02  0.25500000000E-02 0. -1.
    5000001    1    1    2    0    0  0.61171148195E+02 -0.16712278865E+03  0.70795803585E+03  0.74839930277E+03  0.16500000000E+03 0.  0.
   -5000001    1    1    2    0    0 -0.61171148195E+02  0.16712278865E+03  0.57596722484E+03  0.62500814390E+03  0.16500000000E+03 0.  0.
<mgrwt>
<rscale>  0 0.48763095E+03</rscale>
<asrwt>0</asrwt>
<pdfrwt beam="1">  1        2 0.20441022E+00 0.48763095E+03</pdfrwt>
<pdfrwt beam="2">  1       -2 0.68832447E-02 0.48763095E+03</pdfrwt>
<totfact> 0.20167486E+03</totfact>
</mgrwt>
</event>
<event>
 4    1  0.9050888E-005  0.5502329E+03  0.7818608E-02  0.1001440E+00
          2   -1    0    0  501    0  0.00000000000E+00  0.00000000000E+00  0.69608803706E+03  0.69608803707E+03  0.25500000000E-02 0.  1.
         -2   -1    0    0    0  501 -0.00000000000E+00 -0.00000000000E+00 -0.10873490441E+03  0.10873490444E+03  0.25500000000E-02 0. -1.
    5000001    1    1    2    0    0 -0.15135152440E+03 -0.10401412798E+03  0.11610609501E+03  0.27282200801E+03  0.16500000000E+03 0.  0.
   -5000001    1    1    2    0    0  0.15135152440E+03  0.10401412798E+03  0.47124703764E+03  0.53200093350E+03  0.16500000000E+03 0.  0.
<mgrwt>
<rscale>  0 0.55023292E+03</rscale>
<asrwt>0</asrwt>
<pdfrwt beam="1">  1        2 0.10709047E+00 0.55023292E+03</pdfrwt>
<pdfrwt beam="2">  1       -2 0.16728446E-01 0.55023292E+03</pdfrwt>
<totfact> 0.12043797E+03</totfact>
</mgrwt>
</event>
<event>
 4    1  0.9050888E-005  0.4094432E+03  0.7818608E-02  0.1040558E+00
         -2   -1    0    0    0  501 -0.00000000000E+00  0.00000000000E+00  0.23190202937E+03  0.23190202938E+03  0.25500000000E-02 0. -1.
          2   -1    0    0  501    0  0.00000000000E+00 -0.00000000000E+00 -0.18072691972E+03  0.18072691974E+03  0.25500000000E-02 0.  1.
    5000001    1    1    2    0    0 -0.80129816422E+02 -0.89687557067E+02  0.10595854304E+02  0.20445517235E+03  0.16500000000E+03 0.  0.
   -5000001    1    1    2    0    0  0.80129816422E+02  0.89687557067E+02  0.40579255342E+02  0.20817377677E+03  0.16500000000E+03 0.  0.
<mgrwt>
<rscale>  0 0.40944323E+03</rscale>
<asrwt>0</asrwt>
<pdfrwt beam="1">  1        2 0.27804141E-01 0.40944323E+03</pdfrwt>
<pdfrwt beam="2">  1       -2 0.35677235E-01 0.40944323E+03</pdfrwt>
<totfact> 0.14245333E+03</totfact>
</mgrwt>
</event>
<event>
 4    1  0.9050888E-005  0.4163543E+03  0.7818608E-02  0.1038259E+00
          2   -1    0    0  501    0  0.00000000000E+00  0.00000000000E+00  0.45721027027E+03  0.45721027027E+03  0.25500000000E-02 0.  1.
         -2   -1    0    0    0  501 -0.00000000000E+00 -0.00000000000E+00 -0.94787294073E+02  0.94787294107E+02  0.25500000000E-02 0. -1.
    5000001    1    1    2    0    0 -0.11595873699E+03  0.45049622863E+02  0.21466832652E+03  0.29796541345E+03  0.16500000000E+03 0.  0.
   -5000001    1    1    2    0    0  0.11595873699E+03 -0.45049622863E+02  0.14775464968E+03  0.25403215093E+03  0.16500000000E+03 0.  0.
<mgrwt>
<rscale>  0 0.41635429E+03</rscale>
<asrwt>0</asrwt>
<pdfrwt beam="1">  1        2 0.70340042E-01 0.41635429E+03</pdfrwt>
<pdfrwt beam="2">  1       -2 0.14582661E-01 0.41635429E+03</pdfrwt>
<totfact> 0.24854093E+03</totfact>
</mgrwt>
</event>
<event>
 4    1  0.9050888E-005  0.7215624E+03  0.7818608E-02  0.9681052E-01
         -2   -1    0    0    0  501 -0.00000000000E+00  0.00000000000E+00  0.45883260911E+03  0.45883260912E+03  0.25500000000E-02 0. -1.
          2   -1    0    0  501    0  0.00000000000E+00 -0.00000000000E+00 -0.28368314479E+03  0.28368314480E+03  0.25500000000E-02 0.  1.
    5000001    1    1    2    0    0 -0.39806971063E+02 -0.31377158086E+03  0.32150909784E+02  0.35818414384E+03  0.16500000000E+03 0.  0.
   -5000001    1    1    2    0    0  0.39806971063E+02  0.31377158086E+03  0.14299855454E+03  0.38433161007E+03  0.16500000000E+03 0.  0.
<mgrwt>
<rscale>  0 0.72156241E+03</rscale>
<asrwt>0</asrwt>
<pdfrwt beam="1">  1        2 0.43643561E-01 0.72156241E+03</pdfrwt>
<pdfrwt beam="2">  1       -2 0.70589632E-01 0.72156241E+03</pdfrwt>
<totfact> 0.21532280E+02</totfact>
</mgrwt>
</event>
<event>
 4    1  0.9050888E-005  0.8176548E+03  0.7818608E-02  0.9534808E-01
         -2   -1    0    0    0  501 -0.00000000000E+00  0.00000000000E+00  0.23107521088E+03  0.23107521090E+03  0.25500000000E-02 0. -1.
          2   -1    0    0  501    0  0.00000000000E+00 -0.00000000000E+00 -0.72331351415E+03  0.72331351416E+03  0.25500000000E-02 0.  1.
    5000001    1    1    2    0    0 -0.35356586018E+02 -0.25143410462E+03 -0.56672568478E+03  0.64255132008E+03  0.16500000000E+03 0.  0.
   -5000001    1    1    2    0    0  0.35356586018E+02  0.25143410462E+03  0.74487381511E+02  0.31183740498E+03  0.16500000000E+03 0.  0.
<mgrwt>
<rscale>  0 0.81765475E+03</rscale>
<asrwt>0</asrwt>
<pdfrwt beam="1">  1        2 0.11127900E+00 0.81765475E+03</pdfrwt>
<pdfrwt beam="2">  1       -2 0.35550033E-01 0.81765475E+03</pdfrwt>
<totfact> 0.29353946E+02</totfact>
</mgrwt>
</event>
<event>
 4    1  0.9050888E-005  0.7186001E+03  0.7818608E-02  0.9685942E-01
          2   -1    0    0  501    0  0.00000000000E+00  0.00000000000E+00  0.75645797298E+03  0.75645797298E+03  0.25500000000E-02 0.  1.
         -2   -1    0    0    0  501 -0.00000000000E+00 -0.00000000000E+00 -0.17065923318E+03  0.17065923320E+03  0.25500000000E-02 0. -1.
    5000001    1    1    2    0    0  0.98588278397E+02 -0.29965676856E+03  0.23025348567E+03  0.42397581917E+03  0.16500000000E+03 0.  0.
   -5000001    1    1    2    0    0 -0.98588278397E+02  0.29965676856E+03  0.35554525413E+03  0.50314138701E+03  0.16500000000E+03 0.  0.
<mgrwt>
<rscale>  0 0.71860013E+03</rscale>
<asrwt>0</asrwt>
<pdfrwt beam="1">  1        2 0.11637815E+00 0.71860013E+03</pdfrwt>
<pdfrwt beam="2">  1       -2 0.26255267E-01 0.71860013E+03</pdfrwt>
<totfact> 0.48905152E+02</totfact>
</mgrwt>
</event>
<event>
 4    1  0.9050888E-005  0.4684970E+03  0.7818608E-02  0.1022345E+00
          2   -1    0    0  501    0  0.00000000000E+00  0.00000000000E+00  0.28960274312E+03  0.28960274313E+03  0.25500000000E-02 0.  1.
         -2   -1    0    0    0  501 -0.00000000000E+00 -0.00000000000E+00 -0.18947458933E+03  0.18947458935E+03  0.25500000000E-02 0. -1.
    5000001    1    1    2    0    0  0.43169393104E+02  0.12522354552E+03 -0.52718684956E+02  0.21805685634E+03  0.16500000000E+03 0.  0.
   -5000001    1    1    2    0    0 -0.43169393104E+02 -0.12522354552E+03  0.15284683874E+03  0.26102047614E+03  0.16500000000E+03 0.  0.
<mgrwt>
<rscale>  0 0.46849700E+03</rscale>
<asrwt>0</asrwt>
<pdfrwt beam="1">  1        2 0.44554268E-01 0.46849700E+03</pdfrwt>
<pdfrwt beam="2">  1       -2 0.29149937E-01 0.46849700E+03</pdfrwt>
<totfact> 0.12329685E+03</totfact>
</mgrwt>
</event>
<event>
 4    1  0.9050888E-005  0.4253216E+03  0.7818608E-02  0.1035348E+00
          2   -1    0    0  501    0  0.00000000000E+00  0.00000000000E+00  0.62724782737E+03  0.62724782737E+03  0.25500000000E-02 0.  1.
         -2   -1    0    0    0  501 -0.00000000000E+00 -0.00000000000E+00 -0.72100060652E+02  0.72100060697E+02  0.25500000000E-02 0. -1.
    5000001    1    1    2    0    0 -0.13293643922E+03  0.44527752542E+01  0.30641600175E+03  0.37256904086E+03  0.16500000000E+03 0.  0.
   -5000001    1    1    2    0    0  0.13293643922E+03 -0.44527752542E+01  0.24873176497E+03  0.32677884721E+03  0.16500000000E+03 0.  0.
<mgrwt>
<rscale>  0 0.42532156E+03</rscale>
<asrwt>0</asrwt>
<pdfrwt beam="1">  1        2 0.96499663E-01 0.42532156E+03</pdfrwt>
<pdfrwt beam="2">  1       -2 0.11092317E-01 0.42532156E+03</pdfrwt>
<totfact> 0.27044414E+03</totfact>
</mgrwt>
</event>
<event>
 4    1  0.9050888E-005  0.7151503E+03  0.7818608E-02  0.9691668E-01
         -2   -1    0    0    0  501 -0.00000000000E+00  0.00000000000E+00  0.72087882997E+02  0.72087883042E+02  0.25500000000E-02 0. -1.
          2   -1    0    0  501    0  0.00000000000E+00 -0.00000000000E+00 -0.17736683469E+04  0.17736683469E+04  0.25500000000E-02 0.  1.
    5000001    1    1    2    0    0 -0.24657646615E+03  0.10784749684E+03 -0.41734717649E+03  0.52329217647E+03  0.16500000000E+03 0.  0.
   -5000001    1    1    2    0    0  0.24657646615E+03 -0.10784749684E+03 -0.12842332874E+04  0.13224640535E+04  0.16500000000E+03 0.  0.
<mgrwt>
<rscale>  0 0.71515032E+03</rscale>
<asrwt>0</asrwt>
<pdfrwt beam="1">  1        2 0.27287202E+00 0.71515032E+03</pdfrwt>
<pdfrwt beam="2">  1       -2 0.11090445E-01 0.71515032E+03</pdfrwt>
<totfact> 0.52769018E+02</totfact>
</mgrwt>
</event>
<event>
 4    1  0.9050888E-005  0.4970195E+03  0.7818608E-02  0.1014560E+00
          2   -1    0    0  501    0  0.00000000000E+00  0.00000000000E+00  0.62415796456E+03  0.62415796456E+03  0.25500000000E-02 0.  1.
         -2   -1    0    0    0  501 -0.00000000000E+00 -0.00000000000E+00 -0.98944655458E+02  0.98944655491E+02  0.25500000000E-02 0. -1.
    5000001    1    1    2    0    0 -0.52160753507E+02  0.17813809992E+03  0.24974369839E+03  0.35220852025E+03  0.16500000000E+03 0.  0.
   -5000001    1    1    2    0    0  0.52160753507E+02 -0.17813809992E+03  0.27546961071E+03  0.37089409981E+03  0.16500000000E+03 0.  0.
<mgrwt>
<rscale>  0 0.49701950E+03</rscale>
<asrwt>0</asrwt>
<pdfrwt beam="1">  1        2 0.96024304E-01 0.49701950E+03</pdfrwt>
<pdfrwt beam="2">  1       -2 0.15222254E-01 0.49701950E+03</pdfrwt>
<totfact> 0.16149934E+03</totfact>
</mgrwt>
</event>
<event>
 4    1  0.9050888E-005  0.6542513E+03  0.7818608E-02  0.9798835E-01
         -2   -1    0    0    0  501 -0.00000000000E+00  0.00000000000E+00  0.12050053158E+04  0.12050053158E+04  0.25500000000E-02 0. -1.
          2   -1    0    0  501    0  0.00000000000E+00 -0.00000000000E+00 -0.88805567926E+02  0.88805567962E+02  0.25500000000E-02 0.  1.
    5000001    1    1    2    0    0  0.77864415662E+02  0.18279508964E+03  0.95513477843E+03  0.98943638350E+03  0.16500000000E+03 0.  0.
   -5000001    1    1    2    0    0 -0.77864415662E+02 -0.18279508964E+03  0.16106496941E+03  0.30437450023E+03  0.16500000000E+03 0.  0.
<mgrwt>
<rscale>  0 0.65425127E+03</rscale>
<asrwt>0</asrwt>
<pdfrwt beam="1">  1        2 0.13662395E-01 0.65425127E+03</pdfrwt>
<pdfrwt beam="2">  1       -2 0.18538544E+00 0.65425127E+03</pdfrwt>
<totfact> 0.76381077E+01</totfact>
</mgrwt>
</event>
<event>
 4    1  0.9050888E-005  0.4167306E+03  0.7818608E-02  0.1038136E+00
          2   -1    0    0  501    0  0.00000000000E+00  0.00000000000E+00  0.35245668936E+03  0.35245668937E+03  0.25500000000E-02 0.  1.
         -2   -1    0    0    0  501 -0.00000000000E+00 -0.00000000000E+00 -0.12318140046E+03  0.12318140048E+03  0.25500000000E-02 0. -1.
    5000001    1    1    2    0    0 -0.61017997993E+02  0.11083009201E+03  0.13014511026E+03  0.24529422149E+03  0.16500000000E+03 0.  0.
   -5000001    1    1    2    0    0  0.61017997993E+02 -0.11083009201E+03  0.99130178648E+02  0.23034386836E+03  0.16500000000E+03 0.  0.
<mgrwt>
<rscale>  0 0.41673065E+03</rscale>
<asrwt>0</asrwt>
<pdfrwt beam="1">  1        2 0.54224106E-01 0.41673065E+03</pdfrwt>
<pdfrwt beam="2">  1       -2 0.18950985E-01 0.41673065E+03</pdfrwt>
<totfact> 0.21291251E+03</totfact>
</mgrwt>
</event>
<event>
 4    1  0.9050888E-005  0.3724602E+03  0.7818608E-02  0.1053756E+00
         -2   -1    0    0    0  501 -0.00000000000E+00  0.00000000000E+00  0.84701315818E+02  0.84701315856E+02  0.25500000000E-02 0. -1.
          2   -1    0    0  501    0  0.00000000000E+00 -0.00000000000E+00 -0.40945817235E+03  0.40945817235E+03  0.25500000000E-02 0.  1.
    5000001    1    1    2    0    0  0.89284806850E+01  0.75232618861E+02 -0.21735404014E+03  0.28320918678E+03  0.16500000000E+03 0.  0.
   -5000001    1    1    2    0    0 -0.89284806850E+01 -0.75232618861E+02 -0.10740281639E+03  0.21095030144E+03  0.16500000000E+03 0.  0.
<mgrwt>
<rscale>  0 0.37246018E+03</rscale>
<asrwt>0</asrwt>
<pdfrwt beam="1">  1        2 0.62993564E-01 0.37246018E+03</pdfrwt>
<pdfrwt beam="2">  1       -2 0.13030972E-01 0.37246018E+03</pdfrwt>
<totfact> 0.33782361E+03</totfact>
</mgrwt>
</event>
<event>
 4    1  0.9050888E-005  0.7478744E+03  0.7818608E-02  0.9638691E-01
          2   -1    0    0  501    0  0.00000000000E+00  0.00000000000E+00  0.18215660107E+04  0.18215660107E+04  0.25500000000E-02 0.  1.
         -2   -1    0    0    0  501 -0.00000000000E+00 -0.00000000000E+00 -0.76763081313E+02  0.76763081355E+02  0.25500000000E-02 0. -1.
    5000001    1    1    2    0    0 -0.29060630347E+03 -0.38285540345E+02  0.12870559144E+04  0.13302840798E+04  0.16500000000E+03 0.  0.
   -5000001    1    1    2    0    0  0.29060630347E+03  0.38285540345E+02  0.45774701503E+03  0.56804501229E+03  0.16500000000E+03 0.  0.
<mgrwt>
<rscale>  0 0.74787437E+03</rscale>
<asrwt>0</asrwt>
<pdfrwt beam="1">  1        2 0.28024093E+00 0.74787437E+03</pdfrwt>
<pdfrwt beam="2">  1       -2 0.11809705E-01 0.74787437E+03</pdfrwt>
<totfact> 0.44712777E+02</totfact>
</mgrwt>
</event>
<event>
 4    1  0.9050888E-005  0.5146295E+03  0.7818608E-02  0.1010029E+00
          2   -1    0    0  501    0  0.00000000000E+00  0.00000000000E+00  0.19997704684E+04  0.19997704684E+04  0.25500000000E-02 0.  1.
         -2   -1    0    0    0  501 -0.00000000000E+00 -0.00000000000E+00 -0.33109244942E+02  0.33109245040E+02  0.25500000000E-02 0. -1.
    5000001    1    1    2    0    0  0.17447114967E+03  0.69923220008E+02  0.12221925142E+04  0.12475211343E+04  0.16500000000E+03 0.  0.
   -5000001    1    1    2    0    0 -0.17447114967E+03 -0.69923220008E+02  0.74446870928E+03  0.78535857916E+03  0.16500000000E+03 0.  0.
<mgrwt>
<rscale>  0 0.51462954E+03</rscale>
<asrwt>0</asrwt>
<pdfrwt beam="1">  1        2 0.30765708E+00 0.51462954E+03</pdfrwt>
<pdfrwt beam="2">  1       -2 0.50937286E-02 0.51462954E+03</pdfrwt>
<totfact> 0.13893849E+03</totfact>
</mgrwt>
</event>
<event>
 4    1  0.9050888E-005  0.4771906E+03  0.7818608E-02  0.1019910E+00
         -2   -1    0    0    0  501 -0.00000000000E+00  0.00000000000E+00  0.16138050214E+03  0.16138050216E+03  0.25500000000E-02 0. -1.
          2   -1    0    0  501    0  0.00000000000E+00 -0.00000000000E+00 -0.35275468143E+03  0.35275468144E+03  0.25500000000E-02 0.  1.
    5000001    1    1    2    0    0  0.35955563666E+02 -0.16564227360E+03 -0.12928746373E+03  0.26957450481E+03  0.16500000000E+03 0.  0.
   -5000001    1    1    2    0    0 -0.35955563666E+02  0.16564227360E+03 -0.62086715551E+02  0.24456067879E+03  0.16500000000E+03 0.  0.
<mgrwt>
<rscale>  0 0.47719064E+03</rscale>
<asrwt>0</asrwt>
<pdfrwt beam="1">  1        2 0.54269951E-01 0.47719064E+03</pdfrwt>
<pdfrwt beam="2">  1       -2 0.24827770E-01 0.47719064E+03</pdfrwt>
<totfact> 0.13270984E+03</totfact>
</mgrwt>
</event>
<event>
 4    1  0.9050888E-005  0.6063825E+03  0.7818608E-02  0.9892252E-01
         -2   -1    0    0    0  501 -0.00000000000E+00  0.00000000000E+00  0.13739826574E+03  0.13739826576E+03  0.25500000000E-02 0. -1.
          2   -1    0    0  501    0  0.00000000000E+00 -0.00000000000E+00 -0.66903995337E+03  0.66903995337E+03  0.25500000000E-02 0.  1.
    5000001    1    1    2    0    0  0.24684680775E+03  0.61265022540E+02 -0.27064897824E+03  0.40640204097E+03  0.16500000000E+03 0.  0.
   -5000001    1    1    2    0    0 -0.24684680775E+03 -0.61265022540E+02 -0.26099270939E+03  0.40003617816E+03  0.16500000000E+03 0.  0.
<mgrwt>
<rscale>  0 0.60638248E+03</rscale>
<asrwt>0</asrwt>
<pdfrwt beam="1">  1        2 0.10292922E+00 0.60638248E+03</pdfrwt>
<pdfrwt beam="2">  1       -2 0.21138195E-01 0.60638248E+03</pdfrwt>
<totfact> 0.84365975E+02</totfact>
</mgrwt>
</event>
<event>
 4    1  0.9050888E-005  0.5619108E+03  0.7818608E-02  0.9987740E-01
          2   -1    0    0  501    0  0.00000000000E+00  0.00000000000E+00  0.35531048662E+02  0.35531048753E+02  0.25500000000E-02 0.  1.
         -2   -1    0    0    0  501 -0.00000000000E+00 -0.00000000000E+00 -0.22216043297E+04  0.22216043297E+04  0.25500000000E-02 0. -1.
    5000001    1    1    2    0    0 -0.17369138687E+03  0.12241728016E+03 -0.14182869912E+04  0.14435780816E+04  0.16500000000E+03 0.  0.
   -5000001    1    1    2    0    0  0.17369138687E+03 -0.12241728016E+03 -0.76778628991E+03  0.81355729689E+03  0.16500000000E+03 0.  0.
<mgrwt>
<rscale>  0 0.56191078E+03</rscale>
<asrwt>0</asrwt>
<pdfrwt beam="1">  1        2 0.54663169E-02 0.56191078E+03</pdfrwt>
<pdfrwt beam="2">  1       -2 0.34178517E+00 0.56191078E+03</pdfrwt>
<totfact> 0.27627521E+01</totfact>
</mgrwt>
</event>
<event>
 4    1  0.9050888E-005  0.4020905E+03  0.7818608E-02  0.1043058E+00
          2   -1    0    0  501    0  0.00000000000E+00  0.00000000000E+00  0.28725527038E+03  0.28725527039E+03  0.25500000000E-02 0.  1.
         -2   -1    0    0    0  501 -0.00000000000E+00 -0.00000000000E+00 -0.14070825474E+03  0.14070825477E+03  0.25500000000E-02 0. -1.
    5000001    1    1    2    0    0 -0.61064151290E+02  0.51143560529E+02 -0.14814854528E+02  0.18381777463E+03  0.16500000000E+03 0.  0.
   -5000001    1    1    2    0    0  0.61064151290E+02 -0.51143560529E+02  0.16136187016E+03  0.24414575052E+03  0.16500000000E+03 0.  0.
<mgrwt>
<rscale>  0 0.40209048E+03</rscale>
<asrwt>0</asrwt>
<pdfrwt beam="1">  1        2 0.44193118E-01 0.40209048E+03</pdfrwt>
<pdfrwt beam="2">  1       -2 0.21647424E-01 0.40209048E+03</pdfrwt>
<totfact> 0.21139358E+03</totfact>
</mgrwt>
</event>
<event>
 4    1  0.9050888E-005  0.6825001E+03  0.7818608E-02  0.9747636E-01
          2   -1    0    0  501    0  0.00000000000E+00  0.00000000000E+00  0.13540438654E+04  0.13540438654E+04  0.25500000000E-02 0.  1.
         -2   -1    0    0    0  501 -0.00000000000E+00 -0.00000000000E+00 -0.86002832316E+02  0.86002832354E+02  0.25500000000E-02 0. -1.
    5000001    1    1    2    0    0 -0.29520139126E+03 -0.14409068951E+02  0.54265360771E+03  0.63956971522E+03  0.16500000000E+03 0.  0.
   -5000001    1    1    2    0    0  0.29520139126E+03  0.14409068951E+02  0.72538742537E+03  0.80047698253E+03  0.16500000000E+03 0.  0.
<mgrwt>
<rscale>  0 0.68250013E+03</rscale>
<asrwt>0</asrwt>
<pdfrwt beam="1">  1        2 0.20831444E+00 0.68250013E+03</pdfrwt>
<pdfrwt beam="2">  1       -2 0.13231205E-01 0.68250013E+03</pdfrwt>
<totfact> 0.67386605E+02</totfact>
</mgrwt>
</event>
<event>
 4    1  0.9050888E-005  0.7136397E+03  0.7818608E-02  0.9694187E-01
          2   -1    0    0  501    0  0.00000000000E+00  0.00000000000E+00  0.34571143729E+03  0.34571143730E+03  0.25500000000E-02 0.  1.
         -2   -1    0    0    0  501 -0.00000000000E+00 -0.00000000000E+00 -0.36828517971E+03  0.36828517972E+03  0.25500000000E-02 0. -1.
    5000001    1    1    2    0    0 -0.20291415398E+03 -0.11192573275E+03 -0.22678697742E+03  0.36381156752E+03  0.16500000000E+03 0.  0.
   -5000001    1    1    2    0    0  0.20291415398E+03  0.11192573275E+03  0.20421323499E+03  0.35018504949E+03  0.16500000000E+03 0.  0.
<mgrwt>
<rscale>  0 0.71363968E+03</rscale>
<asrwt>0</asrwt>
<pdfrwt beam="1">  1        2 0.53186375E-01 0.71363968E+03</pdfrwt>
<pdfrwt beam="2">  1       -2 0.56659259E-01 0.71363968E+03</pdfrwt>
<totfact> 0.27635686E+02</totfact>
</mgrwt>
</event>
<event>
 4    1  0.9050888E-005  0.4333609E+03  0.7818608E-02  0.1032804E+00
         -2   -1    0    0    0  501 -0.00000000000E+00  0.00000000000E+00  0.12577860105E+03  0.12577860108E+03  0.25500000000E-02 0. -1.
          2   -1    0    0  501    0  0.00000000000E+00 -0.00000000000E+00 -0.37327818083E+03  0.37327818084E+03  0.25500000000E-02 0.  1.
    5000001    1    1    2    0    0 -0.89726299429E+02 -0.10455163400E+03 -0.92347836684E+02  0.23395507244E+03  0.16500000000E+03 0.  0.
   -5000001    1    1    2    0    0  0.89726299429E+02  0.10455163400E+03 -0.15515174310E+03  0.26510170948E+03  0.16500000000E+03 0.  0.
<mgrwt>
<rscale>  0 0.43336085E+03</rscale>
<asrwt>0</asrwt>
<pdfrwt beam="1">  1        2 0.57427412E-01 0.43336085E+03</pdfrwt>
<pdfrwt beam="2">  1       -2 0.19350554E-01 0.43336085E+03</pdfrwt>
<totfact> 0.19292171E+03</totfact>
</mgrwt>
</event>
<event>
 4    1  0.9050888E-005  0.9647186E+03  0.7818608E-02  0.9348110E-01
          2   -1    0    0  501    0  0.00000000000E+00  0.00000000000E+00  0.23741103578E+04  0.23741103578E+04  0.25500000000E-02 0.  1.
         -2   -1    0    0    0  501 -0.00000000000E+00 -0.00000000000E+00 -0.98003241340E+02  0.98003241373E+02  0.25500000000E-02 0. -1.
    5000001    1    1    2    0    0 -0.39245470470E+01 -0.42955269731E+03  0.76746464755E+03  0.89485077364E+03  0.16500000000E+03 0.  0.
   -5000001    1    1    2    0    0  0.39245470470E+01  0.42955269731E+03  0.15086424689E+04  0.15772628255E+04  0.16500000000E+03 0.  0.
<mgrwt>
<rscale>  0 0.96471863E+03</rscale>
<asrwt>0</asrwt>
<pdfrwt beam="1">  1        2 0.36524776E+00 0.96471863E+03</pdfrwt>
<pdfrwt beam="2">  1       -2 0.15077421E-01 0.96471863E+03</pdfrwt>
<totfact> 0.14483268E+02</totfact>
</mgrwt>
</event>
<event>
 4    1  0.9050888E-005  0.6383238E+03  0.7818608E-02  0.9828939E-01
         -2   -1    0    0    0  501 -0.00000000000E+00  0.00000000000E+00  0.40502046312E+02  0.40502046392E+02  0.25500000000E-02 0. -1.
          2   -1    0    0  501    0  0.00000000000E+00 -0.00000000000E+00 -0.25150413034E+04  0.25150413034E+04  0.25500000000E-02 0.  1.
    5000001    1    1    2    0    0  0.98206117765E+02  0.20142831016E+03 -0.61162387306E+03  0.67195726635E+03  0.16500000000E+03 0.  0.
   -5000001    1    1    2    0    0 -0.98206117765E+02 -0.20142831016E+03 -0.18629153840E+04  0.18835860834E+04  0.16500000000E+03 0.  0.
<mgrwt>
<rscale>  0 0.63832380E+03</rscale>
<asrwt>0</asrwt>
<pdfrwt beam="1">  1        2 0.38692931E+00 0.63832380E+03</pdfrwt>
<pdfrwt beam="2">  1       -2 0.62310860E-02 0.63832380E+03</pdfrwt>
<totfact> 0.52342285E+02</totfact>
</mgrwt>
</event>
<event>
 4    1  0.9050888E-005  0.8175950E+03  0.7818608E-02  0.9534893E-01
         -2   -1    0    0    0  501 -0.00000000000E+00  0.00000000000E+00  0.11208236215E+03  0.11208236218E+03  0.25500000000E-02 0. -1.
          2   -1    0    0  501    0  0.00000000000E+00 -0.00000000000E+00 -0.14910051410E+04  0.14910051410E+04  0.25500000000E-02 0.  1.
    5000001    1    1    2    0    0  0.23713278867E+03 -0.22880163406E+03 -0.34252625012E+03  0.50312163463E+03  0.16500000000E+03 0.  0.
   -5000001    1    1    2    0    0 -0.23713278867E+03  0.22880163406E+03 -0.10363965287E+04  0.10999658685E+04  0.16500000000E+03 0.  0.
<mgrwt>
<rscale>  0 0.81759496E+03</rscale>
<asrwt>0</asrwt>
<pdfrwt beam="1">  1        2 0.22938539E+00 0.81759496E+03</pdfrwt>
<pdfrwt beam="2">  1       -2 0.17243441E-01 0.81759496E+03</pdfrwt>
<totfact> 0.35774640E+02</totfact>
</mgrwt>
</event>
<event>
 4    1  0.9050888E-005  0.4039778E+03  0.7818608E-02  0.1042411E+00
          2   -1    0    0  501    0  0.00000000000E+00  0.00000000000E+00  0.30998003782E+04  0.30998003782E+04  0.25500000000E-02 0.  1.
         -2   -1    0    0    0  501 -0.00000000000E+00 -0.00000000000E+00 -0.13161980036E+02  0.13161980283E+02  0.25500000000E-02 0. -1.
    5000001    1    1    2    0    0  0.80156006557E+02  0.83255775722E+02  0.14295443843E+04  0.14436684717E+04  0.16500000000E+03 0.  0.
   -5000001    1    1    2    0    0 -0.80156006557E+02 -0.83255775722E+02  0.16570940139E+04  0.16692938868E+04  0.16500000000E+03 0.  0.
<mgrwt>
<rscale>  0 0.40397778E+03</rscale>
<asrwt>0</asrwt>
<pdfrwt beam="1">  1        2 0.47689210E+00 0.40397778E+03</pdfrwt>
<pdfrwt beam="2">  1       -2 0.20249211E-02 0.40397778E+03</pdfrwt>
<totfact> 0.13530452E+03</totfact>
</mgrwt>
</event>
<event>
 4    1  0.9050888E-005  0.5035054E+03  0.7818608E-02  0.1012868E+00
          2   -1    0    0  501    0  0.00000000000E+00  0.00000000000E+00  0.78157626611E+03  0.78157626612E+03  0.25500000000E-02 0.  1.
         -2   -1    0    0    0  501 -0.00000000000E+00 -0.00000000000E+00 -0.81091802127E+02  0.81091802167E+02  0.25500000000E-02 0. -1.
    5000001    1    1    2    0    0 -0.15392495549E+03  0.74600133833E+02  0.49252405053E+03  0.54686653970E+03  0.16500000000E+03 0.  0.
   -5000001    1    1    2    0    0  0.15392495549E+03 -0.74600133833E+02  0.20796041346E+03  0.31580152858E+03  0.16500000000E+03 0.  0.
<mgrwt>
<rscale>  0 0.50350542E+03</rscale>
<asrwt>0</asrwt>
<pdfrwt beam="1">  1        2 0.12024250E+00 0.50350542E+03</pdfrwt>
<pdfrwt beam="2">  1       -2 0.12475662E-01 0.50350542E+03</pdfrwt>
<totfact> 0.16991888E+03</totfact>
</mgrwt>
</event>
<event>
 4    1  0.9050888E-005  0.7696527E+03  0.7818608E-02  0.9605013E-01
         -2   -1    0    0    0  501 -0.00000000000E+00  0.00000000000E+00  0.25963543254E+03  0.25963543255E+03  0.25500000000E-02 0. -1.
          2   -1    0    0  501    0  0.00000000000E+00 -0.00000000000E+00 -0.57038173460E+03  0.57038173460E+03  0.25500000000E-02 0.  1.
    5000001    1    1    2    0    0 -0.31973368059E+03 -0.95166331806E+02 -0.49818783338E+02  0.37549057030E+03  0.16500000000E+03 0.  0.
   -5000001    1    1    2    0    0  0.31973368059E+03  0.95166331806E+02 -0.26092751872E+03  0.45452659685E+03  0.16500000000E+03 0.  0.
<mgrwt>
<rscale>  0 0.76965267E+03</rscale>
<asrwt>0</asrwt>
<pdfrwt beam="1">  1        2 0.87751036E-01 0.76965267E+03</pdfrwt>
<pdfrwt beam="2">  1       -2 0.39943913E-01 0.76965267E+03</pdfrwt>
<totfact> 0.31473213E+02</totfact>
</mgrwt>
</event>
<event>
 4    1  0.9050888E-005  0.4257450E+03  0.7818608E-02  0.1035213E+00
         -2   -1    0    0    0  501 -0.00000000000E+00  0.00000000000E+00  0.12212233171E+03  0.12212233173E+03  0.25500000000E-02 0. -1.
          2   -1    0    0  501    0  0.00000000000E+00 -0.00000000000E+00 -0.37105987256E+03  0.37105987257E+03  0.25500000000E-02 0.  1.
    5000001    1    1    2    0    0  0.73431093290E+02 -0.10261441578E+03 -0.70533509619E+02  0.21936686114E+03  0.16500000000E+03 0.  0.
   -5000001    1    1    2    0    0 -0.73431093290E+02  0.10261441578E+03 -0.17840403124E+03  0.27381534316E+03  0.16500000000E+03 0.  0.
<mgrwt>
<rscale>  0 0.42574498E+03</rscale>
<asrwt>0</asrwt>
<pdfrwt beam="1">  1        2 0.57086134E-01 0.42574498E+03</pdfrwt>
<pdfrwt beam="2">  1       -2 0.18788051E-01 0.42574498E+03</pdfrwt>
<totfact> 0.20426058E+03</totfact>
</mgrwt>
</event>
<event>
 4    1  0.9050888E-005  0.6798300E+03  0.7818608E-02  0.9752361E-01
          2   -1    0    0  501    0  0.00000000000E+00  0.00000000000E+00  0.73125174605E+03  0.73125174605E+03  0.25500000000E-02 0.  1.
         -2   -1    0    0    0  501 -0.00000000000E+00 -0.00000000000E+00 -0.15800604392E+03  0.15800604394E+03  0.25500000000E-02 0. -1.
    5000001    1    1    2    0    0 -0.15036403728E+03  0.24820726800E+03  0.37038975557E+03  0.49862787991E+03  0.16500000000E+03 0.  0.
   -5000001    1    1    2    0    0  0.15036403728E+03 -0.24820726800E+03  0.20285594656E+03  0.39062991008E+03  0.16500000000E+03 0.  0.
<mgrwt>
<rscale>  0 0.67982997E+03</rscale>
<asrwt>0</asrwt>
<pdfrwt beam="1">  1        2 0.11250027E+00 0.67982997E+03</pdfrwt>
<pdfrwt beam="2">  1       -2 0.24308622E-01 0.67982997E+03</pdfrwt>
<totfact> 0.58772675E+02</totfact>
</mgrwt>
</event>
<event>
 4    1  0.9050888E-005  0.3735105E+03  0.7818608E-02  0.1053359E+00
         -2   -1    0    0    0  501 -0.00000000000E+00  0.00000000000E+00  0.51268474770E+02  0.51268474834E+02  0.25500000000E-02 0. -1.
          2   -1    0    0  501    0  0.00000000000E+00 -0.00000000000E+00 -0.68029169505E+03  0.68029169506E+03  0.25500000000E-02 0.  1.
    5000001    1    1    2    0    0 -0.66726168620E+02  0.40475536598E+02 -0.23710656010E+03  0.29922428291E+03  0.16500000000E+03 0.  0.
   -5000001    1    1    2    0    0  0.66726168620E+02 -0.40475536598E+02 -0.39191666018E+03  0.43233588698E+03  0.16500000000E+03 0.  0.
<mgrwt>
<rscale>  0 0.37351047E+03</rscale>
<asrwt>0</asrwt>
<pdfrwt beam="1">  1        2 0.10466025E+00 0.37351047E+03</pdfrwt>
<pdfrwt beam="2">  1       -2 0.78874582E-02 0.37351047E+03</pdfrwt>
<totfact> 0.42200684E+03</totfact>
</mgrwt>
</event>
<event>
 4    1  0.9050888E-005  0.6213383E+03  0.7818608E-02  0.9862099E-01
         -2   -1    0    0    0  501 -0.00000000000E+00  0.00000000000E+00  0.15950445115E+03  0.15950445117E+03  0.25500000000E-02 0. -1.
          2   -1    0    0  501    0  0.00000000000E+00 -0.00000000000E+00 -0.60509490935E+03  0.60509490936E+03  0.25500000000E-02 0.  1.
    5000001    1    1    2    0    0  0.59651579107E+02  0.10829010286E+03 -0.50876746382E+03  0.54895754801E+03  0.16500000000E+03 0.  0.
   -5000001    1    1    2    0    0 -0.59651579107E+02 -0.10829010286E+03  0.63177005623E+02  0.21564181252E+03  0.16500000000E+03 0.  0.
<mgrwt>
<rscale>  0 0.62133833E+03</rscale>
<asrwt>0</asrwt>
<pdfrwt beam="1">  1        2 0.93091524E-01 0.62133833E+03</pdfrwt>
<pdfrwt beam="2">  1       -2 0.24539147E-01 0.62133833E+03</pdfrwt>
<totfact> 0.73156320E+02</totfact>
</mgrwt>
</event>
<event>
 4    1  0.9050888E-005  0.5707869E+03  0.7818608E-02  0.9967939E-01
         -2   -1    0    0    0  501 -0.00000000000E+00  0.00000000000E+00  0.61724417766E+03  0.61724417767E+03  0.25500000000E-02 0. -1.
          2   -1    0    0  501    0  0.00000000000E+00 -0.00000000000E+00 -0.13195658422E+03  0.13195658425E+03  0.25500000000E-02 0.  1.
    5000001    1    1    2    0    0  0.77413239838E+02  0.21510850764E+03  0.30075328787E+03  0.41224024540E+03  0.16500000000E+03 0.  0.
   -5000001    1    1    2    0    0 -0.77413239838E+02 -0.21510850764E+03  0.18453430557E+03  0.33696051652E+03  0.16500000000E+03 0.  0.
<mgrwt>
<rscale>  0 0.57078694E+03</rscale>
<asrwt>0</asrwt>
<pdfrwt beam="1">  1        2 0.20301013E-01 0.57078694E+03</pdfrwt>
<pdfrwt beam="2">  1       -2 0.94960644E-01 0.57078694E+03</pdfrwt>
<totfact> 0.26357304E+02</totfact>
</mgrwt>
</event>
<event>
 4    1  0.9050888E-005  0.6064735E+03  0.7818608E-02  0.9892066E-01
          2   -1    0    0  501    0  0.00000000000E+00  0.00000000000E+00  0.36390807843E+03  0.36390807844E+03  0.25500000000E-02 0.  1.
         -2   -1    0    0    0  501 -0.00000000000E+00 -0.00000000000E+00 -0.25268063724E+03  0.25268063726E+03  0.25500000000E-02 0. -1.
    5000001    1    1    2    0    0 -0.17141957086E+03 -0.15752094514E+03  0.15994105031E+03  0.32711413452E+03  0.16500000000E+03 0.  0.
   -5000001    1    1    2    0    0  0.17141957086E+03  0.15752094514E+03 -0.48713609117E+02  0.28947458117E+03  0.16500000000E+03 0.  0.
<mgrwt>
<rscale>  0 0.60647350E+03</rscale>
<asrwt>0</asrwt>
<pdfrwt beam="1">  1        2 0.55985858E-01 0.60647350E+03</pdfrwt>
<pdfrwt beam="2">  1       -2 0.38873944E-01 0.60647350E+03</pdfrwt>
<totfact> 0.55732045E+02</totfact>
</mgrwt>
</event>
<event>
 4    1  0.9050888E-005  0.3974592E+03  0.7818608E-02  0.1044663E+00
          2   -1    0    0  501    0  0.00000000000E+00  0.00000000000E+00  0.62530464120E+03  0.62530464120E+03  0.25500000000E-02 0.  1.
         -2   -1    0    0    0  501 -0.00000000000E+00 -0.00000000000E+00 -0.63158756492E+02  0.63158756544E+02  0.25500000000E-02 0. -1.
    5000001    1    1    2    0    0 -0.16062542915E+02 -0.59131304062E+02  0.12124462605E+03  0.21372827551E+03  0.16500000000E+03 0.  0.
   -5000001    1    1    2    0    0  0.16062542915E+02  0.59131304062E+02  0.44090125865E+03  0.47473512224E+03  0.16500000000E+03 0.  0.
<mgrwt>
<rscale>  0 0.39745925E+03</rscale>
<asrwt>0</asrwt>
<pdfrwt beam="1">  1        2 0.96200714E-01 0.39745925E+03</pdfrwt>
<pdfrwt beam="2">  1       -2 0.97167317E-02 0.39745925E+03</pdfrwt>
<totfact> 0.33576871E+03</totfact>
</mgrwt>
</event>
<event>
 4    1  0.9050888E-005  0.1482470E+04  0.7818608E-02  0.8896195E-01
          2   -1    0    0  501    0  0.00000000000E+00  0.00000000000E+00  0.14399066686E+04  0.14399066686E+04  0.25500000000E-02 0.  1.
         -2   -1    0    0    0  501 -0.00000000000E+00 -0.00000000000E+00 -0.38157281086E+03  0.38157281087E+03  0.25500000000E-02 0. -1.
    5000001    1    1    2    0    0  0.60024697041E+03  0.40199284789E+03  0.55078468397E+03  0.92330029965E+03  0.16500000000E+03 0.  0.
   -5000001    1    1    2    0    0 -0.60024697041E+03 -0.40199284789E+03  0.50754917375E+03  0.89817917980E+03  0.16500000000E+03 0.  0.
<mgrwt>
<rscale>  0 0.14824699E+04</rscale>
<asrwt>0</asrwt>
<pdfrwt beam="1">  1        2 0.22152410E+00 0.14824699E+04</pdfrwt>
<pdfrwt beam="2">  1       -2 0.58703509E-01 0.14824699E+04</pdfrwt>
<totfact> 0.36024224E+01</totfact>
</mgrwt>
</event>
<event>
 4    1  0.9050888E-005  0.5155148E+03  0.7818608E-02  0.1009807E+00
         -2   -1    0    0    0  501 -0.00000000000E+00  0.00000000000E+00  0.70349220661E+03  0.70349220661E+03  0.25500000000E-02 0. -1.
          2   -1    0    0  501    0  0.00000000000E+00 -0.00000000000E+00 -0.94441515061E+02  0.94441515095E+02  0.25500000000E-02 0.  1.
    5000001    1    1    2    0    0  0.14872490471E+03 -0.51755176292E+02  0.11868041582E+03  0.25711424825E+03  0.16500000000E+03 0.  0.
   -5000001    1    1    2    0    0 -0.14872490471E+03  0.51755176292E+02  0.49037027572E+03  0.54081947346E+03  0.16500000000E+03 0.  0.
<mgrwt>
<rscale>  0 0.51551477E+03</rscale>
<asrwt>0</asrwt>
<pdfrwt beam="1">  1        2 0.14529464E-01 0.51551477E+03</pdfrwt>
<pdfrwt beam="2">  1       -2 0.10822957E+00 0.51551477E+03</pdfrwt>
<totfact> 0.28848522E+02</totfact>
</mgrwt>
</event>
<event>
 4    1  0.9050888E-005  0.7815853E+03  0.7818608E-02  0.9587061E-01
         -2   -1    0    0    0  501 -0.00000000000E+00  0.00000000000E+00  0.65423416263E+03  0.65423416263E+03  0.25500000000E-02 0. -1.
          2   -1    0    0  501    0  0.00000000000E+00 -0.00000000000E+00 -0.23343152612E+03  0.23343152613E+03  0.25500000000E-02 0.  1.
    5000001    1    1    2    0    0 -0.51771544806E+02  0.20619136660E+03 -0.11142929186E+03  0.29126733356E+03  0.16500000000E+03 0.  0.
   -5000001    1    1    2    0    0  0.51771544806E+02 -0.20619136660E+03  0.53223192837E+03  0.59639835520E+03  0.16500000000E+03 0.  0.
<mgrwt>
<rscale>  0 0.78158526E+03</rscale>
<asrwt>0</asrwt>
<pdfrwt beam="1">  1        2 0.35912542E-01 0.78158526E+03</pdfrwt>
<pdfrwt beam="2">  1       -2 0.10065141E+00 0.78158526E+03</pdfrwt>
<totfact> 0.11912579E+02</totfact>
</mgrwt>
</event>
<event>
 4    1  0.9050888E-005  0.6000123E+03  0.7818608E-02  0.9905381E-01
         -2   -1    0    0    0  501 -0.00000000000E+00  0.00000000000E+00  0.19250942737E+02  0.19250942906E+02  0.25500000000E-02 0. -1.
          2   -1    0    0  501    0  0.00000000000E+00 -0.00000000000E+00 -0.46752872838E+04  0.46752872838E+04  0.25500000000E-02 0.  1.
    5000001    1    1    2    0    0  0.12942665976E+03  0.12266150513E+03 -0.37051785941E+04  0.37131348642E+04  0.16500000000E+03 0.  0.
   -5000001    1    1    2    0    0 -0.12942665976E+03 -0.12266150513E+03 -0.95085774692E+03  0.98140336252E+03  0.16500000000E+03 0.  0.
<mgrwt>
<rscale>  0 0.60001229E+03</rscale>
<asrwt>0</asrwt>
<pdfrwt beam="1">  1        2 0.71927406E+00 0.60001229E+03</pdfrwt>
<pdfrwt beam="2">  1       -2 0.29616872E-02 0.60001229E+03</pdfrwt>
<totfact> 0.44511462E+01</totfact>
</mgrwt>
</event>
<event>
 4    1  0.9050888E-005  0.5201300E+03  0.7818608E-02  0.1008654E+00
         -2   -1    0    0    0  501 -0.00000000000E+00  0.00000000000E+00  0.55233705366E+02  0.55233705425E+02  0.25500000000E-02 0. -1.
          2   -1    0    0  501    0  0.00000000000E+00 -0.00000000000E+00 -0.12245025139E+04  0.12245025139E+04  0.25500000000E-02 0.  1.
    5000001    1    1    2    0    0  0.10879616191E+03  0.16055304089E+03 -0.71470939267E+03  0.75871496608E+03  0.16500000000E+03 0.  0.
   -5000001    1    1    2    0    0 -0.10879616191E+03 -0.16055304089E+03 -0.45455941587E+03  0.52102125326E+03  0.16500000000E+03 0.  0.
<mgrwt>
<rscale>  0 0.52013003E+03</rscale>
<asrwt>0</asrwt>
<pdfrwt beam="1">  1        2 0.18838498E+00 0.52013003E+03</pdfrwt>
<pdfrwt beam="2">  1       -2 0.84974941E-02 0.52013003E+03</pdfrwt>
<totfact> 0.16556385E+03</totfact>
</mgrwt>
</event>
<event>
 4    1  0.9050888E-005  0.4931956E+03  0.7818608E-02  0.1015570E+00
         -2   -1    0    0    0  501 -0.00000000000E+00  0.00000000000E+00  0.54117062586E+02  0.54117062646E+02  0.25500000000E-02 0. -1.
          2   -1    0    0  501    0  0.00000000000E+00 -0.00000000000E+00 -0.11236838579E+04  0.11236838579E+04  0.25500000000E-02 0.  1.
    5000001    1    1    2    0    0  0.26271718822E+02  0.16304840660E+03 -0.72449069458E+03  0.76117458749E+03  0.16500000000E+03 0.  0.
   -5000001    1    1    2    0    0 -0.26271718822E+02 -0.16304840660E+03 -0.34507610076E+03  0.41662633309E+03  0.16500000000E+03 0.  0.
<mgrwt>
<rscale>  0 0.49319558E+03</rscale>
<asrwt>0</asrwt>
<pdfrwt beam="1">  1        2 0.17287442E+00 0.49319558E+03</pdfrwt>
<pdfrwt beam="2">  1       -2 0.83257028E-02 0.49319558E+03</pdfrwt>
<totfact> 0.19617127E+03</totfact>
</mgrwt>
</event>
<event>
 4    1  0.9050888E-005  0.4410996E+03  0.7818608E-02  0.1030410E+00
         -2   -1    0    0    0  501 -0.00000000000E+00  0.00000000000E+00  0.37315203757E+02  0.37315203844E+02  0.25500000000E-02 0. -1.
          2   -1    0    0  501    0  0.00000000000E+00 -0.00000000000E+00 -0.13035493832E+04  0.13035493832E+04  0.25500000000E-02 0.  1.
    5000001    1    1    2    0    0  0.43766331584E+02  0.59257820135E+02 -0.10175102272E+04  0.10334307154E+04  0.16500000000E+03 0.  0.
   -5000001    1    1    2    0    0 -0.43766331584E+02 -0.59257820135E+02 -0.24872395222E+03  0.30743387164E+03  0.16500000000E+03 0.  0.
<mgrwt>
<rscale>  0 0.44109958E+03</rscale>
<asrwt>0</asrwt>
<pdfrwt beam="1">  1        2 0.20054602E+00 0.44109958E+03</pdfrwt>
<pdfrwt beam="2">  1       -2 0.57408016E-02 0.44109958E+03</pdfrwt>
<totfact> 0.27683492E+03</totfact>
</mgrwt>
</event>
<event>
 4    1  0.9050888E-005  0.4120918E+03  0.7818608E-02  0.1039671E+00
         -2   -1    0    0    0  501 -0.00000000000E+00  0.00000000000E+00  0.36386757639E+02  0.36386757728E+02  0.25500000000E-02 0. -1.
          2   -1    0    0  501    0  0.00000000000E+00 -0.00000000000E+00 -0.11667684083E+04  0.11667684083E+04  0.25500000000E-02 0.  1.
    5000001    1    1    2    0    0  0.11039685513E+03 -0.11220485050E+01 -0.72619967567E+03  0.75284772269E+03  0.16500000000E+03 0.  0.
   -5000001    1    1    2    0    0 -0.11039685513E+03  0.11220485050E+01 -0.40418197494E+03  0.45030744329E+03  0.16500000000E+03 0.  0.
<mgrwt>
<rscale>  0 0.41209183E+03</rscale>
<asrwt>0</asrwt>
<pdfrwt beam="1">  1        2 0.17950280E+00 0.41209183E+03</pdfrwt>
<pdfrwt beam="2">  1       -2 0.55979636E-02 0.41209183E+03</pdfrwt>
<totfact> 0.34490812E+03</totfact>
</mgrwt>
</event>
<event>
 4    1  0.9050888E-005  0.1374432E+04  0.7818608E-02  0.8972536E-01
         -2   -1    0    0    0  501 -0.00000000000E+00  0.00000000000E+00  0.22951258578E+03  0.22951258579E+03  0.25500000000E-02 0. -1.
          2   -1    0    0  501    0  0.00000000000E+00 -0.00000000000E+00 -0.20576916671E+04  0.20576916671E+04  0.25500000000E-02 0.  1.
    5000001    1    1    2    0    0 -0.43053585827E+03  0.66048185413E+02 -0.73232880043E+02  0.47149925003E+03  0.16500000000E+03 0.  0.
   -5000001    1    1    2    0    0  0.43053585827E+03 -0.66048185413E+02 -0.17549462013E+04  0.18157050029E+04  0.16500000000E+03 0.  0.
<mgrwt>
<rscale>  0 0.13744324E+04</rscale>
<asrwt>0</asrwt>
<pdfrwt beam="1">  1        2 0.31656794E+00 0.13744324E+04</pdfrwt>
<pdfrwt beam="2">  1       -2 0.35309630E-01 0.13744324E+04</pdfrwt>
<totfact> 0.45613412E+01</totfact>
</mgrwt>
</event>
<event>
 4    1  0.9050888E-005  0.5068161E+03  0.7818608E-02  0.1012015E+00
          2   -1    0    0  501    0  0.00000000000E+00  0.00000000000E+00  0.30231568608E+04  0.30231568608E+04  0.25500000000E-02 0.  1.
         -2   -1    0    0    0  501 -0.00000000000E+00 -0.00000000000E+00 -0.21241253614E+02  0.21241253767E+02  0.25500000000E-02 0. -1.
    5000001    1    1    2    0    0 -0.14711656830E+03  0.11220249013E+03  0.11854973758E+04  0.12111406654E+04  0.16500000000E+03 0.  0.
   -5000001    1    1    2    0    0  0.14711656830E+03 -0.11220249013E+03  0.18164182314E+04  0.18332574491E+04  0.16500000000E+03 0.  0.
<mgrwt>
<rscale>  0 0.50681611E+03</rscale>
<asrwt>0</asrwt>
<pdfrwt beam="1">  1        2 0.46510131E+00 0.50681611E+03</pdfrwt>
<pdfrwt beam="2">  1       -2 0.32678834E-02 0.50681611E+03</pdfrwt>
<totfact> 0.72503698E+02</totfact>
</mgrwt>
</event>
<event>
 4    1  0.9050888E-005  0.6492497E+03  0.7818608E-02  0.9808188E-01
          2   -1    0    0  501    0  0.00000000000E+00  0.00000000000E+00  0.16044020538E+04  0.16044020538E+04  0.25500000000E-02 0.  1.
         -2   -1    0    0    0  501 -0.00000000000E+00 -0.00000000000E+00 -0.65682601564E+02  0.65682601614E+02  0.25500000000E-02 0. -1.
    5000001    1    1    2    0    0  0.99459834184E+02 -0.26001338965E+03  0.83529771006E+03  0.89579377417E+03  0.16500000000E+03 0.  0.
   -5000001    1    1    2    0    0 -0.99459834184E+02  0.26001338965E+03  0.70342174218E+03  0.77429088124E+03  0.16500000000E+03 0.  0.
<mgrwt>
<rscale>  0 0.64924972E+03</rscale>
<asrwt>0</asrwt>
<pdfrwt beam="1">  1        2 0.24683105E+00 0.64924972E+03</pdfrwt>
<pdfrwt beam="2">  1       -2 0.10105017E-01 0.64924972E+03</pdfrwt>
<totfact> 0.76297967E+02</totfact>
</mgrwt>
</event>
<event>
 4    1  0.9050888E-005  0.4095582E+03  0.7818608E-02  0.1040519E+00
          2   -1    0    0  501    0  0.00000000000E+00  0.00000000000E+00  0.86895586405E+03  0.86895586406E+03  0.25500000000E-02 0.  1.
         -2   -1    0    0    0  501 -0.00000000000E+00 -0.00000000000E+00 -0.48258470452E+02  0.48258470520E+02  0.25500000000E-02 0. -1.
    5000001    1    1    2    0    0 -0.72686583933E+02  0.96621359711E+02  0.43164821489E+03  0.47766537247E+03  0.16500000000E+03 0.  0.
   -5000001    1    1    2    0    0  0.72686583933E+02 -0.96621359711E+02  0.38904917871E+03  0.43954896211E+03  0.16500000000E+03 0.  0.
<mgrwt>
<rscale>  0 0.40955821E+03</rscale>
<asrwt>0</asrwt>
<pdfrwt beam="1">  1        2 0.13368551E+00 0.40955821E+03</pdfrwt>
<pdfrwt beam="2">  1       -2 0.74243803E-02 0.40955821E+03</pdfrwt>
<totfact> 0.34009494E+03</totfact>
</mgrwt>
</event>
<event>
 4    1  0.9050888E-005  0.3638980E+03  0.7818608E-02  0.1057051E+00
         -2   -1    0    0    0  501 -0.00000000000E+00  0.00000000000E+00  0.26806370523E+02  0.26806370644E+02  0.25500000000E-02 0. -1.
          2   -1    0    0  501    0  0.00000000000E+00 -0.00000000000E+00 -0.12349842466E+04  0.12349842466E+04  0.25500000000E-02 0.  1.
    5000001    1    1    2    0    0 -0.27845567801E+02  0.59565686187E+02 -0.46726826750E+03  0.49988806790E+03  0.16500000000E+03 0.  0.
   -5000001    1    1    2    0    0  0.27845567801E+02 -0.59565686187E+02 -0.74090960853E+03  0.76190254930E+03  0.16500000000E+03 0.  0.
<mgrwt>
<rscale>  0 0.36389804E+03</rscale>
<asrwt>0</asrwt>
<pdfrwt beam="1">  1        2 0.18999753E+00 0.36389804E+03</pdfrwt>
<pdfrwt beam="2">  1       -2 0.41240580E-02 0.36389804E+03</pdfrwt>
<totfact> 0.50277636E+03</totfact>
</mgrwt>
</event>
<event>
 4    1  0.9050888E-005  0.7488350E+03  0.7818608E-02  0.9637180E-01
          2   -1    0    0  501    0  0.00000000000E+00  0.00000000000E+00  0.35270188096E+03  0.35270188097E+03  0.25500000000E-02 0.  1.
         -2   -1    0    0    0  501 -0.00000000000E+00 -0.00000000000E+00 -0.39747018324E+03  0.39747018325E+03  0.25500000000E-02 0. -1.
    5000001    1    1    2    0    0 -0.33182247016E+03  0.49986801239E+02 -0.41356001718E+02  0.37621822242E+03  0.16500000000E+03 0.  0.
   -5000001    1    1    2    0    0  0.33182247016E+03 -0.49986801239E+02 -0.34123005658E+01  0.37395384180E+03  0.16500000000E+03 0.  0.
<mgrwt>
<rscale>  0 0.74883505E+03</rscale>
<asrwt>0</asrwt>
<pdfrwt beam="1">  1        2 0.54261828E-01 0.74883505E+03</pdfrwt>
<pdfrwt beam="2">  1       -2 0.61149259E-01 0.74883505E+03</pdfrwt>
<totfact> 0.22996662E+02</totfact>
</mgrwt>
</event>
<event>
 4    1  0.9050888E-005  0.4404582E+03  0.7818608E-02  0.1030606E+00
         -2   -1    0    0    0  501 -0.00000000000E+00  0.00000000000E+00  0.22523257905E+03  0.22523257906E+03  0.25500000000E-02 0. -1.
          2   -1    0    0  501    0  0.00000000000E+00 -0.00000000000E+00 -0.21533675994E+03  0.21533675995E+03  0.25500000000E-02 0.  1.
    5000001    1    1    2    0    0 -0.14127196640E+03  0.26353243177E+02  0.29926033260E+02  0.22084571398E+03  0.16500000000E+03 0.  0.
   -5000001    1    1    2    0    0  0.14127196640E+03 -0.26353243177E+02 -0.20030214153E+02  0.21972362503E+03  0.16500000000E+03 0.  0.
<mgrwt>
<rscale>  0 0.44045819E+03</rscale>
<asrwt>0</asrwt>
<pdfrwt beam="1">  1        2 0.33128732E-01 0.44045819E+03</pdfrwt>
<pdfrwt beam="2">  1       -2 0.34651166E-01 0.44045819E+03</pdfrwt>
<totfact> 0.12390510E+03</totfact>
</mgrwt>
</event>
<event>
 4    1  0.9050888E-005  0.6678647E+03  0.7818608E-02  0.9773823E-01
          2   -1    0    0  501    0  0.00000000000E+00  0.00000000000E+00  0.27360515680E+04  0.27360515680E+04  0.25500000000E-02 0.  1.
         -2   -1    0    0    0  501 -0.00000000000E+00 -0.00000000000E+00 -0.40756113247E+02  0.40756113326E+02  0.25500000000E-02 0. -1.
    5000001    1    1    2    0    0 -0.16048051042E+03  0.24159497022E+03  0.12944507843E+04  0.13367684754E+04  0.16500000000E+03 0.  0.
   -5000001    1    1    2    0    0  0.16048051042E+03 -0.24159497022E+03  0.14008446705E+04  0.14400392060E+04  0.16500000000E+03 0.  0.
<mgrwt>
<rscale>  0 0.66786474E+03</rscale>
<asrwt>0</asrwt>
<pdfrwt beam="1">  1        2 0.42093101E+00 0.66786474E+03</pdfrwt>
<pdfrwt beam="2">  1       -2 0.62701712E-02 0.66786474E+03</pdfrwt>
<totfact> 0.38594499E+02</totfact>
</mgrwt>
</event>
<event>
 4    1  0.9050888E-005  0.4809127E+03  0.7818608E-02  0.1018885E+00
         -2   -1    0    0    0  501 -0.00000000000E+00  0.00000000000E+00  0.19006826076E+04  0.19006826076E+04  0.25500000000E-02 0. -1.
          2   -1    0    0  501    0  0.00000000000E+00 -0.00000000000E+00 -0.30420255482E+02  0.30420255589E+02  0.25500000000E-02 0.  1.
    5000001    1    1    2    0    0 -0.13544424234E+03  0.74436068682E+02  0.60624320103E+03  0.64702526218E+03  0.16500000000E+03 0.  0.
   -5000001    1    1    2    0    0  0.13544424234E+03 -0.74436068682E+02  0.12640191510E+04  0.12840776010E+04  0.16500000000E+03 0.  0.
<mgrwt>
<rscale>  0 0.48091268E+03</rscale>
<asrwt>0</asrwt>
<pdfrwt beam="1">  1        2 0.46800390E-02 0.48091268E+03</pdfrwt>
<pdfrwt beam="2">  1       -2 0.29241273E+00 0.48091268E+03</pdfrwt>
<totfact> 0.68041793E+01</totfact>
</mgrwt>
</event>
<event>
 4    1  0.9050888E-005  0.4214330E+03  0.7818608E-02  0.1036601E+00
         -2   -1    0    0    0  501 -0.00000000000E+00  0.00000000000E+00  0.88162623087E+02  0.88162623123E+02  0.25500000000E-02 0. -1.
          2   -1    0    0  501    0  0.00000000000E+00 -0.00000000000E+00 -0.50363114090E+03  0.50363114090E+03  0.25500000000E-02 0.  1.
    5000001    1    1    2    0    0 -0.89279518747E+02 -0.30938999296E+02 -0.33526838144E+03  0.38543214933E+03  0.16500000000E+03 0.  0.
   -5000001    1    1    2    0    0  0.89279518747E+02  0.30938999296E+02 -0.80200136368E+02  0.20636161469E+03  0.16500000000E+03 0.  0.
<mgrwt>
<rscale>  0 0.42143300E+03</rscale>
<asrwt>0</asrwt>
<pdfrwt beam="1">  1        2 0.77481712E-01 0.42143300E+03</pdfrwt>
<pdfrwt beam="2">  1       -2 0.13563481E-01 0.42143300E+03</pdfrwt>
<totfact> 0.25129320E+03</totfact>
</mgrwt>
</event>
<event>
 4    1  0.9050888E-005  0.5287543E+03  0.7818608E-02  0.1006535E+00
         -2   -1    0    0    0  501 -0.00000000000E+00  0.00000000000E+00  0.23501990768E+03  0.23501990769E+03  0.25500000000E-02 0. -1.
          2   -1    0    0  501    0  0.00000000000E+00 -0.00000000000E+00 -0.29740146851E+03  0.29740146852E+03  0.25500000000E-02 0.  1.
    5000001    1    1    2    0    0  0.82357523326E+02  0.12361546282E+03  0.11335521279E+03  0.24927484543E+03  0.16500000000E+03 0.  0.
   -5000001    1    1    2    0    0 -0.82357523326E+02 -0.12361546282E+03 -0.17573677362E+03  0.28314653079E+03  0.16500000000E+03 0.  0.
<mgrwt>
<rscale>  0 0.52875426E+03</rscale>
<asrwt>0</asrwt>
<pdfrwt beam="1">  1        2 0.45754072E-01 0.52875426E+03</pdfrwt>
<pdfrwt beam="2">  1       -2 0.36156909E-01 0.52875426E+03</pdfrwt>
<totfact> 0.80121008E+02</totfact>
</mgrwt>
</event>
<event>
 4    1  0.9050888E-005  0.6706723E+03  0.7818608E-02  0.9768744E-01
         -2   -1    0    0    0  501 -0.00000000000E+00  0.00000000000E+00  0.88882353129E+02  0.88882353165E+02  0.25500000000E-02 0. -1.
          2   -1    0    0  501    0  0.00000000000E+00 -0.00000000000E+00 -0.12651593727E+04  0.12651593727E+04  0.25500000000E-02 0.  1.
    5000001    1    1    2    0    0  0.25155063930E+03  0.13862836207E+03 -0.48265448339E+03  0.58538525540E+03  0.16500000000E+03 0.  0.
   -5000001    1    1    2    0    0 -0.25155063930E+03 -0.13862836207E+03 -0.69362253622E+03  0.76865647051E+03  0.16500000000E+03 0.  0.
<mgrwt>
<rscale>  0 0.67067233E+03</rscale>
<asrwt>0</asrwt>
<pdfrwt beam="1">  1        2 0.19463989E+00 0.67067233E+03</pdfrwt>
<pdfrwt beam="2">  1       -2 0.13674209E-01 0.67067233E+03</pdfrwt>
<totfact> 0.71762577E+02</totfact>
</mgrwt>
</event>
<event>
 4    1  0.9050888E-005  0.8411813E+03  0.7818608E-02  0.9502250E-01
         -2   -1    0    0    0  501 -0.00000000000E+00  0.00000000000E+00  0.31013428632E+03  0.31013428633E+03  0.25500000000E-02 0. -1.
          2   -1    0    0  501    0  0.00000000000E+00 -0.00000000000E+00 -0.57038680034E+03  0.57038680034E+03  0.25500000000E-02 0.  1.
    5000001    1    1    2    0    0  0.15136905085E+03 -0.24264512757E+03 -0.40285334413E+03  0.52086952720E+03  0.16500000000E+03 0.  0.
   -5000001    1    1    2    0    0 -0.15136905085E+03  0.24264512757E+03  0.14260083011E+03  0.35965155948E+03  0.16500000000E+03 0.  0.
<mgrwt>
<rscale>  0 0.84118132E+03</rscale>
<asrwt>0</asrwt>
<pdfrwt beam="1">  1        2 0.87751815E-01 0.84118132E+03</pdfrwt>
<pdfrwt beam="2">  1       -2 0.47712967E-01 0.84118132E+03</pdfrwt>
<totfact> 0.22062085E+02</totfact>
</mgrwt>
</event>
<event>
 4    1  0.9050888E-005  0.1005422E+04  0.7818608E-02  0.9302618E-01
         -2   -1    0    0    0  501 -0.00000000000E+00  0.00000000000E+00  0.39539241308E+03  0.39539241309E+03  0.25500000000E-02 0.  1.
          2   -1    0    0  501    0  0.00000000000E+00 -0.00000000000E+00 -0.63915794761E+03  0.63915794761E+03  0.25500000000E-02 0. -1.
    5000001    1    1    2    0    0  0.46187553414E+03  0.10879132379E+03 -0.14053646635E+03  0.52167045109E+03  0.16500000000E+03 0.  0.
   -5000001    1    1    2    0    0 -0.46187553414E+03 -0.10879132379E+03 -0.10322906818E+03  0.51287990961E+03  0.16500000000E+03 0.  0.
<mgrwt>
<rscale>  0 0.10054217E+04</rscale>
<asrwt>0</asrwt>
<pdfrwt beam="1">  1        2 0.98331992E-01 0.10054217E+04</pdfrwt>
<pdfrwt beam="2">  1       -2 0.60829602E-01 0.10054217E+04</pdfrwt>
<totfact> 0.11533587E+02</totfact>
</mgrwt>
</event>
<event>
 4    1  0.9050888E-005  0.4085173E+03  0.7818608E-02  0.1040870E+00
         -2   -1    0    0    0  501 -0.00000000000E+00  0.00000000000E+00  0.34079163403E+02  0.34079163498E+02  0.25500000000E-02 0. -1.
          2   -1    0    0  501    0  0.00000000000E+00 -0.00000000000E+00 -0.12242553518E+04  0.12242553518E+04  0.25500000000E-02 0.  1.
    5000001    1    1    2    0    0  0.24707281662E+02  0.61343761933E+02 -0.90500282753E+03  0.92229530235E+03  0.16500000000E+03 0.  0.
   -5000001    1    1    2    0    0 -0.24707281662E+02 -0.61343761933E+02 -0.28517336088E+03  0.33603921297E+03  0.16500000000E+03 0.  0.
<mgrwt>
<rscale>  0 0.40851731E+03</rscale>
<asrwt>0</asrwt>
<pdfrwt beam="1">  1        2 0.18834694E+00 0.40851731E+03</pdfrwt>
<pdfrwt beam="2">  1       -2 0.52429492E-02 0.40851731E+03</pdfrwt>
<totfact> 0.35344146E+03</totfact>
</mgrwt>
</event>
<event>
 4    1  0.9050888E-005  0.4073803E+03  0.7818608E-02  0.1041254E+00
         -2   -1    0    0    0  501 -0.00000000000E+00  0.00000000000E+00  0.35009275694E+03  0.35009275695E+03  0.25500000000E-02 0. -1.
          2   -1    0    0  501    0  0.00000000000E+00 -0.00000000000E+00 -0.11851052649E+03  0.11851052652E+03  0.25500000000E-02 0.  1.
    5000001    1    1    2    0    0  0.91864799275E+02  0.53308545864E+02  0.52958462383E+02  0.20324994747E+03  0.16500000000E+03 0.  0.
   -5000001    1    1    2    0    0 -0.91864799275E+02 -0.53308545864E+02  0.17862376807E+03  0.26535333600E+03  0.16500000000E+03 0.  0.
<mgrwt>
<rscale>  0 0.40738030E+03</rscale>
<asrwt>0</asrwt>
<pdfrwt beam="1">  1        2 0.18232389E-01 0.40738030E+03</pdfrwt>
<pdfrwt beam="2">  1       -2 0.53860423E-01 0.40738030E+03</pdfrwt>
<totfact> 0.10291905E+03</totfact>
</mgrwt>
</event>
<event>
 4    1  0.9050888E-005  0.6905971E+03  0.7818608E-02  0.9733449E-01
          2   -1    0    0  501    0  0.00000000000E+00  0.00000000000E+00  0.11704730900E+04  0.11704730900E+04  0.25500000000E-02 0.  1.
         -2   -1    0    0    0  501 -0.00000000000E+00 -0.00000000000E+00 -0.10186571136E+03  0.10186571140E+03  0.25500000000E-02 0. -1.
    5000001    1    1    2    0    0 -0.22964761648E+03 -0.16175334303E+03  0.74520455882E+03  0.81330007145E+03  0.16500000000E+03 0.  0.
   -5000001    1    1    2    0    0  0.22964761648E+03  0.16175334303E+03  0.32340281985E+03  0.45903872998E+03  0.16500000000E+03 0.  0.
<mgrwt>
<rscale>  0 0.69059706E+03</rscale>
<asrwt>0</asrwt>
<pdfrwt beam="1">  1        2 0.18007279E+00 0.69059706E+03</pdfrwt>
<pdfrwt beam="2">  1       -2 0.15671647E-01 0.69059706E+03</pdfrwt>
<totfact> 0.64769905E+02</totfact>
</mgrwt>
</event>
<event>
 4    1  0.9050888E-005  0.3468819E+03  0.7818608E-02  0.1063902E+00
          2   -1    0    0  501    0  0.00000000000E+00  0.00000000000E+00  0.15678188710E+04  0.15678188710E+04  0.25500000000E-02 0.  1.
         -2   -1    0    0    0  501 -0.00000000000E+00 -0.00000000000E+00 -0.19187015466E+02  0.19187015635E+02  0.25500000000E-02 0. -1.
    5000001    1    1    2    0    0 -0.28514925421E+02 -0.42760985666E+02  0.84142478861E+03  0.85898910223E+03  0.16500000000E+03 0.  0.
   -5000001    1    1    2    0    0  0.28514925421E+02  0.42760985666E+02  0.70720706691E+03  0.72801678439E+03  0.16500000000E+03 0.  0.
<mgrwt>
<rscale>  0 0.34688191E+03</rscale>
<asrwt>0</asrwt>
<pdfrwt beam="1">  1        2 0.24120293E+00 0.34688191E+03</pdfrwt>
<pdfrwt beam="2">  1       -2 0.29518482E-02 0.34688191E+03</pdfrwt>
<totfact> 0.54583744E+03</totfact>
</mgrwt>
</event>
<event>
 4    1  0.9050888E-005  0.9433986E+03  0.7818608E-02  0.9372900E-01
         -2   -1    0    0    0  501 -0.00000000000E+00  0.00000000000E+00  0.11526271790E+03  0.11526271793E+03  0.25500000000E-02 0. -1.
          2   -1    0    0  501    0  0.00000000000E+00 -0.00000000000E+00 -0.19303748425E+04  0.19303748425E+04  0.25500000000E-02 0.  1.
    5000001    1    1    2    0    0  0.27238382872E+03  0.10508574335E+03 -0.16268515330E+04  0.16610559515E+04  0.16500000000E+03 0.  0.
   -5000001    1    1    2    0    0 -0.27238382872E+03 -0.10508574335E+03 -0.18826059166E+03  0.38458160899E+03  0.16500000000E+03 0.  0.
<mgrwt>
<rscale>  0 0.94339865E+03</rscale>
<asrwt>0</asrwt>
<pdfrwt beam="1">  1        2 0.29698072E+00 0.94339865E+03</pdfrwt>
<pdfrwt beam="2">  1       -2 0.17732727E-01 0.94339865E+03</pdfrwt>
<totfact> 0.19357958E+02</totfact>
</mgrwt>
</event>
<event>
 4    1  0.9050888E-005  0.5207068E+03  0.7818608E-02  0.1008511E+00
          2   -1    0    0  501    0  0.00000000000E+00  0.00000000000E+00  0.26881611231E+04  0.26881611231E+04  0.25500000000E-02 0.  1.
         -2   -1    0    0    0  501 -0.00000000000E+00 -0.00000000000E+00 -0.25215706582E+02  0.25215706710E+02  0.25500000000E-02 0. -1.
    5000001    1    1    2    0    0  0.13515027066E+03 -0.14898403532E+03  0.13828062148E+04  0.14070678257E+04  0.16500000000E+03 0.  0.
   -5000001    1    1    2    0    0 -0.13515027066E+03  0.14898403532E+03  0.12801392017E+04  0.13063090041E+04  0.16500000000E+03 0.  0.
<mgrwt>
<rscale>  0 0.52070676E+03</rscale>
<asrwt>0</asrwt>
<pdfrwt beam="1">  1        2 0.41356313E+00 0.52070676E+03</pdfrwt>
<pdfrwt beam="2">  1       -2 0.38793406E-02 0.52070676E+03</pdfrwt>
<totfact> 0.87885145E+02</totfact>
</mgrwt>
</event>
<event>
 4    1  0.9050888E-005  0.7301168E+03  0.7818608E-02  0.9667071E-01
          2   -1    0    0  501    0  0.00000000000E+00  0.00000000000E+00  0.23091460304E+04  0.23091460305E+04  0.25500000000E-02 0.  1.
         -2   -1    0    0    0  501 -0.00000000000E+00 -0.00000000000E+00 -0.57712945489E+02  0.57712945545E+02  0.25500000000E-02 0. -1.
    5000001    1    1    2    0    0 -0.30371563418E+03  0.24907565888E+02  0.75356309174E+03  0.82942504575E+03  0.16500000000E+03 0.  0.
   -5000001    1    1    2    0    0  0.30371563418E+03 -0.24907565888E+02  0.14978699932E+04  0.15374339302E+04  0.16500000000E+03 0.  0.
<mgrwt>
<rscale>  0 0.73011676E+03</rscale>
<asrwt>0</asrwt>
<pdfrwt beam="1">  1        2 0.35525321E+00 0.73011676E+03</pdfrwt>
<pdfrwt beam="2">  1       -2 0.88789153E-02 0.73011676E+03</pdfrwt>
<totfact> 0.38542354E+02</totfact>
</mgrwt>
</event>
<event>
 4    1  0.9050888E-005  0.3339886E+03  0.7818608E-02  0.1069386E+00
         -2   -1    0    0    0  501 -0.00000000000E+00  0.00000000000E+00  0.12073284163E+03  0.12073284166E+03  0.25500000000E-02 0. -1.
          2   -1    0    0  501    0  0.00000000000E+00 -0.00000000000E+00 -0.23098192436E+03  0.23098192437E+03  0.25500000000E-02 0.  1.
    5000001    1    1    2    0    0  0.24573748852E+02  0.76000930814E+01 -0.54399866936E+02  0.17563022539E+03  0.16500000000E+03 0.  0.
   -5000001    1    1    2    0    0 -0.24573748852E+02 -0.76000930814E+01 -0.55849215795E+02  0.17608454064E+03  0.16500000000E+03 0.  0.
<mgrwt>
<rscale>  0 0.33398865E+03</rscale>
<asrwt>0</asrwt>
<pdfrwt beam="1">  1        2 0.35535681E-01 0.33398865E+03</pdfrwt>
<pdfrwt beam="2">  1       -2 0.18574283E-01 0.33398865E+03</pdfrwt>
<totfact> 0.34794219E+03</totfact>
</mgrwt>
</event>
<event>
 4    1  0.9050888E-005  0.5390433E+03  0.7818608E-02  0.1004062E+00
          2   -1    0    0  501    0  0.00000000000E+00  0.00000000000E+00  0.24679528821E+04  0.24679528821E+04  0.25500000000E-02 0.  1.
         -2   -1    0    0    0  501 -0.00000000000E+00 -0.00000000000E+00 -0.29434081956E+02  0.29434082067E+02  0.25500000000E-02 0. -1.
    5000001    1    1    2    0    0  0.16971945456E+03  0.12833404447E+03  0.12745858825E+04  0.13027158141E+04  0.16500000000E+03 0.  0.
   -5000001    1    1    2    0    0 -0.16971945456E+03 -0.12833404447E+03  0.11639329176E+04  0.11946711501E+04  0.16500000000E+03 0.  0.
<mgrwt>
<rscale>  0 0.53904333E+03</rscale>
<asrwt>0</asrwt>
<pdfrwt beam="1">  1        2 0.37968520E+00 0.53904333E+03</pdfrwt>
<pdfrwt beam="2">  1       -2 0.45283187E-02 0.53904333E+03</pdfrwt>
<totfact> 0.92217862E+02</totfact>
</mgrwt>
</event>
<event>
 4    1  0.9050888E-005  0.6911050E+03  0.7818608E-02  0.9732566E-01
          2   -1    0    0  501    0  0.00000000000E+00  0.00000000000E+00  0.10169525565E+04  0.10169525565E+04  0.25500000000E-02 0.  1.
         -2   -1    0    0    0  501 -0.00000000000E+00 -0.00000000000E+00 -0.11741603458E+03  0.11741603461E+03  0.25500000000E-02 0. -1.
    5000001    1    1    2    0    0 -0.94034378032E+02  0.23878057828E+03  0.71607188551E+03  0.77835889796E+03  0.16500000000E+03 0.  0.
   -5000001    1    1    2    0    0  0.94034378032E+02 -0.23878057828E+03  0.18346463642E+03  0.35600969317E+03  0.16500000000E+03 0.  0.
<mgrwt>
<rscale>  0 0.69110502E+03</rscale>
<asrwt>0</asrwt>
<pdfrwt beam="1">  1        2 0.15645423E+00 0.69110502E+03</pdfrwt>
<pdfrwt beam="2">  1       -2 0.18064006E-01 0.69110502E+03</pdfrwt>
<totfact> 0.63066257E+02</totfact>
</mgrwt>
</event>
<event>
 4    1  0.9050888E-005  0.7916368E+03  0.7818608E-02  0.9572202E-01
          2   -1    0    0  501    0  0.00000000000E+00  0.00000000000E+00  0.20285752398E+03  0.20285752400E+03  0.25500000000E-02 0. -1.
         -2   -1    0    0    0  501 -0.00000000000E+00 -0.00000000000E+00 -0.77232633816E+03  0.77232633817E+03  0.25500000000E-02 0.  1.
    5000001    1    1    2    0    0  0.27386699468E+03 -0.23308888520E+03 -0.27160200156E+03  0.47992312554E+03  0.16500000000E+03 0.  0.
   -5000001    1    1    2    0    0 -0.27386699468E+03  0.23308888520E+03 -0.29786681262E+03  0.49526073662E+03  0.16500000000E+03 0.  0.
<mgrwt>
<rscale>  0 0.79163681E+03</rscale>
<asrwt>0</asrwt>
<pdfrwt beam="1">  1        2 0.31208850E-01 0.79163681E+03</pdfrwt>
<pdfrwt beam="2">  1       -2 0.11881943E+00 0.79163681E+03</pdfrwt>
<totfact> 0.93321140E+01</totfact>
</mgrwt>
</event>
<event>
 4    1  0.9050888E-005  0.4257763E+03  0.7818608E-02  0.1035203E+00
         -2   -1    0    0    0  501 -0.00000000000E+00  0.00000000000E+00  0.89795388204E+02  0.89795388241E+02  0.25500000000E-02 0. -1.
          2   -1    0    0  501    0  0.00000000000E+00 -0.00000000000E+00 -0.50471821312E+03  0.50471821312E+03  0.25500000000E-02 0.  1.
    5000001    1    1    2    0    0  0.74540719494E+02  0.76892422683E+02 -0.32113474236E+03  0.37659167049E+03  0.16500000000E+03 0.  0.
   -5000001    1    1    2    0    0 -0.74540719494E+02 -0.76892422683E+02 -0.93788082553E+02  0.21792193088E+03  0.16500000000E+03 0.  0.
<mgrwt>
<rscale>  0 0.42577632E+03</rscale>
<asrwt>0</asrwt>
<pdfrwt beam="1">  1        2 0.77648954E-01 0.42577632E+03</pdfrwt>
<pdfrwt beam="2">  1       -2 0.13814675E-01 0.42577632E+03</pdfrwt>
<totfact> 0.24320229E+03</totfact>
</mgrwt>
</event>
<event>
 4    1  0.9050888E-005  0.1052394E+04  0.7818608E-02  0.9252876E-01
          2   -1    0    0  501    0  0.00000000000E+00  0.00000000000E+00  0.25118992412E+04  0.25118992412E+04  0.25500000000E-02 0.  1.
         -2   -1    0    0    0  501 -0.00000000000E+00 -0.00000000000E+00 -0.11022864113E+03  0.11022864116E+03  0.25500000000E-02 0. -1.
    5000001    1    1    2    0    0 -0.27388768902E+03 -0.26519035391E+03  0.39609666389E+03  0.57398428302E+03  0.16500000000E+03 0.  0.
   -5000001    1    1    2    0    0  0.27388768902E+03  0.26519035391E+03  0.20055739362E+04  0.20481435994E+04  0.16500000000E+03 0.  0.
<mgrwt>
<rscale>  0 0.10523939E+04</rscale>
<asrwt>0</asrwt>
<pdfrwt beam="1">  1        2 0.38644600E+00 0.10523939E+04</pdfrwt>
<pdfrwt beam="2">  1       -2 0.16958254E-01 0.10523939E+04</pdfrwt>
<totfact> 0.98167335E+01</totfact>
</mgrwt>
</event>
<event>
 4    1  0.9050888E-005  0.8599304E+03  0.7818608E-02  0.9477105E-01
          2   -1    0    0  501    0  0.00000000000E+00  0.00000000000E+00  0.82033407818E+03  0.82033407818E+03  0.25500000000E-02 0.  1.
         -2   -1    0    0    0  501 -0.00000000000E+00 -0.00000000000E+00 -0.22535951335E+03  0.22535951337E+03  0.25500000000E-02 0. -1.
    5000001    1    1    2    0    0  0.32152341589E+03  0.15845920614E+03  0.50513321578E+03  0.64099234992E+03  0.16500000000E+03 0.  0.
   -5000001    1    1    2    0    0 -0.32152341589E+03 -0.15845920614E+03  0.89841349051E+02  0.40470124163E+03  0.16500000000E+03 0.  0.
<mgrwt>
<rscale>  0 0.85993044E+03</rscale>
<asrwt>0</asrwt>
<pdfrwt beam="1">  1        2 0.12620524E+00 0.85993044E+03</pdfrwt>
<pdfrwt beam="2">  1       -2 0.34670694E-01 0.85993044E+03</pdfrwt>
<totfact> 0.26063146E+02</totfact>
</mgrwt>
</event>
<event>
 4    1  0.9050888E-005  0.7939189E+03  0.7818608E-02  0.9568861E-01
          2   -1    0    0  501    0  0.00000000000E+00  0.00000000000E+00  0.65058712679E+03  0.65058712680E+03  0.25500000000E-02 0.  1.
         -2   -1    0    0    0  501 -0.00000000000E+00 -0.00000000000E+00 -0.24220706771E+03  0.24220706772E+03  0.25500000000E-02 0. -1.
    5000001    1    1    2    0    0 -0.14465750467E+03 -0.31075789116E+03  0.76687036363E+02  0.38807494395E+03  0.16500000000E+03 0.  0.
   -5000001    1    1    2    0    0  0.14465750467E+03  0.31075789116E+03  0.33169302272E+03  0.50471925057E+03  0.16500000000E+03 0.  0.
<mgrwt>
<rscale>  0 0.79391889E+03</rscale>
<asrwt>0</asrwt>
<pdfrwt beam="1">  1        2 0.10009033E+00 0.79391889E+03</pdfrwt>
<pdfrwt beam="2">  1       -2 0.37262626E-01 0.79391889E+03</pdfrwt>
<totfact> 0.30669144E+02</totfact>
</mgrwt>
</event>
<event>
 4    1  0.9050888E-005  0.7075939E+03  0.7818608E-02  0.9704333E-01
          2   -1    0    0  501    0  0.00000000000E+00  0.00000000000E+00  0.42408898481E+03  0.42408898482E+03  0.25500000000E-02 0.  1.
         -2   -1    0    0    0  501 -0.00000000000E+00 -0.00000000000E+00 -0.29515573325E+03  0.29515573326E+03  0.25500000000E-02 0. -1.
    5000001    1    1    2    0    0  0.11972883155E+03  0.26577195122E+03  0.18026149142E+03  0.38037997904E+03  0.16500000000E+03 0.  0.
   -5000001    1    1    2    0    0 -0.11972883155E+03 -0.26577195122E+03 -0.51328239861E+02  0.33886473905E+03  0.16500000000E+03 0.  0.
<mgrwt>
<rscale>  0 0.70759394E+03</rscale>
<asrwt>0</asrwt>
<pdfrwt beam="1">  1        2 0.65244459E-01 0.70759394E+03</pdfrwt>
<pdfrwt beam="2">  1       -2 0.45408574E-01 0.70759394E+03</pdfrwt>
<totfact> 0.34521905E+02</totfact>
</mgrwt>
</event>
<event>
 4    1  0.9050888E-005  0.4222861E+03  0.7818608E-02  0.1036325E+00
          2   -1    0    0  501    0  0.00000000000E+00  0.00000000000E+00  0.28154614270E+03  0.28154614271E+03  0.25500000000E-02 0.  1.
         -2   -1    0    0    0  501 -0.00000000000E+00 -0.00000000000E+00 -0.15834484427E+03  0.15834484429E+03  0.25500000000E-02 0. -1.
    5000001    1    1    2    0    0  0.99098932417E+02 -0.78182864649E+02  0.10089901997E+03  0.23095188019E+03  0.16500000000E+03 0.  0.
   -5000001    1    1    2    0    0 -0.99098932417E+02  0.78182864649E+02  0.22302278465E+02  0.20893910681E+03  0.16500000000E+03 0.  0.
<mgrwt>
<rscale>  0 0.42228606E+03</rscale>
<asrwt>0</asrwt>
<pdfrwt beam="1">  1        2 0.43314791E-01 0.42228606E+03</pdfrwt>
<pdfrwt beam="2">  1       -2 0.24360746E-01 0.42228606E+03</pdfrwt>
<totfact> 0.17561676E+03</totfact>
</mgrwt>
</event>
<event>
 4    1  0.9050888E-005  0.4973731E+03  0.7818608E-02  0.1014467E+00
         -2   -1    0    0    0  501 -0.00000000000E+00  0.00000000000E+00  0.48640111815E+02  0.48640111882E+02  0.25500000000E-02 0. -1.
          2   -1    0    0  501    0  0.00000000000E+00 -0.00000000000E+00 -0.12714816722E+04  0.12714816722E+04  0.25500000000E-02 0.  1.
    5000001    1    1    2    0    0 -0.16743981020E+03 -0.47739543376E+02 -0.43727577705E+03  0.49874869347E+03  0.16500000000E+03 0.  0.
   -5000001    1    1    2    0    0  0.16743981020E+03  0.47739543376E+02 -0.78556578333E+03  0.82137309061E+03  0.16500000000E+03 0.  0.
<mgrwt>
<rscale>  0 0.49737314E+03</rscale>
<asrwt>0</asrwt>
<pdfrwt beam="1">  1        2 0.19561254E+00 0.49737314E+03</pdfrwt>
<pdfrwt beam="2">  1       -2 0.74830951E-02 0.49737314E+03</pdfrwt>
<totfact> 0.19047340E+03</totfact>
</mgrwt>
</event>
<event>
 4    1  0.9050888E-005  0.4112085E+03  0.7818608E-02  0.1039966E+00
         -2   -1    0    0    0  501 -0.00000000000E+00  0.00000000000E+00  0.22766481243E+03  0.22766481244E+03  0.25500000000E-02 0. -1.
          2   -1    0    0  501    0  0.00000000000E+00 -0.00000000000E+00 -0.18568130807E+03  0.18568130809E+03  0.25500000000E-02 0.  1.
    5000001    1    1    2    0    0 -0.71036121929E+01  0.42600963302E+02  0.13640498330E+03  0.21839556509E+03  0.16500000000E+03 0.  0.
   -5000001    1    1    2    0    0  0.71036121929E+01 -0.42600963302E+02 -0.94421478951E+02  0.19495055544E+03  0.16500000000E+03 0.  0.
<mgrwt>
<rscale>  0 0.41120846E+03</rscale>
<asrwt>0</asrwt>
<pdfrwt beam="1">  1        2 0.28566355E-01 0.41120846E+03</pdfrwt>
<pdfrwt beam="2">  1       -2 0.35025356E-01 0.41120846E+03</pdfrwt>
<totfact> 0.14310268E+03</totfact>
</mgrwt>
</event>
<event>
 4    1  0.9050888E-005  0.1344039E+04  0.7818608E-02  0.8995353E-01
          2   -1    0    0  501    0  0.00000000000E+00  0.00000000000E+00  0.28718808356E+04  0.28718808356E+04  0.25500000000E-02 0.  1.
         -2   -1    0    0    0  501 -0.00000000000E+00 -0.00000000000E+00 -0.15725241702E+03  0.15725241704E+03  0.25500000000E-02 0. -1.
    5000001    1    1    2    0    0  0.57398534136E+03 -0.18328431306E+03  0.19154671658E+04  0.20147684172E+04  0.16500000000E+03 0.  0.
   -5000001    1    1    2    0    0 -0.57398534136E+03  0.18328431306E+03  0.79916125275E+03  0.10143648355E+04  0.16500000000E+03 0.  0.
<mgrwt>
<rscale>  0 0.13440390E+04</rscale>
<asrwt>0</asrwt>
<pdfrwt beam="1">  1        2 0.44182779E+00 0.13440390E+04</pdfrwt>
<pdfrwt beam="2">  1       -2 0.24192681E-01 0.13440390E+04</pdfrwt>
<totfact> 0.31370147E+01</totfact>
</mgrwt>
</event>
<event>
 4    1  0.9050888E-005  0.3869440E+03  0.7818608E-02  0.1048397E+00
         -2   -1    0    0    0  501 -0.00000000000E+00  0.00000000000E+00  0.49026744603E+02  0.49026744669E+02  0.25500000000E-02 0. -1.
          2   -1    0    0  501    0  0.00000000000E+00 -0.00000000000E+00 -0.76348971324E+03  0.76348971324E+03  0.25500000000E-02 0.  1.
    5000001    1    1    2    0    0  0.72079672229E+02  0.32277853952E+02 -0.48952201718E+03  0.52258410262E+03  0.16500000000E+03 0.  0.
   -5000001    1    1    2    0    0 -0.72079672229E+02 -0.32277853952E+02 -0.22494095145E+03  0.28993235529E+03  0.16500000000E+03 0.  0.
<mgrwt>
<rscale>  0 0.38694400E+03</rscale>
<asrwt>0</asrwt>
<pdfrwt beam="1">  1        2 0.11745995E+00 0.38694400E+03</pdfrwt>
<pdfrwt beam="2">  1       -2 0.75425766E-02 0.38694400E+03</pdfrwt>
<totfact> 0.39246841E+03</totfact>
</mgrwt>
</event>
<event>
 4    1  0.9050888E-005  0.8389854E+03  0.7818608E-02  0.9505241E-01
         -2   -1    0    0    0  501 -0.00000000000E+00  0.00000000000E+00  0.50476578230E+03  0.50476578230E+03  0.25500000000E-02 0. -1.
          2   -1    0    0  501    0  0.00000000000E+00 -0.00000000000E+00 -0.34862526755E+03  0.34862526755E+03  0.25500000000E-02 0.  1.
    5000001    1    1    2    0    0  0.34705302556E+02  0.17966038812E+03  0.42340940221E+03  0.48988042926E+03  0.16500000000E+03 0.  0.
   -5000001    1    1    2    0    0 -0.34705302556E+02 -0.17966038812E+03 -0.26726888746E+03  0.36351062060E+03  0.16500000000E+03 0.  0.
<mgrwt>
<rscale>  0 0.83898535E+03</rscale>
<asrwt>0</asrwt>
<pdfrwt beam="1">  1        2 0.53634657E-01 0.83898535E+03</pdfrwt>
<pdfrwt beam="2">  1       -2 0.77656274E-01 0.83898535E+03</pdfrwt>
<totfact> 0.13802972E+02</totfact>
</mgrwt>
</event>
<event>
 4    1  0.9050888E-005  0.7366347E+03  0.7818608E-02  0.9656555E-01
         -2   -1    0    0    0  501 -0.00000000000E+00  0.00000000000E+00  0.11074746216E+03  0.11074746219E+03  0.25500000000E-02 0. -1.
          2   -1    0    0  501    0  0.00000000000E+00 -0.00000000000E+00 -0.12249278606E+04  0.12249278606E+04  0.25500000000E-02 0.  1.
    5000001    1    1    2    0    0 -0.31924643525E+03 -0.67700715969E+02 -0.47741237176E+03  0.60137280124E+03  0.16500000000E+03 0.  0.
   -5000001    1    1    2    0    0  0.31924643525E+03  0.67700715969E+02 -0.63676802670E+03  0.73430252158E+03  0.16500000000E+03 0.  0.
<mgrwt>
<rscale>  0 0.73663465E+03</rscale>
<asrwt>0</asrwt>
<pdfrwt beam="1">  1        2 0.18845043E+00 0.73663465E+03</pdfrwt>
<pdfrwt beam="2">  1       -2 0.17038072E-01 0.73663465E+03</pdfrwt>
<totfact> 0.52042398E+02</totfact>
</mgrwt>
</event>
<event>
 4    1  0.9050888E-005  0.5492922E+03  0.7818608E-02  0.1001658E+00
         -2   -1    0    0    0  501 -0.00000000000E+00  0.00000000000E+00  0.14095151789E+04  0.14095151789E+04  0.25500000000E-02 0. -1.
          2   -1    0    0  501    0  0.00000000000E+00 -0.00000000000E+00 -0.53515203935E+02  0.53515203996E+02  0.25500000000E-02 0.  1.
    5000001    1    1    2    0    0  0.11154564168E+03 -0.18543670628E+03  0.77681089061E+03  0.82309741950E+03  0.16500000000E+03 0.  0.
   -5000001    1    1    2    0    0 -0.11154564168E+03  0.18543670628E+03  0.57918908438E+03  0.63993296343E+03  0.16500000000E+03 0.  0.
<mgrwt>
<rscale>  0 0.54929224E+03</rscale>
<asrwt>0</asrwt>
<pdfrwt beam="1">  1        2 0.82331100E-02 0.54929224E+03</pdfrwt>
<pdfrwt beam="2">  1       -2 0.21684844E+00 0.54929224E+03</pdfrwt>
<totfact> 0.91193529E+01</totfact>
</mgrwt>
</event>
<event>
 4    1  0.9050888E-005  0.1098254E+04  0.7818608E-02  0.9206896E-01
          2   -1    0    0  501    0  0.00000000000E+00  0.00000000000E+00  0.39648733218E+03  0.39648733219E+03  0.25500000000E-02 0.  1.
         -2   -1    0    0    0  501 -0.00000000000E+00 -0.00000000000E+00 -0.76052921809E+03  0.76052921809E+03  0.25500000000E-02 0. -1.
    5000001    1    1    2    0    0 -0.23563789597E+03 -0.37459759567E+03  0.11308601527E+03  0.48565628129E+03  0.16500000000E+03 0.  0.
   -5000001    1    1    2    0    0  0.23563789597E+03  0.37459759567E+03 -0.47712790118E+03  0.67136026900E+03  0.16500000000E+03 0.  0.
<mgrwt>
<rscale>  0 0.10982535E+04</rscale>
<asrwt>0</asrwt>
<pdfrwt beam="1">  1        2 0.60998051E-01 0.10982535E+04</pdfrwt>
<pdfrwt beam="2">  1       -2 0.11700449E+00 0.10982535E+04</pdfrwt>
<totfact> 0.45063590E+01</totfact>
</mgrwt>
</event>
<event>
 4    1  0.9050888E-005  0.5370364E+03  0.7818608E-02  0.1004540E+00
         -2   -1    0    0    0  501 -0.00000000000E+00  0.00000000000E+00  0.37191214779E+02  0.37191214867E+02  0.25500000000E-02 0. -1.
          2   -1    0    0  501    0  0.00000000000E+00 -0.00000000000E+00 -0.19386843812E+04  0.19386843812E+04  0.25500000000E-02 0.  1.
    5000001    1    1    2    0    0  0.72443192673E+02 -0.18606746567E+03 -0.69038068980E+03  0.73737345680E+03  0.16500000000E+03 0.  0.
   -5000001    1    1    2    0    0 -0.72443192673E+02  0.18606746567E+03 -0.12111124767E+04  0.12385021393E+04  0.16500000000E+03 0.  0.
<mgrwt>
<rscale>  0 0.53703641E+03</rscale>
<asrwt>0</asrwt>
<pdfrwt beam="1">  1        2 0.29825906E+00 0.53703641E+03</pdfrwt>
<pdfrwt beam="2">  1       -2 0.57217269E-02 0.53703641E+03</pdfrwt>
<totfact> 0.12495532E+03</totfact>
</mgrwt>
</event>
<event>
 4    1  0.9050888E-005  0.4814434E+03  0.7818608E-02  0.1018739E+00
         -2   -1    0    0    0  501 -0.00000000000E+00  0.00000000000E+00  0.69428423529E+02  0.69428423576E+02  0.25500000000E-02 0. -1.
          2   -1    0    0  501    0  0.00000000000E+00 -0.00000000000E+00 -0.83462832465E+03  0.83462832466E+03  0.25500000000E-02 0.  1.
    5000001    1    1    2    0    0  0.53047534988E+02 -0.15202219117E+03 -0.25254055286E+03  0.34194519797E+03  0.16500000000E+03 0.  0.
   -5000001    1    1    2    0    0 -0.53047534988E+02  0.15202219117E+03 -0.51265934826E+03  0.56211155026E+03  0.16500000000E+03 0.  0.
<mgrwt>
<rscale>  0 0.48144337E+03</rscale>
<asrwt>0</asrwt>
<pdfrwt beam="1">  1        2 0.12840435E+00 0.48144337E+03</pdfrwt>
<pdfrwt beam="2">  1       -2 0.10681297E-01 0.48144337E+03</pdfrwt>
<totfact> 0.20095469E+03</totfact>
</mgrwt>
</event>
<event>
 4    1  0.9050888E-005  0.5300963E+03  0.7818608E-02  0.1006209E+00
          2   -1    0    0  501    0  0.00000000000E+00  0.00000000000E+00  0.73274902707E+03  0.73274902708E+03  0.25500000000E-02 0.  1.
         -2   -1    0    0    0  501 -0.00000000000E+00 -0.00000000000E+00 -0.95872557569E+02  0.95872557603E+02  0.25500000000E-02 0. -1.
    5000001    1    1    2    0    0 -0.23681097062E+02 -0.20560839547E+03  0.29689638527E+03  0.39775378091E+03  0.16500000000E+03 0.  0.
   -5000001    1    1    2    0    0  0.23681097062E+02  0.20560839547E+03  0.33998008424E+03  0.43086780377E+03  0.16500000000E+03 0.  0.
<mgrwt>
<rscale>  0 0.53009631E+03</rscale>
<asrwt>0</asrwt>
<pdfrwt beam="1">  1        2 0.11273062E+00 0.53009631E+03</pdfrwt>
<pdfrwt beam="2">  1       -2 0.14749624E-01 0.53009631E+03</pdfrwt>
<totfact> 0.13969880E+03</totfact>
</mgrwt>
</event>
<event>
 4    1  0.9050888E-005  0.5380219E+03  0.7818608E-02  0.1004305E+00
         -2   -1    0    0    0  501 -0.00000000000E+00  0.00000000000E+00  0.72118127870E+03  0.72118127871E+03  0.25500000000E-02 0. -1.
          2   -1    0    0  501    0  0.00000000000E+00 -0.00000000000E+00 -0.10034493425E+03  0.10034493428E+03  0.25500000000E-02 0.  1.
    5000001    1    1    2    0    0 -0.15782935308E+02  0.20849530509E+03  0.36800813684E+03  0.45428447263E+03  0.16500000000E+03 0.  0.
   -5000001    1    1    2    0    0  0.15782935308E+02 -0.20849530509E+03  0.25282820762E+03  0.36724174036E+03  0.16500000000E+03 0.  0.
<mgrwt>
<rscale>  0 0.53802189E+03</rscale>
<asrwt>0</asrwt>
<pdfrwt beam="1">  1        2 0.15437682E-01 0.53802189E+03</pdfrwt>
<pdfrwt beam="2">  1       -2 0.11095097E+00 0.53802189E+03</pdfrwt>
<totfact> 0.25242978E+02</totfact>
</mgrwt>
</event>
<event>
 4    1  0.9050888E-005  0.4893511E+03  0.7818608E-02  0.1016596E+00
          2   -1    0    0  501    0  0.00000000000E+00  0.00000000000E+00  0.99554876303E+03  0.99554876303E+03  0.25500000000E-02 0.  1.
         -2   -1    0    0    0  501 -0.00000000000E+00 -0.00000000000E+00 -0.60133806082E+02  0.60133806136E+02  0.25500000000E-02 0. -1.
    5000001    1    1    2    0    0 -0.15966282932E+03 -0.66874440186E+02  0.35609448984E+03  0.42894369737E+03  0.16500000000E+03 0.  0.
   -5000001    1    1    2    0    0  0.15966282932E+03  0.66874440186E+02  0.57932046710E+03  0.62673887180E+03  0.16500000000E+03 0.  0.
<mgrwt>
<rscale>  0 0.48935115E+03</rscale>
<asrwt>0</asrwt>
<pdfrwt beam="1">  1        2 0.15316134E+00 0.48935115E+03</pdfrwt>
<pdfrwt beam="2">  1       -2 0.92513552E-02 0.48935115E+03</pdfrwt>
<totfact> 0.19859408E+03</totfact>
</mgrwt>
</event>
<event>
 4    1  0.9050888E-005  0.5142958E+03  0.7818608E-02  0.1010113E+00
         -2   -1    0    0    0  501 -0.00000000000E+00  0.00000000000E+00  0.79885105558E+02  0.79885105599E+02  0.25500000000E-02 0. -1.
          2   -1    0    0  501    0  0.00000000000E+00 -0.00000000000E+00 -0.82775168945E+03  0.82775168945E+03  0.25500000000E-02 0.  1.
    5000001    1    1    2    0    0 -0.27079044081E+02  0.19533185400E+03 -0.38010340678E+03  0.45890239448E+03  0.16500000000E+03 0.  0.
   -5000001    1    1    2    0    0  0.27079044081E+02 -0.19533185400E+03 -0.36776317711E+03  0.44873440057E+03  0.16500000000E+03 0.  0.
<mgrwt>
<rscale>  0 0.51429576E+03</rscale>
<asrwt>0</asrwt>
<pdfrwt beam="1">  1        2 0.12734641E+00 0.51429576E+03</pdfrwt>
<pdfrwt beam="2">  1       -2 0.12290017E-01 0.51429576E+03</pdfrwt>
<totfact> 0.16153640E+03</totfact>
</mgrwt>
</event>
<event>
 4    1  0.9050888E-005  0.6683537E+03  0.7818608E-02  0.9772936E-01
         -2   -1    0    0    0  501 -0.00000000000E+00  0.00000000000E+00  0.46605711549E+03  0.46605711549E+03  0.25500000000E-02 0. -1.
          2   -1    0    0  501    0  0.00000000000E+00 -0.00000000000E+00 -0.23961479627E+03  0.23961479628E+03  0.25500000000E-02 0.  1.
    5000001    1    1    2    0    0  0.11520274449E+03 -0.16297732695E+03  0.33623985650E+03  0.42440019149E+03  0.16500000000E+03 0.  0.
   -5000001    1    1    2    0    0 -0.11520274449E+03  0.16297732695E+03 -0.10979753729E+03  0.28127172029E+03  0.16500000000E+03 0.  0.
<mgrwt>
<rscale>  0 0.66835374E+03</rscale>
<asrwt>0</asrwt>
<pdfrwt beam="1">  1        2 0.36863815E-01 0.66835374E+03</pdfrwt>
<pdfrwt beam="2">  1       -2 0.71701095E-01 0.66835374E+03</pdfrwt>
<totfact> 0.25143454E+02</totfact>
</mgrwt>
</event>
<event>
 4    1  0.9050888E-005  0.5483020E+03  0.7818608E-02  0.1001888E+00
         -2   -1    0    0    0  501 -0.00000000000E+00  0.00000000000E+00  0.35565429865E+04  0.35565429865E+04  0.25500000000E-02 0. -1.
          2   -1    0    0  501    0  0.00000000000E+00 -0.00000000000E+00 -0.21132537932E+02  0.21132538086E+02  0.25500000000E-02 0.  1.
    5000001    1    1    2    0    0  0.12556677877E+03 -0.14958894646E+03  0.24133155470E+04  0.24268211303E+04  0.16500000000E+03 0.  0.
   -5000001    1    1    2    0    0 -0.12556677877E+03  0.14958894646E+03  0.11220949015E+04  0.11508543943E+04  0.16500000000E+03 0.  0.
<mgrwt>
<rscale>  0 0.54830203E+03</rscale>
<asrwt>0</asrwt>
<pdfrwt beam="1">  1        2 0.32511602E-02 0.54830203E+03</pdfrwt>
<pdfrwt beam="2">  1       -2 0.54716037E+00 0.54830203E+03</pdfrwt>
<totfact> 0.28151563E+00</totfact>
</mgrwt>
</event>
<event>
 4    1  0.9050888E-005  0.6194443E+03  0.7818608E-02  0.9865867E-01
         -2   -1    0    0    0  501 -0.00000000000E+00  0.00000000000E+00  0.41104625239E+02  0.41104625318E+02  0.25500000000E-02 0. -1.
          2   -1    0    0  501    0  0.00000000000E+00 -0.00000000000E+00 -0.23337470103E+04  0.23337470103E+04  0.25500000000E-02 0.  1.
    5000001    1    1    2    0    0  0.10342149912E+03  0.24006920286E+03 -0.10722210707E+04  0.11158907890E+04  0.16500000000E+03 0.  0.
   -5000001    1    1    2    0    0 -0.10342149912E+03 -0.24006920286E+03 -0.12204213144E+04  0.12589608466E+04  0.16500000000E+03 0.  0.
<mgrwt>
<rscale>  0 0.61944426E+03</rscale>
<asrwt>0</asrwt>
<pdfrwt beam="1">  1        2 0.35903790E+00 0.61944426E+03</pdfrwt>
<pdfrwt beam="2">  1       -2 0.63237903E-02 0.61944426E+03</pdfrwt>
<totfact> 0.64693933E+02</totfact>
</mgrwt>
</event>
<event>
 4    1  0.9050888E-005  0.5277992E+03  0.7818608E-02  0.1006767E+00
         -2   -1    0    0    0  501 -0.00000000000E+00  0.00000000000E+00  0.10261367505E+03  0.10261367508E+03  0.25500000000E-02 0. -1.
          2   -1    0    0  501    0  0.00000000000E+00 -0.00000000000E+00 -0.67869107779E+03  0.67869107780E+03  0.25500000000E-02 0.  1.
    5000001    1    1    2    0    0 -0.13679081439E+03  0.15207780670E+03 -0.32364614714E+03  0.41690672188E+03  0.16500000000E+03 0.  0.
   -5000001    1    1    2    0    0  0.13679081439E+03 -0.15207780670E+03 -0.25243125560E+03  0.36439803100E+03  0.16500000000E+03 0.  0.
<mgrwt>
<rscale>  0 0.52779915E+03</rscale>
<asrwt>0</asrwt>
<pdfrwt beam="1">  1        2 0.10441401E+00 0.52779915E+03</pdfrwt>
<pdfrwt beam="2">  1       -2 0.15786720E-01 0.52779915E+03</pdfrwt>
<totfact> 0.13713692E+03</totfact>
</mgrwt>
</event>
<event>
 4    1  0.9050888E-005  0.4445169E+03  0.7818608E-02  0.1029370E+00
          2   -1    0    0  501    0  0.00000000000E+00  0.00000000000E+00  0.20471649805E+04  0.20471649805E+04  0.25500000000E-02 0.  1.
         -2   -1    0    0    0  501 -0.00000000000E+00 -0.00000000000E+00 -0.24130357352E+02  0.24130357487E+02  0.25500000000E-02 0. -1.
    5000001    1    1    2    0    0  0.10477900706E+03  0.10348164194E+03  0.90871597883E+03  0.93524158415E+03  0.16500000000E+03 0.  0.
   -5000001    1    1    2    0    0 -0.10477900706E+03 -0.10348164194E+03  0.11143186443E+04  0.11360537538E+04  0.16500000000E+03 0.  0.
<mgrwt>
<rscale>  0 0.44451692E+03</rscale>
<asrwt>0</asrwt>
<pdfrwt beam="1">  1        2 0.31494851E+00 0.44451692E+03</pdfrwt>
<pdfrwt beam="2">  1       -2 0.37123621E-02 0.44451692E+03</pdfrwt>
<totfact> 0.21368727E+03</totfact>
</mgrwt>
</event>
<event>
 4    1  0.9050888E-005  0.4993353E+03  0.7818608E-02  0.1013953E+00
         -2   -1    0    0    0  501 -0.00000000000E+00  0.00000000000E+00  0.82403840796E+02  0.82403840835E+02  0.25500000000E-02 0. -1.
          2   -1    0    0  501    0  0.00000000000E+00 -0.00000000000E+00 -0.75644442074E+03  0.75644442074E+03  0.25500000000E-02 0.  1.
    5000001    1    1    2    0    0  0.59304173038E+02 -0.15567860900E+02 -0.39575028987E+02  0.18041764368E+03  0.16500000000E+03 0.  0.
   -5000001    1    1    2    0    0 -0.59304173038E+02  0.15567860900E+02 -0.63446555096E+03  0.65843061789E+03  0.16500000000E+03 0.  0.
<mgrwt>
<rscale>  0 0.49933526E+03</rscale>
<asrwt>0</asrwt>
<pdfrwt beam="1">  1        2 0.11637606E+00 0.49933526E+03</pdfrwt>
<pdfrwt beam="2">  1       -2 0.12677515E-01 0.49933526E+03</pdfrwt>
<totfact> 0.17259300E+03</totfact>
</mgrwt>
</event>
<event>
 4    1  0.9050888E-005  0.4964109E+03  0.7818608E-02  0.1014720E+00
         -2   -1    0    0    0  501 -0.00000000000E+00  0.00000000000E+00  0.12098238063E+03  0.12098238066E+03  0.25500000000E-02 0. -1.
          2   -1    0    0  501    0  0.00000000000E+00 -0.00000000000E+00 -0.50921421789E+03  0.50921421789E+03  0.25500000000E-02 0.  1.
    5000001    1    1    2    0    0 -0.11000632980E+03 -0.14371811295E+03 -0.24528598106E+03  0.34662155312E+03  0.16500000000E+03 0.  0.
   -5000001    1    1    2    0    0  0.11000632980E+03  0.14371811295E+03 -0.14294585620E+03  0.28357504543E+03  0.16500000000E+03 0.  0.
<mgrwt>
<rscale>  0 0.49641091E+03</rscale>
<asrwt>0</asrwt>
<pdfrwt beam="1">  1        2 0.78340648E-01 0.49641091E+03</pdfrwt>
<pdfrwt beam="2">  1       -2 0.18612674E-01 0.49641091E+03</pdfrwt>
<totfact> 0.14573209E+03</totfact>
</mgrwt>
</event>
<event>
 4    1  0.9050888E-005  0.4935012E+03  0.7818608E-02  0.1015489E+00
          2   -1    0    0  501    0  0.00000000000E+00  0.00000000000E+00  0.83335431660E+03  0.83335431660E+03  0.25500000000E-02 0.  1.
         -2   -1    0    0    0  501 -0.00000000000E+00 -0.00000000000E+00 -0.73061187834E+02  0.73061187879E+02  0.25500000000E-02 0. -1.
    5000001    1    1    2    0    0  0.64679357373E+02 -0.55434564131E+02  0.67860073471E+03  0.70354841149E+03  0.16500000000E+03 0.  0.
   -5000001    1    1    2    0    0 -0.64679357373E+02  0.55434564131E+02  0.81692394058E+02  0.20286709299E+03  0.16500000000E+03 0.  0.
<mgrwt>
<rscale>  0 0.49350119E+03</rscale>
<asrwt>0</asrwt>
<pdfrwt beam="1">  1        2 0.12820835E+00 0.49350119E+03</pdfrwt>
<pdfrwt beam="2">  1       -2 0.11240183E-01 0.49350119E+03</pdfrwt>
<totfact> 0.18533237E+03</totfact>
</mgrwt>
</event>
<event>
 4    1  0.9050888E-005  0.8726285E+03  0.7818608E-02  0.9460459E-01
         -2   -1    0    0    0  501 -0.00000000000E+00  0.00000000000E+00  0.64824184724E+03  0.64824184724E+03  0.25500000000E-02 0. -1.
          2   -1    0    0  501    0  0.00000000000E+00 -0.00000000000E+00 -0.29367141957E+03  0.29367141958E+03  0.25500000000E-02 0.  1.
    5000001    1    1    2    0    0 -0.37904633198E+03  0.69744224277E+02  0.46839973958E+02  0.42185229852E+03  0.16500000000E+03 0.  0.
   -5000001    1    1    2    0    0  0.37904633198E+03 -0.69744224277E+02  0.30773045371E+03  0.52006096830E+03  0.16500000000E+03 0.  0.
<mgrwt>
<rscale>  0 0.87262845E+03</rscale>
<asrwt>0</asrwt>
<pdfrwt beam="1">  1        2 0.45180219E-01 0.87262845E+03</pdfrwt>
<pdfrwt beam="2">  1       -2 0.99729513E-01 0.87262845E+03</pdfrwt>
<totfact> 0.93893354E+01</totfact>
</mgrwt>
</event>
<event>
 4    1  0.9050888E-005  0.4622911E+03  0.7818608E-02  0.1024119E+00
         -2   -1    0    0    0  501 -0.00000000000E+00  0.00000000000E+00  0.21083200536E+02  0.21083200690E+02  0.25500000000E-02 0. -1.
          2   -1    0    0  501    0  0.00000000000E+00 -0.00000000000E+00 -0.25341629849E+04  0.25341629849E+04  0.25500000000E-02 0.  1.
    5000001    1    1    2    0    0  0.80479812862E+02  0.11071600648E+03 -0.17342078591E+04  0.17474086337E+04  0.16500000000E+03 0.  0.
   -5000001    1    1    2    0    0 -0.80479812862E+02 -0.11071600648E+03 -0.77887192521E+03  0.80783755189E+03  0.16500000000E+03 0.  0.
<mgrwt>
<rscale>  0 0.46229111E+03</rscale>
<asrwt>0</asrwt>
<pdfrwt beam="1">  1        2 0.38987099E+00 0.46229111E+03</pdfrwt>
<pdfrwt beam="2">  1       -2 0.32435713E-02 0.46229111E+03</pdfrwt>
<totfact> 0.14188411E+03</totfact>
</mgrwt>
</event>
<event>
 4    1  0.9050888E-005  0.7982666E+03  0.7818608E-02  0.9562530E-01
         -2   -1    0    0    0  501 -0.00000000000E+00  0.00000000000E+00  0.14763857022E+03  0.14763857024E+03  0.25500000000E-02 0. -1.
          2   -1    0    0  501    0  0.00000000000E+00 -0.00000000000E+00 -0.10790364440E+04  0.10790364440E+04  0.25500000000E-02 0.  1.
    5000001    1    1    2    0    0 -0.35427449702E+03  0.98769523918E+01 -0.34205234972E+03  0.51945431308E+03  0.16500000000E+03 0.  0.
   -5000001    1    1    2    0    0  0.35427449702E+03 -0.98769523918E+01 -0.58934552410E+03  0.70722070120E+03  0.16500000000E+03 0.  0.
<mgrwt>
<rscale>  0 0.79826662E+03</rscale>
<asrwt>0</asrwt>
<pdfrwt beam="1">  1        2 0.16600560E+00 0.79826662E+03</pdfrwt>
<pdfrwt beam="2">  1       -2 0.22713627E-01 0.79826662E+03</pdfrwt>
<totfact> 0.38434440E+02</totfact>
</mgrwt>
</event>
<event>
 4    1  0.9050888E-005  0.5757483E+03  0.7818608E-02  0.9957038E-01
         -2   -1    0    0    0  501 -0.00000000000E+00  0.00000000000E+00  0.17862258282E+02  0.17862258464E+02  0.25500000000E-02 0. -1.
          2   -1    0    0  501    0  0.00000000000E+00 -0.00000000000E+00 -0.46394766514E+04  0.46394766514E+04  0.25500000000E-02 0.  1.
    5000001    1    1    2    0    0 -0.16363139762E+03 -0.10825971206E+03 -0.33701866606E+04  0.33799228581E+04  0.16500000000E+03 0.  0.
   -5000001    1    1    2    0    0  0.16363139762E+03  0.10825971206E+03 -0.12514277325E+04  0.12774160517E+04  0.16500000000E+03 0.  0.
<mgrwt>
<rscale>  0 0.57574832E+03</rscale>
<asrwt>0</asrwt>
<pdfrwt beam="1">  1        2 0.71376468E+00 0.57574832E+03</pdfrwt>
<pdfrwt beam="2">  1       -2 0.27480434E-02 0.57574832E+03</pdfrwt>
<totfact> 0.54535792E+01</totfact>
</mgrwt>
</event>
<event>
 4    1  0.9050888E-005  0.4180350E+03  0.7818608E-02  0.1037708E+00
         -2   -1    0    0    0  501 -0.00000000000E+00  0.00000000000E+00  0.32596191948E+02  0.32596192048E+02  0.25500000000E-02 0. -1.
          2   -1    0    0  501    0  0.00000000000E+00 -0.00000000000E+00 -0.13402890184E+04  0.13402890184E+04  0.25500000000E-02 0.  1.
    5000001    1    1    2    0    0  0.99716036561E+02 -0.75476316296E+02 -0.55961073260E+03  0.59668176972E+03  0.16500000000E+03 0.  0.
   -5000001    1    1    2    0    0 -0.99716036561E+02  0.75476316296E+02 -0.74808209388E+03  0.77620344076E+03  0.16500000000E+03 0.  0.
<mgrwt>
<rscale>  0 0.41803501E+03</rscale>
<asrwt>0</asrwt>
<pdfrwt beam="1">  1        2 0.20619827E+00 0.41803501E+03</pdfrwt>
<pdfrwt beam="2">  1       -2 0.50147998E-02 0.41803501E+03</pdfrwt>
<totfact> 0.32535137E+03</totfact>
</mgrwt>
</event>
<event>
 4    1  0.9050888E-005  0.5841205E+03  0.7818608E-02  0.9938910E-01
          2   -1    0    0  501    0  0.00000000000E+00  0.00000000000E+00  0.17515213965E+04  0.17515213965E+04  0.25500000000E-02 0.  1.
         -2   -1    0    0    0  501 -0.00000000000E+00 -0.00000000000E+00 -0.48700061468E+02  0.48700061534E+02  0.25500000000E-02 0. -1.
    5000001    1    1    2    0    0  0.16145165583E+03  0.85357929818E+02  0.13359863633E+04  0.13584686880E+04  0.16500000000E+03 0.  0.
   -5000001    1    1    2    0    0 -0.16145165583E+03 -0.85357929818E+02  0.36683497176E+03  0.44175277006E+03  0.16500000000E+03 0.  0.
<mgrwt>
<rscale>  0 0.58412053E+03</rscale>
<asrwt>0</asrwt>
<pdfrwt beam="1">  1        2 0.26946479E+00 0.58412053E+03</pdfrwt>
<pdfrwt beam="2">  1       -2 0.74923182E-02 0.58412053E+03</pdfrwt>
<totfact> 0.10292515E+03</totfact>
</mgrwt>
</event>
<event>
 4    1  0.9050888E-005  0.7207854E+03  0.7818608E-02  0.9682332E-01
          2   -1    0    0  501    0  0.00000000000E+00  0.00000000000E+00  0.35564604914E+03  0.35564604915E+03  0.25500000000E-02 0.  1.
         -2   -1    0    0    0  501 -0.00000000000E+00 -0.00000000000E+00 -0.36520265467E+03  0.36520265467E+03  0.25500000000E-02 0. -1.
    5000001    1    1    2    0    0 -0.22659464019E+03  0.54794943547E+02 -0.22459358193E+03  0.36333853890E+03  0.16500000000E+03 0.  0.
   -5000001    1    1    2    0    0  0.22659464019E+03 -0.54794943547E+02  0.21503697641E+03  0.35751016493E+03  0.16500000000E+03 0.  0.
<mgrwt>
<rscale>  0 0.72078535E+03</rscale>
<asrwt>0</asrwt>
<pdfrwt beam="1">  1        2 0.54714777E-01 0.72078535E+03</pdfrwt>
<pdfrwt beam="2">  1       -2 0.56185024E-01 0.72078535E+03</pdfrwt>
<totfact> 0.27243290E+02</totfact>
</mgrwt>
</event>
<event>
 4    1  0.9050888E-005  0.3748073E+03  0.7818608E-02  0.1052870E+00
         -2   -1    0    0    0  501 -0.00000000000E+00  0.00000000000E+00  0.20788432083E+03  0.20788432084E+03  0.25500000000E-02 0. -1.
          2   -1    0    0  501    0  0.00000000000E+00 -0.00000000000E+00 -0.16894070183E+03  0.16894070185E+03  0.25500000000E-02 0.  1.
    5000001    1    1    2    0    0  0.18333803729E+01  0.66619704778E+02  0.78555318135E+02  0.19451859643E+03  0.16500000000E+03 0.  0.
   -5000001    1    1    2    0    0 -0.18333803729E+01 -0.66619704778E+02 -0.39611699137E+02  0.18230642626E+03  0.16500000000E+03 0.  0.
<mgrwt>
<rscale>  0 0.37480727E+03</rscale>
<asrwt>0</asrwt>
<pdfrwt beam="1">  1        2 0.25990877E-01 0.37480727E+03</pdfrwt>
<pdfrwt beam="2">  1       -2 0.31982203E-01 0.37480727E+03</pdfrwt>
<totfact> 0.18826601E+03</totfact>
</mgrwt>
</event>
<event>
 4    1  0.9050888E-005  0.1092744E+04  0.7818608E-02  0.9212293E-01
         -2   -1    0    0    0  501 -0.00000000000E+00  0.00000000000E+00  0.18829733847E+03  0.18829733848E+03  0.25500000000E-02 0. -1.
          2   -1    0    0  501    0  0.00000000000E+00 -0.00000000000E+00 -0.15853782981E+04  0.15853782981E+04  0.25500000000E-02 0.  1.
    5000001    1    1    2    0    0  0.27875914026E+03  0.17199387768E+02 -0.14121588333E+04  0.14489375583E+04  0.16500000000E+03 0.  0.
   -5000001    1    1    2    0    0 -0.27875914026E+03 -0.17199387768E+02  0.15077873716E+02  0.32473807829E+03  0.16500000000E+03 0.  0.
<mgrwt>
<rscale>  0 0.10927443E+04</rscale>
<asrwt>0</asrwt>
<pdfrwt beam="1">  1        2 0.24390435E+00 0.10927443E+04</pdfrwt>
<pdfrwt beam="2">  1       -2 0.28968822E-01 0.10927443E+04</pdfrwt>
<totfact> 0.12348188E+02</totfact>
</mgrwt>
</event>
<event>
 4    1  0.9050888E-005  0.4622964E+03  0.7818608E-02  0.1024117E+00
         -2   -1    0    0    0  501 -0.00000000000E+00  0.00000000000E+00  0.16933675074E+03  0.16933675075E+03  0.25500000000E-02 0. -1.
          2   -1    0    0  501    0  0.00000000000E+00 -0.00000000000E+00 -0.31552214650E+03  0.31552214651E+03  0.25500000000E-02 0.  1.
    5000001    1    1    2    0    0  0.49907354114E+01 -0.95049199401E+02 -0.21042306763E+03  0.28383467924E+03  0.16500000000E+03 0.  0.
   -5000001    1    1    2    0    0 -0.49907354114E+01  0.95049199401E+02  0.64237671867E+02  0.20102421803E+03  0.16500000000E+03 0.  0.
<mgrwt>
<rscale>  0 0.46229642E+03</rscale>
<asrwt>0</asrwt>
<pdfrwt beam="1">  1        2 0.48541869E-01 0.46229642E+03</pdfrwt>
<pdfrwt beam="2">  1       -2 0.26051808E-01 0.46229642E+03</pdfrwt>
<totfact> 0.13760442E+03</totfact>
</mgrwt>
</event>
<event>
 4    1  0.9050888E-005  0.5622906E+03  0.7818608E-02  0.9986885E-01
          2   -1    0    0  501    0  0.00000000000E+00  0.00000000000E+00  0.16376099249E+04  0.16376099249E+04  0.25500000000E-02 0.  1.
         -2   -1    0    0    0  501 -0.00000000000E+00 -0.00000000000E+00 -0.48267093074E+02  0.48267093141E+02  0.25500000000E-02 0. -1.
    5000001    1    1    2    0    0 -0.18986500113E+03  0.11156454825E+03  0.62185509593E+03  0.68001774052E+03  0.16500000000E+03 0.  0.
   -5000001    1    1    2    0    0  0.18986500113E+03 -0.11156454825E+03  0.96748773586E+03  0.10058592775E+04  0.16500000000E+03 0.  0.
<mgrwt>
<rscale>  0 0.56229057E+03</rscale>
<asrwt>0</asrwt>
<pdfrwt beam="1">  1        2 0.25193995E+00 0.56229057E+03</pdfrwt>
<pdfrwt beam="2">  1       -2 0.74257077E-02 0.56229057E+03</pdfrwt>
<totfact> 0.12049190E+03</totfact>
</mgrwt>
</event>
<event>
 4    1  0.9050888E-005  0.4138712E+03  0.7818608E-02  0.1039080E+00
         -2   -1    0    0    0  501 -0.00000000000E+00  0.00000000000E+00  0.87805673451E+02  0.87805673488E+02  0.25500000000E-02 0. -1.
          2   -1    0    0  501    0  0.00000000000E+00 -0.00000000000E+00 -0.48769447152E+03  0.48769447153E+03  0.25500000000E-02 0.  1.
    5000001    1    1    2    0    0 -0.83359856833E+02  0.90640468700E+02 -0.17101666322E+03  0.26764950849E+03  0.16500000000E+03 0.  0.
   -5000001    1    1    2    0    0  0.83359856833E+02 -0.90640468700E+02 -0.22887213485E+03  0.30785063652E+03  0.16500000000E+03 0.  0.
<mgrwt>
<rscale>  0 0.41387120E+03</rscale>
<asrwt>0</asrwt>
<pdfrwt beam="1">  1        2 0.75029917E-01 0.41387120E+03</pdfrwt>
<pdfrwt beam="2">  1       -2 0.13508565E-01 0.41387120E+03</pdfrwt>
<totfact> 0.26234684E+03</totfact>
</mgrwt>
</event>
<event>
 4    1  0.9050888E-005  0.4017986E+03  0.7818608E-02  0.1043159E+00
          2   -1    0    0  501    0  0.00000000000E+00  0.00000000000E+00  0.36376951576E+03  0.36376951577E+03  0.25500000000E-02 0.  1.
         -2   -1    0    0    0  501 -0.00000000000E+00 -0.00000000000E+00 -0.11095083431E+03  0.11095083434E+03  0.25500000000E-02 0. -1.
    5000001    1    1    2    0    0  0.10496129298E+03 -0.53643782324E+01  0.72397339587E+02  0.20859536034E+03  0.16500000000E+03 0.  0.
   -5000001    1    1    2    0    0 -0.10496129298E+03  0.53643782324E+01  0.18042134187E+03  0.26612498977E+03  0.16500000000E+03 0.  0.
<mgrwt>
<rscale>  0 0.40179861E+03</rscale>
<asrwt>0</asrwt>
<pdfrwt beam="1">  1        2 0.55964541E-01 0.40179861E+03</pdfrwt>
<pdfrwt beam="2">  1       -2 0.17069359E-01 0.40179861E+03</pdfrwt>
<totfact> 0.24566463E+03</totfact>
</mgrwt>
</event>
<event>
 4    1  0.9050888E-005  0.4015080E+03  0.7818608E-02  0.1043259E+00
          2   -1    0    0  501    0  0.00000000000E+00  0.00000000000E+00  0.26781040235E+04  0.26781040235E+04  0.25500000000E-02 0.  1.
         -2   -1    0    0    0  501 -0.00000000000E+00 -0.00000000000E+00 -0.15048769190E+02  0.15048769406E+02  0.25500000000E-02 0. -1.
    5000001    1    1    2    0    0  0.37290039631E+02  0.94014639292E+02  0.16894813441E+04  0.17005297738E+04  0.16500000000E+03 0.  0.
   -5000001    1    1    2    0    0 -0.37290039631E+02 -0.94014639292E+02  0.97357391019E+03  0.99262301911E+03  0.16500000000E+03 0.  0.
<mgrwt>
<rscale>  0 0.40150801E+03</rscale>
<asrwt>0</asrwt>
<pdfrwt beam="1">  1        2 0.41201606E+00 0.40150801E+03</pdfrwt>
<pdfrwt beam="2">  1       -2 0.23151950E-02 0.40150801E+03</pdfrwt>
<totfact> 0.19639126E+03</totfact>
</mgrwt>
</event>
<event>
 4    1  0.9050888E-005  0.4734777E+03  0.7818608E-02  0.1020943E+00
         -2   -1    0    0    0  501 -0.00000000000E+00  0.00000000000E+00  0.17095015232E+02  0.17095015422E+02  0.25500000000E-02 0. -1.
          2   -1    0    0  501    0  0.00000000000E+00 -0.00000000000E+00 -0.32784575897E+04  0.32784575897E+04  0.25500000000E-02 0.  1.
    5000001    1    1    2    0    0 -0.12668166394E+03 -0.10547419603E+03 -0.13481892546E+04  0.13682150109E+04  0.16500000000E+03 0.  0.
   -5000001    1    1    2    0    0  0.12668166394E+03  0.10547419603E+03 -0.19131733199E+04  0.19273375942E+04  0.16500000000E+03 0.  0.
<mgrwt>
<rscale>  0 0.47347770E+03</rscale>
<asrwt>0</asrwt>
<pdfrwt beam="1">  1        2 0.50437759E+00 0.47347770E+03</pdfrwt>
<pdfrwt beam="2">  1       -2 0.26300050E-02 0.47347770E+03</pdfrwt>
<totfact> 0.70114603E+02</totfact>
</mgrwt>
</event>
<event>
 4    1  0.9050888E-005  0.4502501E+03  0.7818608E-02  0.1027647E+00
         -2   -1    0    0    0  501 -0.00000000000E+00  0.00000000000E+00  0.15286360178E+03  0.15286360180E+03  0.25500000000E-02 0. -1.
          2   -1    0    0  501    0  0.00000000000E+00 -0.00000000000E+00 -0.33154583108E+03  0.33154583109E+03  0.25500000000E-02 0.  1.
    5000001    1    1    2    0    0 -0.15098845735E+03  0.80400633056E+01 -0.63117013313E+02  0.23253153386E+03  0.16500000000E+03 0.  0.
   -5000001    1    1    2    0    0  0.15098845735E+03 -0.80400633056E+01 -0.11556521599E+03  0.25187789902E+03  0.16500000000E+03 0.  0.
<mgrwt>
<rscale>  0 0.45025011E+03</rscale>
<asrwt>0</asrwt>
<pdfrwt beam="1">  1        2 0.51007051E-01 0.45025011E+03</pdfrwt>
<pdfrwt beam="2">  1       -2 0.23517477E-01 0.45025011E+03</pdfrwt>
<totfact> 0.15640114E+03</totfact>
</mgrwt>
</event>
<event>
 4    1  0.9050888E-005  0.3841595E+03  0.7818608E-02  0.1049407E+00
         -2   -1    0    0    0  501 -0.00000000000E+00  0.00000000000E+00  0.34796391200E+03  0.34796391201E+03  0.25500000000E-02 0. -1.
          2   -1    0    0  501    0  0.00000000000E+00 -0.00000000000E+00 -0.10603005311E+03  0.10603005314E+03  0.25500000000E-02 0.  1.
    5000001    1    1    2    0    0 -0.91385935711E+02  0.13401579322E+02  0.81089072896E+02  0.20574603111E+03  0.16500000000E+03 0.  0.
   -5000001    1    1    2    0    0  0.91385935711E+02 -0.13401579322E+02  0.16084478599E+03  0.24824793404E+03  0.16500000000E+03 0.  0.
<mgrwt>
<rscale>  0 0.38415951E+03</rscale>
<asrwt>0</asrwt>
<pdfrwt beam="1">  1        2 0.16312316E-01 0.38415951E+03</pdfrwt>
<pdfrwt beam="2">  1       -2 0.53532910E-01 0.38415951E+03</pdfrwt>
<totfact> 0.11875915E+03</totfact>
</mgrwt>
</event>
<event>
 4    1  0.9050888E-005  0.4389263E+03  0.7818608E-02  0.1031077E+00
         -2   -1    0    0    0  501 -0.00000000000E+00  0.00000000000E+00  0.20420568531E+02  0.20420568690E+02  0.25500000000E-02 0. -1.
          2   -1    0    0  501    0  0.00000000000E+00 -0.00000000000E+00 -0.23586058461E+04  0.23586058461E+04  0.25500000000E-02 0.  1.
    5000001    1    1    2    0    0  0.11092734651E+03  0.74359899785E+02 -0.86708036361E+03  0.89268562655E+03  0.16500000000E+03 0.  0.
   -5000001    1    1    2    0    0 -0.11092734651E+03 -0.74359899785E+02 -0.14711049140E+04  0.14863407883E+04  0.16500000000E+03 0.  0.
<mgrwt>
<rscale>  0 0.43892629E+03</rscale>
<asrwt>0</asrwt>
<pdfrwt beam="1">  1        2 0.36286222E+00 0.43892629E+03</pdfrwt>
<pdfrwt beam="2">  1       -2 0.31416278E-02 0.43892629E+03</pdfrwt>
<totfact> 0.18665284E+03</totfact>
</mgrwt>
</event>
<event>
 4    1  0.9050888E-005  0.3764258E+03  0.7818608E-02  0.1052263E+00
         -2   -1    0    0    0  501 -0.00000000000E+00  0.00000000000E+00  0.59003276376E+02  0.59003276431E+02  0.25500000000E-02 0. -1.
          2   -1    0    0  501    0  0.00000000000E+00 -0.00000000000E+00 -0.60037520688E+03  0.60037520689E+03  0.25500000000E-02 0.  1.
    5000001    1    1    2    0    0 -0.42250789960E+02 -0.34086060437E+02 -0.14373895671E+03  0.22546147442E+03  0.16500000000E+03 0.  0.
   -5000001    1    1    2    0    0  0.42250789960E+02  0.34086060437E+02 -0.39763297379E+03  0.43391700890E+03  0.16500000000E+03 0.  0.
<mgrwt>
<rscale>  0 0.37642585E+03</rscale>
<asrwt>0</asrwt>
<pdfrwt beam="1">  1        2 0.92365412E-01 0.37642585E+03</pdfrwt>
<pdfrwt beam="2">  1       -2 0.90774275E-02 0.37642585E+03</pdfrwt>
<totfact> 0.39245773E+03</totfact>
</mgrwt>
</event>
<event>
 4    1  0.9050888E-005  0.4989129E+03  0.7818608E-02  0.1014063E+00
         -2   -1    0    0    0  501 -0.00000000000E+00  0.00000000000E+00  0.43078533320E+02  0.43078533395E+02  0.25500000000E-02 0. -1.
          2   -1    0    0  501    0  0.00000000000E+00 -0.00000000000E+00 -0.14445369125E+04  0.14445369125E+04  0.25500000000E-02 0.  1.
    5000001    1    1    2    0    0  0.13398418010E+02  0.17799207370E+03 -0.53357135228E+03  0.58633103609E+03  0.16500000000E+03 0.  0.
   -5000001    1    1    2    0    0 -0.13398418010E+02 -0.17799207370E+03 -0.86788702686E+03  0.90128440977E+03  0.16500000000E+03 0.  0.
<mgrwt>
<rscale>  0 0.49891294E+03</rscale>
<asrwt>0</asrwt>
<pdfrwt beam="1">  1        2 0.22223641E+00 0.49891294E+03</pdfrwt>
<pdfrwt beam="2">  1       -2 0.66274678E-02 0.49891294E+03</pdfrwt>
<totfact> 0.18436362E+03</totfact>
</mgrwt>
</event>
<event>
 4    1  0.9050888E-005  0.4677928E+03  0.7818608E-02  0.1022545E+00
          2   -1    0    0  501    0  0.00000000000E+00  0.00000000000E+00  0.37684766461E+04  0.37684766461E+04  0.25500000000E-02 0. -1.
         -2   -1    0    0    0  501 -0.00000000000E+00 -0.00000000000E+00 -0.14517147939E+02  0.14517148163E+02  0.25500000000E-02 0.  1.
    5000001    1    1    2    0    0  0.14233477211E+03 -0.83006524516E+02  0.20246100740E+04  0.20379941664E+04  0.16500000000E+03 0.  0.
   -5000001    1    1    2    0    0 -0.14233477211E+03  0.83006524516E+02  0.17293494241E+04  0.17449996278E+04  0.16500000000E+03 0.  0.
<mgrwt>
<rscale>  0 0.46779283E+03</rscale>
<asrwt>0</asrwt>
<pdfrwt beam="1">  1        2 0.57976608E+00 0.46779283E+03</pdfrwt>
<pdfrwt beam="2">  1       -2 0.22334057E-02 0.46779283E+03</pdfrwt>
<totfact> 0.41697344E+02</totfact>
</mgrwt>
</event>
<event>
 4    1  0.9050888E-005  0.6898030E+03  0.7818608E-02  0.9734831E-01
          2   -1    0    0  501    0  0.00000000000E+00  0.00000000000E+00  0.28457160352E+03  0.28457160353E+03  0.25500000000E-02 0.  1.
         -2   -1    0    0    0  501 -0.00000000000E+00 -0.00000000000E+00 -0.41802154601E+03  0.41802154602E+03  0.25500000000E-02 0. -1.
    5000001    1    1    2    0    0 -0.20217868037E+02 -0.30186093323E+03 -0.52203107901E+02  0.34853830446E+03  0.16500000000E+03 0.  0.
   -5000001    1    1    2    0    0  0.20217868037E+02  0.30186093323E+03 -0.81246834588E+02  0.35405484509E+03  0.16500000000E+03 0.  0.
<mgrwt>
<rscale>  0 0.68980305E+03</rscale>
<asrwt>0</asrwt>
<pdfrwt beam="1">  1        2 0.43780247E-01 0.68980305E+03</pdfrwt>
<pdfrwt beam="2">  1       -2 0.64311007E-01 0.68980305E+03</pdfrwt>
<totfact> 0.26270481E+02</totfact>
</mgrwt>
</event>
<event>
 4    1  0.9050888E-005  0.5319861E+03  0.7818608E-02  0.1005752E+00
         -2   -1    0    0    0  501 -0.00000000000E+00  0.00000000000E+00  0.35173520978E+02  0.35173521070E+02  0.25500000000E-02 0. -1.
          2   -1    0    0  501    0  0.00000000000E+00 -0.00000000000E+00 -0.20115220616E+04  0.20115220616E+04  0.25500000000E-02 0.  1.
    5000001    1    1    2    0    0 -0.20162598989E+03  0.49184558821E+02 -0.10702531826E+04  0.11026055666E+04  0.16500000000E+03 0.  0.
   -5000001    1    1    2    0    0  0.20162598989E+03 -0.49184558821E+02 -0.90609535804E+03  0.94409001609E+03  0.16500000000E+03 0.  0.
<mgrwt>
<rscale>  0 0.53198614E+03</rscale>
<asrwt>0</asrwt>
<pdfrwt beam="1">  1        2 0.30946484E+00 0.53198614E+03</pdfrwt>
<pdfrwt beam="2">  1       -2 0.54113125E-02 0.53198614E+03</pdfrwt>
<totfact> 0.12453753E+03</totfact>
</mgrwt>
</event>
<event>
 4    1  0.9050888E-005  0.5831416E+03  0.7818608E-02  0.9941013E-01
         -2   -1    0    0    0  501 -0.00000000000E+00  0.00000000000E+00  0.62295057004E+03  0.62295057005E+03  0.25500000000E-02 0. -1.
          2   -1    0    0  501    0  0.00000000000E+00 -0.00000000000E+00 -0.13646913858E+03  0.13646913860E+03  0.25500000000E-02 0.  1.
    5000001    1    1    2    0    0  0.10473875242E+03  0.21524114354E+03  0.21442589417E+03  0.36125118716E+03  0.16500000000E+03 0.  0.
   -5000001    1    1    2    0    0 -0.10473875242E+03 -0.21524114354E+03  0.27205553730E+03  0.39816852149E+03  0.16500000000E+03 0.  0.
<mgrwt>
<rscale>  0 0.58314159E+03</rscale>
<asrwt>0</asrwt>
<pdfrwt beam="1">  1        2 0.20995252E-01 0.58314159E+03</pdfrwt>
<pdfrwt beam="2">  1       -2 0.95838550E-01 0.58314159E+03</pdfrwt>
<totfact> 0.24798641E+02</totfact>
</mgrwt>
</event>
<event>
 4    1  0.9050888E-005  0.1692875E+04  0.7818608E-02  0.8765439E-01
          2   -1    0    0  501    0  0.00000000000E+00  0.00000000000E+00  0.60222041845E+03  0.60222041846E+03  0.25500000000E-02 0.  1.
         -2   -1    0    0    0  501 -0.00000000000E+00 -0.00000000000E+00 -0.11896909052E+04  0.11896909052E+04  0.25500000000E-02 0. -1.
    5000001    1    1    2    0    0 -0.15165230478E+03 -0.27045864369E+03  0.52143839448E+03  0.62870446056E+03  0.16500000000E+03 0.  0.
   -5000001    1    1    2    0    0  0.15165230478E+03  0.27045864369E+03 -0.11089088812E+04  0.11632068631E+04  0.16500000000E+03 0.  0.
<mgrwt>
<rscale>  0 0.16928747E+04</rscale>
<asrwt>0</asrwt>
<pdfrwt beam="1">  1        2 0.92649295E-01 0.16928747E+04</pdfrwt>
<pdfrwt beam="2">  1       -2 0.18302937E+00 0.16928747E+04</pdfrwt>
<totfact> 0.81169538E+00</totfact>
</mgrwt>
</event>
<event>
 4    1  0.9050888E-005  0.7789388E+03  0.7818608E-02  0.9591013E-01
          2   -1    0    0  501    0  0.00000000000E+00  0.00000000000E+00  0.63328711348E+03  0.63328711348E+03  0.25500000000E-02 0.  1.
         -2   -1    0    0    0  501 -0.00000000000E+00 -0.00000000000E+00 -0.23952233588E+03  0.23952233589E+03  0.25500000000E-02 0. -1.
    5000001    1    1    2    0    0  0.17856719539E+03 -0.69648440556E+02 -0.13499370234E+03  0.28668004502E+03  0.16500000000E+03 0.  0.
   -5000001    1    1    2    0    0 -0.17856719539E+03  0.69648440556E+02  0.52875847994E+03  0.58612940435E+03  0.16500000000E+03 0.  0.
<mgrwt>
<rscale>  0 0.77893879E+03</rscale>
<asrwt>0</asrwt>
<pdfrwt beam="1">  1        2 0.97428787E-01 0.77893879E+03</pdfrwt>
<pdfrwt beam="2">  1       -2 0.36849590E-01 0.77893879E+03</pdfrwt>
<totfact> 0.32408750E+02</totfact>
</mgrwt>
</event>
<event>
 4    1  0.9050888E-005  0.6371225E+03  0.7818608E-02  0.9831248E-01
          2   -1    0    0  501    0  0.00000000000E+00  0.00000000000E+00  0.32296693332E+03  0.32296693333E+03  0.25500000000E-02 0.  1.
         -2   -1    0    0    0  501 -0.00000000000E+00 -0.00000000000E+00 -0.31421563146E+03  0.31421563147E+03  0.25500000000E-02 0. -1.
    5000001    1    1    2    0    0 -0.19377396717E+03 -0.18388753874E+03  0.58169958366E+02  0.31933011338E+03  0.16500000000E+03 0.  0.
   -5000001    1    1    2    0    0  0.19377396717E+03  0.18388753874E+03 -0.49418656508E+02  0.31785245141E+03  0.16500000000E+03 0.  0.
<mgrwt>
<rscale>  0 0.63712247E+03</rscale>
<asrwt>0</asrwt>
<pdfrwt beam="1">  1        2 0.49687221E-01 0.63712247E+03</pdfrwt>
<pdfrwt beam="2">  1       -2 0.48340866E-01 0.63712247E+03</pdfrwt>
<totfact> 0.41359171E+02</totfact>
</mgrwt>
</event>
<event>
 4    1  0.9050888E-005  0.3749977E+03  0.7818608E-02  0.1052798E+00
         -2   -1    0    0    0  501 -0.00000000000E+00  0.00000000000E+00  0.95861990102E+02  0.95861990136E+02  0.25500000000E-02 0. -1.
          2   -1    0    0  501    0  0.00000000000E+00 -0.00000000000E+00 -0.36673364981E+03  0.36673364982E+03  0.25500000000E-02 0.  1.
    5000001    1    1    2    0    0  0.71722237512E+02 -0.28488279203E+02 -0.19026020017E+03  0.26340008575E+03  0.16500000000E+03 0.  0.
   -5000001    1    1    2    0    0 -0.71722237512E+02  0.28488279203E+02 -0.80611459540E+02  0.19919555420E+03  0.16500000000E+03 0.  0.
<mgrwt>
<rscale>  0 0.37499769E+03</rscale>
<asrwt>0</asrwt>
<pdfrwt beam="1">  1        2 0.56420561E-01 0.37499769E+03</pdfrwt>
<pdfrwt beam="2">  1       -2 0.14747999E-01 0.37499769E+03</pdfrwt>
<totfact> 0.31079968E+03</totfact>
</mgrwt>
</event>
<event>
 4    1  0.9050888E-005  0.6930158E+03  0.7818608E-02  0.9729251E-01
          2   -1    0    0  501    0  0.00000000000E+00  0.00000000000E+00  0.75528918089E+03  0.75528918090E+03  0.25500000000E-02 0.  1.
         -2   -1    0    0    0  501 -0.00000000000E+00 -0.00000000000E+00 -0.15896920697E+03  0.15896920699E+03  0.25500000000E-02 0. -1.
    5000001    1    1    2    0    0 -0.26451303085E+03  0.11657363856E+03  0.42528881116E+03  0.54004826598E+03  0.16500000000E+03 0.  0.
   -5000001    1    1    2    0    0  0.26451303085E+03 -0.11657363856E+03  0.17103116276E+03  0.37421012190E+03  0.16500000000E+03 0.  0.
<mgrwt>
<rscale>  0 0.69301579E+03</rscale>
<asrwt>0</asrwt>
<pdfrwt beam="1">  1        2 0.11619834E+00 0.69301579E+03</pdfrwt>
<pdfrwt beam="2">  1       -2 0.24456801E-01 0.69301579E+03</pdfrwt>
<totfact> 0.55747095E+02</totfact>
</mgrwt>
</event>
<event>
 4    1  0.9050888E-005  0.3697616E+03  0.7818608E-02  0.1054784E+00
         -2   -1    0    0    0  501 -0.00000000000E+00  0.00000000000E+00  0.47367777841E+03  0.47367777842E+03  0.25500000000E-02 0. -1.
          2   -1    0    0  501    0  0.00000000000E+00 -0.00000000000E+00 -0.72160680899E+02  0.72160680944E+02  0.25500000000E-02 0.  1.
    5000001    1    1    2    0    0 -0.78144752739E+02 -0.13620251188E+02  0.23879150606E+03  0.30089615649E+03  0.16500000000E+03 0.  0.
   -5000001    1    1    2    0    0  0.78144752739E+02  0.13620251188E+02  0.16272559144E+03  0.24494230287E+03  0.16500000000E+03 0.  0.
<mgrwt>
<rscale>  0 0.36976160E+03</rscale>
<asrwt>0</asrwt>
<pdfrwt beam="1">  1        2 0.11101643E-01 0.36976160E+03</pdfrwt>
<pdfrwt beam="2">  1       -2 0.72873503E-01 0.36976160E+03</pdfrwt>
<totfact> 0.98947820E+02</totfact>
</mgrwt>
</event>
<event>
 4    1  0.9050888E-005  0.5257208E+03  0.7818608E-02  0.1007275E+00
         -2   -1    0    0    0  501 -0.00000000000E+00  0.00000000000E+00  0.57338441647E+02  0.57338441703E+02  0.25500000000E-02 0. -1.
          2   -1    0    0  501    0  0.00000000000E+00 -0.00000000000E+00 -0.12050483999E+04  0.12050483999E+04  0.25500000000E-02 0.  1.
    5000001    1    1    2    0    0 -0.18357313500E+03  0.70192018922E+02 -0.71063310580E+03  0.75554644230E+03  0.16500000000E+03 0.  0.
   -5000001    1    1    2    0    0  0.18357313500E+03 -0.70192018922E+02 -0.43707685244E+03  0.50684039929E+03  0.16500000000E+03 0.  0.
<mgrwt>
<rscale>  0 0.52572083E+03</rscale>
<asrwt>0</asrwt>
<pdfrwt beam="1">  1        2 0.18539204E+00 0.52572083E+03</pdfrwt>
<pdfrwt beam="2">  1       -2 0.88212996E-02 0.52572083E+03</pdfrwt>
<totfact> 0.16005159E+03</totfact>
</mgrwt>
</event>
<event>
 4    1  0.9050888E-005  0.4123332E+03  0.7818608E-02  0.1039591E+00
          2   -1    0    0  501    0  0.00000000000E+00  0.00000000000E+00  0.25749759818E+02  0.25749759945E+02  0.25500000000E-02 0.  1.
         -2   -1    0    0    0  501 -0.00000000000E+00 -0.00000000000E+00 -0.16506822770E+04  0.16506822770E+04  0.25500000000E-02 0. -1.
    5000001    1    1    2    0    0  0.11123766789E+02  0.63071905724E+02 -0.12423164494E+04  0.12548613326E+04  0.16500000000E+03 0.  0.
   -5000001    1    1    2    0    0 -0.11123766789E+02 -0.63071905724E+02 -0.38261606776E+03  0.42157070437E+03  0.16500000000E+03 0.  0.
<mgrwt>
<rscale>  0 0.41233323E+03</rscale>
<asrwt>0</asrwt>
<pdfrwt beam="1">  1        2 0.39615028E-02 0.41233323E+03</pdfrwt>
<pdfrwt beam="2">  1       -2 0.25395104E+00 0.41233323E+03</pdfrwt>
<totfact> 0.14484692E+02</totfact>
</mgrwt>
</event>
<event>
 4    1  0.9050888E-005  0.4151406E+03  0.7818608E-02  0.1038660E+00
          2   -1    0    0  501    0  0.00000000000E+00  0.00000000000E+00  0.10198985709E+04  0.10198985709E+04  0.25500000000E-02 0.  1.
         -2   -1    0    0    0  501 -0.00000000000E+00 -0.00000000000E+00 -0.42244823776E+02  0.42244823853E+02  0.25500000000E-02 0. -1.
    5000001    1    1    2    0    0  0.11550210237E+03 -0.45371948053E+01  0.36092381878E+03  0.41334286586E+03  0.16500000000E+03 0.  0.
   -5000001    1    1    2    0    0 -0.11550210237E+03  0.45371948053E+01  0.61672992835E+03  0.64880052891E+03  0.16500000000E+03 0.  0.
<mgrwt>
<rscale>  0 0.41514063E+03</rscale>
<asrwt>0</asrwt>
<pdfrwt beam="1">  1        2 0.15690747E+00 0.41514063E+03</pdfrwt>
<pdfrwt beam="2">  1       -2 0.64992038E-02 0.41514063E+03</pdfrwt>
<totfact> 0.33510884E+03</totfact>
</mgrwt>
</event>
<event>
 4    1  0.9050888E-005  0.4230185E+03  0.7818608E-02  0.1036088E+00
          2   -1    0    0  501    0  0.00000000000E+00  0.00000000000E+00  0.62047377063E+02  0.62047377116E+02  0.25500000000E-02 0.  1.
         -2   -1    0    0    0  501 -0.00000000000E+00 -0.00000000000E+00 -0.72099991802E+03  0.72099991802E+03  0.25500000000E-02 0. -1.
    5000001    1    1    2    0    0 -0.11258189477E+03 -0.36504346321E+02 -0.43904957089E+03  0.48373213252E+03  0.16500000000E+03 0.  0.
   -5000001    1    1    2    0    0  0.11258189477E+03  0.36504346321E+02 -0.21990297006E+03  0.29931516262E+03  0.16500000000E+03 0.  0.
<mgrwt>
<rscale>  0 0.42301846E+03</rscale>
<asrwt>0</asrwt>
<pdfrwt beam="1">  1        2 0.95457508E-02 0.42301846E+03</pdfrwt>
<pdfrwt beam="2">  1       -2 0.11092306E+00 0.42301846E+03</pdfrwt>
<totfact> 0.45828554E+02</totfact>
</mgrwt>
</event>
<event>
 4    1  0.9050888E-005  0.6849709E+03  0.7818608E-02  0.9743285E-01
          2   -1    0    0  501    0  0.00000000000E+00  0.00000000000E+00  0.10413848880E+04  0.10413848880E+04  0.25500000000E-02 0.  1.
         -2   -1    0    0    0  501 -0.00000000000E+00 -0.00000000000E+00 -0.11263489870E+03  0.11263489873E+03  0.25500000000E-02 0. -1.
    5000001    1    1    2    0    0 -0.25778707312E+03 -0.25082001602E+02  0.71981665429E+03  0.78258820439E+03  0.16500000000E+03 0.  0.
   -5000001    1    1    2    0    0  0.25778707312E+03  0.25082001602E+02  0.20893333498E+03  0.37143158231E+03  0.16500000000E+03 0.  0.
<mgrwt>
<rscale>  0 0.68497089E+03</rscale>
<asrwt>0</asrwt>
<pdfrwt beam="1">  1        2 0.16021307E+00 0.68497089E+03</pdfrwt>
<pdfrwt beam="2">  1       -2 0.17328445E-01 0.68497089E+03</pdfrwt>
<totfact> 0.65406085E+02</totfact>
</mgrwt>
</event>
<event>
 4    1  0.9050888E-005  0.4563287E+03  0.7818608E-02  0.1025851E+00
          2   -1    0    0  501    0  0.00000000000E+00  0.00000000000E+00  0.18571489219E+04  0.18571489219E+04  0.25500000000E-02 0. -1.
         -2   -1    0    0    0  501 -0.00000000000E+00 -0.00000000000E+00 -0.28031656888E+02  0.28031657004E+02  0.25500000000E-02 0.  1.
    5000001    1    1    2    0    0 -0.11295370122E+03 -0.87563286329E+02  0.11888427260E+04  0.12087174587E+04  0.16500000000E+03 0.  0.
   -5000001    1    1    2    0    0  0.11295370122E+03  0.87563286329E+02  0.64027453902E+03  0.67646312024E+03  0.16500000000E+03 0.  0.
<mgrwt>
<rscale>  0 0.45632866E+03</rscale>
<asrwt>0</asrwt>
<pdfrwt beam="1">  1        2 0.28571526E+00 0.45632866E+03</pdfrwt>
<pdfrwt beam="2">  1       -2 0.43125620E-02 0.45632866E+03</pdfrwt>
<totfact> 0.21479768E+03</totfact>
</mgrwt>
</event>
<event>
 4    1  0.9050888E-005  0.3702586E+03  0.7818608E-02  0.1054594E+00
          2   -1    0    0  501    0  0.00000000000E+00  0.00000000000E+00  0.35571015533E+03  0.35571015534E+03  0.25500000000E-02 0.  1.
         -2   -1    0    0    0  501 -0.00000000000E+00 -0.00000000000E+00 -0.96350504363E+02  0.96350504396E+02  0.25500000000E-02 0. -1.
    5000001    1    1    2    0    0  0.59472240238E+02 -0.20219453673E+02  0.19768125343E+03  0.26504462195E+03  0.16500000000E+03 0.  0.
   -5000001    1    1    2    0    0 -0.59472240238E+02  0.20219453673E+02  0.61678397531E+02  0.18701603778E+03  0.16500000000E+03 0.  0.
<mgrwt>
<rscale>  0 0.37025857E+03</rscale>
<asrwt>0</asrwt>
<pdfrwt beam="1">  1        2 0.54724639E-01 0.37025857E+03</pdfrwt>
<pdfrwt beam="2">  1       -2 0.14823155E-01 0.37025857E+03</pdfrwt>
<totfact> 0.31857178E+03</totfact>
</mgrwt>
</event>
<event>
 4    1  0.9050888E-005  0.6453614E+03  0.7818608E-02  0.9815522E-01
          2   -1    0    0  501    0  0.00000000000E+00  0.00000000000E+00  0.27383683943E+03  0.27383683944E+03  0.25500000000E-02 0. -1.
         -2   -1    0    0    0  501 -0.00000000000E+00 -0.00000000000E+00 -0.38023681724E+03  0.38023681725E+03  0.25500000000E-02 0.  1.
    5000001    1    1    2    0    0  0.25902242114E+03  0.68054731943E+02 -0.12610005442E+03  0.33889568441E+03  0.16500000000E+03 0.  0.
   -5000001    1    1    2    0    0 -0.25902242114E+03 -0.68054731943E+02  0.19700076608E+02  0.31517797228E+03  0.16500000000E+03 0.  0.
<mgrwt>
<rscale>  0 0.64536144E+03</rscale>
<asrwt>0</asrwt>
<pdfrwt beam="1">  1        2 0.42128745E-01 0.64536144E+03</pdfrwt>
<pdfrwt beam="2">  1       -2 0.58497972E-01 0.64536144E+03</pdfrwt>
<totfact> 0.33542449E+02</totfact>
</mgrwt>
</event>
<event>
 4    1  0.9050888E-005  0.4089932E+03  0.7818608E-02  0.1040709E+00
          2   -1    0    0  501    0  0.00000000000E+00  0.00000000000E+00  0.67511197443E+03  0.67511197444E+03  0.25500000000E-02 0.  1.
         -2   -1    0    0    0  501 -0.00000000000E+00 -0.00000000000E+00 -0.61943583852E+02  0.61943583905E+02  0.25500000000E-02 0. -1.
    5000001    1    1    2    0    0 -0.42545136671E+02 -0.11127487477E+03  0.27046665094E+03  0.33848101229E+03  0.16500000000E+03 0.  0.
   -5000001    1    1    2    0    0  0.42545136671E+02  0.11127487477E+03  0.34270173964E+03  0.39857454605E+03  0.16500000000E+03 0.  0.
<mgrwt>
<rscale>  0 0.40899318E+03</rscale>
<asrwt>0</asrwt>
<pdfrwt beam="1">  1        2 0.10386339E+00 0.40899318E+03</pdfrwt>
<pdfrwt beam="2">  1       -2 0.95297817E-02 0.40899318E+03</pdfrwt>
<totfact> 0.31590976E+03</totfact>
</mgrwt>
</event>
<event>
 4    1  0.9050888E-005  0.5829145E+03  0.7818608E-02  0.9941501E-01
          2   -1    0    0  501    0  0.00000000000E+00  0.00000000000E+00  0.82404938306E+03  0.82404938306E+03  0.25500000000E-02 0.  1.
         -2   -1    0    0    0  501 -0.00000000000E+00 -0.00000000000E+00 -0.10308523905E+03  0.10308523909E+03  0.25500000000E-02 0. -1.
    5000001    1    1    2    0    0 -0.90838665930E+02 -0.16308303425E+03  0.11992696193E+03  0.27650536249E+03  0.16500000000E+03 0.  0.
   -5000001    1    1    2    0    0  0.90838665930E+02  0.16308303425E+03  0.60103718207E+03  0.65062925966E+03  0.16500000000E+03 0.  0.
<mgrwt>
<rscale>  0 0.58291450E+03</rscale>
<asrwt>0</asrwt>
<pdfrwt beam="1">  1        2 0.12677683E+00 0.58291450E+03</pdfrwt>
<pdfrwt beam="2">  1       -2 0.15859267E-01 0.58291450E+03</pdfrwt>
<totfact> 0.10607933E+03</totfact>
</mgrwt>
</event>
<event>
 4    1  0.9050888E-005  0.4307552E+03  0.7818608E-02  0.1033622E+00
         -2   -1    0    0    0  501 -0.00000000000E+00  0.00000000000E+00  0.51989200046E+02  0.51989200109E+02  0.25500000000E-02 0. -1.
          2   -1    0    0  501    0  0.00000000000E+00 -0.00000000000E+00 -0.89225288394E+03  0.89225288395E+03  0.25500000000E-02 0.  1.
    5000001    1    1    2    0    0  0.91484207423E+02 -0.10346793929E+03 -0.44064127670E+03  0.49037201124E+03  0.16500000000E+03 0.  0.
   -5000001    1    1    2    0    0 -0.91484207423E+02  0.10346793929E+03 -0.39962240719E+03  0.45387007282E+03  0.16500000000E+03 0.  0.
<mgrwt>
<rscale>  0 0.43075521E+03</rscale>
<asrwt>0</asrwt>
<pdfrwt beam="1">  1        2 0.13726966E+00 0.43075521E+03</pdfrwt>
<pdfrwt beam="2">  1       -2 0.79983391E-02 0.43075521E+03</pdfrwt>
<totfact> 0.29189349E+03</totfact>
</mgrwt>
</event>
<event>
 4    1  0.9050888E-005  0.4298386E+03  0.7818608E-02  0.1033911E+00
         -2   -1    0    0    0  501 -0.00000000000E+00  0.00000000000E+00  0.29139385016E+02  0.29139385127E+02  0.25500000000E-02 0. -1.
          2   -1    0    0  501    0  0.00000000000E+00 -0.00000000000E+00 -0.15851501686E+04  0.15851501686E+04  0.25500000000E-02 0.  1.
    5000001    1    1    2    0    0  0.82654557410E+02  0.98035255983E+02 -0.58937944408E+03  0.62532856674E+03  0.16500000000E+03 0.  0.
   -5000001    1    1    2    0    0 -0.82654557410E+02 -0.98035255983E+02 -0.96663133949E+03  0.98896098697E+03  0.16500000000E+03 0.  0.
<mgrwt>
<rscale>  0 0.42983858E+03</rscale>
<asrwt>0</asrwt>
<pdfrwt beam="1">  1        2 0.24386919E+00 0.42983858E+03</pdfrwt>
<pdfrwt beam="2">  1       -2 0.44829836E-02 0.42983858E+03</pdfrwt>
<totfact> 0.28358997E+03</totfact>
</mgrwt>
</event>
<event>
 4    1  0.9050888E-005  0.3532518E+03  0.7818608E-02  0.1061288E+00
          2   -1    0    0  501    0  0.00000000000E+00  0.00000000000E+00  0.64575459852E+02  0.64575459902E+02  0.25500000000E-02 0.  1.
         -2   -1    0    0    0  501 -0.00000000000E+00 -0.00000000000E+00 -0.48310464744E+03  0.48310464745E+03  0.25500000000E-02 0. -1.
    5000001    1    1    2    0    0  0.62897094186E+02 -0.37713201493E+00 -0.21537207044E+03  0.27850729867E+03  0.16500000000E+03 0.  0.
   -5000001    1    1    2    0    0 -0.62897094186E+02  0.37713201493E+00 -0.20315711715E+03  0.26917280868E+03  0.16500000000E+03 0.  0.
<mgrwt>
<rscale>  0 0.35325178E+03</rscale>
<asrwt>0</asrwt>
<pdfrwt beam="1">  1        2 0.99346864E-02 0.35325178E+03</pdfrwt>
<pdfrwt beam="2">  1       -2 0.74323790E-01 0.35325178E+03</pdfrwt>
<totfact> 0.10881100E+03</totfact>
</mgrwt>
</event>
<event>
 4    1  0.9050888E-005  0.5066985E+03  0.7818608E-02  0.1012045E+00
         -2   -1    0    0    0  501 -0.00000000000E+00  0.00000000000E+00  0.16923581344E+03  0.16923581346E+03  0.25500000000E-02 0. -1.
          2   -1    0    0  501    0  0.00000000000E+00 -0.00000000000E+00 -0.37926864525E+03  0.37926864526E+03  0.25500000000E-02 0.  1.
    5000001    1    1    2    0    0  0.12644909402E+03 -0.14419469522E+03 -0.11951368915E+03  0.27980351214E+03  0.16500000000E+03 0.  0.
   -5000001    1    1    2    0    0 -0.12644909402E+03  0.14419469522E+03 -0.90519142665E+02  0.26870094659E+03  0.16500000000E+03 0.  0.
<mgrwt>
<rscale>  0 0.50669848E+03</rscale>
<asrwt>0</asrwt>
<pdfrwt beam="1">  1        2 0.58349022E-01 0.50669848E+03</pdfrwt>
<pdfrwt beam="2">  1       -2 0.26036279E-01 0.50669848E+03</pdfrwt>
<totfact> 0.11249895E+03</totfact>
</mgrwt>
</event>
<event>
 4    1  0.9050888E-005  0.4129019E+03  0.7818608E-02  0.1039402E+00
         -2   -1    0    0    0  501 -0.00000000000E+00  0.00000000000E+00  0.14880422411E+03  0.14880422413E+03  0.25500000000E-02 0. -1.
          2   -1    0    0  501    0  0.00000000000E+00 -0.00000000000E+00 -0.28643002471E+03  0.28643002472E+03  0.25500000000E-02 0.  1.
    5000001    1    1    2    0    0  0.12047812110E+03 -0.24171508956E+02 -0.50623936849E+02  0.21186557646E+03  0.16500000000E+03 0.  0.
   -5000001    1    1    2    0    0 -0.12047812110E+03  0.24171508956E+02 -0.87001863757E+02  0.22336867239E+03  0.16500000000E+03 0.  0.
<mgrwt>
<rscale>  0 0.41290191E+03</rscale>
<asrwt>0</asrwt>
<pdfrwt beam="1">  1        2 0.44066158E-01 0.41290191E+03</pdfrwt>
<pdfrwt beam="2">  1       -2 0.22892958E-01 0.41290191E+03</pdfrwt>
<totfact> 0.19232042E+03</totfact>
</mgrwt>
</event>
<event>
 4    1  0.9050888E-005  0.4647013E+03  0.7818608E-02  0.1023426E+00
          2   -1    0    0  501    0  0.00000000000E+00  0.00000000000E+00  0.48061014246E+03  0.48061014247E+03  0.25500000000E-02 0.  1.
         -2   -1    0    0    0  501 -0.00000000000E+00 -0.00000000000E+00 -0.11232975436E+03  0.11232975439E+03  0.25500000000E-02 0. -1.
    5000001    1    1    2    0    0 -0.12728640005E+03 -0.86527917802E+02  0.25487152049E+03  0.34040182161E+03  0.16500000000E+03 0.  0.
   -5000001    1    1    2    0    0  0.12728640005E+03  0.86527917802E+02  0.11340886761E+03  0.25253807525E+03  0.16500000000E+03 0.  0.
<mgrwt>
<rscale>  0 0.46470128E+03</rscale>
<asrwt>0</asrwt>
<pdfrwt beam="1">  1        2 0.73940023E-01 0.46470128E+03</pdfrwt>
<pdfrwt beam="2">  1       -2 0.17281500E-01 0.46470128E+03</pdfrwt>
<totfact> 0.17669797E+03</totfact>
</mgrwt>
</event>
<event>
 4    1  0.9050888E-005  0.4700116E+03  0.7818608E-02  0.1021917E+00
          2   -1    0    0  501    0  0.00000000000E+00  0.00000000000E+00  0.44048008315E+02  0.44048008388E+02  0.25500000000E-02 0.  1.
         -2   -1    0    0    0  501 -0.00000000000E+00 -0.00000000000E+00 -0.12538073106E+04  0.12538073106E+04  0.25500000000E-02 0. -1.
    5000001    1    1    2    0    0  0.13650434707E+03  0.84912513707E+02 -0.47657025358E+03  0.52932766634E+03  0.16500000000E+03 0.  0.
   -5000001    1    1    2    0    0 -0.13650434707E+03 -0.84912513707E+02 -0.73318904872E+03  0.76852765267E+03  0.16500000000E+03 0.  0.
<mgrwt>
<rscale>  0 0.47001155E+03</rscale>
<asrwt>0</asrwt>
<pdfrwt beam="1">  1        2 0.67766176E-02 0.47001155E+03</pdfrwt>
<pdfrwt beam="2">  1       -2 0.19289341E+00 0.47001155E+03</pdfrwt>
<totfact> 0.16774065E+02</totfact>
</mgrwt>
</event>
<event>
 4    1  0.9050888E-005  0.5170561E+03  0.7818608E-02  0.1009420E+00
          2   -1    0    0  501    0  0.00000000000E+00  0.00000000000E+00  0.23185061472E+04  0.23185061472E+04  0.25500000000E-02 0.  1.
         -2   -1    0    0    0  501 -0.00000000000E+00 -0.00000000000E+00 -0.28827503399E+02  0.28827503512E+02  0.25500000000E-02 0. -1.
    5000001    1    1    2    0    0  0.19134363859E+03 -0.27980905751E+02  0.93111020422E+03  0.96518730385E+03  0.16500000000E+03 0.  0.
   -5000001    1    1    2    0    0 -0.19134363859E+03  0.27980905751E+02  0.13585684396E+04  0.13821463468E+04  0.16500000000E+03 0.  0.
<mgrwt>
<rscale>  0 0.51705607E+03</rscale>
<asrwt>0</asrwt>
<pdfrwt beam="1">  1        2 0.35669335E+00 0.51705607E+03</pdfrwt>
<pdfrwt beam="2">  1       -2 0.44349993E-02 0.51705607E+03</pdfrwt>
<totfact> 0.11543378E+03</totfact>
</mgrwt>
</event>
<event>
 4    1  0.9050888E-005  0.4962834E+03  0.7818608E-02  0.1014754E+00
         -2   -1    0    0    0  501 -0.00000000000E+00  0.00000000000E+00  0.55056364324E+02  0.55056364383E+02  0.25500000000E-02 0. -1.
          2   -1    0    0  501    0  0.00000000000E+00 -0.00000000000E+00 -0.11183867272E+04  0.11183867272E+04  0.25500000000E-02 0.  1.
    5000001    1    1    2    0    0 -0.18134712116E+03  0.37409921991E+02 -0.51289389853E+03  0.56971170935E+03  0.16500000000E+03 0.  0.
   -5000001    1    1    2    0    0  0.18134712116E+03 -0.37409921991E+02 -0.55043646430E+03  0.60373138220E+03  0.16500000000E+03 0.  0.
<mgrwt>
<rscale>  0 0.49628342E+03</rscale>
<asrwt>0</asrwt>
<pdfrwt beam="1">  1        2 0.17205948E+00 0.49628342E+03</pdfrwt>
<pdfrwt beam="2">  1       -2 0.84702107E-02 0.49628342E+03</pdfrwt>
<totfact> 0.19225538E+03</totfact>
</mgrwt>
</event>
<event>
 4    1  0.9050888E-005  0.4946514E+03  0.7818608E-02  0.1015184E+00
         -2   -1    0    0    0  501 -0.00000000000E+00  0.00000000000E+00  0.25697794794E+02  0.25697794920E+02  0.25500000000E-02 0. -1.
          2   -1    0    0  501    0  0.00000000000E+00 -0.00000000000E+00 -0.23803599851E+04  0.23803599851E+04  0.25500000000E-02 0.  1.
    5000001    1    1    2    0    0  0.10268480066E+03  0.56736731184E+02 -0.18683445692E+04  0.18792816857E+04  0.16500000000E+03 0.  0.
   -5000001    1    1    2    0    0 -0.10268480066E+03 -0.56736731184E+02 -0.48631762114E+03  0.52677609435E+03  0.16500000000E+03 0.  0.
<mgrwt>
<rscale>  0 0.49465140E+03</rscale>
<asrwt>0</asrwt>
<pdfrwt beam="1">  1        2 0.36620905E+00 0.49465140E+03</pdfrwt>
<pdfrwt beam="2">  1       -2 0.39535088E-02 0.49465140E+03</pdfrwt>
<totfact> 0.12750321E+03</totfact>
</mgrwt>
</event>
<event>
 4    1  0.9050888E-005  0.5211214E+03  0.7818608E-02  0.1008408E+00
         -2   -1    0    0    0  501 -0.00000000000E+00  0.00000000000E+00  0.40814233355E+02  0.40814233434E+02  0.25500000000E-02 0. -1.
          2   -1    0    0  501    0  0.00000000000E+00 -0.00000000000E+00 -0.16634362357E+04  0.16634362357E+04  0.25500000000E-02 0.  1.
    5000001    1    1    2    0    0  0.15498450173E+03 -0.11950925940E+03 -0.65229600126E+03  0.70072657443E+03  0.16500000000E+03 0.  0.
   -5000001    1    1    2    0    0 -0.15498450173E+03  0.11950925940E+03 -0.97032600109E+03  0.10035238947E+04  0.16500000000E+03 0.  0.
<mgrwt>
<rscale>  0 0.52112139E+03</rscale>
<asrwt>0</asrwt>
<pdfrwt beam="1">  1        2 0.25591321E+00 0.52112139E+03</pdfrwt>
<pdfrwt beam="2">  1       -2 0.62791141E-02 0.52112139E+03</pdfrwt>
<totfact> 0.15222322E+03</totfact>
</mgrwt>
</event>
<event>
 4    1  0.9050888E-005  0.3876770E+03  0.7818608E-02  0.1048132E+00
          2   -1    0    0  501    0  0.00000000000E+00  0.00000000000E+00  0.33936052392E+03  0.33936052393E+03  0.25500000000E-02 0.  1.
         -2   -1    0    0    0  501 -0.00000000000E+00 -0.00000000000E+00 -0.11071815317E+03  0.11071815320E+03  0.25500000000E-02 0. -1.
    5000001    1    1    2    0    0 -0.35668840700E+02 -0.68740005699E+02  0.19090001233E+03  0.26394179148E+03  0.16500000000E+03 0.  0.
   -5000001    1    1    2    0    0  0.35668840700E+02  0.68740005699E+02  0.37742358427E+02  0.18613688565E+03  0.16500000000E+03 0.  0.
<mgrwt>
<rscale>  0 0.38767703E+03</rscale>
<asrwt>0</asrwt>
<pdfrwt beam="1">  1        2 0.52209311E-01 0.38767703E+03</pdfrwt>
<pdfrwt beam="2">  1       -2 0.17033562E-01 0.38767703E+03</pdfrwt>
<totfact> 0.26586738E+03</totfact>
</mgrwt>
</event>
<event>
 4    1  0.9050888E-005  0.9373224E+03  0.7818608E-02  0.9380093E-01
          2   -1    0    0  501    0  0.00000000000E+00  0.00000000000E+00  0.57458887219E+03  0.57458887220E+03  0.25500000000E-02 0.  1.
         -2   -1    0    0    0  501 -0.00000000000E+00 -0.00000000000E+00 -0.38226172422E+03  0.38226172423E+03  0.25500000000E-02 0. -1.
    5000001    1    1    2    0    0 -0.16924759442E+03  0.37807718109E+03  0.24350083086E+03  0.50804011427E+03  0.16500000000E+03 0.  0.
   -5000001    1    1    2    0    0  0.16924759442E+03 -0.37807718109E+03 -0.51173682890E+02  0.44881048216E+03  0.16500000000E+03 0.  0.
<mgrwt>
<rscale>  0 0.93732243E+03</rscale>
<asrwt>0</asrwt>
<pdfrwt beam="1">  1        2 0.88398288E-01 0.93732243E+03</pdfrwt>
<pdfrwt beam="2">  1       -2 0.58809496E-01 0.93732243E+03</pdfrwt>
<totfact> 0.14148266E+02</totfact>
</mgrwt>
</event>
<event>
 4    1  0.9050888E-005  0.7177295E+03  0.7818608E-02  0.9687384E-01
          2   -1    0    0  501    0  0.00000000000E+00  0.00000000000E+00  0.30638121195E+03  0.30638121196E+03  0.25500000000E-02 0.  1.
         -2   -1    0    0    0  501 -0.00000000000E+00 -0.00000000000E+00 -0.42033883498E+03  0.42033883499E+03  0.25500000000E-02 0. -1.
    5000001    1    1    2    0    0  0.28825434838E+03  0.14937110069E+02 -0.19374572740E+03  0.38480656635E+03  0.16500000000E+03 0.  0.
   -5000001    1    1    2    0    0 -0.28825434838E+03 -0.14937110069E+02  0.79788104364E+02  0.34191348060E+03  0.16500000000E+03 0.  0.
<mgrwt>
<rscale>  0 0.71772954E+03</rscale>
<asrwt>0</asrwt>
<pdfrwt beam="1">  1        2 0.47135571E-01 0.71772954E+03</pdfrwt>
<pdfrwt beam="2">  1       -2 0.64667513E-01 0.71772954E+03</pdfrwt>
<totfact> 0.23899423E+02</totfact>
</mgrwt>
</event>
<event>
 4    1  0.9050888E-005  0.5878981E+03  0.7818608E-02  0.9930837E-01
          2   -1    0    0  501    0  0.00000000000E+00  0.00000000000E+00  0.10459849742E+04  0.10459849742E+04  0.25500000000E-02 0.  1.
         -2   -1    0    0    0  501 -0.00000000000E+00 -0.00000000000E+00 -0.82607338860E+02  0.82607338899E+02  0.25500000000E-02 0. -1.
    5000001    1    1    2    0    0  0.13956701796E+03  0.14740218208E+03  0.73906338548E+03  0.78399365019E+03  0.16500000000E+03 0.  0.
   -5000001    1    1    2    0    0 -0.13956701796E+03 -0.14740218208E+03  0.22431424983E+03  0.34459866288E+03  0.16500000000E+03 0.  0.
<mgrwt>
<rscale>  0 0.58789807E+03</rscale>
<asrwt>0</asrwt>
<pdfrwt beam="1">  1        2 0.16092076E+00 0.58789807E+03</pdfrwt>
<pdfrwt beam="2">  1       -2 0.12708822E-01 0.58789807E+03</pdfrwt>
<totfact> 0.10990853E+03</totfact>
</mgrwt>
</event>
<event>
 4    1  0.9050888E-005  0.7153216E+03  0.7818608E-02  0.9691383E-01
         -2   -1    0    0    0  501 -0.00000000000E+00  0.00000000000E+00  0.83011337428E+02  0.83011337467E+02  0.25500000000E-02 0. -1.
          2   -1    0    0  501    0  0.00000000000E+00 -0.00000000000E+00 -0.15410093013E+04  0.15410093013E+04  0.25500000000E-02 0.  1.
    5000001    1    1    2    0    0 -0.94638395457E+01 -0.21958116897E+03 -0.20934090387E+03  0.34547658106E+03  0.16500000000E+03 0.  0.
   -5000001    1    1    2    0    0  0.94638395457E+01  0.21958116897E+03 -0.12486570600E+04  0.12785440577E+04  0.16500000000E+03 0.  0.
<mgrwt>
<rscale>  0 0.71532159E+03</rscale>
<asrwt>0</asrwt>
<pdfrwt beam="1">  1        2 0.23707833E+00 0.71532159E+03</pdfrwt>
<pdfrwt beam="2">  1       -2 0.12770976E-01 0.71532159E+03</pdfrwt>
<totfact> 0.56070779E+02</totfact>
</mgrwt>
</event>
<event>
 4    1  0.9050888E-005  0.5057651E+03  0.7818608E-02  0.1012285E+00
          2   -1    0    0  501    0  0.00000000000E+00  0.00000000000E+00  0.12455738051E+04  0.12455738051E+04  0.25500000000E-02 0.  1.
         -2   -1    0    0    0  501 -0.00000000000E+00 -0.00000000000E+00 -0.51341457143E+02  0.51341457207E+02  0.25500000000E-02 0. -1.
    5000001    1    1    2    0    0  0.15521766311E+03 -0.80356880462E+02  0.79861616600E+03  0.83400391593E+03  0.16500000000E+03 0.  0.
   -5000001    1    1    2    0    0 -0.15521766311E+03  0.80356880462E+02  0.39561618191E+03  0.46291134634E+03  0.16500000000E+03 0.  0.
<mgrwt>
<rscale>  0 0.50576506E+03</rscale>
<asrwt>0</asrwt>
<pdfrwt beam="1">  1        2 0.19162670E+00 0.50576506E+03</pdfrwt>
<pdfrwt beam="2">  1       -2 0.78986872E-02 0.50576506E+03</pdfrwt>
<totfact> 0.18090144E+03</totfact>
</mgrwt>
</event>
<event>
 4    1  0.9050888E-005  0.9656017E+03  0.7818608E-02  0.9347098E-01
          2   -1    0    0  501    0  0.00000000000E+00  0.00000000000E+00  0.12838319299E+04  0.12838319299E+04  0.25500000000E-02 0.  1.
         -2   -1    0    0    0  501 -0.00000000000E+00 -0.00000000000E+00 -0.18156321539E+03  0.18156321541E+03  0.25500000000E-02 0. -1.
    5000001    1    1    2    0    0 -0.27793349376E+03 -0.33766355652E+03  0.73455632736E+03  0.87066738909E+03  0.16500000000E+03 0.  0.
   -5000001    1    1    2    0    0  0.27793349376E+03  0.33766355652E+03  0.36771238713E+03  0.59472775620E+03  0.16500000000E+03 0.  0.
<mgrwt>
<rscale>  0 0.96560168E+03</rscale>
<asrwt>0</asrwt>
<pdfrwt beam="1">  1        2 0.19751261E+00 0.96560168E+03</pdfrwt>
<pdfrwt beam="2">  1       -2 0.27932802E-01 0.96560168E+03</pdfrwt>
<totfact> 0.19753907E+02</totfact>
</mgrwt>
</event>
<event>
 4    1  0.9050888E-005  0.6237919E+03  0.7818608E-02  0.9857239E-01
          2   -1    0    0  501    0  0.00000000000E+00  0.00000000000E+00  0.65989848234E+02  0.65989848283E+02  0.25500000000E-02 0.  1.
         -2   -1    0    0    0  501 -0.00000000000E+00 -0.00000000000E+00 -0.14741524440E+04  0.14741524440E+04  0.25500000000E-02 0. -1.
    5000001    1    1    2    0    0 -0.16765518190E+03 -0.16513849152E+03 -0.10031781484E+04  0.10435374353E+04  0.16500000000E+03 0.  0.
   -5000001    1    1    2    0    0  0.16765518190E+03  0.16513849152E+03 -0.40498444738E+03  0.49660485702E+03  0.16500000000E+03 0.  0.
<mgrwt>
<rscale>  0 0.62379194E+03</rscale>
<asrwt>0</asrwt>
<pdfrwt beam="1">  1        2 0.10152285E-01 0.62379194E+03</pdfrwt>
<pdfrwt beam="2">  1       -2 0.22679266E+00 0.62379194E+03</pdfrwt>
<totfact> 0.60200552E+01</totfact>
</mgrwt>
</event>
<event>
 4    1  0.9050888E-005  0.8581031E+03  0.7818608E-02  0.9479525E-01
         -2   -1    0    0    0  501 -0.00000000000E+00  0.00000000000E+00  0.13586581158E+04  0.13586581158E+04  0.25500000000E-02 0. -1.
          2   -1    0    0  501    0  0.00000000000E+00 -0.00000000000E+00 -0.13549046751E+03  0.13549046753E+03  0.25500000000E-02 0.  1.
    5000001    1    1    2    0    0 -0.31901036921E+03  0.22851597168E+03  0.70491495952E+03  0.82347875815E+03  0.16500000000E+03 0.  0.
   -5000001    1    1    2    0    0  0.31901036921E+03 -0.22851597168E+03  0.51825268872E+03  0.67066982513E+03  0.16500000000E+03 0.  0.
<mgrwt>
<rscale>  0 0.85810308E+03</rscale>
<asrwt>0</asrwt>
<pdfrwt beam="1">  1        2 0.20844688E-01 0.85810308E+03</pdfrwt>
<pdfrwt beam="2">  1       -2 0.20902432E+00 0.85810308E+03</pdfrwt>
<totfact> 0.31798314E+01</totfact>
</mgrwt>
</event>
<event>
 4    1  0.9050888E-005  0.9667539E+03  0.7818608E-02  0.9345779E-01
         -2   -1    0    0    0  501 -0.00000000000E+00  0.00000000000E+00  0.90959469801E+02  0.90959469837E+02  0.25500000000E-02 0. -1.
          2   -1    0    0  501    0  0.00000000000E+00 -0.00000000000E+00 -0.25687626244E+04  0.25687626244E+04  0.25500000000E-02 0.  1.
    5000001    1    1    2    0    0  0.14525049851E+02  0.44479467180E+03 -0.14906767871E+04  0.15644154054E+04  0.16500000000E+03 0.  0.
   -5000001    1    1    2    0    0 -0.14525049851E+02 -0.44479467180E+03 -0.98712636745E+03  0.10953066888E+04  0.16500000000E+03 0.  0.
<mgrwt>
<rscale>  0 0.96675392E+03</rscale>
<asrwt>0</asrwt>
<pdfrwt beam="1">  1        2 0.39519419E+00 0.96675392E+03</pdfrwt>
<pdfrwt beam="2">  1       -2 0.13993767E-01 0.96675392E+03</pdfrwt>
<totfact> 0.12728394E+02</totfact>
</mgrwt>
</event>
<event>
 4    1  0.9050888E-005  0.5187132E+03  0.7818608E-02  0.1009007E+00
          2   -1    0    0  501    0  0.00000000000E+00  0.00000000000E+00  0.69933010437E+03  0.69933010438E+03  0.25500000000E-02 0.  1.
         -2   -1    0    0    0  501 -0.00000000000E+00 -0.00000000000E+00 -0.96186133494E+02  0.96186133528E+02  0.25500000000E-02 0. -1.
    5000001    1    1    2    0    0  0.17224367453E+03  0.80024802599E+02  0.20495297082E+03  0.32450357886E+03  0.16500000000E+03 0.  0.
   -5000001    1    1    2    0    0 -0.17224367453E+03 -0.80024802599E+02  0.39819100006E+03  0.47101265904E+03  0.16500000000E+03 0.  0.
<mgrwt>
<rscale>  0 0.51871325E+03</rscale>
<asrwt>0</asrwt>
<pdfrwt beam="1">  1        2 0.10758925E+00 0.51871325E+03</pdfrwt>
<pdfrwt beam="2">  1       -2 0.14797866E-01 0.51871325E+03</pdfrwt>
<totfact> 0.14733901E+03</totfact>
</mgrwt>
</event>
<event>
 4    1  0.9050888E-005  0.8559431E+03  0.7818608E-02  0.9482395E-01
         -2   -1    0    0    0  501 -0.00000000000E+00  0.00000000000E+00  0.17526078833E+03  0.17526078835E+03  0.25500000000E-02 0. -1.
          2   -1    0    0  501    0  0.00000000000E+00 -0.00000000000E+00 -0.10450690781E+04  0.10450690781E+04  0.25500000000E-02 0.  1.
    5000001    1    1    2    0    0  0.11175985314E+02 -0.36329237950E+03 -0.65498363803E+03  0.76702987017E+03  0.16500000000E+03 0.  0.
   -5000001    1    1    2    0    0 -0.11175985314E+02  0.36329237950E+03 -0.21482465178E+03  0.45329999632E+03  0.16500000000E+03 0.  0.
<mgrwt>
<rscale>  0 0.85594306E+03</rscale>
<asrwt>0</asrwt>
<pdfrwt beam="1">  1        2 0.16077986E+00 0.85594306E+03</pdfrwt>
<pdfrwt beam="2">  1       -2 0.26963199E-01 0.85594306E+03</pdfrwt>
<totfact> 0.29533616E+02</totfact>
</mgrwt>
</event>
<event>
 4    1  0.9050888E-005  0.3696328E+03  0.7818608E-02  0.1054833E+00
          2   -1    0    0  501    0  0.00000000000E+00  0.00000000000E+00  0.32654613811E+04  0.32654613811E+04  0.25500000000E-02 0.  1.
         -2   -1    0    0    0  501 -0.00000000000E+00 -0.00000000000E+00 -0.10460113756E+02  0.10460114067E+02  0.25500000000E-02 0. -1.
    5000001    1    1    2    0    0  0.68013260460E+01 -0.45552444693E+02  0.10127877369E+04  0.10271734436E+04  0.16500000000E+03 0.  0.
   -5000001    1    1    2    0    0 -0.68013260460E+01  0.45552444693E+02  0.22422135305E+04  0.22487480516E+04  0.16500000000E+03 0.  0.
<mgrwt>
<rscale>  0 0.36963278E+03</rscale>
<asrwt>0</asrwt>
<pdfrwt beam="1">  1        2 0.50237867E+00 0.36963278E+03</pdfrwt>
<pdfrwt beam="2">  1       -2 0.16092483E-02 0.36963278E+03</pdfrwt>
<totfact> 0.15070060E+03</totfact>
</mgrwt>
</event>
<event>
 4    1  0.9050888E-005  0.4183829E+03  0.7818608E-02  0.1037594E+00
          2   -1    0    0  501    0  0.00000000000E+00  0.00000000000E+00  0.23172688205E+03  0.23172688207E+03  0.25500000000E-02 0.  1.
         -2   -1    0    0    0  501 -0.00000000000E+00 -0.00000000000E+00 -0.18884759422E+03  0.18884759423E+03  0.25500000000E-02 0. -1.
    5000001    1    1    2    0    0  0.11018730164E+03  0.64205037389E+02  0.48445061683E+01  0.20859529599E+03  0.16500000000E+03 0.  0.
   -5000001    1    1    2    0    0 -0.11018730164E+03 -0.64205037389E+02  0.38034781668E+02  0.21197918031E+03  0.16500000000E+03 0.  0.
<mgrwt>
<rscale>  0 0.41838291E+03</rscale>
<asrwt>0</asrwt>
<pdfrwt beam="1">  1        2 0.35650289E-01 0.41838291E+03</pdfrwt>
<pdfrwt beam="2">  1       -2 0.29053476E-01 0.41838291E+03</pdfrwt>
<totfact> 0.15831188E+03</totfact>
</mgrwt>
</event>
<event>
 4    1  0.9050888E-005  0.5166753E+03  0.7818608E-02  0.1009516E+00
          2   -1    0    0  501    0  0.00000000000E+00  0.00000000000E+00  0.56039044308E+03  0.56039044309E+03  0.25500000000E-02 0.  1.
         -2   -1    0    0    0  501 -0.00000000000E+00 -0.00000000000E+00 -0.11909255399E+03  0.11909255401E+03  0.25500000000E-02 0. -1.
    5000001    1    1    2    0    0  0.13309087376E+03  0.14541245663E+03  0.18698206628E+03  0.31787616509E+03  0.16500000000E+03 0.  0.
   -5000001    1    1    2    0    0 -0.13309087376E+03 -0.14541245663E+03  0.25431582281E+03  0.36160683201E+03  0.16500000000E+03 0.  0.
<mgrwt>
<rscale>  0 0.51667525E+03</rscale>
<asrwt>0</asrwt>
<pdfrwt beam="1">  1        2 0.86213913E-01 0.51667525E+03</pdfrwt>
<pdfrwt beam="2">  1       -2 0.18321932E-01 0.51667525E+03</pdfrwt>
<totfact> 0.13397463E+03</totfact>
</mgrwt>
</event>
<event>
 4    1  0.9050888E-005  0.3840697E+03  0.7818608E-02  0.1049440E+00
          2   -1    0    0  501    0  0.00000000000E+00  0.00000000000E+00  0.15815471218E+03  0.15815471220E+03  0.25500000000E-02 0.  1.
         -2   -1    0    0    0  501 -0.00000000000E+00 -0.00000000000E+00 -0.23317287586E+03  0.23317287588E+03  0.25500000000E-02 0. -1.
    5000001    1    1    2    0    0 -0.23597068461E+02  0.74389070553E+02  0.23299825845E+02  0.18400662309E+03  0.16500000000E+03 0.  0.
   -5000001    1    1    2    0    0  0.23597068461E+02 -0.74389070553E+02 -0.98317989527E+02  0.20732096499E+03  0.16500000000E+03 0.  0.
<mgrwt>
<rscale>  0 0.38406973E+03</rscale>
<asrwt>0</asrwt>
<pdfrwt beam="1">  1        2 0.24331494E-01 0.38406973E+03</pdfrwt>
<pdfrwt beam="2">  1       -2 0.35872750E-01 0.38406973E+03</pdfrwt>
<totfact> 0.16373469E+03</totfact>
</mgrwt>
</event>
<event>
 4    1  0.9050888E-005  0.5167100E+03  0.7818608E-02  0.1009507E+00
         -2   -1    0    0    0  501 -0.00000000000E+00  0.00000000000E+00  0.11633720635E+03  0.11633720638E+03  0.25500000000E-02 0. -1.
          2   -1    0    0  501    0  0.00000000000E+00 -0.00000000000E+00 -0.57373994189E+03  0.57373994190E+03  0.25500000000E-02 0.  1.
    5000001    1    1    2    0    0  0.12738031128E+03 -0.13716230859E+03 -0.31812206263E+03  0.40430915069E+03  0.16500000000E+03 0.  0.
   -5000001    1    1    2    0    0 -0.12738031128E+03  0.13716230859E+03 -0.13928067291E+03  0.28576799759E+03  0.16500000000E+03 0.  0.
<mgrwt>
<rscale>  0 0.51670998E+03</rscale>
<asrwt>0</asrwt>
<pdfrwt beam="1">  1        2 0.88267681E-01 0.51670998E+03</pdfrwt>
<pdfrwt beam="2">  1       -2 0.17898032E-01 0.51670998E+03</pdfrwt>
<totfact> 0.13565413E+03</totfact>
</mgrwt>
</event>
<event>
 4    1  0.9050888E-005  0.9263002E+03  0.7818608E-02  0.9393289E-01
         -2   -1    0    0    0  501 -0.00000000000E+00  0.00000000000E+00  0.22177001951E+03  0.22177001953E+03  0.25500000000E-02 0. -1.
          2   -1    0    0  501    0  0.00000000000E+00 -0.00000000000E+00 -0.96725444788E+03  0.96725444789E+03  0.25500000000E-02 0.  1.
    5000001    1    1    2    0    0 -0.22621302278E+02  0.36699510049E+03 -0.79788410157E+02  0.41083855405E+03  0.16500000000E+03 0.  0.
   -5000001    1    1    2    0    0  0.22621302278E+02 -0.36699510049E+03 -0.66569601821E+03  0.77818591337E+03  0.16500000000E+03 0.  0.
<mgrwt>
<rscale>  0 0.92630025E+03</rscale>
<asrwt>0</asrwt>
<pdfrwt beam="1">  1        2 0.14880837E+00 0.92630025E+03</pdfrwt>
<pdfrwt beam="2">  1       -2 0.34118465E-01 0.92630025E+03</pdfrwt>
<totfact> 0.21285230E+02</totfact>
</mgrwt>
</event>
<event>
 4    1  0.9050888E-005  0.4336661E+03  0.7818608E-02  0.1032708E+00
         -2   -1    0    0    0  501 -0.00000000000E+00  0.00000000000E+00  0.15396196234E+02  0.15396196445E+02  0.25500000000E-02 0. -1.
          2   -1    0    0  501    0  0.00000000000E+00 -0.00000000000E+00 -0.30537786079E+04  0.30537786079E+04  0.25500000000E-02 0.  1.
    5000001    1    1    2    0    0  0.14033619495E+03 -0.63300857922E+01 -0.15727439896E+04  0.15876029020E+04  0.16500000000E+03 0.  0.
   -5000001    1    1    2    0    0 -0.14033619495E+03  0.63300857922E+01 -0.14656384221E+04  0.14815719024E+04  0.16500000000E+03 0.  0.
<mgrwt>
<rscale>  0 0.43366612E+03</rscale>
<asrwt>0</asrwt>
<pdfrwt beam="1">  1        2 0.46981161E+00 0.43366612E+03</pdfrwt>
<pdfrwt beam="2">  1       -2 0.23686480E-02 0.43366612E+03</pdfrwt>
<totfact> 0.11382178E+03</totfact>
</mgrwt>
</event>
<event>
 4    1  0.9050888E-005  0.5182532E+03  0.7818608E-02  0.1009121E+00
          2   -1    0    0  501    0  0.00000000000E+00  0.00000000000E+00  0.11187944334E+04  0.11187944334E+04  0.25500000000E-02 0.  1.
         -2   -1    0    0    0  501 -0.00000000000E+00 -0.00000000000E+00 -0.60016928744E+02  0.60016928798E+02  0.25500000000E-02 0. -1.
    5000001    1    1    2    0    0  0.18066532660E+03  0.53561023241E+02  0.37828944379E+03  0.45369223790E+03  0.16500000000E+03 0.  0.
   -5000001    1    1    2    0    0 -0.18066532660E+03 -0.53561023241E+02  0.68048806090E+03  0.72511912433E+03  0.16500000000E+03 0.  0.
<mgrwt>
<rscale>  0 0.51825324E+03</rscale>
<asrwt>0</asrwt>
<pdfrwt beam="1">  1        2 0.17212221E+00 0.51825324E+03</pdfrwt>
<pdfrwt beam="2">  1       -2 0.92333741E-02 0.51825324E+03</pdfrwt>
<totfact> 0.16730799E+03</totfact>
</mgrwt>
</event>
<event>
 4    1  0.9050888E-005  0.3940854E+03  0.7818608E-02  0.1045847E+00
          2   -1    0    0  501    0  0.00000000000E+00  0.00000000000E+00  0.10121345393E+04  0.10121345393E+04  0.25500000000E-02 0.  1.
         -2   -1    0    0    0  501 -0.00000000000E+00 -0.00000000000E+00 -0.38360338023E+02  0.38360338107E+02  0.25500000000E-02 0. -1.
    5000001    1    1    2    0    0 -0.57805488413E+02 -0.84570673095E+02  0.57558366796E+03  0.60746623944E+03  0.16500000000E+03 0.  0.
   -5000001    1    1    2    0    0  0.57805488413E+02  0.84570673095E+02  0.39819053333E+03  0.44302863798E+03  0.16500000000E+03 0.  0.
<mgrwt>
<rscale>  0 0.39408539E+03</rscale>
<asrwt>0</asrwt>
<pdfrwt beam="1">  1        2 0.15571299E+00 0.39408539E+03</pdfrwt>
<pdfrwt beam="2">  1       -2 0.59015910E-02 0.39408539E+03</pdfrwt>
<totfact> 0.39349672E+03</totfact>
</mgrwt>
</event>
<event>
 4    1  0.9050888E-005  0.4975632E+03  0.7818608E-02  0.1014417E+00
          2   -1    0    0  501    0  0.00000000000E+00  0.00000000000E+00  0.51954217402E+03  0.51954217403E+03  0.25500000000E-02 0.  1.
         -2   -1    0    0    0  501 -0.00000000000E+00 -0.00000000000E+00 -0.11912851119E+03  0.11912851122E+03  0.25500000000E-02 0. -1.
    5000001    1    1    2    0    0  0.38785831065E+02  0.17853484737E+03  0.24627801350E+03  0.34821960363E+03  0.16500000000E+03 0.  0.
   -5000001    1    1    2    0    0 -0.38785831065E+02 -0.17853484737E+03  0.15413564933E+03  0.29045108162E+03  0.16500000000E+03 0.  0.
<mgrwt>
<rscale>  0 0.49756320E+03</rscale>
<asrwt>0</asrwt>
<pdfrwt beam="1">  1        2 0.79929566E-01 0.49756320E+03</pdfrwt>
<pdfrwt beam="2">  1       -2 0.18327463E-01 0.49756320E+03</pdfrwt>
<totfact> 0.14622914E+03</totfact>
</mgrwt>
</event>
<event>
 4    1  0.9050888E-005  0.5458170E+03  0.7818608E-02  0.1002467E+00
          2   -1    0    0  501    0  0.00000000000E+00  0.00000000000E+00  0.33065569426E+04  0.33065569426E+04  0.25500000000E-02 0.  1.
         -2   -1    0    0    0  501 -0.00000000000E+00 -0.00000000000E+00 -0.22524655839E+02  0.22524655983E+02  0.25500000000E-02 0. -1.
    5000001    1    1    2    0    0  0.19691485472E+03  0.66154595031E-01  0.10804004267E+04  0.11105248968E+04  0.16500000000E+03 0.  0.
   -5000001    1    1    2    0    0 -0.19691485472E+03 -0.66154595031E-01  0.22036318601E+04  0.22185567018E+04  0.16500000000E+03 0.  0.
<mgrwt>
<rscale>  0 0.54581703E+03</rscale>
<asrwt>0</asrwt>
<pdfrwt beam="1">  1        2 0.50870114E+00 0.54581703E+03</pdfrwt>
<pdfrwt beam="2">  1       -2 0.34653312E-02 0.54581703E+03</pdfrwt>
<totfact> 0.43866198E+02</totfact>
</mgrwt>
</event>
<event>
 4    1  0.9050888E-005  0.4065359E+03  0.7818608E-02  0.1041540E+00
          2   -1    0    0  501    0  0.00000000000E+00  0.00000000000E+00  0.40659311136E+03  0.40659311137E+03  0.25500000000E-02 0.  1.
         -2   -1    0    0    0  501 -0.00000000000E+00 -0.00000000000E+00 -0.10161968896E+03  0.10161968900E+03  0.25500000000E-02 0. -1.
    5000001    1    1    2    0    0  0.51526925399E+02 -0.77300131114E+02  0.60092740735E+02  0.19866170190E+03  0.16500000000E+03 0.  0.
   -5000001    1    1    2    0    0 -0.51526925399E+02  0.77300131114E+02  0.24488068166E+03  0.30955109847E+03  0.16500000000E+03 0.  0.
<mgrwt>
<rscale>  0 0.40653593E+03</rscale>
<asrwt>0</asrwt>
<pdfrwt beam="1">  1        2 0.62552786E-01 0.40653593E+03</pdfrwt>
<pdfrwt beam="2">  1       -2 0.15633798E-01 0.40653593E+03</pdfrwt>
<totfact> 0.25205512E+03</totfact>
</mgrwt>
</event>
<event>
 4    1  0.9050888E-005  0.7664590E+03  0.7818608E-02  0.9609877E-01
         -2   -1    0    0    0  501 -0.00000000000E+00  0.00000000000E+00  0.22341628505E+03  0.22341628506E+03  0.25500000000E-02 0. -1.
          2   -1    0    0  501    0  0.00000000000E+00 -0.00000000000E+00 -0.65735968807E+03  0.65735968808E+03  0.25500000000E-02 0.  1.
    5000001    1    1    2    0    0 -0.32807172865E+03 -0.73290366901E+01 -0.34261891461E+03  0.50229224020E+03  0.16500000000E+03 0.  0.
   -5000001    1    1    2    0    0  0.32807172865E+03  0.73290366901E+01 -0.91324488418E+02  0.37848373294E+03  0.16500000000E+03 0.  0.
<mgrwt>
<rscale>  0 0.76645903E+03</rscale>
<asrwt>0</asrwt>
<pdfrwt beam="1">  1        2 0.10113226E+00 0.76645903E+03</pdfrwt>
<pdfrwt beam="2">  1       -2 0.34371737E-01 0.76645903E+03</pdfrwt>
<totfact> 0.35370580E+02</totfact>
</mgrwt>
</event>
<event>
 4    1  0.9050888E-005  0.5918844E+03  0.7818608E-02  0.9922388E-01
         -2   -1    0    0    0  501 -0.00000000000E+00  0.00000000000E+00  0.47274361489E+02  0.47274361558E+02  0.25500000000E-02 0. -1.
          2   -1    0    0  501    0  0.00000000000E+00 -0.00000000000E+00 -0.18526274748E+04  0.18526274748E+04  0.25500000000E-02 0.  1.
    5000001    1    1    2    0    0 -0.12034990868E+03 -0.14272639322E+03 -0.39007468788E+03  0.46285871058E+03  0.16500000000E+03 0.  0.
   -5000001    1    1    2    0    0  0.12034990868E+03  0.14272639322E+03 -0.14152784254E+04  0.14370431258E+04  0.16500000000E+03 0.  0.
<mgrwt>
<rscale>  0 0.59188438E+03</rscale>
<asrwt>0</asrwt>
<pdfrwt beam="1">  1        2 0.28501956E+00 0.59188438E+03</pdfrwt>
<pdfrwt beam="2">  1       -2 0.72729801E-02 0.59188438E+03</pdfrwt>
<totfact> 0.95081546E+02</totfact>
</mgrwt>
</event>
<event>
 4    1  0.9050888E-005  0.4644217E+03  0.7818608E-02  0.1023507E+00
         -2   -1    0    0    0  501 -0.00000000000E+00  0.00000000000E+00  0.30595821629E+03  0.30595821630E+03  0.25500000000E-02 0. -1.
          2   -1    0    0  501    0  0.00000000000E+00 -0.00000000000E+00 -0.17623935603E+03  0.17623935605E+03  0.25500000000E-02 0.  1.
    5000001    1    1    2    0    0 -0.13761173497E+03 -0.85952065669E+02  0.44830353861E+02  0.23571064427E+03  0.16500000000E+03 0.  0.
   -5000001    1    1    2    0    0  0.13761173497E+03  0.85952065669E+02  0.84888506398E+02  0.24648692808E+03  0.16500000000E+03 0.  0.
<mgrwt>
<rscale>  0 0.46442170E+03</rscale>
<asrwt>0</asrwt>
<pdfrwt beam="1">  1        2 0.27113747E-01 0.46442170E+03</pdfrwt>
<pdfrwt beam="2">  1       -2 0.47070494E-01 0.46442170E+03</pdfrwt>
<totfact> 0.85667822E+02</totfact>
</mgrwt>
</event>
<event>
 4    1  0.9050888E-005  0.6739588E+03  0.7818608E-02  0.9762833E-01
         -2   -1    0    0    0  501 -0.00000000000E+00  0.00000000000E+00  0.63087393792E+02  0.63087393844E+02  0.25500000000E-02 0. -1.
          2   -1    0    0  501    0  0.00000000000E+00 -0.00000000000E+00 -0.17999652775E+04  0.17999652775E+04  0.25500000000E-02 0.  1.
    5000001    1    1    2    0    0  0.61422420148E+02 -0.26733381148E+03 -0.11595497266E+04  0.12029217136E+04  0.16500000000E+03 0.  0.
   -5000001    1    1    2    0    0 -0.61422420148E+02  0.26733381148E+03 -0.57732815708E+03  0.66013095777E+03  0.16500000000E+03 0.  0.
<mgrwt>
<rscale>  0 0.67395881E+03</rscale>
<asrwt>0</asrwt>
<pdfrwt beam="1">  1        2 0.27691770E+00 0.67395881E+03</pdfrwt>
<pdfrwt beam="2">  1       -2 0.97057543E-02 0.67395881E+03</pdfrwt>
<totfact> 0.63633540E+02</totfact>
</mgrwt>
</event>
<event>
 4    1  0.9050888E-005  0.4212605E+03  0.7818608E-02  0.1036657E+00
          2   -1    0    0  501    0  0.00000000000E+00  0.00000000000E+00  0.74575099637E+02  0.74575099681E+02  0.25500000000E-02 0.  1.
         -2   -1    0    0    0  501 -0.00000000000E+00 -0.00000000000E+00 -0.59490513682E+03  0.59490513682E+03  0.25500000000E-02 0. -1.
    5000001    1    1    2    0    0  0.38945782853E+02  0.12404962341E+03 -0.28452885518E+03  0.35367605587E+03  0.16500000000E+03 0.  0.
   -5000001    1    1    2    0    0 -0.38945782853E+02 -0.12404962341E+03 -0.23580118200E+03  0.31580418063E+03  0.16500000000E+03 0.  0.
<mgrwt>
<rscale>  0 0.42126054E+03</rscale>
<asrwt>0</asrwt>
<pdfrwt beam="1">  1        2 0.11473093E-01 0.42126054E+03</pdfrwt>
<pdfrwt beam="2">  1       -2 0.91523864E-01 0.42126054E+03</pdfrwt>
<totfact> 0.57163596E+02</totfact>
</mgrwt>
</event>
<event>
 4    1  0.9050888E-005  0.6661814E+03  0.7818608E-02  0.9776881E-01
         -2   -1    0    0    0  501 -0.00000000000E+00  0.00000000000E+00  0.17025014343E+03  0.17025014344E+03  0.25500000000E-02 0. -1.
          2   -1    0    0  501    0  0.00000000000E+00 -0.00000000000E+00 -0.65168466206E+03  0.65168466207E+03  0.25500000000E-02 0.  1.
    5000001    1    1    2    0    0  0.26054357822E+03 -0.68454048285E+01 -0.39577701001E+03  0.50179104952E+03  0.16500000000E+03 0.  0.
   -5000001    1    1    2    0    0 -0.26054357822E+03  0.68454048285E+01 -0.85657508622E+02  0.32014375599E+03  0.16500000000E+03 0.  0.
<mgrwt>
<rscale>  0 0.66618138E+03</rscale>
<asrwt>0</asrwt>
<pdfrwt beam="1">  1        2 0.10025918E+00 0.66618138E+03</pdfrwt>
<pdfrwt beam="2">  1       -2 0.26192330E-01 0.66618138E+03</pdfrwt>
<totfact> 0.59370338E+02</totfact>
</mgrwt>
</event>
<event>
 4    1  0.9050888E-005  0.1787844E+04  0.7818608E-02  0.8712791E-01
          2   -1    0    0  501    0  0.00000000000E+00  0.00000000000E+00  0.93893172264E+03  0.93893172265E+03  0.25500000000E-02 0.  1.
         -2   -1    0    0    0  501 -0.00000000000E+00 -0.00000000000E+00 -0.85106968073E+03  0.85106968073E+03  0.25500000000E-02 0. -1.
    5000001    1    1    2    0    0  0.38007281205E+03  0.78416580277E+03  0.15586922710E+03  0.90049517747E+03  0.16500000000E+03 0.  0.
   -5000001    1    1    2    0    0 -0.38007281205E+03 -0.78416580277E+03 -0.68007185189E+02  0.88950622591E+03  0.16500000000E+03 0.  0.
<mgrwt>
<rscale>  0 0.17878438E+04</rscale>
<asrwt>0</asrwt>
<pdfrwt beam="1">  1        2 0.14445103E+00 0.17878438E+04</pdfrwt>
<pdfrwt beam="2">  1       -2 0.13093380E+00 0.17878438E+04</pdfrwt>
<totfact> 0.11127412E+01</totfact>
</mgrwt>
</event>
<event>
 4    1  0.9050888E-005  0.4052491E+03  0.7818608E-02  0.1041977E+00
         -2   -1    0    0    0  501 -0.00000000000E+00  0.00000000000E+00  0.43528296400E+02  0.43528296474E+02  0.25500000000E-02 0. -1.
          2   -1    0    0  501    0  0.00000000000E+00 -0.00000000000E+00 -0.94321882375E+03  0.94321882375E+03  0.25500000000E-02 0.  1.
    5000001    1    1    2    0    0  0.12650282365E+02  0.10832960031E+03 -0.34269858279E+03  0.39567998508E+03  0.16500000000E+03 0.  0.
   -5000001    1    1    2    0    0 -0.12650282365E+02 -0.10832960031E+03 -0.55699194456E+03  0.59106713515E+03  0.16500000000E+03 0.  0.
<mgrwt>
<rscale>  0 0.40524910E+03</rscale>
<asrwt>0</asrwt>
<pdfrwt beam="1">  1        2 0.14511057E+00 0.40524910E+03</pdfrwt>
<pdfrwt beam="2">  1       -2 0.66966617E-02 0.40524910E+03</pdfrwt>
<totfact> 0.35734630E+03</totfact>
</mgrwt>
</event>
<event>
 4    1  0.9050888E-005  0.4845627E+03  0.7818608E-02  0.1017889E+00
          2   -1    0    0  501    0  0.00000000000E+00  0.00000000000E+00  0.16467644972E+03  0.16467644974E+03  0.25500000000E-02 0.  1.
         -2   -1    0    0    0  501 -0.00000000000E+00 -0.00000000000E+00 -0.35645806314E+03  0.35645806315E+03  0.25500000000E-02 0. -1.
    5000001    1    1    2    0    0  0.54245005223E+01  0.97272875273E+02 -0.25535066006E+03  0.31924974090E+03  0.16500000000E+03 0.  0.
   -5000001    1    1    2    0    0 -0.54245005223E+01 -0.97272875273E+02  0.63569046638E+02  0.20188477199E+03  0.16500000000E+03 0.  0.
<mgrwt>
<rscale>  0 0.48456268E+03</rscale>
<asrwt>0</asrwt>
<pdfrwt beam="1">  1        2 0.25334838E-01 0.48456268E+03</pdfrwt>
<pdfrwt beam="2">  1       -2 0.54839702E-01 0.48456268E+03</pdfrwt>
<totfact> 0.67894851E+02</totfact>
</mgrwt>
</event>
<event>
 4    1  0.9050888E-005  0.5053707E+03  0.7818608E-02  0.1012387E+00
          2   -1    0    0  501    0  0.00000000000E+00  0.00000000000E+00  0.69768196266E+03  0.69768196266E+03  0.25500000000E-02 0.  1.
         -2   -1    0    0    0  501 -0.00000000000E+00 -0.00000000000E+00 -0.91517187260E+02  0.91517187296E+02  0.25500000000E-02 0. -1.
    5000001    1    1    2    0    0 -0.13427269570E+03  0.35472975389E+02  0.50870389756E+03  0.55253248247E+03  0.16500000000E+03 0.  0.
   -5000001    1    1    2    0    0  0.13427269570E+03 -0.35472975389E+02  0.97460877843E+02  0.23666666749E+03  0.16500000000E+03 0.  0.
<mgrwt>
<rscale>  0 0.50537072E+03</rscale>
<asrwt>0</asrwt>
<pdfrwt beam="1">  1        2 0.10733569E+00 0.50537072E+03</pdfrwt>
<pdfrwt beam="2">  1       -2 0.14079567E-01 0.50537072E+03</pdfrwt>
<totfact> 0.16060181E+03</totfact>
</mgrwt>
</event>
<event>
 4    1  0.9050888E-005  0.4871669E+03  0.7818608E-02  0.1017184E+00
          2   -1    0    0  501    0  0.00000000000E+00  0.00000000000E+00  0.43053822180E+03  0.43053822181E+03  0.25500000000E-02 0.  1.
         -2   -1    0    0    0  501 -0.00000000000E+00 -0.00000000000E+00 -0.13781101203E+03  0.13781101205E+03  0.25500000000E-02 0. -1.
    5000001    1    1    2    0    0 -0.60659908915E+02 -0.11964433584E+03  0.28496100458E+03  0.35555894839E+03  0.16500000000E+03 0.  0.
   -5000001    1    1    2    0    0  0.60659908915E+02  0.11964433584E+03  0.77662051972E+01  0.21279028547E+03  0.16500000000E+03 0.  0.
<mgrwt>
<rscale>  0 0.48716694E+03</rscale>
<asrwt>0</asrwt>
<pdfrwt beam="1">  1        2 0.66236649E-01 0.48716694E+03</pdfrwt>
<pdfrwt beam="2">  1       -2 0.21201694E-01 0.48716694E+03</pdfrwt>
<totfact> 0.14063092E+03</totfact>
</mgrwt>
</event>
<event>
 4    1  0.9050888E-005  0.4352259E+03  0.7818608E-02  0.1032222E+00
         -2   -1    0    0    0  501 -0.00000000000E+00  0.00000000000E+00  0.46865944579E+03  0.46865944580E+03  0.25500000000E-02 0. -1.
          2   -1    0    0  501    0  0.00000000000E+00 -0.00000000000E+00 -0.10104435343E+03  0.10104435347E+03  0.25500000000E-02 0.  1.
    5000001    1    1    2    0    0  0.63507703790E-01  0.79491615219E+02  0.29972829287E+02  0.18558634491E+03  0.16500000000E+03 0.  0.
   -5000001    1    1    2    0    0 -0.63507703790E-01 -0.79491615219E+02  0.33764226307E+03  0.38411745435E+03  0.16500000000E+03 0.  0.
<mgrwt>
<rscale>  0 0.43522588E+03</rscale>
<asrwt>0</asrwt>
<pdfrwt beam="1">  1        2 0.15545285E-01 0.43522588E+03</pdfrwt>
<pdfrwt beam="2">  1       -2 0.72101452E-01 0.43522588E+03</pdfrwt>
<totfact> 0.67251843E+02</totfact>
</mgrwt>
</event>
<event>
 4    1  0.9050888E-005  0.1065337E+04  0.7818608E-02  0.9239651E-01
         -2   -1    0    0    0  501 -0.00000000000E+00  0.00000000000E+00  0.60366760968E+03  0.60366760969E+03  0.25500000000E-02 0. -1.
          2   -1    0    0  501    0  0.00000000000E+00 -0.00000000000E+00 -0.47001972125E+03  0.47001972125E+03  0.25500000000E-02 0.  1.
    5000001    1    1    2    0    0  0.46238623584E+03  0.17998124269E+03  0.16918977167E+03  0.54958571457E+03  0.16500000000E+03 0.  0.
   -5000001    1    1    2    0    0 -0.46238623584E+03 -0.17998124269E+03 -0.35541883236E+02  0.52410161637E+03  0.16500000000E+03 0.  0.
<mgrwt>
<rscale>  0 0.10653369E+04</rscale>
<asrwt>0</asrwt>
<pdfrwt beam="1">  1        2 0.72310727E-01 0.10653369E+04</pdfrwt>
<pdfrwt beam="2">  1       -2 0.92871940E-01 0.10653369E+04</pdfrwt>
<totfact> 0.64697299E+01</totfact>
</mgrwt>
</event>
<event>
 4    1  0.9050888E-005  0.7909071E+03  0.7818608E-02  0.9573273E-01
          2   -1    0    0  501    0  0.00000000000E+00  0.00000000000E+00  0.12143586935E+04  0.12143586935E+04  0.25500000000E-02 0.  1.
         -2   -1    0    0    0  501 -0.00000000000E+00 -0.00000000000E+00 -0.12877867900E+03  0.12877867902E+03  0.25500000000E-02 0. -1.
    5000001    1    1    2    0    0  0.34216553832E+03  0.59636070371E+01  0.72917492660E+03  0.82221280323E+03  0.16500000000E+03 0.  0.
   -5000001    1    1    2    0    0 -0.34216553832E+03 -0.59636070371E+01  0.35640508793E+03  0.52092456932E+03  0.16500000000E+03 0.  0.
<mgrwt>
<rscale>  0 0.79090710E+03</rscale>
<asrwt>0</asrwt>
<pdfrwt beam="1">  1        2 0.18682441E+00 0.79090710E+03</pdfrwt>
<pdfrwt beam="2">  1       -2 0.19812105E-01 0.79090710E+03</pdfrwt>
<totfact> 0.40551405E+02</totfact>
</mgrwt>
</event>
<event>
 4    1  0.9050888E-005  0.8202115E+03  0.7818608E-02  0.9531214E-01
         -2   -1    0    0    0  501 -0.00000000000E+00  0.00000000000E+00  0.14395818185E+03  0.14395818188E+03  0.25500000000E-02 0. -1.
          2   -1    0    0  501    0  0.00000000000E+00 -0.00000000000E+00 -0.11683026431E+04  0.11683026431E+04  0.25500000000E-02 0.  1.
    5000001    1    1    2    0    0 -0.22205486922E+03 -0.28795379036E+03 -0.36263477752E+03  0.53940219892E+03  0.16500000000E+03 0.  0.
   -5000001    1    1    2    0    0  0.22205486922E+03  0.28795379036E+03 -0.66170968369E+03  0.77285862603E+03  0.16500000000E+03 0.  0.
<mgrwt>
<rscale>  0 0.82021150E+03</rscale>
<asrwt>0</asrwt>
<pdfrwt beam="1">  1        2 0.17973886E+00 0.82021150E+03</pdfrwt>
<pdfrwt beam="2">  1       -2 0.22147413E-01 0.82021150E+03</pdfrwt>
<totfact> 0.35438400E+02</totfact>
</mgrwt>
</event>
<event>
 4    1  0.9050888E-005  0.4501137E+03  0.7818608E-02  0.1027688E+00
          2   -1    0    0  501    0  0.00000000000E+00  0.00000000000E+00  0.20337090842E+03  0.20337090844E+03  0.25500000000E-02 0.  1.
         -2   -1    0    0    0  501 -0.00000000000E+00 -0.00000000000E+00 -0.24905518000E+03  0.24905518002E+03  0.25500000000E-02 0. -1.
    5000001    1    1    2    0    0 -0.42564399913E+02  0.14213232391E+03 -0.60615148711E+02  0.23002721990E+03  0.16500000000E+03 0.  0.
   -5000001    1    1    2    0    0  0.42564399913E+02 -0.14213232391E+03  0.14930877129E+02  0.22239886855E+03  0.16500000000E+03 0.  0.
<mgrwt>
<rscale>  0 0.45011367E+03</rscale>
<asrwt>0</asrwt>
<pdfrwt beam="1">  1        2 0.31287832E-01 0.45011367E+03</pdfrwt>
<pdfrwt beam="2">  1       -2 0.38316181E-01 0.45011367E+03</pdfrwt>
<totfact> 0.10909359E+03</totfact>
</mgrwt>
</event>
<event>
 4    1  0.9050888E-005  0.8461195E+03  0.7818608E-02  0.9495560E-01
         -2   -1    0    0    0  501 -0.00000000000E+00  0.00000000000E+00  0.18823257420E+03  0.18823257422E+03  0.25500000000E-02 0. -1.
          2   -1    0    0  501    0  0.00000000000E+00 -0.00000000000E+00 -0.95084269223E+03  0.95084269223E+03  0.25500000000E-02 0.  1.
    5000001    1    1    2    0    0 -0.28225279738E+03  0.21910153514E+03 -0.17238941016E+03  0.42966874807E+03  0.16500000000E+03 0.  0.
   -5000001    1    1    2    0    0  0.28225279738E+03 -0.21910153514E+03 -0.59022070787E+03  0.70940651838E+03  0.16500000000E+03 0.  0.
<mgrwt>
<rscale>  0 0.84611954E+03</rscale>
<asrwt>0</asrwt>
<pdfrwt beam="1">  1        2 0.14628349E+00 0.84611954E+03</pdfrwt>
<pdfrwt beam="2">  1       -2 0.28958858E-01 0.84611954E+03</pdfrwt>
<totfact> 0.29781416E+02</totfact>
</mgrwt>
</event>
<event>
 4    1  0.9050888E-005  0.4141647E+03  0.7818608E-02  0.1038982E+00
          2   -1    0    0  501    0  0.00000000000E+00  0.00000000000E+00  0.74542818308E+02  0.74542818352E+02  0.25500000000E-02 0.  1.
         -2   -1    0    0    0  501 -0.00000000000E+00 -0.00000000000E+00 -0.57528143555E+03  0.57528143555E+03  0.25500000000E-02 0. -1.
    5000001    1    1    2    0    0  0.99952941769E+02 -0.73970165258E+02 -0.22840759413E+03  0.30798896892E+03  0.16500000000E+03 0.  0.
   -5000001    1    1    2    0    0 -0.99952941769E+02  0.73970165258E+02 -0.27233102310E+03  0.34183528499E+03  0.16500000000E+03 0.  0.
<mgrwt>
<rscale>  0 0.41416470E+03</rscale>
<asrwt>0</asrwt>
<pdfrwt beam="1">  1        2 0.11468126E-01 0.41416470E+03</pdfrwt>
<pdfrwt beam="2">  1       -2 0.88504834E-01 0.41416470E+03</pdfrwt>
<totfact> 0.61744315E+02</totfact>
</mgrwt>
</event>
<event>
 4    1  0.9050888E-005  0.4651952E+03  0.7818608E-02  0.1023285E+00
          2   -1    0    0  501    0  0.00000000000E+00  0.00000000000E+00  0.22036029035E+04  0.22036029035E+04  0.25500000000E-02 0.  1.
         -2   -1    0    0    0  501 -0.00000000000E+00 -0.00000000000E+00 -0.24551445511E+02  0.24551445643E+02  0.25500000000E-02 0. -1.
    5000001    1    1    2    0    0  0.11355651122E+03  0.78320609339E+02  0.66522477143E+03  0.69912673788E+03  0.16500000000E+03 0.  0.
   -5000001    1    1    2    0    0 -0.11355651122E+03 -0.78320609339E+02  0.15138266865E+04  0.15290276113E+04  0.16500000000E+03 0.  0.
<mgrwt>
<rscale>  0 0.46519517E+03</rscale>
<asrwt>0</asrwt>
<pdfrwt beam="1">  1        2 0.33901592E+00 0.46519517E+03</pdfrwt>
<pdfrwt beam="2">  1       -2 0.37771445E-02 0.46519517E+03</pdfrwt>
<totfact> 0.17116335E+03</totfact>
</mgrwt>
</event>
<event>
 4    1  0.9050888E-005  0.4032274E+03  0.7818608E-02  0.1042668E+00
         -2   -1    0    0    0  501 -0.00000000000E+00  0.00000000000E+00  0.20654677088E+02  0.20654677245E+02  0.25500000000E-02 0. -1.
          2   -1    0    0  501    0  0.00000000000E+00 -0.00000000000E+00 -0.19679844858E+04  0.19679844858E+04  0.25500000000E-02 0.  1.
    5000001    1    1    2    0    0 -0.62457278953E+01 -0.78736310396E+02 -0.13916967039E+04  0.14036677425E+04  0.16500000000E+03 0.  0.
   -5000001    1    1    2    0    0  0.62457278953E+01  0.78736310396E+02 -0.55563310481E+03  0.58497142055E+03  0.16500000000E+03 0.  0.
<mgrwt>
<rscale>  0 0.40322740E+03</rscale>
<asrwt>0</asrwt>
<pdfrwt beam="1">  1        2 0.30276670E+00 0.40322740E+03</pdfrwt>
<pdfrwt beam="2">  1       -2 0.31776442E-02 0.40322740E+03</pdfrwt>
<totfact> 0.29871496E+03</totfact>
</mgrwt>
</event>
<event>
 4    1  0.9050888E-005  0.6415597E+03  0.7818608E-02  0.9822747E-01
         -2   -1    0    0    0  501 -0.00000000000E+00  0.00000000000E+00  0.10008038230E+03  0.10008038233E+03  0.25500000000E-02 0. -1.
          2   -1    0    0  501    0  0.00000000000E+00 -0.00000000000E+00 -0.10281705656E+04  0.10281705656E+04  0.25500000000E-02 0.  1.
    5000001    1    1    2    0    0  0.22793065096E+03 -0.20311023179E+02 -0.19554911977E+03  0.34326284034E+03  0.16500000000E+03 0.  0.
   -5000001    1    1    2    0    0 -0.22793065096E+03  0.20311023179E+02 -0.73254106354E+03  0.78498810761E+03  0.16500000000E+03 0.  0.
<mgrwt>
<rscale>  0 0.64155967E+03</rscale>
<asrwt>0</asrwt>
<pdfrwt beam="1">  1        2 0.15818008E+00 0.64155967E+03</pdfrwt>
<pdfrwt beam="2">  1       -2 0.15396983E-01 0.64155967E+03</pdfrwt>
<totfact> 0.81655334E+02</totfact>
</mgrwt>
</event>
<event>
 4    1  0.9050888E-005  0.4628572E+03  0.7818608E-02  0.1023956E+00
          2   -1    0    0  501    0  0.00000000000E+00  0.00000000000E+00  0.72449580429E+03  0.72449580429E+03  0.25500000000E-02 0.  1.
         -2   -1    0    0    0  501 -0.00000000000E+00 -0.00000000000E+00 -0.73926157443E+02  0.73926157487E+02  0.25500000000E-02 0. -1.
    5000001    1    1    2    0    0  0.12812938059E+03 -0.70915211469E+02  0.20468272265E+03  0.30094205811E+03  0.16500000000E+03 0.  0.
   -5000001    1    1    2    0    0 -0.12812938059E+03  0.70915211469E+02  0.44588692420E+03  0.49747990367E+03  0.16500000000E+03 0.  0.
<mgrwt>
<rscale>  0 0.46285717E+03</rscale>
<asrwt>0</asrwt>
<pdfrwt beam="1">  1        2 0.11146089E+00 0.46285717E+03</pdfrwt>
<pdfrwt beam="2">  1       -2 0.11373255E-01 0.46285717E+03</pdfrwt>
<totfact> 0.21776439E+03</totfact>
</mgrwt>
</event>
<event>
 4    1  0.9050888E-005  0.4842886E+03  0.7818608E-02  0.1017963E+00
         -2   -1    0    0    0  501 -0.00000000000E+00  0.00000000000E+00  0.12355794816E+03  0.12355794818E+03  0.25500000000E-02 0. -1.
          2   -1    0    0  501    0  0.00000000000E+00 -0.00000000000E+00 -0.47454540639E+03  0.47454540640E+03  0.25500000000E-02 0.  1.
    5000001    1    1    2    0    0  0.13578051117E+03 -0.11106453358E+03 -0.20666845935E+03  0.31734607280E+03  0.16500000000E+03 0.  0.
   -5000001    1    1    2    0    0 -0.13578051117E+03  0.11106453358E+03 -0.14431899889E+03  0.28075728178E+03  0.16500000000E+03 0.  0.
<mgrwt>
<rscale>  0 0.48428858E+03</rscale>
<asrwt>0</asrwt>
<pdfrwt beam="1">  1        2 0.73006985E-01 0.48428858E+03</pdfrwt>
<pdfrwt beam="2">  1       -2 0.19008915E-01 0.48428858E+03</pdfrwt>
<totfact> 0.15231403E+03</totfact>
</mgrwt>
</event>
<event>
 4    1  0.9050888E-005  0.5580451E+03  0.7818608E-02  0.9996488E-01
          2   -1    0    0  501    0  0.00000000000E+00  0.00000000000E+00  0.14146944293E+04  0.14146944293E+04  0.25500000000E-02 0.  1.
         -2   -1    0    0    0  501 -0.00000000000E+00 -0.00000000000E+00 -0.55032080238E+02  0.55032080297E+02  0.25500000000E-02 0. -1.
    5000001    1    1    2    0    0 -0.21425557395E+02 -0.22185702263E+03  0.76096403351E+03  0.80992027588E+03  0.16500000000E+03 0.  0.
   -5000001    1    1    2    0    0  0.21425557395E+02  0.22185702263E+03  0.59869831553E+03  0.65980623369E+03  0.16500000000E+03 0.  0.
<mgrwt>
<rscale>  0 0.55804508E+03</rscale>
<asrwt>0</asrwt>
<pdfrwt beam="1">  1        2 0.21764527E+00 0.55804508E+03</pdfrwt>
<pdfrwt beam="2">  1       -2 0.84664748E-02 0.55804508E+03</pdfrwt>
<totfact> 0.12971392E+03</totfact>
</mgrwt>
</event>
<event>
 4    1  0.9050888E-005  0.4930341E+03  0.7818608E-02  0.1015613E+00
          2   -1    0    0  501    0  0.00000000000E+00  0.00000000000E+00  0.81749126575E+02  0.81749126615E+02  0.25500000000E-02 0.  1.
         -2   -1    0    0    0  501 -0.00000000000E+00 -0.00000000000E+00 -0.74338001955E+03  0.74338001955E+03  0.25500000000E-02 0. -1.
    5000001    1    1    2    0    0  0.16096433556E+03  0.70635417808E+02 -0.41691571151E+03  0.48160418403E+03  0.16500000000E+03 0.  0.
   -5000001    1    1    2    0    0 -0.16096433556E+03 -0.70635417808E+02 -0.24471518146E+03  0.34352496213E+03  0.16500000000E+03 0.  0.
<mgrwt>
<rscale>  0 0.49303415E+03</rscale>
<asrwt>0</asrwt>
<pdfrwt beam="1">  1        2 0.12576789E-01 0.49303415E+03</pdfrwt>
<pdfrwt beam="2">  1       -2 0.11436615E+00 0.49303415E+03</pdfrwt>
<totfact> 0.30147886E+02</totfact>
</mgrwt>
</event>
<event>
 4    1  0.9050888E-005  0.3945341E+03  0.7818608E-02  0.1045689E+00
          2   -1    0    0  501    0  0.00000000000E+00  0.00000000000E+00  0.10489749715E+04  0.10489749715E+04  0.25500000000E-02 0.  1.
         -2   -1    0    0    0  501 -0.00000000000E+00 -0.00000000000E+00 -0.37097444758E+02  0.37097444846E+02  0.25500000000E-02 0. -1.
    5000001    1    1    2    0    0  0.86702779227E+02 -0.73774130371E+01  0.32929811142E+03  0.37846273837E+03  0.16500000000E+03 0.  0.
   -5000001    1    1    2    0    0 -0.86702779227E+02  0.73774130371E+01  0.68257941529E+03  0.70760967795E+03  0.16500000000E+03 0.  0.
<mgrwt>
<rscale>  0 0.39453411E+03</rscale>
<asrwt>0</asrwt>
<pdfrwt beam="1">  1        2 0.16138076E+00 0.39453411E+03</pdfrwt>
<pdfrwt beam="2">  1       -2 0.57072993E-02 0.39453411E+03</pdfrwt>
<totfact> 0.39339017E+03</totfact>
</mgrwt>
</event>
<event>
 4    1  0.9050888E-005  0.8305243E+03  0.7818608E-02  0.9516856E-01
          2   -1    0    0  501    0  0.00000000000E+00  0.00000000000E+00  0.12075393817E+03  0.12075393819E+03  0.25500000000E-02 0.  1.
         -2   -1    0    0    0  501 -0.00000000000E+00 -0.00000000000E+00 -0.14280499115E+04  0.14280499115E+04  0.25500000000E-02 0. -1.
    5000001    1    1    2    0    0  0.11321148595E+03  0.34056729988E+03 -0.89257259182E+03  0.97607057018E+03  0.16500000000E+03 0.  0.
   -5000001    1    1    2    0    0 -0.11321148595E+03 -0.34056729988E+03 -0.41472338151E+03  0.57273327952E+03  0.16500000000E+03 0.  0.
<mgrwt>
<rscale>  0 0.83052429E+03</rscale>
<asrwt>0</asrwt>
<pdfrwt beam="1">  1        2 0.18577530E-01 0.83052429E+03</pdfrwt>
<pdfrwt beam="2">  1       -2 0.21969998E+00 0.83052429E+03</pdfrwt>
<totfact> 0.31239576E+01</totfact>
</mgrwt>
</event>
<event>
 4    1  0.9050888E-005  0.5116952E+03  0.7818608E-02  0.1010771E+00
          2   -1    0    0  501    0  0.00000000000E+00  0.00000000000E+00  0.14655927154E+04  0.14655927154E+04  0.25500000000E-02 0. -1.
         -2   -1    0    0    0  501 -0.00000000000E+00 -0.00000000000E+00 -0.44663160228E+02  0.44663160300E+02  0.25500000000E-02 0.  1.
    5000001    1    1    2    0    0  0.10719933999E+03  0.16352516392E+03  0.70778461491E+03  0.75260629737E+03  0.16500000000E+03 0.  0.
   -5000001    1    1    2    0    0 -0.10719933999E+03 -0.16352516392E+03  0.71314494025E+03  0.75764957833E+03  0.16500000000E+03 0.  0.
<mgrwt>
<rscale>  0 0.51169523E+03</rscale>
<asrwt>0</asrwt>
<pdfrwt beam="1">  1        2 0.22547582E+00 0.51169523E+03</pdfrwt>
<pdfrwt beam="2">  1       -2 0.68712548E-02 0.51169523E+03</pdfrwt>
<totfact> 0.16951897E+03</totfact>
</mgrwt>
</event>
<event>
 4    1  0.9050888E-005  0.4100288E+03  0.7818608E-02  0.1040361E+00
          2   -1    0    0  501    0  0.00000000000E+00  0.00000000000E+00  0.19714753882E+04  0.19714753882E+04  0.25500000000E-02 0.  1.
         -2   -1    0    0    0  501 -0.00000000000E+00 -0.00000000000E+00 -0.21319513003E+02  0.21319513155E+02  0.25500000000E-02 0. -1.
    5000001    1    1    2    0    0  0.11285064297E+03  0.45435796149E+02  0.96296056149E+03  0.98453934516E+03  0.16500000000E+03 0.  0.
   -5000001    1    1    2    0    0 -0.11285064297E+03 -0.45435796149E+02  0.98719531370E+03  0.10082555562E+04  0.16500000000E+03 0.  0.
<mgrwt>
<rscale>  0 0.41002876E+03</rscale>
<asrwt>0</asrwt>
<pdfrwt beam="1">  1        2 0.30330393E+00 0.41002876E+03</pdfrwt>
<pdfrwt beam="2">  1       -2 0.32799249E-02 0.41002876E+03</pdfrwt>
<totfact> 0.28346966E+03</totfact>
</mgrwt>
</event>
<event>
 4    1  0.9050888E-005  0.4716603E+03  0.7818608E-02  0.1021453E+00
         -2   -1    0    0    0  501 -0.00000000000E+00  0.00000000000E+00  0.38242668991E+03  0.38242668991E+03  0.25500000000E-02 0.  1.
          2   -1    0    0  501    0  0.00000000000E+00 -0.00000000000E+00 -0.14542882762E+03  0.14542882764E+03  0.25500000000E-02 0. -1.
    5000001    1    1    2    0    0 -0.10339018744E+03  0.23306175869E+02  0.26509456415E+03  0.32974662490E+03  0.16500000000E+03 0.  0.
   -5000001    1    1    2    0    0  0.10339018744E+03 -0.23306175869E+02 -0.28096701859E+02  0.19810889265E+03  0.16500000000E+03 0.  0.
<mgrwt>
<rscale>  0 0.47166032E+03</rscale>
<asrwt>0</asrwt>
<pdfrwt beam="1">  1        2 0.22373666E-01 0.47166032E+03</pdfrwt>
<pdfrwt beam="2">  1       -2 0.58834874E-01 0.47166032E+03</pdfrwt>
<totfact> 0.67652722E+02</totfact>
</mgrwt>
</event>
<event>
 4    1  0.9050888E-005  0.4520829E+03  0.7818608E-02  0.1027103E+00
         -2   -1    0    0    0  501 -0.00000000000E+00  0.00000000000E+00  0.17721645801E+03  0.17721645803E+03  0.25500000000E-02 0. -1.
          2   -1    0    0  501    0  0.00000000000E+00 -0.00000000000E+00 -0.28831822257E+03  0.28831822258E+03  0.25500000000E-02 0.  1.
    5000001    1    1    2    0    0 -0.49287370684E+02  0.30091468437E+02 -0.20311516449E+03  0.26798416264E+03  0.16500000000E+03 0.  0.
   -5000001    1    1    2    0    0  0.49287370684E+02 -0.30091468437E+02  0.92013399933E+02  0.19755051797E+03  0.16500000000E+03 0.  0.
<mgrwt>
<rscale>  0 0.45208289E+03</rscale>
<asrwt>0</asrwt>
<pdfrwt beam="1">  1        2 0.44356650E-01 0.45208289E+03</pdfrwt>
<pdfrwt beam="2">  1       -2 0.27264070E-01 0.45208289E+03</pdfrwt>
<totfact> 0.13991220E+03</totfact>
</mgrwt>
</event>
<event>
 4    1  0.9050888E-005  0.5615037E+03  0.7818608E-02  0.9988658E-01
         -2   -1    0    0    0  501 -0.00000000000E+00  0.00000000000E+00  0.31156171511E+03  0.31156171512E+03  0.25500000000E-02 0. -1.
          2   -1    0    0  501    0  0.00000000000E+00 -0.00000000000E+00 -0.25298870836E+03  0.25298870838E+03  0.25500000000E-02 0.  1.
    5000001    1    1    2    0    0 -0.21159662796E+03  0.62248672081E+02  0.83881838720E+02  0.28793956485E+03  0.16500000000E+03 0.  0.
   -5000001    1    1    2    0    0  0.21159662796E+03 -0.62248672081E+02 -0.25308831975E+02  0.27661085864E+03  0.16500000000E+03 0.  0.
<mgrwt>
<rscale>  0 0.56150368E+03</rscale>
<asrwt>0</asrwt>
<pdfrwt beam="1">  1        2 0.38921340E-01 0.56150368E+03</pdfrwt>
<pdfrwt beam="2">  1       -2 0.47932572E-01 0.56150368E+03</pdfrwt>
<totfact> 0.55183302E+02</totfact>
</mgrwt>
</event>
<event>
 4    1  0.9050888E-005  0.7727279E+03  0.7818608E-02  0.9600353E-01
          2   -1    0    0  501    0  0.00000000000E+00  0.00000000000E+00  0.14887706100E+04  0.14887706100E+04  0.25500000000E-02 0.  1.
         -2   -1    0    0    0  501 -0.00000000000E+00 -0.00000000000E+00 -0.10026870551E+03  0.10026870554E+03  0.25500000000E-02 0. -1.
    5000001    1    1    2    0    0  0.27494865896E+03 -0.13404377210E+03  0.34716581955E+03  0.49123681068E+03  0.16500000000E+03 0.  0.
   -5000001    1    1    2    0    0 -0.27494865896E+03  0.13404377210E+03  0.10413360849E+04  0.10978025049E+04  0.16500000000E+03 0.  0.
<mgrwt>
<rscale>  0 0.77272790E+03</rscale>
<asrwt>0</asrwt>
<pdfrwt beam="1">  1        2 0.22904161E+00 0.77272790E+03</pdfrwt>
<pdfrwt beam="2">  1       -2 0.15425956E-01 0.77272790E+03</pdfrwt>
<totfact> 0.43509771E+02</totfact>
</mgrwt>
</event>
<event>
 4    1  0.9050888E-005  0.6258875E+03  0.7818608E-02  0.9853107E-01
          2   -1    0    0  501    0  0.00000000000E+00  0.00000000000E+00  0.22859195010E+04  0.22859195010E+04  0.25500000000E-02 0.  1.
         -2   -1    0    0    0  501 -0.00000000000E+00 -0.00000000000E+00 -0.42842181357E+02  0.42842181433E+02  0.25500000000E-02 0. -1.
    5000001    1    1    2    0    0 -0.13375460042E+03 -0.22412811420E+03  0.93236301618E+03  0.98216571853E+03  0.16500000000E+03 0.  0.
   -5000001    1    1    2    0    0  0.13375460042E+03  0.22412811420E+03  0.13107143034E+04  0.13465959639E+04  0.16500000000E+03 0.  0.
<mgrwt>
<rscale>  0 0.62588746E+03</rscale>
<asrwt>0</asrwt>
<pdfrwt beam="1">  1        2 0.35167989E+00 0.62588746E+03</pdfrwt>
<pdfrwt beam="2">  1       -2 0.65911055E-02 0.62588746E+03</pdfrwt>
<totfact> 0.64382100E+02</totfact>
</mgrwt>
</event>
<event>
 4    1  0.9050888E-005  0.4339717E+03  0.7818608E-02  0.1032613E+00
         -2   -1    0    0    0  501 -0.00000000000E+00  0.00000000000E+00  0.13739356678E+03  0.13739356680E+03  0.25500000000E-02 0. -1.
          2   -1    0    0  501    0  0.00000000000E+00 -0.00000000000E+00 -0.34268600836E+03  0.34268600837E+03  0.25500000000E-02 0.  1.
    5000001    1    1    2    0    0  0.11947760848E+03  0.74204384718E+02 -0.11233224877E+03  0.24418174329E+03  0.16500000000E+03 0.  0.
   -5000001    1    1    2    0    0 -0.11947760848E+03 -0.74204384718E+02 -0.92960192809E+02  0.23589783188E+03  0.16500000000E+03 0.  0.
<mgrwt>
<rscale>  0 0.43397167E+03</rscale>
<asrwt>0</asrwt>
<pdfrwt beam="1">  1        2 0.52720924E-01 0.43397167E+03</pdfrwt>
<pdfrwt beam="2">  1       -2 0.21137472E-01 0.43397167E+03</pdfrwt>
<totfact> 0.18186408E+03</totfact>
</mgrwt>
</event>
<event>
 4    1  0.9050888E-005  0.4340197E+03  0.7818608E-02  0.1032598E+00
          2   -1    0    0  501    0  0.00000000000E+00  0.00000000000E+00  0.57598636942E+03  0.57598636943E+03  0.25500000000E-02 0.  1.
         -2   -1    0    0    0  501 -0.00000000000E+00 -0.00000000000E+00 -0.81761107579E+02  0.81761107619E+02  0.25500000000E-02 0. -1.
    5000001    1    1    2    0    0 -0.12355360659E+03 -0.22112970161E+02  0.34431383231E+03  0.40190980614E+03  0.16500000000E+03 0.  0.
   -5000001    1    1    2    0    0  0.12355360659E+03  0.22112970161E+02  0.14991142953E+03  0.25583767091E+03  0.16500000000E+03 0.  0.
<mgrwt>
<rscale>  0 0.43401974E+03</rscale>
<asrwt>0</asrwt>
<pdfrwt beam="1">  1        2 0.88613288E-01 0.43401974E+03</pdfrwt>
<pdfrwt beam="2">  1       -2 0.12578632E-01 0.43401974E+03</pdfrwt>
<totfact> 0.24371741E+03</totfact>
</mgrwt>
</event>
<event>
 4    1  0.9050888E-005  0.4417332E+03  0.7818608E-02  0.1030216E+00
         -2   -1    0    0    0  501 -0.00000000000E+00  0.00000000000E+00  0.13467200359E+03  0.13467200361E+03  0.25500000000E-02 0. -1.
          2   -1    0    0  501    0  0.00000000000E+00 -0.00000000000E+00 -0.36222866065E+03  0.36222866066E+03  0.25500000000E-02 0.  1.
    5000001    1    1    2    0    0  0.90293640046E+02  0.11481949048E+03 -0.97070696743E+02  0.24079903861E+03  0.16500000000E+03 0.  0.
   -5000001    1    1    2    0    0 -0.90293640046E+02 -0.11481949048E+03 -0.13048596033E+03  0.25610162567E+03  0.16500000000E+03 0.  0.
<mgrwt>
<rscale>  0 0.44173322E+03</rscale>
<asrwt>0</asrwt>
<pdfrwt beam="1">  1        2 0.55727486E-01 0.44173322E+03</pdfrwt>
<pdfrwt beam="2">  1       -2 0.20718770E-01 0.44173322E+03</pdfrwt>
<totfact> 0.17720219E+03</totfact>
</mgrwt>
</event>
<event>
 4    1  0.9050888E-005  0.4114034E+03  0.7818608E-02  0.1039901E+00
         -2   -1    0    0    0  501 -0.00000000000E+00  0.00000000000E+00  0.18370341635E+02  0.18370341812E+02  0.25500000000E-02 0. -1.
          2   -1    0    0  501    0  0.00000000000E+00 -0.00000000000E+00 -0.23033426452E+04  0.23033426452E+04  0.25500000000E-02 0.  1.
    5000001    1    1    2    0    0 -0.82949156569E+00 -0.62277564826E+02 -0.54500495820E+03  0.57283033055E+03  0.16500000000E+03 0.  0.
   -5000001    1    1    2    0    0  0.82949156569E+00  0.62277564826E+02 -0.17399673454E+04  0.17488826565E+04  0.16500000000E+03 0.  0.
<mgrwt>
<rscale>  0 0.41140341E+03</rscale>
<asrwt>0</asrwt>
<pdfrwt beam="1">  1        2 0.35436018E+00 0.41140341E+03</pdfrwt>
<pdfrwt beam="2">  1       -2 0.28262082E-02 0.41140341E+03</pdfrwt>
<totfact> 0.23511277E+03</totfact>
</mgrwt>
</event>
<event>
 4    1  0.9050888E-005  0.6429640E+03  0.7818608E-02  0.9820072E-01
          2   -1    0    0  501    0  0.00000000000E+00  0.00000000000E+00  0.36769122562E+04  0.36769122562E+04  0.25500000000E-02 0.  1.
         -2   -1    0    0    0  501 -0.00000000000E+00 -0.00000000000E+00 -0.28108010092E+02  0.28108010208E+02  0.25500000000E-02 0. -1.
    5000001    1    1    2    0    0 -0.20017842000E+03  0.11025645880E+03  0.93359665599E+03  0.97522079685E+03  0.16500000000E+03 0.  0.
   -5000001    1    1    2    0    0  0.20017842000E+03 -0.11025645880E+03  0.27152075901E+04  0.27297994696E+04  0.16500000000E+03 0.  0.
<mgrwt>
<rscale>  0 0.64296403E+03</rscale>
<asrwt>0</asrwt>
<pdfrwt beam="1">  1        2 0.56567846E+00 0.64296403E+03</pdfrwt>
<pdfrwt beam="2">  1       -2 0.43243119E-02 0.64296403E+03</pdfrwt>
<totfact> 0.17291340E+02</totfact>
</mgrwt>
</event>
<event>
 4    1  0.9050888E-005  0.4961410E+03  0.7818608E-02  0.1014791E+00
         -2   -1    0    0    0  501 -0.00000000000E+00  0.00000000000E+00  0.84211079904E+02  0.84211079943E+02  0.25500000000E-02 0. -1.
          2   -1    0    0  501    0  0.00000000000E+00 -0.00000000000E+00 -0.73077062805E+03  0.73077062805E+03  0.25500000000E-02 0.  1.
    5000001    1    1    2    0    0 -0.12216684448E+03 -0.25169495305E+02 -0.54824212142E+03  0.58596302365E+03  0.16500000000E+03 0.  0.
   -5000001    1    1    2    0    0  0.12216684448E+03  0.25169495305E+02 -0.98317426727E+02  0.22901868435E+03  0.16500000000E+03 0.  0.
<mgrwt>
<rscale>  0 0.49614104E+03</rscale>
<asrwt>0</asrwt>
<pdfrwt beam="1">  1        2 0.11242625E+00 0.49614104E+03</pdfrwt>
<pdfrwt beam="2">  1       -2 0.12955551E-01 0.49614104E+03</pdfrwt>
<totfact> 0.17398997E+03</totfact>
</mgrwt>
</event>
<event>
 4    1  0.9050888E-005  0.4721035E+03  0.7818608E-02  0.1021328E+00
          2   -1    0    0  501    0  0.00000000000E+00  0.00000000000E+00  0.10240960692E+04  0.10240960692E+04  0.25500000000E-02 0.  1.
         -2   -1    0    0    0  501 -0.00000000000E+00 -0.00000000000E+00 -0.54409370177E+02  0.54409370236E+02  0.25500000000E-02 0. -1.
    5000001    1    1    2    0    0 -0.48803996283E+02 -0.11519904250E+03  0.74373291304E+03  0.77202091642E+03  0.16500000000E+03 0.  0.
   -5000001    1    1    2    0    0  0.48803996283E+02  0.11519904250E+03  0.22595378593E+03  0.30648452297E+03  0.16500000000E+03 0.  0.
<mgrwt>
<rscale>  0 0.47210347E+03</rscale>
<asrwt>0</asrwt>
<pdfrwt beam="1">  1        2 0.15755324E+00 0.47210347E+03</pdfrwt>
<pdfrwt beam="2">  1       -2 0.83706724E-02 0.47210347E+03</pdfrwt>
<totfact> 0.22365312E+03</totfact>
</mgrwt>
</event>
<event>
 4    1  0.9050888E-005  0.5042211E+03  0.7818608E-02  0.1012683E+00
         -2   -1    0    0    0  501 -0.00000000000E+00  0.00000000000E+00  0.82984565458E+03  0.82984565458E+03  0.25500000000E-02 0. -1.
          2   -1    0    0  501    0  0.00000000000E+00 -0.00000000000E+00 -0.76592232009E+02  0.76592232052E+02  0.25500000000E-02 0.  1.
    5000001    1    1    2    0    0  0.16150688568E+03  0.95377736986E+02  0.43767823073E+03  0.50395299433E+03  0.16500000000E+03 0.  0.
   -5000001    1    1    2    0    0 -0.16150688568E+03 -0.95377736986E+02  0.31557519184E+03  0.40248489231E+03  0.16500000000E+03 0.  0.
<mgrwt>
<rscale>  0 0.50422111E+03</rscale>
<asrwt>0</asrwt>
<pdfrwt beam="1">  1        2 0.11783421E-01 0.50422111E+03</pdfrwt>
<pdfrwt beam="2">  1       -2 0.12766856E+00 0.50422111E+03</pdfrwt>
<totfact> 0.24917554E+02</totfact>
</mgrwt>
</event>
<event>
 4    1  0.9050888E-005  0.5217501E+03  0.7818608E-02  0.1008253E+00
          2   -1    0    0  501    0  0.00000000000E+00  0.00000000000E+00  0.50943463457E+03  0.50943463458E+03  0.25500000000E-02 0.  1.
         -2   -1    0    0    0  501 -0.00000000000E+00 -0.00000000000E+00 -0.13359081200E+03  0.13359081202E+03  0.25500000000E-02 0. -1.
    5000001    1    1    2    0    0  0.78128441942E+02  0.10781694749E+01  0.41758453964E+03  0.45574890415E+03  0.16500000000E+03 0.  0.
   -5000001    1    1    2    0    0 -0.78128441942E+02 -0.10781694749E+01 -0.41740717064E+02  0.18727654245E+03  0.16500000000E+03 0.  0.
<mgrwt>
<rscale>  0 0.52175008E+03</rscale>
<asrwt>0</asrwt>
<pdfrwt beam="1">  1        2 0.78374560E-01 0.52175008E+03</pdfrwt>
<pdfrwt beam="2">  1       -2 0.20552432E-01 0.52175008E+03</pdfrwt>
<totfact> 0.12267798E+03</totfact>
</mgrwt>
</event>
<event>
 4    1  0.9050888E-005  0.4831383E+03  0.7818608E-02  0.1018276E+00
         -2   -1    0    0    0  501 -0.00000000000E+00  0.00000000000E+00  0.95921993017E+02  0.95921993050E+02  0.25500000000E-02 0. -1.
          2   -1    0    0  501    0  0.00000000000E+00 -0.00000000000E+00 -0.60836580587E+03  0.60836580588E+03  0.25500000000E-02 0.  1.
    5000001    1    1    2    0    0 -0.14873414983E+02  0.79446985233E+02 -0.48484768970E+03  0.51849332121E+03  0.16500000000E+03 0.  0.
   -5000001    1    1    2    0    0  0.14873414983E+02 -0.79446985233E+02 -0.27596123156E+02  0.18579447771E+03  0.16500000000E+03 0.  0.
<mgrwt>
<rscale>  0 0.48313833E+03</rscale>
<asrwt>0</asrwt>
<pdfrwt beam="1">  1        2 0.93594737E-01 0.48313833E+03</pdfrwt>
<pdfrwt beam="2">  1       -2 0.14757230E-01 0.48313833E+03</pdfrwt>
<totfact> 0.17541797E+03</totfact>
</mgrwt>
</event>
<event>
 4    1  0.9050888E-005  0.4497630E+03  0.7818608E-02  0.1027793E+00
         -2   -1    0    0    0  501 -0.00000000000E+00  0.00000000000E+00  0.24139883140E+03  0.24139883141E+03  0.25500000000E-02 0. -1.
          2   -1    0    0  501    0  0.00000000000E+00 -0.00000000000E+00 -0.20949438401E+03  0.20949438402E+03  0.25500000000E-02 0.  1.
    5000001    1    1    2    0    0  0.81707777459E+02 -0.12759039421E+03  0.35781458224E+02  0.22684969108E+03  0.16500000000E+03 0.  0.
   -5000001    1    1    2    0    0 -0.81707777459E+02  0.12759039421E+03 -0.38770108308E+01  0.22404352435E+03  0.16500000000E+03 0.  0.
<mgrwt>
<rscale>  0 0.44976305E+03</rscale>
<asrwt>0</asrwt>
<pdfrwt beam="1">  1        2 0.32229905E-01 0.44976305E+03</pdfrwt>
<pdfrwt beam="2">  1       -2 0.37138282E-01 0.44976305E+03</pdfrwt>
<totfact> 0.11204436E+03</totfact>
</mgrwt>
</event>
<event>
 4    1  0.9050888E-005  0.4270899E+03  0.7818608E-02  0.1034783E+00
          2   -1    0    0  501    0  0.00000000000E+00  0.00000000000E+00  0.13353251005E+03  0.13353251008E+03  0.25500000000E-02 0.  1.
         -2   -1    0    0    0  501 -0.00000000000E+00 -0.00000000000E+00 -0.34150066631E+03  0.34150066631E+03  0.25500000000E-02 0. -1.
    5000001    1    1    2    0    0  0.15696376904E+02 -0.98653133590E+02 -0.20585715204E+01  0.19289389501E+03  0.16500000000E+03 0.  0.
   -5000001    1    1    2    0    0 -0.15696376904E+02  0.98653133590E+02 -0.20590958473E+03  0.28213928138E+03  0.16500000000E+03 0.  0.
<mgrwt>
<rscale>  0 0.42708988E+03</rscale>
<asrwt>0</asrwt>
<pdfrwt beam="1">  1        2 0.20543463E-01 0.42708988E+03</pdfrwt>
<pdfrwt beam="2">  1       -2 0.52538564E-01 0.42708988E+03</pdfrwt>
<totfact> 0.94238224E+02</totfact>
</mgrwt>
</event>
<event>
 4    1  0.9050888E-005  0.4632584E+03  0.7818608E-02  0.1023840E+00
          2   -1    0    0  501    0  0.00000000000E+00  0.00000000000E+00  0.15555040457E+04  0.15555040457E+04  0.25500000000E-02 0.  1.
         -2   -1    0    0    0  501 -0.00000000000E+00 -0.00000000000E+00 -0.34491762443E+02  0.34491762537E+02  0.25500000000E-02 0. -1.
    5000001    1    1    2    0    0  0.13715765189E+03 -0.50248349190E+01  0.46149847523E+03  0.50896297810E+03  0.16500000000E+03 0.  0.
   -5000001    1    1    2    0    0 -0.13715765189E+03  0.50248349190E+01  0.10595138080E+04  0.10810328301E+04  0.16500000000E+03 0.  0.
<mgrwt>
<rscale>  0 0.46325836E+03</rscale>
<asrwt>0</asrwt>
<pdfrwt beam="1">  1        2 0.23930828E+00 0.46325836E+03</pdfrwt>
<pdfrwt beam="2">  1       -2 0.53064257E-02 0.46325836E+03</pdfrwt>
<totfact> 0.22682039E+03</totfact>
</mgrwt>
</event>
<event>
 4    1  0.9050888E-005  0.4300345E+03  0.7818608E-02  0.1033849E+00
         -2   -1    0    0    0  501 -0.00000000000E+00  0.00000000000E+00  0.39491109277E+02  0.39491109359E+02  0.25500000000E-02 0. -1.
          2   -1    0    0  501    0  0.00000000000E+00 -0.00000000000E+00 -0.11707046888E+04  0.11707046888E+04  0.25500000000E-02 0.  1.
    5000001    1    1    2    0    0 -0.25763515376E+02  0.13512327578E+03 -0.59160844720E+03  0.62940258435E+03  0.16500000000E+03 0.  0.
   -5000001    1    1    2    0    0  0.25763515376E+02 -0.13512327578E+03 -0.53960513229E+03  0.58079321379E+03  0.16500000000E+03 0.  0.
<mgrwt>
<rscale>  0 0.43003454E+03</rscale>
<asrwt>0</asrwt>
<pdfrwt beam="1">  1        2 0.18010839E+00 0.43003454E+03</pdfrwt>
<pdfrwt beam="2">  1       -2 0.60755562E-02 0.43003454E+03</pdfrwt>
<totfact> 0.30219782E+03</totfact>
</mgrwt>
</event>
<event>
 4    1  0.9050888E-005  0.4972511E+03  0.7818608E-02  0.1014499E+00
          2   -1    0    0  501    0  0.00000000000E+00  0.00000000000E+00  0.13973141003E+03  0.13973141006E+03  0.25500000000E-02 0.  1.
         -2   -1    0    0    0  501 -0.00000000000E+00 -0.00000000000E+00 -0.44238197348E+03  0.44238197349E+03  0.25500000000E-02 0. -1.
    5000001    1    1    2    0    0 -0.18133272605E+01 -0.16872182832E+03 -0.24290160570E+03  0.33866876673E+03  0.16500000000E+03 0.  0.
   -5000001    1    1    2    0    0  0.18133272605E+01  0.16872182832E+03 -0.59748957746E+02  0.24344461682E+03  0.16500000000E+03 0.  0.
<mgrwt>
<rscale>  0 0.49725107E+03</rscale>
<asrwt>0</asrwt>
<pdfrwt beam="1">  1        2 0.21497140E-01 0.49725107E+03</pdfrwt>
<pdfrwt beam="2">  1       -2 0.68058764E-01 0.49725107E+03</pdfrwt>
<totfact> 0.52025862E+02</totfact>
</mgrwt>
</event>
<event>
 4    1  0.9050888E-005  0.5816013E+03  0.7818608E-02  0.9944330E-01
          2   -1    0    0  501    0  0.00000000000E+00  0.00000000000E+00  0.46562330595E+03  0.46562330596E+03  0.25500000000E-02 0.  1.
         -2   -1    0    0    0  501 -0.00000000000E+00 -0.00000000000E+00 -0.18161679393E+03  0.18161679394E+03  0.25500000000E-02 0. -1.
    5000001    1    1    2    0    0 -0.65371273727E+01  0.19082457597E+03  0.30282293928E+03  0.39418711975E+03  0.16500000000E+03 0.  0.
   -5000001    1    1    2    0    0  0.65371273727E+01 -0.19082457597E+03 -0.18816427254E+02  0.25305298015E+03  0.16500000000E+03 0.  0.
<mgrwt>
<rscale>  0 0.58160128E+03</rscale>
<asrwt>0</asrwt>
<pdfrwt beam="1">  1        2 0.71634353E-01 0.58160128E+03</pdfrwt>
<pdfrwt beam="2">  1       -2 0.27941046E-01 0.58160128E+03</pdfrwt>
<totfact> 0.78592289E+02</totfact>
</mgrwt>
</event>
<event>
 4    1  0.9050888E-005  0.3509220E+03  0.7818608E-02  0.1062237E+00
         -2   -1    0    0    0  501 -0.00000000000E+00  0.00000000000E+00  0.19297944440E+03  0.19297944442E+03  0.25500000000E-02 0. -1.
          2   -1    0    0  501    0  0.00000000000E+00 -0.00000000000E+00 -0.15953287706E+03  0.15953287708E+03  0.25500000000E-02 0.  1.
    5000001    1    1    2    0    0 -0.53371589421E+02  0.68051072911E+01 -0.92148462296E+01  0.17379513639E+03  0.16500000000E+03 0.  0.
   -5000001    1    1    2    0    0  0.53371589421E+02 -0.68051072911E+01  0.42661413572E+02  0.17871718510E+03  0.16500000000E+03 0.  0.
<mgrwt>
<rscale>  0 0.35092202E+03</rscale>
<asrwt>0</asrwt>
<pdfrwt beam="1">  1        2 0.24543520E-01 0.35092202E+03</pdfrwt>
<pdfrwt beam="2">  1       -2 0.29689145E-01 0.35092202E+03</pdfrwt>
<totfact> 0.22997786E+03</totfact>
</mgrwt>
</event>
<event>
 4    1  0.9050888E-005  0.5615548E+03  0.7818608E-02  0.9988543E-01
         -2   -1    0    0    0  501 -0.00000000000E+00  0.00000000000E+00  0.52458646656E+03  0.52458646657E+03  0.25500000000E-02 0. -1.
          2   -1    0    0  501    0  0.00000000000E+00 -0.00000000000E+00 -0.15028206255E+03  0.15028206257E+03  0.25500000000E-02 0.  1.
    5000001    1    1    2    0    0  0.13562880164E+01 -0.21620959680E+03  0.27095474207E+03  0.38391392462E+03  0.16500000000E+03 0.  0.
   -5000001    1    1    2    0    0 -0.13562880164E+01  0.21620959680E+03  0.10334966195E+03  0.29095460452E+03  0.16500000000E+03 0.  0.
<mgrwt>
<rscale>  0 0.56155476E+03</rscale>
<asrwt>0</asrwt>
<pdfrwt beam="1">  1        2 0.23120317E-01 0.56155476E+03</pdfrwt>
<pdfrwt beam="2">  1       -2 0.80705611E-01 0.56155476E+03</pdfrwt>
<totfact> 0.32859892E+02</totfact>
</mgrwt>
</event>
<event>
 4    1  0.9050888E-005  0.1133533E+04  0.7818608E-02  0.9173111E-01
          2   -1    0    0  501    0  0.00000000000E+00  0.00000000000E+00  0.19143001407E+03  0.19143001409E+03  0.25500000000E-02 0.  1.
         -2   -1    0    0    0  501 -0.00000000000E+00 -0.00000000000E+00 -0.16780237554E+04  0.16780237554E+04  0.25500000000E-02 0. -1.
    5000001    1    1    2    0    0 -0.34416509368E+03  0.35241011119E+03 -0.11170448495E+04  0.12319320980E+04  0.16500000000E+03 0.  0.
   -5000001    1    1    2    0    0  0.34416509368E+03 -0.35241011119E+03 -0.36954889174E+03  0.63752167145E+03  0.16500000000E+03 0.  0.
<mgrwt>
<rscale>  0 0.11335327E+04</rscale>
<asrwt>0</asrwt>
<pdfrwt beam="1">  1        2 0.29450772E-01 0.11335327E+04</pdfrwt>
<pdfrwt beam="2">  1       -2 0.25815749E+00 0.11335327E+04</pdfrwt>
<totfact> 0.10367620E+01</totfact>
</mgrwt>
</event>
<event>
 4    1  0.9050888E-005  0.6858504E+03  0.7818608E-02  0.9741741E-01
         -2   -1    0    0    0  501 -0.00000000000E+00  0.00000000000E+00  0.20271792033E+03  0.20271792035E+03  0.25500000000E-02 0. -1.
          2   -1    0    0  501    0  0.00000000000E+00 -0.00000000000E+00 -0.58010508750E+03  0.58010508750E+03  0.25500000000E-02 0.  1.
    5000001    1    1    2    0    0 -0.19112680745E+03  0.22939267522E+03 -0.14878993636E+03  0.37217455734E+03  0.16500000000E+03 0.  0.
   -5000001    1    1    2    0    0  0.19112680745E+03 -0.22939267522E+03 -0.22859723081E+03  0.41064845051E+03  0.16500000000E+03 0.  0.
<mgrwt>
<rscale>  0 0.68585041E+03</rscale>
<asrwt>0</asrwt>
<pdfrwt beam="1">  1        2 0.89246936E-01 0.68585041E+03</pdfrwt>
<pdfrwt beam="2">  1       -2 0.31187373E-01 0.68585041E+03</pdfrwt>
<totfact> 0.49565924E+02</totfact>
</mgrwt>
</event>
<event>
 4    1  0.9050888E-005  0.4222084E+03  0.7818608E-02  0.1036350E+00
         -2   -1    0    0    0  501 -0.00000000000E+00  0.00000000000E+00  0.10688507704E+02  0.10688508009E+02  0.25500000000E-02 0. -1.
          2   -1    0    0  501    0  0.00000000000E+00 -0.00000000000E+00 -0.41694298757E+04  0.41694298757E+04  0.25500000000E-02 0.  1.
    5000001    1    1    2    0    0 -0.34033348105E+02 -0.12414544618E+03 -0.23540341141E+04  0.23633180004E+04  0.16500000000E+03 0.  0.
   -5000001    1    1    2    0    0  0.34033348105E+02  0.12414544618E+03 -0.18047072539E+04  0.18168003833E+04  0.16500000000E+03 0.  0.
<mgrwt>
<rscale>  0 0.42220840E+03</rscale>
<asrwt>0</asrwt>
<pdfrwt beam="1">  1        2 0.64144945E+00 0.42220840E+03</pdfrwt>
<pdfrwt beam="2">  1       -2 0.16443892E-02 0.42220840E+03</pdfrwt>
<totfact> 0.32573647E+02</totfact>
</mgrwt>
</event>
<event>
 4    1  0.9050888E-005  0.3773124E+03  0.7818608E-02  0.1051932E+00
         -2   -1    0    0    0  501 -0.00000000000E+00  0.00000000000E+00  0.59996199839E+02  0.59996199893E+02  0.25500000000E-02 0. -1.
          2   -1    0    0  501    0  0.00000000000E+00 -0.00000000000E+00 -0.59322358783E+03  0.59322358784E+03  0.25500000000E-02 0.  1.
    5000001    1    1    2    0    0 -0.51326686887E+02 -0.63871034981E+02 -0.19624287633E+03  0.26916575638E+03  0.16500000000E+03 0.  0.
   -5000001    1    1    2    0    0  0.51326686887E+02  0.63871034981E+02 -0.33698451167E+03  0.38405403136E+03  0.16500000000E+03 0.  0.
<mgrwt>
<rscale>  0 0.37731240E+03</rscale>
<asrwt>0</asrwt>
<pdfrwt beam="1">  1        2 0.91265163E-01 0.37731240E+03</pdfrwt>
<pdfrwt beam="2">  1       -2 0.92301850E-02 0.37731240E+03</pdfrwt>
<totfact> 0.38760522E+03</totfact>
</mgrwt>
</event>
<event>
 4    1  0.9050888E-005  0.4039591E+03  0.7818608E-02  0.1042417E+00
          2   -1    0    0  501    0  0.00000000000E+00  0.00000000000E+00  0.13766761581E+04  0.13766761582E+04  0.25500000000E-02 0.  1.
         -2   -1    0    0    0  501 -0.00000000000E+00 -0.00000000000E+00 -0.29633501134E+02  0.29633501244E+02  0.25500000000E-02 0. -1.
    5000001    1    1    2    0    0 -0.11391403852E+03  0.15002051873E+02  0.74041924072E+03  0.76723342065E+03  0.16500000000E+03 0.  0.
   -5000001    1    1    2    0    0  0.11391403852E+03 -0.15002051873E+02  0.60662341630E+03  0.63907623875E+03  0.16500000000E+03 0.  0.
<mgrwt>
<rscale>  0 0.40395908E+03</rscale>
<asrwt>0</asrwt>
<pdfrwt beam="1">  1        2 0.21179630E+00 0.40395908E+03</pdfrwt>
<pdfrwt beam="2">  1       -2 0.45590008E-02 0.40395908E+03</pdfrwt>
<totfact> 0.35942411E+03</totfact>
</mgrwt>
</event>
<event>
 4    1  0.9050888E-005  0.4188367E+03  0.7818608E-02  0.1037446E+00
          2   -1    0    0  501    0  0.00000000000E+00  0.00000000000E+00  0.24103300420E+04  0.24103300420E+04  0.25500000000E-02 0.  1.
         -2   -1    0    0    0  501 -0.00000000000E+00 -0.00000000000E+00 -0.18195040993E+02  0.18195041172E+02  0.25500000000E-02 0. -1.
    5000001    1    1    2    0    0  0.93620141056E+02  0.86704499719E+02  0.10878008854E+04  0.11076182408E+04  0.16500000000E+03 0.  0.
   -5000001    1    1    2    0    0 -0.93620141056E+02 -0.86704499719E+02  0.13043341156E+04  0.13209068423E+04  0.16500000000E+03 0.  0.
<mgrwt>
<rscale>  0 0.41883674E+03</rscale>
<asrwt>0</asrwt>
<pdfrwt beam="1">  1        2 0.37081969E+00 0.41883674E+03</pdfrwt>
<pdfrwt beam="2">  1       -2 0.27992395E-02 0.41883674E+03</pdfrwt>
<totfact> 0.20832753E+03</totfact>
</mgrwt>
</event>
<event>
 4    1  0.9050888E-005  0.5055380E+03  0.7818608E-02  0.1012343E+00
         -2   -1    0    0    0  501 -0.00000000000E+00  0.00000000000E+00  0.31080743253E+03  0.31080743254E+03  0.25500000000E-02 0. -1.
          2   -1    0    0  501    0  0.00000000000E+00 -0.00000000000E+00 -0.20556831801E+03  0.20556831802E+03  0.25500000000E-02 0.  1.
    5000001    1    1    2    0    0 -0.16739320892E+03 -0.79763584757E+01  0.14725045009E+03  0.27747396948E+03  0.16500000000E+03 0.  0.
   -5000001    1    1    2    0    0  0.16739320892E+03  0.79763584757E+01 -0.42011335576E+02  0.23890178108E+03  0.16500000000E+03 0.  0.
<mgrwt>
<rscale>  0 0.50553798E+03</rscale>
<asrwt>0</asrwt>
<pdfrwt beam="1">  1        2 0.31625895E-01 0.50553798E+03</pdfrwt>
<pdfrwt beam="2">  1       -2 0.47816528E-01 0.50553798E+03</pdfrwt>
<totfact> 0.69862875E+02</totfact>
</mgrwt>
</event>
<event>
 4    1  0.9050888E-005  0.8813377E+03  0.7818608E-02  0.9449216E-01
         -2   -1    0    0    0  501 -0.00000000000E+00  0.00000000000E+00  0.19573715972E+03  0.19573715974E+03  0.25500000000E-02 0. -1.
          2   -1    0    0  501    0  0.00000000000E+00 -0.00000000000E+00 -0.99209087861E+03  0.99209087861E+03  0.25500000000E-02 0.  1.
    5000001    1    1    2    0    0 -0.40622638375E+03 -0.32977280673E+02 -0.43762433573E+03  0.62036072983E+03  0.16500000000E+03 0.  0.
   -5000001    1    1    2    0    0  0.40622638375E+03  0.32977280673E+02 -0.35872938316E+03  0.56746730852E+03  0.16500000000E+03 0.  0.
<mgrwt>
<rscale>  0 0.88133773E+03</rscale>
<asrwt>0</asrwt>
<pdfrwt beam="1">  1        2 0.15262936E+00 0.88133773E+03</pdfrwt>
<pdfrwt beam="2">  1       -2 0.30113410E-01 0.88133773E+03</pdfrwt>
<totfact> 0.25997632E+02</totfact>
</mgrwt>
</event>
<event>
 4    1  0.9050888E-005  0.3559314E+03  0.7818608E-02  0.1060207E+00
          2   -1    0    0  501    0  0.00000000000E+00  0.00000000000E+00  0.11191990543E+04  0.11191990543E+04  0.25500000000E-02 0.  1.
         -2   -1    0    0    0  501 -0.00000000000E+00 -0.00000000000E+00 -0.28298615710E+02  0.28298615825E+02  0.25500000000E-02 0. -1.
    5000001    1    1    2    0    0 -0.22513943895E+02  0.40514587021E+02  0.70001317192E+03  0.72068838640E+03  0.16500000000E+03 0.  0.
   -5000001    1    1    2    0    0  0.22513943895E+02 -0.40514587021E+02  0.39088726667E+03  0.42680928373E+03  0.16500000000E+03 0.  0.
<mgrwt>
<rscale>  0 0.35593136E+03</rscale>
<asrwt>0</asrwt>
<pdfrwt beam="1">  1        2 0.17218445E+00 0.35593136E+03</pdfrwt>
<pdfrwt beam="2">  1       -2 0.43536338E-02 0.35593136E+03</pdfrwt>
<totfact> 0.54024652E+03</totfact>
</mgrwt>
</event>
<event>
 4    1  0.9050888E-005  0.4469398E+03  0.7818608E-02  0.1028639E+00
         -2   -1    0    0    0  501 -0.00000000000E+00  0.00000000000E+00  0.43653520187E+02  0.43653520261E+02  0.25500000000E-02 0. -1.
          2   -1    0    0  501    0  0.00000000000E+00 -0.00000000000E+00 -0.11439807525E+04  0.11439807525E+04  0.25500000000E-02 0.  1.
    5000001    1    1    2    0    0  0.99218612250E+02  0.10898323098E+03 -0.46646592356E+03  0.51627234624E+03  0.16500000000E+03 0.  0.
   -5000001    1    1    2    0    0 -0.99218612250E+02 -0.10898323098E+03 -0.63386130879E+03  0.67136192656E+03  0.16500000000E+03 0.  0.
<mgrwt>
<rscale>  0 0.44693976E+03</rscale>
<asrwt>0</asrwt>
<pdfrwt beam="1">  1        2 0.17599702E+00 0.44693976E+03</pdfrwt>
<pdfrwt beam="2">  1       -2 0.67159270E-02 0.44693976E+03</pdfrwt>
<totfact> 0.26795753E+03</totfact>
</mgrwt>
</event>
<event>
 4    1  0.9050888E-005  0.4200008E+03  0.7818608E-02  0.1037066E+00
          2   -1    0    0  501    0  0.00000000000E+00  0.00000000000E+00  0.93396812727E+03  0.93396812727E+03  0.25500000000E-02 0.  1.
         -2   -1    0    0    0  501 -0.00000000000E+00 -0.00000000000E+00 -0.47218068427E+02  0.47218068496E+02  0.25500000000E-02 0. -1.
    5000001    1    1    2    0    0 -0.12249875649E+03  0.21418030694E+02  0.35563720590E+03  0.41129976854E+03  0.16500000000E+03 0.  0.
   -5000001    1    1    2    0    0  0.12249875649E+03 -0.21418030694E+02  0.53111285294E+03  0.56988642723E+03  0.16500000000E+03 0.  0.
<mgrwt>
<rscale>  0 0.42000081E+03</rscale>
<asrwt>0</asrwt>
<pdfrwt beam="1">  1        2 0.14368741E+00 0.42000081E+03</pdfrwt>
<pdfrwt beam="2">  1       -2 0.72643182E-02 0.42000081E+03</pdfrwt>
<totfact> 0.31900806E+03</totfact>
</mgrwt>
</event>
<event>
 4    1  0.9050888E-005  0.3887541E+03  0.7818608E-02  0.1047745E+00
         -2   -1    0    0    0  501 -0.00000000000E+00  0.00000000000E+00  0.22225661827E+02  0.22225661973E+02  0.25500000000E-02 0. -1.
          2   -1    0    0  501    0  0.00000000000E+00 -0.00000000000E+00 -0.16999467756E+04  0.16999467756E+04  0.25500000000E-02 0.  1.
    5000001    1    1    2    0    0 -0.76244002092E+02  0.24504263942E+02 -0.11240299275E+04  0.11388950280E+04  0.16500000000E+03 0.  0.
   -5000001    1    1    2    0    0  0.76244002092E+02 -0.24504263942E+02 -0.55369118629E+03  0.58327740962E+03  0.16500000000E+03 0.  0.
<mgrwt>
<rscale>  0 0.38875412E+03</rscale>
<asrwt>0</asrwt>
<pdfrwt beam="1">  1        2 0.26153017E+00 0.38875412E+03</pdfrwt>
<pdfrwt beam="2">  1       -2 0.34193339E-02 0.38875412E+03</pdfrwt>
<totfact> 0.37174267E+03</totfact>
</mgrwt>
</event>
<event>
 4    1  0.9050888E-005  0.5473925E+03  0.7818608E-02  0.1002099E+00
         -2   -1    0    0    0  501 -0.00000000000E+00  0.00000000000E+00  0.34519047360E+03  0.34519047361E+03  0.25500000000E-02 0. -1.
          2   -1    0    0  501    0  0.00000000000E+00 -0.00000000000E+00 -0.21700958044E+03  0.21700958045E+03  0.25500000000E-02 0.  1.
    5000001    1    1    2    0    0 -0.20428533804E+03 -0.46613235254E+02  0.95105300190E+00  0.26670432606E+03  0.16500000000E+03 0.  0.
   -5000001    1    1    2    0    0  0.20428533804E+03  0.46613235254E+02  0.12722984016E+03  0.29549572800E+03  0.16500000000E+03 0.  0.
<mgrwt>
<rscale>  0 0.54739251E+03</rscale>
<asrwt>0</asrwt>
<pdfrwt beam="1">  1        2 0.33386089E-01 0.54739251E+03</pdfrwt>
<pdfrwt beam="2">  1       -2 0.53106227E-01 0.54739251E+03</pdfrwt>
<totfact> 0.53155665E+02</totfact>
</mgrwt>
</event>
<event>
 4    1  0.9050888E-005  0.4341832E+03  0.7818608E-02  0.1032547E+00
         -2   -1    0    0    0  501 -0.00000000000E+00  0.00000000000E+00  0.48127147858E+02  0.48127147926E+02  0.25500000000E-02 0. -1.
          2   -1    0    0  501    0  0.00000000000E+00 -0.00000000000E+00 -0.97925509062E+03  0.97925509062E+03  0.25500000000E-02 0.  1.
    5000001    1    1    2    0    0 -0.61009224396E+02 -0.11070627216E+03 -0.61382275027E+03  0.64805969856E+03  0.16500000000E+03 0.  0.
   -5000001    1    1    2    0    0  0.61009224396E+02  0.11070627216E+03 -0.31730519249E+03  0.37932253998E+03  0.16500000000E+03 0.  0.
<mgrwt>
<rscale>  0 0.43418316E+03</rscale>
<asrwt>0</asrwt>
<pdfrwt beam="1">  1        2 0.15065461E+00 0.43418316E+03</pdfrwt>
<pdfrwt beam="2">  1       -2 0.74041773E-02 0.43418316E+03</pdfrwt>
<totfact> 0.28968960E+03</totfact>
</mgrwt>
</event>
<event>
 4    1  0.9050888E-005  0.4528122E+03  0.7818608E-02  0.1026887E+00
         -2   -1    0    0    0  501 -0.00000000000E+00  0.00000000000E+00  0.80368950473E+02  0.80368950514E+02  0.25500000000E-02 0. -1.
          2   -1    0    0  501    0  0.00000000000E+00 -0.00000000000E+00 -0.63780498808E+03  0.63780498808E+03  0.25500000000E-02 0.  1.
    5000001    1    1    2    0    0  0.14647092309E+03  0.44489486297E+02 -0.23981427698E+03  0.32889045767E+03  0.16500000000E+03 0.  0.
   -5000001    1    1    2    0    0 -0.14647092309E+03 -0.44489486297E+02 -0.31762176062E+03  0.38928348093E+03  0.16500000000E+03 0.  0.
<mgrwt>
<rscale>  0 0.45281218E+03</rscale>
<asrwt>0</asrwt>
<pdfrwt beam="1">  1        2 0.98123841E-01 0.45281218E+03</pdfrwt>
<pdfrwt beam="2">  1       -2 0.12364454E-01 0.45281218E+03</pdfrwt>
<totfact> 0.22214880E+03</totfact>
</mgrwt>
</event>
<event>
 4    1  0.9050888E-005  0.8524559E+03  0.7818608E-02  0.9487047E-01
          2   -1    0    0  501    0  0.00000000000E+00  0.00000000000E+00  0.64042850470E+03  0.64042850470E+03  0.25500000000E-02 0.  1.
         -2   -1    0    0    0  501 -0.00000000000E+00 -0.00000000000E+00 -0.28366986770E+03  0.28366986771E+03  0.25500000000E-02 0. -1.
    5000001    1    1    2    0    0  0.38995613391E+03  0.36628753778E+02  0.21330193045E+03  0.47553145586E+03  0.16500000000E+03 0.  0.
   -5000001    1    1    2    0    0 -0.38995613391E+03 -0.36628753778E+02  0.14345670655E+03  0.44856691656E+03  0.16500000000E+03 0.  0.
<mgrwt>
<rscale>  0 0.85245591E+03</rscale>
<asrwt>0</asrwt>
<pdfrwt beam="1">  1        2 0.98527461E-01 0.85245591E+03</pdfrwt>
<pdfrwt beam="2">  1       -2 0.43641519E-01 0.85245591E+03</pdfrwt>
<totfact> 0.22906579E+02</totfact>
</mgrwt>
</event>
<event>
 4    1  0.9050888E-005  0.5660230E+03  0.7818608E-02  0.9978518E-01
          2   -1    0    0  501    0  0.00000000000E+00  0.00000000000E+00  0.70235500668E+03  0.70235500668E+03  0.25500000000E-02 0.  1.
         -2   -1    0    0    0  501 -0.00000000000E+00 -0.00000000000E+00 -0.11403848389E+03  0.11403848392E+03  0.25500000000E-02 0. -1.
    5000001    1    1    2    0    0  0.70214136935E+02  0.21558556199E+03  0.23898378953E+03  0.36843644122E+03  0.16500000000E+03 0.  0.
   -5000001    1    1    2    0    0 -0.70214136935E+02 -0.21558556199E+03  0.34933273326E+03  0.44795704938E+03  0.16500000000E+03 0.  0.
<mgrwt>
<rscale>  0 0.56602297E+03</rscale>
<asrwt>0</asrwt>
<pdfrwt beam="1">  1        2 0.10805462E+00 0.56602297E+03</pdfrwt>
<pdfrwt beam="2">  1       -2 0.17544382E-01 0.56602297E+03</pdfrwt>
<totfact> 0.10977751E+03</totfact>
</mgrwt>
</event>
<event>
 4    1  0.9050888E-005  0.5844955E+03  0.7818608E-02  0.9938105E-01
         -2   -1    0    0    0  501 -0.00000000000E+00  0.00000000000E+00  0.93437138580E+02  0.93437138615E+02  0.25500000000E-02 0.  1.
          2   -1    0    0  501    0  0.00000000000E+00 -0.00000000000E+00 -0.91407720987E+03  0.91407720987E+03  0.25500000000E-02 0. -1.
    5000001    1    1    2    0    0  0.16115081028E+03  0.89905082618E+02 -0.14255124277E+03  0.28565427417E+03  0.16500000000E+03 0.  0.
   -5000001    1    1    2    0    0 -0.16115081028E+03 -0.89905082618E+02 -0.67808882851E+03  0.72186007431E+03  0.16500000000E+03 0.  0.
<mgrwt>
<rscale>  0 0.58449554E+03</rscale>
<asrwt>0</asrwt>
<pdfrwt beam="1">  1        2 0.14062726E+00 0.58449554E+03</pdfrwt>
<pdfrwt beam="2">  1       -2 0.14374945E-01 0.58449554E+03</pdfrwt>
<totfact> 0.10871243E+03</totfact>
</mgrwt>
</event>
<event>
 4    1  0.9050888E-005  0.1307216E+04  0.7818608E-02  0.9023863E-01
         -2   -1    0    0    0  501 -0.00000000000E+00  0.00000000000E+00  0.62948790863E+03  0.62948790863E+03  0.25500000000E-02 0. -1.
          2   -1    0    0  501    0  0.00000000000E+00 -0.00000000000E+00 -0.67865204014E+03  0.67865204015E+03  0.25500000000E-02 0.  1.
    5000001    1    1    2    0    0 -0.15931987910E+03  0.55072013503E+03 -0.29179662379E+03  0.66411276200E+03  0.16500000000E+03 0.  0.
   -5000001    1    1    2    0    0  0.15931987910E+03 -0.55072013503E+03  0.24263249228E+03  0.64402718678E+03  0.16500000000E+03 0.  0.
<mgrwt>
<rscale>  0 0.13072157E+04</rscale>
<asrwt>0</asrwt>
<pdfrwt beam="1">  1        2 0.10440801E+00 0.13072157E+04</pdfrwt>
<pdfrwt beam="2">  1       -2 0.96844294E-01 0.13072157E+04</pdfrwt>
<totfact> 0.37199265E+01</totfact>
</mgrwt>
</event>
<event>
 4    1  0.9050888E-005  0.5848337E+03  0.7818608E-02  0.9937381E-01
         -2   -1    0    0    0  501 -0.00000000000E+00  0.00000000000E+00  0.42437434781E+02  0.42437434858E+02  0.25500000000E-02 0. -1.
          2   -1    0    0  501    0  0.00000000000E+00 -0.00000000000E+00 -0.20149098713E+04  0.20149098713E+04  0.25500000000E-02 0.  1.
    5000001    1    1    2    0    0  0.22332227653E+03  0.69632894513E+02 -0.11961606005E+04  0.12299377063E+04  0.16500000000E+03 0.  0.
   -5000001    1    1    2    0    0 -0.22332227653E+03 -0.69632894513E+02 -0.77631183605E+03  0.82740959989E+03  0.16500000000E+03 0.  0.
<mgrwt>
<rscale>  0 0.58483367E+03</rscale>
<asrwt>0</asrwt>
<pdfrwt beam="1">  1        2 0.30998606E+00 0.58483367E+03</pdfrwt>
<pdfrwt beam="2">  1       -2 0.65288377E-02 0.58483367E+03</pdfrwt>
<totfact> 0.92157918E+02</totfact>
</mgrwt>
</event>
<event>
 4    1  0.9050888E-005  0.4360620E+03  0.7818608E-02  0.1031962E+00
          2   -1    0    0  501    0  0.00000000000E+00  0.00000000000E+00  0.43384141307E+03  0.43384141307E+03  0.25500000000E-02 0.  1.
         -2   -1    0    0    0  501 -0.00000000000E+00 -0.00000000000E+00 -0.10957351267E+03  0.10957351270E+03  0.25500000000E-02 0. -1.
    5000001    1    1    2    0    0 -0.12039069110E+03 -0.53376368863E+02  0.23004340213E+03  0.31223055924E+03  0.16500000000E+03 0.  0.
   -5000001    1    1    2    0    0  0.12039069110E+03  0.53376368863E+02  0.94224498269E+02  0.23118436654E+03  0.16500000000E+03 0.  0.
<mgrwt>
<rscale>  0 0.43606205E+03</rscale>
<asrwt>0</asrwt>
<pdfrwt beam="1">  1        2 0.66744835E-01 0.43606205E+03</pdfrwt>
<pdfrwt beam="2">  1       -2 0.16857463E-01 0.43606205E+03</pdfrwt>
<totfact> 0.20671884E+03</totfact>
</mgrwt>
</event>
<event>
 4    1  0.9050888E-005  0.5840569E+03  0.7818608E-02  0.9939046E-01
          2   -1    0    0  501    0  0.00000000000E+00  0.00000000000E+00  0.11846943151E+04  0.11846943151E+04  0.25500000000E-02 0.  1.
         -2   -1    0    0    0  501 -0.00000000000E+00 -0.00000000000E+00 -0.71985335256E+02  0.71985335301E+02  0.25500000000E-02 0. -1.
    5000001    1    1    2    0    0  0.24002162366E+02 -0.19346761643E+03  0.25168821132E+03  0.35857743671E+03  0.16500000000E+03 0.  0.
   -5000001    1    1    2    0    0 -0.24002162366E+02  0.19346761643E+03  0.86102076856E+03  0.89810221372E+03  0.16500000000E+03 0.  0.
<mgrwt>
<rscale>  0 0.58405691E+03</rscale>
<asrwt>0</asrwt>
<pdfrwt beam="1">  1        2 0.18226067E+00 0.58405691E+03</pdfrwt>
<pdfrwt beam="2">  1       -2 0.11074667E-01 0.58405691E+03</pdfrwt>
<totfact> 0.11367617E+03</totfact>
</mgrwt>
</event>
<event>
 4    1  0.9050888E-005  0.4990116E+03  0.7818608E-02  0.1014037E+00
          2   -1    0    0  501    0  0.00000000000E+00  0.00000000000E+00  0.11444406187E+04  0.11444406187E+04  0.25500000000E-02 0.  1.
         -2   -1    0    0    0  501 -0.00000000000E+00 -0.00000000000E+00 -0.54396122557E+02  0.54396122617E+02  0.25500000000E-02 0. -1.
    5000001    1    1    2    0    0  0.13262004285E+03 -0.10526925776E+02  0.86127856342E+03  0.88697500288E+03  0.16500000000E+03 0.  0.
   -5000001    1    1    2    0    0 -0.13262004285E+03  0.10526925776E+02  0.22876593276E+03  0.31186173847E+03  0.16500000000E+03 0.  0.
<mgrwt>
<rscale>  0 0.49901155E+03</rscale>
<asrwt>0</asrwt>
<pdfrwt beam="1">  1        2 0.17606778E+00 0.49901155E+03</pdfrwt>
<pdfrwt beam="2">  1       -2 0.83686346E-02 0.49901155E+03</pdfrwt>
<totfact> 0.18909601E+03</totfact>
</mgrwt>
</event>
<event>
 4    1  0.9050888E-005  0.7621480E+03  0.7818608E-02  0.9616483E-01
          2   -1    0    0  501    0  0.00000000000E+00  0.00000000000E+00  0.82325572076E+03  0.82325572076E+03  0.25500000000E-02 0.  1.
         -2   -1    0    0    0  501 -0.00000000000E+00 -0.00000000000E+00 -0.17639401992E+03  0.17639401993E+03  0.25500000000E-02 0. -1.
    5000001    1    1    2    0    0  0.25107471192E+03 -0.67107975293E+02  0.61803634244E+03  0.69046065195E+03  0.16500000000E+03 0.  0.
   -5000001    1    1    2    0    0 -0.25107471192E+03  0.67107975293E+02  0.28825358399E+02  0.30918908875E+03  0.16500000000E+03 0.  0.
<mgrwt>
<rscale>  0 0.76214798E+03</rscale>
<asrwt>0</asrwt>
<pdfrwt beam="1">  1        2 0.12665473E+00 0.76214798E+03</pdfrwt>
<pdfrwt beam="2">  1       -2 0.27137542E-01 0.76214798E+03</pdfrwt>
<totfact> 0.41125825E+02</totfact>
</mgrwt>
</event>
<event>
 4    1  0.9050888E-005  0.4337334E+03  0.7818608E-02  0.1032687E+00
         -2   -1    0    0    0  501 -0.00000000000E+00  0.00000000000E+00  0.18916418765E+03  0.18916418767E+03  0.25500000000E-02 0. -1.
          2   -1    0    0  501    0  0.00000000000E+00 -0.00000000000E+00 -0.24862612446E+03  0.24862612448E+03  0.25500000000E-02 0.  1.
    5000001    1    1    2    0    0 -0.13575216552E+03  0.33995994152E+02 -0.14699365548E+02  0.21685352063E+03  0.16500000000E+03 0.  0.
   -5000001    1    1    2    0    0  0.13575216552E+03 -0.33995994152E+02 -0.44762571263E+02  0.22093679152E+03  0.16500000000E+03 0.  0.
<mgrwt>
<rscale>  0 0.43373337E+03</rscale>
<asrwt>0</asrwt>
<pdfrwt beam="1">  1        2 0.38250173E-01 0.43373337E+03</pdfrwt>
<pdfrwt beam="2">  1       -2 0.29102183E-01 0.43373337E+03</pdfrwt>
<totfact> 0.14611569E+03</totfact>
</mgrwt>
</event>
<event>
 4    1  0.9050888E-005  0.3645194E+03  0.7818608E-02  0.1056809E+00
          2   -1    0    0  501    0  0.00000000000E+00  0.00000000000E+00  0.46496626793E+02  0.46496626863E+02  0.25500000000E-02 0.  1.
         -2   -1    0    0    0  501 -0.00000000000E+00 -0.00000000000E+00 -0.71443035814E+03  0.71443035814E+03  0.25500000000E-02 0. -1.
    5000001    1    1    2    0    0  0.55538071376E+02 -0.46381511935E+02 -0.27649934449E+03  0.33001910479E+03  0.16500000000E+03 0.  0.
   -5000001    1    1    2    0    0 -0.55538071376E+02  0.46381511935E+02 -0.39143438686E+03  0.43090788022E+03  0.16500000000E+03 0.  0.
<mgrwt>
<rscale>  0 0.36451942E+03</rscale>
<asrwt>0</asrwt>
<pdfrwt beam="1">  1        2 0.71533277E-02 0.36451942E+03</pdfrwt>
<pdfrwt beam="2">  1       -2 0.10991235E+00 0.36451942E+03</pdfrwt>
<totfact> 0.67754700E+02</totfact>
</mgrwt>
</event>
<event>
 4    1  0.9050888E-005  0.5384116E+03  0.7818608E-02  0.1004212E+00
          2   -1    0    0  501    0  0.00000000000E+00  0.00000000000E+00  0.71649711592E+03  0.71649711593E+03  0.25500000000E-02 0.  1.
         -2   -1    0    0    0  501 -0.00000000000E+00 -0.00000000000E+00 -0.10114730179E+03  0.10114730182E+03  0.25500000000E-02 0. -1.
    5000001    1    1    2    0    0 -0.19830222805E+03  0.28439046491E+02  0.41627715966E+03  0.49055501900E+03  0.16500000000E+03 0.  0.
   -5000001    1    1    2    0    0  0.19830222805E+03 -0.28439046491E+02  0.19907265447E+03  0.32708939875E+03  0.16500000000E+03 0.  0.
<mgrwt>
<rscale>  0 0.53841155E+03</rscale>
<asrwt>0</asrwt>
<pdfrwt beam="1">  1        2 0.11023033E+00 0.53841155E+03</pdfrwt>
<pdfrwt beam="2">  1       -2 0.15561123E-01 0.53841155E+03</pdfrwt>
<totfact> 0.13131933E+03</totfact>
</mgrwt>
</event>
<event>
 4    1  0.9050888E-005  0.5884583E+03  0.7818608E-02  0.9929645E-01
         -2   -1    0    0    0  501 -0.00000000000E+00  0.00000000000E+00  0.20923418296E+03  0.20923418298E+03  0.25500000000E-02 0. -1.
          2   -1    0    0  501    0  0.00000000000E+00 -0.00000000000E+00 -0.41375073966E+03  0.41375073967E+03  0.25500000000E-02 0.  1.
    5000001    1    1    2    0    0  0.13977480440E+03 -0.97233179319E+02 -0.28670606562E+03  0.37204388877E+03  0.16500000000E+03 0.  0.
   -5000001    1    1    2    0    0 -0.13977480440E+03  0.97233179319E+02  0.82189508925E+02  0.25094103387E+03  0.16500000000E+03 0.  0.
<mgrwt>
<rscale>  0 0.58845832E+03</rscale>
<asrwt>0</asrwt>
<pdfrwt beam="1">  1        2 0.63653960E-01 0.58845832E+03</pdfrwt>
<pdfrwt beam="2">  1       -2 0.32189874E-01 0.58845832E+03</pdfrwt>
<totfact> 0.69136306E+02</totfact>
</mgrwt>
</event>
<event>
 4    1  0.9050888E-005  0.6739289E+03  0.7818608E-02  0.9762886E-01
         -2   -1    0    0    0  501 -0.00000000000E+00  0.00000000000E+00  0.36573584058E+03  0.36573584059E+03  0.25500000000E-02 0. -1.
          2   -1    0    0  501    0  0.00000000000E+00 -0.00000000000E+00 -0.31045641065E+03  0.31045641066E+03  0.25500000000E-02 0.  1.
    5000001    1    1    2    0    0  0.63071711798E+02 -0.28197695298E+03 -0.25746060037E+02  0.33373178220E+03  0.16500000000E+03 0.  0.
   -5000001    1    1    2    0    0 -0.63071711798E+02  0.28197695298E+03  0.81025489961E+02  0.34246046905E+03  0.16500000000E+03 0.  0.
<mgrwt>
<rscale>  0 0.67392889E+03</rscale>
<asrwt>0</asrwt>
<pdfrwt beam="1">  1        2 0.47762525E-01 0.67392889E+03</pdfrwt>
<pdfrwt beam="2">  1       -2 0.56267052E-01 0.67392889E+03</pdfrwt>
<totfact> 0.31634023E+02</totfact>
</mgrwt>
</event>
<event>
 4    1  0.9050888E-005  0.1047744E+04  0.7818608E-02  0.9257677E-01
          2   -1    0    0  501    0  0.00000000000E+00  0.00000000000E+00  0.14564403521E+04  0.14564403521E+04  0.25500000000E-02 0.  1.
         -2   -1    0    0    0  501 -0.00000000000E+00 -0.00000000000E+00 -0.18843315734E+03  0.18843315735E+03  0.25500000000E-02 0. -1.
    5000001    1    1    2    0    0 -0.23290444533E+03  0.43903098066E+03  0.65749850699E+03  0.84054861212E+03  0.16500000000E+03 0.  0.
   -5000001    1    1    2    0    0  0.23290444533E+03 -0.43903098066E+03  0.61050868779E+03  0.80432489735E+03  0.16500000000E+03 0.  0.
<mgrwt>
<rscale>  0 0.10477436E+04</rscale>
<asrwt>0</asrwt>
<pdfrwt beam="1">  1        2 0.22406774E+00 0.10477436E+04</pdfrwt>
<pdfrwt beam="2">  1       -2 0.28989717E-01 0.10477436E+04</pdfrwt>
<totfact> 0.14610912E+02</totfact>
</mgrwt>
</event>
<event>
 4    1  0.9050888E-005  0.7183998E+03  0.7818608E-02  0.9686273E-01
          2   -1    0    0  501    0  0.00000000000E+00  0.00000000000E+00  0.19884474019E+04  0.19884474019E+04  0.25500000000E-02 0.  1.
         -2   -1    0    0    0  501 -0.00000000000E+00 -0.00000000000E+00 -0.64887097940E+02  0.64887097990E+02  0.25500000000E-02 0. -1.
    5000001    1    1    2    0    0  0.31362593981E+03  0.45425017109E+02  0.85579816776E+03  0.92738350548E+03  0.16500000000E+03 0.  0.
   -5000001    1    1    2    0    0 -0.31362593981E+03 -0.45425017109E+02  0.10677621362E+04  0.11259509944E+04  0.16500000000E+03 0.  0.
<mgrwt>
<rscale>  0 0.71839984E+03</rscale>
<asrwt>0</asrwt>
<pdfrwt beam="1">  1        2 0.30591504E+00 0.71839984E+03</pdfrwt>
<pdfrwt beam="2">  1       -2 0.99826287E-02 0.71839984E+03</pdfrwt>
<totfact> 0.47868533E+02</totfact>
</mgrwt>
</event>
<event>
 4    1  0.9050888E-005  0.3973744E+03  0.7818608E-02  0.1044693E+00
         -2   -1    0    0    0  501 -0.00000000000E+00  0.00000000000E+00  0.20304533702E+02  0.20304533862E+02  0.25500000000E-02 0. -1.
          2   -1    0    0  501    0  0.00000000000E+00 -0.00000000000E+00 -0.19442264280E+04  0.19442264280E+04  0.25500000000E-02 0.  1.
    5000001    1    1    2    0    0 -0.24879101588E+02  0.10365244225E+03 -0.81457228449E+03  0.83792350793E+03  0.16500000000E+03 0.  0.
   -5000001    1    1    2    0    0  0.24879101588E+02 -0.10365244225E+03 -0.11093496098E+04  0.11266074540E+04  0.16500000000E+03 0.  0.
<mgrwt>
<rscale>  0 0.39737444E+03</rscale>
<asrwt>0</asrwt>
<pdfrwt beam="1">  1        2 0.29911161E+00 0.39737444E+03</pdfrwt>
<pdfrwt beam="2">  1       -2 0.31237760E-02 0.39737444E+03</pdfrwt>
<totfact> 0.31565695E+03</totfact>
</mgrwt>
</event>
<event>
 4    1  0.9050888E-005  0.6643250E+03  0.7818608E-02  0.9780264E-01
         -2   -1    0    0    0  501 -0.00000000000E+00  0.00000000000E+00  0.11399251009E+03  0.11399251012E+03  0.25500000000E-02 0. -1.
          2   -1    0    0  501    0  0.00000000000E+00 -0.00000000000E+00 -0.96788756870E+03  0.96788756871E+03  0.25500000000E-02 0.  1.
    5000001    1    1    2    0    0  0.30953254565E+02  0.28517864594E+03 -0.47363779410E+03  0.57779124610E+03  0.16500000000E+03 0.  0.
   -5000001    1    1    2    0    0 -0.30953254565E+02 -0.28517864594E+03 -0.38025726450E+03  0.50408883273E+03  0.16500000000E+03 0.  0.
<mgrwt>
<rscale>  0 0.66432502E+03</rscale>
<asrwt>0</asrwt>
<pdfrwt beam="1">  1        2 0.14890577E+00 0.66432502E+03</pdfrwt>
<pdfrwt beam="2">  1       -2 0.17537310E-01 0.66432502E+03</pdfrwt>
<totfact> 0.71390610E+02</totfact>
</mgrwt>
</event>
<event>
 4    1  0.9050888E-005  0.4010175E+03  0.7818608E-02  0.1043428E+00
          2   -1    0    0  501    0  0.00000000000E+00  0.00000000000E+00  0.66656000973E+03  0.66656000973E+03  0.25500000000E-02 0.  1.
         -2   -1    0    0    0  501 -0.00000000000E+00 -0.00000000000E+00 -0.60315284921E+02  0.60315284975E+02  0.25500000000E-02 0. -1.
    5000001    1    1    2    0    0  0.67598408993E+02 -0.16394734509E+02  0.13958381907E+03  0.22703958854E+03  0.16500000000E+03 0.  0.
   -5000001    1    1    2    0    0 -0.67598408993E+02  0.16394734509E+02  0.46666090573E+03  0.49983570616E+03  0.16500000000E+03 0.  0.
<mgrwt>
<rscale>  0 0.40101749E+03</rscale>
<asrwt>0</asrwt>
<pdfrwt beam="1">  1        2 0.10254770E+00 0.40101749E+03</pdfrwt>
<pdfrwt beam="2">  1       -2 0.92792744E-02 0.40101749E+03</pdfrwt>
<totfact> 0.33472663E+03</totfact>
</mgrwt>
</event>
<event>
 4    1  0.9050888E-005  0.4095247E+03  0.7818608E-02  0.1040531E+00
          2   -1    0    0  501    0  0.00000000000E+00  0.00000000000E+00  0.29545006241E+03  0.29545006242E+03  0.25500000000E-02 0.  1.
         -2   -1    0    0    0  501 -0.00000000000E+00 -0.00000000000E+00 -0.14191102167E+03  0.14191102169E+03  0.25500000000E-02 0. -1.
    5000001    1    1    2    0    0 -0.18980186914E+02 -0.10928489011E+03  0.12908039129E+03  0.23704468380E+03  0.16500000000E+03 0.  0.
   -5000001    1    1    2    0    0  0.18980186914E+02  0.10928489011E+03  0.24458649449E+02  0.20031640031E+03  0.16500000000E+03 0.  0.
<mgrwt>
<rscale>  0 0.40952470E+03</rscale>
<asrwt>0</asrwt>
<pdfrwt beam="1">  1        2 0.45453856E-01 0.40952470E+03</pdfrwt>
<pdfrwt beam="2">  1       -2 0.21832465E-01 0.40952470E+03</pdfrwt>
<totfact> 0.20203079E+03</totfact>
</mgrwt>
</event>
<event>
 4    1  0.9050888E-005  0.5512128E+03  0.7818608E-02  0.1001214E+00
         -2   -1    0    0    0  501 -0.00000000000E+00  0.00000000000E+00  0.15908093733E+03  0.15908093735E+03  0.25500000000E-02 0.  1.
          2   -1    0    0  501    0  0.00000000000E+00 -0.00000000000E+00 -0.47748587364E+03  0.47748587365E+03  0.25500000000E-02 0. -1.
    5000001    1    1    2    0    0 -0.14812910669E+03 -0.14930279827E+03 -0.23667494608E+03  0.35703443520E+03  0.16500000000E+03 0.  0.
   -5000001    1    1    2    0    0  0.14812910669E+03  0.14930279827E+03 -0.81729990225E+02  0.27953237580E+03  0.16500000000E+03 0.  0.
<mgrwt>
<rscale>  0 0.55121285E+03</rscale>
<asrwt>0</asrwt>
<pdfrwt beam="1">  1        2 0.73459365E-01 0.55121285E+03</pdfrwt>
<pdfrwt beam="2">  1       -2 0.24473991E-01 0.55121285E+03</pdfrwt>
<totfact> 0.97057091E+02</totfact>
</mgrwt>
</event>
<event>
 4    1  0.9050888E-005  0.1014265E+04  0.7818608E-02  0.9293036E-01
          2   -1    0    0  501    0  0.00000000000E+00  0.00000000000E+00  0.78555302268E+03  0.78555302269E+03  0.25500000000E-02 0.  1.
         -2   -1    0    0    0  501 -0.00000000000E+00 -0.00000000000E+00 -0.32739154381E+03  0.32739154382E+03  0.25500000000E-02 0. -1.
    5000001    1    1    2    0    0  0.45942227248E+03  0.12756074294E+03  0.17293789977E+03  0.53336018296E+03  0.16500000000E+03 0.  0.
   -5000001    1    1    2    0    0 -0.45942227248E+03 -0.12756074294E+03  0.28522357910E+03  0.57958438355E+03  0.16500000000E+03 0.  0.
<mgrwt>
<rscale>  0 0.10142651E+04</rscale>
<asrwt>0</asrwt>
<pdfrwt beam="1">  1        2 0.12085431E+00 0.10142651E+04</pdfrwt>
<pdfrwt beam="2">  1       -2 0.50367930E-01 0.10142651E+04</pdfrwt>
<totfact> 0.13125309E+02</totfact>
</mgrwt>
</event>
<event>
 4    1  0.9050888E-005  0.4531050E+03  0.7818608E-02  0.1026800E+00
          2   -1    0    0  501    0  0.00000000000E+00  0.00000000000E+00  0.39683961688E+03  0.39683961689E+03  0.25500000000E-02 0.  1.
         -2   -1    0    0    0  501 -0.00000000000E+00 -0.00000000000E+00 -0.12933695117E+03  0.12933695120E+03  0.25500000000E-02 0. -1.
    5000001    1    1    2    0    0  0.84906914876E+02 -0.48233239631E+02 -0.63989067278E+01  0.19183736760E+03  0.16500000000E+03 0.  0.
   -5000001    1    1    2    0    0 -0.84906914876E+02  0.48233239631E+02  0.27390157244E+03  0.33433920049E+03  0.16500000000E+03 0.  0.
<mgrwt>
<rscale>  0 0.45310496E+03</rscale>
<asrwt>0</asrwt>
<pdfrwt beam="1">  1        2 0.61052248E-01 0.45310496E+03</pdfrwt>
<pdfrwt beam="2">  1       -2 0.19897993E-01 0.45310496E+03</pdfrwt>
<totfact> 0.17189809E+03</totfact>
</mgrwt>
</event>
<event>
 4    1  0.9050888E-005  0.7129342E+03  0.7818608E-02  0.9695365E-01
          2   -1    0    0  501    0  0.00000000000E+00  0.00000000000E+00  0.11806559118E+04  0.11806559118E+04  0.25500000000E-02 0.  1.
         -2   -1    0    0    0  501 -0.00000000000E+00 -0.00000000000E+00 -0.10762559335E+03  0.10762559338E+03  0.25500000000E-02 0. -1.
    5000001    1    1    2    0    0  0.29347781378E+03  0.90503174707E+02  0.40221454857E+03  0.53227962097E+03  0.16500000000E+03 0.  0.
   -5000001    1    1    2    0    0 -0.29347781378E+03 -0.90503174707E+02  0.67081576987E+03  0.75600188420E+03  0.16500000000E+03 0.  0.
<mgrwt>
<rscale>  0 0.71293420E+03</rscale>
<asrwt>0</asrwt>
<pdfrwt beam="1">  1        2 0.18163937E+00 0.71293420E+03</pdfrwt>
<pdfrwt beam="2">  1       -2 0.16557784E-01 0.71293420E+03</pdfrwt>
<totfact> 0.58107117E+02</totfact>
</mgrwt>
</event>
<event>
 4    1  0.9050888E-005  0.5582530E+03  0.7818608E-02  0.9996015E-01
         -2   -1    0    0    0  501 -0.00000000000E+00  0.00000000000E+00  0.15876664574E+03  0.15876664576E+03  0.25500000000E-02 0. -1.
          2   -1    0    0  501    0  0.00000000000E+00 -0.00000000000E+00 -0.49073026327E+03  0.49073026328E+03  0.25500000000E-02 0.  1.
    5000001    1    1    2    0    0 -0.17721494111E+03  0.76537272624E+02 -0.31185171850E+02  0.25585270059E+03  0.16500000000E+03 0.  0.
   -5000001    1    1    2    0    0  0.17721494111E+03 -0.76537272624E+02 -0.30077844568E+03  0.39364420844E+03  0.16500000000E+03 0.  0.
<mgrwt>
<rscale>  0 0.55825298E+03</rscale>
<asrwt>0</asrwt>
<pdfrwt beam="1">  1        2 0.75496963E-01 0.55825298E+03</pdfrwt>
<pdfrwt beam="2">  1       -2 0.24425638E-01 0.55825298E+03</pdfrwt>
<totfact> 0.94394348E+02</totfact>
</mgrwt>
</event>
<event>
 4    1  0.9050888E-005  0.5753398E+03  0.7818608E-02  0.9957931E-01
         -2   -1    0    0    0  501 -0.00000000000E+00  0.00000000000E+00  0.33091256546E+02  0.33091256644E+02  0.25500000000E-02 0.  1.
          2   -1    0    0  501    0  0.00000000000E+00 -0.00000000000E+00 -0.25007808497E+04  0.25007808497E+04  0.25500000000E-02 0. -1.
    5000001    1    1    2    0    0 -0.19193401114E+03 -0.13668933487E+03 -0.12449357664E+04  0.12777373366E+04  0.16500000000E+03 0.  0.
   -5000001    1    1    2    0    0  0.19193401114E+03  0.13668933487E+03 -0.12227538267E+04  0.12561347697E+04  0.16500000000E+03 0.  0.
<mgrwt>
<rscale>  0 0.57533983E+03</rscale>
<asrwt>0</asrwt>
<pdfrwt beam="1">  1        2 0.38473537E+00 0.57533983E+03</pdfrwt>
<pdfrwt beam="2">  1       -2 0.50909645E-02 0.57533983E+03</pdfrwt>
<totfact> 0.73515190E+02</totfact>
</mgrwt>
</event>
<event>
 4    1  0.9050888E-005  0.4346449E+03  0.7818608E-02  0.1032403E+00
         -2   -1    0    0    0  501 -0.00000000000E+00  0.00000000000E+00  0.25597263270E+02  0.25597263397E+02  0.25500000000E-02 0. -1.
          2   -1    0    0  501    0  0.00000000000E+00 -0.00000000000E+00 -0.18450820622E+04  0.18450820622E+04  0.25500000000E-02 0.  1.
    5000001    1    1    2    0    0  0.59398809633E+01 -0.13979540258E+03 -0.99857594736E+03  0.10217421198E+04  0.16500000000E+03 0.  0.
   -5000001    1    1    2    0    0 -0.59398809633E+01  0.13979540258E+03 -0.82090885152E+03  0.84893720573E+03  0.16500000000E+03 0.  0.
<mgrwt>
<rscale>  0 0.43464492E+03</rscale>
<asrwt>0</asrwt>
<pdfrwt beam="1">  1        2 0.28385867E+00 0.43464492E+03</pdfrwt>
<pdfrwt beam="2">  1       -2 0.39380420E-02 0.43464492E+03</pdfrwt>
<totfact> 0.25068403E+03</totfact>
</mgrwt>
</event>
<event>
 4    1  0.9050888E-005  0.4212284E+03  0.7818608E-02  0.1036667E+00
          2   -1    0    0  501    0  0.00000000000E+00  0.00000000000E+00  0.83844313911E+02  0.83844313950E+02  0.25500000000E-02 0.  1.
         -2   -1    0    0    0  501 -0.00000000000E+00 -0.00000000000E+00 -0.52905603151E+03  0.52905603152E+03  0.25500000000E-02 0. -1.
    5000001    1    1    2    0    0 -0.65055268063E+02  0.11156186648E+03 -0.19156550808E+03  0.28390241605E+03  0.16500000000E+03 0.  0.
   -5000001    1    1    2    0    0  0.65055268063E+02 -0.11156186648E+03 -0.25364620952E+03  0.32899792941E+03  0.16500000000E+03 0.  0.
<mgrwt>
<rscale>  0 0.42122839E+03</rscale>
<asrwt>0</asrwt>
<pdfrwt beam="1">  1        2 0.12899125E-01 0.42122839E+03</pdfrwt>
<pdfrwt beam="2">  1       -2 0.81393234E-01 0.42122839E+03</pdfrwt>
<totfact> 0.64518774E+02</totfact>
</mgrwt>
</event>
<event>
 4    1  0.9050888E-005  0.7473730E+03  0.7818608E-02  0.9639481E-01
          2   -1    0    0  501    0  0.00000000000E+00  0.00000000000E+00  0.10027747455E+04  0.10027747455E+04  0.25500000000E-02 0.  1.
         -2   -1    0    0    0  501 -0.00000000000E+00 -0.00000000000E+00 -0.13925518691E+03  0.13925518693E+03  0.25500000000E-02 0. -1.
    5000001    1    1    2    0    0  0.45229953127E+02  0.30516686683E+03  0.63241910926E+03  0.72273888440E+03  0.16500000000E+03 0.  0.
   -5000001    1    1    2    0    0 -0.45229953127E+02 -0.30516686683E+03  0.23110044931E+03  0.41929104801E+03  0.16500000000E+03 0.  0.
<mgrwt>
<rscale>  0 0.74737296E+03</rscale>
<asrwt>0</asrwt>
<pdfrwt beam="1">  1        2 0.15427304E+00 0.74737296E+03</pdfrwt>
<pdfrwt beam="2">  1       -2 0.21423874E-01 0.74737296E+03</pdfrwt>
<totfact> 0.47702770E+02</totfact>
</mgrwt>
</event>
<event>
 4    1  0.9050888E-005  0.5053316E+03  0.7818608E-02  0.1012397E+00
         -2   -1    0    0    0  501 -0.00000000000E+00  0.00000000000E+00  0.69808218755E+02  0.69808218802E+02  0.25500000000E-02 0. -1.
          2   -1    0    0  501    0  0.00000000000E+00 -0.00000000000E+00 -0.91450548981E+03  0.91450548982E+03  0.25500000000E-02 0.  1.
    5000001    1    1    2    0    0  0.10091488515E+03  0.11466059506E+03 -0.19784482744E+03  0.29949698137E+03  0.16500000000E+03 0.  0.
   -5000001    1    1    2    0    0 -0.10091488515E+03 -0.11466059506E+03 -0.64685244362E+03  0.68481672725E+03  0.16500000000E+03 0.  0.
<mgrwt>
<rscale>  0 0.50533157E+03</rscale>
<asrwt>0</asrwt>
<pdfrwt beam="1">  1        2 0.14069314E+00 0.50533157E+03</pdfrwt>
<pdfrwt beam="2">  1       -2 0.10739727E-01 0.50533157E+03</pdfrwt>
<totfact> 0.17596057E+03</totfact>
</mgrwt>
</event>
<event>
 4    1  0.9050888E-005  0.5149724E+03  0.7818608E-02  0.1009943E+00
          2   -1    0    0  501    0  0.00000000000E+00  0.00000000000E+00  0.79843521891E+03  0.79843521892E+03  0.25500000000E-02 0. -1.
         -2   -1    0    0    0  501 -0.00000000000E+00 -0.00000000000E+00 -0.83036337765E+02  0.83036337804E+02  0.25500000000E-02 0.  1.
    5000001    1    1    2    0    0 -0.17616389530E+03  0.87495578105E+02  0.39128265140E+03  0.46799178142E+03  0.16500000000E+03 0.  0.
   -5000001    1    1    2    0    0  0.17616389530E+03 -0.87495578105E+02  0.32411622975E+03  0.41347977530E+03  0.16500000000E+03 0.  0.
<mgrwt>
<rscale>  0 0.51497237E+03</rscale>
<asrwt>0</asrwt>
<pdfrwt beam="1">  1        2 0.12283619E+00 0.51497237E+03</pdfrwt>
<pdfrwt beam="2">  1       -2 0.12774821E-01 0.51497237E+03</pdfrwt>
<totfact> 0.15892268E+03</totfact>
</mgrwt>
</event>
<event>
 4    1  0.9050888E-005  0.6425136E+03  0.7818608E-02  0.9820929E-01
         -2   -1    0    0    0  501 -0.00000000000E+00  0.00000000000E+00  0.39515376048E+02  0.39515376130E+02  0.25500000000E-02 0. -1.
          2   -1    0    0  501    0  0.00000000000E+00 -0.00000000000E+00 -0.26117916430E+04  0.26117916430E+04  0.25500000000E-02 0.  1.
    5000001    1    1    2    0    0 -0.82722943346E+02  0.24787778539E+03 -0.16481029961E+04  0.16768288427E+04  0.16500000000E+03 0.  0.
   -5000001    1    1    2    0    0  0.82722943346E+02 -0.24787778539E+03 -0.92417327084E+03  0.97447817645E+03  0.16500000000E+03 0.  0.
<mgrwt>
<rscale>  0 0.64251359E+03</rscale>
<asrwt>0</asrwt>
<pdfrwt beam="1">  1        2 0.40181396E+00 0.64251359E+03</pdfrwt>
<pdfrwt beam="2">  1       -2 0.60792907E-02 0.64251359E+03</pdfrwt>
<totfact> 0.47916861E+02</totfact>
</mgrwt>
</event>
<event>
 4    1  0.9050888E-005  0.7770438E+03  0.7818608E-02  0.9593853E-01
         -2   -1    0    0    0  501 -0.00000000000E+00  0.00000000000E+00  0.26801733108E+03  0.26801733110E+03  0.25500000000E-02 0. -1.
          2   -1    0    0  501    0  0.00000000000E+00 -0.00000000000E+00 -0.56320717156E+03  0.56320717157E+03  0.25500000000E-02 0.  1.
    5000001    1    1    2    0    0  0.26911255939E+03 -0.16679709621E+03 -0.31151614720E+03  0.47382502139E+03  0.16500000000E+03 0.  0.
   -5000001    1    1    2    0    0 -0.26911255939E+03  0.16679709621E+03  0.16326306722E+02  0.35739948128E+03  0.16500000000E+03 0.  0.
<mgrwt>
<rscale>  0 0.77704384E+03</rscale>
<asrwt>0</asrwt>
<pdfrwt beam="1">  1        2 0.86647256E-01 0.77704384E+03</pdfrwt>
<pdfrwt beam="2">  1       -2 0.41233436E-01 0.77704384E+03</pdfrwt>
<totfact> 0.30018577E+02</totfact>
</mgrwt>
</event>
<event>
 4    1  0.9050888E-005  0.3623538E+03  0.7818608E-02  0.1057656E+00
          2   -1    0    0  501    0  0.00000000000E+00  0.00000000000E+00  0.38970944846E+03  0.38970944847E+03  0.25500000000E-02 0.  1.
         -2   -1    0    0    0  501 -0.00000000000E+00 -0.00000000000E+00 -0.84229604202E+02  0.84229604240E+02  0.25500000000E-02 0. -1.
    5000001    1    1    2    0    0  0.28611355161E+01 -0.74750862700E+02  0.15006101540E+03  0.23524282330E+03  0.16500000000E+03 0.  0.
   -5000001    1    1    2    0    0 -0.28611355161E+01  0.74750862700E+02  0.15541882886E+03  0.23869622941E+03  0.16500000000E+03 0.  0.
<mgrwt>
<rscale>  0 0.36235382E+03</rscale>
<asrwt>0</asrwt>
<pdfrwt beam="1">  1        2 0.59955299E-01 0.36235382E+03</pdfrwt>
<pdfrwt beam="2">  1       -2 0.12958401E-01 0.36235382E+03</pdfrwt>
<totfact> 0.35978619E+03</totfact>
</mgrwt>
</event>
<event>
 4    1  0.9050888E-005  0.3644158E+03  0.7818608E-02  0.1056849E+00
         -2   -1    0    0    0  501 -0.00000000000E+00  0.00000000000E+00  0.16185233344E+02  0.16185233545E+02  0.25500000000E-02 0. -1.
          2   -1    0    0  501    0  0.00000000000E+00 -0.00000000000E+00 -0.20512351407E+04  0.20512351407E+04  0.25500000000E-02 0.  1.
    5000001    1    1    2    0    0  0.64015695329E+02 -0.28164122009E+02 -0.12042680523E+04  0.12175293708E+04  0.16500000000E+03 0.  0.
   -5000001    1    1    2    0    0 -0.64015695329E+02  0.28164122009E+02 -0.83078185507E+03  0.84989100344E+03  0.16500000000E+03 0.  0.
<mgrwt>
<rscale>  0 0.36441580E+03</rscale>
<asrwt>0</asrwt>
<pdfrwt beam="1">  1        2 0.31557443E+00 0.36441580E+03</pdfrwt>
<pdfrwt beam="2">  1       -2 0.24900375E-02 0.36441580E+03</pdfrwt>
<totfact> 0.38933949E+03</totfact>
</mgrwt>
</event>
<event>
 4    1  0.9050888E-005  0.7216732E+03  0.7818608E-02  0.9680869E-01
          2   -1    0    0  501    0  0.00000000000E+00  0.00000000000E+00  0.11361325308E+04  0.11361325308E+04  0.25500000000E-02 0.  1.
         -2   -1    0    0    0  501 -0.00000000000E+00 -0.00000000000E+00 -0.11460200152E+03  0.11460200155E+03  0.25500000000E-02 0. -1.
    5000001    1    1    2    0    0  0.13253337781E+03 -0.65501050743E+02  0.17142229074E+02  0.22220337509E+03  0.16500000000E+03 0.  0.
   -5000001    1    1    2    0    0 -0.13253337781E+03  0.65501050743E+02  0.10043883002E+04  0.10285311573E+04  0.16500000000E+03 0.  0.
<mgrwt>
<rscale>  0 0.72167323E+03</rscale>
<asrwt>0</asrwt>
<pdfrwt beam="1">  1        2 0.17478963E+00 0.72167323E+03</pdfrwt>
<pdfrwt beam="2">  1       -2 0.17631077E-01 0.72167323E+03</pdfrwt>
<totfact> 0.55455674E+02</totfact>
</mgrwt>
</event>
<event>
 4    1  0.9050888E-005  0.5913363E+03  0.7818608E-02  0.9923545E-01
          2   -1    0    0  501    0  0.00000000000E+00  0.00000000000E+00  0.17277724151E+03  0.17277724153E+03  0.25500000000E-02 0.  1.
         -2   -1    0    0    0  501 -0.00000000000E+00 -0.00000000000E+00 -0.50596734542E+03  0.50596734543E+03  0.25500000000E-02 0. -1.
    5000001    1    1    2    0    0  0.11935423765E+03  0.21187151940E+03 -0.12923076737E+03  0.32103047521E+03  0.16500000000E+03 0.  0.
   -5000001    1    1    2    0    0 -0.11935423765E+03 -0.21187151940E+03 -0.20395933654E+03  0.35771411174E+03  0.16500000000E+03 0.  0.
<mgrwt>
<rscale>  0 0.59133626E+03</rscale>
<asrwt>0</asrwt>
<pdfrwt beam="1">  1        2 0.26581114E-01 0.59133626E+03</pdfrwt>
<pdfrwt beam="2">  1       -2 0.77841129E-01 0.59133626E+03</pdfrwt>
<totfact> 0.30347499E+02</totfact>
</mgrwt>
</event>
<event>
 4    1  0.9050888E-005  0.1314764E+04  0.7818608E-02  0.9017938E-01
         -2   -1    0    0    0  501 -0.00000000000E+00  0.00000000000E+00  0.43469407076E+03  0.43469407077E+03  0.25500000000E-02 0. -1.
          2   -1    0    0  501    0  0.00000000000E+00 -0.00000000000E+00 -0.99415066789E+03  0.99415066789E+03  0.25500000000E-02 0.  1.
    5000001    1    1    2    0    0  0.48144338948E+03 -0.60690078036E+02  0.16763954073E+03  0.53925785897E+03  0.16500000000E+03 0.  0.
   -5000001    1    1    2    0    0 -0.48144338948E+03  0.60690078036E+02 -0.72709613786E+03  0.88958687970E+03  0.16500000000E+03 0.  0.
<mgrwt>
<rscale>  0 0.13147645E+04</rscale>
<asrwt>0</asrwt>
<pdfrwt beam="1">  1        2 0.15294626E+00 0.13147645E+04</pdfrwt>
<pdfrwt beam="2">  1       -2 0.66876011E-01 0.13147645E+04</pdfrwt>
<totfact> 0.51089853E+01</totfact>
</mgrwt>
</event>
<event>
 4    1  0.9050888E-005  0.6968006E+03  0.7818608E-02  0.9722719E-01
         -2   -1    0    0    0  501 -0.00000000000E+00  0.00000000000E+00  0.25664239065E+03  0.25664239066E+03  0.25500000000E-02 0. -1.
          2   -1    0    0  501    0  0.00000000000E+00 -0.00000000000E+00 -0.47296464745E+03  0.47296464745E+03  0.25500000000E-02 0.  1.
    5000001    1    1    2    0    0 -0.43197195384E+02  0.30304138551E+03 -0.13056228129E+03  0.37144526961E+03  0.16500000000E+03 0.  0.
   -5000001    1    1    2    0    0  0.43197195384E+02 -0.30304138551E+03 -0.85759975503E+02  0.35816176850E+03  0.16500000000E+03 0.  0.
<mgrwt>
<rscale>  0 0.69680063E+03</rscale>
<asrwt>0</asrwt>
<pdfrwt beam="1">  1        2 0.72763792E-01 0.69680063E+03</pdfrwt>
<pdfrwt beam="2">  1       -2 0.39483445E-01 0.69680063E+03</pdfrwt>
<totfact> 0.40161308E+02</totfact>
</mgrwt>
</event>
<event>
 4    1  0.9050888E-005  0.4541222E+03  0.7818608E-02  0.1026500E+00
         -2   -1    0    0    0  501 -0.00000000000E+00  0.00000000000E+00  0.47296963698E+03  0.47296963699E+03  0.25500000000E-02 0.  1.
          2   -1    0    0  501    0  0.00000000000E+00 -0.00000000000E+00 -0.10900647357E+03  0.10900647360E+03  0.25500000000E-02 0. -1.
    5000001    1    1    2    0    0 -0.15043520903E+03 -0.41223259412E+02  0.18033890366E+03  0.28996073770E+03  0.16500000000E+03 0.  0.
   -5000001    1    1    2    0    0  0.15043520903E+03  0.41223259412E+02  0.18362425975E+03  0.29201537289E+03  0.16500000000E+03 0.  0.
<mgrwt>
<rscale>  0 0.45412224E+03</rscale>
<asrwt>0</asrwt>
<pdfrwt beam="1">  1        2 0.16770227E-01 0.45412224E+03</pdfrwt>
<pdfrwt beam="2">  1       -2 0.72764559E-01 0.45412224E+03</pdfrwt>
<totfact> 0.60222907E+02</totfact>
</mgrwt>
</event>
<event>
 4    1  0.9050888E-005  0.5479952E+03  0.7818608E-02  0.1001959E+00
          2   -1    0    0  501    0  0.00000000000E+00  0.00000000000E+00  0.19087232307E+04  0.19087232307E+04  0.25500000000E-02 0.  1.
         -2   -1    0    0    0  501 -0.00000000000E+00 -0.00000000000E+00 -0.39332411425E+02  0.39332411507E+02  0.25500000000E-02 0. -1.
    5000001    1    1    2    0    0 -0.21727664713E+03 -0.25152382754E+02  0.94468944433E+03  0.98361828469E+03  0.16500000000E+03 0.  0.
   -5000001    1    1    2    0    0  0.21727664713E+03  0.25152382754E+02  0.92470137490E+03  0.96443735747E+03  0.16500000000E+03 0.  0.
<mgrwt>
<rscale>  0 0.54799521E+03</rscale>
<asrwt>0</asrwt>
<pdfrwt beam="1">  1        2 0.29364968E+00 0.54799521E+03</pdfrwt>
<pdfrwt beam="2">  1       -2 0.60511411E-02 0.54799521E+03</pdfrwt>
<totfact> 0.11876125E+03</totfact>
</mgrwt>
</event>
<event>
 4    1  0.9050888E-005  0.5110317E+03  0.7818608E-02  0.1010939E+00
          2   -1    0    0  501    0  0.00000000000E+00  0.00000000000E+00  0.37308793834E+04  0.37308793834E+04  0.25500000000E-02 0.  1.
         -2   -1    0    0    0  501 -0.00000000000E+00 -0.00000000000E+00 -0.17499452967E+02  0.17499453152E+02  0.25500000000E-02 0. -1.
    5000001    1    1    2    0    0  0.57700107513E+02  0.16891562636E+03  0.24343150213E+04  0.24464211440E+04  0.16500000000E+03 0.  0.
   -5000001    1    1    2    0    0 -0.57700107513E+02 -0.16891562636E+03  0.12790649091E+04  0.13019576925E+04  0.16500000000E+03 0.  0.
<mgrwt>
<rscale>  0 0.51103170E+03</rscale>
<asrwt>0</asrwt>
<pdfrwt beam="1">  1        2 0.57398263E+00 0.51103170E+03</pdfrwt>
<pdfrwt beam="2">  1       -2 0.26922180E-02 0.51103170E+03</pdfrwt>
<totfact> 0.33271727E+02</totfact>
</mgrwt>
</event>
<event>
 4    1  0.9050888E-005  0.5032513E+03  0.7818608E-02  0.1012934E+00
          2   -1    0    0  501    0  0.00000000000E+00  0.00000000000E+00  0.11844047197E+04  0.11844047197E+04  0.25500000000E-02 0.  1.
         -2   -1    0    0    0  501 -0.00000000000E+00 -0.00000000000E+00 -0.53457627187E+02  0.53457627248E+02  0.25500000000E-02 0. -1.
    5000001    1    1    2    0    0  0.48382831033E+02  0.14418142865E+03  0.84550799171E+03  0.87477879876E+03  0.16500000000E+03 0.  0.
   -5000001    1    1    2    0    0 -0.48382831033E+02 -0.14418142865E+03  0.28543910082E+03  0.36308354821E+03  0.16500000000E+03 0.  0.
<mgrwt>
<rscale>  0 0.50325129E+03</rscale>
<asrwt>0</asrwt>
<pdfrwt beam="1">  1        2 0.18221611E+00 0.50325129E+03</pdfrwt>
<pdfrwt beam="2">  1       -2 0.82242504E-02 0.50325129E+03</pdfrwt>
<totfact> 0.18412821E+03</totfact>
</mgrwt>
</event>
<event>
 4    1  0.9050888E-005  0.7169193E+03  0.7818608E-02  0.9688728E-01
         -2   -1    0    0    0  501 -0.00000000000E+00  0.00000000000E+00  0.12131735406E+03  0.12131735409E+03  0.25500000000E-02 0. -1.
          2   -1    0    0  501    0  0.00000000000E+00 -0.00000000000E+00 -0.10591503053E+04  0.10591503053E+04  0.25500000000E-02 0.  1.
    5000001    1    1    2    0    0 -0.95226075354E+02 -0.28736066173E+03 -0.30738201319E+03  0.46190135026E+03  0.16500000000E+03 0.  0.
   -5000001    1    1    2    0    0  0.95226075354E+02  0.28736066173E+03 -0.63045093800E+03  0.71856630909E+03  0.16500000000E+03 0.  0.
<mgrwt>
<rscale>  0 0.71691928E+03</rscale>
<asrwt>0</asrwt>
<pdfrwt beam="1">  1        2 0.16294619E+00 0.71691928E+03</pdfrwt>
<pdfrwt beam="2">  1       -2 0.18664209E-01 0.71691928E+03</pdfrwt>
<totfact> 0.56028753E+02</totfact>
</mgrwt>
</event>
<event>
 4    1  0.9050888E-005  0.6084298E+03  0.7818608E-02  0.9888070E-01
         -2   -1    0    0    0  501 -0.00000000000E+00  0.00000000000E+00  0.29304086674E+02  0.29304086785E+02  0.25500000000E-02 0. -1.
          2   -1    0    0  501    0  0.00000000000E+00 -0.00000000000E+00 -0.31581500354E+04  0.31581500354E+04  0.25500000000E-02 0.  1.
    5000001    1    1    2    0    0 -0.42959304684E+02 -0.24551534427E+03 -0.18607020458E+04  0.18845584070E+04  0.16500000000E+03 0.  0.
   -5000001    1    1    2    0    0  0.42959304684E+02  0.24551534427E+03 -0.12681439029E+04  0.13028957151E+04  0.16500000000E+03 0.  0.
<mgrwt>
<rscale>  0 0.60842979E+03</rscale>
<asrwt>0</asrwt>
<pdfrwt beam="1">  1        2 0.48586897E+00 0.60842979E+03</pdfrwt>
<pdfrwt beam="2">  1       -2 0.45083235E-02 0.60842979E+03</pdfrwt>
<totfact> 0.36121298E+02</totfact>
</mgrwt>
</event>
<event>
 4    1  0.9050888E-005  0.3508686E+03  0.7818608E-02  0.1062259E+00
         -2   -1    0    0    0  501 -0.00000000000E+00  0.00000000000E+00  0.27023054572E+02  0.27023054692E+02  0.25500000000E-02 0. -1.
          2   -1    0    0  501    0  0.00000000000E+00 -0.00000000000E+00 -0.11389234216E+04  0.11389234216E+04  0.25500000000E-02 0.  1.
    5000001    1    1    2    0    0  0.25234656773E+02  0.29424332027E+02 -0.40550793379E+03  0.43950456606E+03  0.16500000000E+03 0.  0.
   -5000001    1    1    2    0    0 -0.25234656773E+02 -0.29424332027E+02 -0.70639243327E+03  0.72644191027E+03  0.16500000000E+03 0.  0.
<mgrwt>
<rscale>  0 0.35086858E+03</rscale>
<asrwt>0</asrwt>
<pdfrwt beam="1">  1        2 0.17521895E+00 0.35086858E+03</pdfrwt>
<pdfrwt beam="2">  1       -2 0.41573939E-02 0.35086858E+03</pdfrwt>
<totfact> 0.56410543E+03</totfact>
</mgrwt>
</event>
<event>
 4    1  0.9050888E-005  0.4191287E+03  0.7818608E-02  0.1037350E+00
          2   -1    0    0  501    0  0.00000000000E+00  0.00000000000E+00  0.33024633157E+04  0.33024633157E+04  0.25500000000E-02 0.  1.
         -2   -1    0    0    0  501 -0.00000000000E+00 -0.00000000000E+00 -0.13298323428E+02  0.13298323673E+02  0.25500000000E-02 0. -1.
    5000001    1    1    2    0    0 -0.54509305882E+02 -0.11376865964E+03  0.14239706237E+04  0.14390385365E+04  0.16500000000E+03 0.  0.
   -5000001    1    1    2    0    0  0.54509305882E+02  0.11376865964E+03  0.18651943686E+04  0.18767231029E+04  0.16500000000E+03 0.  0.
<mgrwt>
<rscale>  0 0.41912874E+03</rscale>
<asrwt>0</asrwt>
<pdfrwt beam="1">  1        2 0.50807144E+00 0.41912874E+03</pdfrwt>
<pdfrwt beam="2">  1       -2 0.20458953E-02 0.41912874E+03</pdfrwt>
<totfact> 0.99309715E+02</totfact>
</mgrwt>
</event>
<event>
 4    1  0.9050888E-005  0.7977593E+03  0.7818608E-02  0.9563266E-01
          2   -1    0    0  501    0  0.00000000000E+00  0.00000000000E+00  0.18933272691E+04  0.18933272691E+04  0.25500000000E-02 0. -1.
         -2   -1    0    0    0  501 -0.00000000000E+00 -0.00000000000E+00 -0.84034581976E+02  0.84034582015E+02  0.25500000000E-02 0.  1.
    5000001    1    1    2    0    0  0.17713039321E+03  0.15752193557E+03  0.15865738602E+04  0.16126468771E+04  0.16500000000E+03 0.  0.
   -5000001    1    1    2    0    0 -0.17713039321E+03 -0.15752193557E+03  0.22271882688E+03  0.36471497396E+03  0.16500000000E+03 0.  0.
<mgrwt>
<rscale>  0 0.79775928E+03</rscale>
<asrwt>0</asrwt>
<pdfrwt beam="1">  1        2 0.29128111E+00 0.79775928E+03</pdfrwt>
<pdfrwt beam="2">  1       -2 0.12928397E-01 0.79775928E+03</pdfrwt>
<totfact> 0.35042848E+02</totfact>
</mgrwt>
</event>
<event>
 4    1  0.9050888E-005  0.8624961E+03  0.7818608E-02  0.9473717E-01
         -2   -1    0    0    0  501 -0.00000000000E+00  0.00000000000E+00  0.15748390862E+03  0.15748390864E+03  0.25500000000E-02 0. -1.
          2   -1    0    0  501    0  0.00000000000E+00 -0.00000000000E+00 -0.11809134299E+04  0.11809134299E+04  0.25500000000E-02 0.  1.
    5000001    1    1    2    0    0  0.26965888252E+03 -0.22719273076E+03 -0.79959844756E+03  0.88933409199E+03  0.16500000000E+03 0.  0.
   -5000001    1    1    2    0    0 -0.26965888252E+03  0.22719273076E+03 -0.22383107371E+03  0.44906324654E+03  0.16500000000E+03 0.  0.
<mgrwt>
<rscale>  0 0.86249606E+03</rscale>
<asrwt>0</asrwt>
<pdfrwt beam="1">  1        2 0.18167898E+00 0.86249606E+03</pdfrwt>
<pdfrwt beam="2">  1       -2 0.24228294E-01 0.86249606E+03</pdfrwt>
<totfact> 0.29599183E+02</totfact>
</mgrwt>
</event>
<event>
 4    1  0.9050888E-005  0.5648494E+03  0.7818608E-02  0.9981141E-01
         -2   -1    0    0    0  501 -0.00000000000E+00  0.00000000000E+00  0.22030233417E+03  0.22030233418E+03  0.25500000000E-02 0. -1.
          2   -1    0    0  501    0  0.00000000000E+00 -0.00000000000E+00 -0.36206472324E+03  0.36206472325E+03  0.25500000000E-02 0.  1.
    5000001    1    1    2    0    0  0.91247788396E+02  0.14287460472E+03  0.88173715782E+02  0.25246567235E+03  0.16500000000E+03 0.  0.
   -5000001    1    1    2    0    0 -0.91247788396E+02 -0.14287460472E+03 -0.22993610486E+03  0.32990138508E+03  0.16500000000E+03 0.  0.
<mgrwt>
<rscale>  0 0.56484937E+03</rscale>
<asrwt>0</asrwt>
<pdfrwt beam="1">  1        2 0.55702265E-01 0.56484937E+03</pdfrwt>
<pdfrwt beam="2">  1       -2 0.33892667E-01 0.56484937E+03</pdfrwt>
<totfact> 0.72850486E+02</totfact>
</mgrwt>
</event>
<event>
 4    1  0.9050888E-005  0.4808546E+03  0.7818608E-02  0.1018901E+00
          2   -1    0    0  501    0  0.00000000000E+00  0.00000000000E+00  0.10557716670E+03  0.10557716673E+03  0.25500000000E-02 0.  1.
         -2   -1    0    0    0  501 -0.00000000000E+00 -0.00000000000E+00 -0.54751691450E+03  0.54751691451E+03  0.25500000000E-02 0. -1.
    5000001    1    1    2    0    0 -0.91411006469E+02 -0.12618553517E+03 -0.32878625473E+03  0.39950489696E+03  0.16500000000E+03 0.  0.
   -5000001    1    1    2    0    0  0.91411006469E+02  0.12618553517E+03 -0.11315349307E+03  0.25358918428E+03  0.16500000000E+03 0.  0.
<mgrwt>
<rscale>  0 0.48085459E+03</rscale>
<asrwt>0</asrwt>
<pdfrwt beam="1">  1        2 0.16242641E-01 0.48085459E+03</pdfrwt>
<pdfrwt beam="2">  1       -2 0.84233369E-01 0.48085459E+03</pdfrwt>
<totfact> 0.45207564E+02</totfact>
</mgrwt>
</event>
<event>
 4    1  0.9050888E-005  0.4399942E+03  0.7818608E-02  0.1030749E+00
         -2   -1    0    0    0  501 -0.00000000000E+00  0.00000000000E+00  0.75028681424E+02  0.75028681467E+02  0.25500000000E-02 0. -1.
          2   -1    0    0  501    0  0.00000000000E+00 -0.00000000000E+00 -0.64506974044E+03  0.64506974045E+03  0.25500000000E-02 0.  1.
    5000001    1    1    2    0    0 -0.15151735178E+02  0.10598148325E+03 -0.44630815421E+03  0.48772699165E+03  0.16500000000E+03 0.  0.
   -5000001    1    1    2    0    0  0.15151735178E+02 -0.10598148325E+03 -0.12373290481E+03  0.23237143026E+03  0.16500000000E+03 0.  0.
<mgrwt>
<rscale>  0 0.43999424E+03</rscale>
<asrwt>0</asrwt>
<pdfrwt beam="1">  1        2 0.99241495E-01 0.43999424E+03</pdfrwt>
<pdfrwt beam="2">  1       -2 0.11542875E-01 0.43999424E+03</pdfrwt>
<totfact> 0.24516184E+03</totfact>
</mgrwt>
</event>
<event>
 4    1  0.9050888E-005  0.9205030E+03  0.7818608E-02  0.9400308E-01
          2   -1    0    0  501    0  0.00000000000E+00  0.00000000000E+00  0.10649452315E+04  0.10649452315E+04  0.25500000000E-02 0.  1.
         -2   -1    0    0    0  501 -0.00000000000E+00 -0.00000000000E+00 -0.19891300388E+03  0.19891300390E+03  0.25500000000E-02 0. -1.
    5000001    1    1    2    0    0 -0.84077751417E+02  0.34036845012E+03  0.92004689695E+02  0.39825822408E+03  0.16500000000E+03 0.  0.
   -5000001    1    1    2    0    0  0.84077751417E+02 -0.34036845012E+03  0.77402753788E+03  0.86560001127E+03  0.16500000000E+03 0.  0.
<mgrwt>
<rscale>  0 0.92050303E+03</rscale>
<asrwt>0</asrwt>
<pdfrwt beam="1">  1        2 0.16383772E+00 0.92050303E+03</pdfrwt>
<pdfrwt beam="2">  1       -2 0.30602001E-01 0.92050303E+03</pdfrwt>
<totfact> 0.22641790E+02</totfact>
</mgrwt>
</event>
<event>
 4    1  0.9050888E-005  0.4302333E+03  0.7818608E-02  0.1033786E+00
          2   -1    0    0  501    0  0.00000000000E+00  0.00000000000E+00  0.31806452980E+03  0.31806452981E+03  0.25500000000E-02 0.  1.
         -2   -1    0    0    0  501 -0.00000000000E+00 -0.00000000000E+00 -0.14548986884E+03  0.14548986886E+03  0.25500000000E-02 0. -1.
    5000001    1    1    2    0    0 -0.17897955339E+02  0.12667252852E+03  0.30468605033E+02  0.21099668761E+03  0.16500000000E+03 0.  0.
   -5000001    1    1    2    0    0  0.17897955339E+02 -0.12667252852E+03  0.14210605593E+03  0.25255771107E+03  0.16500000000E+03 0.  0.
<mgrwt>
<rscale>  0 0.43023327E+03</rscale>
<asrwt>0</asrwt>
<pdfrwt beam="1">  1        2 0.48933004E-01 0.43023327E+03</pdfrwt>
<pdfrwt beam="2">  1       -2 0.22383057E-01 0.43023327E+03</pdfrwt>
<totfact> 0.17851993E+03</totfact>
</mgrwt>
</event>
<event>
 4    1  0.9050888E-005  0.4250581E+03  0.7818608E-02  0.1035433E+00
          2   -1    0    0  501    0  0.00000000000E+00  0.00000000000E+00  0.10751778095E+04  0.10751778095E+04  0.25500000000E-02 0.  1.
         -2   -1    0    0    0  501 -0.00000000000E+00 -0.00000000000E+00 -0.42010357382E+02  0.42010357460E+02  0.25500000000E-02 0. -1.
    5000001    1    1    2    0    0  0.10362209414E+03  0.76164805891E+02  0.41806601617E+03  0.46748562537E+03  0.16500000000E+03 0.  0.
   -5000001    1    1    2    0    0 -0.10362209414E+03 -0.76164805891E+02  0.61510143597E+03  0.64970254161E+03  0.16500000000E+03 0.  0.
<mgrwt>
<rscale>  0 0.42505813E+03</rscale>
<asrwt>0</asrwt>
<pdfrwt beam="1">  1        2 0.16541195E+00 0.42505813E+03</pdfrwt>
<pdfrwt beam="2">  1       -2 0.64631328E-02 0.42505813E+03</pdfrwt>
<totfact> 0.31275782E+03</totfact>
</mgrwt>
</event>
<event>
 4    1  0.9050888E-005  0.4429568E+03  0.7818608E-02  0.1029843E+00
          2   -1    0    0  501    0  0.00000000000E+00  0.00000000000E+00  0.90601402323E+03  0.90601402323E+03  0.25500000000E-02 0.  1.
         -2   -1    0    0    0  501 -0.00000000000E+00 -0.00000000000E+00 -0.54141184191E+02  0.54141184251E+02  0.25500000000E-02 0. -1.
    5000001    1    1    2    0    0 -0.14105477713E+03  0.65779484488E+01  0.33175274017E+03  0.39651557368E+03  0.16500000000E+03 0.  0.
   -5000001    1    1    2    0    0  0.14105477713E+03 -0.65779484488E+01  0.52012009886E+03  0.56363963380E+03  0.16500000000E+03 0.  0.
<mgrwt>
<rscale>  0 0.44295676E+03</rscale>
<asrwt>0</asrwt>
<pdfrwt beam="1">  1        2 0.13938676E+00 0.44295676E+03</pdfrwt>
<pdfrwt beam="2">  1       -2 0.83294137E-02 0.44295676E+03</pdfrwt>
<totfact> 0.26809062E+03</totfact>
</mgrwt>
</event>
<event>
 4    1  0.9050888E-005  0.4792243E+03  0.7818608E-02  0.1019349E+00
          2   -1    0    0  501    0  0.00000000000E+00  0.00000000000E+00  0.16350003760E+04  0.16350003760E+04  0.25500000000E-02 0.  1.
         -2   -1    0    0    0  501 -0.00000000000E+00 -0.00000000000E+00 -0.35115578812E+02  0.35115578904E+02  0.25500000000E-02 0. -1.
    5000001    1    1    2    0    0 -0.47865098272E+02  0.16529259846E+03  0.88360324640E+03  0.91520074726E+03  0.16500000000E+03 0.  0.
   -5000001    1    1    2    0    0  0.47865098272E+02 -0.16529259846E+03  0.71628155081E+03  0.75491520767E+03  0.16500000000E+03 0.  0.
<mgrwt>
<rscale>  0 0.47922431E+03</rscale>
<asrwt>0</asrwt>
<pdfrwt beam="1">  1        2 0.25153863E+00 0.47922431E+03</pdfrwt>
<pdfrwt beam="2">  1       -2 0.54023944E-02 0.47922431E+03</pdfrwt>
<totfact> 0.19966745E+03</totfact>
</mgrwt>
</event>
<event>
 4    1  0.9050888E-005  0.7030274E+03  0.7818608E-02  0.9712069E-01
          2   -1    0    0  501    0  0.00000000000E+00  0.00000000000E+00  0.22742392079E+04  0.22742392079E+04  0.25500000000E-02 0.  1.
         -2   -1    0    0    0  501 -0.00000000000E+00 -0.00000000000E+00 -0.54331084228E+02  0.54331084287E+02  0.25500000000E-02 0. -1.
    5000001    1    1    2    0    0  0.19603316937E+03 -0.23904988690E+03  0.10184610473E+04  0.10770616309E+04  0.16500000000E+03 0.  0.
   -5000001    1    1    2    0    0 -0.19603316937E+03  0.23904988690E+03  0.12014470764E+04  0.12515086613E+04  0.16500000000E+03 0.  0.
<mgrwt>
<rscale>  0 0.70302740E+03</rscale>
<asrwt>0</asrwt>
<pdfrwt beam="1">  1        2 0.34988296E+00 0.70302740E+03</pdfrwt>
<pdfrwt beam="2">  1       -2 0.83586282E-02 0.70302740E+03</pdfrwt>
<totfact> 0.44508133E+02</totfact>
</mgrwt>
</event>
<event>
 4    1  0.9050888E-005  0.3572141E+03  0.7818608E-02  0.1059692E+00
          2   -1    0    0  501    0  0.00000000000E+00  0.00000000000E+00  0.34819947721E+03  0.34819947722E+03  0.25500000000E-02 0.  1.
         -2   -1    0    0    0  501 -0.00000000000E+00 -0.00000000000E+00 -0.91615540178E+02  0.91615540213E+02  0.25500000000E-02 0. -1.
    5000001    1    1    2    0    0  0.23392229570E+02  0.61789801806E+02  0.14998085967E+03  0.23256060345E+03  0.16500000000E+03 0.  0.
   -5000001    1    1    2    0    0 -0.23392229570E+02 -0.61789801806E+02  0.10660307737E+03  0.20725441398E+03  0.16500000000E+03 0.  0.
<mgrwt>
<rscale>  0 0.35721413E+03</rscale>
<asrwt>0</asrwt>
<pdfrwt beam="1">  1        2 0.53569150E-01 0.35721413E+03</pdfrwt>
<pdfrwt beam="2">  1       -2 0.14094699E-01 0.35721413E+03</pdfrwt>
<totfact> 0.35424273E+03</totfact>
</mgrwt>
</event>
<event>
 4    1  0.9050888E-005  0.4647373E+03  0.7818608E-02  0.1023416E+00
         -2   -1    0    0    0  501 -0.00000000000E+00  0.00000000000E+00  0.69702325065E+02  0.69702325112E+02  0.25500000000E-02 0. -1.
          2   -1    0    0  501    0  0.00000000000E+00 -0.00000000000E+00 -0.77465392587E+03  0.77465392587E+03  0.25500000000E-02 0.  1.
    5000001    1    1    2    0    0 -0.10861246581E+03  0.12224572358E+03 -0.34260861560E+03  0.41394002965E+03  0.16500000000E+03 0.  0.
   -5000001    1    1    2    0    0  0.10861246581E+03 -0.12224572358E+03 -0.36234298520E+03  0.43041622133E+03  0.16500000000E+03 0.  0.
<mgrwt>
<rscale>  0 0.46473726E+03</rscale>
<asrwt>0</asrwt>
<pdfrwt beam="1">  1        2 0.11917752E+00 0.46473726E+03</pdfrwt>
<pdfrwt beam="2">  1       -2 0.10723435E-01 0.46473726E+03</pdfrwt>
<totfact> 0.22008892E+03</totfact>
</mgrwt>
</event>
<event>
 4    1  0.9050888E-005  0.4558927E+03  0.7818608E-02  0.1025979E+00
          2   -1    0    0  501    0  0.00000000000E+00  0.00000000000E+00  0.35245993914E+04  0.35245993914E+04  0.25500000000E-02 0.  1.
         -2   -1    0    0    0  501 -0.00000000000E+00 -0.00000000000E+00 -0.14741966884E+02  0.14741967104E+02  0.25500000000E-02 0. -1.
    5000001    1    1    2    0    0  0.10700489101E+03  0.66188012167E+02  0.10223684337E+04  0.10432128804E+04  0.16500000000E+03 0.  0.
   -5000001    1    1    2    0    0 -0.10700489101E+03 -0.66188012167E+02  0.24874889909E+04  0.24961284781E+04  0.16500000000E+03 0.  0.
<mgrwt>
<rscale>  0 0.45589265E+03</rscale>
<asrwt>0</asrwt>
<pdfrwt beam="1">  1        2 0.54224645E+00 0.45589265E+03</pdfrwt>
<pdfrwt beam="2">  1       -2 0.22679933E-02 0.45589265E+03</pdfrwt>
<totfact> 0.60487456E+02</totfact>
</mgrwt>
</event>
<event>
 4    1  0.9050888E-005  0.4383951E+03  0.7818608E-02  0.1031240E+00
          2   -1    0    0  501    0  0.00000000000E+00  0.00000000000E+00  0.21119909213E+03  0.21119909215E+03  0.25500000000E-02 0.  1.
         -2   -1    0    0    0  501 -0.00000000000E+00 -0.00000000000E+00 -0.22749895782E+03  0.22749895784E+03  0.25500000000E-02 0. -1.
    5000001    1    1    2    0    0  0.14318631282E+03  0.17648175465E+02 -0.51822332926E+01  0.21923875985E+03  0.16500000000E+03 0.  0.
   -5000001    1    1    2    0    0 -0.14318631282E+03 -0.17648175465E+02 -0.11117632401E+02  0.21945929014E+03  0.16500000000E+03 0.  0.
<mgrwt>
<rscale>  0 0.43839513E+03</rscale>
<asrwt>0</asrwt>
<pdfrwt beam="1">  1        2 0.32492168E-01 0.43839513E+03</pdfrwt>
<pdfrwt beam="2">  1       -2 0.34999840E-01 0.43839513E+03</pdfrwt>
<totfact> 0.12422962E+03</totfact>
</mgrwt>
</event>
<event>
 4    1  0.9050888E-005  0.4643992E+03  0.7818608E-02  0.1023513E+00
          2   -1    0    0  501    0  0.00000000000E+00  0.00000000000E+00  0.74623139087E+03  0.74623139087E+03  0.25500000000E-02 0.  1.
         -2   -1    0    0    0  501 -0.00000000000E+00 -0.00000000000E+00 -0.72251937449E+02  0.72251937494E+02  0.25500000000E-02 0. -1.
    5000001    1    1    2    0    0 -0.15918798138E+03  0.30859808594E+02  0.37217369416E+03  0.43821387452E+03  0.16500000000E+03 0.  0.
   -5000001    1    1    2    0    0  0.15918798138E+03 -0.30859808594E+02  0.30180575926E+03  0.38026945384E+03  0.16500000000E+03 0.  0.
<mgrwt>
<rscale>  0 0.46439924E+03</rscale>
<asrwt>0</asrwt>
<pdfrwt beam="1">  1        2 0.11480483E+00 0.46439924E+03</pdfrwt>
<pdfrwt beam="2">  1       -2 0.11115683E-01 0.46439924E+03</pdfrwt>
<totfact> 0.21776682E+03</totfact>
</mgrwt>
</event>
<event>
 4    1  0.9050888E-005  0.7009463E+03  0.7818608E-02  0.9715615E-01
          2   -1    0    0  501    0  0.00000000000E+00  0.00000000000E+00  0.81583090561E+03  0.81583090561E+03  0.25500000000E-02 0.  1.
         -2   -1    0    0    0  501 -0.00000000000E+00 -0.00000000000E+00 -0.15055991465E+03  0.15055991467E+03  0.25500000000E-02 0. -1.
    5000001    1    1    2    0    0 -0.17928797908E+03 -0.24192253443E+03  0.23577556448E+03  0.41651627688E+03  0.16500000000E+03 0.  0.
   -5000001    1    1    2    0    0  0.17928797908E+03  0.24192253443E+03  0.42949542648E+03  0.54987454340E+03  0.16500000000E+03 0.  0.
<mgrwt>
<rscale>  0 0.70094631E+03</rscale>
<asrwt>0</asrwt>
<pdfrwt beam="1">  1        2 0.12551245E+00 0.70094631E+03</pdfrwt>
<pdfrwt beam="2">  1       -2 0.23163064E-01 0.70094631E+03</pdfrwt>
<totfact> 0.55513768E+02</totfact>
</mgrwt>
</event>
<event>
 4    1  0.9050888E-005  0.4887884E+03  0.7818608E-02  0.1016747E+00
          2   -1    0    0  501    0  0.00000000000E+00  0.00000000000E+00  0.93663373315E+03  0.93663373315E+03  0.25500000000E-02 0.  1.
         -2   -1    0    0    0  501 -0.00000000000E+00 -0.00000000000E+00 -0.63769360733E+02  0.63769360784E+02  0.25500000000E-02 0. -1.
    5000001    1    1    2    0    0  0.17244250641E+03  0.31394688879E+02  0.52281866784E+03  0.57557484652E+03  0.16500000000E+03 0.  0.
   -5000001    1    1    2    0    0 -0.17244250641E+03 -0.31394688879E+02  0.35004570457E+03  0.42482824741E+03  0.16500000000E+03 0.  0.
<mgrwt>
<rscale>  0 0.48878844E+03</rscale>
<asrwt>0</asrwt>
<pdfrwt beam="1">  1        2 0.14409749E+00 0.48878844E+03</pdfrwt>
<pdfrwt beam="2">  1       -2 0.98106711E-02 0.48878844E+03</pdfrwt>
<totfact> 0.19706448E+03</totfact>
</mgrwt>
</event>
<event>
 4    1  0.9050888E-005  0.5649177E+03  0.7818608E-02  0.9980989E-01
         -2   -1    0    0    0  501 -0.00000000000E+00  0.00000000000E+00  0.24172467427E+03  0.24172467429E+03  0.25500000000E-02 0. -1.
          2   -1    0    0  501    0  0.00000000000E+00 -0.00000000000E+00 -0.33005733370E+03  0.33005733371E+03  0.25500000000E-02 0.  1.
    5000001    1    1    2    0    0 -0.21199727590E+03 -0.31400258609E+02  0.38242779275E+02  0.27315990079E+03  0.16500000000E+03 0.  0.
   -5000001    1    1    2    0    0  0.21199727590E+03  0.31400258609E+02 -0.12657543870E+03  0.29862210721E+03  0.16500000000E+03 0.  0.
<mgrwt>
<rscale>  0 0.56491770E+03</rscale>
<asrwt>0</asrwt>
<pdfrwt beam="1">  1        2 0.50778051E-01 0.56491770E+03</pdfrwt>
<pdfrwt beam="2">  1       -2 0.37188411E-01 0.56491770E+03</pdfrwt>
<totfact> 0.67671445E+02</totfact>
</mgrwt>
</event>
<event>
 4    1  0.9050888E-005  0.1315427E+04  0.7818608E-02  0.9017420E-01
          2   -1    0    0  501    0  0.00000000000E+00  0.00000000000E+00  0.86386632087E+03  0.86386632087E+03  0.25500000000E-02 0.  1.
         -2   -1    0    0    0  501 -0.00000000000E+00 -0.00000000000E+00 -0.50075689496E+03  0.50075689497E+03  0.25500000000E-02 0. -1.
    5000001    1    1    2    0    0  0.53447021177E+03  0.25070329435E+03 -0.65798103118E+02  0.61649407089E+03  0.16500000000E+03 0.  0.
   -5000001    1    1    2    0    0 -0.53447021177E+03 -0.25070329435E+03  0.42890752902E+03  0.74812914495E+03  0.16500000000E+03 0.  0.
<mgrwt>
<rscale>  0 0.13154270E+04</rscale>
<asrwt>0</asrwt>
<pdfrwt beam="1">  1        2 0.13290251E+00 0.13154270E+04</pdfrwt>
<pdfrwt beam="2">  1       -2 0.77039523E-01 0.13154270E+04</pdfrwt>
<totfact> 0.45736311E+01</totfact>
</mgrwt>
</event>
<event>
 4    1  0.9050888E-005  0.7636532E+03  0.7818608E-02  0.9614171E-01
         -2   -1    0    0    0  501 -0.00000000000E+00  0.00000000000E+00  0.27029578176E+03  0.27029578177E+03  0.25500000000E-02 0. -1.
          2   -1    0    0  501    0  0.00000000000E+00 -0.00000000000E+00 -0.53937785061E+03  0.53937785061E+03  0.25500000000E-02 0.  1.
    5000001    1    1    2    0    0  0.55753471264E+02  0.25419383104E+03 -0.37361483103E+03  0.48428916492E+03  0.16500000000E+03 0.  0.
   -5000001    1    1    2    0    0 -0.55753471264E+02 -0.25419383104E+03  0.10453276218E+03  0.32538446746E+03  0.16500000000E+03 0.  0.
<mgrwt>
<rscale>  0 0.76365321E+03</rscale>
<asrwt>0</asrwt>
<pdfrwt beam="1">  1        2 0.82981208E-01 0.76365321E+03</pdfrwt>
<pdfrwt beam="2">  1       -2 0.41583967E-01 0.76365321E+03</pdfrwt>
<totfact> 0.31088697E+02</totfact>
</mgrwt>
</event>
<event>
 4    1  0.9050888E-005  0.6482624E+03  0.7818608E-02  0.9810045E-01
          2   -1    0    0  501    0  0.00000000000E+00  0.00000000000E+00  0.53127728556E+03  0.53127728556E+03  0.25500000000E-02 0.  1.
         -2   -1    0    0    0  501 -0.00000000000E+00 -0.00000000000E+00 -0.19775176233E+03  0.19775176235E+03  0.25500000000E-02 0. -1.
    5000001    1    1    2    0    0 -0.13470220898E+03 -0.11854635842E+03  0.40700965878E+03  0.47442574397E+03  0.16500000000E+03 0.  0.
   -5000001    1    1    2    0    0  0.13470220898E+03  0.11854635842E+03 -0.73484135554E+02  0.25460330394E+03  0.16500000000E+03 0.  0.
<mgrwt>
<rscale>  0 0.64826235E+03</rscale>
<asrwt>0</asrwt>
<pdfrwt beam="1">  1        2 0.81734967E-01 0.64826235E+03</pdfrwt>
<pdfrwt beam="2">  1       -2 0.30423348E-01 0.64826235E+03</pdfrwt>
<totfact> 0.57640344E+02</totfact>
</mgrwt>
</event>
<event>
 4    1  0.9050888E-005  0.4287259E+03  0.7818608E-02  0.1034263E+00
          2   -1    0    0  501    0  0.00000000000E+00  0.00000000000E+00  0.24362545889E+03  0.24362545890E+03  0.25500000000E-02 0.  1.
         -2   -1    0    0    0  501 -0.00000000000E+00 -0.00000000000E+00 -0.18861523933E+03  0.18861523935E+03  0.25500000000E-02 0. -1.
    5000001    1    1    2    0    0 -0.10459500623E+03 -0.87740179690E+02  0.36963910579E+02  0.21732414764E+03  0.16500000000E+03 0.  0.
   -5000001    1    1    2    0    0  0.10459500623E+03  0.87740179690E+02  0.18046308982E+02  0.21491655061E+03  0.16500000000E+03 0.  0.
<mgrwt>
<rscale>  0 0.42872590E+03</rscale>
<asrwt>0</asrwt>
<pdfrwt beam="1">  1        2 0.37480840E-01 0.42872590E+03</pdfrwt>
<pdfrwt beam="2">  1       -2 0.29017729E-01 0.42872590E+03</pdfrwt>
<totfact> 0.15019635E+03</totfact>
</mgrwt>
</event>
<event>
 4    1  0.9050888E-005  0.5146890E+03  0.7818608E-02  0.1010014E+00
          2   -1    0    0  501    0  0.00000000000E+00  0.00000000000E+00  0.70480439934E+03  0.70480439935E+03  0.25500000000E-02 0.  1.
         -2   -1    0    0    0  501 -0.00000000000E+00 -0.00000000000E+00 -0.93963924871E+02  0.93963924906E+02  0.25500000000E-02 0. -1.
    5000001    1    1    2    0    0 -0.10075587949E+03 -0.62117656612E+02  0.55075910859E+03  0.58700165775E+03  0.16500000000E+03 0.  0.
   -5000001    1    1    2    0    0  0.10075587949E+03  0.62117656612E+02  0.60081365885E+02  0.21176666650E+03  0.16500000000E+03 0.  0.
<mgrwt>
<rscale>  0 0.51468898E+03</rscale>
<asrwt>0</asrwt>
<pdfrwt beam="1">  1        2 0.10843145E+00 0.51468898E+03</pdfrwt>
<pdfrwt beam="2">  1       -2 0.14455988E-01 0.51468898E+03</pdfrwt>
<totfact> 0.15174081E+03</totfact>
</mgrwt>
</event>
<event>
 4    1  0.9050888E-005  0.9442691E+03  0.7818608E-02  0.9371874E-01
         -2   -1    0    0    0  501 -0.00000000000E+00  0.00000000000E+00  0.60164492770E+02  0.60164492824E+02  0.25500000000E-02 0. -1.
          2   -1    0    0  501    0  0.00000000000E+00 -0.00000000000E+00 -0.37050265636E+04  0.37050265636E+04  0.25500000000E-02 0.  1.
    5000001    1    1    2    0    0 -0.41124748033E+00 -0.30442309758E+03 -0.31022133176E+04  0.31214781850E+04  0.16500000000E+03 0.  0.
   -5000001    1    1    2    0    0  0.41124748033E+00  0.30442309758E+03 -0.54264875319E+03  0.64371287140E+03  0.16500000000E+03 0.  0.
<mgrwt>
<rscale>  0 0.94426912E+03</rscale>
<asrwt>0</asrwt>
<pdfrwt beam="1">  1        2 0.57000391E+00 0.94426912E+03</pdfrwt>
<pdfrwt beam="2">  1       -2 0.92560787E-02 0.94426912E+03</pdfrwt>
<totfact> 0.47570543E+01</totfact>
</mgrwt>
</event>
<event>
 4    1  0.9050888E-005  0.4308891E+03  0.7818608E-02  0.1033579E+00
          2   -1    0    0  501    0  0.00000000000E+00  0.00000000000E+00  0.33111740157E+03  0.33111740158E+03  0.25500000000E-02 0.  1.
         -2   -1    0    0    0  501 -0.00000000000E+00 -0.00000000000E+00 -0.14018097575E+03  0.14018097578E+03  0.25500000000E-02 0. -1.
    5000001    1    1    2    0    0  0.95442919428E+02 -0.10040903067E+03  0.95260280057E+02  0.23556494914E+03  0.16500000000E+03 0.  0.
   -5000001    1    1    2    0    0 -0.95442919428E+02  0.10040903067E+03  0.95676145756E+02  0.23573342821E+03  0.16500000000E+03 0.  0.
<mgrwt>
<rscale>  0 0.43088913E+03</rscale>
<asrwt>0</asrwt>
<pdfrwt beam="1">  1        2 0.50941138E-01 0.43088913E+03</pdfrwt>
<pdfrwt beam="2">  1       -2 0.21566304E-01 0.43088913E+03</pdfrwt>
<totfact> 0.18232573E+03</totfact>
</mgrwt>
</event>
<event>
 4    1  0.9050888E-005  0.1471399E+04  0.7818608E-02  0.8903698E-01
          2   -1    0    0  501    0  0.00000000000E+00  0.00000000000E+00  0.19750986979E+04  0.19750986979E+04  0.25500000000E-02 0.  1.
         -2   -1    0    0    0  501 -0.00000000000E+00 -0.00000000000E+00 -0.27403884156E+03  0.27403884157E+03  0.25500000000E-02 0. -1.
    5000001    1    1    2    0    0  0.15605043276E+03  0.62529537264E+03  0.13307121848E+04  0.14877385387E+04  0.16500000000E+03 0.  0.
   -5000001    1    1    2    0    0 -0.15605043276E+03 -0.62529537264E+03  0.37034767151E+03  0.76139900079E+03  0.16500000000E+03 0.  0.
<mgrwt>
<rscale>  0 0.14713990E+04</rscale>
<asrwt>0</asrwt>
<pdfrwt beam="1">  1        2 0.30386134E+00 0.14713990E+04</pdfrwt>
<pdfrwt beam="2">  1       -2 0.42159822E-01 0.14713990E+04</pdfrwt>
<totfact> 0.35626248E+01</totfact>
</mgrwt>
</event>
<event>
 4    1  0.9050888E-005  0.4488786E+03  0.7818608E-02  0.1028057E+00
         -2   -1    0    0    0  501 -0.00000000000E+00  0.00000000000E+00  0.18321322282E+02  0.18321322459E+02  0.25500000000E-02 0. -1.
          2   -1    0    0  501    0  0.00000000000E+00 -0.00000000000E+00 -0.27494191252E+04  0.27494191252E+04  0.25500000000E-02 0.  1.
    5000001    1    1    2    0    0 -0.13656932543E+03 -0.56067892837E+02 -0.11387305141E+04  0.11600547284E+04  0.16500000000E+03 0.  0.
   -5000001    1    1    2    0    0  0.13656932543E+03  0.56067892837E+02 -0.15923672888E+04  0.16076857192E+04  0.16500000000E+03 0.  0.
<mgrwt>
<rscale>  0 0.44887858E+03</rscale>
<asrwt>0</asrwt>
<pdfrwt beam="1">  1        2 0.42298723E+00 0.44887858E+03</pdfrwt>
<pdfrwt beam="2">  1       -2 0.28186672E-02 0.44887858E+03</pdfrwt>
<totfact> 0.13249728E+03</totfact>
</mgrwt>
</event>
<event>
 4    1  0.9050888E-005  0.3861407E+03  0.7818608E-02  0.1048687E+00
          2   -1    0    0  501    0  0.00000000000E+00  0.00000000000E+00  0.13974164063E+04  0.13974164063E+04  0.25500000000E-02 0.  1.
         -2   -1    0    0    0  501 -0.00000000000E+00 -0.00000000000E+00 -0.26675057633E+02  0.26675057754E+02  0.25500000000E-02 0. -1.
    5000001    1    1    2    0    0 -0.93964041752E+02  0.29026230270E+02  0.61353486443E+03  0.64290107564E+03  0.16500000000E+03 0.  0.
   -5000001    1    1    2    0    0  0.93964041752E+02 -0.29026230270E+02  0.75720648425E+03  0.78119038843E+03  0.16500000000E+03 0.  0.
<mgrwt>
<rscale>  0 0.38614072E+03</rscale>
<asrwt>0</asrwt>
<pdfrwt beam="1">  1        2 0.21498717E+00 0.38614072E+03</pdfrwt>
<pdfrwt beam="2">  1       -2 0.41038544E-02 0.38614072E+03</pdfrwt>
<totfact> 0.41097734E+03</totfact>
</mgrwt>
</event>
<event>
 4    1  0.9050888E-005  0.3829955E+03  0.7818608E-02  0.1049832E+00
          2   -1    0    0  501    0  0.00000000000E+00  0.00000000000E+00  0.17025420862E+04  0.17025420862E+04  0.25500000000E-02 0.  1.
         -2   -1    0    0    0  501 -0.00000000000E+00 -0.00000000000E+00 -0.21539191072E+02  0.21539191223E+02  0.25500000000E-02 0. -1.
    5000001    1    1    2    0    0  0.68472283210E+02 -0.14980965437E+02  0.11435978356E+04  0.11575637747E+04  0.16500000000E+03 0.  0.
   -5000001    1    1    2    0    0 -0.68472283210E+02  0.14980965437E+02  0.53740505950E+03  0.56651750271E+03  0.16500000000E+03 0.  0.
<mgrwt>
<rscale>  0 0.38299545E+03</rscale>
<asrwt>0</asrwt>
<pdfrwt beam="1">  1        2 0.26192967E+00 0.38299545E+03</pdfrwt>
<pdfrwt beam="2">  1       -2 0.33137202E-02 0.38299545E+03</pdfrwt>
<totfact> 0.38856323E+03</totfact>
</mgrwt>
</event>
<event>
 4    1  0.9050888E-005  0.5036607E+03  0.7818608E-02  0.1012828E+00
          2   -1    0    0  501    0  0.00000000000E+00  0.00000000000E+00  0.97846847891E+03  0.97846847891E+03  0.25500000000E-02 0.  1.
         -2   -1    0    0    0  501 -0.00000000000E+00 -0.00000000000E+00 -0.64814072869E+02  0.64814072919E+02  0.25500000000E-02 0. -1.
    5000001    1    1    2    0    0 -0.92592356873E+01 -0.17361730724E+03  0.61680610337E+03  0.66174275362E+03  0.16500000000E+03 0.  0.
   -5000001    1    1    2    0    0  0.92592356873E+01  0.17361730724E+03  0.29684830267E+03  0.38153979821E+03  0.16500000000E+03 0.  0.
<mgrwt>
<rscale>  0 0.50366071E+03</rscale>
<asrwt>0</asrwt>
<pdfrwt beam="1">  1        2 0.15053360E+00 0.50366071E+03</pdfrwt>
<pdfrwt beam="2">  1       -2 0.99713965E-02 0.50366071E+03</pdfrwt>
<totfact> 0.18043109E+03</totfact>
</mgrwt>
</event>
<event>
 4    1  0.9050888E-005  0.3763793E+03  0.7818608E-02  0.1052280E+00
          2   -1    0    0  501    0  0.00000000000E+00  0.00000000000E+00  0.40194162111E+03  0.40194162112E+03  0.25500000000E-02 0.  1.
         -2   -1    0    0    0  501 -0.00000000000E+00 -0.00000000000E+00 -0.88110650182E+02  0.88110650219E+02  0.25500000000E-02 0. -1.
    5000001    1    1    2    0    0 -0.77579043660E+02 -0.46211247207E+02  0.16476549375E+03  0.25005330495E+03  0.16500000000E+03 0.  0.
   -5000001    1    1    2    0    0  0.77579043660E+02  0.46211247207E+02  0.14906547718E+03  0.23999896640E+03  0.16500000000E+03 0.  0.
<mgrwt>
<rscale>  0 0.37637926E+03</rscale>
<asrwt>0</asrwt>
<pdfrwt beam="1">  1        2 0.61837171E-01 0.37637926E+03</pdfrwt>
<pdfrwt beam="2">  1       -2 0.13555485E-01 0.37637926E+03</pdfrwt>
<totfact> 0.32318205E+03</totfact>
</mgrwt>
</event>
<event>
 4    1  0.9050888E-005  0.5869203E+03  0.7818608E-02  0.9932920E-01
          2   -1    0    0  501    0  0.00000000000E+00  0.00000000000E+00  0.15525755419E+04  0.15525755419E+04  0.25500000000E-02 0.  1.
         -2   -1    0    0    0  501 -0.00000000000E+00 -0.00000000000E+00 -0.55468379143E+02  0.55468379201E+02  0.25500000000E-02 0. -1.
    5000001    1    1    2    0    0  0.27870202159E+02 -0.11266700600E+03  0.13324796822E+04  0.13476637956E+04  0.16500000000E+03 0.  0.
   -5000001    1    1    2    0    0 -0.27870202159E+02  0.11266700600E+03  0.16462748051E+03  0.26038012548E+03  0.16500000000E+03 0.  0.
<mgrwt>
<rscale>  0 0.58692026E+03</rscale>
<asrwt>0</asrwt>
<pdfrwt beam="1">  1        2 0.23885778E+00 0.58692026E+03</pdfrwt>
<pdfrwt beam="2">  1       -2 0.85335967E-02 0.58692026E+03</pdfrwt>
<totfact> 0.10733005E+03</totfact>
</mgrwt>
</event>
<event>
 4    1  0.9050888E-005  0.9187635E+03  0.7818608E-02  0.9402425E-01
         -2   -1    0    0    0  501 -0.00000000000E+00  0.00000000000E+00  0.52955804326E+02  0.52955804388E+02  0.25500000000E-02 0. -1.
          2   -1    0    0  501    0  0.00000000000E+00 -0.00000000000E+00 -0.39850508404E+04  0.39850508404E+04  0.25500000000E-02 0.  1.
    5000001    1    1    2    0    0  0.40105404959E+03 -0.14446711130E+03 -0.21670445896E+04  0.22147285048E+04  0.16500000000E+03 0.  0.
   -5000001    1    1    2    0    0 -0.40105404959E+03  0.14446711130E+03 -0.17650504465E+04  0.18232781400E+04  0.16500000000E+03 0.  0.
<mgrwt>
<rscale>  0 0.91876346E+03</rscale>
<asrwt>0</asrwt>
<pdfrwt beam="1">  1        2 0.61308451E+00 0.91876346E+03</pdfrwt>
<pdfrwt beam="2">  1       -2 0.81470500E-02 0.91876346E+03</pdfrwt>
<totfact> 0.36046603E+01</totfact>
</mgrwt>
</event>
<event>
 4    1  0.9050888E-005  0.3542827E+03  0.7818608E-02  0.1060871E+00
         -2   -1    0    0    0  501 -0.00000000000E+00  0.00000000000E+00  0.42896314218E+02  0.42896314294E+02  0.25500000000E-02 0. -1.
          2   -1    0    0  501    0  0.00000000000E+00 -0.00000000000E+00 -0.73150927857E+03  0.73150927857E+03  0.25500000000E-02 0.  1.
    5000001    1    1    2    0    0 -0.59972567970E+02  0.35841712374E+01 -0.39531188768E+03  0.43255756118E+03  0.16500000000E+03 0.  0.
   -5000001    1    1    2    0    0  0.59972567970E+02 -0.35841712374E+01 -0.29330107667E+03  0.34184803169E+03  0.16500000000E+03 0.  0.
<mgrwt>
<rscale>  0 0.35428267E+03</rscale>
<asrwt>0</asrwt>
<pdfrwt beam="1">  1        2 0.11253988E+00 0.35428267E+03</pdfrwt>
<pdfrwt beam="2">  1       -2 0.65994335E-02 0.35428267E+03</pdfrwt>
<totfact> 0.50955947E+03</totfact>
</mgrwt>
</event>
<event>
 4    1  0.9050888E-005  0.4168380E+03  0.7818608E-02  0.1038100E+00
         -2   -1    0    0    0  501 -0.00000000000E+00  0.00000000000E+00  0.22707800394E+03  0.22707800395E+03  0.25500000000E-02 0. -1.
          2   -1    0    0  501    0  0.00000000000E+00 -0.00000000000E+00 -0.19129324945E+03  0.19129324947E+03  0.25500000000E-02 0.  1.
    5000001    1    1    2    0    0 -0.96295646590E+02 -0.72785913737E+02 -0.22788774312E+02  0.20570602574E+03  0.16500000000E+03 0.  0.
   -5000001    1    1    2    0    0  0.96295646590E+02  0.72785913737E+02  0.58573528798E+02  0.21266522769E+03  0.16500000000E+03 0.  0.
<mgrwt>
<rscale>  0 0.41683805E+03</rscale>
<asrwt>0</asrwt>
<pdfrwt beam="1">  1        2 0.29429731E-01 0.41683805E+03</pdfrwt>
<pdfrwt beam="2">  1       -2 0.34935077E-01 0.41683805E+03</pdfrwt>
<totfact> 0.13911492E+03</totfact>
</mgrwt>
</event>
<event>
 4    1  0.9050888E-005  0.6209664E+03  0.7818608E-02  0.9862838E-01
         -2   -1    0    0    0  501 -0.00000000000E+00  0.00000000000E+00  0.22349727063E+03  0.22349727064E+03  0.25500000000E-02 0. -1.
          2   -1    0    0  501    0  0.00000000000E+00 -0.00000000000E+00 -0.43132429947E+03  0.43132429948E+03  0.25500000000E-02 0.  1.
    5000001    1    1    2    0    0 -0.21795920408E+03 -0.61358276164E+02  0.37186455432E+02  0.28262852857E+03  0.16500000000E+03 0.  0.
   -5000001    1    1    2    0    0  0.21795920408E+03  0.61358276164E+02 -0.24501348428E+03  0.37219304155E+03  0.16500000000E+03 0.  0.
<mgrwt>
<rscale>  0 0.62096636E+03</rscale>
<asrwt>0</asrwt>
<pdfrwt beam="1">  1        2 0.66357584E-01 0.62096636E+03</pdfrwt>
<pdfrwt beam="2">  1       -2 0.34384196E-01 0.62096636E+03</pdfrwt>
<totfact> 0.58246547E+02</totfact>
</mgrwt>
</event>
<event>
 4    1  0.9050888E-005  0.5685795E+03  0.7818608E-02  0.9972827E-01
          2   -1    0    0  501    0  0.00000000000E+00  0.00000000000E+00  0.59266021045E+03  0.59266021045E+03  0.25500000000E-02 0.  1.
         -2   -1    0    0    0  501 -0.00000000000E+00 -0.00000000000E+00 -0.13636930893E+03  0.13636930895E+03  0.25500000000E-02 0. -1.
    5000001    1    1    2    0    0  0.18055497746E+03  0.10733569115E+03  0.10333968492E+03  0.28640031592E+03  0.16500000000E+03 0.  0.
   -5000001    1    1    2    0    0 -0.18055497746E+03 -0.10733569115E+03  0.35295121660E+03  0.44262920348E+03  0.16500000000E+03 0.  0.
<mgrwt>
<rscale>  0 0.56857950E+03</rscale>
<asrwt>0</asrwt>
<pdfrwt beam="1">  1        2 0.91178494E-01 0.56857950E+03</pdfrwt>
<pdfrwt beam="2">  1       -2 0.20979894E-01 0.56857950E+03</pdfrwt>
<totfact> 0.99091621E+02</totfact>
</mgrwt>
</event>
<event>
 4    1  0.9050888E-005  0.4297564E+03  0.7818608E-02  0.1033937E+00
          2   -1    0    0  501    0  0.00000000000E+00  0.00000000000E+00  0.99325305013E+03  0.99325305013E+03  0.25500000000E-02 0.  1.
         -2   -1    0    0    0  501 -0.00000000000E+00 -0.00000000000E+00 -0.46486278597E+02  0.46486278667E+02  0.25500000000E-02 0. -1.
    5000001    1    1    2    0    0  0.76351291340E+02  0.11442797725E+03  0.46144327183E+03  0.50899722473E+03  0.16500000000E+03 0.  0.
   -5000001    1    1    2    0    0 -0.76351291340E+02 -0.11442797725E+03  0.48532349970E+03  0.53074210407E+03  0.16500000000E+03 0.  0.
<mgrwt>
<rscale>  0 0.42975639E+03</rscale>
<asrwt>0</asrwt>
<pdfrwt beam="1">  1        2 0.15280816E+00 0.42975639E+03</pdfrwt>
<pdfrwt beam="2">  1       -2 0.71517352E-02 0.42975639E+03</pdfrwt>
<totfact> 0.29977859E+03</totfact>
</mgrwt>
</event>
<event>
 4    1  0.9050888E-005  0.4726118E+03  0.7818608E-02  0.1021186E+00
         -2   -1    0    0    0  501 -0.00000000000E+00  0.00000000000E+00  0.23750631243E+02  0.23750631380E+02  0.25500000000E-02 0. -1.
          2   -1    0    0  501    0  0.00000000000E+00 -0.00000000000E+00 -0.23511155865E+04  0.23511155865E+04  0.25500000000E-02 0.  1.
    5000001    1    1    2    0    0  0.11116212181E+03 -0.64266440689E+02 -0.17170763079E+04  0.17297581449E+04  0.16500000000E+03 0.  0.
   -5000001    1    1    2    0    0 -0.11116212181E+03  0.64266440689E+02 -0.61028864738E+03  0.64510807300E+03  0.16500000000E+03 0.  0.
<mgrwt>
<rscale>  0 0.47261180E+03</rscale>
<asrwt>0</asrwt>
<pdfrwt beam="1">  1        2 0.36170991E+00 0.47261180E+03</pdfrwt>
<pdfrwt beam="2">  1       -2 0.36539451E-02 0.47261180E+03</pdfrwt>
<totfact> 0.14947860E+03</totfact>
</mgrwt>
</event>
<event>
 4    1  0.9050888E-005  0.1058421E+04  0.7818608E-02  0.9246693E-01
          2   -1    0    0  501    0  0.00000000000E+00  0.00000000000E+00  0.42373746202E+04  0.42373746202E+04  0.25500000000E-02 0.  1.
         -2   -1    0    0    0  501 -0.00000000000E+00 -0.00000000000E+00 -0.66093647553E+02  0.66093647603E+02  0.25500000000E-02 0. -1.
    5000001    1    1    2    0    0 -0.41878176520E+03  0.24718567268E+03  0.26056926886E+04  0.26558121754E+04  0.16500000000E+03 0.  0.
   -5000001    1    1    2    0    0  0.41878176520E+03 -0.24718567268E+03  0.15655882840E+04  0.16476560923E+04  0.16500000000E+03 0.  0.
<mgrwt>
<rscale>  0 0.10584206E+04</rscale>
<asrwt>0</asrwt>
<pdfrwt beam="1">  1        2 0.65190349E+00 0.10584206E+04</pdfrwt>
<pdfrwt beam="2">  1       -2 0.10168258E-01 0.10584206E+04</pdfrwt>
<totfact> 0.15273652E+01</totfact>
</mgrwt>
</event>
<event>
 4    1  0.9050888E-005  0.1006113E+04  0.7818608E-02  0.9301865E-01
         -2   -1    0    0    0  501 -0.00000000000E+00  0.00000000000E+00  0.29160776785E+03  0.29160776786E+03  0.25500000000E-02 0. -1.
          2   -1    0    0  501    0  0.00000000000E+00 -0.00000000000E+00 -0.86783008854E+03  0.86783008855E+03  0.25500000000E-02 0.  1.
    5000001    1    1    2    0    0  0.19957781663E+03 -0.41519027691E+03 -0.15358823112E+03  0.51286315492E+03  0.16500000000E+03 0.  0.
   -5000001    1    1    2    0    0 -0.19957781663E+03  0.41519027691E+03 -0.42263408957E+03  0.64657470149E+03  0.16500000000E+03 0.  0.
<mgrwt>
<rscale>  0 0.10061133E+04</rscale>
<asrwt>0</asrwt>
<pdfrwt beam="1">  1        2 0.13351232E+00 0.10061133E+04</pdfrwt>
<pdfrwt beam="2">  1       -2 0.44862734E-01 0.10061133E+04</pdfrwt>
<totfact> 0.14500383E+02</totfact>
</mgrwt>
</event>
<event>
 4    1  0.9050888E-005  0.7201995E+03  0.7818608E-02  0.9683299E-01
         -2   -1    0    0    0  501 -0.00000000000E+00  0.00000000000E+00  0.86824221653E+02  0.86824221691E+02  0.25500000000E-02 0. -1.
          2   -1    0    0  501    0  0.00000000000E+00 -0.00000000000E+00 -0.14934984706E+04  0.14934984706E+04  0.25500000000E-02 0.  1.
    5000001    1    1    2    0    0 -0.18823938204E+03  0.25804522757E+03 -0.65807749365E+03  0.74987491762E+03  0.16500000000E+03 0.  0.
   -5000001    1    1    2    0    0  0.18823938204E+03 -0.25804522757E+03 -0.74859675527E+03  0.83044777465E+03  0.16500000000E+03 0.  0.
<mgrwt>
<rscale>  0 0.72019953E+03</rscale>
<asrwt>0</asrwt>
<pdfrwt beam="1">  1        2 0.22976898E+00 0.72019953E+03</pdfrwt>
<pdfrwt beam="2">  1       -2 0.13357574E-01 0.72019953E+03</pdfrwt>
<totfact> 0.55269177E+02</totfact>
</mgrwt>
</event>
<event>
 4    1  0.9050888E-005  0.4682419E+03  0.7818608E-02  0.1022418E+00
          2   -1    0    0  501    0  0.00000000000E+00  0.00000000000E+00  0.15694118230E+04  0.15694118231E+04  0.25500000000E-02 0.  1.
         -2   -1    0    0    0  501 -0.00000000000E+00 -0.00000000000E+00 -0.34925585429E+02  0.34925585522E+02  0.25500000000E-02 0. -1.
    5000001    1    1    2    0    0  0.14812551410E+03 -0.74621416741E+02  0.73696288013E+03  0.77320683549E+03  0.16500000000E+03 0.  0.
   -5000001    1    1    2    0    0 -0.14812551410E+03  0.74621416741E+02  0.79752335749E+03  0.83113057308E+03  0.16500000000E+03 0.  0.
<mgrwt>
<rscale>  0 0.46824193E+03</rscale>
<asrwt>0</asrwt>
<pdfrwt beam="1">  1        2 0.24144797E+00 0.46824193E+03</pdfrwt>
<pdfrwt beam="2">  1       -2 0.53731671E-02 0.46824193E+03</pdfrwt>
<totfact> 0.21860462E+03</totfact>
</mgrwt>
</event>
<event>
 4    1  0.9050888E-005  0.3777222E+03  0.7818608E-02  0.1051779E+00
          2   -1    0    0  501    0  0.00000000000E+00  0.00000000000E+00  0.69259986567E+03  0.69259986567E+03  0.25500000000E-02 0.  1.
         -2   -1    0    0    0  501 -0.00000000000E+00 -0.00000000000E+00 -0.51499448121E+02  0.51499448184E+02  0.25500000000E-02 0. -1.
    5000001    1    1    2    0    0  0.66684172119E+02  0.64600221544E+01  0.44443890224E+03  0.47878956602E+03  0.16500000000E+03 0.  0.
   -5000001    1    1    2    0    0 -0.66684172119E+02 -0.64600221544E+01  0.19666151530E+03  0.26530974784E+03  0.16500000000E+03 0.  0.
<mgrwt>
<rscale>  0 0.37772218E+03</rscale>
<asrwt>0</asrwt>
<pdfrwt beam="1">  1        2 0.10655382E+00 0.37772218E+03</pdfrwt>
<pdfrwt beam="2">  1       -2 0.79229926E-02 0.37772218E+03</pdfrwt>
<totfact> 0.41001957E+03</totfact>
</mgrwt>
</event>
<event>
 4    1  0.9050888E-005  0.7710983E+03  0.7818608E-02  0.9602820E-01
         -2   -1    0    0    0  501 -0.00000000000E+00  0.00000000000E+00  0.22676193974E+03  0.22676193976E+03  0.25500000000E-02 0. -1.
          2   -1    0    0  501    0  0.00000000000E+00 -0.00000000000E+00 -0.65552516440E+03  0.65552516440E+03  0.25500000000E-02 0.  1.
    5000001    1    1    2    0    0 -0.34782276086E+03  0.68224403002E+01 -0.23714906300E+03  0.45220780262E+03  0.16500000000E+03 0.  0.
   -5000001    1    1    2    0    0  0.34782276086E+03 -0.68224403002E+01 -0.19161416165E+03  0.43007930154E+03  0.16500000000E+03 0.  0.
<mgrwt>
<rscale>  0 0.77109833E+03</rscale>
<asrwt>0</asrwt>
<pdfrwt beam="1">  1        2 0.10085002E+00 0.77109833E+03</pdfrwt>
<pdfrwt beam="2">  1       -2 0.34886452E-01 0.77109833E+03</pdfrwt>
<totfact> 0.34498547E+02</totfact>
</mgrwt>
</event>
<event>
 4    1  0.9050888E-005  0.4846991E+03  0.7818608E-02  0.1017852E+00
          2   -1    0    0  501    0  0.00000000000E+00  0.00000000000E+00  0.11625625283E+04  0.11625625283E+04  0.25500000000E-02 0.  1.
         -2   -1    0    0    0  501 -0.00000000000E+00 -0.00000000000E+00 -0.50520558571E+02  0.50520558635E+02  0.25500000000E-02 0. -1.
    5000001    1    1    2    0    0  0.10501041118E+03 -0.10718734938E+03  0.31869443567E+03  0.38898259299E+03  0.16500000000E+03 0.  0.
   -5000001    1    1    2    0    0 -0.10501041118E+03  0.10718734938E+03  0.79334753405E+03  0.82410049394E+03  0.16500000000E+03 0.  0.
<mgrwt>
<rscale>  0 0.48469912E+03</rscale>
<asrwt>0</asrwt>
<pdfrwt beam="1">  1        2 0.17885578E+00 0.48469912E+03</pdfrwt>
<pdfrwt beam="2">  1       -2 0.77723936E-02 0.48469912E+03</pdfrwt>
<totfact> 0.20751312E+03</totfact>
</mgrwt>
</event>
<event>
 4    1  0.9050888E-005  0.5965120E+03  0.7818608E-02  0.9912669E-01
         -2   -1    0    0    0  501 -0.00000000000E+00  0.00000000000E+00  0.31937030907E+02  0.31937031009E+02  0.25500000000E-02 0. -1.
          2   -1    0    0  501    0  0.00000000000E+00 -0.00000000000E+00 -0.27853758340E+04  0.27853758340E+04  0.25500000000E-02 0.  1.
    5000001    1    1    2    0    0 -0.21233521940E+03 -0.10092071030E+03 -0.17563363421E+04  0.17796667052E+04  0.16500000000E+03 0.  0.
   -5000001    1    1    2    0    0  0.21233521940E+03  0.10092071030E+03 -0.99710246100E+03  0.10376461598E+04  0.16500000000E+03 0.  0.
<mgrwt>
<rscale>  0 0.59651198E+03</rscale>
<asrwt>0</asrwt>
<pdfrwt beam="1">  1        2 0.42851917E+00 0.59651198E+03</pdfrwt>
<pdfrwt beam="2">  1       -2 0.49133916E-02 0.59651198E+03</pdfrwt>
<totfact> 0.53233704E+02</totfact>
</mgrwt>
</event>
<event>
 4    1  0.9050888E-005  0.7999838E+03  0.7818608E-02  0.9560041E-01
         -2   -1    0    0    0  501 -0.00000000000E+00  0.00000000000E+00  0.14370084604E+03  0.14370084606E+03  0.25500000000E-02 0. -1.
          2   -1    0    0  501    0  0.00000000000E+00 -0.00000000000E+00 -0.11133791244E+04  0.11133791244E+04  0.25500000000E-02 0.  1.
    5000001    1    1    2    0    0 -0.28041645136E+03  0.22451933168E+03 -0.38891782461E+03  0.55454881732E+03  0.16500000000E+03 0.  0.
   -5000001    1    1    2    0    0  0.28041645136E+03 -0.22451933168E+03 -0.58076045375E+03  0.70253115314E+03  0.16500000000E+03 0.  0.
<mgrwt>
<rscale>  0 0.79998381E+03</rscale>
<asrwt>0</asrwt>
<pdfrwt beam="1">  1        2 0.17128909E+00 0.79998381E+03</pdfrwt>
<pdfrwt beam="2">  1       -2 0.22107823E-01 0.79998381E+03</pdfrwt>
<totfact> 0.38413055E+02</totfact>
</mgrwt>
</event>
<event>
 4    1  0.9050888E-005  0.4467058E+03  0.7818608E-02  0.1028709E+00
         -2   -1    0    0    0  501 -0.00000000000E+00  0.00000000000E+00  0.12099396099E+03  0.12099396102E+03  0.25500000000E-02 0. -1.
          2   -1    0    0  501    0  0.00000000000E+00 -0.00000000000E+00 -0.41230580910E+03  0.41230580910E+03  0.25500000000E-02 0.  1.
    5000001    1    1    2    0    0  0.53735595480E+02  0.13764507561E+03 -0.18000546308E+03  0.28541311778E+03  0.16500000000E+03 0.  0.
   -5000001    1    1    2    0    0 -0.53735595480E+02 -0.13764507561E+03 -0.11130638502E+03  0.24788665234E+03  0.16500000000E+03 0.  0.
<mgrwt>
<rscale>  0 0.44670578E+03</rscale>
<asrwt>0</asrwt>
<pdfrwt beam="1">  1        2 0.63431662E-01 0.44670578E+03</pdfrwt>
<pdfrwt beam="2">  1       -2 0.18614456E-01 0.44670578E+03</pdfrwt>
<totfact> 0.18480334E+03</totfact>
</mgrwt>
</event>
<event>
 4    1  0.9050888E-005  0.5152246E+03  0.7818608E-02  0.1009880E+00
         -2   -1    0    0    0  501 -0.00000000000E+00  0.00000000000E+00  0.19570162924E+03  0.19570162925E+03  0.25500000000E-02 0. -1.
          2   -1    0    0  501    0  0.00000000000E+00 -0.00000000000E+00 -0.33910854006E+03  0.33910854006E+03  0.25500000000E-02 0.  1.
    5000001    1    1    2    0    0 -0.15079414436E+03  0.12237585510E+03 -0.11087894841E+03  0.27790981466E+03  0.16500000000E+03 0.  0.
   -5000001    1    1    2    0    0  0.15079414436E+03 -0.12237585510E+03 -0.32527962406E+02  0.25690035466E+03  0.16500000000E+03 0.  0.
<mgrwt>
<rscale>  0 0.51522459E+03</rscale>
<asrwt>0</asrwt>
<pdfrwt beam="1">  1        2 0.52170545E-01 0.51522459E+03</pdfrwt>
<pdfrwt beam="2">  1       -2 0.30107943E-01 0.51522459E+03</pdfrwt>
<totfact> 0.97700134E+02</totfact>
</mgrwt>
</event>
<event>
 4    1  0.9050888E-005  0.1006064E+04  0.7818608E-02  0.9301919E-01
         -2   -1    0    0    0  501 -0.00000000000E+00  0.00000000000E+00  0.11726712657E+03  0.11726712659E+03  0.25500000000E-02 0. -1.
          2   -1    0    0  501    0  0.00000000000E+00 -0.00000000000E+00 -0.21578182943E+04  0.21578182943E+04  0.25500000000E-02 0.  1.
    5000001    1    1    2    0    0 -0.16599339428E+03 -0.43538612504E+03 -0.80933343627E+03  0.94834618990E+03  0.16500000000E+03 0.  0.
   -5000001    1    1    2    0    0  0.16599339428E+03  0.43538612504E+03 -0.12312177315E+04  0.13267392310E+04  0.16500000000E+03 0.  0.
<mgrwt>
<rscale>  0 0.10060639E+04</rscale>
<asrwt>0</asrwt>
<pdfrwt beam="1">  1        2 0.33197202E+00 0.10060639E+04</pdfrwt>
<pdfrwt beam="2">  1       -2 0.18041098E-01 0.10060639E+04</pdfrwt>
<totfact> 0.14011233E+02</totfact>
</mgrwt>
</event>
<event>
 4    1  0.9050888E-005  0.3502666E+03  0.7818608E-02  0.1062506E+00
          2   -1    0    0  501    0  0.00000000000E+00  0.00000000000E+00  0.11341674968E+04  0.11341674968E+04  0.25500000000E-02 0.  1.
         -2   -1    0    0    0  501 -0.00000000000E+00 -0.00000000000E+00 -0.27043334589E+02  0.27043334710E+02  0.25500000000E-02 0. -1.
    5000001    1    1    2    0    0 -0.30106433977E+02  0.45452799353E+02  0.48136051276E+03  0.51176683908E+03  0.16500000000E+03 0.  0.
   -5000001    1    1    2    0    0  0.30106433977E+02 -0.45452799353E+02  0.62576364948E+03  0.64944399246E+03  0.16500000000E+03 0.  0.
<mgrwt>
<rscale>  0 0.35026659E+03</rscale>
<asrwt>0</asrwt>
<pdfrwt beam="1">  1        2 0.17448731E+00 0.35026659E+03</pdfrwt>
<pdfrwt beam="2">  1       -2 0.41605129E-02 0.35026659E+03</pdfrwt>
<totfact> 0.56707933E+03</totfact>
</mgrwt>
</event>
<event>
 4    1  0.9050888E-005  0.6287712E+03  0.7818608E-02  0.9847450E-01
         -2   -1    0    0    0  501 -0.00000000000E+00  0.00000000000E+00  0.36838965090E+02  0.36838965178E+02  0.25500000000E-02 0. -1.
          2   -1    0    0  501    0  0.00000000000E+00 -0.00000000000E+00 -0.26829830327E+04  0.26829830327E+04  0.25500000000E-02 0.  1.
    5000001    1    1    2    0    0 -0.95446408175E+02 -0.18251572990E+03 -0.58402070157E+03  0.64088001089E+03  0.16500000000E+03 0.  0.
   -5000001    1    1    2    0    0  0.95446408175E+02  0.18251572990E+03 -0.20621233660E+04  0.20789419870E+04  0.16500000000E+03 0.  0.
<mgrwt>
<rscale>  0 0.62877124E+03</rscale>
<asrwt>0</asrwt>
<pdfrwt beam="1">  1        2 0.41276647E+00 0.62877124E+03</pdfrwt>
<pdfrwt beam="2">  1       -2 0.56675352E-02 0.62877124E+03</pdfrwt>
<totfact> 0.48734126E+02</totfact>
</mgrwt>
</event>
<event>
 4    1  0.9050888E-005  0.8949225E+03  0.7818608E-02  0.9431951E-01
          2   -1    0    0  501    0  0.00000000000E+00  0.00000000000E+00  0.60987318106E+03  0.60987318106E+03  0.25500000000E-02 0.  1.
         -2   -1    0    0    0  501 -0.00000000000E+00 -0.00000000000E+00 -0.32830034820E+03  0.32830034821E+03  0.25500000000E-02 0. -1.
    5000001    1    1    2    0    0  0.33469793482E+03 -0.23488780605E+03  0.60937098954E+02  0.44512169014E+03  0.16500000000E+03 0.  0.
   -5000001    1    1    2    0    0 -0.33469793482E+03  0.23488780605E+03  0.22063573390E+03  0.49305183914E+03  0.16500000000E+03 0.  0.
<mgrwt>
<rscale>  0 0.89492252E+03</rscale>
<asrwt>0</asrwt>
<pdfrwt beam="1">  1        2 0.93826643E-01 0.89492252E+03</pdfrwt>
<pdfrwt beam="2">  1       -2 0.50507746E-01 0.89492252E+03</pdfrwt>
<totfact> 0.18088293E+02</totfact>
</mgrwt>
</event>
<event>
 4    1  0.9050888E-005  0.7744710E+03  0.7818608E-02  0.9597723E-01
          2   -1    0    0  501    0  0.00000000000E+00  0.00000000000E+00  0.31458340699E+04  0.31458340699E+04  0.25500000000E-02 0.  1.
         -2   -1    0    0    0  501 -0.00000000000E+00 -0.00000000000E+00 -0.47666637530E+02  0.47666637599E+02  0.25500000000E-02 0. -1.
    5000001    1    1    2    0    0 -0.27835894237E+03 -0.74765232171E+02  0.72797863279E+03  0.80015712866E+03  0.16500000000E+03 0.  0.
   -5000001    1    1    2    0    0  0.27835894237E+03  0.74765232171E+02  0.23701887996E+04  0.23933435789E+04  0.16500000000E+03 0.  0.
<mgrwt>
<rscale>  0 0.77447100E+03</rscale>
<asrwt>0</asrwt>
<pdfrwt beam="1">  1        2 0.48397451E+00 0.77447100E+03</pdfrwt>
<pdfrwt beam="2">  1       -2 0.73333283E-02 0.77447100E+03</pdfrwt>
<totfact> 0.16818447E+02</totfact>
</mgrwt>
</event>
<event>
 4    1  0.9050888E-005  0.8185210E+03  0.7818608E-02  0.9533589E-01
         -2   -1    0    0    0  501 -0.00000000000E+00  0.00000000000E+00  0.69485504333E+02  0.69485504380E+02  0.25500000000E-02 0. -1.
          2   -1    0    0  501    0  0.00000000000E+00 -0.00000000000E+00 -0.24104908453E+04  0.24104908453E+04  0.25500000000E-02 0.  1.
    5000001    1    1    2    0    0 -0.74858301755E+02 -0.32969091049E+03 -0.16587590218E+04  0.17008839920E+04  0.16500000000E+03 0.  0.
   -5000001    1    1    2    0    0  0.74858301755E+02  0.32969091049E+03 -0.68224631918E+03  0.77909235770E+03  0.16500000000E+03 0.  0.
<mgrwt>
<rscale>  0 0.81852104E+03</rscale>
<asrwt>0</asrwt>
<pdfrwt beam="1">  1        2 0.37084468E+00 0.81852104E+03</pdfrwt>
<pdfrwt beam="2">  1       -2 0.10690079E-01 0.81852104E+03</pdfrwt>
<totfact> 0.24826795E+02</totfact>
</mgrwt>
</event>
<event>
 4    1  0.9050888E-005  0.6269384E+03  0.7818608E-02  0.9851042E-01
          2   -1    0    0  501    0  0.00000000000E+00  0.00000000000E+00  0.86400078667E+03  0.86400078667E+03  0.25500000000E-02 0.  1.
         -2   -1    0    0    0  501 -0.00000000000E+00 -0.00000000000E+00 -0.11373016009E+03  0.11373016012E+03  0.25500000000E-02 0. -1.
    5000001    1    1    2    0    0  0.20433213670E+03  0.16478892956E+03  0.30314409672E+03  0.43362236655E+03  0.16500000000E+03 0.  0.
   -5000001    1    1    2    0    0 -0.20433213670E+03 -0.16478892956E+03  0.44712652985E+03  0.54410858024E+03  0.16500000000E+03 0.  0.
<mgrwt>
<rscale>  0 0.62693843E+03</rscale>
<asrwt>0</asrwt>
<pdfrwt beam="1">  1        2 0.13292320E+00 0.62693843E+03</pdfrwt>
<pdfrwt beam="2">  1       -2 0.17496948E-01 0.62693843E+03</pdfrwt>
<totfact> 0.84099670E+02</totfact>
</mgrwt>
</event>
<event>
 4    1  0.9050888E-005  0.5472890E+03  0.7818608E-02  0.1002123E+00
         -2   -1    0    0    0  501 -0.00000000000E+00  0.00000000000E+00  0.15741036145E+03  0.15741036147E+03  0.25500000000E-02 0. -1.
          2   -1    0    0  501    0  0.00000000000E+00 -0.00000000000E+00 -0.47570768954E+03  0.47570768955E+03  0.25500000000E-02 0.  1.
    5000001    1    1    2    0    0  0.76953105070E+02 -0.72924099633E+01  0.77029039533E+02  0.19782171912E+03  0.16500000000E+03 0.  0.
   -5000001    1    1    2    0    0 -0.76953105070E+02  0.72924099633E+01 -0.39532636763E+03  0.43529633190E+03  0.16500000000E+03 0.  0.
<mgrwt>
<rscale>  0 0.54728903E+03</rscale>
<asrwt>0</asrwt>
<pdfrwt beam="1">  1        2 0.73185798E-01 0.54728903E+03</pdfrwt>
<pdfrwt beam="2">  1       -2 0.24216979E-01 0.54728903E+03</pdfrwt>
<totfact> 0.99329871E+02</totfact>
</mgrwt>
</event>
<event>
 4    1  0.9050888E-005  0.5636680E+03  0.7818608E-02  0.9983789E-01
         -2   -1    0    0    0  501 -0.00000000000E+00  0.00000000000E+00  0.33099319368E+03  0.33099319369E+03  0.25500000000E-02 0. -1.
          2   -1    0    0  501    0  0.00000000000E+00 -0.00000000000E+00 -0.23997594246E+03  0.23997594247E+03  0.25500000000E-02 0.  1.
    5000001    1    1    2    0    0  0.10643475293E+03 -0.10385442552E+03 -0.13020675032E+03  0.25747406891E+03  0.16500000000E+03 0.  0.
   -5000001    1    1    2    0    0 -0.10643475293E+03  0.10385442552E+03  0.22122400155E+03  0.31349506725E+03  0.16500000000E+03 0.  0.
<mgrwt>
<rscale>  0 0.56366800E+03</rscale>
<asrwt>0</asrwt>
<pdfrwt beam="1">  1        2 0.36919376E-01 0.56366800E+03</pdfrwt>
<pdfrwt beam="2">  1       -2 0.50922029E-01 0.56366800E+03</pdfrwt>
<totfact> 0.51775178E+02</totfact>
</mgrwt>
</event>
<event>
 4    1  0.9050888E-005  0.7244712E+03  0.7818608E-02  0.9676275E-01
          2   -1    0    0  501    0  0.00000000000E+00  0.00000000000E+00  0.86619373513E+03  0.86619373513E+03  0.25500000000E-02 0.  1.
         -2   -1    0    0    0  501 -0.00000000000E+00 -0.00000000000E+00 -0.15148416180E+03  0.15148416182E+03  0.25500000000E-02 0. -1.
    5000001    1    1    2    0    0  0.15086085392E+03  0.25149430282E+03  0.16899024338E+03  0.37655156878E+03  0.16500000000E+03 0.  0.
   -5000001    1    1    2    0    0 -0.15086085392E+03 -0.25149430282E+03  0.54571932995E+03  0.64112632817E+03  0.16500000000E+03 0.  0.
<mgrwt>
<rscale>  0 0.72447121E+03</rscale>
<asrwt>0</asrwt>
<pdfrwt beam="1">  1        2 0.13326058E+00 0.72447121E+03</pdfrwt>
<pdfrwt beam="2">  1       -2 0.23305255E-01 0.72447121E+03</pdfrwt>
<totfact> 0.50603615E+02</totfact>
</mgrwt>
</event>
<event>
 4    1  0.9050888E-005  0.4728017E+03  0.7818608E-02  0.1021132E+00
          2   -1    0    0  501    0  0.00000000000E+00  0.00000000000E+00  0.46267574430E+03  0.46267574430E+03  0.25500000000E-02 0.  1.
         -2   -1    0    0    0  501 -0.00000000000E+00 -0.00000000000E+00 -0.12078730662E+03  0.12078730665E+03  0.25500000000E-02 0. -1.
    5000001    1    1    2    0    0 -0.13281572413E+03 -0.88848163758E+02  0.10194363823E+03  0.25129965809E+03  0.16500000000E+03 0.  0.
   -5000001    1    1    2    0    0  0.13281572413E+03  0.88848163758E+02  0.23994479944E+03  0.33216339286E+03  0.16500000000E+03 0.  0.
<mgrwt>
<rscale>  0 0.47280168E+03</rscale>
<asrwt>0</asrwt>
<pdfrwt beam="1">  1        2 0.71180886E-01 0.47280168E+03</pdfrwt>
<pdfrwt beam="2">  1       -2 0.18582662E-01 0.47280168E+03</pdfrwt>
<totfact> 0.16296413E+03</totfact>
</mgrwt>
</event>
<event>
 4    1  0.9050888E-005  0.4504445E+03  0.7818608E-02  0.1027590E+00
          2   -1    0    0  501    0  0.00000000000E+00  0.00000000000E+00  0.42541013686E+03  0.42541013687E+03  0.25500000000E-02 0.  1.
         -2   -1    0    0    0  501 -0.00000000000E+00 -0.00000000000E+00 -0.11923800605E+03  0.11923800608E+03  0.25500000000E-02 0. -1.
    5000001    1    1    2    0    0  0.16326562337E+02  0.11516875921E+03  0.32356158766E+02  0.20445615850E+03  0.16500000000E+03 0.  0.
   -5000001    1    1    2    0    0 -0.16326562337E+02 -0.11516875921E+03  0.27381597204E+03  0.34019198445E+03  0.16500000000E+03 0.  0.
<mgrwt>
<rscale>  0 0.45044448E+03</rscale>
<asrwt>0</asrwt>
<pdfrwt beam="1">  1        2 0.65447713E-01 0.45044448E+03</pdfrwt>
<pdfrwt beam="2">  1       -2 0.18344309E-01 0.45044448E+03</pdfrwt>
<totfact> 0.18301730E+03</totfact>
</mgrwt>
</event>
<event>
 4    1  0.9050888E-005  0.4223693E+03  0.7818608E-02  0.1036298E+00
          2   -1    0    0  501    0  0.00000000000E+00  0.00000000000E+00  0.56649354174E+03  0.56649354175E+03  0.25500000000E-02 0.  1.
         -2   -1    0    0    0  501 -0.00000000000E+00 -0.00000000000E+00 -0.78728099154E+02  0.78728099196E+02  0.25500000000E-02 0. -1.
    5000001    1    1    2    0    0 -0.91273616930E+02 -0.90927450365E+02  0.28641781143E+03  0.35476589052E+03  0.16500000000E+03 0.  0.
   -5000001    1    1    2    0    0  0.91273616930E+02  0.90927450365E+02  0.20134763116E+03  0.29045575042E+03  0.16500000000E+03 0.  0.
<mgrwt>
<rscale>  0 0.42236932E+03</rscale>
<asrwt>0</asrwt>
<pdfrwt beam="1">  1        2 0.87152849E-01 0.42236932E+03</pdfrwt>
<pdfrwt beam="2">  1       -2 0.12112016E-01 0.42236932E+03</pdfrwt>
<totfact> 0.26431016E+03</totfact>
</mgrwt>
</event>
<event>
 4    1  0.9050888E-005  0.5546724E+03  0.7818608E-02  0.1000418E+00
         -2   -1    0    0    0  501 -0.00000000000E+00  0.00000000000E+00  0.10747509070E+03  0.10747509073E+03  0.25500000000E-02 0. -1.
          2   -1    0    0  501    0  0.00000000000E+00 -0.00000000000E+00 -0.71565764390E+03  0.71565764391E+03  0.25500000000E-02 0.  1.
    5000001    1    1    2    0    0 -0.87651309310E+02 -0.18652644406E+03 -0.43014818205E+03  0.50470518610E+03  0.16500000000E+03 0.  0.
   -5000001    1    1    2    0    0  0.87651309310E+02  0.18652644406E+03 -0.17803437115E+03  0.31842754854E+03  0.16500000000E+03 0.  0.
<mgrwt>
<rscale>  0 0.55467241E+03</rscale>
<asrwt>0</asrwt>
<pdfrwt beam="1">  1        2 0.11010117E+00 0.55467241E+03</pdfrwt>
<pdfrwt beam="2">  1       -2 0.16534630E-01 0.55467241E+03</pdfrwt>
<totfact> 0.11864893E+03</totfact>
</mgrwt>
</event>
<event>
 4    1  0.9050888E-005  0.7184889E+03  0.7818608E-02  0.9686126E-01
          2   -1    0    0  501    0  0.00000000000E+00  0.00000000000E+00  0.54149136788E+03  0.54149136789E+03  0.25500000000E-02 0.  1.
         -2   -1    0    0    0  501 -0.00000000000E+00 -0.00000000000E+00 -0.23833544535E+03  0.23833544536E+03  0.25500000000E-02 0. -1.
    5000001    1    1    2    0    0 -0.91979960917E+02  0.30490221227E+03  0.12971066280E+03  0.38141254345E+03  0.16500000000E+03 0.  0.
   -5000001    1    1    2    0    0  0.91979960917E+02 -0.30490221227E+03  0.17344525973E+03  0.39841426980E+03  0.16500000000E+03 0.  0.
<mgrwt>
<rscale>  0 0.71848893E+03</rscale>
<asrwt>0</asrwt>
<pdfrwt beam="1">  1        2 0.83306364E-01 0.71848893E+03</pdfrwt>
<pdfrwt beam="2">  1       -2 0.36666992E-01 0.71848893E+03</pdfrwt>
<totfact> 0.39564848E+02</totfact>
</mgrwt>
</event>
<event>
 4    1  0.9050888E-005  0.4866613E+03  0.7818608E-02  0.1017320E+00
          2   -1    0    0  501    0  0.00000000000E+00  0.00000000000E+00  0.30539550907E+03  0.30539550908E+03  0.25500000000E-02 0.  1.
         -2   -1    0    0    0  501 -0.00000000000E+00 -0.00000000000E+00 -0.19387908100E+03  0.19387908101E+03  0.25500000000E-02 0. -1.
    5000001    1    1    2    0    0 -0.83180775235E+02 -0.12375961396E+03  0.15705595719E+03  0.27226284562E+03  0.16500000000E+03 0.  0.
   -5000001    1    1    2    0    0  0.83180775235E+02  0.12375961396E+03 -0.45539529117E+02  0.22701174447E+03  0.16500000000E+03 0.  0.
<mgrwt>
<rscale>  0 0.48666128E+03</rscale>
<asrwt>0</asrwt>
<pdfrwt beam="1">  1        2 0.46983924E-01 0.48666128E+03</pdfrwt>
<pdfrwt beam="2">  1       -2 0.29827551E-01 0.48666128E+03</pdfrwt>
<totfact> 0.11153338E+03</totfact>
</mgrwt>
</event>
<event>
 4    1  0.9050888E-005  0.3993049E+03  0.7818608E-02  0.1044021E+00
          2   -1    0    0  501    0  0.00000000000E+00  0.00000000000E+00  0.14517153485E+03  0.14517153487E+03  0.25500000000E-02 0.  1.
         -2   -1    0    0    0  501 -0.00000000000E+00 -0.00000000000E+00 -0.27457936584E+03  0.27457936585E+03  0.25500000000E-02 0. -1.
    5000001    1    1    2    0    0 -0.10656220982E+03 -0.35041134470E+02 -0.72336721053E+02  0.21222861937E+03  0.16500000000E+03 0.  0.
   -5000001    1    1    2    0    0  0.10656220982E+03  0.35041134470E+02 -0.57071109939E+02  0.20752228135E+03  0.16500000000E+03 0.  0.
<mgrwt>
<rscale>  0 0.39930494E+03</rscale>
<asrwt>0</asrwt>
<pdfrwt beam="1">  1        2 0.22334082E-01 0.39930494E+03</pdfrwt>
<pdfrwt beam="2">  1       -2 0.42242979E-01 0.39930494E+03</pdfrwt>
<totfact> 0.13203352E+03</totfact>
</mgrwt>
</event>
<event>
 4    1  0.9050888E-005  0.4070964E+03  0.7818608E-02  0.1041350E+00
          2   -1    0    0  501    0  0.00000000000E+00  0.00000000000E+00  0.10454441164E+04  0.10454441164E+04  0.25500000000E-02 0.  1.
         -2   -1    0    0    0  501 -0.00000000000E+00 -0.00000000000E+00 -0.39630869736E+02  0.39630869818E+02  0.25500000000E-02 0. -1.
    5000001    1    1    2    0    0  0.83417860422E+02 -0.45370356565E+02  0.69492375829E+03  0.72052830516E+03  0.16500000000E+03 0.  0.
   -5000001    1    1    2    0    0 -0.83417860422E+02  0.45370356565E+02  0.31088948835E+03  0.36454668104E+03  0.16500000000E+03 0.  0.
<mgrwt>
<rscale>  0 0.40709635E+03</rscale>
<asrwt>0</asrwt>
<pdfrwt beam="1">  1        2 0.16083753E+00 0.40709635E+03</pdfrwt>
<pdfrwt beam="2">  1       -2 0.60970578E-02 0.40709635E+03</pdfrwt>
<totfact> 0.35696231E+03</totfact>
</mgrwt>
</event>
<event>
 4    1  0.9050888E-005  0.5345102E+03  0.7818608E-02  0.1005144E+00
         -2   -1    0    0    0  501 -0.00000000000E+00  0.00000000000E+00  0.97143592277E+02  0.97143592311E+02  0.25500000000E-02 0. -1.
          2   -1    0    0  501    0  0.00000000000E+00 -0.00000000000E+00 -0.73525473944E+03  0.73525473945E+03  0.25500000000E-02 0.  1.
    5000001    1    1    2    0    0 -0.45768150061E+02 -0.18804847654E+03 -0.19117265756E+03  0.31816495421E+03  0.16500000000E+03 0.  0.
   -5000001    1    1    2    0    0  0.45768150061E+02  0.18804847654E+03 -0.44693848961E+03  0.51423337755E+03  0.16500000000E+03 0.  0.
<mgrwt>
<rscale>  0 0.53451019E+03</rscale>
<asrwt>0</asrwt>
<pdfrwt beam="1">  1        2 0.11311611E+00 0.53451019E+03</pdfrwt>
<pdfrwt beam="2">  1       -2 0.14945168E-01 0.53451019E+03</pdfrwt>
<totfact> 0.13604919E+03</totfact>
</mgrwt>
</event>
<event>
 4    1  0.9050888E-005  0.4810053E+03  0.7818608E-02  0.1018859E+00
         -2   -1    0    0    0  501 -0.00000000000E+00  0.00000000000E+00  0.47654357410E+02  0.47654357478E+02  0.25500000000E-02 0. -1.
          2   -1    0    0  501    0  0.00000000000E+00 -0.00000000000E+00 -0.12137722256E+04  0.12137722256E+04  0.25500000000E-02 0.  1.
    5000001    1    1    2    0    0 -0.12060875708E+03 -0.12624753205E+03 -0.55297189894E+03  0.60289952119E+03  0.16500000000E+03 0.  0.
   -5000001    1    1    2    0    0  0.12060875708E+03  0.12624753205E+03 -0.61314596924E+03  0.65852706188E+03  0.16500000000E+03 0.  0.
<mgrwt>
<rscale>  0 0.48100535E+03</rscale>
<asrwt>0</asrwt>
<pdfrwt beam="1">  1        2 0.18673417E+00 0.48100535E+03</pdfrwt>
<pdfrwt beam="2">  1       -2 0.73314405E-02 0.48100535E+03</pdfrwt>
<totfact> 0.21243867E+03</totfact>
</mgrwt>
</event>
<event>
 4    1  0.9050888E-005  0.5208017E+03  0.7818608E-02  0.1008488E+00
         -2   -1    0    0    0  501 -0.00000000000E+00  0.00000000000E+00  0.43077261966E+02  0.43077262041E+02  0.25500000000E-02 0. -1.
          2   -1    0    0  501    0  0.00000000000E+00 -0.00000000000E+00 -0.15741156288E+04  0.15741156288E+04  0.25500000000E-02 0.  1.
    5000001    1    1    2    0    0 -0.19547667334E+03  0.48228155591E+02 -0.74434305509E+03  0.78854845664E+03  0.16500000000E+03 0.  0.
   -5000001    1    1    2    0    0  0.19547667334E+03 -0.48228155591E+02 -0.78669531178E+03  0.82864443424E+03  0.16500000000E+03 0.  0.
<mgrwt>
<rscale>  0 0.52080166E+03</rscale>
<asrwt>0</asrwt>
<pdfrwt beam="1">  1        2 0.24217159E+00 0.52080166E+03</pdfrwt>
<pdfrwt beam="2">  1       -2 0.66272723E-02 0.52080166E+03</pdfrwt>
<totfact> 0.15640651E+03</totfact>
</mgrwt>
</event>
<event>
 4    1  0.9050888E-005  0.4233808E+03  0.7818608E-02  0.1035972E+00
         -2   -1    0    0    0  501 -0.00000000000E+00  0.00000000000E+00  0.49684538833E+02  0.49684538899E+02  0.25500000000E-02 0. -1.
          2   -1    0    0  501    0  0.00000000000E+00 -0.00000000000E+00 -0.90194710259E+03  0.90194710259E+03  0.25500000000E-02 0.  1.
    5000001    1    1    2    0    0 -0.80877982519E+02 -0.10446849862E+03 -0.40021829051E+03  0.45260865581E+03  0.16500000000E+03 0.  0.
   -5000001    1    1    2    0    0  0.80877982519E+02  0.10446849862E+03 -0.45204427325E+03  0.49902298568E+03  0.16500000000E+03 0.  0.
<mgrwt>
<rscale>  0 0.42338080E+03</rscale>
<asrwt>0</asrwt>
<pdfrwt beam="1">  1        2 0.13876108E+00 0.42338080E+03</pdfrwt>
<pdfrwt beam="2">  1       -2 0.76437759E-02 0.42338080E+03</pdfrwt>
<totfact> 0.30894784E+03</totfact>
</mgrwt>
</event>
<event>
 4    1  0.9050888E-005  0.4012180E+03  0.7818608E-02  0.1043359E+00
          2   -1    0    0  501    0  0.00000000000E+00  0.00000000000E+00  0.52466258081E+03  0.52466258081E+03  0.25500000000E-02 0.  1.
         -2   -1    0    0    0  501 -0.00000000000E+00 -0.00000000000E+00 -0.76704470561E+02  0.76704470603E+02  0.25500000000E-02 0. -1.
    5000001    1    1    2    0    0  0.68466782656E+02 -0.54500683692E+02  0.11423531691E+03  0.21893545277E+03  0.16500000000E+03 0.  0.
   -5000001    1    1    2    0    0 -0.68466782656E+02  0.54500683692E+02  0.33372279334E+03  0.38243159865E+03  0.16500000000E+03 0.  0.
<mgrwt>
<rscale>  0 0.40121797E+03</rscale>
<asrwt>0</asrwt>
<pdfrwt beam="1">  1        2 0.80717325E-01 0.40121797E+03</pdfrwt>
<pdfrwt beam="2">  1       -2 0.11800687E-01 0.40121797E+03</pdfrwt>
<totfact> 0.30117188E+03</totfact>
</mgrwt>
</event>
<event>
 4    1  0.9050888E-005  0.7653683E+03  0.7818608E-02  0.9611544E-01
          2   -1    0    0  501    0  0.00000000000E+00  0.00000000000E+00  0.54560309205E+03  0.54560309206E+03  0.25500000000E-02 0.  1.
         -2   -1    0    0    0  501 -0.00000000000E+00 -0.00000000000E+00 -0.26841336719E+03  0.26841336720E+03  0.25500000000E-02 0. -1.
    5000001    1    1    2    0    0 -0.28661137825E+03  0.19180106289E+03  0.15665767412E+03  0.41315899691E+03  0.16500000000E+03 0.  0.
   -5000001    1    1    2    0    0  0.28661137825E+03 -0.19180106289E+03  0.12053205074E+03  0.40085746235E+03  0.16500000000E+03 0.  0.
<mgrwt>
<rscale>  0 0.76536831E+03</rscale>
<asrwt>0</asrwt>
<pdfrwt beam="1">  1        2 0.83938937E-01 0.76536831E+03</pdfrwt>
<pdfrwt beam="2">  1       -2 0.41294364E-01 0.76536831E+03</pdfrwt>
<totfact> 0.31092561E+02</totfact>
</mgrwt>
</event>
<event>
 4    1  0.9050888E-005  0.3696669E+03  0.7818608E-02  0.1054820E+00
          2   -1    0    0  501    0  0.00000000000E+00  0.00000000000E+00  0.33343086395E+03  0.33343086396E+03  0.25500000000E-02 0.  1.
         -2   -1    0    0    0  501 -0.00000000000E+00 -0.00000000000E+00 -0.10246024454E+03  0.10246024458E+03  0.25500000000E-02 0. -1.
    5000001    1    1    2    0    0  0.72254597799E+02  0.40595138874E+02  0.12533069248E+03  0.22316244012E+03  0.16500000000E+03 0.  0.
   -5000001    1    1    2    0    0 -0.72254597799E+02 -0.40595138874E+02  0.10563992692E+03  0.21272866841E+03  0.16500000000E+03 0.  0.
<mgrwt>
<rscale>  0 0.36966692E+03</rscale>
<asrwt>0</asrwt>
<pdfrwt beam="1">  1        2 0.51297056E-01 0.36966692E+03</pdfrwt>
<pdfrwt beam="2">  1       -2 0.15763115E-01 0.36966692E+03</pdfrwt>
<totfact> 0.30852570E+03</totfact>
</mgrwt>
</event>
<event>
 4    1  0.9050888E-005  0.6086744E+03  0.7818608E-02  0.9887571E-01
          2   -1    0    0  501    0  0.00000000000E+00  0.00000000000E+00  0.61291838161E+03  0.61291838162E+03  0.25500000000E-02 0.  1.
         -2   -1    0    0    0  501 -0.00000000000E+00 -0.00000000000E+00 -0.15111492650E+03  0.15111492653E+03  0.25500000000E-02 0. -1.
    5000001    1    1    2    0    0 -0.37152211918E+02  0.20611457414E+03  0.41509579802E+03  0.49334878743E+03  0.16500000000E+03 0.  0.
   -5000001    1    1    2    0    0  0.37152211918E+02 -0.20611457414E+03  0.46707657092E+02  0.27068452072E+03  0.16500000000E+03 0.  0.
<mgrwt>
<rscale>  0 0.60867435E+03</rscale>
<asrwt>0</asrwt>
<pdfrwt beam="1">  1        2 0.94295137E-01 0.60867435E+03</pdfrwt>
<pdfrwt beam="2">  1       -2 0.23248450E-01 0.60867435E+03</pdfrwt>
<totfact> 0.79351051E+02</totfact>
</mgrwt>
</event>
<event>
 4    1  0.9050888E-005  0.6069206E+03  0.7818608E-02  0.9891151E-01
         -2   -1    0    0    0  501 -0.00000000000E+00  0.00000000000E+00  0.59150311572E+02  0.59150311627E+02  0.25500000000E-02 0. -1.
          2   -1    0    0  501    0  0.00000000000E+00 -0.00000000000E+00 -0.15568498175E+04  0.15568498175E+04  0.25500000000E-02 0.  1.
    5000001    1    1    2    0    0  0.25330610803E+03  0.26431471372E+02 -0.74688449813E+03  0.80617867783E+03  0.16500000000E+03 0.  0.
   -5000001    1    1    2    0    0 -0.25330610803E+03 -0.26431471372E+02 -0.75081500781E+03  0.80982145131E+03  0.16500000000E+03 0.  0.
<mgrwt>
<rscale>  0 0.60692059E+03</rscale>
<asrwt>0</asrwt>
<pdfrwt beam="1">  1        2 0.23951533E+00 0.60692059E+03</pdfrwt>
<pdfrwt beam="2">  1       -2 0.91000491E-02 0.60692059E+03</pdfrwt>
<totfact> 0.96194258E+02</totfact>
</mgrwt>
</event>
<event>
 4    1  0.9050888E-005  0.5045353E+03  0.7818608E-02  0.1012602E+00
          2   -1    0    0  501    0  0.00000000000E+00  0.00000000000E+00  0.96888829959E+02  0.96888829993E+02  0.25500000000E-02 0.  1.
         -2   -1    0    0    0  501 -0.00000000000E+00 -0.00000000000E+00 -0.65682471377E+03  0.65682471377E+03  0.25500000000E-02 0. -1.
    5000001    1    1    2    0    0 -0.18801344942E+03  0.13556557182E+02 -0.23562368977E+03  0.34391330388E+03  0.16500000000E+03 0.  0.
   -5000001    1    1    2    0    0  0.18801344942E+03 -0.13556557182E+02 -0.32431219404E+03  0.40980023988E+03  0.16500000000E+03 0.  0.
<mgrwt>
<rscale>  0 0.50453534E+03</rscale>
<asrwt>0</asrwt>
<pdfrwt beam="1">  1        2 0.14905974E-01 0.50453534E+03</pdfrwt>
<pdfrwt beam="2">  1       -2 0.10104995E+00 0.50453534E+03</pdfrwt>
<totfact> 0.32940852E+02</totfact>
</mgrwt>
</event>
<event>
 4    1  0.9050888E-005  0.9014008E+03  0.7818608E-02  0.9423832E-01
          2   -1    0    0  501    0  0.00000000000E+00  0.00000000000E+00  0.35062411756E+04  0.35062411756E+04  0.25500000000E-02 0.  1.
         -2   -1    0    0    0  501 -0.00000000000E+00 -0.00000000000E+00 -0.57934084603E+02  0.57934084659E+02  0.25500000000E-02 0. -1.
    5000001    1    1    2    0    0  0.21392336513E+03 -0.24528388314E+03  0.67817361522E+03  0.77011157754E+03  0.16500000000E+03 0.  0.
   -5000001    1    1    2    0    0 -0.21392336513E+03  0.24528388314E+03  0.27701334758E+04  0.27940636828E+04  0.16500000000E+03 0.  0.
<mgrwt>
<rscale>  0 0.90140085E+03</rscale>
<asrwt>0</asrwt>
<pdfrwt beam="1">  1        2 0.53942167E+00 0.90140085E+03</pdfrwt>
<pdfrwt beam="2">  1       -2 0.89129370E-02 0.90140085E+03</pdfrwt>
<totfact> 0.70214680E+01</totfact>
</mgrwt>
</event>
<event>
 4    1  0.9050888E-005  0.4363690E+03  0.7818608E-02  0.1031867E+00
         -2   -1    0    0    0  501 -0.00000000000E+00  0.00000000000E+00  0.83484994923E+02  0.83484994962E+02  0.25500000000E-02 0. -1.
          2   -1    0    0  501    0  0.00000000000E+00 -0.00000000000E+00 -0.57021594516E+03  0.57021594517E+03  0.25500000000E-02 0.  1.
    5000001    1    1    2    0    0  0.86600511170E+02  0.87662630745E+02 -0.13539083685E+03  0.24645499400E+03  0.16500000000E+03 0.  0.
   -5000001    1    1    2    0    0 -0.86600511170E+02 -0.87662630745E+02 -0.35134011339E+03  0.40724594613E+03  0.16500000000E+03 0.  0.
<mgrwt>
<rscale>  0 0.43636900E+03</rscale>
<asrwt>0</asrwt>
<pdfrwt beam="1">  1        2 0.87725527E-01 0.43636900E+03</pdfrwt>
<pdfrwt beam="2">  1       -2 0.12843846E-01 0.43636900E+03</pdfrwt>
<totfact> 0.23830587E+03</totfact>
</mgrwt>
</event>
<event>
 4    1  0.9050888E-005  0.7092372E+03  0.7818608E-02  0.9701564E-01
         -2   -1    0    0    0  501 -0.00000000000E+00  0.00000000000E+00  0.78418622060E+02  0.78418622101E+02  0.25500000000E-02 0. -1.
          2   -1    0    0  501    0  0.00000000000E+00 -0.00000000000E+00 -0.16036287278E+04  0.16036287278E+04  0.25500000000E-02 0.  1.
    5000001    1    1    2    0    0  0.79814236841E+02 -0.29255312880E+03 -0.95486370173E+03  0.10153557674E+04  0.16500000000E+03 0.  0.
   -5000001    1    1    2    0    0 -0.79814236841E+02  0.29255312880E+03 -0.57034640404E+03  0.66669158250E+03  0.16500000000E+03 0.  0.
<mgrwt>
<rscale>  0 0.70923721E+03</rscale>
<asrwt>0</asrwt>
<pdfrwt beam="1">  1        2 0.24671209E+00 0.70923721E+03</pdfrwt>
<pdfrwt beam="2">  1       -2 0.12064405E-01 0.70923721E+03</pdfrwt>
<totfact> 0.56927498E+02</totfact>
</mgrwt>
</event>
<event>
 4    1  0.9050888E-005  0.5848636E+03  0.7818608E-02  0.9937317E-01
         -2   -1    0    0    0  501 -0.00000000000E+00  0.00000000000E+00  0.29864809675E+03  0.29864809676E+03  0.25500000000E-02 0. -1.
          2   -1    0    0  501    0  0.00000000000E+00 -0.00000000000E+00 -0.28634491152E+03  0.28634491153E+03  0.25500000000E-02 0.  1.
    5000001    1    1    2    0    0 -0.16540296549E+03  0.15637671411E+03  0.86665022677E+02  0.29418980924E+03  0.16500000000E+03 0.  0.
   -5000001    1    1    2    0    0  0.16540296549E+03 -0.15637671411E+03 -0.74361837447E+02  0.29080319905E+03  0.16500000000E+03 0.  0.
<mgrwt>
<rscale>  0 0.58486362E+03</rscale>
<asrwt>0</asrwt>
<pdfrwt beam="1">  1        2 0.44053063E-01 0.58486362E+03</pdfrwt>
<pdfrwt beam="2">  1       -2 0.45945861E-01 0.58486362E+03</pdfrwt>
<totfact> 0.52365339E+02</totfact>
</mgrwt>
</event>
