<event>
 4    1  0.1383574E-004  0.3656660E+03  0.7818608E-02  0.1056363E+00
         -2   -1    0    0    0  501 -0.00000000000E+00  0.00000000000E+00  0.11497530126E+03  0.11497530129E+03  0.25500000000E-02 0. -1.
          2   -1    0    0  501    0  0.00000000000E+00 -0.00000000000E+00 -0.29073986113E+03  0.29073986114E+03  0.25500000000E-02 0.  1.
    5000001    1    1    2    0    0 -0.64432380365E+02  0.10535444535E+03 -0.37673259023E+02  0.18110595032E+03  0.12700000000E+03 0.  0.
   -5000001    1    1    2    0    0  0.64432380365E+02 -0.10535444535E+03 -0.13809130085E+03  0.22460921211E+03  0.12700000000E+03 0.  0.
<mgrwt>
<rscale>  0 0.36566598E+03</rscale>
<asrwt>0</asrwt>
<pdfrwt beam="1">  1        2 0.41534266E-01 0.36566598E+03</pdfrwt>
<pdfrwt beam="2">  1       -2 0.16425043E-01 0.36566598E+03</pdfrwt>
<totfact> 0.36244564E+03</totfact>
</mgrwt>
</event>
<event>
 4    1  0.1383574E-004  0.4133880E+03  0.7818608E-02  0.1039240E+00
          2   -1    0    0  501    0  0.00000000000E+00  0.00000000000E+00  0.12260274845E+04  0.12260274845E+04  0.25500000000E-02 0.  1.
         -2   -1    0    0    0  501 -0.00000000000E+00 -0.00000000000E+00 -0.34846206997E+02  0.34846207090E+02  0.25500000000E-02 0. -1.
    5000001    1    1    2    0    0 -0.54567532988E+02 -0.14547763326E+03  0.44455536023E+03  0.48774975730E+03  0.12700000000E+03 0.  0.
   -5000001    1    1    2    0    0  0.54567532988E+02  0.14547763326E+03  0.74662591729E+03  0.77312393431E+03  0.12700000000E+03 0.  0.
<mgrwt>
<rscale>  0 0.41338799E+03</rscale>
<asrwt>0</asrwt>
<pdfrwt beam="1">  1        2 0.17514683E+00 0.41338799E+03</pdfrwt>
<pdfrwt beam="2">  1       -2 0.49780281E-02 0.41338799E+03</pdfrwt>
<totfact> 0.42960786E+03</totfact>
</mgrwt>
</event>
<event>
 4    1  0.1383574E-004  0.3840719E+03  0.7818608E-02  0.1049439E+00
         -2   -1    0    0    0  501 -0.00000000000E+00  0.00000000000E+00  0.10526393401E+03  0.10526393404E+03  0.25500000000E-02 0. -1.
          2   -1    0    0  501    0  0.00000000000E+00 -0.00000000000E+00 -0.35033658135E+03  0.35033658136E+03  0.25500000000E-02 0.  1.
    5000001    1    1    2    0    0 -0.43656004924E+02 -0.12898242941E+03 -0.17825784157E+03  0.25777348961E+03  0.12700000000E+03 0.  0.
   -5000001    1    1    2    0    0  0.43656004924E+02  0.12898242941E+03 -0.66814805767E+02  0.19782702579E+03  0.12700000000E+03 0.  0.
<mgrwt>
<rscale>  0 0.38407190E+03</rscale>
<asrwt>0</asrwt>
<pdfrwt beam="1">  1        2 0.50048082E-01 0.38407190E+03</pdfrwt>
<pdfrwt beam="2">  1       -2 0.15037705E-01 0.38407190E+03</pdfrwt>
<totfact> 0.34336508E+03</totfact>
</mgrwt>
</event>
<event>
 4    1  0.1383574E-004  0.2985981E+03  0.7818608E-02  0.1085944E+00
         -2   -1    0    0    0  501 -0.00000000000E+00  0.00000000000E+00  0.10250729358E+04  0.10250729358E+04  0.25500000000E-02 0. -1.
          2   -1    0    0  501    0  0.00000000000E+00 -0.00000000000E+00 -0.21744991108E+02  0.21744991258E+02  0.25500000000E-02 0.  1.
    5000001    1    1    2    0    0  0.43358911847E+02 -0.35261849357E+02  0.69488943897E+03  0.70860689077E+03  0.12700000000E+03 0.  0.
   -5000001    1    1    2    0    0 -0.43358911847E+02  0.35261849357E+02  0.30843850573E+03  0.33821103630E+03  0.12700000000E+03 0.  0.
<mgrwt>
<rscale>  0 0.29859807E+03</rscale>
<asrwt>0</asrwt>
<pdfrwt beam="1">  1        2 0.31064262E-02 0.29859807E+03</pdfrwt>
<pdfrwt beam="2">  1       -2 0.14643904E+00 0.29859807E+03</pdfrwt>
<totfact> 0.10110830E+03</totfact>
</mgrwt>
</event>
<event>
 4    1  0.1383574E-004  0.3403783E+03  0.7818608E-02  0.1066635E+00
         -2   -1    0    0    0  501 -0.00000000000E+00  0.00000000000E+00  0.34736082791E+02  0.34736082885E+02  0.25500000000E-02 0. -1.
          2   -1    0    0  501    0  0.00000000000E+00 -0.00000000000E+00 -0.83384051534E+03  0.83384051535E+03  0.25500000000E-02 0.  1.
    5000001    1    1    2    0    0 -0.75955808181E+02 -0.80570890401E+02 -0.46071023990E+03  0.49055466395E+03  0.12700000000E+03 0.  0.
   -5000001    1    1    2    0    0  0.75955808181E+02  0.80570890401E+02 -0.33839419266E+03  0.37802193428E+03  0.12700000000E+03 0.  0.
<mgrwt>
<rscale>  0 0.34037834E+03</rscale>
<asrwt>0</asrwt>
<pdfrwt beam="1">  1        2 0.11912006E+00 0.34037834E+03</pdfrwt>
<pdfrwt beam="2">  1       -2 0.49622981E-02 0.34037834E+03</pdfrwt>
<totfact> 0.73601050E+03</totfact>
</mgrwt>
</event>
<event>
 4    1  0.1383574E-004  0.4107740E+03  0.7818608E-02  0.1040112E+00
          2   -1    0    0  501    0  0.00000000000E+00  0.00000000000E+00  0.33913067229E+04  0.33913067229E+04  0.25500000000E-02 0.  1.
         -2   -1    0    0    0  501 -0.00000000000E+00 -0.00000000000E+00 -0.12438811212E+02  0.12438811474E+02  0.25500000000E-02 0. -1.
    5000001    1    1    2    0    0  0.15394236768E+03  0.18410207101E+01  0.12874747973E+04  0.13028514864E+04  0.12700000000E+03 0.  0.
   -5000001    1    1    2    0    0 -0.15394236768E+03 -0.18410207101E+01  0.20913931144E+04  0.21008940480E+04  0.12700000000E+03 0.  0.
<mgrwt>
<rscale>  0 0.41077402E+03</rscale>
<asrwt>0</asrwt>
<pdfrwt beam="1">  1        2 0.48447262E+00 0.41077402E+03</pdfrwt>
<pdfrwt beam="2">  1       -2 0.17769722E-02 0.41077402E+03</pdfrwt>
<totfact> 0.15309754E+03</totfact>
</mgrwt>
</event>
<event>
 4    1  0.1383574E-004  0.3733371E+03  0.7818608E-02  0.1053424E+00
          2   -1    0    0  501    0  0.00000000000E+00  0.00000000000E+00  0.85314078497E+03  0.85314078498E+03  0.25500000000E-02 0.  1.
         -2   -1    0    0    0  501 -0.00000000000E+00 -0.00000000000E+00 -0.40843370404E+02  0.40843370483E+02  0.25500000000E-02 0. -1.
    5000001    1    1    2    0    0  0.44849636442E+02 -0.12826387306E+03  0.44423934251E+03  0.48160222638E+03  0.12700000000E+03 0.  0.
   -5000001    1    1    2    0    0 -0.44849636442E+02  0.12826387306E+03  0.36805807206E+03  0.41238192908E+03  0.12700000000E+03 0.  0.
<mgrwt>
<rscale>  0 0.37333709E+03</rscale>
<asrwt>0</asrwt>
<pdfrwt beam="1">  1        2 0.12187726E+00 0.37333709E+03</pdfrwt>
<pdfrwt beam="2">  1       -2 0.58347669E-02 0.37333709E+03</pdfrwt>
<totfact> 0.55847652E+03</totfact>
</mgrwt>
</event>
<event>
 4    1  0.1383574E-004  0.3033092E+03  0.7818608E-02  0.1083598E+00
          2   -1    0    0  501    0  0.00000000000E+00  0.00000000000E+00  0.14053138996E+04  0.14053138996E+04  0.25500000000E-02 0.  1.
         -2   -1    0    0    0  501 -0.00000000000E+00 -0.00000000000E+00 -0.16365820283E+02  0.16365820481E+02  0.25500000000E-02 0. -1.
    5000001    1    1    2    0    0 -0.67607352183E+02  0.27688608102E+02  0.51097024814E+03  0.53156091614E+03  0.12700000000E+03 0.  0.
   -5000001    1    1    2    0    0  0.67607352183E+02 -0.27688608102E+02  0.87797783120E+03  0.89011880396E+03  0.12700000000E+03 0.  0.
<mgrwt>
<rscale>  0 0.30330918E+03</rscale>
<asrwt>0</asrwt>
<pdfrwt beam="1">  1        2 0.20075916E+00 0.30330918E+03</pdfrwt>
<pdfrwt beam="2">  1       -2 0.23379739E-02 0.30330918E+03</pdfrwt>
<totfact> 0.10727754E+04</totfact>
</mgrwt>
</event>
<event>
 4    1  0.1383574E-004  0.3655578E+03  0.7818608E-02  0.1056405E+00
         -2   -1    0    0    0  501 -0.00000000000E+00  0.00000000000E+00  0.10979810449E+04  0.10979810449E+04  0.25500000000E-02 0. -1.
          2   -1    0    0  501    0  0.00000000000E+00 -0.00000000000E+00 -0.30426869249E+02  0.30426869356E+02  0.25500000000E-02 0.  1.
    5000001    1    1    2    0    0  0.59280777162E+02  0.91655600911E+02  0.75985658460E+03  0.77809124715E+03  0.12700000000E+03 0.  0.
   -5000001    1    1    2    0    0 -0.59280777162E+02 -0.91655600911E+02  0.30769759103E+03  0.35031666710E+03  0.12700000000E+03 0.  0.
<mgrwt>
<rscale>  0 0.36555780E+03</rscale>
<asrwt>0</asrwt>
<pdfrwt beam="1">  1        2 0.43466958E-02 0.36555780E+03</pdfrwt>
<pdfrwt beam="2">  1       -2 0.15685443E+00 0.36555780E+03</pdfrwt>
<totfact> 0.53769347E+02</totfact>
</mgrwt>
</event>
<event>
 4    1  0.1383574E-004  0.3706719E+03  0.7818608E-02  0.1054436E+00
          2   -1    0    0  501    0  0.00000000000E+00  0.00000000000E+00  0.58624562649E+03  0.58624562650E+03  0.25500000000E-02 0.  1.
         -2   -1    0    0    0  501 -0.00000000000E+00 -0.00000000000E+00 -0.58592192653E+02  0.58592192708E+02  0.25500000000E-02 0. -1.
    5000001    1    1    2    0    0  0.55028037054E+02  0.34929830412E+02  0.58193238824E+02  0.15415456840E+03  0.12700000000E+03 0.  0.
   -5000001    1    1    2    0    0 -0.55028037054E+02 -0.34929830412E+02  0.46946019502E+03  0.49068325080E+03  0.12700000000E+03 0.  0.
<mgrwt>
<rscale>  0 0.37067191E+03</rscale>
<asrwt>0</asrwt>
<pdfrwt beam="1">  1        2 0.83749377E-01 0.37067191E+03</pdfrwt>
<pdfrwt beam="2">  1       -2 0.83703130E-02 0.37067191E+03</pdfrwt>
<totfact> 0.50032399E+03</totfact>
</mgrwt>
</event>
<event>
 4    1  0.1383574E-004  0.4078233E+03  0.7818608E-02  0.1041104E+00
         -2   -1    0    0    0  501 -0.00000000000E+00  0.00000000000E+00  0.32004252536E+03  0.32004252537E+03  0.25500000000E-02 0. -1.
          2   -1    0    0  501    0  0.00000000000E+00 -0.00000000000E+00 -0.12992010966E+03  0.12992010969E+03  0.25500000000E-02 0.  1.
    5000001    1    1    2    0    0  0.91926412329E+02 -0.11366967006E+03  0.24588886027E+02  0.19520469383E+03  0.12700000000E+03 0.  0.
   -5000001    1    1    2    0    0 -0.91926412329E+02  0.11366967006E+03  0.16553352966E+03  0.25475794123E+03  0.12700000000E+03 0.  0.
<mgrwt>
<rscale>  0 0.40782330E+03</rscale>
<asrwt>0</asrwt>
<pdfrwt beam="1">  1        2 0.18560016E-01 0.40782330E+03</pdfrwt>
<pdfrwt beam="2">  1       -2 0.45720361E-01 0.40782330E+03</pdfrwt>
<totfact> 0.14018173E+03</totfact>
</mgrwt>
</event>
<event>
 4    1  0.1383574E-004  0.3089583E+03  0.7818608E-02  0.1080846E+00
          2   -1    0    0  501    0  0.00000000000E+00  0.00000000000E+00  0.10280367360E+03  0.10280367363E+03  0.25500000000E-02 0.  1.
         -2   -1    0    0    0  501 -0.00000000000E+00 -0.00000000000E+00 -0.23212986069E+03  0.23212986071E+03  0.25500000000E-02 0. -1.
    5000001    1    1    2    0    0  0.84813803122E+02  0.50593842660E+00 -0.39444331071E+02  0.15772917431E+03  0.12700000000E+03 0.  0.
   -5000001    1    1    2    0    0 -0.84813803122E+02 -0.50593842660E+00 -0.89881856022E+02  0.17720436004E+03  0.12700000000E+03 0.  0.
<mgrwt>
<rscale>  0 0.30895827E+03</rscale>
<asrwt>0</asrwt>
<pdfrwt beam="1">  1        2 0.14686239E-01 0.30895827E+03</pdfrwt>
<pdfrwt beam="2">  1       -2 0.33161409E-01 0.30895827E+03</pdfrwt>
<totfact> 0.33973555E+03</totfact>
</mgrwt>
</event>
<event>
 4    1  0.1383574E-004  0.5468278E+03  0.7818608E-02  0.1002231E+00
          2   -1    0    0  501    0  0.00000000000E+00  0.00000000000E+00  0.10010586304E+04  0.10010586304E+04  0.25500000000E-02 0.  1.
         -2   -1    0    0    0  501 -0.00000000000E+00 -0.00000000000E+00 -0.74676109769E+02  0.74676109812E+02  0.25500000000E-02 0. -1.
    5000001    1    1    2    0    0 -0.16431217655E+03  0.85909025565E+02  0.76951905226E+03  0.80166540641E+03  0.12700000000E+03 0.  0.
   -5000001    1    1    2    0    0  0.16431217655E+03 -0.85909025565E+02  0.15686346841E+03  0.27406933385E+03  0.12700000000E+03 0.  0.
<mgrwt>
<rscale>  0 0.54682781E+03</rscale>
<asrwt>0</asrwt>
<pdfrwt beam="1">  1        2 0.14300839E+00 0.54682781E+03</pdfrwt>
<pdfrwt beam="2">  1       -2 0.10668015E-01 0.54682781E+03</pdfrwt>
<totfact> 0.17385109E+03</totfact>
</mgrwt>
</event>
<event>
 4    1  0.1383574E-004  0.3537309E+03  0.7818608E-02  0.1061094E+00
          2   -1    0    0  501    0  0.00000000000E+00  0.00000000000E+00  0.46941713048E+03  0.46941713049E+03  0.25500000000E-02 0.  1.
         -2   -1    0    0    0  501 -0.00000000000E+00 -0.00000000000E+00 -0.66638775795E+02  0.66638775844E+02  0.25500000000E-02 0. -1.
    5000001    1    1    2    0    0 -0.11980194607E+03 -0.24082454117E+02  0.22386220721E+03  0.28491359865E+03  0.12700000000E+03 0.  0.
   -5000001    1    1    2    0    0  0.11980194607E+03  0.24082454117E+02  0.17891614747E+03  0.25114230768E+03  0.12700000000E+03 0.  0.
<mgrwt>
<rscale>  0 0.35373087E+03</rscale>
<asrwt>0</asrwt>
<pdfrwt beam="1">  1        2 0.67059593E-01 0.35373087E+03</pdfrwt>
<pdfrwt beam="2">  1       -2 0.95198247E-02 0.35373087E+03</pdfrwt>
<totfact> 0.52346432E+03</totfact>
</mgrwt>
</event>
<event>
 4    1  0.1383574E-004  0.4253236E+03  0.7818608E-02  0.1035347E+00
          2   -1    0    0  501    0  0.00000000000E+00  0.00000000000E+00  0.97051475951E+03  0.97051475951E+03  0.25500000000E-02 0.  1.
         -2   -1    0    0    0  501 -0.00000000000E+00 -0.00000000000E+00 -0.46599026703E+02  0.46599026772E+02  0.25500000000E-02 0. -1.
    5000001    1    1    2    0    0 -0.15047119459E+03 -0.58949516841E+02  0.59248948309E+03  0.62712790842E+03  0.12700000000E+03 0.  0.
   -5000001    1    1    2    0    0  0.15047119459E+03  0.58949516841E+02  0.33142624972E+03  0.38998587787E+03  0.12700000000E+03 0.  0.
<mgrwt>
<rscale>  0 0.42532361E+03</rscale>
<asrwt>0</asrwt>
<pdfrwt beam="1">  1        2 0.13864497E+00 0.42532361E+03</pdfrwt>
<pdfrwt beam="2">  1       -2 0.66570038E-02 0.42532361E+03</pdfrwt>
<totfact> 0.38439824E+03</totfact>
</mgrwt>
</event>
<event>
 4    1  0.1383574E-004  0.6374476E+03  0.7818608E-02  0.9830622E-01
          2   -1    0    0  501    0  0.00000000000E+00  0.00000000000E+00  0.23961743677E+03  0.23961743678E+03  0.25500000000E-02 0.  1.
         -2   -1    0    0    0  501 -0.00000000000E+00 -0.00000000000E+00 -0.42394601939E+03  0.42394601940E+03  0.25500000000E-02 0. -1.
    5000001    1    1    2    0    0  0.18777475885E+03  0.19831497759E+03 -0.20068338503E+03  0.36192680396E+03  0.12700000000E+03 0.  0.
   -5000001    1    1    2    0    0 -0.18777475885E+03 -0.19831497759E+03  0.16354802410E+02  0.30163665222E+03  0.12700000000E+03 0.  0.
<mgrwt>
<rscale>  0 0.63744759E+03</rscale>
<asrwt>0</asrwt>
<pdfrwt beam="1">  1        2 0.34231063E-01 0.63744759E+03</pdfrwt>
<pdfrwt beam="2">  1       -2 0.60563717E-01 0.63744759E+03</pdfrwt>
<totfact> 0.39289830E+02</totfact>
</mgrwt>
</event>
<event>
 4    1  0.1383574E-004  0.3497479E+03  0.7818608E-02  0.1062719E+00
         -2   -1    0    0    0  501 -0.00000000000E+00  0.00000000000E+00  0.19143065157E+02  0.19143065326E+02  0.25500000000E-02 0. -1.
          2   -1    0    0  501    0  0.00000000000E+00 -0.00000000000E+00 -0.15974922509E+04  0.15974922509E+04  0.25500000000E-02 0.  1.
    5000001    1    1    2    0    0 -0.11723621680E+03  0.25277931085E+02 -0.82745708374E+03  0.84569351999E+03  0.12700000000E+03 0.  0.
   -5000001    1    1    2    0    0  0.11723621680E+03 -0.25277931085E+02 -0.75089210201E+03  0.77094179624E+03  0.12700000000E+03 0.  0.
<mgrwt>
<rscale>  0 0.34974790E+03</rscale>
<asrwt>0</asrwt>
<pdfrwt beam="1">  1        2 0.22821309E+00 0.34974790E+03</pdfrwt>
<pdfrwt beam="2">  1       -2 0.27347246E-02 0.34974790E+03</pdfrwt>
<totfact> 0.67993211E+03</totfact>
</mgrwt>
</event>
<event>
 4    1  0.1383574E-004  0.4821431E+03  0.7818608E-02  0.1018548E+00
         -2   -1    0    0    0  501 -0.00000000000E+00  0.00000000000E+00  0.14533515482E+03  0.14533515484E+03  0.25500000000E-02 0. -1.
          2   -1    0    0  501    0  0.00000000000E+00 -0.00000000000E+00 -0.39987222652E+03  0.39987222653E+03  0.25500000000E-02 0.  1.
    5000001    1    1    2    0    0 -0.15866209049E+02 -0.20340355913E+03 -0.14877596709E+03  0.28264471132E+03  0.12700000000E+03 0.  0.
   -5000001    1    1    2    0    0  0.15866209049E+02  0.20340355913E+03 -0.10576110462E+03  0.26256267005E+03  0.12700000000E+03 0.  0.
<mgrwt>
<rscale>  0 0.48214310E+03</rscale>
<asrwt>0</asrwt>
<pdfrwt beam="1">  1        2 0.57124603E-01 0.48214310E+03</pdfrwt>
<pdfrwt beam="2">  1       -2 0.20762165E-01 0.48214310E+03</pdfrwt>
<totfact> 0.17199136E+03</totfact>
</mgrwt>
</event>
<event>
 4    1  0.1383574E-004  0.7005749E+03  0.7818608E-02  0.9716250E-01
         -2   -1    0    0    0  501 -0.00000000000E+00  0.00000000000E+00  0.85568130847E+02  0.85568130885E+02  0.25500000000E-02 0. -1.
          2   -1    0    0  501    0  0.00000000000E+00 -0.00000000000E+00 -0.14339602222E+04  0.14339602222E+04  0.25500000000E-02 0.  1.
    5000001    1    1    2    0    0 -0.24464922157E+03 -0.54176086166E+02 -0.11280456749E+04  0.11624991762E+04  0.12700000000E+03 0.  0.
   -5000001    1    1    2    0    0  0.24464922157E+03  0.54176086166E+02 -0.22034641645E+03  0.35702917692E+03  0.12700000000E+03 0.  0.
<mgrwt>
<rscale>  0 0.70057490E+03</rscale>
<asrwt>0</asrwt>
<pdfrwt beam="1">  1        2 0.20485145E+00 0.70057490E+03</pdfrwt>
<pdfrwt beam="2">  1       -2 0.12224020E-01 0.70057490E+03</pdfrwt>
<totfact> 0.79098833E+02</totfact>
</mgrwt>
</event>
<event>
 4    1  0.1383574E-004  0.6418761E+03  0.7818608E-02  0.9822144E-01
         -2   -1    0    0    0  501 -0.00000000000E+00  0.00000000000E+00  0.20868280481E+03  0.20868280482E+03  0.25500000000E-02 0. -1.
          2   -1    0    0  501    0  0.00000000000E+00 -0.00000000000E+00 -0.49357794213E+03  0.49357794213E+03  0.25500000000E-02 0.  1.
    5000001    1    1    2    0    0  0.20443082588E+03  0.10467361946E+03  0.59656591424E+02  0.26914018295E+03  0.12700000000E+03 0.  0.
   -5000001    1    1    2    0    0 -0.20443082588E+03 -0.10467361946E+03 -0.34455172874E+03  0.43312056400E+03  0.12700000000E+03 0.  0.
<mgrwt>
<rscale>  0 0.64187609E+03</rscale>
<asrwt>0</asrwt>
<pdfrwt beam="1">  1        2 0.70511134E-01 0.64187609E+03</pdfrwt>
<pdfrwt beam="2">  1       -2 0.29811829E-01 0.64187609E+03</pdfrwt>
<totfact> 0.70982252E+02</totfact>
</mgrwt>
</event>
<event>
 4    1  0.1383574E-004  0.2819811E+03  0.7818608E-02  0.1094612E+00
         -2   -1    0    0    0  501 -0.00000000000E+00  0.00000000000E+00  0.82120554907E+01  0.82120558866E+01  0.25500000000E-02 0. -1.
          2   -1    0    0  501    0  0.00000000000E+00 -0.00000000000E+00 -0.24206286144E+04  0.24206286144E+04  0.25500000000E-02 0.  1.
    5000001    1    1    2    0    0  0.31374703680E+02 -0.52379407346E+02 -0.12460195911E+04  0.12539624379E+04  0.12700000000E+03 0.  0.
   -5000001    1    1    2    0    0 -0.31374703680E+02  0.52379407346E+02 -0.11663969679E+04  0.11748782324E+04  0.12700000000E+03 0.  0.
<mgrwt>
<rscale>  0 0.28198111E+03</rscale>
<asrwt>0</asrwt>
<pdfrwt beam="1">  1        2 0.34580363E+00 0.28198111E+03</pdfrwt>
<pdfrwt beam="2">  1       -2 0.11731524E-02 0.28198111E+03</pdfrwt>
<totfact> 0.92816390E+03</totfact>
</mgrwt>
</event>
<event>
 4    1  0.1383574E-004  0.2951534E+03  0.7818608E-02  0.1087689E+00
          2   -1    0    0  501    0  0.00000000000E+00  0.00000000000E+00  0.95486636052E+03  0.95486636052E+03  0.25500000000E-02 0.  1.
         -2   -1    0    0    0  501 -0.00000000000E+00 -0.00000000000E+00 -0.22808299825E+02  0.22808299967E+02  0.25500000000E-02 0. -1.
    5000001    1    1    2    0    0 -0.30426998367E+02  0.68197415774E+02  0.49436696736E+03  0.51585306839E+03  0.12700000000E+03 0.  0.
   -5000001    1    1    2    0    0  0.30426998367E+02 -0.68197415774E+02  0.43769109334E+03  0.46182159210E+03  0.12700000000E+03 0.  0.
<mgrwt>
<rscale>  0 0.29515337E+03</rscale>
<asrwt>0</asrwt>
<pdfrwt beam="1">  1        2 0.13640946E+00 0.29515337E+03</pdfrwt>
<pdfrwt beam="2">  1       -2 0.32583290E-02 0.29515337E+03</pdfrwt>
<totfact> 0.11603755E+04</totfact>
</mgrwt>
</event>
<event>
 4    1  0.1383574E-004  0.2951445E+03  0.7818608E-02  0.1087693E+00
          2   -1    0    0  501    0  0.00000000000E+00  0.00000000000E+00  0.14107165361E+04  0.14107165362E+04  0.25500000000E-02 0.  1.
         -2   -1    0    0    0  501 -0.00000000000E+00 -0.00000000000E+00 -0.15437239932E+02  0.15437240143E+02  0.25500000000E-02 0. -1.
    5000001    1    1    2    0    0  0.49921494244E+02 -0.28853107454E+02  0.93057828514E+03  0.94097268939E+03  0.12700000000E+03 0.  0.
   -5000001    1    1    2    0    0 -0.49921494244E+02  0.28853107454E+02  0.46470101107E+03  0.48518108690E+03  0.12700000000E+03 0.  0.
<mgrwt>
<rscale>  0 0.29514451E+03</rscale>
<asrwt>0</asrwt>
<pdfrwt beam="1">  1        2 0.20153084E+00 0.29514451E+03</pdfrwt>
<pdfrwt beam="2">  1       -2 0.22053210E-02 0.29514451E+03</pdfrwt>
<totfact> 0.11613745E+04</totfact>
</mgrwt>
</event>
<event>
 4    1  0.1383574E-004  0.2780346E+03  0.7818608E-02  0.1096767E+00
         -2   -1    0    0    0  501 -0.00000000000E+00  0.00000000000E+00  0.10344533034E+03  0.10344533038E+03  0.25500000000E-02 0. -1.
          2   -1    0    0  501    0  0.00000000000E+00 -0.00000000000E+00 -0.18682151066E+03  0.18682151068E+03  0.25500000000E-02 0.  1.
    5000001    1    1    2    0    0 -0.37813143998E+02  0.39280654364E+02 -0.57313502951E+02  0.14962166049E+03  0.12700000000E+03 0.  0.
   -5000001    1    1    2    0    0  0.37813143998E+02 -0.39280654364E+02 -0.26062677368E+02  0.14064518057E+03  0.12700000000E+03 0.  0.
<mgrwt>
<rscale>  0 0.27803462E+03</rscale>
<asrwt>0</asrwt>
<pdfrwt beam="1">  1        2 0.26688787E-01 0.27803462E+03</pdfrwt>
<pdfrwt beam="2">  1       -2 0.14777904E-01 0.27803462E+03</pdfrwt>
<totfact> 0.69594458E+03</totfact>
</mgrwt>
</event>
<event>
 4    1  0.1383574E-004  0.5874173E+03  0.7818608E-02  0.9931861E-01
         -2   -1    0    0    0  501 -0.00000000000E+00  0.00000000000E+00  0.13590610710E+03  0.13590610712E+03  0.25500000000E-02 0. -1.
          2   -1    0    0  501    0  0.00000000000E+00 -0.00000000000E+00 -0.63473793685E+03  0.63473793685E+03  0.25500000000E-02 0.  1.
    5000001    1    1    2    0    0 -0.51209668645E+02  0.25788377939E+03 -0.29109466764E+03  0.41230035091E+03  0.12700000000E+03 0.  0.
   -5000001    1    1    2    0    0  0.51209668645E+02 -0.25788377939E+03 -0.20773716211E+03  0.35834369306E+03  0.12700000000E+03 0.  0.
<mgrwt>
<rscale>  0 0.58741727E+03</rscale>
<asrwt>0</asrwt>
<pdfrwt beam="1">  1        2 0.90676847E-01 0.58741727E+03</pdfrwt>
<pdfrwt beam="2">  1       -2 0.19415158E-01 0.58741727E+03</pdfrwt>
<totfact> 0.11417431E+03</totfact>
</mgrwt>
</event>
<event>
 4    1  0.1383574E-004  0.3202501E+03  0.7818608E-02  0.1075534E+00
          2   -1    0    0  501    0  0.00000000000E+00  0.00000000000E+00  0.18994791825E+03  0.18994791826E+03  0.25500000000E-02 0. -1.
         -2   -1    0    0    0  501 -0.00000000000E+00 -0.00000000000E+00 -0.13498451632E+03  0.13498451634E+03  0.25500000000E-02 0.  1.
    5000001    1    1    2    0    0 -0.32471617292E+02 -0.91624555677E+02  0.19520789255E+02  0.16111960261E+03  0.12700000000E+03 0.  0.
   -5000001    1    1    2    0    0  0.32471617292E+02  0.91624555677E+02  0.35442612672E+02  0.16381283199E+03  0.12700000000E+03 0.  0.
<mgrwt>
<rscale>  0 0.32025008E+03</rscale>
<asrwt>0</asrwt>
<pdfrwt beam="1">  1        2 0.27135417E-01 0.32025008E+03</pdfrwt>
<pdfrwt beam="2">  1       -2 0.19283502E-01 0.32025008E+03</pdfrwt>
<totfact> 0.43921389E+03</totfact>
</mgrwt>
</event>
<event>
 4    1  0.1383574E-004  0.5094523E+03  0.7818608E-02  0.1011341E+00
         -2   -1    0    0    0  501 -0.00000000000E+00  0.00000000000E+00  0.22545058284E+03  0.22545058285E+03  0.25500000000E-02 0. -1.
          2   -1    0    0  501    0  0.00000000000E+00 -0.00000000000E+00 -0.28780323141E+03  0.28780323143E+03  0.25500000000E-02 0.  1.
    5000001    1    1    2    0    0  0.12968470984E+03  0.17871216389E+03 -0.31674774511E+02  0.25668746137E+03  0.12700000000E+03 0.  0.
   -5000001    1    1    2    0    0 -0.12968470984E+03 -0.17871216389E+03 -0.30677874063E+02  0.25656635291E+03  0.12700000000E+03 0.  0.
<mgrwt>
<rscale>  0 0.50945228E+03</rscale>
<asrwt>0</asrwt>
<pdfrwt beam="1">  1        2 0.41114747E-01 0.50945228E+03</pdfrwt>
<pdfrwt beam="2">  1       -2 0.32207226E-01 0.50945228E+03</pdfrwt>
<totfact> 0.11208656E+03</totfact>
</mgrwt>
</event>
<event>
 4    1  0.1383574E-004  0.3750426E+03  0.7818608E-02  0.1052781E+00
         -2   -1    0    0    0  501 -0.00000000000E+00  0.00000000000E+00  0.25338141185E+03  0.25338141187E+03  0.25500000000E-02 0. -1.
          2   -1    0    0  501    0  0.00000000000E+00 -0.00000000000E+00 -0.13877987429E+03  0.13877987431E+03  0.25500000000E-02 0.  1.
    5000001    1    1    2    0    0 -0.14898237050E+02  0.12983639455E+03  0.11057809323E+02  0.18256703417E+03  0.12700000000E+03 0.  0.
   -5000001    1    1    2    0    0  0.14898237050E+02 -0.12983639455E+03  0.10354372824E+03  0.20959425201E+03  0.12700000000E+03 0.  0.
<mgrwt>
<rscale>  0 0.37504261E+03</rscale>
<asrwt>0</asrwt>
<pdfrwt beam="1">  1        2 0.19825696E-01 0.37504261E+03</pdfrwt>
<pdfrwt beam="2">  1       -2 0.36197344E-01 0.37504261E+03</pdfrwt>
<totfact> 0.20358296E+03</totfact>
</mgrwt>
</event>
<event>
 4    1  0.1383574E-004  0.7815172E+03  0.7818608E-02  0.9587162E-01
          2   -1    0    0  501    0  0.00000000000E+00  0.00000000000E+00  0.65747425291E+03  0.65747425292E+03  0.25500000000E-02 0.  1.
         -2   -1    0    0    0  501 -0.00000000000E+00 -0.00000000000E+00 -0.23224072002E+03  0.23224072003E+03  0.25500000000E-02 0. -1.
    5000001    1    1    2    0    0  0.22100395981E+03 -0.29174074045E+03  0.15447924946E+03  0.41707103520E+03  0.12700000000E+03 0.  0.
   -5000001    1    1    2    0    0 -0.22100395981E+03  0.29174074045E+03  0.27075428344E+03  0.47264393775E+03  0.12700000000E+03 0.  0.
<mgrwt>
<rscale>  0 0.78151723E+03</rscale>
<asrwt>0</asrwt>
<pdfrwt beam="1">  1        2 0.93924893E-01 0.78151723E+03</pdfrwt>
<pdfrwt beam="2">  1       -2 0.33177246E-01 0.78151723E+03</pdfrwt>
<totfact> 0.41391267E+02</totfact>
</mgrwt>
</event>
<event>
 4    1  0.1383574E-004  0.6694626E+03  0.7818608E-02  0.9770929E-01
          2   -1    0    0  501    0  0.00000000000E+00  0.00000000000E+00  0.34416104461E+03  0.34416104462E+03  0.25500000000E-02 0.  1.
         -2   -1    0    0    0  501 -0.00000000000E+00 -0.00000000000E+00 -0.32555994113E+03  0.32555994114E+03  0.25500000000E-02 0. -1.
    5000001    1    1    2    0    0  0.27376294972E+03 -0.29828168909E+02  0.15105978175E+03  0.33879777148E+03  0.12700000000E+03 0.  0.
   -5000001    1    1    2    0    0 -0.27376294972E+03  0.29828168909E+02 -0.13245867826E+03  0.33092321428E+03  0.12700000000E+03 0.  0.
<mgrwt>
<rscale>  0 0.66946262E+03</rscale>
<asrwt>0</asrwt>
<pdfrwt beam="1">  1        2 0.49165863E-01 0.66946262E+03</pdfrwt>
<pdfrwt beam="2">  1       -2 0.46508563E-01 0.66946262E+03</pdfrwt>
<totfact> 0.45199683E+02</totfact>
</mgrwt>
</event>
<event>
 4    1  0.1383574E-004  0.3608148E+03  0.7818608E-02  0.1058262E+00
         -2   -1    0    0    0  501 -0.00000000000E+00  0.00000000000E+00  0.15505080014E+02  0.15505080223E+02  0.25500000000E-02 0. -1.
          2   -1    0    0  501    0  0.00000000000E+00 -0.00000000000E+00 -0.20991072119E+04  0.20991072119E+04  0.25500000000E-02 0.  1.
    5000001    1    1    2    0    0  0.10234841376E+03 -0.68537622049E+02 -0.12486102604E+04  0.12610825452E+04  0.12700000000E+03 0.  0.
   -5000001    1    1    2    0    0 -0.10234841376E+03  0.68537622049E+02 -0.83499187150E+03  0.85352974694E+03  0.12700000000E+03 0.  0.
<mgrwt>
<rscale>  0 0.36081478E+03</rscale>
<asrwt>0</asrwt>
<pdfrwt beam="1">  1        2 0.29987228E+00 0.36081478E+03</pdfrwt>
<pdfrwt beam="2">  1       -2 0.22150128E-02 0.36081478E+03</pdfrwt>
<totfact> 0.52541671E+03</totfact>
</mgrwt>
</event>
<event>
 4    1  0.1383574E-004  0.7741894E+03  0.7818608E-02  0.9598147E-01
          2   -1    0    0  501    0  0.00000000000E+00  0.00000000000E+00  0.13359247596E+04  0.13359247596E+04  0.25500000000E-02 0.  1.
         -2   -1    0    0    0  501 -0.00000000000E+00 -0.00000000000E+00 -0.11216372157E+03  0.11216372160E+03  0.25500000000E-02 0. -1.
    5000001    1    1    2    0    0  0.20792935869E+03 -0.28839979154E+03  0.45202219249E+03  0.58895001525E+03  0.12700000000E+03 0.  0.
   -5000001    1    1    2    0    0 -0.20792935869E+03  0.28839979154E+03  0.77173884558E+03  0.85913846599E+03  0.12700000000E+03 0.  0.
<mgrwt>
<rscale>  0 0.77418936E+03</rscale>
<asrwt>0</asrwt>
<pdfrwt beam="1">  1        2 0.19084639E+00 0.77418936E+03</pdfrwt>
<pdfrwt beam="2">  1       -2 0.16023389E-01 0.77418936E+03</pdfrwt>
<totfact> 0.56506088E+02</totfact>
</mgrwt>
</event>
<event>
 4    1  0.1383574E-004  0.2617381E+03  0.7818608E-02  0.1106103E+00
         -2   -1    0    0    0  501 -0.00000000000E+00  0.00000000000E+00  0.11502892242E+02  0.11502892525E+02  0.25500000000E-02 0.  1.
          2   -1    0    0  501    0  0.00000000000E+00 -0.00000000000E+00 -0.14889040981E+04  0.14889040981E+04  0.25500000000E-02 0. -1.
    5000001    1    1    2    0    0  0.24223426825E+02  0.19595737457E+02 -0.70894895707E+03  0.72090803232E+03  0.12700000000E+03 0.  0.
   -5000001    1    1    2    0    0 -0.24223426825E+02 -0.19595737457E+02 -0.76845224879E+03  0.77949895831E+03  0.12700000000E+03 0.  0.
<mgrwt>
<rscale>  0 0.26173806E+03</rscale>
<asrwt>0</asrwt>
<pdfrwt beam="1">  1        2 0.21270046E+00 0.26173806E+03</pdfrwt>
<pdfrwt beam="2">  1       -2 0.16432713E-02 0.26173806E+03</pdfrwt>
<totfact> 0.16271092E+04</totfact>
</mgrwt>
</event>
<event>
 4    1  0.1383574E-004  0.4878054E+03  0.7818608E-02  0.1017012E+00
         -2   -1    0    0    0  501 -0.00000000000E+00  0.00000000000E+00  0.74229867732E+02  0.74229867776E+02  0.25500000000E-02 0. -1.
          2   -1    0    0  501    0  0.00000000000E+00 -0.00000000000E+00 -0.80140965886E+03  0.80140965887E+03  0.25500000000E-02 0.  1.
    5000001    1    1    2    0    0  0.15207315316E+03 -0.12672096168E+02 -0.61791059281E+03  0.64902182293E+03  0.12700000000E+03 0.  0.
   -5000001    1    1    2    0    0 -0.15207315316E+03  0.12672096168E+02 -0.10926919832E+03  0.22661770371E+03  0.12700000000E+03 0.  0.
<mgrwt>
<rscale>  0 0.48780542E+03</rscale>
<asrwt>0</asrwt>
<pdfrwt beam="1">  1        2 0.11448709E+00 0.48780542E+03</pdfrwt>
<pdfrwt beam="2">  1       -2 0.10604267E-01 0.48780542E+03</pdfrwt>
<totfact> 0.23602300E+03</totfact>
</mgrwt>
</event>
<event>
 4    1  0.1383574E-004  0.3729082E+03  0.7818608E-02  0.1053587E+00
         -2   -1    0    0    0  501 -0.00000000000E+00  0.00000000000E+00  0.55184024566E+02  0.55184024625E+02  0.25500000000E-02 0. -1.
          2   -1    0    0  501    0  0.00000000000E+00 -0.00000000000E+00 -0.62998534286E+03  0.62998534287E+03  0.25500000000E-02 0.  1.
    5000001    1    1    2    0    0 -0.10124416955E+03 -0.20012154990E+02 -0.12321299550E+03  0.20484460080E+03  0.12700000000E+03 0.  0.
   -5000001    1    1    2    0    0  0.10124416955E+03  0.20012154990E+02 -0.45158832279E+03  0.48032476669E+03  0.12700000000E+03 0.  0.
<mgrwt>
<rscale>  0 0.37290817E+03</rscale>
<asrwt>0</asrwt>
<pdfrwt beam="1">  1        2 0.89997902E-01 0.37290817E+03</pdfrwt>
<pdfrwt beam="2">  1       -2 0.78834325E-02 0.37290817E+03</pdfrwt>
<totfact> 0.50596083E+03</totfact>
</mgrwt>
</event>
<event>
 4    1  0.1383574E-004  0.3281003E+03  0.7818608E-02  0.1071981E+00
          2   -1    0    0  501    0  0.00000000000E+00  0.00000000000E+00  0.16189362469E+04  0.16189362469E+04  0.25500000000E-02 0.  1.
         -2   -1    0    0    0  501 -0.00000000000E+00 -0.00000000000E+00 -0.16623544101E+02  0.16623544297E+02  0.25500000000E-02 0. -1.
    5000001    1    1    2    0    0  0.95512059184E+02  0.33220665064E+02  0.91883596556E+03  0.93306735965E+03  0.12700000000E+03 0.  0.
   -5000001    1    1    2    0    0 -0.95512059184E+02 -0.33220665064E+02  0.68347673724E+03  0.70249243155E+03  0.12700000000E+03 0.  0.
<mgrwt>
<rscale>  0 0.32810034E+03</rscale>
<asrwt>0</asrwt>
<pdfrwt beam="1">  1        2 0.23127653E+00 0.32810034E+03</pdfrwt>
<pdfrwt beam="2">  1       -2 0.23747928E-02 0.32810034E+03</pdfrwt>
<totfact> 0.81786114E+03</totfact>
</mgrwt>
</event>
<event>
 4    1  0.1383574E-004  0.3879490E+03  0.7818608E-02  0.1048034E+00
          2   -1    0    0  501    0  0.00000000000E+00  0.00000000000E+00  0.85904591145E+03  0.85904591145E+03  0.25500000000E-02 0.  1.
         -2   -1    0    0    0  501 -0.00000000000E+00 -0.00000000000E+00 -0.43799885104E+02  0.43799885179E+02  0.25500000000E-02 0. -1.
    5000001    1    1    2    0    0 -0.78282854210E+02 -0.82279290548E+02  0.62342901845E+03  0.64629004941E+03  0.12700000000E+03 0.  0.
   -5000001    1    1    2    0    0  0.78282854210E+02  0.82279290548E+02  0.19181700789E+03  0.25655574722E+03  0.12700000000E+03 0.  0.
<mgrwt>
<rscale>  0 0.38794903E+03</rscale>
<asrwt>0</asrwt>
<pdfrwt beam="1">  1        2 0.12272083E+00 0.38794903E+03</pdfrwt>
<pdfrwt beam="2">  1       -2 0.62571273E-02 0.38794903E+03</pdfrwt>
<totfact> 0.49710149E+03</totfact>
</mgrwt>
</event>
<event>
 4    1  0.1383574E-004  0.6858536E+03  0.7818608E-02  0.9741735E-01
         -2   -1    0    0    0  501 -0.00000000000E+00  0.00000000000E+00  0.24326521018E+03  0.24326521019E+03  0.25500000000E-02 0.  1.
          2   -1    0    0  501    0  0.00000000000E+00 -0.00000000000E+00 -0.48341802214E+03  0.48341802215E+03  0.25500000000E-02 0. -1.
    5000001    1    1    2    0    0 -0.26506478922E+03  0.10668507931E+03 -0.26927380829E+03  0.41264807338E+03  0.12700000000E+03 0.  0.
   -5000001    1    1    2    0    0  0.26506478922E+03 -0.10668507931E+03  0.29120996329E+02  0.31403515896E+03  0.12700000000E+03 0.  0.
<mgrwt>
<rscale>  0 0.68585359E+03</rscale>
<asrwt>0</asrwt>
<pdfrwt beam="1">  1        2 0.69059717E-01 0.68585359E+03</pdfrwt>
<pdfrwt beam="2">  1       -2 0.34752173E-01 0.68585359E+03</pdfrwt>
<totfact> 0.54493735E+02</totfact>
</mgrwt>
</event>
<event>
 4    1  0.1383574E-004  0.5827826E+03  0.7818608E-02  0.9941785E-01
         -2   -1    0    0    0  501 -0.00000000000E+00  0.00000000000E+00  0.55623910839E+02  0.55623910898E+02  0.25500000000E-02 0. -1.
          2   -1    0    0  501    0  0.00000000000E+00 -0.00000000000E+00 -0.15264816790E+04  0.15264816790E+04  0.25500000000E-02 0.  1.
    5000001    1    1    2    0    0  0.17342993502E+03  0.91898620070E+02 -0.26321489943E+03  0.35204315362E+03  0.12700000000E+03 0.  0.
   -5000001    1    1    2    0    0 -0.17342993502E+03 -0.91898620070E+02 -0.12076428687E+04  0.12300624363E+04  0.12700000000E+03 0.  0.
<mgrwt>
<rscale>  0 0.58278257E+03</rscale>
<asrwt>0</asrwt>
<pdfrwt beam="1">  1        2 0.21806879E+00 0.58278257E+03</pdfrwt>
<pdfrwt beam="2">  1       -2 0.79462739E-02 0.58278257E+03</pdfrwt>
<totfact> 0.14290132E+03</totfact>
</mgrwt>
</event>
<event>
 4    1  0.1383574E-004  0.3227671E+03  0.7818608E-02  0.1074383E+00
         -2   -1    0    0    0  501 -0.00000000000E+00  0.00000000000E+00  0.12416650185E+02  0.12416650446E+02  0.25500000000E-02 0. -1.
          2   -1    0    0  501    0  0.00000000000E+00 -0.00000000000E+00 -0.20975588045E+04  0.20975588045E+04  0.25500000000E-02 0.  1.
    5000001    1    1    2    0    0 -0.64289828285E+02  0.22440249572E+02 -0.15175344617E+04  0.15243610429E+04  0.12700000000E+03 0.  0.
   -5000001    1    1    2    0    0  0.64289828285E+02 -0.22440249572E+02 -0.56760769263E+03  0.58561441201E+03  0.12700000000E+03 0.  0.
<mgrwt>
<rscale>  0 0.32276712E+03</rscale>
<asrwt>0</asrwt>
<pdfrwt beam="1">  1        2 0.29965103E+00 0.32276712E+03</pdfrwt>
<pdfrwt beam="2">  1       -2 0.17738085E-02 0.32276712E+03</pdfrwt>
<totfact> 0.73123815E+03</totfact>
</mgrwt>
</event>
<event>
 4    1  0.1383574E-004  0.5507907E+03  0.7818608E-02  0.1001311E+00
         -2   -1    0    0    0  501 -0.00000000000E+00  0.00000000000E+00  0.36891588172E+02  0.36891588260E+02  0.25500000000E-02 0. -1.
          2   -1    0    0  501    0  0.00000000000E+00 -0.00000000000E+00 -0.20558233193E+04  0.20558233193E+04  0.25500000000E-02 0.  1.
    5000001    1    1    2    0    0 -0.66087871470E+01  0.23061093740E+03 -0.70341339813E+03  0.75109552600E+03  0.12700000000E+03 0.  0.
   -5000001    1    1    2    0    0  0.66087871470E+01 -0.23061093740E+03 -0.13155183330E+04  0.13416193815E+04  0.12700000000E+03 0.  0.
<mgrwt>
<rscale>  0 0.55079066E+03</rscale>
<asrwt>0</asrwt>
<pdfrwt beam="1">  1        2 0.29368897E+00 0.55079066E+03</pdfrwt>
<pdfrwt beam="2">  1       -2 0.52702282E-02 0.55079066E+03</pdfrwt>
<totfact> 0.14722575E+03</totfact>
</mgrwt>
</event>
<event>
 4    1  0.1383574E-004  0.6659606E+03  0.7818608E-02  0.9777283E-01
         -2   -1    0    0    0  501 -0.00000000000E+00  0.00000000000E+00  0.27519211783E+03  0.27519211785E+03  0.25500000000E-02 0. -1.
          2   -1    0    0  501    0  0.00000000000E+00 -0.00000000000E+00 -0.40290359755E+03  0.40290359756E+03  0.25500000000E-02 0.  1.
    5000001    1    1    2    0    0  0.47654708428E+02  0.28749137190E+03  0.37069695205E+02  0.32003972012E+03  0.12700000000E+03 0.  0.
   -5000001    1    1    2    0    0 -0.47654708428E+02 -0.28749137190E+03 -0.16478117492E+03  0.35805599529E+03  0.12700000000E+03 0.  0.
<mgrwt>
<rscale>  0 0.66596064E+03</rscale>
<asrwt>0</asrwt>
<pdfrwt beam="1">  1        2 0.57557657E-01 0.66596064E+03</pdfrwt>
<pdfrwt beam="2">  1       -2 0.39313160E-01 0.66596064E+03</pdfrwt>
<totfact> 0.52824976E+02</totfact>
</mgrwt>
</event>
<event>
 4    1  0.1383574E-004  0.7052803E+03  0.7818608E-02  0.9708244E-01
         -2   -1    0    0    0  501 -0.00000000000E+00  0.00000000000E+00  0.34359604402E+03  0.34359604403E+03  0.25500000000E-02 0. -1.
          2   -1    0    0  501    0  0.00000000000E+00 -0.00000000000E+00 -0.36192234826E+03  0.36192234827E+03  0.25500000000E-02 0.  1.
    5000001    1    1    2    0    0 -0.74766806933E+02 -0.31620835500E+03  0.42315736982E+02  0.35142199815E+03  0.12700000000E+03 0.  0.
   -5000001    1    1    2    0    0  0.74766806933E+02  0.31620835500E+03 -0.60642041221E+02  0.35409639415E+03  0.12700000000E+03 0.  0.
<mgrwt>
<rscale>  0 0.70528033E+03</rscale>
<asrwt>0</asrwt>
<pdfrwt beam="1">  1        2 0.51703193E-01 0.70528033E+03</pdfrwt>
<pdfrwt beam="2">  1       -2 0.49085149E-01 0.70528033E+03</pdfrwt>
<totfact> 0.38315553E+02</totfact>
</mgrwt>
</event>
<event>
 4    1  0.1383574E-004  0.8141954E+03  0.7818608E-02  0.9539694E-01
          2   -1    0    0  501    0  0.00000000000E+00  0.00000000000E+00  0.11887501367E+04  0.11887501367E+04  0.25500000000E-02 0.  1.
         -2   -1    0    0    0  501 -0.00000000000E+00 -0.00000000000E+00 -0.13941409164E+03  0.13941409167E+03  0.25500000000E-02 0. -1.
    5000001    1    1    2    0    0 -0.10562982762E+03 -0.35989749422E+03  0.37063999562E+03  0.54238996412E+03  0.12700000000E+03 0.  0.
   -5000001    1    1    2    0    0  0.10562982762E+03  0.35989749422E+03  0.67869604940E+03  0.78577426421E+03  0.12700000000E+03 0.  0.
<mgrwt>
<rscale>  0 0.81419536E+03</rscale>
<asrwt>0</asrwt>
<pdfrwt beam="1">  1        2 0.16982145E+00 0.81419536E+03</pdfrwt>
<pdfrwt beam="2">  1       -2 0.19916299E-01 0.81419536E+03</pdfrwt>
<totfact> 0.46773203E+02</totfact>
</mgrwt>
</event>
<event>
 4    1  0.1383574E-004  0.3611647E+03  0.7818608E-02  0.1058124E+00
         -2   -1    0    0    0  501 -0.00000000000E+00  0.00000000000E+00  0.25836755435E+02  0.25836755561E+02  0.25500000000E-02 0. -1.
          2   -1    0    0  501    0  0.00000000000E+00 -0.00000000000E+00 -0.12621549677E+04  0.12621549677E+04  0.25500000000E-02 0.  1.
    5000001    1    1    2    0    0 -0.26207276278E+02 -0.71839014678E+02 -0.98590029084E+03  0.99698347471E+03  0.12700000000E+03 0.  0.
   -5000001    1    1    2    0    0  0.26207276278E+02  0.71839014678E+02 -0.25041792146E+03  0.29100824859E+03  0.12700000000E+03 0.  0.
<mgrwt>
<rscale>  0 0.36116472E+03</rscale>
<asrwt>0</asrwt>
<pdfrwt beam="1">  1        2 0.18030781E+00 0.36116472E+03</pdfrwt>
<pdfrwt beam="2">  1       -2 0.36909659E-02 0.36116472E+03</pdfrwt>
<totfact> 0.64678470E+03</totfact>
</mgrwt>
</event>
<event>
 4    1  0.1383574E-004  0.3092503E+03  0.7818608E-02  0.1080706E+00
         -2   -1    0    0    0  501 -0.00000000000E+00  0.00000000000E+00  0.21366877353E+02  0.21366877505E+02  0.25500000000E-02 0. -1.
          2   -1    0    0  501    0  0.00000000000E+00 -0.00000000000E+00 -0.11189721949E+04  0.11189721949E+04  0.25500000000E-02 0.  1.
    5000001    1    1    2    0    0 -0.86883783422E+02 -0.13832493515E+02 -0.57206915833E+03  0.59256413291E+03  0.12700000000E+03 0.  0.
   -5000001    1    1    2    0    0  0.86883783422E+02  0.13832493515E+02 -0.52553615925E+03  0.54777493954E+03  0.12700000000E+03 0.  0.
<mgrwt>
<rscale>  0 0.30925033E+03</rscale>
<asrwt>0</asrwt>
<pdfrwt beam="1">  1        2 0.15985313E+00 0.30925033E+03</pdfrwt>
<pdfrwt beam="2">  1       -2 0.30524118E-02 0.30925033E+03</pdfrwt>
<totfact> 0.10279659E+04</totfact>
</mgrwt>
</event>
<event>
 4    1  0.1383574E-004  0.4002681E+03  0.7818608E-02  0.1043687E+00
          2   -1    0    0  501    0  0.00000000000E+00  0.00000000000E+00  0.10279545806E+04  0.10279545806E+04  0.25500000000E-02 0.  1.
         -2   -1    0    0    0  501 -0.00000000000E+00 -0.00000000000E+00 -0.38964411370E+02  0.38964411453E+02  0.25500000000E-02 0. -1.
    5000001    1    1    2    0    0 -0.13618727004E+03 -0.72736018028E+02  0.51937793125E+03  0.55652487484E+03  0.12700000000E+03 0.  0.
   -5000001    1    1    2    0    0  0.13618727004E+03  0.72736018028E+02  0.46961223800E+03  0.51039411725E+03  0.12700000000E+03 0.  0.
<mgrwt>
<rscale>  0 0.40026814E+03</rscale>
<asrwt>0</asrwt>
<pdfrwt beam="1">  1        2 0.14685067E+00 0.40026814E+03</pdfrwt>
<pdfrwt beam="2">  1       -2 0.55663440E-02 0.40026814E+03</pdfrwt>
<totfact> 0.46844153E+03</totfact>
</mgrwt>
</event>
<event>
 4    1  0.1383574E-004  0.3087680E+03  0.7818608E-02  0.1080938E+00
          2   -1    0    0  501    0  0.00000000000E+00  0.00000000000E+00  0.89394102761E+03  0.89394102762E+03  0.25500000000E-02 0.  1.
         -2   -1    0    0    0  501 -0.00000000000E+00 -0.00000000000E+00 -0.26662184932E+02  0.26662185054E+02  0.25500000000E-02 0. -1.
    5000001    1    1    2    0    0 -0.81525714015E+02  0.32534324561E+02  0.43153805362E+03  0.45832195675E+03  0.12700000000E+03 0.  0.
   -5000001    1    1    2    0    0  0.81525714015E+02 -0.32534324561E+02  0.43574078906E+03  0.46228125592E+03  0.12700000000E+03 0.  0.
<mgrwt>
<rscale>  0 0.30876801E+03</rscale>
<asrwt>0</asrwt>
<pdfrwt beam="1">  1        2 0.12770588E+00 0.30876801E+03</pdfrwt>
<pdfrwt beam="2">  1       -2 0.38088830E-02 0.30876801E+03</pdfrwt>
<totfact> 0.10026491E+04</totfact>
</mgrwt>
</event>
<event>
 4    1  0.1383574E-004  0.7309454E+03  0.7818608E-02  0.9665728E-01
          2   -1    0    0  501    0  0.00000000000E+00  0.00000000000E+00  0.45425815530E+03  0.45425815530E+03  0.25500000000E-02 0.  1.
         -2   -1    0    0    0  501 -0.00000000000E+00 -0.00000000000E+00 -0.29404047138E+03  0.29404047139E+03  0.25500000000E-02 0. -1.
    5000001    1    1    2    0    0  0.21163263260E+03 -0.24089397438E+03 -0.43687647958E+02  0.34764333541E+03  0.12700000000E+03 0.  0.
   -5000001    1    1    2    0    0 -0.21163263260E+03  0.24089397438E+03  0.20390533187E+03  0.40065529129E+03  0.12700000000E+03 0.  0.
<mgrwt>
<rscale>  0 0.73094537E+03</rscale>
<asrwt>0</asrwt>
<pdfrwt beam="1">  1        2 0.64894021E-01 0.73094537E+03</pdfrwt>
<pdfrwt beam="2">  1       -2 0.42005782E-01 0.73094537E+03</pdfrwt>
<totfact> 0.40505946E+02</totfact>
</mgrwt>
</event>
<event>
 4    1  0.1383574E-004  0.4001230E+03  0.7818608E-02  0.1043737E+00
          2   -1    0    0  501    0  0.00000000000E+00  0.00000000000E+00  0.66366530076E+03  0.66366530076E+03  0.25500000000E-02 0.  1.
         -2   -1    0    0    0  501 -0.00000000000E+00 -0.00000000000E+00 -0.60308409466E+02  0.60308409520E+02  0.25500000000E-02 0. -1.
    5000001    1    1    2    0    0 -0.40030719195E+02  0.12210970892E+03  0.45714139204E+03  0.49154907365E+03  0.12700000000E+03 0.  0.
   -5000001    1    1    2    0    0  0.40030719195E+02 -0.12210970892E+03  0.14621549926E+03  0.23242463664E+03  0.12700000000E+03 0.  0.
<mgrwt>
<rscale>  0 0.40012297E+03</rscale>
<asrwt>0</asrwt>
<pdfrwt beam="1">  1        2 0.94809329E-01 0.40012297E+03</pdfrwt>
<pdfrwt beam="2">  1       -2 0.86154871E-02 0.40012297E+03</pdfrwt>
<totfact> 0.41413248E+03</totfact>
</mgrwt>
</event>
<event>
 4    1  0.1383574E-004  0.3609584E+03  0.7818608E-02  0.1058205E+00
         -2   -1    0    0    0  501 -0.00000000000E+00  0.00000000000E+00  0.29949317193E+02  0.29949317302E+02  0.25500000000E-02 0.  1.
          2   -1    0    0  501    0  0.00000000000E+00 -0.00000000000E+00 -0.10875957406E+04  0.10875957406E+04  0.25500000000E-02 0. -1.
    5000001    1    1    2    0    0 -0.49902215332E+02  0.71858974856E+02 -0.23855632685E+03  0.28406348664E+03  0.12700000000E+03 0.  0.
   -5000001    1    1    2    0    0  0.49902215332E+02 -0.71858974856E+02 -0.81909009659E+03  0.83348157130E+03  0.12700000000E+03 0.  0.
<mgrwt>
<rscale>  0 0.36095845E+03</rscale>
<asrwt>0</asrwt>
<pdfrwt beam="1">  1        2 0.15537080E+00 0.36095845E+03</pdfrwt>
<pdfrwt beam="2">  1       -2 0.42784746E-02 0.36095845E+03</pdfrwt>
<totfact> 0.64614266E+03</totfact>
</mgrwt>
</event>
<event>
 4    1  0.1383574E-004  0.4500693E+03  0.7818608E-02  0.1027701E+00
         -2   -1    0    0    0  501 -0.00000000000E+00  0.00000000000E+00  0.31720362935E+02  0.31720363038E+02  0.25500000000E-02 0. -1.
          2   -1    0    0  501    0  0.00000000000E+00 -0.00000000000E+00 -0.15964693290E+04  0.15964693290E+04  0.25500000000E-02 0.  1.
    5000001    1    1    2    0    0  0.18319191143E+03  0.10579685494E+02 -0.88724746421E+03  0.91488156005E+03  0.12700000000E+03 0.  0.
   -5000001    1    1    2    0    0 -0.18319191143E+03 -0.10579685494E+02 -0.67750150183E+03  0.71330813197E+03  0.12700000000E+03 0.  0.
<mgrwt>
<rscale>  0 0.45006927E+03</rscale>
<asrwt>0</asrwt>
<pdfrwt beam="1">  1        2 0.22806700E+00 0.45006927E+03</pdfrwt>
<pdfrwt beam="2">  1       -2 0.45314814E-02 0.45006927E+03</pdfrwt>
<totfact> 0.31721826E+03</totfact>
</mgrwt>
</event>
<event>
 4    1  0.1383574E-004  0.4217779E+03  0.7818608E-02  0.1036489E+00
         -2   -1    0    0    0  501 -0.00000000000E+00  0.00000000000E+00  0.28336714819E+02  0.28336714933E+02  0.25500000000E-02 0. -1.
          2   -1    0    0  501    0  0.00000000000E+00 -0.00000000000E+00 -0.15694882460E+04  0.15694882460E+04  0.25500000000E-02 0.  1.
    5000001    1    1    2    0    0  0.16350367967E+03 -0.39548165080E+02 -0.79672067263E+03  0.82413005092E+03  0.12700000000E+03 0.  0.
   -5000001    1    1    2    0    0 -0.16350367967E+03  0.39548165080E+02 -0.74443085850E+03  0.77369490997E+03  0.12700000000E+03 0.  0.
<mgrwt>
<rscale>  0 0.42177786E+03</rscale>
<asrwt>0</asrwt>
<pdfrwt beam="1">  1        2 0.22421255E+00 0.42177786E+03</pdfrwt>
<pdfrwt beam="2">  1       -2 0.40481031E-02 0.42177786E+03</pdfrwt>
<totfact> 0.38909976E+03</totfact>
</mgrwt>
</event>
<event>
 4    1  0.1383574E-004  0.3912963E+03  0.7818608E-02  0.1046836E+00
          2   -1    0    0  501    0  0.00000000000E+00  0.00000000000E+00  0.11130073108E+04  0.11130073108E+04  0.25500000000E-02 0.  1.
         -2   -1    0    0    0  501 -0.00000000000E+00 -0.00000000000E+00 -0.34391689375E+02  0.34391689470E+02  0.25500000000E-02 0. -1.
    5000001    1    1    2    0    0 -0.99575429347E+02 -0.11055159043E+03  0.54958404947E+03  0.58335970697E+03  0.12700000000E+03 0.  0.
   -5000001    1    1    2    0    0  0.99575429347E+02  0.11055159043E+03  0.52903157199E+03  0.56403929335E+03  0.12700000000E+03 0.  0.
<mgrwt>
<rscale>  0 0.39129632E+03</rscale>
<asrwt>0</asrwt>
<pdfrwt beam="1">  1        2 0.15900101E+00 0.39129632E+03</pdfrwt>
<pdfrwt beam="2">  1       -2 0.49130996E-02 0.39129632E+03</pdfrwt>
<totfact> 0.50656081E+03</totfact>
</mgrwt>
</event>
<event>
 4    1  0.1383574E-004  0.2734577E+03  0.7818608E-02  0.1099317E+00
         -2   -1    0    0    0  501 -0.00000000000E+00  0.00000000000E+00  0.16882405502E+02  0.16882405695E+02  0.25500000000E-02 0. -1.
          2   -1    0    0  501    0  0.00000000000E+00 -0.00000000000E+00 -0.11073527117E+04  0.11073527117E+04  0.25500000000E-02 0.  1.
    5000001    1    1    2    0    0  0.74483136773E+01  0.40946583180E+02 -0.66393934577E+03  0.67725663888E+03  0.12700000000E+03 0.  0.
   -5000001    1    1    2    0    0 -0.74483136773E+01 -0.40946583180E+02 -0.42653096042E+03  0.44697847851E+03  0.12700000000E+03 0.  0.
<mgrwt>
<rscale>  0 0.27345769E+03</rscale>
<asrwt>0</asrwt>
<pdfrwt beam="1">  1        2 0.15819320E+00 0.27345769E+03</pdfrwt>
<pdfrwt beam="2">  1       -2 0.24117729E-02 0.27345769E+03</pdfrwt>
<totfact> 0.14751236E+04</totfact>
</mgrwt>
</event>
<event>
 4    1  0.1383574E-004  0.3890164E+03  0.7818608E-02  0.1047651E+00
          2   -1    0    0  501    0  0.00000000000E+00  0.00000000000E+00  0.25804933143E+03  0.25804933145E+03  0.25500000000E-02 0.  1.
         -2   -1    0    0    0  501 -0.00000000000E+00 -0.00000000000E+00 -0.14661317728E+03  0.14661317730E+03  0.25500000000E-02 0. -1.
    5000001    1    1    2    0    0 -0.76781564975E+02  0.12503640472E+03  0.69475790978E+02  0.20611986017E+03  0.12700000000E+03 0.  0.
   -5000001    1    1    2    0    0  0.76781564975E+02 -0.12503640472E+03  0.41960363175E+02  0.19854264858E+03  0.12700000000E+03 0.  0.
<mgrwt>
<rscale>  0 0.38901636E+03</rscale>
<asrwt>0</asrwt>
<pdfrwt beam="1">  1        2 0.36864190E-01 0.38901636E+03</pdfrwt>
<pdfrwt beam="2">  1       -2 0.20944740E-01 0.38901636E+03</pdfrwt>
<totfact> 0.27295701E+03</totfact>
</mgrwt>
</event>
<event>
 4    1  0.1383574E-004  0.4835166E+03  0.7818608E-02  0.1018173E+00
          2   -1    0    0  501    0  0.00000000000E+00  0.00000000000E+00  0.55801246445E+03  0.55801246445E+03  0.25500000000E-02 0.  1.
         -2   -1    0    0    0  501 -0.00000000000E+00 -0.00000000000E+00 -0.10474153161E+03  0.10474153164E+03  0.25500000000E-02 0. -1.
    5000001    1    1    2    0    0 -0.62837568631E+02 -0.17424476810E+03  0.10397330879E+03  0.24748585451E+03  0.12700000000E+03 0.  0.
   -5000001    1    1    2    0    0  0.62837568631E+02  0.17424476810E+03  0.34929762405E+03  0.41526814158E+03  0.12700000000E+03 0.  0.
<mgrwt>
<rscale>  0 0.48351662E+03</rscale>
<asrwt>0</asrwt>
<pdfrwt beam="1">  1        2 0.79716065E-01 0.48351662E+03</pdfrwt>
<pdfrwt beam="2">  1       -2 0.14963076E-01 0.48351662E+03</pdfrwt>
<totfact> 0.20690517E+03</totfact>
</mgrwt>
</event>
<event>
 4    1  0.1383574E-004  0.4120176E+03  0.7818608E-02  0.1039696E+00
          2   -1    0    0  501    0  0.00000000000E+00  0.00000000000E+00  0.95228069587E+03  0.95228069587E+03  0.25500000000E-02 0.  1.
         -2   -1    0    0    0  501 -0.00000000000E+00 -0.00000000000E+00 -0.44566289657E+02  0.44566289730E+02  0.25500000000E-02 0. -1.
    5000001    1    1    2    0    0  0.73197338233E+02 -0.13843307906E+03  0.55619215093E+03  0.59160821196E+03  0.12700000000E+03 0.  0.
   -5000001    1    1    2    0    0 -0.73197338233E+02  0.13843307906E+03  0.35152225528E+03  0.40523877364E+03  0.12700000000E+03 0.  0.
<mgrwt>
<rscale>  0 0.41201756E+03</rscale>
<asrwt>0</asrwt>
<pdfrwt beam="1">  1        2 0.13604010E+00 0.41201756E+03</pdfrwt>
<pdfrwt beam="2">  1       -2 0.63666129E-02 0.41201756E+03</pdfrwt>
<totfact> 0.42270953E+03</totfact>
</mgrwt>
</event>
<event>
 4    1  0.1383574E-004  0.3570469E+03  0.7818608E-02  0.1059759E+00
         -2   -1    0    0    0  501 -0.00000000000E+00  0.00000000000E+00  0.12463008399E+02  0.12463008660E+02  0.25500000000E-02 0. -1.
          2   -1    0    0  501    0  0.00000000000E+00 -0.00000000000E+00 -0.25572169072E+04  0.25572169072E+04  0.25500000000E-02 0.  1.
    5000001    1    1    2    0    0 -0.63990814019E+02  0.96201307243E+02 -0.92037627082E+03  0.93625370263E+03  0.12700000000E+03 0.  0.
   -5000001    1    1    2    0    0  0.63990814019E+02 -0.96201307243E+02 -0.16243776280E+04  0.16334262132E+04  0.12700000000E+03 0.  0.
<mgrwt>
<rscale>  0 0.35704687E+03</rscale>
<asrwt>0</asrwt>
<pdfrwt beam="1">  1        2 0.36531637E+00 0.35704687E+03</pdfrwt>
<pdfrwt beam="2">  1       -2 0.17804314E-02 0.35704687E+03</pdfrwt>
<totfact> 0.42941389E+03</totfact>
</mgrwt>
</event>
<event>
 4    1  0.1383574E-004  0.1747461E+04  0.7818608E-02  0.8734749E-01
         -2   -1    0    0    0  501 -0.00000000000E+00  0.00000000000E+00  0.48597806397E+03  0.48597806398E+03  0.25500000000E-02 0. -1.
          2   -1    0    0  501    0  0.00000000000E+00 -0.00000000000E+00 -0.15708631891E+04  0.15708631891E+04  0.25500000000E-02 0.  1.
    5000001    1    1    2    0    0 -0.71726661024E+03 -0.18066816989E+02 -0.11099668199E+04  0.13277624566E+04  0.12700000000E+03 0.  0.
   -5000001    1    1    2    0    0  0.71726661024E+03  0.18066816989E+02  0.25081694729E+02  0.72907879646E+03  0.12700000000E+03 0.  0.
<mgrwt>
<rscale>  0 0.17474611E+04</rscale>
<asrwt>0</asrwt>
<pdfrwt beam="1">  1        2 0.22440902E+00 0.17474611E+04</pdfrwt>
<pdfrwt beam="2">  1       -2 0.69425438E-01 0.17474611E+04</pdfrwt>
<totfact> 0.24120180E+01</totfact>
</mgrwt>
</event>
<event>
 4    1  0.1383574E-004  0.7910181E+03  0.7818608E-02  0.9573110E-01
         -2   -1    0    0    0  501 -0.00000000000E+00  0.00000000000E+00  0.78163657782E+02  0.78163657823E+02  0.25500000000E-02 0. -1.
          2   -1    0    0  501    0  0.00000000000E+00 -0.00000000000E+00 -0.20012803187E+04  0.20012803187E+04  0.25500000000E-02 0.  1.
    5000001    1    1    2    0    0  0.26821649275E+03 -0.25831110913E+03 -0.10678118970E+04  0.11379876816E+04  0.12700000000E+03 0.  0.
   -5000001    1    1    2    0    0 -0.26821649275E+03  0.25831110913E+03 -0.85530476387E+03  0.94145629488E+03  0.12700000000E+03 0.  0.
<mgrwt>
<rscale>  0 0.79101805E+03</rscale>
<asrwt>0</asrwt>
<pdfrwt beam="1">  1        2 0.28589716E+00 0.79101805E+03</pdfrwt>
<pdfrwt beam="2">  1       -2 0.11166238E-01 0.79101805E+03</pdfrwt>
<totfact> 0.46697131E+02</totfact>
</mgrwt>
</event>
<event>
 4    1  0.1383574E-004  0.4911006E+03  0.7818608E-02  0.1016128E+00
         -2   -1    0    0    0  501 -0.00000000000E+00  0.00000000000E+00  0.47351924540E+02  0.47351924609E+02  0.25500000000E-02 0. -1.
          2   -1    0    0  501    0  0.00000000000E+00 -0.00000000000E+00 -0.12733370290E+04  0.12733370290E+04  0.25500000000E-02 0.  1.
    5000001    1    1    2    0    0  0.51790973622E+02  0.16599207713E+03 -0.93039482950E+03  0.95498649906E+03  0.12700000000E+03 0.  0.
   -5000001    1    1    2    0    0 -0.51790973622E+02 -0.16599207713E+03 -0.29559027496E+03  0.36570245456E+03  0.12700000000E+03 0.  0.
<mgrwt>
<rscale>  0 0.49110064E+03</rscale>
<asrwt>0</asrwt>
<pdfrwt beam="1">  1        2 0.18190527E+00 0.49110064E+03</pdfrwt>
<pdfrwt beam="2">  1       -2 0.67645614E-02 0.49110064E+03</pdfrwt>
<totfact> 0.25151512E+03</totfact>
</mgrwt>
</event>
<event>
 4    1  0.1383574E-004  0.3289947E+03  0.7818608E-02  0.1071583E+00
         -2   -1    0    0    0  501 -0.00000000000E+00  0.00000000000E+00  0.76551119273E+02  0.76551119315E+02  0.25500000000E-02 0. -1.
          2   -1    0    0  501    0  0.00000000000E+00 -0.00000000000E+00 -0.35348108320E+03  0.35348108321E+03  0.25500000000E-02 0.  1.
    5000001    1    1    2    0    0 -0.58310811416E+01  0.10256880532E+03 -0.11311880076E+03  0.19869379562E+03  0.12700000000E+03 0.  0.
   -5000001    1    1    2    0    0  0.58310811416E+01 -0.10256880532E+03 -0.16381116316E+03  0.23133840690E+03  0.12700000000E+03 0.  0.
<mgrwt>
<rscale>  0 0.32899467E+03</rscale>
<asrwt>0</asrwt>
<pdfrwt beam="1">  1        2 0.50497297E-01 0.32899467E+03</pdfrwt>
<pdfrwt beam="2">  1       -2 0.10935874E-01 0.32899467E+03</pdfrwt>
<totfact> 0.57050410E+03</totfact>
</mgrwt>
</event>
<event>
 4    1  0.1383574E-004  0.3873968E+03  0.7818608E-02  0.1048233E+00
          2   -1    0    0  501    0  0.00000000000E+00  0.00000000000E+00  0.17163785635E+04  0.17163785635E+04  0.25500000000E-02 0.  1.
         -2   -1    0    0    0  501 -0.00000000000E+00 -0.00000000000E+00 -0.21859440847E+02  0.21859440996E+02  0.25500000000E-02 0. -1.
    5000001    1    1    2    0    0 -0.82208848486E+02 -0.32980536549E+02  0.32507058667E+03  0.36006374003E+03  0.12700000000E+03 0.  0.
   -5000001    1    1    2    0    0  0.82208848486E+02  0.32980536549E+02  0.13694485360E+04  0.13781742645E+04  0.12700000000E+03 0.  0.
<mgrwt>
<rscale>  0 0.38739683E+03</rscale>
<asrwt>0</asrwt>
<pdfrwt beam="1">  1        2 0.24519690E+00 0.38739683E+03</pdfrwt>
<pdfrwt beam="2">  1       -2 0.31227777E-02 0.38739683E+03</pdfrwt>
<totfact> 0.48607295E+03</totfact>
</mgrwt>
</event>
<event>
 4    1  0.1383574E-004  0.4600198E+03  0.7818608E-02  0.1024775E+00
          2   -1    0    0  501    0  0.00000000000E+00  0.00000000000E+00  0.54512304860E+03  0.54512304860E+03  0.25500000000E-02 0.  1.
         -2   -1    0    0    0  501 -0.00000000000E+00 -0.00000000000E+00 -0.97050658996E+02  0.97050659029E+02  0.25500000000E-02 0. -1.
    5000001    1    1    2    0    0  0.18223597965E+03 -0.38944136359E+02  0.28722527215E+03  0.36517660796E+03  0.12700000000E+03 0.  0.
   -5000001    1    1    2    0    0 -0.18223597965E+03  0.38944136359E+02  0.16084711745E+03  0.27699709968E+03  0.12700000000E+03 0.  0.
<mgrwt>
<rscale>  0 0.46001979E+03</rscale>
<asrwt>0</asrwt>
<pdfrwt beam="1">  1        2 0.77874720E-01 0.46001979E+03</pdfrwt>
<pdfrwt beam="2">  1       -2 0.13864380E-01 0.46001979E+03</pdfrwt>
<totfact> 0.24124975E+03</totfact>
</mgrwt>
</event>
<event>
 4    1  0.1383574E-004  0.1106368E+04  0.7818608E-02  0.9199008E-01
          2   -1    0    0  501    0  0.00000000000E+00  0.00000000000E+00  0.26516787187E+04  0.26516787187E+04  0.25500000000E-02 0.  1.
         -2   -1    0    0    0  501 -0.00000000000E+00 -0.00000000000E+00 -0.11540323967E+03  0.11540323970E+03  0.25500000000E-02 0. -1.
    5000001    1    1    2    0    0  0.34229315532E+03 -0.12549905576E+03  0.22590360832E+04  0.22917869976E+04  0.12700000000E+03 0.  0.
   -5000001    1    1    2    0    0 -0.34229315532E+03  0.12549905576E+03  0.27723939585E+03  0.47529496082E+03  0.12700000000E+03 0.  0.
<mgrwt>
<rscale>  0 0.11063676E+04</rscale>
<asrwt>0</asrwt>
<pdfrwt beam="1">  1        2 0.37881126E+00 0.11063676E+04</pdfrwt>
<pdfrwt beam="2">  1       -2 0.16486176E-01 0.11063676E+04</pdfrwt>
<totfact> 0.10955760E+02</totfact>
</mgrwt>
</event>
<event>
 4    1  0.1383574E-004  0.4604102E+03  0.7818608E-02  0.1024662E+00
         -2   -1    0    0    0  501 -0.00000000000E+00  0.00000000000E+00  0.89599890537E+02  0.89599890573E+02  0.25500000000E-02 0. -1.
          2   -1    0    0  501    0  0.00000000000E+00 -0.00000000000E+00 -0.59145585448E+03  0.59145585448E+03  0.25500000000E-02 0.  1.
    5000001    1    1    2    0    0 -0.63021347567E+02 -0.16434946641E+03 -0.36438596504E+03  0.42413272554E+03  0.12700000000E+03 0.  0.
   -5000001    1    1    2    0    0  0.63021347567E+02  0.16434946641E+03 -0.13746999890E+03  0.25692301952E+03  0.12700000000E+03 0.  0.
<mgrwt>
<rscale>  0 0.46041016E+03</rscale>
<asrwt>0</asrwt>
<pdfrwt beam="1">  1        2 0.84493691E-01 0.46041016E+03</pdfrwt>
<pdfrwt beam="2">  1       -2 0.12799985E-01 0.46041016E+03</pdfrwt>
<totfact> 0.25059883E+03</totfact>
</mgrwt>
</event>
<event>
 4    1  0.1383574E-004  0.4046179E+03  0.7818608E-02  0.1042192E+00
          2   -1    0    0  501    0  0.00000000000E+00  0.00000000000E+00  0.54939202136E+03  0.54939202137E+03  0.25500000000E-02 0.  1.
         -2   -1    0    0    0  501 -0.00000000000E+00 -0.00000000000E+00 -0.74498536170E+02  0.74498536214E+02  0.25500000000E-02 0. -1.
    5000001    1    1    2    0    0 -0.10922232610E+03  0.11926782599E+02  0.63488188482E+02  0.17953137536E+03  0.12700000000E+03 0.  0.
   -5000001    1    1    2    0    0  0.10922232610E+03 -0.11926782599E+02  0.41140529671E+03  0.44435918222E+03  0.12700000000E+03 0.  0.
<mgrwt>
<rscale>  0 0.40461785E+03</rscale>
<asrwt>0</asrwt>
<pdfrwt beam="1">  1        2 0.78484575E-01 0.40461785E+03</pdfrwt>
<pdfrwt beam="2">  1       -2 0.10642648E-01 0.40461785E+03</pdfrwt>
<totfact> 0.36793670E+03</totfact>
</mgrwt>
</event>
<event>
 4    1  0.1383574E-004  0.4953936E+03  0.7818608E-02  0.1014988E+00
          2   -1    0    0  501    0  0.00000000000E+00  0.00000000000E+00  0.38991604000E+04  0.38991604000E+04  0.25500000000E-02 0.  1.
         -2   -1    0    0    0  501 -0.00000000000E+00 -0.00000000000E+00 -0.15735106082E+02  0.15735106288E+02  0.25500000000E-02 0. -1.
    5000001    1    1    2    0    0 -0.11077089181E+03 -0.17171755607E+03  0.14763581954E+04  0.14958340919E+04  0.12700000000E+03 0.  0.
   -5000001    1    1    2    0    0  0.11077089181E+03  0.17171755607E+03  0.24070670985E+04  0.24190614143E+04  0.12700000000E+03 0.  0.
<mgrwt>
<rscale>  0 0.49539359E+03</rscale>
<asrwt>0</asrwt>
<pdfrwt beam="1">  1        2 0.55702313E+00 0.49539359E+03</pdfrwt>
<pdfrwt beam="2">  1       -2 0.22478714E-02 0.49539359E+03</pdfrwt>
<totfact> 0.52344177E+02</totfact>
</mgrwt>
</event>
<event>
 4    1  0.1383574E-004  0.6104324E+03  0.7818608E-02  0.9883995E-01
          2   -1    0    0  501    0  0.00000000000E+00  0.00000000000E+00  0.36956533736E+04  0.36956533736E+04  0.25500000000E-02 0.  1.
         -2   -1    0    0    0  501 -0.00000000000E+00 -0.00000000000E+00 -0.25207160947E+02  0.25207161076E+02  0.25500000000E-02 0. -1.
    5000001    1    1    2    0    0 -0.49157469749E+02 -0.19146056286E+03  0.30227308580E+04  0.30318483544E+04  0.12700000000E+03 0.  0.
   -5000001    1    1    2    0    0  0.49157469749E+02  0.19146056286E+03  0.64771535466E+03  0.68901218032E+03  0.12700000000E+03 0.  0.
<mgrwt>
<rscale>  0 0.61043240E+03</rscale>
<asrwt>0</asrwt>
<pdfrwt beam="1">  1        2 0.52794993E+00 0.61043240E+03</pdfrwt>
<pdfrwt beam="2">  1       -2 0.36010268E-02 0.61043240E+03</pdfrwt>
<totfact> 0.33946263E+02</totfact>
</mgrwt>
</event>
<event>
 4    1  0.1383574E-004  0.3086388E+03  0.7818608E-02  0.1081000E+00
          2   -1    0    0  501    0  0.00000000000E+00  0.00000000000E+00  0.11120518471E+04  0.11120518471E+04  0.25500000000E-02 0.  1.
         -2   -1    0    0    0  501 -0.00000000000E+00 -0.00000000000E+00 -0.21414902907E+02  0.21414903059E+02  0.25500000000E-02 0. -1.
    5000001    1    1    2    0    0  0.79929984530E+02 -0.94277158709E+01  0.41768769933E+03  0.44392532979E+03  0.12700000000E+03 0.  0.
   -5000001    1    1    2    0    0 -0.79929984530E+02  0.94277158709E+01  0.67294924489E+03  0.68954142040E+03  0.12700000000E+03 0.  0.
<mgrwt>
<rscale>  0 0.30863883E+03</rscale>
<asrwt>0</asrwt>
<pdfrwt beam="1">  1        2 0.15886455E+00 0.30863883E+03</pdfrwt>
<pdfrwt beam="2">  1       -2 0.30592718E-02 0.30863883E+03</pdfrwt>
<totfact> 0.10336928E+04</totfact>
</mgrwt>
</event>
<event>
 4    1  0.1383574E-004  0.3501994E+03  0.7818608E-02  0.1062533E+00
          2   -1    0    0  501    0  0.00000000000E+00  0.00000000000E+00  0.26722920551E+03  0.26722920552E+03  0.25500000000E-02 0.  1.
         -2   -1    0    0    0  501 -0.00000000000E+00 -0.00000000000E+00 -0.11473260217E+03  0.11473260220E+03  0.25500000000E-02 0. -1.
    5000001    1    1    2    0    0  0.11295644519E+03  0.40970591783E+02  0.65721271867E+02  0.18677803264E+03  0.12700000000E+03 0.  0.
   -5000001    1    1    2    0    0 -0.11295644519E+03 -0.40970591783E+02  0.86775331475E+02  0.19518377508E+03  0.12700000000E+03 0.  0.
<mgrwt>
<rscale>  0 0.35019938E+03</rscale>
<asrwt>0</asrwt>
<pdfrwt beam="1">  1        2 0.38175601E-01 0.35019938E+03</pdfrwt>
<pdfrwt beam="2">  1       -2 0.16390372E-01 0.35019938E+03</pdfrwt>
<totfact> 0.39829977E+03</totfact>
</mgrwt>
</event>
<event>
 4    1  0.1383574E-004  0.5441722E+03  0.7818608E-02  0.1002852E+00
          2   -1    0    0  501    0  0.00000000000E+00  0.00000000000E+00  0.11721038979E+04  0.11721038979E+04  0.25500000000E-02 0.  1.
         -2   -1    0    0    0  501 -0.00000000000E+00 -0.00000000000E+00 -0.63160653398E+02  0.63160653449E+02  0.25500000000E-02 0. -1.
    5000001    1    1    2    0    0  0.15576774014E+03 -0.18246838397E+03  0.59654596784E+03  0.65540399127E+03  0.12700000000E+03 0.  0.
   -5000001    1    1    2    0    0 -0.15576774014E+03  0.18246838397E+03  0.51239727669E+03  0.57986056011E+03  0.12700000000E+03 0.  0.
<mgrwt>
<rscale>  0 0.54417221E+03</rscale>
<asrwt>0</asrwt>
<pdfrwt beam="1">  1        2 0.16744341E+00 0.54417221E+03</pdfrwt>
<pdfrwt beam="2">  1       -2 0.90229506E-02 0.54417221E+03</pdfrwt>
<totfact> 0.18105645E+03</totfact>
</mgrwt>
</event>
<event>
 4    1  0.1383574E-004  0.4616699E+03  0.7818608E-02  0.1024298E+00
         -2   -1    0    0    0  501 -0.00000000000E+00  0.00000000000E+00  0.65824459155E+02  0.65824459205E+02  0.25500000000E-02 0. -1.
          2   -1    0    0  501    0  0.00000000000E+00 -0.00000000000E+00 -0.80949805719E+03  0.80949805720E+03  0.25500000000E-02 0.  1.
    5000001    1    1    2    0    0 -0.23801549822E+01 -0.65265421151E+02 -0.71568914765E+03  0.72979805180E+03  0.12700000000E+03 0.  0.
   -5000001    1    1    2    0    0  0.23801549822E+01  0.65265421151E+02 -0.27984450385E+02  0.14552446461E+03  0.12700000000E+03 0.  0.
<mgrwt>
<rscale>  0 0.46166989E+03</rscale>
<asrwt>0</asrwt>
<pdfrwt beam="1">  1        2 0.11564257E+00 0.46166989E+03</pdfrwt>
<pdfrwt beam="2">  1       -2 0.94034946E-02 0.46166989E+03</pdfrwt>
<totfact> 0.28276131E+03</totfact>
</mgrwt>
</event>
<event>
 4    1  0.1383574E-004  0.4599128E+03  0.7818608E-02  0.1024807E+00
          2   -1    0    0  501    0  0.00000000000E+00  0.00000000000E+00  0.32287224363E+04  0.32287224363E+04  0.25500000000E-02 0.  1.
         -2   -1    0    0    0  501 -0.00000000000E+00 -0.00000000000E+00 -0.16377978808E+02  0.16377979007E+02  0.25500000000E-02 0. -1.
    5000001    1    1    2    0    0 -0.49215438492E+02 -0.17568100922E+03  0.20215109992E+04  0.20336965595E+04  0.12700000000E+03 0.  0.
   -5000001    1    1    2    0    0  0.49215438492E+02  0.17568100922E+03  0.11908334583E+04  0.12114038558E+04  0.12700000000E+03 0.  0.
<mgrwt>
<rscale>  0 0.45991281E+03</rscale>
<asrwt>0</asrwt>
<pdfrwt beam="1">  1        2 0.46124730E+00 0.45991281E+03</pdfrwt>
<pdfrwt beam="2">  1       -2 0.23397050E-02 0.45991281E+03</pdfrwt>
<totfact> 0.12493174E+03</totfact>
</mgrwt>
</event>
<event>
 4    1  0.1383574E-004  0.2901168E+03  0.7818608E-02  0.1090288E+00
         -2   -1    0    0    0  501 -0.00000000000E+00  0.00000000000E+00  0.25462335483E+03  0.25462335485E+03  0.25500000000E-02 0. -1.
          2   -1    0    0  501    0  0.00000000000E+00 -0.00000000000E+00 -0.82639445648E+02  0.82639445688E+02  0.25500000000E-02 0.  1.
    5000001    1    1    2    0    0 -0.36422758448E+02 -0.45294355072E+02  0.13153400793E+03  0.19185513070E+03  0.12700000000E+03 0.  0.
   -5000001    1    1    2    0    0  0.36422758448E+02  0.45294355072E+02  0.40449901255E+02  0.14540766983E+03  0.12700000000E+03 0.  0.
<mgrwt>
<rscale>  0 0.29011676E+03</rscale>
<asrwt>0</asrwt>
<pdfrwt beam="1">  1        2 0.11805635E-01 0.29011676E+03</pdfrwt>
<pdfrwt beam="2">  1       -2 0.36374765E-01 0.29011676E+03</pdfrwt>
<totfact> 0.37144176E+03</totfact>
</mgrwt>
</event>
<event>
 4    1  0.1383574E-004  0.1087186E+04  0.7818608E-02  0.9217772E-01
          2   -1    0    0  501    0  0.00000000000E+00  0.00000000000E+00  0.29651003684E+04  0.29651003684E+04  0.25500000000E-02 0.  1.
         -2   -1    0    0    0  501 -0.00000000000E+00 -0.00000000000E+00 -0.99657069240E+02  0.99657069272E+02  0.25500000000E-02 0. -1.
    5000001    1    1    2    0    0 -0.44110084212E+03 -0.23479532654E+03  0.19182533243E+04  0.19863342152E+04  0.12700000000E+03 0.  0.
   -5000001    1    1    2    0    0  0.44110084212E+03  0.23479532654E+03  0.94718997480E+03  0.10784232224E+04  0.12700000000E+03 0.  0.
<mgrwt>
<rscale>  0 0.10871857E+04</rscale>
<asrwt>0</asrwt>
<pdfrwt beam="1">  1        2 0.42358573E+00 0.10871857E+04</pdfrwt>
<pdfrwt beam="2">  1       -2 0.14236725E-01 0.10871857E+04</pdfrwt>
<totfact> 0.95456112E+01</totfact>
</mgrwt>
</event>
<event>
 4    1  0.1383574E-004  0.4400120E+03  0.7818608E-02  0.1030743E+00
          2   -1    0    0  501    0  0.00000000000E+00  0.00000000000E+00  0.42675440426E+03  0.42675440427E+03  0.25500000000E-02 0.  1.
         -2   -1    0    0    0  501 -0.00000000000E+00 -0.00000000000E+00 -0.11342037164E+03  0.11342037167E+03  0.25500000000E-02 0. -1.
    5000001    1    1    2    0    0 -0.10807485839E+03  0.99413974117E+02  0.29618034357E+02  0.19639129620E+03  0.12700000000E+03 0.  0.
   -5000001    1    1    2    0    0  0.10807485839E+03 -0.99413974117E+02  0.28371599826E+03  0.34378347973E+03  0.12700000000E+03 0.  0.
<mgrwt>
<rscale>  0 0.44001201E+03</rscale>
<asrwt>0</asrwt>
<pdfrwt beam="1">  1        2 0.60964915E-01 0.44001201E+03</pdfrwt>
<pdfrwt beam="2">  1       -2 0.16202910E-01 0.44001201E+03</pdfrwt>
<totfact> 0.24456073E+03</totfact>
</mgrwt>
</event>
<event>
 4    1  0.1383574E-004  0.2700928E+03  0.7818608E-02  0.1101226E+00
         -2   -1    0    0    0  501 -0.00000000000E+00  0.00000000000E+00  0.69203632190E+03  0.69203632191E+03  0.25500000000E-02 0. -1.
          2   -1    0    0  501    0  0.00000000000E+00 -0.00000000000E+00 -0.26353433325E+02  0.26353433448E+02  0.25500000000E-02 0.  1.
    5000001    1    1    2    0    0 -0.60964599000E+01 -0.45078879722E+02  0.34950728306E+03  0.37463797609E+03  0.12700000000E+03 0.  0.
   -5000001    1    1    2    0    0  0.60964599000E+01  0.45078879722E+02  0.31617560552E+03  0.34375177926E+03  0.12700000000E+03 0.  0.
<mgrwt>
<rscale>  0 0.27009282E+03</rscale>
<asrwt>0</asrwt>
<pdfrwt beam="1">  1        2 0.37647763E-02 0.27009282E+03</pdfrwt>
<pdfrwt beam="2">  1       -2 0.98862328E-01 0.27009282E+03</pdfrwt>
<totfact> 0.20230695E+03</totfact>
</mgrwt>
</event>
<event>
 4    1  0.1383574E-004  0.3212256E+03  0.7818608E-02  0.1075087E+00
         -2   -1    0    0    0  501 -0.00000000000E+00  0.00000000000E+00  0.22805546986E+03  0.22805546987E+03  0.25500000000E-02 0. -1.
          2   -1    0    0  501    0  0.00000000000E+00 -0.00000000000E+00 -0.11311492770E+03  0.11311492773E+03  0.25500000000E-02 0.  1.
    5000001    1    1    2    0    0  0.56084926703E+02 -0.80621967283E+02  0.52482137046E+02  0.16890469301E+03  0.12700000000E+03 0.  0.
   -5000001    1    1    2    0    0 -0.56084926703E+02  0.80621967283E+02  0.62458405110E+02  0.17226570460E+03  0.12700000000E+03 0.  0.
<mgrwt>
<rscale>  0 0.32122564E+03</rscale>
<asrwt>0</asrwt>
<pdfrwt beam="1">  1        2 0.16159275E-01 0.32122564E+03</pdfrwt>
<pdfrwt beam="2">  1       -2 0.32579353E-01 0.32122564E+03</pdfrwt>
<totfact> 0.31373669E+03</totfact>
</mgrwt>
</event>
<event>
 4    1  0.1383574E-004  0.2321317E+04  0.7818608E-02  0.8469563E-01
          2   -1    0    0  501    0  0.00000000000E+00  0.00000000000E+00  0.58921781232E+03  0.58921781232E+03  0.25500000000E-02 0.  1.
         -2   -1    0    0    0  501 -0.00000000000E+00 -0.00000000000E+00 -0.22862990394E+04  0.22862990394E+04  0.25500000000E-02 0. -1.
    5000001    1    1    2    0    0  0.86665923341E+03 -0.73049442522E+03 -0.11150254185E+04  0.15950332335E+04  0.12700000000E+03 0.  0.
   -5000001    1    1    2    0    0 -0.86665923341E+03  0.73049442522E+03 -0.58205580854E+03  0.12804836182E+04  0.12700000000E+03 0.  0.
<mgrwt>
<rscale>  0 0.23213170E+04</rscale>
<asrwt>0</asrwt>
<pdfrwt beam="1">  1        2 0.84173974E-01 0.23213170E+04</pdfrwt>
<pdfrwt beam="2">  1       -2 0.32661415E+00 0.23213170E+04</pdfrwt>
<totfact> 0.10986580E+00</totfact>
</mgrwt>
</event>
<event>
 4    1  0.1383574E-004  0.4614201E+03  0.7818608E-02  0.1024370E+00
         -2   -1    0    0    0  501 -0.00000000000E+00  0.00000000000E+00  0.25413694948E+02  0.25413695076E+02  0.25500000000E-02 0. -1.
          2   -1    0    0  501    0  0.00000000000E+00 -0.00000000000E+00 -0.20944273773E+04  0.20944273773E+04  0.25500000000E-02 0.  1.
    5000001    1    1    2    0    0 -0.12624251126E+03  0.13688575403E+03 -0.12606620062E+04  0.12806531830E+04  0.12700000000E+03 0.  0.
   -5000001    1    1    2    0    0  0.12624251126E+03 -0.13688575403E+03 -0.80835167613E+03  0.83918788934E+03  0.12700000000E+03 0.  0.
<mgrwt>
<rscale>  0 0.46142015E+03</rscale>
<asrwt>0</asrwt>
<pdfrwt beam="1">  1        2 0.29920380E+00 0.46142015E+03</pdfrwt>
<pdfrwt beam="2">  1       -2 0.36305292E-02 0.46142015E+03</pdfrwt>
<totfact> 0.25067691E+03</totfact>
</mgrwt>
</event>
<event>
 4    1  0.1383574E-004  0.4545373E+03  0.7818608E-02  0.1026378E+00
         -2   -1    0    0    0  501 -0.00000000000E+00  0.00000000000E+00  0.21764013925E+03  0.21764013926E+03  0.25500000000E-02 0. -1.
          2   -1    0    0  501    0  0.00000000000E+00 -0.00000000000E+00 -0.23732316178E+03  0.23732316180E+03  0.25500000000E-02 0.  1.
    5000001    1    1    2    0    0  0.15264841040E+03 -0.19438744948E+02 -0.11876740877E+03  0.23219409852E+03  0.12700000000E+03 0.  0.
   -5000001    1    1    2    0    0 -0.15264841040E+03  0.19438744948E+02  0.99084386232E+02  0.22276920254E+03  0.12700000000E+03 0.  0.
<mgrwt>
<rscale>  0 0.45453733E+03</rscale>
<asrwt>0</asrwt>
<pdfrwt beam="1">  1        2 0.33903309E-01 0.45453733E+03</pdfrwt>
<pdfrwt beam="2">  1       -2 0.31091449E-01 0.45453733E+03</pdfrwt>
<totfact> 0.14793282E+03</totfact>
</mgrwt>
</event>
<event>
 4    1  0.1383574E-004  0.3167298E+03  0.7818608E-02  0.1077164E+00
         -2   -1    0    0    0  501 -0.00000000000E+00  0.00000000000E+00  0.42959981158E+02  0.42959981233E+02  0.25500000000E-02 0. -1.
          2   -1    0    0  501    0  0.00000000000E+00 -0.00000000000E+00 -0.58378612382E+03  0.58378612383E+03  0.25500000000E-02 0.  1.
    5000001    1    1    2    0    0  0.56038494002E+02 -0.66073064919E+02 -0.19520607969E+03  0.24847610804E+03  0.12700000000E+03 0.  0.
   -5000001    1    1    2    0    0 -0.56038494002E+02  0.66073064919E+02 -0.34562006297E+03  0.37826999702E+03  0.12700000000E+03 0.  0.
<mgrwt>
<rscale>  0 0.31672980E+03</rscale>
<asrwt>0</asrwt>
<pdfrwt beam="1">  1        2 0.83398013E-01 0.31672980E+03</pdfrwt>
<pdfrwt beam="2">  1       -2 0.61371405E-02 0.31672980E+03</pdfrwt>
<totfact> 0.81245095E+03</totfact>
</mgrwt>
</event>
<event>
 4    1  0.1383574E-004  0.3658067E+03  0.7818608E-02  0.1056308E+00
         -2   -1    0    0    0  501 -0.00000000000E+00  0.00000000000E+00  0.26155131860E+03  0.26155131862E+03  0.25500000000E-02 0. -1.
          2   -1    0    0  501    0  0.00000000000E+00 -0.00000000000E+00 -0.12790466896E+03  0.12790466899E+03  0.25500000000E-02 0.  1.
    5000001    1    1    2    0    0  0.12644537714E+03  0.28762816618E+02  0.90840599869E+02  0.20296981944E+03  0.12700000000E+03 0.  0.
   -5000001    1    1    2    0    0 -0.12644537714E+03 -0.28762816618E+02  0.42806049772E+02  0.18648616816E+03  0.12700000000E+03 0.  0.
<mgrwt>
<rscale>  0 0.36580670E+03</rscale>
<asrwt>0</asrwt>
<pdfrwt beam="1">  1        2 0.18272096E-01 0.36580670E+03</pdfrwt>
<pdfrwt beam="2">  1       -2 0.37364474E-01 0.36580670E+03</pdfrwt>
<totfact> 0.21069966E+03</totfact>
</mgrwt>
</event>
<event>
 4    1  0.1383574E-004  0.4260668E+03  0.7818608E-02  0.1035110E+00
         -2   -1    0    0    0  501 -0.00000000000E+00  0.00000000000E+00  0.67268290151E+03  0.67268290152E+03  0.25500000000E-02 0. -1.
          2   -1    0    0  501    0  0.00000000000E+00 -0.00000000000E+00 -0.67465992811E+02  0.67465992859E+02  0.25500000000E-02 0.  1.
    5000001    1    1    2    0    0  0.16802314373E+03 -0.39325453229E+01  0.35773381632E+03  0.41515024398E+03  0.12700000000E+03 0.  0.
   -5000001    1    1    2    0    0 -0.16802314373E+03  0.39325453229E+01  0.24748309239E+03  0.32499865040E+03  0.12700000000E+03 0.  0.
<mgrwt>
<rscale>  0 0.42606675E+03</rscale>
<asrwt>0</asrwt>
<pdfrwt beam="1">  1        2 0.96379998E-02 0.42606675E+03</pdfrwt>
<pdfrwt beam="2">  1       -2 0.96097549E-01 0.42606675E+03</pdfrwt>
<totfact> 0.63585139E+02</totfact>
</mgrwt>
</event>
<event>
 4    1  0.1383574E-004  0.3453775E+03  0.7818608E-02  0.1064528E+00
         -2   -1    0    0    0  501 -0.00000000000E+00  0.00000000000E+00  0.15002489074E+03  0.15002489076E+03  0.25500000000E-02 0. -1.
          2   -1    0    0  501    0  0.00000000000E+00 -0.00000000000E+00 -0.19877634856E+03  0.19877634858E+03  0.25500000000E-02 0.  1.
    5000001    1    1    2    0    0 -0.11110366846E+03  0.34674730290E+02 -0.36580139864E+02  0.17610641300E+03  0.12700000000E+03 0.  0.
   -5000001    1    1    2    0    0  0.11110366846E+03 -0.34674730290E+02 -0.12171317957E+02  0.17269482635E+03  0.12700000000E+03 0.  0.
<mgrwt>
<rscale>  0 0.34537747E+03</rscale>
<asrwt>0</asrwt>
<pdfrwt beam="1">  1        2 0.28396621E-01 0.34537747E+03</pdfrwt>
<pdfrwt beam="2">  1       -2 0.21432127E-01 0.34537747E+03</pdfrwt>
<totfact> 0.34882925E+03</totfact>
</mgrwt>
</event>
<event>
 4    1  0.1383574E-004  0.8406317E+03  0.7818608E-02  0.9502998E-01
          2   -1    0    0  501    0  0.00000000000E+00  0.00000000000E+00  0.16382687614E+04  0.16382687614E+04  0.25500000000E-02 0.  1.
         -2   -1    0    0    0  501 -0.00000000000E+00 -0.00000000000E+00 -0.10783664206E+03  0.10783664209E+03  0.25500000000E-02 0. -1.
    5000001    1    1    2    0    0 -0.17747514872E+03  0.34770619525E+03  0.57782008929E+03  0.70880327470E+03  0.12700000000E+03 0.  0.
   -5000001    1    1    2    0    0  0.17747514872E+03 -0.34770619525E+03  0.95261203003E+03  0.10373021288E+04  0.12700000000E+03 0.  0.
<mgrwt>
<rscale>  0 0.84063167E+03</rscale>
<asrwt>0</asrwt>
<pdfrwt beam="1">  1        2 0.23403840E+00 0.84063167E+03</pdfrwt>
<pdfrwt beam="2">  1       -2 0.15405234E-01 0.84063167E+03</pdfrwt>
<totfact> 0.41672800E+02</totfact>
</mgrwt>
</event>
<event>
 4    1  0.1383574E-004  0.6423767E+03  0.7818608E-02  0.9821190E-01
          2   -1    0    0  501    0  0.00000000000E+00  0.00000000000E+00  0.16122011456E+04  0.16122011456E+04  0.25500000000E-02 0. -1.
         -2   -1    0    0    0  501 -0.00000000000E+00 -0.00000000000E+00 -0.63988269630E+02  0.63988269680E+02  0.25500000000E-02 0.  1.
    5000001    1    1    2    0    0  0.18342829898E+03 -0.15728621082E+03  0.33245364951E+03  0.43016197189E+03  0.12700000000E+03 0.  0.
   -5000001    1    1    2    0    0 -0.18342829898E+03  0.15728621082E+03  0.12157592264E+04  0.12460274434E+04  0.12700000000E+03 0.  0.
<mgrwt>
<rscale>  0 0.64237672E+03</rscale>
<asrwt>0</asrwt>
<pdfrwt beam="1">  1        2 0.23031445E+00 0.64237672E+03</pdfrwt>
<pdfrwt beam="2">  1       -2 0.91411812E-02 0.64237672E+03</pdfrwt>
<totfact> 0.10287181E+03</totfact>
</mgrwt>
</event>
<event>
 4    1  0.1383574E-004  0.2700899E+03  0.7818608E-02  0.1101228E+00
         -2   -1    0    0    0  501 -0.00000000000E+00  0.00000000000E+00  0.44130468361E+02  0.44130468435E+02  0.25500000000E-02 0. -1.
          2   -1    0    0  501    0  0.00000000000E+00 -0.00000000000E+00 -0.41325503700E+03  0.41325503701E+03  0.25500000000E-02 0.  1.
    5000001    1    1    2    0    0 -0.13335548580E+02 -0.39320610376E+02 -0.15136919272E+03  0.20190487800E+03  0.12700000000E+03 0.  0.
   -5000001    1    1    2    0    0  0.13335548580E+02  0.39320610376E+02 -0.21775537592E+03  0.25548062744E+03  0.12700000000E+03 0.  0.
<mgrwt>
<rscale>  0 0.27008990E+03</rscale>
<asrwt>0</asrwt>
<pdfrwt beam="1">  1        2 0.59036431E-01 0.27008990E+03</pdfrwt>
<pdfrwt beam="2">  1       -2 0.63043529E-02 0.27008990E+03</pdfrwt>
<totfact> 0.11360975E+04</totfact>
</mgrwt>
</event>
<event>
 4    1  0.1383574E-004  0.5780379E+03  0.7818608E-02  0.9952048E-01
          2   -1    0    0  501    0  0.00000000000E+00  0.00000000000E+00  0.17078610913E+04  0.17078610913E+04  0.25500000000E-02 0.  1.
         -2   -1    0    0    0  501 -0.00000000000E+00 -0.00000000000E+00 -0.48910277909E+02  0.48910277976E+02  0.25500000000E-02 0. -1.
    5000001    1    1    2    0    0  0.99021068801E+02 -0.18274293941E+03  0.35665982783E+03  0.43189742620E+03  0.12700000000E+03 0.  0.
   -5000001    1    1    2    0    0 -0.99021068801E+02  0.18274293941E+03  0.13022909855E+04  0.13248739431E+04  0.12700000000E+03 0.  0.
<mgrwt>
<rscale>  0 0.57803792E+03</rscale>
<asrwt>0</asrwt>
<pdfrwt beam="1">  1        2 0.24398007E+00 0.57803792E+03</pdfrwt>
<pdfrwt beam="2">  1       -2 0.69871850E-02 0.57803792E+03</pdfrwt>
<totfact> 0.14148519E+03</totfact>
</mgrwt>
</event>
<event>
 4    1  0.1383574E-004  0.3560460E+03  0.7818608E-02  0.1060161E+00
          2   -1    0    0  501    0  0.00000000000E+00  0.00000000000E+00  0.79059628948E+02  0.79059628989E+02  0.25500000000E-02 0.  1.
         -2   -1    0    0    0  501 -0.00000000000E+00 -0.00000000000E+00 -0.40086435711E+03  0.40086435711E+03  0.25500000000E-02 0. -1.
    5000001    1    1    2    0    0 -0.58561306140E+02  0.10899578528E+03 -0.18237122931E+03  0.25435756931E+03  0.12700000000E+03 0.  0.
   -5000001    1    1    2    0    0  0.58561306140E+02 -0.10899578528E+03 -0.13943349885E+03  0.22556641679E+03  0.12700000000E+03 0.  0.
<mgrwt>
<rscale>  0 0.35604599E+03</rscale>
<asrwt>0</asrwt>
<pdfrwt beam="1">  1        2 0.11294233E-01 0.35604599E+03</pdfrwt>
<pdfrwt beam="2">  1       -2 0.57266335E-01 0.35604599E+03</pdfrwt>
<totfact> 0.16138713E+03</totfact>
</mgrwt>
</event>
<event>
 4    1  0.1383574E-004  0.7314252E+03  0.7818608E-02  0.9664951E-01
          2   -1    0    0  501    0  0.00000000000E+00  0.00000000000E+00  0.17682820513E+04  0.17682820513E+04  0.25500000000E-02 0.  1.
         -2   -1    0    0    0  501 -0.00000000000E+00 -0.00000000000E+00 -0.75635948528E+02  0.75635948571E+02  0.25500000000E-02 0. -1.
    5000001    1    1    2    0    0 -0.31930515919E+03 -0.64127599172E+02  0.11172396183E+04  0.11706500324E+04  0.12700000000E+03 0.  0.
   -5000001    1    1    2    0    0  0.31930515919E+03  0.64127599172E+02  0.57540648449E+03  0.67326796749E+03  0.12700000000E+03 0.  0.
<mgrwt>
<rscale>  0 0.73142516E+03</rscale>
<asrwt>0</asrwt>
<pdfrwt beam="1">  1        2 0.25261168E+00 0.73142516E+03</pdfrwt>
<pdfrwt beam="2">  1       -2 0.10805137E-01 0.73142516E+03</pdfrwt>
<totfact> 0.64940310E+02</totfact>
</mgrwt>
</event>
<event>
 4    1  0.1383574E-004  0.3041662E+03  0.7818608E-02  0.1083176E+00
         -2   -1    0    0    0  501 -0.00000000000E+00  0.00000000000E+00  0.23753425914E+02  0.23753426051E+02  0.25500000000E-02 0. -1.
          2   -1    0    0  501    0  0.00000000000E+00 -0.00000000000E+00 -0.97372357339E+03  0.97372357340E+03  0.25500000000E-02 0.  1.
    5000001    1    1    2    0    0  0.27136330480E+02 -0.56304278659E+02 -0.29258192619E+03  0.32502266961E+03  0.12700000000E+03 0.  0.
   -5000001    1    1    2    0    0 -0.27136330480E+02  0.56304278659E+02 -0.65738822129E+03  0.67245432984E+03  0.12700000000E+03 0.  0.
<mgrwt>
<rscale>  0 0.30416621E+03</rscale>
<asrwt>0</asrwt>
<pdfrwt beam="1">  1        2 0.13910334E+00 0.30416621E+03</pdfrwt>
<pdfrwt beam="2">  1       -2 0.33933472E-02 0.30416621E+03</pdfrwt>
<totfact> 0.10646929E+04</totfact>
</mgrwt>
</event>
<event>
 4    1  0.1383574E-004  0.4748297E+03  0.7818608E-02  0.1020566E+00
          2   -1    0    0  501    0  0.00000000000E+00  0.00000000000E+00  0.12884320304E+04  0.12884320304E+04  0.25500000000E-02 0.  1.
         -2   -1    0    0    0  501 -0.00000000000E+00 -0.00000000000E+00 -0.43747605983E+02  0.43747606058E+02  0.25500000000E-02 0. -1.
    5000001    1    1    2    0    0 -0.94096365424E+02  0.89158274988E+02  0.19286175572E+03  0.26481688165E+03  0.12700000000E+03 0.  0.
   -5000001    1    1    2    0    0  0.94096365424E+02 -0.89158274988E+02  0.10518226687E+04  0.10673627548E+04  0.12700000000E+03 0.  0.
<mgrwt>
<rscale>  0 0.47482972E+03</rscale>
<asrwt>0</asrwt>
<pdfrwt beam="1">  1        2 0.18406171E+00 0.47482972E+03</pdfrwt>
<pdfrwt beam="2">  1       -2 0.62496584E-02 0.47482972E+03</pdfrwt>
<totfact> 0.27941628E+03</totfact>
</mgrwt>
</event>
<event>
 4    1  0.1383574E-004  0.3418486E+03  0.7818608E-02  0.1066011E+00
         -2   -1    0    0    0  501 -0.00000000000E+00  0.00000000000E+00  0.46619984543E+02  0.46619984613E+02  0.25500000000E-02 0. -1.
          2   -1    0    0  501    0  0.00000000000E+00 -0.00000000000E+00 -0.62666520231E+03  0.62666520232E+03  0.25500000000E-02 0.  1.
    5000001    1    1    2    0    0  0.26864690090E+02  0.73659526493E+02 -0.45408301658E+03  0.47798307853E+03  0.12700000000E+03 0.  0.
   -5000001    1    1    2    0    0 -0.26864690090E+02 -0.73659526493E+02 -0.12596220119E+03  0.19530210840E+03  0.12700000000E+03 0.  0.
<mgrwt>
<rscale>  0 0.34184863E+03</rscale>
<asrwt>0</asrwt>
<pdfrwt beam="1">  1        2 0.89523595E-01 0.34184863E+03</pdfrwt>
<pdfrwt beam="2">  1       -2 0.66599982E-02 0.34184863E+03</pdfrwt>
<totfact> 0.66126923E+03</totfact>
</mgrwt>
</event>
<event>
 4    1  0.1383574E-004  0.6917271E+03  0.7818608E-02  0.9731485E-01
          2   -1    0    0  501    0  0.00000000000E+00  0.00000000000E+00  0.37348451146E+03  0.37348451147E+03  0.25500000000E-02 0.  1.
         -2   -1    0    0    0  501 -0.00000000000E+00 -0.00000000000E+00 -0.32028529617E+03  0.32028529618E+03  0.25500000000E-02 0. -1.
    5000001    1    1    2    0    0  0.21748051606E+03 -0.12702552552E+03 -0.17413973028E+03  0.33149193755E+03  0.12700000000E+03 0.  0.
   -5000001    1    1    2    0    0 -0.21748051606E+03  0.12702552552E+03  0.22733894557E+03  0.36227787011E+03  0.12700000000E+03 0.  0.
<mgrwt>
<rscale>  0 0.69172711E+03</rscale>
<asrwt>0</asrwt>
<pdfrwt beam="1">  1        2 0.53354930E-01 0.69172711E+03</pdfrwt>
<pdfrwt beam="2">  1       -2 0.45755042E-01 0.69172711E+03</pdfrwt>
<totfact> 0.42624569E+02</totfact>
</mgrwt>
</event>
<event>
 4    1  0.1383574E-004  0.3509340E+03  0.7818608E-02  0.1062232E+00
          2   -1    0    0  501    0  0.00000000000E+00  0.00000000000E+00  0.95859422308E+03  0.95859422308E+03  0.25500000000E-02 0.  1.
         -2   -1    0    0    0  501 -0.00000000000E+00 -0.00000000000E+00 -0.32118566483E+02  0.32118566584E+02  0.25500000000E-02 0. -1.
    5000001    1    1    2    0    0 -0.10771938129E+03  0.36697607526E+02  0.57996069227E+03  0.60451102892E+03  0.12700000000E+03 0.  0.
   -5000001    1    1    2    0    0  0.10771938129E+03 -0.36697607526E+02  0.34651496432E+03  0.38620176074E+03  0.12700000000E+03 0.  0.
<mgrwt>
<rscale>  0 0.35093402E+03</rscale>
<asrwt>0</asrwt>
<pdfrwt beam="1">  1        2 0.13694200E+00 0.35093402E+03</pdfrwt>
<pdfrwt beam="2">  1       -2 0.45883677E-02 0.35093402E+03</pdfrwt>
<totfact> 0.69188072E+03</totfact>
</mgrwt>
</event>
<event>
 4    1  0.1383574E-004  0.3322044E+03  0.7818608E-02  0.1070166E+00
         -2   -1    0    0    0  501 -0.00000000000E+00  0.00000000000E+00  0.10064401415E+04  0.10064401416E+04  0.25500000000E-02 0. -1.
          2   -1    0    0  501    0  0.00000000000E+00 -0.00000000000E+00 -0.27413396233E+02  0.27413396352E+02  0.25500000000E-02 0.  1.
    5000001    1    1    2    0    0  0.87743987787E+02 -0.26025107932E+02  0.66235768008E+03  0.68060488538E+03  0.12700000000E+03 0.  0.
   -5000001    1    1    2    0    0 -0.87743987787E+02  0.26025107932E+02  0.31666906523E+03  0.35324865253E+03  0.12700000000E+03 0.  0.
<mgrwt>
<rscale>  0 0.33220441E+03</rscale>
<asrwt>0</asrwt>
<pdfrwt beam="1">  1        2 0.39162002E-02 0.33220441E+03</pdfrwt>
<pdfrwt beam="2">  1       -2 0.14377714E+00 0.33220441E+03</pdfrwt>
<totfact> 0.77544279E+02</totfact>
</mgrwt>
</event>
<event>
 4    1  0.1383574E-004  0.5239188E+03  0.7818608E-02  0.1007718E+00
          2   -1    0    0  501    0  0.00000000000E+00  0.00000000000E+00  0.37419573733E+04  0.37419573733E+04  0.25500000000E-02 0.  1.
         -2   -1    0    0    0  501 -0.00000000000E+00 -0.00000000000E+00 -0.18338727379E+02  0.18338727557E+02  0.25500000000E-02 0. -1.
    5000001    1    1    2    0    0  0.92867181193E+02 -0.16388078816E+03  0.27979524094E+04  0.28071601150E+04  0.12700000000E+03 0.  0.
   -5000001    1    1    2    0    0 -0.92867181193E+02  0.16388078816E+03  0.92566623647E+03  0.95313598580E+03  0.12700000000E+03 0.  0.
<mgrwt>
<rscale>  0 0.52391884E+03</rscale>
<asrwt>0</asrwt>
<pdfrwt beam="1">  1        2 0.53456551E+00 0.52391884E+03</pdfrwt>
<pdfrwt beam="2">  1       -2 0.26198174E-02 0.52391884E+03</pdfrwt>
<totfact> 0.52106850E+02</totfact>
</mgrwt>
</event>
<event>
 4    1  0.1383574E-004  0.4517114E+03  0.7818608E-02  0.1027213E+00
          2   -1    0    0  501    0  0.00000000000E+00  0.00000000000E+00  0.75907637784E+03  0.75907637784E+03  0.25500000000E-02 0.  1.
         -2   -1    0    0    0  501 -0.00000000000E+00 -0.00000000000E+00 -0.67201133164E+02  0.67201133212E+02  0.25500000000E-02 0. -1.
    5000001    1    1    2    0    0 -0.17270347757E+03  0.49512421115E+02  0.25259703557E+03  0.33498094481E+03  0.12700000000E+03 0.  0.
   -5000001    1    1    2    0    0  0.17270347757E+03 -0.49512421115E+02  0.43927820910E+03  0.49129656624E+03  0.12700000000E+03 0.  0.
<mgrwt>
<rscale>  0 0.45171138E+03</rscale>
<asrwt>0</asrwt>
<pdfrwt beam="1">  1        2 0.10843948E+00 0.45171138E+03</pdfrwt>
<pdfrwt beam="2">  1       -2 0.96001620E-02 0.45171138E+03</pdfrwt>
<totfact> 0.29648495E+03</totfact>
</mgrwt>
</event>
<event>
 4    1  0.1383574E-004  0.7077257E+03  0.7818608E-02  0.9704111E-01
         -2   -1    0    0    0  501 -0.00000000000E+00  0.00000000000E+00  0.17797741048E+03  0.17797741050E+03  0.25500000000E-02 0. -1.
          2   -1    0    0  501    0  0.00000000000E+00 -0.00000000000E+00 -0.70356640314E+03  0.70356640314E+03  0.25500000000E-02 0.  1.
    5000001    1    1    2    0    0  0.21910221045E+03  0.98344992271E+02  0.19636853116E+02  0.27238230877E+03  0.12700000000E+03 0.  0.
   -5000001    1    1    2    0    0 -0.21910221045E+03 -0.98344992271E+02 -0.54522584577E+03  0.60916150488E+03  0.12700000000E+03 0.  0.
<mgrwt>
<rscale>  0 0.70772573E+03</rscale>
<asrwt>0</asrwt>
<pdfrwt beam="1">  1        2 0.10050949E+00 0.70772573E+03</pdfrwt>
<pdfrwt beam="2">  1       -2 0.25425345E-01 0.70772573E+03</pdfrwt>
<totfact> 0.62397739E+02</totfact>
</mgrwt>
</event>
<event>
 4    1  0.1383574E-004  0.1018335E+04  0.7818608E-02  0.9288661E-01
          2   -1    0    0  501    0  0.00000000000E+00  0.00000000000E+00  0.56415312991E+03  0.56415312992E+03  0.25500000000E-02 0.  1.
         -2   -1    0    0    0  501 -0.00000000000E+00 -0.00000000000E+00 -0.45954085034E+03  0.45954085035E+03  0.25500000000E-02 0. -1.
    5000001    1    1    2    0    0 -0.21842060370E+03  0.38154789458E+03 -0.17210861677E+03  0.48891382876E+03  0.12700000000E+03 0.  0.
   -5000001    1    1    2    0    0  0.21842060370E+03 -0.38154789458E+03  0.27672089633E+03  0.53478015151E+03  0.12700000000E+03 0.  0.
<mgrwt>
<rscale>  0 0.10183347E+04</rscale>
<asrwt>0</asrwt>
<pdfrwt beam="1">  1        2 0.80593304E-01 0.10183347E+04</pdfrwt>
<pdfrwt beam="2">  1       -2 0.65648693E-01 0.10183347E+04</pdfrwt>
<totfact> 0.12449062E+02</totfact>
</mgrwt>
</event>
<event>
 4    1  0.1383574E-004  0.4985692E+03  0.7818608E-02  0.1014153E+00
         -2   -1    0    0    0  501 -0.00000000000E+00  0.00000000000E+00  0.16280923856E+03  0.16280923858E+03  0.25500000000E-02 0. -1.
          2   -1    0    0  501    0  0.00000000000E+00 -0.00000000000E+00 -0.38169096376E+03  0.38169096377E+03  0.25500000000E-02 0.  1.
    5000001    1    1    2    0    0 -0.51329747393E+02  0.20488919795E+03 -0.68584725849E+02  0.25582648616E+03  0.12700000000E+03 0.  0.
   -5000001    1    1    2    0    0  0.51329747393E+02 -0.20488919795E+03 -0.15029699935E+03  0.28867371618E+03  0.12700000000E+03 0.  0.
<mgrwt>
<rscale>  0 0.49856921E+03</rscale>
<asrwt>0</asrwt>
<pdfrwt beam="1">  1        2 0.54527280E-01 0.49856921E+03</pdfrwt>
<pdfrwt beam="2">  1       -2 0.23258463E-01 0.49856921E+03</pdfrwt>
<totfact> 0.14835880E+03</totfact>
</mgrwt>
</event>
<event>
 4    1  0.1383574E-004  0.6452926E+03  0.7818608E-02  0.9815653E-01
          2   -1    0    0  501    0  0.00000000000E+00  0.00000000000E+00  0.76840592220E+03  0.76840592221E+03  0.25500000000E-02 0.  1.
         -2   -1    0    0    0  501 -0.00000000000E+00 -0.00000000000E+00 -0.13547607594E+03  0.13547607596E+03  0.25500000000E-02 0. -1.
    5000001    1    1    2    0    0 -0.48025908088E+02  0.16097225528E+03  0.65886604274E+03  0.69170226044E+03  0.12700000000E+03 0.  0.
   -5000001    1    1    2    0    0  0.48025908088E+02 -0.16097225528E+03 -0.25936196475E+02  0.21217973774E+03  0.12700000000E+03 0.  0.
<mgrwt>
<rscale>  0 0.64529255E+03</rscale>
<asrwt>0</asrwt>
<pdfrwt beam="1">  1        2 0.10977227E+00 0.64529255E+03</pdfrwt>
<pdfrwt beam="2">  1       -2 0.19353725E-01 0.64529255E+03</pdfrwt>
<totfact> 0.90750723E+02</totfact>
</mgrwt>
</event>
<event>
 4    1  0.1383574E-004  0.3650706E+03  0.7818608E-02  0.1056594E+00
          2   -1    0    0  501    0  0.00000000000E+00  0.00000000000E+00  0.14966864187E+04  0.14966864187E+04  0.25500000000E-02 0.  1.
         -2   -1    0    0    0  501 -0.00000000000E+00 -0.00000000000E+00 -0.22261934638E+02  0.22261934784E+02  0.25500000000E-02 0. -1.
    5000001    1    1    2    0    0  0.16414590201E+02  0.12469961868E+03  0.89125370035E+03  0.90900032566E+03  0.12700000000E+03 0.  0.
   -5000001    1    1    2    0    0 -0.16414590201E+02 -0.12469961868E+03  0.58317078374E+03  0.60994802785E+03  0.12700000000E+03 0.  0.
<mgrwt>
<rscale>  0 0.36507060E+03</rscale>
<asrwt>0</asrwt>
<pdfrwt beam="1">  1        2 0.21381229E+00 0.36507060E+03</pdfrwt>
<pdfrwt beam="2">  1       -2 0.31802772E-02 0.36507060E+03</pdfrwt>
<totfact> 0.61025560E+03</totfact>
</mgrwt>
</event>
<event>
 4    1  0.1383574E-004  0.4416826E+03  0.7818608E-02  0.1030232E+00
         -2   -1    0    0    0  501 -0.00000000000E+00  0.00000000000E+00  0.24007010217E+02  0.24007010353E+02  0.25500000000E-02 0. -1.
          2   -1    0    0  501    0  0.00000000000E+00 -0.00000000000E+00 -0.20315266345E+04  0.20315266345E+04  0.25500000000E-02 0.  1.
    5000001    1    1    2    0    0 -0.11360727314E+03 -0.12808477973E+03 -0.73522069648E+03  0.76550035652E+03  0.12700000000E+03 0.  0.
   -5000001    1    1    2    0    0  0.11360727314E+03  0.12808477973E+03 -0.12722989278E+04  0.12900332883E+04  0.12700000000E+03 0.  0.
<mgrwt>
<rscale>  0 0.44168260E+03</rscale>
<asrwt>0</asrwt>
<pdfrwt beam="1">  1        2 0.29021798E+00 0.44168260E+03</pdfrwt>
<pdfrwt beam="2">  1       -2 0.34295742E-02 0.44168260E+03</pdfrwt>
<totfact> 0.29392406E+03</totfact>
</mgrwt>
</event>
<event>
 4    1  0.1383574E-004  0.2758815E+03  0.7818608E-02  0.1097960E+00
          2   -1    0    0  501    0  0.00000000000E+00  0.00000000000E+00  0.17672477002E+04  0.17672477002E+04  0.25500000000E-02 0.  1.
         -2   -1    0    0    0  501 -0.00000000000E+00 -0.00000000000E+00 -0.10766828991E+02  0.10766829293E+02  0.25500000000E-02 0. -1.
    5000001    1    1    2    0    0  0.34438157727E+02  0.35674889867E+02  0.10134240349E+04  0.10225536460E+04  0.12700000000E+03 0.  0.
   -5000001    1    1    2    0    0 -0.34438157727E+02 -0.35674889867E+02  0.74305683630E+03  0.75546088346E+03  0.12700000000E+03 0.  0.
<mgrwt>
<rscale>  0 0.27588153E+03</rscale>
<asrwt>0</asrwt>
<pdfrwt beam="1">  1        2 0.25246370E+00 0.27588153E+03</pdfrwt>
<pdfrwt beam="2">  1       -2 0.15381200E-02 0.27588153E+03</pdfrwt>
<totfact> 0.13056959E+04</totfact>
</mgrwt>
</event>
<event>
 4    1  0.1383574E-004  0.3300798E+03  0.7818608E-02  0.1071102E+00
         -2   -1    0    0    0  501 -0.00000000000E+00  0.00000000000E+00  0.10903807888E+03  0.10903807891E+03  0.25500000000E-02 0. -1.
          2   -1    0    0  501    0  0.00000000000E+00 -0.00000000000E+00 -0.24980423181E+03  0.24980423183E+03  0.25500000000E-02 0.  1.
    5000001    1    1    2    0    0 -0.95379018250E+02  0.72243765080E+01 -0.11851057423E+03  0.19830054196E+03  0.12700000000E+03 0.  0.
   -5000001    1    1    2    0    0  0.95379018250E+02 -0.72243765080E+01 -0.22255578702E+02  0.16054176878E+03  0.12700000000E+03 0.  0.
<mgrwt>
<rscale>  0 0.33007983E+03</rscale>
<asrwt>0</asrwt>
<pdfrwt beam="1">  1        2 0.35686319E-01 0.33007983E+03</pdfrwt>
<pdfrwt beam="2">  1       -2 0.15576869E-01 0.33007983E+03</pdfrwt>
<totfact> 0.46606586E+03</totfact>
</mgrwt>
</event>
<event>
 4    1  0.1383574E-004  0.3237155E+03  0.7818608E-02  0.1073952E+00
          2   -1    0    0  501    0  0.00000000000E+00  0.00000000000E+00  0.16477286188E+04  0.16477286188E+04  0.25500000000E-02 0.  1.
         -2   -1    0    0    0  501 -0.00000000000E+00 -0.00000000000E+00 -0.15899420167E+02  0.15899420372E+02  0.25500000000E-02 0. -1.
    5000001    1    1    2    0    0  0.74131111357E+02  0.62220916006E+02  0.67974453573E+03  0.69824673141E+03  0.12700000000E+03 0.  0.
   -5000001    1    1    2    0    0 -0.74131111357E+02 -0.62220916006E+02  0.95208466291E+03  0.96538130778E+03  0.12700000000E+03 0.  0.
<mgrwt>
<rscale>  0 0.32371549E+03</rscale>
<asrwt>0</asrwt>
<pdfrwt beam="1">  1        2 0.23538981E+00 0.32371549E+03</pdfrwt>
<pdfrwt beam="2">  1       -2 0.22713456E-02 0.32371549E+03</pdfrwt>
<totfact> 0.84512269E+03</totfact>
</mgrwt>
</event>
<event>
 4    1  0.1383574E-004  0.3928547E+03  0.7818608E-02  0.1046282E+00
          2   -1    0    0  501    0  0.00000000000E+00  0.00000000000E+00  0.72349560796E+03  0.72349560796E+03  0.25500000000E-02 0.  1.
         -2   -1    0    0    0  501 -0.00000000000E+00 -0.00000000000E+00 -0.53329562217E+02  0.53329562278E+02  0.25500000000E-02 0. -1.
    5000001    1    1    2    0    0 -0.14426871390E+03 -0.36022686733E+02  0.37173717298E+03  0.42003407189E+03  0.12700000000E+03 0.  0.
   -5000001    1    1    2    0    0  0.14426871390E+03  0.36022686733E+02  0.29842887276E+03  0.35679109835E+03  0.12700000000E+03 0.  0.
<mgrwt>
<rscale>  0 0.39285470E+03</rscale>
<asrwt>0</asrwt>
<pdfrwt beam="1">  1        2 0.10335651E+00 0.39285470E+03</pdfrwt>
<pdfrwt beam="2">  1       -2 0.76185090E-02 0.39285470E+03</pdfrwt>
<totfact> 0.45320471E+03</totfact>
</mgrwt>
</event>
<event>
 4    1  0.1383574E-004  0.3703977E+03  0.7818608E-02  0.1054541E+00
          2   -1    0    0  501    0  0.00000000000E+00  0.00000000000E+00  0.75431828959E+03  0.75431828959E+03  0.25500000000E-02 0.  1.
         -2   -1    0    0    0  501 -0.00000000000E+00 -0.00000000000E+00 -0.45469691834E+02  0.45469691906E+02  0.25500000000E-02 0. -1.
    5000001    1    1    2    0    0 -0.10912815674E+03 -0.55983695216E+02  0.47515985255E+03  0.50690138508E+03  0.12700000000E+03 0.  0.
   -5000001    1    1    2    0    0  0.10912815674E+03  0.55983695216E+02  0.23368874521E+03  0.29288659642E+03  0.12700000000E+03 0.  0.
<mgrwt>
<rscale>  0 0.37039773E+03</rscale>
<asrwt>0</asrwt>
<pdfrwt beam="1">  1        2 0.10775976E+00 0.37039773E+03</pdfrwt>
<pdfrwt beam="2">  1       -2 0.64956700E-02 0.37039773E+03</pdfrwt>
<totfact> 0.55192618E+03</totfact>
</mgrwt>
</event>
<event>
 4    1  0.1383574E-004  0.3041484E+03  0.7818608E-02  0.1083185E+00
         -2   -1    0    0    0  501 -0.00000000000E+00  0.00000000000E+00  0.38824701013E+02  0.38824701097E+02  0.25500000000E-02 0. -1.
          2   -1    0    0  501    0  0.00000000000E+00 -0.00000000000E+00 -0.59566621302E+03  0.59566621302E+03  0.25500000000E-02 0.  1.
    5000001    1    1    2    0    0 -0.43515111147E+02 -0.67552610862E+02 -0.22991481130E+03  0.27467570076E+03  0.12700000000E+03 0.  0.
   -5000001    1    1    2    0    0  0.43515111147E+02  0.67552610862E+02 -0.32692670071E+03  0.35981521336E+03  0.12700000000E+03 0.  0.
<mgrwt>
<rscale>  0 0.30414840E+03</rscale>
<asrwt>0</asrwt>
<pdfrwt beam="1">  1        2 0.85095168E-01 0.30414840E+03</pdfrwt>
<pdfrwt beam="2">  1       -2 0.55463862E-02 0.30414840E+03</pdfrwt>
<totfact> 0.92629946E+03</totfact>
</mgrwt>
</event>
<event>
 4    1  0.1383574E-004  0.3737766E+03  0.7818608E-02  0.1053258E+00
         -2   -1    0    0    0  501 -0.00000000000E+00  0.00000000000E+00  0.28638723400E+02  0.28638723514E+02  0.25500000000E-02 0.  1.
          2   -1    0    0  501    0  0.00000000000E+00 -0.00000000000E+00 -0.12195807335E+04  0.12195807335E+04  0.25500000000E-02 0. -1.
    5000001    1    1    2    0    0  0.93921247964E+02  0.63625674163E+02 -0.33833520567E+03  0.37877320210E+03  0.12700000000E+03 0.  0.
   -5000001    1    1    2    0    0 -0.93921247964E+02 -0.63625674163E+02 -0.85260680446E+03  0.86944625495E+03  0.12700000000E+03 0.  0.
<mgrwt>
<rscale>  0 0.37377659E+03</rscale>
<asrwt>0</asrwt>
<pdfrwt beam="1">  1        2 0.17422579E+00 0.37377659E+03</pdfrwt>
<pdfrwt beam="2">  1       -2 0.40912470E-02 0.37377659E+03</pdfrwt>
<totfact> 0.58387113E+03</totfact>
</mgrwt>
</event>
<event>
 4    1  0.1383574E-004  0.4112956E+03  0.7818608E-02  0.1039937E+00
          2   -1    0    0  501    0  0.00000000000E+00  0.00000000000E+00  0.94595704747E+03  0.94595704747E+03  0.25500000000E-02 0.  1.
         -2   -1    0    0    0  501 -0.00000000000E+00 -0.00000000000E+00 -0.44707117333E+02  0.44707117406E+02  0.25500000000E-02 0. -1.
    5000001    1    1    2    0    0 -0.14070956732E+03  0.14795822823E+02  0.26182801216E+03  0.32357534928E+03  0.12700000000E+03 0.  0.
   -5000001    1    1    2    0    0  0.14070956732E+03 -0.14795822823E+02  0.63942191797E+03  0.66708881560E+03  0.12700000000E+03 0.  0.
<mgrwt>
<rscale>  0 0.41129558E+03</rscale>
<asrwt>0</asrwt>
<pdfrwt beam="1">  1        2 0.13513671E+00 0.41129558E+03</pdfrwt>
<pdfrwt beam="2">  1       -2 0.63867314E-02 0.41129558E+03</pdfrwt>
<totfact> 0.42442857E+03</totfact>
</mgrwt>
</event>
<event>
 4    1  0.1383574E-004  0.1547875E+04  0.7818608E-02  0.8853226E-01
         -2   -1    0    0    0  501 -0.00000000000E+00  0.00000000000E+00  0.32347137138E+04  0.32347137138E+04  0.25500000000E-02 0. -1.
          2   -1    0    0  501    0  0.00000000000E+00 -0.00000000000E+00 -0.18517221571E+03  0.18517221573E+03  0.25500000000E-02 0.  1.
    5000001    1    1    2    0    0 -0.73369731077E+03  0.19994078211E+03  0.13755409374E+04  0.15768734669E+04  0.12700000000E+03 0.  0.
   -5000001    1    1    2    0    0  0.73369731077E+03 -0.19994078211E+03  0.16740005608E+04  0.18430124627E+04  0.12700000000E+03 0.  0.
<mgrwt>
<rscale>  0 0.15478748E+04</rscale>
<asrwt>0</asrwt>
<pdfrwt beam="1">  1        2 0.26453174E-01 0.15478748E+04</pdfrwt>
<pdfrwt beam="2">  1       -2 0.46210195E+00 0.15478748E+04</pdfrwt>
<totfact> 0.57676680E-01</totfact>
</mgrwt>
</event>
<event>
 4    1  0.1383574E-004  0.5248183E+03  0.7818608E-02  0.1007497E+00
          2   -1    0    0  501    0  0.00000000000E+00  0.00000000000E+00  0.19239682679E+04  0.19239682679E+04  0.25500000000E-02 0.  1.
         -2   -1    0    0    0  501 -0.00000000000E+00 -0.00000000000E+00 -0.35789858399E+02  0.35789858490E+02  0.25500000000E-02 0. -1.
    5000001    1    1    2    0    0  0.20016315722E+03 -0.67018020977E+02  0.60650646899E+03  0.65462645957E+03  0.12700000000E+03 0.  0.
   -5000001    1    1    2    0    0 -0.20016315722E+03  0.67018020977E+02  0.12816719405E+04  0.13051316668E+04  0.12700000000E+03 0.  0.
<mgrwt>
<rscale>  0 0.52481826E+03</rscale>
<asrwt>0</asrwt>
<pdfrwt beam="1">  1        2 0.27485257E+00 0.52481826E+03</pdfrwt>
<pdfrwt beam="2">  1       -2 0.51128376E-02 0.52481826E+03</pdfrwt>
<totfact> 0.17984371E+03</totfact>
</mgrwt>
</event>
<event>
 4    1  0.1383574E-004  0.4859954E+03  0.7818608E-02  0.1017500E+00
          2   -1    0    0  501    0  0.00000000000E+00  0.00000000000E+00  0.52088861904E+02  0.52088861967E+02  0.25500000000E-02 0.  1.
         -2   -1    0    0    0  501 -0.00000000000E+00 -0.00000000000E+00 -0.11335989484E+04  0.11335989484E+04  0.25500000000E-02 0. -1.
    5000001    1    1    2    0    0 -0.34025782333E+02 -0.18543784419E+03 -0.75025683830E+03  0.78393830837E+03  0.12700000000E+03 0.  0.
   -5000001    1    1    2    0    0  0.34025782333E+02  0.18543784419E+03 -0.33125324824E+03  0.40174950204E+03  0.12700000000E+03 0.  0.
<mgrwt>
<rscale>  0 0.48599539E+03</rscale>
<asrwt>0</asrwt>
<pdfrwt beam="1">  1        2 0.74412667E-02 0.48599539E+03</pdfrwt>
<pdfrwt beam="2">  1       -2 0.16194269E+00 0.48599539E+03</pdfrwt>
<totfact> 0.24187365E+02</totfact>
</mgrwt>
</event>
<event>
 4    1  0.1383574E-004  0.3614024E+03  0.7818608E-02  0.1058030E+00
          2   -1    0    0  501    0  0.00000000000E+00  0.00000000000E+00  0.14892079173E+04  0.14892079173E+04  0.25500000000E-02 0.  1.
         -2   -1    0    0    0  501 -0.00000000000E+00 -0.00000000000E+00 -0.21926372449E+02  0.21926372598E+02  0.25500000000E-02 0. -1.
    5000001    1    1    2    0    0 -0.81664576276E+02  0.45009395104E+02  0.11036091146E+04  0.11147990970E+04  0.12700000000E+03 0.  0.
   -5000001    1    1    2    0    0  0.81664576276E+02 -0.45009395104E+02  0.36367243019E+03  0.39633519292E+03  0.12700000000E+03 0.  0.
<mgrwt>
<rscale>  0 0.36140242E+03</rscale>
<asrwt>0</asrwt>
<pdfrwt beam="1">  1        2 0.21274395E+00 0.36140242E+03</pdfrwt>
<pdfrwt beam="2">  1       -2 0.31323394E-02 0.36140242E+03</pdfrwt>
<totfact> 0.62980970E+03</totfact>
</mgrwt>
</event>
<event>
 4    1  0.1383574E-004  0.5129040E+03  0.7818608E-02  0.1010465E+00
          2   -1    0    0  501    0  0.00000000000E+00  0.00000000000E+00  0.55877365390E+03  0.55877365390E+03  0.25500000000E-02 0.  1.
         -2   -1    0    0    0  501 -0.00000000000E+00 -0.00000000000E+00 -0.11769995567E+03  0.11769995570E+03  0.25500000000E-02 0. -1.
    5000001    1    1    2    0    0  0.19045106694E+03 -0.24651884862E+02  0.36951697850E+03  0.43537469118E+03  0.12700000000E+03 0.  0.
   -5000001    1    1    2    0    0 -0.19045106694E+03  0.24651884862E+02  0.71556719725E+02  0.24109891842E+03  0.12700000000E+03 0.  0.
<mgrwt>
<rscale>  0 0.51290402E+03</rscale>
<asrwt>0</asrwt>
<pdfrwt beam="1">  1        2 0.79824807E-01 0.51290402E+03</pdfrwt>
<pdfrwt beam="2">  1       -2 0.16814280E-01 0.51290402E+03</pdfrwt>
<totfact> 0.16972453E+03</totfact>
</mgrwt>
</event>
<event>
 4    1  0.1383574E-004  0.5927007E+03  0.7818608E-02  0.9920667E-01
         -2   -1    0    0    0  501 -0.00000000000E+00  0.00000000000E+00  0.30704047361E+02  0.30704047467E+02  0.25500000000E-02 0. -1.
          2   -1    0    0  501    0  0.00000000000E+00 -0.00000000000E+00 -0.28603240788E+04  0.28603240788E+04  0.25500000000E-02 0.  1.
    5000001    1    1    2    0    0 -0.62284739386E+02  0.20826697086E+03 -0.65226139083E+03  0.69916267197E+03  0.12700000000E+03 0.  0.
   -5000001    1    1    2    0    0  0.62284739386E+02 -0.20826697086E+03 -0.21773586406E+04  0.21918654543E+04  0.12700000000E+03 0.  0.
<mgrwt>
<rscale>  0 0.59270069E+03</rscale>
<asrwt>0</asrwt>
<pdfrwt beam="1">  1        2 0.40861756E+00 0.59270069E+03</pdfrwt>
<pdfrwt beam="2">  1       -2 0.43862943E-02 0.59270069E+03</pdfrwt>
<totfact> 0.75429358E+02</totfact>
</mgrwt>
</event>
<event>
 4    1  0.1383574E-004  0.3833929E+03  0.7818608E-02  0.1049687E+00
         -2   -1    0    0    0  501 -0.00000000000E+00  0.00000000000E+00  0.12419973933E+02  0.12419974194E+02  0.25500000000E-02 0. -1.
          2   -1    0    0  501    0  0.00000000000E+00 -0.00000000000E+00 -0.29587450635E+04  0.29587450635E+04  0.25500000000E-02 0.  1.
    5000001    1    1    2    0    0  0.13624648343E+03 -0.42989622159E+02 -0.13615768311E+04  0.13749296996E+04  0.12700000000E+03 0.  0.
   -5000001    1    1    2    0    0 -0.13624648343E+03  0.42989622159E+02 -0.15847482585E+04  0.15962353381E+04  0.12700000000E+03 0.  0.
<mgrwt>
<rscale>  0 0.38339294E+03</rscale>
<asrwt>0</asrwt>
<pdfrwt beam="1">  1        2 0.42267741E+00 0.38339294E+03</pdfrwt>
<pdfrwt beam="2">  1       -2 0.17742839E-02 0.38339294E+03</pdfrwt>
<totfact> 0.26676090E+03</totfact>
</mgrwt>
</event>
<event>
 4    1  0.1383574E-004  0.3359246E+03  0.7818608E-02  0.1068545E+00
         -2   -1    0    0    0  501 -0.00000000000E+00  0.00000000000E+00  0.29161849559E+02  0.29161849670E+02  0.25500000000E-02 0. -1.
          2   -1    0    0  501    0  0.00000000000E+00 -0.00000000000E+00 -0.96740561652E+03  0.96740561652E+03  0.25500000000E-02 0.  1.
    5000001    1    1    2    0    0  0.32286674413E+02  0.73636357452E+02 -0.24677037891E+03  0.28894525847E+03  0.12700000000E+03 0.  0.
   -5000001    1    1    2    0    0 -0.32286674413E+02 -0.73636357452E+02 -0.69147338805E+03  0.70762220773E+03  0.12700000000E+03 0.  0.
<mgrwt>
<rscale>  0 0.33592462E+03</rscale>
<asrwt>0</asrwt>
<pdfrwt beam="1">  1        2 0.13820078E+00 0.33592462E+03</pdfrwt>
<pdfrwt beam="2">  1       -2 0.41659791E-02 0.33592462E+03</pdfrwt>
<totfact> 0.79064756E+03</totfact>
</mgrwt>
</event>
<event>
 4    1  0.1383574E-004  0.4660098E+03  0.7818608E-02  0.1023052E+00
          2   -1    0    0  501    0  0.00000000000E+00  0.00000000000E+00  0.28351034053E+04  0.28351034053E+04  0.25500000000E-02 0.  1.
         -2   -1    0    0    0  501 -0.00000000000E+00 -0.00000000000E+00 -0.19149667426E+02  0.19149667595E+02  0.25500000000E-02 0. -1.
    5000001    1    1    2    0    0  0.53895169800E+02 -0.18700525401E+03  0.15116725506E+04  0.15294307943E+04  0.12700000000E+03 0.  0.
   -5000001    1    1    2    0    0 -0.53895169800E+02  0.18700525401E+03  0.13042811873E+04  0.13248222786E+04  0.12700000000E+03 0.  0.
<mgrwt>
<rscale>  0 0.46600982E+03</rscale>
<asrwt>0</asrwt>
<pdfrwt beam="1">  1        2 0.40501470E+00 0.46600982E+03</pdfrwt>
<pdfrwt beam="2">  1       -2 0.27356673E-02 0.46600982E+03</pdfrwt>
<totfact> 0.16143372E+03</totfact>
</mgrwt>
</event>
<event>
 4    1  0.1383574E-004  0.8626518E+03  0.7818608E-02  0.9473512E-01
          2   -1    0    0  501    0  0.00000000000E+00  0.00000000000E+00  0.25194716789E+04  0.25194716789E+04  0.25500000000E-02 0.  1.
         -2   -1    0    0    0  501 -0.00000000000E+00 -0.00000000000E+00 -0.73841685041E+02  0.73841685085E+02  0.25500000000E-02 0. -1.
    5000001    1    1    2    0    0 -0.13990661396E+03  0.41830448872E+02  0.23816279963E+04  0.23894778843E+04  0.12700000000E+03 0.  0.
   -5000001    1    1    2    0    0  0.13990661396E+03 -0.41830448872E+02  0.64001997627E+02  0.20383547969E+03  0.12700000000E+03 0.  0.
<mgrwt>
<rscale>  0 0.86265181E+03</rscale>
<asrwt>0</asrwt>
<pdfrwt beam="1">  1        2 0.35992447E+00 0.86265181E+03</pdfrwt>
<pdfrwt beam="2">  1       -2 0.10548814E-01 0.86265181E+03</pdfrwt>
<totfact> 0.27711310E+02</totfact>
</mgrwt>
</event>
<event>
 4    1  0.1383574E-004  0.3415064E+03  0.7818608E-02  0.1066156E+00
         -2   -1    0    0    0  501 -0.00000000000E+00  0.00000000000E+00  0.37338794861E+02  0.37338794949E+02  0.25500000000E-02 0. -1.
          2   -1    0    0  501    0  0.00000000000E+00 -0.00000000000E+00 -0.78086756066E+03  0.78086756067E+03  0.25500000000E-02 0.  1.
    5000001    1    1    2    0    0  0.40309906444E+01  0.11219629925E+03 -0.42106325725E+03  0.45390255017E+03  0.12700000000E+03 0.  0.
   -5000001    1    1    2    0    0 -0.40309906444E+01 -0.11219629925E+03 -0.32246550855E+03  0.36430380544E+03  0.12700000000E+03 0.  0.
<mgrwt>
<rscale>  0 0.34150639E+03</rscale>
<asrwt>0</asrwt>
<pdfrwt beam="1">  1        2 0.11155250E+00 0.34150639E+03</pdfrwt>
<pdfrwt beam="2">  1       -2 0.53341140E-02 0.34150639E+03</pdfrwt>
<totfact> 0.71550614E+03</totfact>
</mgrwt>
</event>
<event>
 4    1  0.1383574E-004  0.2791754E+03  0.7818608E-02  0.1096140E+00
         -2   -1    0    0    0  501 -0.00000000000E+00  0.00000000000E+00  0.38611612616E+02  0.38611612700E+02  0.25500000000E-02 0. -1.
          2   -1    0    0  501    0  0.00000000000E+00 -0.00000000000E+00 -0.50463391302E+03  0.50463391303E+03  0.25500000000E-02 0.  1.
    5000001    1    1    2    0    0 -0.44754954897E+02  0.27574955222E+02 -0.28037056800E+03  0.31224996324E+03  0.12700000000E+03 0.  0.
   -5000001    1    1    2    0    0  0.44754954897E+02 -0.27574955222E+02 -0.18565173241E+03  0.23099556249E+03  0.12700000000E+03 0.  0.
<mgrwt>
<rscale>  0 0.27917542E+03</rscale>
<asrwt>0</asrwt>
<pdfrwt beam="1">  1        2 0.72090555E-01 0.27917542E+03</pdfrwt>
<pdfrwt beam="2">  1       -2 0.55159450E-02 0.27917542E+03</pdfrwt>
<totfact> 0.11221725E+04</totfact>
</mgrwt>
</event>
<event>
 4    1  0.1383574E-004  0.3511281E+03  0.7818608E-02  0.1062153E+00
          2   -1    0    0  501    0  0.00000000000E+00  0.00000000000E+00  0.11557032495E+03  0.11557032498E+03  0.25500000000E-02 0.  1.
         -2   -1    0    0    0  501 -0.00000000000E+00 -0.00000000000E+00 -0.26670117036E+03  0.26670117037E+03  0.25500000000E-02 0. -1.
    5000001    1    1    2    0    0  0.11608103612E+03 -0.33788829444E+02 -0.65996728119E+02  0.18735276903E+03  0.12700000000E+03 0.  0.
   -5000001    1    1    2    0    0 -0.11608103612E+03  0.33788829444E+02 -0.85134117290E+02  0.19491872632E+03  0.12700000000E+03 0.  0.
<mgrwt>
<rscale>  0 0.35112813E+03</rscale>
<asrwt>0</asrwt>
<pdfrwt beam="1">  1        2 0.16510046E-01 0.35112813E+03</pdfrwt>
<pdfrwt beam="2">  1       -2 0.38100167E-01 0.35112813E+03</pdfrwt>
<totfact> 0.22854338E+03</totfact>
</mgrwt>
</event>
<event>
 4    1  0.1383574E-004  0.4445604E+03  0.7818608E-02  0.1029357E+00
         -2   -1    0    0    0  501 -0.00000000000E+00  0.00000000000E+00  0.32576025023E+02  0.32576025123E+02  0.25500000000E-02 0. -1.
          2   -1    0    0  501    0  0.00000000000E+00 -0.00000000000E+00 -0.15167133635E+04  0.15167133635E+04  0.25500000000E-02 0.  1.
    5000001    1    1    2    0    0 -0.11821610158E+03  0.83405526088E+02 -0.11293258040E+04  0.11456165589E+04  0.12700000000E+03 0.  0.
   -5000001    1    1    2    0    0  0.11821610158E+03 -0.83405526088E+02 -0.35481153445E+03  0.40367282969E+03  0.12700000000E+03 0.  0.
<mgrwt>
<rscale>  0 0.44456042E+03</rscale>
<asrwt>0</asrwt>
<pdfrwt beam="1">  1        2 0.21667329E+00 0.44456042E+03</pdfrwt>
<pdfrwt beam="2">  1       -2 0.46537188E-02 0.44456042E+03</pdfrwt>
<totfact> 0.33451184E+03</totfact>
</mgrwt>
</event>
<event>
 4    1  0.1383574E-004  0.3946977E+03  0.7818608E-02  0.1045631E+00
          2   -1    0    0  501    0  0.00000000000E+00  0.00000000000E+00  0.29079423735E+04  0.29079423735E+04  0.25500000000E-02 0.  1.
         -2   -1    0    0    0  501 -0.00000000000E+00 -0.00000000000E+00 -0.13393169652E+02  0.13393169895E+02  0.25500000000E-02 0. -1.
    5000001    1    1    2    0    0  0.99481773910E+02 -0.36676263562E+02  0.65094609725E+03  0.67164097044E+03  0.12700000000E+03 0.  0.
   -5000001    1    1    2    0    0 -0.99481773910E+02  0.36676263562E+02  0.22436031066E+04  0.22496945730E+04  0.12700000000E+03 0.  0.
<mgrwt>
<rscale>  0 0.39469769E+03</rscale>
<asrwt>0</asrwt>
<pdfrwt beam="1">  1        2 0.41542008E+00 0.39469769E+03</pdfrwt>
<pdfrwt beam="2">  1       -2 0.19133112E-02 0.39469769E+03</pdfrwt>
<totfact> 0.25359275E+03</totfact>
</mgrwt>
</event>
<event>
 4    1  0.1383574E-004  0.4149040E+03  0.7818608E-02  0.1038738E+00
          2   -1    0    0  501    0  0.00000000000E+00  0.00000000000E+00  0.12610552892E+03  0.12610552895E+03  0.25500000000E-02 0.  1.
         -2   -1    0    0    0  501 -0.00000000000E+00 -0.00000000000E+00 -0.34127229548E+03  0.34127229549E+03  0.25500000000E-02 0. -1.
    5000001    1    1    2    0    0 -0.10136823699E+03 -0.10965212964E+03 -0.31114127917E+02  0.19848475499E+03  0.12700000000E+03 0.  0.
   -5000001    1    1    2    0    0  0.10136823699E+03  0.10965212964E+03 -0.18405263865E+03  0.26889306945E+03  0.12700000000E+03 0.  0.
<mgrwt>
<rscale>  0 0.41490396E+03</rscale>
<asrwt>0</asrwt>
<pdfrwt beam="1">  1        2 0.18015076E-01 0.41490396E+03</pdfrwt>
<pdfrwt beam="2">  1       -2 0.48753185E-01 0.41490396E+03</pdfrwt>
<totfact> 0.12777699E+03</totfact>
</mgrwt>
</event>
<event>
 4    1  0.1383574E-004  0.3885443E+03  0.7818608E-02  0.1047820E+00
         -2   -1    0    0    0  501 -0.00000000000E+00  0.00000000000E+00  0.26178494922E+03  0.26178494923E+03  0.25500000000E-02 0. -1.
          2   -1    0    0  501    0  0.00000000000E+00 -0.00000000000E+00 -0.14417052660E+03  0.14417052662E+03  0.25500000000E-02 0.  1.
    5000001    1    1    2    0    0  0.12230541941E+03 -0.79435936217E+02  0.78185302611E+02  0.20859200638E+03  0.12700000000E+03 0.  0.
   -5000001    1    1    2    0    0 -0.12230541941E+03  0.79435936217E+02  0.39429120009E+02  0.19736346948E+03  0.12700000000E+03 0.  0.
<mgrwt>
<rscale>  0 0.38854433E+03</rscale>
<asrwt>0</asrwt>
<pdfrwt beam="1">  1        2 0.20595790E-01 0.38854433E+03</pdfrwt>
<pdfrwt beam="2">  1       -2 0.37397850E-01 0.38854433E+03</pdfrwt>
<totfact> 0.18323940E+03</totfact>
</mgrwt>
</event>
<event>
 4    1  0.1383574E-004  0.3124591E+03  0.7818608E-02  0.1079173E+00
          2   -1    0    0  501    0  0.00000000000E+00  0.00000000000E+00  0.84445513292E+03  0.84445513293E+03  0.25500000000E-02 0.  1.
         -2   -1    0    0    0  501 -0.00000000000E+00 -0.00000000000E+00 -0.28903448123E+02  0.28903448236E+02  0.25500000000E-02 0. -1.
    5000001    1    1    2    0    0 -0.42241265676E+02 -0.52505247184E+02  0.57865629397E+03  0.59624930362E+03  0.12700000000E+03 0.  0.
   -5000001    1    1    2    0    0  0.42241265676E+02  0.52505247184E+02  0.23689539083E+03  0.27710927755E+03  0.12700000000E+03 0.  0.
<mgrwt>
<rscale>  0 0.31245905E+03</rscale>
<asrwt>0</asrwt>
<pdfrwt beam="1">  1        2 0.12063646E+00 0.31245905E+03</pdfrwt>
<pdfrwt beam="2">  1       -2 0.41290636E-02 0.31245905E+03</pdfrwt>
<totfact> 0.95538926E+03</totfact>
</mgrwt>
</event>
<event>
 4    1  0.1383574E-004  0.2991760E+03  0.7818608E-02  0.1085653E+00
         -2   -1    0    0    0  501 -0.00000000000E+00  0.00000000000E+00  0.83348910344E+02  0.83348910383E+02  0.25500000000E-02 0. -1.
          2   -1    0    0  501    0  0.00000000000E+00 -0.00000000000E+00 -0.26846863833E+03  0.26846863834E+03  0.25500000000E-02 0.  1.
    5000001    1    1    2    0    0  0.17088747926E+02  0.44368852542E+02 -0.18307369178E+02  0.13683851851E+03  0.12700000000E+03 0.  0.
   -5000001    1    1    2    0    0 -0.17088747926E+02 -0.44368852542E+02 -0.16681235881E+03  0.21497903021E+03  0.12700000000E+03 0.  0.
<mgrwt>
<rscale>  0 0.29917599E+03</rscale>
<asrwt>0</asrwt>
<pdfrwt beam="1">  1        2 0.38352662E-01 0.29917599E+03</pdfrwt>
<pdfrwt beam="2">  1       -2 0.11906987E-01 0.29917599E+03</pdfrwt>
<totfact> 0.66761297E+03</totfact>
</mgrwt>
</event>
<event>
 4    1  0.1383574E-004  0.3300454E+03  0.7818608E-02  0.1071117E+00
          2   -1    0    0  501    0  0.00000000000E+00  0.00000000000E+00  0.25221550331E+03  0.25221550332E+03  0.25500000000E-02 0.  1.
         -2   -1    0    0    0  501 -0.00000000000E+00 -0.00000000000E+00 -0.10797311677E+03  0.10797311680E+03  0.25500000000E-02 0. -1.
    5000001    1    1    2    0    0 -0.41063134079E+02  0.82721610991E+02  0.16748155008E+02  0.15791943073E+03  0.12700000000E+03 0.  0.
   -5000001    1    1    2    0    0  0.41063134079E+02 -0.82721610991E+02  0.12749423153E+03  0.20226918940E+03  0.12700000000E+03 0.  0.
<mgrwt>
<rscale>  0 0.33004542E+03</rscale>
<asrwt>0</asrwt>
<pdfrwt beam="1">  1        2 0.36030786E-01 0.33004542E+03</pdfrwt>
<pdfrwt beam="2">  1       -2 0.15424731E-01 0.33004542E+03</pdfrwt>
<totfact> 0.46880620E+03</totfact>
</mgrwt>
</event>
<event>
 4    1  0.1383574E-004  0.3862366E+03  0.7818608E-02  0.1048652E+00
         -2   -1    0    0    0  501 -0.00000000000E+00  0.00000000000E+00  0.29606629306E+02  0.29606629416E+02  0.25500000000E-02 0. -1.
          2   -1    0    0  501    0  0.00000000000E+00 -0.00000000000E+00 -0.12596732743E+04  0.12596732743E+04  0.25500000000E-02 0.  1.
    5000001    1    1    2    0    0  0.40535921974E+02 -0.10468447059E+03 -0.92393765675E+03  0.93935711682E+03  0.12700000000E+03 0.  0.
   -5000001    1    1    2    0    0 -0.40535921974E+02  0.10468447059E+03 -0.30612898828E+03  0.34992278694E+03  0.12700000000E+03 0.  0.
<mgrwt>
<rscale>  0 0.38623661E+03</rscale>
<asrwt>0</asrwt>
<pdfrwt beam="1">  1        2 0.17995329E+00 0.38623661E+03</pdfrwt>
<pdfrwt beam="2">  1       -2 0.42295193E-02 0.38623661E+03</pdfrwt>
<totfact> 0.52814272E+03</totfact>
</mgrwt>
</event>
<event>
 4    1  0.1383574E-004  0.4109585E+03  0.7818608E-02  0.1040050E+00
         -2   -1    0    0    0  501 -0.00000000000E+00  0.00000000000E+00  0.56724357773E+02  0.56724357830E+02  0.25500000000E-02 0. -1.
          2   -1    0    0  501    0  0.00000000000E+00 -0.00000000000E+00 -0.74433129501E+03  0.74433129502E+03  0.25500000000E-02 0.  1.
    5000001    1    1    2    0    0 -0.14431455970E+03  0.62608522558E+02 -0.41532203858E+03  0.46191764955E+03  0.12700000000E+03 0.  0.
   -5000001    1    1    2    0    0  0.14431455970E+03 -0.62608522558E+02 -0.27228489866E+03  0.33913800329E+03  0.12700000000E+03 0.  0.
<mgrwt>
<rscale>  0 0.41095846E+03</rscale>
<asrwt>0</asrwt>
<pdfrwt beam="1">  1        2 0.10633304E+00 0.41095846E+03</pdfrwt>
<pdfrwt beam="2">  1       -2 0.81034801E-02 0.41095846E+03</pdfrwt>
<totfact> 0.39745888E+03</totfact>
</mgrwt>
</event>
<event>
 4    1  0.1383574E-004  0.5454012E+03  0.7818608E-02  0.1002564E+00
          2   -1    0    0  501    0  0.00000000000E+00  0.00000000000E+00  0.84149012944E+02  0.84149012983E+02  0.25500000000E-02 0.  1.
         -2   -1    0    0    0  501 -0.00000000000E+00 -0.00000000000E+00 -0.88373731243E+03  0.88373731244E+03  0.25500000000E-02 0. -1.
    5000001    1    1    2    0    0 -0.99748976748E+02  0.21009434070E+03 -0.51407729639E+03  0.57835452537E+03  0.12700000000E+03 0.  0.
   -5000001    1    1    2    0    0  0.99748976748E+02 -0.21009434070E+03 -0.28551100310E+03  0.38953180005E+03  0.12700000000E+03 0.  0.
<mgrwt>
<rscale>  0 0.54540122E+03</rscale>
<asrwt>0</asrwt>
<pdfrwt beam="1">  1        2 0.12021288E-01 0.54540122E+03</pdfrwt>
<pdfrwt beam="2">  1       -2 0.12624818E+00 0.54540122E+03</pdfrwt>
<totfact> 0.24982353E+02</totfact>
</mgrwt>
</event>
<event>
 4    1  0.1383574E-004  0.5688978E+03  0.7818608E-02  0.9972121E-01
         -2   -1    0    0    0  501 -0.00000000000E+00  0.00000000000E+00  0.35635716434E+02  0.35635716526E+02  0.25500000000E-02 0. -1.
          2   -1    0    0  501    0  0.00000000000E+00 -0.00000000000E+00 -0.22705077100E+04  0.22705077100E+04  0.25500000000E-02 0.  1.
    5000001    1    1    2    0    0 -0.25370258052E+03 -0.12398365976E+02 -0.10516397179E+04  0.10893088704E+04  0.12700000000E+03 0.  0.
   -5000001    1    1    2    0    0  0.25370258052E+03  0.12398365976E+02 -0.11832322757E+04  0.12168345561E+04  0.12700000000E+03 0.  0.
<mgrwt>
<rscale>  0 0.56889777E+03</rscale>
<asrwt>0</asrwt>
<pdfrwt beam="1">  1        2 0.32435815E+00 0.56889777E+03</pdfrwt>
<pdfrwt beam="2">  1       -2 0.50908181E-02 0.56889777E+03</pdfrwt>
<totfact> 0.12107752E+03</totfact>
</mgrwt>
</event>
<event>
 4    1  0.1383574E-004  0.3627157E+03  0.7818608E-02  0.1057514E+00
          2   -1    0    0  501    0  0.00000000000E+00  0.00000000000E+00  0.11035485207E+04  0.11035485207E+04  0.25500000000E-02 0.  1.
         -2   -1    0    0    0  501 -0.00000000000E+00 -0.00000000000E+00 -0.29804461863E+02  0.29804461972E+02  0.25500000000E-02 0. -1.
    5000001    1    1    2    0    0 -0.44691124060E+02  0.10633078262E+03  0.72061891834E+03  0.74075917637E+03  0.12700000000E+03 0.  0.
   -5000001    1    1    2    0    0  0.44691124060E+02 -0.10633078262E+03  0.35312514051E+03  0.39259380632E+03  0.12700000000E+03 0.  0.
<mgrwt>
<rscale>  0 0.36271570E+03</rscale>
<asrwt>0</asrwt>
<pdfrwt beam="1">  1        2 0.15764975E+00 0.36271570E+03</pdfrwt>
<pdfrwt beam="2">  1       -2 0.42577814E-02 0.36271570E+03</pdfrwt>
<totfact> 0.63746291E+03</totfact>
</mgrwt>
</event>
<event>
 4    1  0.1383574E-004  0.4324982E+03  0.7818608E-02  0.1033074E+00
         -2   -1    0    0    0  501 -0.00000000000E+00  0.00000000000E+00  0.30212528953E+02  0.30212529061E+02  0.25500000000E-02 0. -1.
          2   -1    0    0  501    0  0.00000000000E+00 -0.00000000000E+00 -0.15478236583E+04  0.15478236583E+04  0.25500000000E-02 0.  1.
    5000001    1    1    2    0    0 -0.11934348720E+03 -0.31603600822E+01 -0.12258020827E+04  0.12381327077E+04  0.12700000000E+03 0.  0.
   -5000001    1    1    2    0    0  0.11934348720E+03  0.31603600822E+01 -0.29180904665E+03  0.33990347971E+03  0.12700000000E+03 0.  0.
<mgrwt>
<rscale>  0 0.43249817E+03</rscale>
<asrwt>0</asrwt>
<pdfrwt beam="1">  1        2 0.22111762E+00 0.43249817E+03</pdfrwt>
<pdfrwt beam="2">  1       -2 0.43160765E-02 0.43249817E+03</pdfrwt>
<totfact> 0.36191905E+03</totfact>
</mgrwt>
</event>
<event>
 4    1  0.1383574E-004  0.3120474E+03  0.7818608E-02  0.1079369E+00
         -2   -1    0    0    0  501 -0.00000000000E+00  0.00000000000E+00  0.28009650304E+02  0.28009650420E+02  0.25500000000E-02 0. -1.
          2   -1    0    0  501    0  0.00000000000E+00 -0.00000000000E+00 -0.86910727257E+03  0.86910727258E+03  0.25500000000E-02 0.  1.
    5000001    1    1    2    0    0  0.41137748509E+02 -0.77129930021E+02 -0.48937043554E+03  0.51308260898E+03  0.12700000000E+03 0.  0.
   -5000001    1    1    2    0    0 -0.41137748509E+02  0.77129930021E+02 -0.35172718673E+03  0.38403431402E+03  0.12700000000E+03 0.  0.
<mgrwt>
<rscale>  0 0.31204737E+03</rscale>
<asrwt>0</asrwt>
<pdfrwt beam="1">  1        2 0.12415816E+00 0.31204737E+03</pdfrwt>
<pdfrwt beam="2">  1       -2 0.40013792E-02 0.31204737E+03</pdfrwt>
<totfact> 0.96562309E+03</totfact>
</mgrwt>
</event>
<event>
 4    1  0.1383574E-004  0.3130720E+03  0.7818608E-02  0.1078883E+00
          2   -1    0    0  501    0  0.00000000000E+00  0.00000000000E+00  0.10410651846E+04  0.10410651846E+04  0.25500000000E-02 0.  1.
         -2   -1    0    0    0  501 -0.00000000000E+00 -0.00000000000E+00 -0.23536962848E+02  0.23536962986E+02  0.25500000000E-02 0. -1.
    5000001    1    1    2    0    0 -0.66853764946E+02 -0.30292174107E+02  0.69462799744E+03  0.70994654484E+03  0.12700000000E+03 0.  0.
   -5000001    1    1    2    0    0  0.66853764946E+02  0.30292174107E+02  0.32290022428E+03  0.35465560272E+03  0.12700000000E+03 0.  0.
<mgrwt>
<rscale>  0 0.31307196E+03</rscale>
<asrwt>0</asrwt>
<pdfrwt beam="1">  1        2 0.14872359E+00 0.31307196E+03</pdfrwt>
<pdfrwt beam="2">  1       -2 0.33624234E-02 0.31307196E+03</pdfrwt>
<totfact> 0.98571689E+03</totfact>
</mgrwt>
</event>
<event>
 4    1  0.1383574E-004  0.3565999E+03  0.7818608E-02  0.1059938E+00
         -2   -1    0    0    0  501 -0.00000000000E+00  0.00000000000E+00  0.59079912763E+02  0.59079912818E+02  0.25500000000E-02 0. -1.
          2   -1    0    0  501    0  0.00000000000E+00 -0.00000000000E+00 -0.53809954409E+03  0.53809954409E+03  0.25500000000E-02 0.  1.
    5000001    1    1    2    0    0 -0.84113899130E+02 -0.88795777466E+02 -0.19513839579E+03  0.26299777876E+03  0.12700000000E+03 0.  0.
   -5000001    1    1    2    0    0  0.84113899130E+02  0.88795777466E+02 -0.28388123553E+03  0.33418167815E+03  0.12700000000E+03 0.  0.
<mgrwt>
<rscale>  0 0.35659991E+03</rscale>
<asrwt>0</asrwt>
<pdfrwt beam="1">  1        2 0.76871361E-01 0.35659991E+03</pdfrwt>
<pdfrwt beam="2">  1       -2 0.84399879E-02 0.35659991E+03</pdfrwt>
<totfact> 0.54400422E+03</totfact>
</mgrwt>
</event>
<event>
 4    1  0.1383574E-004  0.3592895E+03  0.7818608E-02  0.1058866E+00
          2   -1    0    0  501    0  0.00000000000E+00  0.00000000000E+00  0.12306870897E+03  0.12306870900E+03  0.25500000000E-02 0.  1.
         -2   -1    0    0    0  501 -0.00000000000E+00 -0.00000000000E+00 -0.26222945639E+03  0.26222945640E+03  0.25500000000E-02 0. -1.
    5000001    1    1    2    0    0 -0.12231572767E+03 -0.13689475519E+02 -0.35758410514E+02  0.18043337523E+03  0.12700000000E+03 0.  0.
   -5000001    1    1    2    0    0  0.12231572767E+03  0.13689475519E+02 -0.10340233690E+03  0.20486479017E+03  0.12700000000E+03 0.  0.
<mgrwt>
<rscale>  0 0.35928952E+03</rscale>
<asrwt>0</asrwt>
<pdfrwt beam="1">  1        2 0.17581244E-01 0.35928952E+03</pdfrwt>
<pdfrwt beam="2">  1       -2 0.37461351E-01 0.35928952E+03</pdfrwt>
<totfact> 0.21927169E+03</totfact>
</mgrwt>
</event>
<event>
 4    1  0.1383574E-004  0.2771318E+03  0.7818608E-02  0.1097266E+00
         -2   -1    0    0    0  501 -0.00000000000E+00  0.00000000000E+00  0.38734081040E+02  0.38734081124E+02  0.25500000000E-02 0. -1.
          2   -1    0    0  501    0  0.00000000000E+00 -0.00000000000E+00 -0.49570066100E+03  0.49570066100E+03  0.25500000000E-02 0.  1.
    5000001    1    1    2    0    0 -0.28124900701E+01  0.54575641294E+02 -0.24627305535E+03  0.28242844849E+03  0.12700000000E+03 0.  0.
   -5000001    1    1    2    0    0  0.28124900701E+01 -0.54575641294E+02 -0.21069352460E+03  0.25200629364E+03  0.12700000000E+03 0.  0.
<mgrwt>
<rscale>  0 0.27713181E+03</rscale>
<asrwt>0</asrwt>
<pdfrwt beam="1">  1        2 0.70814376E-01 0.27713181E+03</pdfrwt>
<pdfrwt beam="2">  1       -2 0.55334405E-02 0.27713181E+03</pdfrwt>
<totfact> 0.11386859E+04</totfact>
</mgrwt>
</event>
<event>
 4    1  0.1383574E-004  0.5532134E+03  0.7818608E-02  0.1000753E+00
         -2   -1    0    0    0  501 -0.00000000000E+00  0.00000000000E+00  0.43075539277E+02  0.43075539353E+02  0.25500000000E-02 0. -1.
          2   -1    0    0  501    0  0.00000000000E+00 -0.00000000000E+00 -0.17762115722E+04  0.17762115722E+04  0.25500000000E-02 0.  1.
    5000001    1    1    2    0    0 -0.85175824438E+02 -0.22801078993E+03 -0.97752680524E+03  0.10153479681E+04  0.12700000000E+03 0.  0.
   -5000001    1    1    2    0    0  0.85175824438E+02  0.22801078993E+03 -0.75560922764E+03  0.80393914340E+03  0.12700000000E+03 0.  0.
<mgrwt>
<rscale>  0 0.55321342E+03</rscale>
<asrwt>0</asrwt>
<pdfrwt beam="1">  1        2 0.25374446E+00 0.55321342E+03</pdfrwt>
<pdfrwt beam="2">  1       -2 0.61536496E-02 0.55321342E+03</pdfrwt>
<totfact> 0.15970043E+03</totfact>
</mgrwt>
</event>
<event>
 4    1  0.1383574E-004  0.3679022E+03  0.7818608E-02  0.1055498E+00
         -2   -1    0    0    0  501 -0.00000000000E+00  0.00000000000E+00  0.90124438665E+02  0.90124438701E+02  0.25500000000E-02 0. -1.
          2   -1    0    0  501    0  0.00000000000E+00 -0.00000000000E+00 -0.37545874150E+03  0.37545874151E+03  0.25500000000E-02 0.  1.
    5000001    1    1    2    0    0  0.22987897507E+02 -0.12209656153E+03 -0.20300142505E+03  0.26976766363E+03  0.12700000000E+03 0.  0.
   -5000001    1    1    2    0    0 -0.22987897507E+02  0.12209656153E+03 -0.82332877787E+02  0.19581551658E+03  0.12700000000E+03 0.  0.
<mgrwt>
<rscale>  0 0.36790221E+03</rscale>
<asrwt>0</asrwt>
<pdfrwt beam="1">  1        2 0.53636963E-01 0.36790221E+03</pdfrwt>
<pdfrwt beam="2">  1       -2 0.12874920E-01 0.36790221E+03</pdfrwt>
<totfact> 0.41113780E+03</totfact>
</mgrwt>
</event>
<event>
 4    1  0.1383574E-004  0.3315435E+03  0.7818608E-02  0.1070456E+00
         -2   -1    0    0    0  501 -0.00000000000E+00  0.00000000000E+00  0.92891908856E+01  0.92891912356E+01  0.25500000000E-02 0. -1.
          2   -1    0    0  501    0  0.00000000000E+00 -0.00000000000E+00 -0.29583064680E+04  0.29583064681E+04  0.25500000000E-02 0.  1.
    5000001    1    1    2    0    0  0.68662832952E+02  0.35447647962E+02 -0.81796810991E+03  0.83136751753E+03  0.12700000000E+03 0.  0.
   -5000001    1    1    2    0    0 -0.68662832952E+02 -0.35447647962E+02 -0.21310491673E+04  0.21362281418E+04  0.12700000000E+03 0.  0.
<mgrwt>
<rscale>  0 0.33154351E+03</rscale>
<asrwt>0</asrwt>
<pdfrwt beam="1">  1        2 0.42261461E+00 0.33154351E+03</pdfrwt>
<pdfrwt beam="2">  1       -2 0.13270292E-02 0.33154351E+03</pdfrwt>
<totfact> 0.41098909E+03</totfact>
</mgrwt>
</event>
<event>
 4    1  0.1383574E-004  0.5286956E+03  0.7818608E-02  0.1006549E+00
          2   -1    0    0  501    0  0.00000000000E+00  0.00000000000E+00  0.12587964904E+03  0.12587964907E+03  0.25500000000E-02 0.  1.
         -2   -1    0    0    0  501 -0.00000000000E+00 -0.00000000000E+00 -0.55513144030E+03  0.55513144030E+03  0.25500000000E-02 0. -1.
    5000001    1    1    2    0    0  0.15787602293E+03  0.16978153198E+03 -0.21511412952E+03  0.34081328604E+03  0.12700000000E+03 0.  0.
   -5000001    1    1    2    0    0 -0.15787602293E+03 -0.16978153198E+03 -0.21413766174E+03  0.34019780333E+03  0.12700000000E+03 0.  0.
<mgrwt>
<rscale>  0 0.52869557E+03</rscale>
<asrwt>0</asrwt>
<pdfrwt beam="1">  1        2 0.17982807E-01 0.52869557E+03</pdfrwt>
<pdfrwt beam="2">  1       -2 0.79304490E-01 0.52869557E+03</pdfrwt>
<totfact> 0.45854260E+02</totfact>
</mgrwt>
</event>
<event>
 4    1  0.1383574E-004  0.3213533E+03  0.7818608E-02  0.1075028E+00
          2   -1    0    0  501    0  0.00000000000E+00  0.00000000000E+00  0.15607191381E+04  0.15607191381E+04  0.25500000000E-02 0.  1.
         -2   -1    0    0    0  501 -0.00000000000E+00 -0.00000000000E+00 -0.16541721187E+02  0.16541721383E+02  0.25500000000E-02 0. -1.
    5000001    1    1    2    0    0 -0.53845172270E+02  0.76141537008E+02  0.92661036185E+03  0.93991095265E+03  0.12700000000E+03 0.  0.
   -5000001    1    1    2    0    0  0.53845172270E+02 -0.76141537008E+02  0.61756705505E+03  0.63734990681E+03  0.12700000000E+03 0.  0.
<mgrwt>
<rscale>  0 0.32135327E+03</rscale>
<asrwt>0</asrwt>
<pdfrwt beam="1">  1        2 0.22295974E+00 0.32135327E+03</pdfrwt>
<pdfrwt beam="2">  1       -2 0.23631044E-02 0.32135327E+03</pdfrwt>
<totfact> 0.88096985E+03</totfact>
</mgrwt>
</event>
<event>
 4    1  0.1383574E-004  0.2736830E+03  0.7818608E-02  0.1099190E+00
          2   -1    0    0  501    0  0.00000000000E+00  0.00000000000E+00  0.45275075972E+03  0.45275075972E+03  0.25500000000E-02 0.  1.
         -2   -1    0    0    0  501 -0.00000000000E+00 -0.00000000000E+00 -0.41359620187E+02  0.41359620265E+02  0.25500000000E-02 0. -1.
    5000001    1    1    2    0    0 -0.10285833286E+02  0.47907295590E+02  0.23095146769E+03  0.26808298671E+03  0.12700000000E+03 0.  0.
   -5000001    1    1    2    0    0  0.10285833286E+02 -0.47907295590E+02  0.18043967184E+03  0.22602739328E+03  0.12700000000E+03 0.  0.
<mgrwt>
<rscale>  0 0.27368302E+03</rscale>
<asrwt>0</asrwt>
<pdfrwt beam="1">  1        2 0.64678688E-01 0.27368302E+03</pdfrwt>
<pdfrwt beam="2">  1       -2 0.59085165E-02 0.27368302E+03</pdfrwt>
<totfact> 0.11371344E+04</totfact>
</mgrwt>
</event>
<event>
 4    1  0.1383574E-004  0.3645046E+03  0.7818608E-02  0.1056814E+00
         -2   -1    0    0    0  501 -0.00000000000E+00  0.00000000000E+00  0.25479660270E+03  0.25479660271E+03  0.25500000000E-02 0. -1.
          2   -1    0    0  501    0  0.00000000000E+00 -0.00000000000E+00 -0.13036243363E+03  0.13036243366E+03  0.25500000000E-02 0.  1.
    5000001    1    1    2    0    0  0.66865155210E+02 -0.13259045432E+02  0.18007260415E+03  0.23065535769E+03  0.12700000000E+03 0.  0.
   -5000001    1    1    2    0    0 -0.66865155210E+02  0.13259045432E+02 -0.55638435079E+02  0.15450367868E+03  0.12700000000E+03 0.  0.
<mgrwt>
<rscale>  0 0.36450462E+03</rscale>
<asrwt>0</asrwt>
<pdfrwt beam="1">  1        2 0.18623205E-01 0.36450462E+03</pdfrwt>
<pdfrwt beam="2">  1       -2 0.36399514E-01 0.36450462E+03</pdfrwt>
<totfact> 0.21652532E+03</totfact>
</mgrwt>
</event>
<event>
 4    1  0.1383574E-004  0.4889555E+03  0.7818608E-02  0.1016703E+00
          2   -1    0    0  501    0  0.00000000000E+00  0.00000000000E+00  0.46335764278E+03  0.46335764278E+03  0.25500000000E-02 0.  1.
         -2   -1    0    0    0  501 -0.00000000000E+00 -0.00000000000E+00 -0.12899188860E+03  0.12899188862E+03  0.25500000000E-02 0. -1.
    5000001    1    1    2    0    0 -0.20006954387E+03 -0.23089079554E+02  0.99955645351E+02  0.25822675891E+03  0.12700000000E+03 0.  0.
   -5000001    1    1    2    0    0  0.20006954387E+03  0.23089079554E+02  0.23441010883E+03  0.33412277250E+03  0.12700000000E+03 0.  0.
<mgrwt>
<rscale>  0 0.48895553E+03</rscale>
<asrwt>0</asrwt>
<pdfrwt beam="1">  1        2 0.66193949E-01 0.48895553E+03</pdfrwt>
<pdfrwt beam="2">  1       -2 0.18427413E-01 0.48895553E+03</pdfrwt>
<totfact> 0.17949523E+03</totfact>
</mgrwt>
</event>
<event>
 4    1  0.1383574E-004  0.3286338E+03  0.7818608E-02  0.1071743E+00
          2   -1    0    0  501    0  0.00000000000E+00  0.00000000000E+00  0.34737871934E+03  0.34737871935E+03  0.25500000000E-02 0.  1.
         -2   -1    0    0    0  501 -0.00000000000E+00 -0.00000000000E+00 -0.77725102442E+02  0.77725102484E+02  0.25500000000E-02 0. -1.
    5000001    1    1    2    0    0  0.51756720979E+02  0.87399617042E+02  0.16526220517E+03  0.23185781782E+03  0.12700000000E+03 0.  0.
   -5000001    1    1    2    0    0 -0.51756720979E+02 -0.87399617042E+02  0.10439141173E+03  0.19324600402E+03  0.12700000000E+03 0.  0.
<mgrwt>
<rscale>  0 0.32863382E+03</rscale>
<asrwt>0</asrwt>
<pdfrwt beam="1">  1        2 0.49625533E-01 0.32863382E+03</pdfrwt>
<pdfrwt beam="2">  1       -2 0.11103586E-01 0.32863382E+03</pdfrwt>
<totfact> 0.56728166E+03</totfact>
</mgrwt>
</event>
<event>
 4    1  0.1383574E-004  0.3167503E+03  0.7818608E-02  0.1077155E+00
         -2   -1    0    0    0  501 -0.00000000000E+00  0.00000000000E+00  0.15947257071E+02  0.15947257275E+02  0.25500000000E-02 0. -1.
          2   -1    0    0  501    0  0.00000000000E+00 -0.00000000000E+00 -0.15728528536E+04  0.15728528536E+04  0.25500000000E-02 0.  1.
    5000001    1    1    2    0    0  0.40604988273E+02  0.62334837914E+02 -0.10717583652E+04  0.10818176327E+04  0.12700000000E+03 0.  0.
   -5000001    1    1    2    0    0 -0.40604988273E+02 -0.62334837914E+02 -0.48514723133E+03  0.50698247816E+03  0.12700000000E+03 0.  0.
<mgrwt>
<rscale>  0 0.31675031E+03</rscale>
<asrwt>0</asrwt>
<pdfrwt beam="1">  1        2 0.22469317E+00 0.31675031E+03</pdfrwt>
<pdfrwt beam="2">  1       -2 0.22781806E-02 0.31675031E+03</pdfrwt>
<totfact> 0.91690895E+03</totfact>
</mgrwt>
</event>
<event>
 4    1  0.1383574E-004  0.4387920E+03  0.7818608E-02  0.1031118E+00
         -2   -1    0    0    0  501 -0.00000000000E+00  0.00000000000E+00  0.32086418617E+02  0.32086418718E+02  0.25500000000E-02 0. -1.
          2   -1    0    0  501    0  0.00000000000E+00 -0.00000000000E+00 -0.15001550455E+04  0.15001550455E+04  0.25500000000E-02 0.  1.
    5000001    1    1    2    0    0 -0.12363585489E+03  0.12920366032E+03 -0.71616301039E+03  0.74899790914E+03  0.12700000000E+03 0.  0.
   -5000001    1    1    2    0    0  0.12363585489E+03 -0.12920366032E+03 -0.75190561654E+03  0.78324355512E+03  0.12700000000E+03 0.  0.
<mgrwt>
<rscale>  0 0.43879199E+03</rscale>
<asrwt>0</asrwt>
<pdfrwt beam="1">  1        2 0.21430782E+00 0.43879199E+03</pdfrwt>
<pdfrwt beam="2">  1       -2 0.45837751E-02 0.43879199E+03</pdfrwt>
<totfact> 0.34916900E+03</totfact>
</mgrwt>
</event>
<event>
 4    1  0.1383574E-004  0.3861175E+03  0.7818608E-02  0.1048696E+00
          2   -1    0    0  501    0  0.00000000000E+00  0.00000000000E+00  0.12243327795E+03  0.12243327797E+03  0.25500000000E-02 0.  1.
         -2   -1    0    0    0  501 -0.00000000000E+00 -0.00000000000E+00 -0.30442449602E+03  0.30442449603E+03  0.25500000000E-02 0. -1.
    5000001    1    1    2    0    0 -0.12324787614E+03  0.39016686654E+02 -0.16457947311E+03  0.24480143746E+03  0.12700000000E+03 0.  0.
   -5000001    1    1    2    0    0  0.12324787614E+03 -0.39016686654E+02 -0.17411744956E+02  0.18205633654E+03  0.12700000000E+03 0.  0.
<mgrwt>
<rscale>  0 0.38611754E+03</rscale>
<asrwt>0</asrwt>
<pdfrwt beam="1">  1        2 0.17490468E-01 0.38611754E+03</pdfrwt>
<pdfrwt beam="2">  1       -2 0.43489214E-01 0.38611754E+03</pdfrwt>
<totfact> 0.16569909E+03</totfact>
</mgrwt>
</event>
<event>
 4    1  0.1383574E-004  0.4770664E+03  0.7818608E-02  0.1019945E+00
          2   -1    0    0  501    0  0.00000000000E+00  0.00000000000E+00  0.77806234830E+03  0.77806234830E+03  0.25500000000E-02 0.  1.
         -2   -1    0    0    0  501 -0.00000000000E+00 -0.00000000000E+00 -0.73127933623E+02  0.73127933668E+02  0.25500000000E-02 0. -1.
    5000001    1    1    2    0    0  0.13279459456E+03  0.14467634517E+03  0.43621988089E+03  0.49495700185E+03  0.12700000000E+03 0.  0.
   -5000001    1    1    2    0    0 -0.13279459456E+03 -0.14467634517E+03  0.26871453379E+03  0.35623328012E+03  0.12700000000E+03 0.  0.
<mgrwt>
<rscale>  0 0.47706642E+03</rscale>
<asrwt>0</asrwt>
<pdfrwt beam="1">  1        2 0.11115177E+00 0.47706642E+03</pdfrwt>
<pdfrwt beam="2">  1       -2 0.10446847E-01 0.47706642E+03</pdfrwt>
<totfact> 0.25097315E+03</totfact>
</mgrwt>
</event>
<event>
 4    1  0.1383574E-004  0.3720368E+03  0.7818608E-02  0.1053917E+00
         -2   -1    0    0    0  501 -0.00000000000E+00  0.00000000000E+00  0.10987255186E+03  0.10987255189E+03  0.25500000000E-02 0. -1.
          2   -1    0    0  501    0  0.00000000000E+00 -0.00000000000E+00 -0.31493618166E+03  0.31493618167E+03  0.25500000000E-02 0.  1.
    5000001    1    1    2    0    0  0.38748965631E+02 -0.25609902619E+02 -0.24838669328E+03  0.28281141923E+03  0.12700000000E+03 0.  0.
   -5000001    1    1    2    0    0 -0.38748965631E+02  0.25609902619E+02  0.43323063472E+02  0.14199731433E+03  0.12700000000E+03 0.  0.
<mgrwt>
<rscale>  0 0.37203678E+03</rscale>
<asrwt>0</asrwt>
<pdfrwt beam="1">  1        2 0.44990883E-01 0.37203678E+03</pdfrwt>
<pdfrwt beam="2">  1       -2 0.15696079E-01 0.37203678E+03</pdfrwt>
<totfact> 0.35869850E+03</totfact>
</mgrwt>
</event>
<event>
 4    1  0.1383574E-004  0.8789665E+03  0.7818608E-02  0.9452263E-01
         -2   -1    0    0    0  501 -0.00000000000E+00  0.00000000000E+00  0.90969711809E+03  0.90969711810E+03  0.25500000000E-02 0. -1.
          2   -1    0    0  501    0  0.00000000000E+00 -0.00000000000E+00 -0.21231851254E+03  0.21231851256E+03  0.25500000000E-02 0.  1.
    5000001    1    1    2    0    0 -0.97827137598E+02 -0.40145529371E+03  0.24752956806E+03  0.49813290271E+03  0.12700000000E+03 0.  0.
   -5000001    1    1    2    0    0  0.97827137598E+02  0.40145529371E+03  0.44984903749E+03  0.62388272795E+03  0.12700000000E+03 0.  0.
<mgrwt>
<rscale>  0 0.87896653E+03</rscale>
<asrwt>0</asrwt>
<pdfrwt beam="1">  1        2 0.30331216E-01 0.87896653E+03</pdfrwt>
<pdfrwt beam="2">  1       -2 0.12995673E+00 0.87896653E+03</pdfrwt>
<totfact> 0.76724568E+01</totfact>
</mgrwt>
</event>
<event>
 4    1  0.1383574E-004  0.2929400E+03  0.7818608E-02  0.1088824E+00
         -2   -1    0    0    0  501 -0.00000000000E+00  0.00000000000E+00  0.11236694759E+03  0.11236694762E+03  0.25500000000E-02 0. -1.
          2   -1    0    0  501    0  0.00000000000E+00 -0.00000000000E+00 -0.19092323698E+03  0.19092323700E+03  0.25500000000E-02 0.  1.
    5000001    1    1    2    0    0 -0.62025568650E+02  0.37195776939E+00 -0.79069821909E+02  0.16195167877E+03  0.12700000000E+03 0.  0.
   -5000001    1    1    2    0    0  0.62025568650E+02 -0.37195776939E+00  0.51353251452E+00  0.14133850585E+03  0.12700000000E+03 0.  0.
<mgrwt>
<rscale>  0 0.29294000E+03</rscale>
<asrwt>0</asrwt>
<pdfrwt beam="1">  1        2 0.27274748E-01 0.29294000E+03</pdfrwt>
<pdfrwt beam="2">  1       -2 0.16052421E-01 0.29294000E+03</pdfrwt>
<totfact> 0.59339635E+03</totfact>
</mgrwt>
</event>
<event>
 4    1  0.1383574E-004  0.4140063E+03  0.7818608E-02  0.1039035E+00
          2   -1    0    0  501    0  0.00000000000E+00  0.00000000000E+00  0.38401375560E+04  0.38401375560E+04  0.25500000000E-02 0.  1.
         -2   -1    0    0    0  501 -0.00000000000E+00 -0.00000000000E+00 -0.11158534351E+02  0.11158534643E+02  0.25500000000E-02 0. -1.
    5000001    1    1    2    0    0 -0.62031761238E+02 -0.11251118639E+03  0.28546687225E+04  0.28603792095E+04  0.12700000000E+03 0.  0.
   -5000001    1    1    2    0    0  0.62031761238E+02  0.11251118639E+03  0.97431029914E+03  0.99091688122E+03  0.12700000000E+03 0.  0.
<mgrwt>
<rscale>  0 0.41400632E+03</rscale>
<asrwt>0</asrwt>
<pdfrwt beam="1">  1        2 0.54859126E+00 0.41400632E+03</pdfrwt>
<pdfrwt beam="2">  1       -2 0.15940758E-02 0.41400632E+03</pdfrwt>
<totfact> 0.96454620E+02</totfact>
</mgrwt>
</event>
<event>
 4    1  0.1383574E-004  0.3529650E+03  0.7818608E-02  0.1061405E+00
         -2   -1    0    0    0  501 -0.00000000000E+00  0.00000000000E+00  0.17771943080E+02  0.17771943263E+02  0.25500000000E-02 0. -1.
          2   -1    0    0  501    0  0.00000000000E+00 -0.00000000000E+00 -0.17525421541E+04  0.17525421541E+04  0.25500000000E-02 0.  1.
    5000001    1    1    2    0    0  0.10556370570E+03 -0.17906052881E+02 -0.56843316119E+03  0.59220738043E+03  0.12700000000E+03 0.  0.
   -5000001    1    1    2    0    0 -0.10556370570E+03  0.17906052881E+02 -0.11663370498E+04  0.11781067169E+04  0.12700000000E+03 0.  0.
<mgrwt>
<rscale>  0 0.35296504E+03</rscale>
<asrwt>0</asrwt>
<pdfrwt beam="1">  1        2 0.25036306E+00 0.35296504E+03</pdfrwt>
<pdfrwt beam="2">  1       -2 0.25388501E-02 0.35296504E+03</pdfrwt>
<totfact> 0.63569494E+03</totfact>
</mgrwt>
</event>
<event>
 4    1  0.1383574E-004  0.1110297E+04  0.7818608E-02  0.9195213E-01
         -2   -1    0    0    0  501 -0.00000000000E+00  0.00000000000E+00  0.18182446006E+03  0.18182446008E+03  0.25500000000E-02 0. -1.
          2   -1    0    0  501    0  0.00000000000E+00 -0.00000000000E+00 -0.16949858570E+04  0.16949858570E+04  0.25500000000E-02 0.  1.
    5000001    1    1    2    0    0 -0.24661528648E+03 -0.48046192114E+03 -0.72285241495E+03  0.91121203405E+03  0.12700000000E+03 0.  0.
   -5000001    1    1    2    0    0  0.24661528648E+03  0.48046192114E+03 -0.79030898196E+03  0.96559828301E+03  0.12700000000E+03 0.  0.
<mgrwt>
<rscale>  0 0.11102971E+04</rscale>
<asrwt>0</asrwt>
<pdfrwt beam="1">  1        2 0.24214083E+00 0.11102971E+04</pdfrwt>
<pdfrwt beam="2">  1       -2 0.25974924E-01 0.11102971E+04</pdfrwt>
<totfact> 0.15304025E+02</totfact>
</mgrwt>
</event>
<event>
 4    1  0.1383574E-004  0.6730418E+03  0.7818608E-02  0.9764478E-01
          2   -1    0    0  501    0  0.00000000000E+00  0.00000000000E+00  0.11633610185E+04  0.11633610185E+04  0.25500000000E-02 0.  1.
         -2   -1    0    0    0  501 -0.00000000000E+00 -0.00000000000E+00 -0.97344080850E+02  0.97344080883E+02  0.25500000000E-02 0. -1.
    5000001    1    1    2    0    0  0.30106750415E+02  0.26972697291E+03  0.24611588881E+03  0.38776421581E+03  0.12700000000E+03 0.  0.
   -5000001    1    1    2    0    0 -0.30106750415E+02 -0.26972697291E+03  0.81990104885E+03  0.87294088359E+03  0.12700000000E+03 0.  0.
<mgrwt>
<rscale>  0 0.67304178E+03</rscale>
<asrwt>0</asrwt>
<pdfrwt beam="1">  1        2 0.16619443E+00 0.67304178E+03</pdfrwt>
<pdfrwt beam="2">  1       -2 0.13906297E-01 0.67304178E+03</pdfrwt>
<totfact> 0.89886096E+02</totfact>
</mgrwt>
</event>
<event>
 4    1  0.1383574E-004  0.2989384E+03  0.7818608E-02  0.1085772E+00
          2   -1    0    0  501    0  0.00000000000E+00  0.00000000000E+00  0.10873109298E+04  0.10873109298E+04  0.25500000000E-02 0.  1.
         -2   -1    0    0    0  501 -0.00000000000E+00 -0.00000000000E+00 -0.20547062401E+02  0.20547062559E+02  0.25500000000E-02 0. -1.
    5000001    1    1    2    0    0  0.22428206298E+02  0.12898381093E+02  0.80928796521E+03  0.81960075848E+03  0.12700000000E+03 0.  0.
   -5000001    1    1    2    0    0 -0.22428206298E+02 -0.12898381093E+02  0.25747590214E+03  0.28825723383E+03  0.12700000000E+03 0.  0.
<mgrwt>
<rscale>  0 0.29893843E+03</rscale>
<asrwt>0</asrwt>
<pdfrwt beam="1">  1        2 0.15533013E+00 0.29893843E+03</pdfrwt>
<pdfrwt beam="2">  1       -2 0.29352946E-02 0.29893843E+03</pdfrwt>
<totfact> 0.11345091E+04</totfact>
</mgrwt>
</event>
<event>
 4    1  0.1383574E-004  0.2950684E+03  0.7818608E-02  0.1087732E+00
          2   -1    0    0  501    0  0.00000000000E+00  0.00000000000E+00  0.46060758593E+02  0.46060758664E+02  0.25500000000E-02 0.  1.
         -2   -1    0    0    0  501 -0.00000000000E+00 -0.00000000000E+00 -0.47255700416E+03  0.47255700416E+03  0.25500000000E-02 0. -1.
    5000001    1    1    2    0    0  0.10415912620E+02  0.56424397807E+02 -0.29836353885E+03  0.32930533737E+03  0.12700000000E+03 0.  0.
   -5000001    1    1    2    0    0 -0.10415912620E+02 -0.56424397807E+02 -0.12813270671E+03  0.18931242546E+03  0.12700000000E+03 0.  0.
<mgrwt>
<rscale>  0 0.29506836E+03</rscale>
<asrwt>0</asrwt>
<pdfrwt beam="1">  1        2 0.65801087E-02 0.29506836E+03</pdfrwt>
<pdfrwt beam="2">  1       -2 0.67508140E-01 0.29506836E+03</pdfrwt>
<totfact> 0.22585515E+03</totfact>
</mgrwt>
</event>
<event>
 4    1  0.1383574E-004  0.4927701E+03  0.7818608E-02  0.1015683E+00
          2   -1    0    0  501    0  0.00000000000E+00  0.00000000000E+00  0.72373225872E+03  0.72373225872E+03  0.25500000000E-02 0.  1.
         -2   -1    0    0    0  501 -0.00000000000E+00 -0.00000000000E+00 -0.83878535447E+02  0.83878535486E+02  0.25500000000E-02 0. -1.
    5000001    1    1    2    0    0 -0.69212982215E+02  0.10922216323E+03  0.46385853056E+02  0.18708437992E+03  0.12700000000E+03 0.  0.
   -5000001    1    1    2    0    0  0.69212982215E+02 -0.10922216323E+03  0.59346787021E+03  0.62052641428E+03  0.12700000000E+03 0.  0.
<mgrwt>
<rscale>  0 0.49277014E+03</rscale>
<asrwt>0</asrwt>
<pdfrwt beam="1">  1        2 0.10339032E+00 0.49277014E+03</pdfrwt>
<pdfrwt beam="2">  1       -2 0.11982648E-01 0.49277014E+03</pdfrwt>
<totfact> 0.21964020E+03</totfact>
</mgrwt>
</event>
<event>
 4    1  0.1383574E-004  0.2897872E+03  0.7818608E-02  0.1090460E+00
         -2   -1    0    0    0  501 -0.00000000000E+00  0.00000000000E+00  0.90244440656E+01  0.90244444258E+01  0.25500000000E-02 0. -1.
          2   -1    0    0  501    0  0.00000000000E+00 -0.00000000000E+00 -0.23263647569E+04  0.23263647569E+04  0.25500000000E-02 0.  1.
    5000001    1    1    2    0    0 -0.39593044222E+02  0.28413496393E+02 -0.15608297120E+04  0.15667460949E+04  0.12700000000E+03 0.  0.
   -5000001    1    1    2    0    0  0.39593044222E+02 -0.28413496393E+02 -0.75651060077E+03  0.76864310639E+03  0.12700000000E+03 0.  0.
<mgrwt>
<rscale>  0 0.28978716E+03</rscale>
<asrwt>0</asrwt>
<pdfrwt beam="1">  1        2 0.33233744E+00 0.28978716E+03</pdfrwt>
<pdfrwt beam="2">  1       -2 0.12892078E-02 0.28978716E+03</pdfrwt>
<totfact> 0.90073466E+03</totfact>
</mgrwt>
</event>
<event>
 4    1  0.1383574E-004  0.4032804E+03  0.7818608E-02  0.1042650E+00
         -2   -1    0    0    0  501 -0.00000000000E+00  0.00000000000E+00  0.16374481998E+02  0.16374482197E+02  0.25500000000E-02 0. -1.
          2   -1    0    0  501    0  0.00000000000E+00 -0.00000000000E+00 -0.24830568772E+04  0.24830568772E+04  0.25500000000E-02 0.  1.
    5000001    1    1    2    0    0  0.71458348238E+02  0.13472488501E+03 -0.14544437441E+04  0.14679212155E+04  0.12700000000E+03 0.  0.
   -5000001    1    1    2    0    0 -0.71458348238E+02 -0.13472488501E+03 -0.10122386511E+04  0.10315101439E+04  0.12700000000E+03 0.  0.
<mgrwt>
<rscale>  0 0.40328040E+03</rscale>
<asrwt>0</asrwt>
<pdfrwt beam="1">  1        2 0.35472217E+00 0.40328040E+03</pdfrwt>
<pdfrwt beam="2">  1       -2 0.23392133E-02 0.40328040E+03</pdfrwt>
<totfact> 0.31141160E+03</totfact>
</mgrwt>
</event>
<event>
 4    1  0.1383574E-004  0.3254180E+03  0.7818608E-02  0.1073182E+00
          2   -1    0    0  501    0  0.00000000000E+00  0.00000000000E+00  0.87954076605E+03  0.87954076605E+03  0.25500000000E-02 0.  1.
         -2   -1    0    0    0  501 -0.00000000000E+00 -0.00000000000E+00 -0.30100051441E+02  0.30100051549E+02  0.25500000000E-02 0. -1.
    5000001    1    1    2    0    0  0.98785776518E+02 -0.13157806599E+02  0.48155951437E+03  0.50789794585E+03  0.12700000000E+03 0.  0.
   -5000001    1    1    2    0    0 -0.98785776518E+02  0.13157806599E+02  0.36788120024E+03  0.40174287176E+03  0.12700000000E+03 0.  0.
<mgrwt>
<rscale>  0 0.32541802E+03</rscale>
<asrwt>0</asrwt>
<pdfrwt beam="1">  1        2 0.12564869E+00 0.32541802E+03</pdfrwt>
<pdfrwt beam="2">  1       -2 0.43000071E-02 0.32541802E+03</pdfrwt>
<totfact> 0.85383702E+03</totfact>
</mgrwt>
</event>
<event>
 4    1  0.1383574E-004  0.2750576E+03  0.7818608E-02  0.1098419E+00
          2   -1    0    0  501    0  0.00000000000E+00  0.00000000000E+00  0.48782371631E+03  0.48782371631E+03  0.25500000000E-02 0.  1.
         -2   -1    0    0    0  501 -0.00000000000E+00 -0.00000000000E+00 -0.38772557059E+02  0.38772557143E+02  0.25500000000E-02 0. -1.
    5000001    1    1    2    0    0  0.20249850612E+02 -0.45449494614E+02  0.19084680429E+03  0.23457880492E+03  0.12700000000E+03 0.  0.
   -5000001    1    1    2    0    0 -0.20249850612E+02  0.45449494614E+02  0.25820435496E+03  0.29201746854E+03  0.12700000000E+03 0.  0.
<mgrwt>
<rscale>  0 0.27505762E+03</rscale>
<asrwt>0</asrwt>
<pdfrwt beam="1">  1        2 0.69689107E-01 0.27505762E+03</pdfrwt>
<pdfrwt beam="2">  1       -2 0.55389364E-02 0.27505762E+03</pdfrwt>
<totfact> 0.11568580E+04</totfact>
</mgrwt>
</event>
<event>
 4    1  0.1383574E-004  0.6322882E+03  0.7818608E-02  0.9840594E-01
         -2   -1    0    0    0  501 -0.00000000000E+00  0.00000000000E+00  0.23697001210E+03  0.23697001212E+03  0.25500000000E-02 0. -1.
          2   -1    0    0  501    0  0.00000000000E+00 -0.00000000000E+00 -0.42177110037E+03  0.42177110038E+03  0.25500000000E-02 0.  1.
    5000001    1    1    2    0    0  0.22588242942E+03  0.12390089868E+03 -0.23000110206E+03  0.36797256904E+03  0.12700000000E+03 0.  0.
   -5000001    1    1    2    0    0 -0.22588242942E+03 -0.12390089868E+03  0.45200013797E+02  0.29076854346E+03  0.12700000000E+03 0.  0.
<mgrwt>
<rscale>  0 0.63228823E+03</rscale>
<asrwt>0</asrwt>
<pdfrwt beam="1">  1        2 0.60253014E-01 0.63228823E+03</pdfrwt>
<pdfrwt beam="2">  1       -2 0.33852859E-01 0.63228823E+03</pdfrwt>
<totfact> 0.66851652E+02</totfact>
</mgrwt>
</event>
<event>
 4    1  0.1383574E-004  0.6327606E+03  0.7818608E-02  0.9839676E-01
         -2   -1    0    0    0  501 -0.00000000000E+00  0.00000000000E+00  0.40792696441E+03  0.40792696442E+03  0.25500000000E-02 0. -1.
          2   -1    0    0  501    0  0.00000000000E+00 -0.00000000000E+00 -0.24537849998E+03  0.24537850000E+03  0.25500000000E-02 0.  1.
    5000001    1    1    2    0    0 -0.22750725101E+03  0.17845768831E+03  0.10088599507E+03  0.33153232087E+03  0.12700000000E+03 0.  0.
   -5000001    1    1    2    0    0  0.22750725101E+03 -0.17845768831E+03  0.61662469362E+02  0.32177314355E+03  0.12700000000E+03 0.  0.
<mgrwt>
<rscale>  0 0.63276064E+03</rscale>
<asrwt>0</asrwt>
<pdfrwt beam="1">  1        2 0.35054072E-01 0.63276064E+03</pdfrwt>
<pdfrwt beam="2">  1       -2 0.58275280E-01 0.63276064E+03</pdfrwt>
<totfact> 0.41490421E+02</totfact>
</mgrwt>
</event>
<event>
 4    1  0.1383574E-004  0.3589703E+03  0.7818608E-02  0.1058992E+00
         -2   -1    0    0    0  501 -0.00000000000E+00  0.00000000000E+00  0.10807565908E+03  0.10807565911E+03  0.25500000000E-02 0. -1.
          2   -1    0    0  501    0  0.00000000000E+00 -0.00000000000E+00 -0.29807753610E+03  0.29807753611E+03  0.25500000000E-02 0.  1.
    5000001    1    1    2    0    0  0.12263106595E+03 -0.15206013841E+02 -0.62674128332E+02  0.18795384422E+03  0.12700000000E+03 0.  0.
   -5000001    1    1    2    0    0 -0.12263106595E+03  0.15206013841E+02 -0.12732774869E+03  0.21819935100E+03  0.12700000000E+03 0.  0.
<mgrwt>
<rscale>  0 0.35897034E+03</rscale>
<asrwt>0</asrwt>
<pdfrwt beam="1">  1        2 0.42582505E-01 0.35897034E+03</pdfrwt>
<pdfrwt beam="2">  1       -2 0.15439380E-01 0.35897034E+03</pdfrwt>
<totfact> 0.39111493E+03</totfact>
</mgrwt>
</event>
<event>
 4    1  0.1383574E-004  0.3632435E+03  0.7818608E-02  0.1057307E+00
          2   -1    0    0  501    0  0.00000000000E+00  0.00000000000E+00  0.77939972300E+03  0.77939972300E+03  0.25500000000E-02 0. -1.
         -2   -1    0    0    0  501 -0.00000000000E+00 -0.00000000000E+00 -0.42322912356E+02  0.42322912433E+02  0.25500000000E-02 0.  1.
    5000001    1    1    2    0    0  0.29880146610E+02 -0.12622898029E+03  0.38111083637E+03  0.42213865995E+03  0.12700000000E+03 0.  0.
   -5000001    1    1    2    0    0 -0.29880146610E+02  0.12622898029E+03  0.35596597427E+03  0.39958397549E+03  0.12700000000E+03 0.  0.
<mgrwt>
<rscale>  0 0.36324353E+03</rscale>
<asrwt>0</asrwt>
<pdfrwt beam="1">  1        2 0.11134281E+00 0.36324353E+03</pdfrwt>
<pdfrwt beam="2">  1       -2 0.60461307E-02 0.36324353E+03</pdfrwt>
<totfact> 0.59216901E+03</totfact>
</mgrwt>
</event>
<event>
 4    1  0.1383574E-004  0.4345888E+03  0.7818608E-02  0.1032420E+00
          2   -1    0    0  501    0  0.00000000000E+00  0.00000000000E+00  0.19253509431E+02  0.19253509600E+02  0.25500000000E-02 0.  1.
         -2   -1    0    0    0  501 -0.00000000000E+00 -0.00000000000E+00 -0.24523766312E+04  0.24523766312E+04  0.25500000000E-02 0. -1.
    5000001    1    1    2    0    0  0.10965951471E+03  0.13252667409E+03 -0.99634330488E+03  0.10190277276E+04  0.12700000000E+03 0.  0.
   -5000001    1    1    2    0    0 -0.10965951471E+03 -0.13252667409E+03 -0.14367798169E+04  0.14526024132E+04  0.12700000000E+03 0.  0.
<mgrwt>
<rscale>  0 0.43458880E+03</rscale>
<asrwt>0</asrwt>
<pdfrwt beam="1">  1        2 0.27505029E-02 0.43458880E+03</pdfrwt>
<pdfrwt beam="2">  1       -2 0.35033932E+00 0.43458880E+03</pdfrwt>
<totfact> 0.63528997E+01</totfact>
</mgrwt>
</event>
<event>
 4    1  0.1383574E-004  0.3319441E+03  0.7818608E-02  0.1070280E+00
          2   -1    0    0  501    0  0.00000000000E+00  0.00000000000E+00  0.53266050182E+02  0.53266050243E+02  0.25500000000E-02 0.  1.
         -2   -1    0    0    0  501 -0.00000000000E+00 -0.00000000000E+00 -0.51715332328E+03  0.51715332329E+03  0.25500000000E-02 0. -1.
    5000001    1    1    2    0    0  0.65718546865E+02 -0.60553700076E+02 -0.13127241497E+03  0.20333992458E+03  0.12700000000E+03 0.  0.
   -5000001    1    1    2    0    0 -0.65718546865E+02  0.60553700076E+02 -0.33261485813E+03  0.36707944895E+03  0.12700000000E+03 0.  0.
<mgrwt>
<rscale>  0 0.33194406E+03</rscale>
<asrwt>0</asrwt>
<pdfrwt beam="1">  1        2 0.76094361E-02 0.33194406E+03</pdfrwt>
<pdfrwt beam="2">  1       -2 0.73879043E-01 0.33194406E+03</pdfrwt>
<totfact> 0.15463367E+03</totfact>
</mgrwt>
</event>
<event>
 4    1  0.1383574E-004  0.4273420E+03  0.7818608E-02  0.1034703E+00
         -2   -1    0    0    0  501 -0.00000000000E+00  0.00000000000E+00  0.12250996930E+02  0.12250997196E+02  0.25500000000E-02 0. -1.
          2   -1    0    0  501    0  0.00000000000E+00 -0.00000000000E+00 -0.37266593025E+04  0.37266593025E+04  0.25500000000E-02 0.  1.
    5000001    1    1    2    0    0  0.13279595936E+03 -0.78975526025E+02 -0.11993002994E+04  0.12158627014E+04  0.12700000000E+03 0.  0.
   -5000001    1    1    2    0    0 -0.13279595936E+03  0.78975526025E+02 -0.25151080062E+04  0.25230475983E+04  0.12700000000E+03 0.  0.
<mgrwt>
<rscale>  0 0.42734198E+03</rscale>
<asrwt>0</asrwt>
<pdfrwt beam="1">  1        2 0.53237918E+00 0.42734198E+03</pdfrwt>
<pdfrwt beam="2">  1       -2 0.17501448E-02 0.42734198E+03</pdfrwt>
<totfact> 0.98705934E+02</totfact>
</mgrwt>
</event>
<event>
 4    1  0.1383574E-004  0.3100834E+03  0.7818608E-02  0.1080306E+00
          2   -1    0    0  501    0  0.00000000000E+00  0.00000000000E+00  0.43510553973E+02  0.43510554048E+02  0.25500000000E-02 0.  1.
         -2   -1    0    0    0  501 -0.00000000000E+00 -0.00000000000E+00 -0.55246218395E+03  0.55246218396E+03  0.25500000000E-02 0. -1.
    5000001    1    1    2    0    0 -0.42038083152E+02  0.60678564691E+02 -0.34979972889E+03  0.37939153783E+03  0.12700000000E+03 0.  0.
   -5000001    1    1    2    0    0  0.42038083152E+02 -0.60678564691E+02 -0.15915190109E+03  0.21658120017E+03  0.12700000000E+03 0.  0.
<mgrwt>
<rscale>  0 0.31008344E+03</rscale>
<asrwt>0</asrwt>
<pdfrwt beam="1">  1        2 0.62157937E-02 0.31008344E+03</pdfrwt>
<pdfrwt beam="2">  1       -2 0.78923165E-01 0.31008344E+03</pdfrwt>
<totfact> 0.17362614E+03</totfact>
</mgrwt>
</event>
<event>
 4    1  0.1383574E-004  0.3847385E+03  0.7818608E-02  0.1049196E+00
          2   -1    0    0  501    0  0.00000000000E+00  0.00000000000E+00  0.43638455760E+03  0.43638455761E+03  0.25500000000E-02 0.  1.
         -2   -1    0    0    0  501 -0.00000000000E+00 -0.00000000000E+00 -0.84801190324E+02  0.84801190362E+02  0.25500000000E-02 0. -1.
    5000001    1    1    2    0    0  0.43367124488E+02 -0.13727690827E+03  0.19245292852E+03  0.27183227683E+03  0.12700000000E+03 0.  0.
   -5000001    1    1    2    0    0 -0.43367124488E+02  0.13727690827E+03  0.15913043876E+03  0.24935347114E+03  0.12700000000E+03 0.  0.
<mgrwt>
<rscale>  0 0.38473851E+03</rscale>
<asrwt>0</asrwt>
<pdfrwt beam="1">  1        2 0.62340653E-01 0.38473851E+03</pdfrwt>
<pdfrwt beam="2">  1       -2 0.12114455E-01 0.38473851E+03</pdfrwt>
<totfact> 0.38552408E+03</totfact>
</mgrwt>
</event>
<event>
 4    1  0.1383574E-004  0.4026032E+03  0.7818608E-02  0.1042882E+00
         -2   -1    0    0    0  501 -0.00000000000E+00  0.00000000000E+00  0.47877246679E+02  0.47877246747E+02  0.25500000000E-02 0. -1.
          2   -1    0    0  501    0  0.00000000000E+00 -0.00000000000E+00 -0.84637987953E+03  0.84637987953E+03  0.25500000000E-02 0.  1.
    5000001    1    1    2    0    0 -0.59667433799E+02  0.56184182097E+02 -0.69456459572E+03  0.71082054177E+03  0.12700000000E+03 0.  0.
   -5000001    1    1    2    0    0  0.59667433799E+02 -0.56184182097E+02 -0.10393803713E+03  0.18343658451E+03  0.12700000000E+03 0.  0.
<mgrwt>
<rscale>  0 0.40260322E+03</rscale>
<asrwt>0</asrwt>
<pdfrwt beam="1">  1        2 0.12091140E+00 0.40260322E+03</pdfrwt>
<pdfrwt beam="2">  1       -2 0.68396072E-02 0.40260322E+03</pdfrwt>
<totfact> 0.44136617E+03</totfact>
</mgrwt>
</event>
<event>
 4    1  0.1383574E-004  0.4105742E+03  0.7818608E-02  0.1040178E+00
         -2   -1    0    0    0  501 -0.00000000000E+00  0.00000000000E+00  0.53097593640E+02  0.53097593702E+02  0.25500000000E-02 0. -1.
          2   -1    0    0  501    0  0.00000000000E+00 -0.00000000000E+00 -0.79368575343E+03  0.79368575343E+03  0.25500000000E-02 0.  1.
    5000001    1    1    2    0    0 -0.80375166281E+02  0.10786971910E+03 -0.55381338960E+03  0.58389580762E+03  0.12700000000E+03 0.  0.
   -5000001    1    1    2    0    0  0.80375166281E+02 -0.10786971910E+03 -0.18677477018E+03  0.26288753951E+03  0.12700000000E+03 0.  0.
<mgrwt>
<rscale>  0 0.41057425E+03</rscale>
<asrwt>0</asrwt>
<pdfrwt beam="1">  1        2 0.11338367E+00 0.41057425E+03</pdfrwt>
<pdfrwt beam="2">  1       -2 0.75853710E-02 0.41057425E+03</pdfrwt>
<totfact> 0.40729096E+03</totfact>
</mgrwt>
</event>
<event>
 4    1  0.1383574E-004  0.3679796E+03  0.7818608E-02  0.1055468E+00
         -2   -1    0    0    0  501 -0.00000000000E+00  0.00000000000E+00  0.11109787997E+04  0.11109787997E+04  0.25500000000E-02 0. -1.
          2   -1    0    0  501    0  0.00000000000E+00 -0.00000000000E+00 -0.30470645538E+02  0.30470645644E+02  0.25500000000E-02 0.  1.
    5000001    1    1    2    0    0 -0.10669135425E+03 -0.79495199263E+02  0.52613788180E+03  0.55736218247E+03  0.12700000000E+03 0.  0.
   -5000001    1    1    2    0    0  0.10669135425E+03  0.79495199263E+02  0.55437027232E+03  0.58408726284E+03  0.12700000000E+03 0.  0.
<mgrwt>
<rscale>  0 0.36797957E+03</rscale>
<asrwt>0</asrwt>
<pdfrwt beam="1">  1        2 0.43529495E-02 0.36797957E+03</pdfrwt>
<pdfrwt beam="2">  1       -2 0.15871125E+00 0.36797957E+03</pdfrwt>
<totfact> 0.52016971E+02</totfact>
</mgrwt>
</event>
<event>
 4    1  0.1383574E-004  0.7929065E+03  0.7818608E-02  0.9570342E-01
          2   -1    0    0  501    0  0.00000000000E+00  0.00000000000E+00  0.23115329100E+03  0.23115329102E+03  0.25500000000E-02 0.  1.
         -2   -1    0    0    0  501 -0.00000000000E+00 -0.00000000000E+00 -0.67996080471E+03  0.67996080472E+03  0.25500000000E-02 0. -1.
    5000001    1    1    2    0    0 -0.65576195288E+02 -0.34131649542E+03 -0.60890685437E+02  0.37501181716E+03  0.12700000000E+03 0.  0.
   -5000001    1    1    2    0    0  0.65576195288E+02  0.34131649542E+03 -0.38791682827E+03  0.53610227857E+03  0.12700000000E+03 0.  0.
<mgrwt>
<rscale>  0 0.79290650E+03</rscale>
<asrwt>0</asrwt>
<pdfrwt beam="1">  1        2 0.33021899E-01 0.79290650E+03</pdfrwt>
<pdfrwt beam="2">  1       -2 0.97137257E-01 0.79290650E+03</pdfrwt>
<totfact> 0.14231448E+02</totfact>
</mgrwt>
</event>
<event>
 4    1  0.1383574E-004  0.5060934E+03  0.7818608E-02  0.1012201E+00
          2   -1    0    0  501    0  0.00000000000E+00  0.00000000000E+00  0.54793118591E+03  0.54793118592E+03  0.25500000000E-02 0.  1.
         -2   -1    0    0    0  501 -0.00000000000E+00 -0.00000000000E+00 -0.11686256618E+03  0.11686256620E+03  0.25500000000E-02 0. -1.
    5000001    1    1    2    0    0 -0.86065372052E+02 -0.20056121729E+03  0.19388637020E+03  0.31835981954E+03  0.12700000000E+03 0.  0.
   -5000001    1    1    2    0    0  0.86065372052E+02  0.20056121729E+03  0.23718224954E+03  0.34643393258E+03  0.12700000000E+03 0.  0.
<mgrwt>
<rscale>  0 0.50609345E+03</rscale>
<asrwt>0</asrwt>
<pdfrwt beam="1">  1        2 0.78275883E-01 0.50609345E+03</pdfrwt>
<pdfrwt beam="2">  1       -2 0.16694652E-01 0.50609345E+03</pdfrwt>
<totfact> 0.17570927E+03</totfact>
</mgrwt>
</event>
<event>
 4    1  0.1383574E-004  0.5046972E+03  0.7818608E-02  0.1012560E+00
          2   -1    0    0  501    0  0.00000000000E+00  0.00000000000E+00  0.10898255269E+04  0.10898255269E+04  0.25500000000E-02 0.  1.
         -2   -1    0    0    0  501 -0.00000000000E+00 -0.00000000000E+00 -0.58431212799E+02  0.58431212855E+02  0.25500000000E-02 0. -1.
    5000001    1    1    2    0    0  0.21389937204E+03 -0.37591635801E+02  0.56032440766E+03  0.61421373663E+03  0.12700000000E+03 0.  0.
   -5000001    1    1    2    0    0 -0.21389937204E+03  0.37591635801E+02  0.47106990648E+03  0.53404300317E+03  0.12700000000E+03 0.  0.
<mgrwt>
<rscale>  0 0.50469725E+03</rscale>
<asrwt>0</asrwt>
<pdfrwt beam="1">  1        2 0.15568935E+00 0.50469725E+03</pdfrwt>
<pdfrwt beam="2">  1       -2 0.83473164E-02 0.50469725E+03</pdfrwt>
<totfact> 0.22860585E+03</totfact>
</mgrwt>
</event>
<event>
 4    1  0.1383574E-004  0.3548108E+03  0.7818608E-02  0.1060658E+00
          2   -1    0    0  501    0  0.00000000000E+00  0.00000000000E+00  0.23655241075E+03  0.23655241076E+03  0.25500000000E-02 0.  1.
         -2   -1    0    0    0  501 -0.00000000000E+00 -0.00000000000E+00 -0.13304736796E+03  0.13304736799E+03  0.25500000000E-02 0. -1.
    5000001    1    1    2    0    0  0.71219797815E+02 -0.77335742622E+02  0.11998542224E+03  0.20390825937E+03  0.12700000000E+03 0.  0.
   -5000001    1    1    2    0    0 -0.71219797815E+02  0.77335742622E+02 -0.16480379454E+02  0.16569151938E+03  0.12700000000E+03 0.  0.
<mgrwt>
<rscale>  0 0.35481080E+03</rscale>
<asrwt>0</asrwt>
<pdfrwt beam="1">  1        2 0.33793202E-01 0.35481080E+03</pdfrwt>
<pdfrwt beam="2">  1       -2 0.19006767E-01 0.35481080E+03</pdfrwt>
<totfact> 0.35426516E+03</totfact>
</mgrwt>
</event>
<event>
 4    1  0.1383574E-004  0.3940798E+03  0.7818608E-02  0.1045849E+00
         -2   -1    0    0    0  501 -0.00000000000E+00  0.00000000000E+00  0.20687111108E+03  0.20687111110E+03  0.25500000000E-02 0. -1.
          2   -1    0    0  501    0  0.00000000000E+00 -0.00000000000E+00 -0.18767586061E+03  0.18767586063E+03  0.25500000000E-02 0.  1.
    5000001    1    1    2    0    0 -0.84506377792E+02 -0.88299413345E+02  0.97779284267E+02  0.20156364433E+03  0.12700000000E+03 0.  0.
   -5000001    1    1    2    0    0  0.84506377792E+02  0.88299413345E+02 -0.78584033802E+02  0.19298332740E+03  0.12700000000E+03 0.  0.
<mgrwt>
<rscale>  0 0.39407976E+03</rscale>
<asrwt>0</asrwt>
<pdfrwt beam="1">  1        2 0.26810837E-01 0.39407976E+03</pdfrwt>
<pdfrwt beam="2">  1       -2 0.29553016E-01 0.39407976E+03</pdfrwt>
<totfact> 0.21052467E+03</totfact>
</mgrwt>
</event>
<event>
 4    1  0.1383574E-004  0.7099301E+03  0.7818608E-02  0.9700400E-01
         -2   -1    0    0    0  501 -0.00000000000E+00  0.00000000000E+00  0.59023430285E+02  0.59023430340E+02  0.25500000000E-02 0. -1.
          2   -1    0    0  501    0  0.00000000000E+00 -0.00000000000E+00 -0.21347485776E+04  0.21347485776E+04  0.25500000000E-02 0.  1.
    5000001    1    1    2    0    0 -0.32384814953E+03  0.83219295981E+01 -0.82101808080E+03  0.89170991217E+03  0.12700000000E+03 0.  0.
   -5000001    1    1    2    0    0  0.32384814953E+03 -0.83219295981E+01 -0.12547070665E+04  0.13020620958E+04  0.12700000000E+03 0.  0.
<mgrwt>
<rscale>  0 0.70993009E+03</rscale>
<asrwt>0</asrwt>
<pdfrwt beam="1">  1        2 0.30496403E+00 0.70993009E+03</pdfrwt>
<pdfrwt beam="2">  1       -2 0.84319199E-02 0.70993009E+03</pdfrwt>
<totfact> 0.63411507E+02</totfact>
</mgrwt>
</event>
<event>
 4    1  0.1383574E-004  0.2659605E+03  0.7818608E-02  0.1103614E+00
         -2   -1    0    0    0  501 -0.00000000000E+00  0.00000000000E+00  0.39133798235E+02  0.39133798318E+02  0.25500000000E-02 0. -1.
          2   -1    0    0  501    0  0.00000000000E+00 -0.00000000000E+00 -0.45187908829E+03  0.45187908830E+03  0.25500000000E-02 0.  1.
    5000001    1    1    2    0    0  0.32306204458E+02 -0.61603998297E+01 -0.24652896924E+03  0.27926183780E+03  0.12700000000E+03 0.  0.
   -5000001    1    1    2    0    0 -0.32306204458E+02  0.61603998297E+01 -0.16621632081E+03  0.21175104882E+03  0.12700000000E+03 0.  0.
<mgrwt>
<rscale>  0 0.26596049E+03</rscale>
<asrwt>0</asrwt>
<pdfrwt beam="1">  1        2 0.64554152E-01 0.26596049E+03</pdfrwt>
<pdfrwt beam="2">  1       -2 0.55905429E-02 0.26596049E+03</pdfrwt>
<totfact> 0.12385524E+04</totfact>
</mgrwt>
</event>
<event>
 4    1  0.1383574E-004  0.3783625E+03  0.7818608E-02  0.1051541E+00
          2   -1    0    0  501    0  0.00000000000E+00  0.00000000000E+00  0.36132214385E+03  0.36132214386E+03  0.25500000000E-02 0.  1.
         -2   -1    0    0    0  501 -0.00000000000E+00 -0.00000000000E+00 -0.99051604063E+02  0.99051604096E+02  0.25500000000E-02 0. -1.
    5000001    1    1    2    0    0 -0.58979587519E+02  0.92567389461E+02  0.24968933570E+02  0.16970492326E+03  0.12700000000E+03 0.  0.
   -5000001    1    1    2    0    0  0.58979587519E+02 -0.92567389461E+02  0.23730160622E+03  0.29066882469E+03  0.12700000000E+03 0.  0.
<mgrwt>
<rscale>  0 0.37836246E+03</rscale>
<asrwt>0</asrwt>
<pdfrwt beam="1">  1        2 0.51617449E-01 0.37836246E+03</pdfrwt>
<pdfrwt beam="2">  1       -2 0.14150229E-01 0.37836246E+03</pdfrwt>
<totfact> 0.36718266E+03</totfact>
</mgrwt>
</event>
<event>
 4    1  0.1383574E-004  0.3467840E+03  0.7818608E-02  0.1063943E+00
          2   -1    0    0  501    0  0.00000000000E+00  0.00000000000E+00  0.27952983560E+03  0.27952983561E+03  0.25500000000E-02 0.  1.
         -2   -1    0    0    0  501 -0.00000000000E+00 -0.00000000000E+00 -0.10755486494E+03  0.10755486497E+03  0.25500000000E-02 0. -1.
    5000001    1    1    2    0    0 -0.10152246719E+03 -0.38768885966E+02  0.34521058442E+02  0.17067671587E+03  0.12700000000E+03 0.  0.
   -5000001    1    1    2    0    0  0.10152246719E+03  0.38768885966E+02  0.13745391222E+03  0.21640798471E+03  0.12700000000E+03 0.  0.
<mgrwt>
<rscale>  0 0.34678405E+03</rscale>
<asrwt>0</asrwt>
<pdfrwt beam="1">  1        2 0.39932834E-01 0.34678405E+03</pdfrwt>
<pdfrwt beam="2">  1       -2 0.15364981E-01 0.34678405E+03</pdfrwt>
<totfact> 0.42242313E+03</totfact>
</mgrwt>
</event>
<event>
 4    1  0.1383574E-004  0.4007635E+03  0.7818608E-02  0.1043516E+00
         -2   -1    0    0    0  501 -0.00000000000E+00  0.00000000000E+00  0.48179681660E+02  0.48179681728E+02  0.25500000000E-02 0. -1.
          2   -1    0    0  501    0  0.00000000000E+00 -0.00000000000E+00 -0.83339772002E+03  0.83339772003E+03  0.25500000000E-02 0.  1.
    5000001    1    1    2    0    0 -0.10727261706E+02  0.14215473334E+03 -0.52642864850E+03  0.55998139640E+03  0.12700000000E+03 0.  0.
   -5000001    1    1    2    0    0  0.10727261706E+02 -0.14215473334E+03 -0.25878938986E+03  0.32159600535E+03  0.12700000000E+03 0.  0.
<mgrwt>
<rscale>  0 0.40076346E+03</rscale>
<asrwt>0</asrwt>
<pdfrwt beam="1">  1        2 0.11905681E+00 0.40076346E+03</pdfrwt>
<pdfrwt beam="2">  1       -2 0.68828122E-02 0.40076346E+03</pdfrwt>
<totfact> 0.44575364E+03</totfact>
</mgrwt>
</event>
<event>
 4    1  0.1383574E-004  0.6079734E+03  0.7818608E-02  0.9889000E-01
         -2   -1    0    0    0  501 -0.00000000000E+00  0.00000000000E+00  0.35724535007E+02  0.35724535098E+02  0.25500000000E-02 0. -1.
          2   -1    0    0  501    0  0.00000000000E+00 -0.00000000000E+00 -0.25866793382E+04  0.25866793382E+04  0.25500000000E-02 0.  1.
    5000001    1    1    2    0    0 -0.14366616465E+03 -0.23586604632E+03 -0.12647736625E+04  0.13007898278E+04  0.12700000000E+03 0.  0.
   -5000001    1    1    2    0    0  0.14366616465E+03  0.23586604632E+03 -0.12861811407E+04  0.13216140455E+04  0.12700000000E+03 0.  0.
<mgrwt>
<rscale>  0 0.60797341E+03</rscale>
<asrwt>0</asrwt>
<pdfrwt beam="1">  1        2 0.36952550E+00 0.60797341E+03</pdfrwt>
<pdfrwt beam="2">  1       -2 0.51035066E-02 0.60797341E+03</pdfrwt>
<totfact> 0.82957746E+02</totfact>
</mgrwt>
</event>
<event>
 4    1  0.1383574E-004  0.4109490E+03  0.7818608E-02  0.1040053E+00
          2   -1    0    0  501    0  0.00000000000E+00  0.00000000000E+00  0.56787823664E+03  0.56787823665E+03  0.25500000000E-02 0.  1.
         -2   -1    0    0    0  501 -0.00000000000E+00 -0.00000000000E+00 -0.74346535278E+02  0.74346535322E+02  0.25500000000E-02 0. -1.
    5000001    1    1    2    0    0  0.95532457663E+02 -0.11908295283E+03  0.32921778959E+03  0.38447438550E+03  0.12700000000E+03 0.  0.
   -5000001    1    1    2    0    0 -0.95532457663E+02  0.11908295283E+03  0.16431391177E+03  0.25775038647E+03  0.12700000000E+03 0.  0.
<mgrwt>
<rscale>  0 0.41094904E+03</rscale>
<asrwt>0</asrwt>
<pdfrwt beam="1">  1        2 0.81125468E-01 0.41094904E+03</pdfrwt>
<pdfrwt beam="2">  1       -2 0.10620933E-01 0.41094904E+03</pdfrwt>
<totfact> 0.35553115E+03</totfact>
</mgrwt>
</event>
<event>
 4    1  0.1383574E-004  0.4082840E+03  0.7818608E-02  0.1040948E+00
          2   -1    0    0  501    0  0.00000000000E+00  0.00000000000E+00  0.11137208947E+04  0.11137208947E+04  0.25500000000E-02 0.  1.
         -2   -1    0    0    0  501 -0.00000000000E+00 -0.00000000000E+00 -0.37418672108E+02  0.37418672195E+02  0.25500000000E-02 0. -1.
    5000001    1    1    2    0    0 -0.13757232802E+03 -0.78324393985E+02  0.47611657188E+03  0.51756820435E+03  0.12700000000E+03 0.  0.
   -5000001    1    1    2    0    0  0.13757232802E+03  0.78324393985E+02  0.60018565071E+03  0.63357136256E+03  0.12700000000E+03 0.  0.
<mgrwt>
<rscale>  0 0.40828400E+03</rscale>
<asrwt>0</asrwt>
<pdfrwt beam="1">  1        2 0.15910298E+00 0.40828400E+03</pdfrwt>
<pdfrwt beam="2">  1       -2 0.53455247E-02 0.40828400E+03</pdfrwt>
<totfact> 0.44474415E+03</totfact>
</mgrwt>
</event>
<event>
 4    1  0.1383574E-004  0.5444212E+03  0.7818608E-02  0.1002794E+00
          2   -1    0    0  501    0  0.00000000000E+00  0.00000000000E+00  0.14363894922E+03  0.14363894924E+03  0.25500000000E-02 0.  1.
         -2   -1    0    0    0  501 -0.00000000000E+00 -0.00000000000E+00 -0.51586713706E+03  0.51586713707E+03  0.25500000000E-02 0. -1.
    5000001    1    1    2    0    0 -0.23292821520E+03  0.37326470962E+02 -0.24447232613E+03  0.36269069069E+03  0.12700000000E+03 0.  0.
   -5000001    1    1    2    0    0  0.23292821520E+03 -0.37326470962E+02 -0.12775586172E+03  0.29681539561E+03  0.12700000000E+03 0.  0.
<mgrwt>
<rscale>  0 0.54442121E+03</rscale>
<asrwt>0</asrwt>
<pdfrwt beam="1">  1        2 0.20519850E-01 0.54442121E+03</pdfrwt>
<pdfrwt beam="2">  1       -2 0.73695304E-01 0.54442121E+03</pdfrwt>
<totfact> 0.46184798E+02</totfact>
</mgrwt>
</event>
<event>
 4    1  0.1383574E-004  0.5217340E+03  0.7818608E-02  0.1008257E+00
          2   -1    0    0  501    0  0.00000000000E+00  0.00000000000E+00  0.14686715561E+04  0.14686715561E+04  0.25500000000E-02 0.  1.
         -2   -1    0    0    0  501 -0.00000000000E+00 -0.00000000000E+00 -0.46335477896E+02  0.46335477967E+02  0.25500000000E-02 0. -1.
    5000001    1    1    2    0    0 -0.41087258019E+02  0.17487213223E+03  0.30407575007E+03  0.37531251935E+03  0.12700000000E+03 0.  0.
   -5000001    1    1    2    0    0  0.41087258019E+02 -0.17487213223E+03  0.11182603282E+04  0.11396945147E+04  0.12700000000E+03 0.  0.
<mgrwt>
<rscale>  0 0.52173403E+03</rscale>
<asrwt>0</asrwt>
<pdfrwt beam="1">  1        2 0.20981024E+00 0.52173403E+03</pdfrwt>
<pdfrwt beam="2">  1       -2 0.66193534E-02 0.52173403E+03</pdfrwt>
<totfact> 0.20478944E+03</totfact>
</mgrwt>
</event>
<event>
 4    1  0.1383574E-004  0.4141387E+03  0.7818608E-02  0.1038991E+00
         -2   -1    0    0    0  501 -0.00000000000E+00  0.00000000000E+00  0.14132653866E+03  0.14132653869E+03  0.25500000000E-02 0. -1.
          2   -1    0    0  501    0  0.00000000000E+00 -0.00000000000E+00 -0.30339457660E+03  0.30339457661E+03  0.25500000000E-02 0.  1.
    5000001    1    1    2    0    0  0.46481143451E+02  0.15250158726E+03 -0.12021798778E+03  0.23664022354E+03  0.12700000000E+03 0.  0.
   -5000001    1    1    2    0    0 -0.46481143451E+02 -0.15250158726E+03 -0.41850050158E+02  0.20808089175E+03  0.12700000000E+03 0.  0.
<mgrwt>
<rscale>  0 0.41413865E+03</rscale>
<asrwt>0</asrwt>
<pdfrwt beam="1">  1        2 0.43342082E-01 0.41413865E+03</pdfrwt>
<pdfrwt beam="2">  1       -2 0.20189506E-01 0.41413865E+03</pdfrwt>
<totfact> 0.24398110E+03</totfact>
</mgrwt>
</event>
<event>
 4    1  0.1383574E-004  0.3061330E+03  0.7818608E-02  0.1082214E+00
          2   -1    0    0  501    0  0.00000000000E+00  0.00000000000E+00  0.24381008382E+03  0.24381008383E+03  0.25500000000E-02 0.  1.
         -2   -1    0    0    0  501 -0.00000000000E+00 -0.00000000000E+00 -0.96096744118E+02  0.96096744152E+02  0.25500000000E-02 0. -1.
    5000001    1    1    2    0    0  0.73470307457E+02  0.37914861386E+02  0.97797800455E+02  0.18035751319E+03  0.12700000000E+03 0.  0.
   -5000001    1    1    2    0    0 -0.73470307457E+02 -0.37914861386E+02  0.49915539245E+02  0.15954931479E+03  0.12700000000E+03 0.  0.
<mgrwt>
<rscale>  0 0.30613301E+03</rscale>
<asrwt>0</asrwt>
<pdfrwt beam="1">  1        2 0.34830012E-01 0.30613301E+03</pdfrwt>
<pdfrwt beam="2">  1       -2 0.13728106E-01 0.30613301E+03</pdfrwt>
<totfact> 0.58839358E+03</totfact>
</mgrwt>
</event>
<event>
 4    1  0.1383574E-004  0.4408082E+03  0.7818608E-02  0.1030499E+00
         -2   -1    0    0    0  501 -0.00000000000E+00  0.00000000000E+00  0.10628653836E+03  0.10628653839E+03  0.25500000000E-02 0. -1.
          2   -1    0    0  501    0  0.00000000000E+00 -0.00000000000E+00 -0.45704731541E+03  0.45704731542E+03  0.25500000000E-02 0.  1.
    5000001    1    1    2    0    0 -0.10538874026E+03 -0.13946693259E+03 -0.11980520910E+03  0.24706294742E+03  0.12700000000E+03 0.  0.
   -5000001    1    1    2    0    0  0.10538874026E+03  0.13946693259E+03 -0.23095556795E+03  0.31627090639E+03  0.12700000000E+03 0.  0.
<mgrwt>
<rscale>  0 0.44080824E+03</rscale>
<asrwt>0</asrwt>
<pdfrwt beam="1">  1        2 0.65292473E-01 0.44080824E+03</pdfrwt>
<pdfrwt beam="2">  1       -2 0.15183791E-01 0.44080824E+03</pdfrwt>
<totfact> 0.25278608E+03</totfact>
</mgrwt>
</event>
<event>
 4    1  0.1383574E-004  0.2789750E+03  0.7818608E-02  0.1096250E+00
         -2   -1    0    0    0  501 -0.00000000000E+00  0.00000000000E+00  0.69862772764E+01  0.69862777418E+01  0.25500000000E-02 0. -1.
          2   -1    0    0  501    0  0.00000000000E+00 -0.00000000000E+00 -0.27849969303E+04  0.27849969303E+04  0.25500000000E-02 0.  1.
    5000001    1    1    2    0    0  0.53443748514E+02 -0.20185760697E+02 -0.14691082851E+04  0.14756936852E+04  0.12700000000E+03 0.  0.
   -5000001    1    1    2    0    0 -0.53443748514E+02  0.20185760697E+02 -0.13089023679E+04  0.13162895229E+04  0.12700000000E+03 0.  0.
<mgrwt>
<rscale>  0 0.27897499E+03</rscale>
<asrwt>0</asrwt>
<pdfrwt beam="1">  1        2 0.39785600E+00 0.27897499E+03</pdfrwt>
<pdfrwt beam="2">  1       -2 0.99804142E-03 0.27897499E+03</pdfrwt>
<totfact> 0.76883600E+03</totfact>
</mgrwt>
</event>
<event>
 4    1  0.1383574E-004  0.6159495E+03  0.7818608E-02  0.9872858E-01
         -2   -1    0    0    0  501 -0.00000000000E+00  0.00000000000E+00  0.50507621320E+03  0.50507621321E+03  0.25500000000E-02 0. -1.
          2   -1    0    0  501    0  0.00000000000E+00 -0.00000000000E+00 -0.18779034540E+03  0.18779034542E+03  0.25500000000E-02 0.  1.
    5000001    1    1    2    0    0  0.82975863468E+02 -0.26042465911E+03  0.87380134368E+02  0.31379975283E+03  0.12700000000E+03 0.  0.
   -5000001    1    1    2    0    0 -0.82975863468E+02  0.26042465911E+03  0.22990573344E+03  0.37906680580E+03  0.12700000000E+03 0.  0.
<mgrwt>
<rscale>  0 0.61594947E+03</rscale>
<asrwt>0</asrwt>
<pdfrwt beam="1">  1        2 0.26827192E-01 0.61594947E+03</pdfrwt>
<pdfrwt beam="2">  1       -2 0.72153744E-01 0.61594947E+03</pdfrwt>
<totfact> 0.35496995E+02</totfact>
</mgrwt>
</event>
<event>
 4    1  0.1383574E-004  0.3606151E+03  0.7818608E-02  0.1058341E+00
          2   -1    0    0  501    0  0.00000000000E+00  0.00000000000E+00  0.27689791633E+04  0.27689791633E+04  0.25500000000E-02 0.  1.
         -2   -1    0    0    0  501 -0.00000000000E+00 -0.00000000000E+00 -0.11741080131E+02  0.11741080408E+02  0.25500000000E-02 0. -1.
    5000001    1    1    2    0    0  0.10073410570E+03  0.60663778445E+02  0.17683400792E+04  0.17767901086E+04  0.12700000000E+03 0.  0.
   -5000001    1    1    2    0    0 -0.10073410570E+03 -0.60663778445E+02  0.98889800394E+03  0.10039301352E+04  0.12700000000E+03 0.  0.
<mgrwt>
<rscale>  0 0.36061507E+03</rscale>
<asrwt>0</asrwt>
<pdfrwt beam="1">  1        2 0.39556793E+00 0.36061507E+03</pdfrwt>
<pdfrwt beam="2">  1       -2 0.16772994E-02 0.36061507E+03</pdfrwt>
<totfact> 0.36527611E+03</totfact>
</mgrwt>
</event>
<event>
 4    1  0.1383574E-004  0.5557569E+03  0.7818608E-02  0.1000170E+00
         -2   -1    0    0    0  501 -0.00000000000E+00  0.00000000000E+00  0.38445619610E+03  0.38445619610E+03  0.25500000000E-02 0. -1.
          2   -1    0    0  501    0  0.00000000000E+00 -0.00000000000E+00 -0.20084586818E+03  0.20084586819E+03  0.25500000000E-02 0.  1.
    5000001    1    1    2    0    0  0.71167872665E+02 -0.22111462957E+03  0.28713052476E+01  0.26475231803E+03  0.12700000000E+03 0.  0.
   -5000001    1    1    2    0    0 -0.71167872665E+02  0.22111462957E+03  0.18073902267E+03  0.32054974626E+03  0.12700000000E+03 0.  0.
<mgrwt>
<rscale>  0 0.55575692E+03</rscale>
<asrwt>0</asrwt>
<pdfrwt beam="1">  1        2 0.28692267E-01 0.55575692E+03</pdfrwt>
<pdfrwt beam="2">  1       -2 0.54922313E-01 0.55575692E+03</pdfrwt>
<totfact> 0.58790542E+02</totfact>
</mgrwt>
</event>
<event>
 4    1  0.1383574E-004  0.3352600E+03  0.7818608E-02  0.1068833E+00
         -2   -1    0    0    0  501 -0.00000000000E+00  0.00000000000E+00  0.34702854669E+02  0.34702854763E+02  0.25500000000E-02 0. -1.
          2   -1    0    0  501    0  0.00000000000E+00 -0.00000000000E+00 -0.80972618972E+03  0.80972618973E+03  0.25500000000E-02 0.  1.
    5000001    1    1    2    0    0  0.48272279895E+02  0.97561120761E+02 -0.35964297523E+03  0.39663642662E+03  0.12700000000E+03 0.  0.
   -5000001    1    1    2    0    0 -0.48272279895E+02 -0.97561120761E+02 -0.41538035982E+03  0.44779261786E+03  0.12700000000E+03 0.  0.
<mgrwt>
<rscale>  0 0.33525996E+03</rscale>
<asrwt>0</asrwt>
<pdfrwt beam="1">  1        2 0.11567516E+00 0.33525996E+03</pdfrwt>
<pdfrwt beam="2">  1       -2 0.49575512E-02 0.33525996E+03</pdfrwt>
<totfact> 0.76457343E+03</totfact>
</mgrwt>
</event>
<event>
 4    1  0.1383574E-004  0.5006021E+03  0.7818608E-02  0.1013622E+00
          2   -1    0    0  501    0  0.00000000000E+00  0.00000000000E+00  0.22181120567E+04  0.22181120567E+04  0.25500000000E-02 0.  1.
         -2   -1    0    0    0  501 -0.00000000000E+00 -0.00000000000E+00 -0.28245012955E+02  0.28245013070E+02  0.25500000000E-02 0. -1.
    5000001    1    1    2    0    0  0.20422225191E+03  0.53791188370E+02  0.89823856500E+03  0.93142994356E+03  0.12700000000E+03 0.  0.
   -5000001    1    1    2    0    0 -0.20422225191E+03 -0.53791188370E+02  0.12916284787E+04  0.13149271262E+04  0.12700000000E+03 0.  0.
<mgrwt>
<rscale>  0 0.50060205E+03</rscale>
<asrwt>0</asrwt>
<pdfrwt beam="1">  1        2 0.31687307E+00 0.50060205E+03</pdfrwt>
<pdfrwt beam="2">  1       -2 0.40350029E-02 0.50060205E+03</pdfrwt>
<totfact> 0.18475638E+03</totfact>
</mgrwt>
</event>
<event>
 4    1  0.1383574E-004  0.6647613E+03  0.7818608E-02  0.9779468E-01
         -2   -1    0    0    0  501 -0.00000000000E+00  0.00000000000E+00  0.40461975436E+03  0.40461975437E+03  0.25500000000E-02 0.  1.
          2   -1    0    0  501    0  0.00000000000E+00 -0.00000000000E+00 -0.27303883186E+03  0.27303883187E+03  0.25500000000E-02 0. -1.
    5000001    1    1    2    0    0  0.10929470786E+03 -0.25905071428E+03  0.19186407183E+03  0.36330899768E+03  0.12700000000E+03 0.  0.
   -5000001    1    1    2    0    0 -0.10929470786E+03  0.25905071428E+03 -0.60283149336E+02  0.31434958856E+03  0.12700000000E+03 0.  0.
<mgrwt>
<rscale>  0 0.66476133E+03</rscale>
<asrwt>0</asrwt>
<pdfrwt beam="1">  1        2 0.39005548E-01 0.66476133E+03</pdfrwt>
<pdfrwt beam="2">  1       -2 0.57802822E-01 0.66476133E+03</pdfrwt>
<totfact> 0.37448262E+02</totfact>
</mgrwt>
</event>
<event>
 4    1  0.1383574E-004  0.3227719E+03  0.7818608E-02  0.1074381E+00
         -2   -1    0    0    0  501 -0.00000000000E+00  0.00000000000E+00  0.26279240815E+02  0.26279240939E+02  0.25500000000E-02 0. -1.
          2   -1    0    0  501    0  0.00000000000E+00 -0.00000000000E+00 -0.99110250026E+03  0.99110250026E+03  0.25500000000E-02 0.  1.
    5000001    1    1    2    0    0 -0.70984321916E+02  0.26686859078E+01 -0.70238806522E+03  0.71730320646E+03  0.12700000000E+03 0.  0.
   -5000001    1    1    2    0    0  0.70984321916E+02 -0.26686859078E+01 -0.26243519423E+03  0.30007853474E+03  0.12700000000E+03 0.  0.
<mgrwt>
<rscale>  0 0.32277188E+03</rscale>
<asrwt>0</asrwt>
<pdfrwt beam="1">  1        2 0.14158605E+00 0.32277188E+03</pdfrwt>
<pdfrwt beam="2">  1       -2 0.37541779E-02 0.32277188E+03</pdfrwt>
<totfact> 0.89452303E+03</totfact>
</mgrwt>
</event>
<event>
 4    1  0.1383574E-004  0.5602775E+03  0.7818608E-02  0.9991427E-01
          2   -1    0    0  501    0  0.00000000000E+00  0.00000000000E+00  0.41582724076E+04  0.41582724076E+04  0.25500000000E-02 0.  1.
         -2   -1    0    0    0  501 -0.00000000000E+00 -0.00000000000E+00 -0.18872676291E+02  0.18872676463E+02  0.25500000000E-02 0. -1.
    5000001    1    1    2    0    0  0.58099266819E+02  0.23030559737E+03  0.26439439861E+04  0.26576277005E+04  0.12700000000E+03 0.  0.
   -5000001    1    1    2    0    0 -0.58099266819E+02 -0.23030559737E+03  0.14954557452E+04  0.15195173835E+04  0.12700000000E+03 0.  0.
<mgrwt>
<rscale>  0 0.56027754E+03</rscale>
<asrwt>0</asrwt>
<pdfrwt beam="1">  1        2 0.59403973E+00 0.56027754E+03</pdfrwt>
<pdfrwt beam="2">  1       -2 0.26960929E-02 0.56027754E+03</pdfrwt>
<totfact> 0.26427402E+02</totfact>
</mgrwt>
</event>
<event>
 4    1  0.1383574E-004  0.3203302E+03  0.7818608E-02  0.1075497E+00
          2   -1    0    0  501    0  0.00000000000E+00  0.00000000000E+00  0.14574389073E+04  0.14574389073E+04  0.25500000000E-02 0.  1.
         -2   -1    0    0    0  501 -0.00000000000E+00 -0.00000000000E+00 -0.17601322965E+02  0.17601323150E+02  0.25500000000E-02 0. -1.
    5000001    1    1    2    0    0  0.45171092912E+02  0.83214037058E+02  0.82877506155E+03  0.84377846988E+03  0.12700000000E+03 0.  0.
   -5000001    1    1    2    0    0 -0.45171092912E+02 -0.83214037058E+02  0.61106252275E+03  0.63126176053E+03  0.12700000000E+03 0.  0.
<mgrwt>
<rscale>  0 0.32033016E+03</rscale>
<asrwt>0</asrwt>
<pdfrwt beam="1">  1        2 0.20820556E+00 0.32033016E+03</pdfrwt>
<pdfrwt beam="2">  1       -2 0.25144747E-02 0.32033016E+03</pdfrwt>
<totfact> 0.90638762E+03</totfact>
</mgrwt>
</event>
<event>
 4    1  0.1383574E-004  0.2909806E+03  0.7818608E-02  0.1089838E+00
         -2   -1    0    0    0  501 -0.00000000000E+00  0.00000000000E+00  0.55970426637E+02  0.55970426695E+02  0.25500000000E-02 0. -1.
          2   -1    0    0  501    0  0.00000000000E+00 -0.00000000000E+00 -0.37818938428E+03  0.37818938429E+03  0.25500000000E-02 0.  1.
    5000001    1    1    2    0    0 -0.34941297241E+02  0.60486939405E+02 -0.17991515604E+03  0.23103685304E+03  0.12700000000E+03 0.  0.
   -5000001    1    1    2    0    0  0.34941297241E+02 -0.60486939405E+02 -0.14230380160E+03  0.20312295794E+03  0.12700000000E+03 0.  0.
<mgrwt>
<rscale>  0 0.29098056E+03</rscale>
<asrwt>0</asrwt>
<pdfrwt beam="1">  1        2 0.54027053E-01 0.29098056E+03</pdfrwt>
<pdfrwt beam="2">  1       -2 0.79957755E-02 0.29098056E+03</pdfrwt>
<totfact> 0.86765116E+03</totfact>
</mgrwt>
</event>
<event>
 4    1  0.1383574E-004  0.1211304E+04  0.7818608E-02  0.9103019E-01
         -2   -1    0    0    0  501 -0.00000000000E+00  0.00000000000E+00  0.14690111076E+03  0.14690111078E+03  0.25500000000E-02 0. -1.
          2   -1    0    0  501    0  0.00000000000E+00 -0.00000000000E+00 -0.24970156741E+04  0.24970156741E+04  0.25500000000E-02 0.  1.
    5000001    1    1    2    0    0  0.29434001435E+03  0.51087611089E+03 -0.12956983974E+04  0.14291934025E+04  0.12700000000E+03 0.  0.
   -5000001    1    1    2    0    0 -0.29434001435E+03 -0.51087611089E+03 -0.10544161659E+04  0.12147233824E+04  0.12700000000E+03 0.  0.
<mgrwt>
<rscale>  0 0.12113041E+04</rscale>
<asrwt>0</asrwt>
<pdfrwt beam="1">  1        2 0.35671650E+00 0.12113041E+04</pdfrwt>
<pdfrwt beam="2">  1       -2 0.20985875E-01 0.12113041E+04</pdfrwt>
<totfact> 0.86045214E+01</totfact>
</mgrwt>
</event>
<event>
 4    1  0.1383574E-004  0.6536998E+03  0.7818608E-02  0.9799861E-01
         -2   -1    0    0    0  501 -0.00000000000E+00  0.00000000000E+00  0.25042667726E+02  0.25042667856E+02  0.25500000000E-02 0. -1.
          2   -1    0    0  501    0  0.00000000000E+00 -0.00000000000E+00 -0.42659539180E+04  0.42659539180E+04  0.25500000000E-02 0.  1.
    5000001    1    1    2    0    0  0.19847750797E+03 -0.12854878671E+03 -0.89621149804E+03  0.93554377821E+03  0.12700000000E+03 0.  0.
   -5000001    1    1    2    0    0 -0.19847750797E+03  0.12854878671E+03 -0.33446997522E+04  0.33554528076E+04  0.12700000000E+03 0.  0.
<mgrwt>
<rscale>  0 0.65369983E+03</rscale>
<asrwt>0</asrwt>
<pdfrwt beam="1">  1        2 0.60942153E+00 0.65369983E+03</pdfrwt>
<pdfrwt beam="2">  1       -2 0.35775267E-02 0.65369983E+03</pdfrwt>
<totfact> 0.14207146E+02</totfact>
</mgrwt>
</event>
<event>
 4    1  0.1383574E-004  0.3901649E+03  0.7818608E-02  0.1047239E+00
          2   -1    0    0  501    0  0.00000000000E+00  0.00000000000E+00  0.86400024197E+03  0.86400024197E+03  0.25500000000E-02 0.  1.
         -2   -1    0    0    0  501 -0.00000000000E+00 -0.00000000000E+00 -0.44047639556E+02  0.44047639630E+02  0.25500000000E-02 0. -1.
    5000001    1    1    2    0    0 -0.13212624076E+03  0.53262385614E+02  0.31590018973E+03  0.36907472833E+03  0.12700000000E+03 0.  0.
   -5000001    1    1    2    0    0  0.13212624076E+03 -0.53262385614E+02  0.50405241268E+03  0.53897315327E+03  0.12700000000E+03 0.  0.
<mgrwt>
<rscale>  0 0.39016495E+03</rscale>
<asrwt>0</asrwt>
<pdfrwt beam="1">  1        2 0.12342861E+00 0.39016495E+03</pdfrwt>
<pdfrwt beam="2">  1       -2 0.62925198E-02 0.39016495E+03</pdfrwt>
<totfact> 0.48916438E+03</totfact>
</mgrwt>
</event>
<event>
 4    1  0.1383574E-004  0.3948712E+03  0.7818608E-02  0.1045570E+00
         -2   -1    0    0    0  501 -0.00000000000E+00  0.00000000000E+00  0.34216418271E+03  0.34216418272E+03  0.25500000000E-02 0. -1.
          2   -1    0    0  501    0  0.00000000000E+00 -0.00000000000E+00 -0.11392429273E+03  0.11392429276E+03  0.25500000000E-02 0.  1.
    5000001    1    1    2    0    0 -0.13990205368E+03 -0.51839907399E+02  0.86020342119E+02  0.21398238217E+03  0.12700000000E+03 0.  0.
   -5000001    1    1    2    0    0  0.13990205368E+03  0.51839907399E+02  0.14221954786E+03  0.24210609330E+03  0.12700000000E+03 0.  0.
<mgrwt>
<rscale>  0 0.39487118E+03</rscale>
<asrwt>0</asrwt>
<pdfrwt beam="1">  1        2 0.16274899E-01 0.39487118E+03</pdfrwt>
<pdfrwt beam="2">  1       -2 0.48880598E-01 0.39487118E+03</pdfrwt>
<totfact> 0.14323004E+03</totfact>
</mgrwt>
</event>
<event>
 4    1  0.1383574E-004  0.3957646E+03  0.7818608E-02  0.1045256E+00
          2   -1    0    0  501    0  0.00000000000E+00  0.00000000000E+00  0.79135785724E+03  0.79135785724E+03  0.25500000000E-02 0.  1.
         -2   -1    0    0    0  501 -0.00000000000E+00 -0.00000000000E+00 -0.49481298429E+02  0.49481298495E+02  0.25500000000E-02 0. -1.
    5000001    1    1    2    0    0 -0.11822580171E+03  0.71755342379E+02  0.50365730784E+03  0.53751823513E+03  0.12700000000E+03 0.  0.
   -5000001    1    1    2    0    0  0.11822580171E+03 -0.71755342379E+02  0.23821925096E+03  0.30332092061E+03  0.12700000000E+03 0.  0.
<mgrwt>
<rscale>  0 0.39576465E+03</rscale>
<asrwt>0</asrwt>
<pdfrwt beam="1">  1        2 0.11305112E+00 0.39576465E+03</pdfrwt>
<pdfrwt beam="2">  1       -2 0.70687573E-02 0.39576465E+03</pdfrwt>
<totfact> 0.45638001E+03</totfact>
</mgrwt>
</event>
<event>
 4    1  0.1383574E-004  0.3531008E+03  0.7818608E-02  0.1061349E+00
         -2   -1    0    0    0  501 -0.00000000000E+00  0.00000000000E+00  0.25117686898E+02  0.25117687028E+02  0.25500000000E-02 0. -1.
          2   -1    0    0  501    0  0.00000000000E+00 -0.00000000000E+00 -0.12409601834E+04  0.12409601834E+04  0.25500000000E-02 0.  1.
    5000001    1    1    2    0    0  0.65972865144E+02  0.81861565238E+02 -0.83433454566E+03  0.85046861722E+03  0.12700000000E+03 0.  0.
   -5000001    1    1    2    0    0 -0.65972865144E+02 -0.81861565238E+02 -0.38150795087E+03  0.41560925323E+03  0.12700000000E+03 0.  0.
<mgrwt>
<rscale>  0 0.35310083E+03</rscale>
<asrwt>0</asrwt>
<pdfrwt beam="1">  1        2 0.17727999E+00 0.35310083E+03</pdfrwt>
<pdfrwt beam="2">  1       -2 0.35882418E-02 0.35310083E+03</pdfrwt>
<totfact> 0.69272877E+03</totfact>
</mgrwt>
</event>
<event>
 4    1  0.1383574E-004  0.4608710E+03  0.7818608E-02  0.1024529E+00
          2   -1    0    0  501    0  0.00000000000E+00  0.00000000000E+00  0.23710645638E+03  0.23710645640E+03  0.25500000000E-02 0.  1.
         -2   -1    0    0    0  501 -0.00000000000E+00 -0.00000000000E+00 -0.22395223198E+03  0.22395223200E+03  0.25500000000E-02 0. -1.
    5000001    1    1    2    0    0  0.12366038252E+02  0.19108561677E+03  0.24045273796E+02  0.23102771918E+03  0.12700000000E+03 0.  0.
   -5000001    1    1    2    0    0 -0.12366038252E+02 -0.19108561677E+03 -0.10891049395E+02  0.23003096921E+03  0.12700000000E+03 0.  0.
<mgrwt>
<rscale>  0 0.46087100E+03</rscale>
<asrwt>0</asrwt>
<pdfrwt beam="1">  1        2 0.33872351E-01 0.46087100E+03</pdfrwt>
<pdfrwt beam="2">  1       -2 0.31993176E-01 0.46087100E+03</pdfrwt>
<totfact> 0.14045893E+03</totfact>
</mgrwt>
</event>
<event>
 4    1  0.1383574E-004  0.9916556E+03  0.7818608E-02  0.9317744E-01
          2   -1    0    0  501    0  0.00000000000E+00  0.00000000000E+00  0.20988695494E+04  0.20988695494E+04  0.25500000000E-02 0.  1.
         -2   -1    0    0    0  501 -0.00000000000E+00 -0.00000000000E+00 -0.11713219810E+03  0.11713219812E+03  0.25500000000E-02 0. -1.
    5000001    1    1    2    0    0 -0.29398245709E+03  0.19727985740E+03  0.26893130630E+03  0.46238303896E+03  0.12700000000E+03 0.  0.
   -5000001    1    1    2    0    0  0.29398245709E+03 -0.19727985740E+03  0.17128060450E+04  0.17536187086E+04  0.12700000000E+03 0.  0.
<mgrwt>
<rscale>  0 0.99165559E+03</rscale>
<asrwt>0</asrwt>
<pdfrwt beam="1">  1        2 0.29983847E+00 0.99165559E+03</pdfrwt>
<pdfrwt beam="2">  1       -2 0.16733173E-01 0.99165559E+03</pdfrwt>
<totfact> 0.20830603E+02</totfact>
</mgrwt>
</event>
<event>
 4    1  0.1383574E-004  0.3780336E+03  0.7818608E-02  0.1051663E+00
         -2   -1    0    0    0  501 -0.00000000000E+00  0.00000000000E+00  0.19327095943E+04  0.19327095943E+04  0.25500000000E-02 0. -1.
          2   -1    0    0  501    0  0.00000000000E+00 -0.00000000000E+00 -0.18485629886E+02  0.18485630062E+02  0.25500000000E-02 0.  1.
    5000001    1    1    2    0    0 -0.13764582286E+03 -0.23596261968E+02  0.10074718816E+04  0.10250032919E+04  0.12700000000E+03 0.  0.
   -5000001    1    1    2    0    0  0.13764582286E+03  0.23596261968E+02  0.90675208275E+03  0.92619193243E+03  0.12700000000E+03 0.  0.
<mgrwt>
<rscale>  0 0.37803362E+03</rscale>
<asrwt>0</asrwt>
<pdfrwt beam="1">  1        2 0.26408073E-02 0.37803362E+03</pdfrwt>
<pdfrwt beam="2">  1       -2 0.27610106E+00 0.37803362E+03</pdfrwt>
<totfact> 0.18743791E+02</totfact>
</mgrwt>
</event>
<event>
 4    1  0.1383574E-004  0.5331323E+03  0.7818608E-02  0.1005475E+00
          2   -1    0    0  501    0  0.00000000000E+00  0.00000000000E+00  0.61640504871E+03  0.61640504871E+03  0.25500000000E-02 0.  1.
         -2   -1    0    0    0  501 -0.00000000000E+00 -0.00000000000E+00 -0.11527731586E+03  0.11527731589E+03  0.25500000000E-02 0. -1.
    5000001    1    1    2    0    0  0.21686527186E+03  0.15140667209E+01  0.37251402420E+03  0.44936459224E+03  0.12700000000E+03 0.  0.
   -5000001    1    1    2    0    0 -0.21686527186E+03 -0.15140667209E+01  0.12861370865E+03  0.28231777236E+03  0.12700000000E+03 0.  0.
<mgrwt>
<rscale>  0 0.53313233E+03</rscale>
<asrwt>0</asrwt>
<pdfrwt beam="1">  1        2 0.88057863E-01 0.53313233E+03</pdfrwt>
<pdfrwt beam="2">  1       -2 0.16468188E-01 0.53313233E+03</pdfrwt>
<totfact> 0.15681552E+03</totfact>
</mgrwt>
</event>
<event>
 4    1  0.1383574E-004  0.5602219E+03  0.7818608E-02  0.9991553E-01
         -2   -1    0    0    0  501 -0.00000000000E+00  0.00000000000E+00  0.22167542745E+03  0.22167542746E+03  0.25500000000E-02 0. -1.
          2   -1    0    0  501    0  0.00000000000E+00 -0.00000000000E+00 -0.35395056599E+03  0.35395056600E+03  0.25500000000E-02 0.  1.
    5000001    1    1    2    0    0 -0.14356591937E+03  0.14544623890E+03  0.81219036117E+02  0.25395139977E+03  0.12700000000E+03 0.  0.
   -5000001    1    1    2    0    0  0.14356591937E+03 -0.14544623890E+03 -0.21349417466E+03  0.32167459369E+03  0.12700000000E+03 0.  0.
<mgrwt>
<rscale>  0 0.56022190E+03</rscale>
<asrwt>0</asrwt>
<pdfrwt beam="1">  1        2 0.50564366E-01 0.56022190E+03</pdfrwt>
<pdfrwt beam="2">  1       -2 0.31667918E-01 0.56022190E+03</pdfrwt>
<totfact> 0.92106670E+02</totfact>
</mgrwt>
</event>
<event>
 4    1  0.1383574E-004  0.2730199E+03  0.7818608E-02  0.1099564E+00
          2   -1    0    0  501    0  0.00000000000E+00  0.00000000000E+00  0.24209104136E+03  0.24209104137E+03  0.25500000000E-02 0.  1.
         -2   -1    0    0    0  501 -0.00000000000E+00 -0.00000000000E+00 -0.76975047189E+02  0.76975047231E+02  0.25500000000E-02 0. -1.
    5000001    1    1    2    0    0  0.70542609636E+01 -0.48750404038E+02  0.72131076278E+02  0.15413713588E+03  0.12700000000E+03 0.  0.
   -5000001    1    1    2    0    0 -0.70542609636E+01  0.48750404038E+02  0.92984917891E+02  0.16492895272E+03  0.12700000000E+03 0.  0.
<mgrwt>
<rscale>  0 0.27301992E+03</rscale>
<asrwt>0</asrwt>
<pdfrwt beam="1">  1        2 0.34584434E-01 0.27301992E+03</pdfrwt>
<pdfrwt beam="2">  1       -2 0.10996435E-01 0.27301992E+03</pdfrwt>
<totfact> 0.84595608E+03</totfact>
</mgrwt>
</event>
<event>
 4    1  0.1383574E-004  0.6312414E+03  0.7818608E-02  0.9842629E-01
         -2   -1    0    0    0  501 -0.00000000000E+00  0.00000000000E+00  0.41683092786E+02  0.41683092864E+02  0.25500000000E-02 0. -1.
          2   -1    0    0  501    0  0.00000000000E+00 -0.00000000000E+00 -0.23898523597E+04  0.23898523597E+04  0.25500000000E-02 0.  1.
    5000001    1    1    2    0    0  0.97850642671E+02  0.15319736892E+03 -0.20392251687E+04  0.20512465651E+04  0.12700000000E+03 0.  0.
   -5000001    1    1    2    0    0 -0.97850642671E+02 -0.15319736892E+03 -0.30894409819E+03  0.38028888745E+03  0.12700000000E+03 0.  0.
<mgrwt>
<rscale>  0 0.63124144E+03</rscale>
<asrwt>0</asrwt>
<pdfrwt beam="1">  1        2 0.34140739E+00 0.63124144E+03</pdfrwt>
<pdfrwt beam="2">  1       -2 0.59547290E-02 0.63124144E+03</pdfrwt>
<totfact> 0.82154949E+02</totfact>
</mgrwt>
</event>
<event>
 4    1  0.1383574E-004  0.4911064E+03  0.7818608E-02  0.1016127E+00
         -2   -1    0    0    0  501 -0.00000000000E+00  0.00000000000E+00  0.22498205774E+03  0.22498205776E+03  0.25500000000E-02 0. -1.
          2   -1    0    0  501    0  0.00000000000E+00 -0.00000000000E+00 -0.26800524367E+03  0.26800524369E+03  0.25500000000E-02 0.  1.
    5000001    1    1    2    0    0  0.49573949089E+02  0.15689713407E+03  0.10972965875E+03  0.23504017766E+03  0.12700000000E+03 0.  0.
   -5000001    1    1    2    0    0 -0.49573949089E+02 -0.15689713407E+03 -0.15275284468E+03  0.25794712378E+03  0.12700000000E+03 0.  0.
<mgrwt>
<rscale>  0 0.49110639E+03</rscale>
<asrwt>0</asrwt>
<pdfrwt beam="1">  1        2 0.38286463E-01 0.49110639E+03</pdfrwt>
<pdfrwt beam="2">  1       -2 0.32140294E-01 0.49110639E+03</pdfrwt>
<totfact> 0.12169306E+03</totfact>
</mgrwt>
</event>
<event>
 4    1  0.1383574E-004  0.3042238E+03  0.7818608E-02  0.1083148E+00
         -2   -1    0    0    0  501 -0.00000000000E+00  0.00000000000E+00  0.42080463864E+01  0.42080471591E+01  0.25500000000E-02 0.  1.
          2   -1    0    0  501    0  0.00000000000E+00 -0.00000000000E+00 -0.54985198410E+04  0.54985198410E+04  0.25500000000E-02 0. -1.
    5000001    1    1    2    0    0 -0.75562479479E+02  0.22473764443E+02 -0.32569197318E+04  0.32603481253E+04  0.12700000000E+03 0.  0.
   -5000001    1    1    2    0    0  0.75562479479E+02 -0.22473764443E+02 -0.22373920628E+04  0.22423797629E+04  0.12700000000E+03 0.  0.
<mgrwt>
<rscale>  0 0.30422379E+03</rscale>
<asrwt>0</asrwt>
<pdfrwt beam="1">  1        2 0.78549823E+00 0.30422379E+03</pdfrwt>
<pdfrwt beam="2">  1       -2 0.60115306E-03 0.30422379E+03</pdfrwt>
<totfact> 0.16475058E+02</totfact>
</mgrwt>
</event>
<event>
 4    1  0.1383574E-004  0.3799876E+03  0.7818608E-02  0.1050938E+00
         -2   -1    0    0    0  501 -0.00000000000E+00  0.00000000000E+00  0.14336920071E+02  0.14336920298E+02  0.25500000000E-02 0. -1.
          2   -1    0    0  501    0  0.00000000000E+00 -0.00000000000E+00 -0.25178101279E+04  0.25178101279E+04  0.25500000000E-02 0.  1.
    5000001    1    1    2    0    0  0.62072764785E+02 -0.11505330971E+03 -0.16092492056E+04  0.16195376803E+04  0.12700000000E+03 0.  0.
   -5000001    1    1    2    0    0 -0.62072764785E+02  0.11505330971E+03 -0.89422400218E+03  0.91260936784E+03  0.12700000000E+03 0.  0.
<mgrwt>
<rscale>  0 0.37998759E+03</rscale>
<asrwt>0</asrwt>
<pdfrwt beam="1">  1        2 0.35968688E+00 0.37998759E+03</pdfrwt>
<pdfrwt beam="2">  1       -2 0.20481331E-02 0.37998759E+03</pdfrwt>
<totfact> 0.36495410E+03</totfact>
</mgrwt>
</event>
<event>
 4    1  0.1383574E-004  0.4130770E+03  0.7818608E-02  0.1039343E+00
         -2   -1    0    0    0  501 -0.00000000000E+00  0.00000000000E+00  0.29326918088E+02  0.29326918199E+02  0.25500000000E-02 0. -1.
          2   -1    0    0  501    0  0.00000000000E+00 -0.00000000000E+00 -0.14545733415E+04  0.14545733415E+04  0.25500000000E-02 0.  1.
    5000001    1    1    2    0    0  0.59251836843E+02  0.15166327171E+03 -0.69797594056E+03  0.72788181854E+03  0.12700000000E+03 0.  0.
   -5000001    1    1    2    0    0 -0.59251836843E+02 -0.15166327171E+03 -0.72727048286E+03  0.75601844117E+03  0.12700000000E+03 0.  0.
<mgrwt>
<rscale>  0 0.41307701E+03</rscale>
<asrwt>0</asrwt>
<pdfrwt beam="1">  1        2 0.20779615E+00 0.41307701E+03</pdfrwt>
<pdfrwt beam="2">  1       -2 0.41895607E-02 0.41307701E+03</pdfrwt>
<totfact> 0.42295089E+03</totfact>
</mgrwt>
</event>
<event>
 4    1  0.1383574E-004  0.3239644E+03  0.7818608E-02  0.1073839E+00
          2   -1    0    0  501    0  0.00000000000E+00  0.00000000000E+00  0.67729973548E+03  0.67729973548E+03  0.25500000000E-02 0.  1.
         -2   -1    0    0    0  501 -0.00000000000E+00 -0.00000000000E+00 -0.38739479082E+02  0.38739479166E+02  0.25500000000E-02 0. -1.
    5000001    1    1    2    0    0 -0.78054547444E+02  0.21931298667E+02  0.18785454235E+03  0.24081491507E+03  0.12700000000E+03 0.  0.
   -5000001    1    1    2    0    0  0.78054547444E+02 -0.21931298667E+02  0.45070571405E+03  0.47522429958E+03  0.12700000000E+03 0.  0.
<mgrwt>
<rscale>  0 0.32396444E+03</rscale>
<asrwt>0</asrwt>
<pdfrwt beam="1">  1        2 0.96757098E-01 0.32396444E+03</pdfrwt>
<pdfrwt beam="2">  1       -2 0.55342117E-02 0.32396444E+03</pdfrwt>
<totfact> 0.80208803E+03</totfact>
</mgrwt>
</event>
<event>
 4    1  0.1383574E-004  0.3112596E+03  0.7818608E-02  0.1079744E+00
          2   -1    0    0  501    0  0.00000000000E+00  0.00000000000E+00  0.18791228147E+04  0.18791228147E+04  0.25500000000E-02 0.  1.
         -2   -1    0    0    0  501 -0.00000000000E+00 -0.00000000000E+00 -0.12889327772E+02  0.12889328024E+02  0.25500000000E-02 0. -1.
    5000001    1    1    2    0    0  0.29387971114E+02 -0.34450798659E+02  0.46066231171E+03  0.47998882883E+03  0.12700000000E+03 0.  0.
   -5000001    1    1    2    0    0 -0.29387971114E+02  0.34450798659E+02  0.14055711753E+04  0.14120233139E+04  0.12700000000E+03 0.  0.
<mgrwt>
<rscale>  0 0.31125957E+03</rscale>
<asrwt>0</asrwt>
<pdfrwt beam="1">  1        2 0.26844609E+00 0.31125957E+03</pdfrwt>
<pdfrwt beam="2">  1       -2 0.18413328E-02 0.31125957E+03</pdfrwt>
<totfact> 0.88537955E+03</totfact>
</mgrwt>
</event>
<event>
 4    1  0.1383574E-004  0.2690573E+03  0.7818608E-02  0.1101820E+00
         -2   -1    0    0    0  501 -0.00000000000E+00  0.00000000000E+00  0.69485216707E+01  0.69485221386E+01  0.25500000000E-02 0. -1.
          2   -1    0    0  501    0  0.00000000000E+00 -0.00000000000E+00 -0.26045757032E+04  0.26045757032E+04  0.25500000000E-02 0.  1.
    5000001    1    1    2    0    0 -0.42299262337E+02 -0.13404255052E+02 -0.12966501415E+04  0.13036101760E+04  0.12700000000E+03 0.  0.
   -5000001    1    1    2    0    0  0.42299262337E+02  0.13404255052E+02 -0.13009770400E+04  0.13079140493E+04  0.12700000000E+03 0.  0.
<mgrwt>
<rscale>  0 0.26905725E+03</rscale>
<asrwt>0</asrwt>
<pdfrwt beam="1">  1        2 0.37208162E+00 0.26905725E+03</pdfrwt>
<pdfrwt beam="2">  1       -2 0.99264765E-03 0.26905725E+03</pdfrwt>
<totfact> 0.95742408E+03</totfact>
</mgrwt>
</event>
<event>
 4    1  0.1383574E-004  0.3481893E+03  0.7818608E-02  0.1063361E+00
         -2   -1    0    0    0  501 -0.00000000000E+00  0.00000000000E+00  0.13749064444E+02  0.13749064680E+02  0.25500000000E-02 0. -1.
          2   -1    0    0  501    0  0.00000000000E+00 -0.00000000000E+00 -0.22044366958E+04  0.22044366958E+04  0.25500000000E-02 0.  1.
    5000001    1    1    2    0    0 -0.98051119944E+02 -0.19270311161E+02 -0.15079412573E+04  0.15165754852E+04  0.12700000000E+03 0.  0.
   -5000001    1    1    2    0    0  0.98051119944E+02  0.19270311161E+02 -0.68274637409E+03  0.70161027525E+03  0.12700000000E+03 0.  0.
<mgrwt>
<rscale>  0 0.34818927E+03</rscale>
<asrwt>0</asrwt>
<pdfrwt beam="1">  1        2 0.31491930E+00 0.34818927E+03</pdfrwt>
<pdfrwt beam="2">  1       -2 0.19641535E-02 0.34818927E+03</pdfrwt>
<totfact> 0.55723896E+03</totfact>
</mgrwt>
</event>
<event>
 4    1  0.1383574E-004  0.4912100E+03  0.7818608E-02  0.1016099E+00
         -2   -1    0    0    0  501 -0.00000000000E+00  0.00000000000E+00  0.41905207400E+02  0.41905207477E+02  0.25500000000E-02 0. -1.
          2   -1    0    0  501    0  0.00000000000E+00 -0.00000000000E+00 -0.14394824754E+04  0.14394824754E+04  0.25500000000E-02 0.  1.
    5000001    1    1    2    0    0  0.81617869497E+02 -0.19249411804E+03 -0.63289858281E+03  0.67853156023E+03  0.12700000000E+03 0.  0.
   -5000001    1    1    2    0    0 -0.81617869497E+02  0.19249411804E+03 -0.76467868520E+03  0.80285612267E+03  0.12700000000E+03 0.  0.
<mgrwt>
<rscale>  0 0.49120998E+03</rscale>
<asrwt>0</asrwt>
<pdfrwt beam="1">  1        2 0.20564032E+00 0.49120998E+03</pdfrwt>
<pdfrwt beam="2">  1       -2 0.59864591E-02 0.49120998E+03</pdfrwt>
<totfact> 0.24835997E+03</totfact>
</mgrwt>
</event>
<event>
 4    1  0.1383574E-004  0.3253349E+03  0.7818608E-02  0.1073220E+00
         -2   -1    0    0    0  501 -0.00000000000E+00  0.00000000000E+00  0.14925170864E+03  0.14925170866E+03  0.25500000000E-02 0. -1.
          2   -1    0    0  501    0  0.00000000000E+00 -0.00000000000E+00 -0.17728908287E+03  0.17728908288E+03  0.25500000000E-02 0.  1.
    5000001    1    1    2    0    0  0.18078077922E+01  0.56053561425E+02 -0.99105714501E+02  0.17057611956E+03  0.12700000000E+03 0.  0.
   -5000001    1    1    2    0    0 -0.18078077922E+01 -0.56053561425E+02  0.71068340272E+02  0.15596467198E+03  0.12700000000E+03 0.  0.
<mgrwt>
<rscale>  0 0.32533490E+03</rscale>
<asrwt>0</asrwt>
<pdfrwt beam="1">  1        2 0.25327012E-01 0.32533490E+03</pdfrwt>
<pdfrwt beam="2">  1       -2 0.21321673E-01 0.32533490E+03</pdfrwt>
<totfact> 0.39929374E+03</totfact>
</mgrwt>
</event>
<event>
 4    1  0.1383574E-004  0.3004170E+03  0.7818608E-02  0.1085032E+00
          2   -1    0    0  501    0  0.00000000000E+00  0.00000000000E+00  0.14920327062E+02  0.14920327280E+02  0.25500000000E-02 0.  1.
         -2   -1    0    0    0  501 -0.00000000000E+00 -0.00000000000E+00 -0.15122050327E+04  0.15122050327E+04  0.25500000000E-02 0. -1.
    5000001    1    1    2    0    0 -0.89408674692E+01  0.78338719459E+02 -0.67381172337E+03  0.69019427166E+03  0.12700000000E+03 0.  0.
   -5000001    1    1    2    0    0  0.89408674692E+01 -0.78338719459E+02 -0.82347298223E+03  0.83693108829E+03  0.12700000000E+03 0.  0.
<mgrwt>
<rscale>  0 0.30041700E+03</rscale>
<asrwt>0</asrwt>
<pdfrwt beam="1">  1        2 0.21314763E-02 0.30041700E+03</pdfrwt>
<pdfrwt beam="2">  1       -2 0.21602919E+00 0.30041700E+03</pdfrwt>
<totfact> 0.57576739E+02</totfact>
</mgrwt>
</event>
<event>
 4    1  0.1383574E-004  0.7196789E+03  0.7818608E-02  0.9684158E-01
          2   -1    0    0  501    0  0.00000000000E+00  0.00000000000E+00  0.45700185117E+04  0.45700185117E+04  0.25500000000E-02 0.  1.
         -2   -1    0    0    0  501 -0.00000000000E+00 -0.00000000000E+00 -0.28333460101E+02  0.28333460216E+02  0.25500000000E-02 0. -1.
    5000001    1    1    2    0    0  0.30625172269E+03 -0.11921546489E+03  0.18033639056E+04  0.18374582500E+04  0.12700000000E+03 0.  0.
   -5000001    1    1    2    0    0 -0.30625172269E+03  0.11921546489E+03  0.27383211461E+04  0.27608937219E+04  0.12700000000E+03 0.  0.
<mgrwt>
<rscale>  0 0.71967892E+03</rscale>
<asrwt>0</asrwt>
<pdfrwt beam="1">  1        2 0.65286030E+00 0.71967892E+03</pdfrwt>
<pdfrwt beam="2">  1       -2 0.40476340E-02 0.71967892E+03</pdfrwt>
<totfact> 0.68421547E+01</totfact>
</mgrwt>
</event>
<event>
 4    1  0.1383574E-004  0.7657742E+03  0.7818608E-02  0.9610923E-01
          2   -1    0    0  501    0  0.00000000000E+00  0.00000000000E+00  0.19122465016E+04  0.19122465016E+04  0.25500000000E-02 0.  1.
         -2   -1    0    0    0  501 -0.00000000000E+00 -0.00000000000E+00 -0.76665079958E+02  0.76665080000E+02  0.25500000000E-02 0. -1.
    5000001    1    1    2    0    0  0.16880147642E+03 -0.31218512968E+03  0.74317401785E+03  0.83330073469E+03  0.12700000000E+03 0.  0.
   -5000001    1    1    2    0    0 -0.16880147642E+03  0.31218512968E+03  0.10924074038E+04  0.11556108470E+04  0.12700000000E+03 0.  0.
<mgrwt>
<rscale>  0 0.76577420E+03</rscale>
<asrwt>0</asrwt>
<pdfrwt beam="1">  1        2 0.27317801E+00 0.76577420E+03</pdfrwt>
<pdfrwt beam="2">  1       -2 0.10952157E-01 0.76577420E+03</pdfrwt>
<totfact> 0.53567713E+02</totfact>
</mgrwt>
</event>
<event>
 4    1  0.1383574E-004  0.4028735E+03  0.7818608E-02  0.1042789E+00
          2   -1    0    0  501    0  0.00000000000E+00  0.00000000000E+00  0.14945330851E+03  0.14945330853E+03  0.25500000000E-02 0. -1.
         -2   -1    0    0    0  501 -0.00000000000E+00 -0.00000000000E+00 -0.27150127958E+03  0.27150127959E+03  0.25500000000E-02 0.  1.
    5000001    1    1    2    0    0  0.19487545862E+02  0.14327515451E+03  0.11462185927E+01  0.19245219708E+03  0.12700000000E+03 0.  0.
   -5000001    1    1    2    0    0 -0.19487545862E+02 -0.14327515451E+03 -0.12319418966E+03  0.22850239104E+03  0.12700000000E+03 0.  0.
<mgrwt>
<rscale>  0 0.40287350E+03</rscale>
<asrwt>0</asrwt>
<pdfrwt beam="1">  1        2 0.21350473E-01 0.40287350E+03</pdfrwt>
<pdfrwt beam="2">  1       -2 0.38785897E-01 0.40287350E+03</pdfrwt>
<totfact> 0.16407652E+03</totfact>
</mgrwt>
</event>
<event>
 4    1  0.1383574E-004  0.8484828E+03  0.7818608E-02  0.9492376E-01
         -2   -1    0    0    0  501 -0.00000000000E+00  0.00000000000E+00  0.81664558446E+02  0.81664558486E+02  0.25500000000E-02 0.  1.
          2   -1    0    0  501    0  0.00000000000E+00 -0.00000000000E+00 -0.22039031128E+04  0.22039031128E+04  0.25500000000E-02 0. -1.
    5000001    1    1    2    0    0 -0.26587628246E+03 -0.21562022078E+03 -0.16430450506E+04  0.16831245693E+04  0.12700000000E+03 0.  0.
   -5000001    1    1    2    0    0  0.26587628246E+03  0.21562022078E+03 -0.47919350369E+03  0.60244310201E+03  0.12700000000E+03 0.  0.
<mgrwt>
<rscale>  0 0.84848282E+03</rscale>
<asrwt>0</asrwt>
<pdfrwt beam="1">  1        2 0.31484326E+00 0.84848282E+03</pdfrwt>
<pdfrwt beam="2">  1       -2 0.11666367E-01 0.84848282E+03</pdfrwt>
<totfact> 0.34145935E+02</totfact>
</mgrwt>
</event>
<event>
 4    1  0.1383574E-004  0.3570999E+03  0.7818608E-02  0.1059738E+00
          2   -1    0    0  501    0  0.00000000000E+00  0.00000000000E+00  0.16398447282E+04  0.16398447282E+04  0.25500000000E-02 0.  1.
         -2   -1    0    0    0  501 -0.00000000000E+00 -0.00000000000E+00 -0.19440916081E+02  0.19440916248E+02  0.25500000000E-02 0. -1.
    5000001    1    1    2    0    0  0.36381853553E+01  0.11666945324E+03  0.10244524159E+04  0.10388728268E+04  0.12700000000E+03 0.  0.
   -5000001    1    1    2    0    0 -0.36381853553E+01 -0.11666945324E+03  0.59595139618E+03  0.62041281767E+03  0.12700000000E+03 0.  0.
<mgrwt>
<rscale>  0 0.35709990E+03</rscale>
<asrwt>0</asrwt>
<pdfrwt beam="1">  1        2 0.23426371E+00 0.35709990E+03</pdfrwt>
<pdfrwt beam="2">  1       -2 0.27772717E-02 0.35709990E+03</pdfrwt>
<totfact> 0.63277544E+03</totfact>
</mgrwt>
</event>
<event>
 4    1  0.1383574E-004  0.2696199E+03  0.7818608E-02  0.1101497E+00
         -2   -1    0    0    0  501 -0.00000000000E+00  0.00000000000E+00  0.19308175030E+03  0.19308175032E+03  0.25500000000E-02 0. -1.
          2   -1    0    0  501    0  0.00000000000E+00 -0.00000000000E+00 -0.94124493744E+02  0.94124493778E+02  0.25500000000E-02 0.  1.
    5000001    1    1    2    0    0 -0.29143462790E+02  0.28236161894E+02  0.70732491955E+02  0.15092616632E+03  0.12700000000E+03 0.  0.
   -5000001    1    1    2    0    0  0.29143462790E+02 -0.28236161894E+02  0.28224764603E+02  0.13628007778E+03  0.12700000000E+03 0.  0.
<mgrwt>
<rscale>  0 0.26961990E+03</rscale>
<asrwt>0</asrwt>
<pdfrwt beam="1">  1        2 0.13446356E-01 0.26961990E+03</pdfrwt>
<pdfrwt beam="2">  1       -2 0.27583107E-01 0.26961990E+03</pdfrwt>
<totfact> 0.52566268E+03</totfact>
</mgrwt>
</event>
<event>
 4    1  0.1383574E-004  0.4176576E+03  0.7818608E-02  0.1037831E+00
         -2   -1    0    0    0  501 -0.00000000000E+00  0.00000000000E+00  0.31010998909E+02  0.31010999014E+02  0.25500000000E-02 0. -1.
          2   -1    0    0  501    0  0.00000000000E+00 -0.00000000000E+00 -0.14062579742E+04  0.14062579742E+04  0.25500000000E-02 0.  1.
    5000001    1    1    2    0    0 -0.21192438783E+01  0.75933117644E+02 -0.18057564437E+03  0.23346711308E+03  0.12700000000E+03 0.  0.
   -5000001    1    1    2    0    0  0.21192438783E+01 -0.75933117644E+02 -0.11946713309E+04  0.12038018602E+04  0.12700000000E+03 0.  0.
<mgrwt>
<rscale>  0 0.41765759E+03</rscale>
<asrwt>0</asrwt>
<pdfrwt beam="1">  1        2 0.20089396E+00 0.41765759E+03</pdfrwt>
<pdfrwt beam="2">  1       -2 0.44301436E-02 0.41765759E+03</pdfrwt>
<totfact> 0.41154213E+03</totfact>
</mgrwt>
</event>
<event>
 4    1  0.1383574E-004  0.2770376E+03  0.7818608E-02  0.1097318E+00
         -2   -1    0    0    0  501 -0.00000000000E+00  0.00000000000E+00  0.93421357417E+01  0.93421360898E+01  0.25500000000E-02 0.  1.
          2   -1    0    0  501    0  0.00000000000E+00 -0.00000000000E+00 -0.20538614352E+04  0.20538614352E+04  0.25500000000E-02 0. -1.
    5000001    1    1    2    0    0  0.32521027995E+01 -0.43396053686E+02 -0.12764170880E+04  0.12834575864E+04  0.12700000000E+03 0.  0.
   -5000001    1    1    2    0    0 -0.32521027995E+01  0.43396053686E+02 -0.76810221151E+03  0.77974598491E+03  0.12700000000E+03 0.  0.
<mgrwt>
<rscale>  0 0.27703756E+03</rscale>
<asrwt>0</asrwt>
<pdfrwt beam="1">  1        2 0.29340849E+00 0.27703756E+03</pdfrwt>
<pdfrwt beam="2">  1       -2 0.13345922E-02 0.27703756E+03</pdfrwt>
<totfact> 0.11640568E+04</totfact>
</mgrwt>
</event>
<event>
 4    1  0.1383574E-004  0.3508702E+03  0.7818608E-02  0.1062258E+00
         -2   -1    0    0    0  501 -0.00000000000E+00  0.00000000000E+00  0.13421993214E+02  0.13421993456E+02  0.25500000000E-02 0.  1.
          2   -1    0    0  501    0  0.00000000000E+00 -0.00000000000E+00 -0.22930629856E+04  0.22930629856E+04  0.25500000000E-02 0. -1.
    5000001    1    1    2    0    0 -0.90220937255E+01  0.11737219697E+03 -0.13246834579E+04  0.13359539267E+04  0.12700000000E+03 0.  0.
   -5000001    1    1    2    0    0  0.90220937255E+01 -0.11737219697E+03 -0.95495753450E+03  0.97053105231E+03  0.12700000000E+03 0.  0.
<mgrwt>
<rscale>  0 0.35087021E+03</rscale>
<asrwt>0</asrwt>
<pdfrwt beam="1">  1        2 0.32758018E+00 0.35087021E+03</pdfrwt>
<pdfrwt beam="2">  1       -2 0.19174291E-02 0.35087021E+03</pdfrwt>
<totfact> 0.52195975E+03</totfact>
</mgrwt>
</event>
<event>
 4    1  0.1383574E-004  0.4050140E+03  0.7818608E-02  0.1042057E+00
          2   -1    0    0  501    0  0.00000000000E+00  0.00000000000E+00  0.22585087019E+03  0.22585087020E+03  0.25500000000E-02 0.  1.
         -2   -1    0    0    0  501 -0.00000000000E+00 -0.00000000000E+00 -0.18157597484E+03  0.18157597485E+03  0.25500000000E-02 0. -1.
    5000001    1    1    2    0    0  0.69707473625E+00  0.15425002384E+03  0.55296465727E+02  0.20731679838E+03  0.12700000000E+03 0.  0.
   -5000001    1    1    2    0    0 -0.69707473625E+00 -0.15425002384E+03 -0.11021570375E+02  0.20011004668E+03  0.12700000000E+03 0.  0.
<mgrwt>
<rscale>  0 0.40501403E+03</rscale>
<asrwt>0</asrwt>
<pdfrwt beam="1">  1        2 0.32264410E-01 0.40501403E+03</pdfrwt>
<pdfrwt beam="2">  1       -2 0.25939425E-01 0.40501403E+03</pdfrwt>
<totfact> 0.21697401E+03</totfact>
</mgrwt>
</event>
<event>
 4    1  0.1383574E-004  0.4991654E+03  0.7818608E-02  0.1013997E+00
         -2   -1    0    0    0  501 -0.00000000000E+00  0.00000000000E+00  0.66825160063E+02  0.66825160111E+02  0.25500000000E-02 0. -1.
          2   -1    0    0  501    0  0.00000000000E+00 -0.00000000000E+00 -0.93215664756E+03  0.93215664756E+03  0.25500000000E-02 0.  1.
    5000001    1    1    2    0    0  0.16997939872E+03 -0.10546502941E+03 -0.27576235314E+03  0.36357907506E+03  0.12700000000E+03 0.  0.
   -5000001    1    1    2    0    0 -0.16997939872E+03  0.10546502941E+03 -0.58956913436E+03  0.63540273261E+03  0.12700000000E+03 0.  0.
<mgrwt>
<rscale>  0 0.49916537E+03</rscale>
<asrwt>0</asrwt>
<pdfrwt beam="1">  1        2 0.13316523E+00 0.49916537E+03</pdfrwt>
<pdfrwt beam="2">  1       -2 0.95464520E-02 0.49916537E+03</pdfrwt>
<totfact> 0.22954285E+03</totfact>
</mgrwt>
</event>
<event>
 4    1  0.1383574E-004  0.8179915E+03  0.7818608E-02  0.9534334E-01
         -2   -1    0    0    0  501 -0.00000000000E+00  0.00000000000E+00  0.10531077937E+03  0.10531077940E+03  0.25500000000E-02 0. -1.
          2   -1    0    0  501    0  0.00000000000E+00 -0.00000000000E+00 -0.15884177281E+04  0.15884177281E+04  0.25500000000E-02 0.  1.
    5000001    1    1    2    0    0 -0.36523954516E+03 -0.27920139536E+02 -0.47182687158E+03  0.61067917624E+03  0.12700000000E+03 0.  0.
   -5000001    1    1    2    0    0  0.36523954516E+03  0.27920139536E+02 -0.10112800771E+04  0.10830493313E+04  0.12700000000E+03 0.  0.
<mgrwt>
<rscale>  0 0.81799146E+03</rscale>
<asrwt>0</asrwt>
<pdfrwt beam="1">  1        2 0.22691680E+00 0.81799146E+03</pdfrwt>
<pdfrwt beam="2">  1       -2 0.15044398E-01 0.81799146E+03</pdfrwt>
<totfact> 0.46101499E+02</totfact>
</mgrwt>
</event>
<event>
 4    1  0.1383574E-004  0.5645622E+03  0.7818608E-02  0.9981784E-01
         -2   -1    0    0    0  501 -0.00000000000E+00  0.00000000000E+00  0.30732297658E+02  0.30732297763E+02  0.25500000000E-02 0. -1.
          2   -1    0    0  501    0  0.00000000000E+00 -0.00000000000E+00 -0.25927972058E+04  0.25927972058E+04  0.25500000000E-02 0.  1.
    5000001    1    1    2    0    0 -0.84666338534E+02 -0.19203312459E+03 -0.63197047489E+03  0.67790913178E+03  0.12700000000E+03 0.  0.
   -5000001    1    1    2    0    0  0.84666338534E+02  0.19203312459E+03 -0.19300944332E+04  0.19456203717E+04  0.12700000000E+03 0.  0.
<mgrwt>
<rscale>  0 0.56456219E+03</rscale>
<asrwt>0</asrwt>
<pdfrwt beam="1">  1        2 0.37039946E+00 0.56456219E+03</pdfrwt>
<pdfrwt beam="2">  1       -2 0.43903299E-02 0.56456219E+03</pdfrwt>
<totfact> 0.10429660E+03</totfact>
</mgrwt>
</event>
<event>
 4    1  0.1383574E-004  0.3934372E+03  0.7818608E-02  0.1046076E+00
         -2   -1    0    0    0  501 -0.00000000000E+00  0.00000000000E+00  0.29341392721E+02  0.29341392832E+02  0.25500000000E-02 0. -1.
          2   -1    0    0  501    0  0.00000000000E+00 -0.00000000000E+00 -0.13188949135E+04  0.13188949135E+04  0.25500000000E-02 0.  1.
    5000001    1    1    2    0    0 -0.68430063382E+02  0.32094584779E+02 -0.10896886162E+04  0.10996649564E+04  0.12700000000E+03 0.  0.
   -5000001    1    1    2    0    0  0.68430063382E+02 -0.32094584779E+02 -0.19986490453E+03  0.24857134994E+03  0.12700000000E+03 0.  0.
<mgrwt>
<rscale>  0 0.39343723E+03</rscale>
<asrwt>0</asrwt>
<pdfrwt beam="1">  1        2 0.18841352E+00 0.39343723E+03</pdfrwt>
<pdfrwt beam="2">  1       -2 0.41916284E-02 0.39343723E+03</pdfrwt>
<totfact> 0.49775895E+03</totfact>
</mgrwt>
</event>
<event>
 4    1  0.1383574E-004  0.4076945E+03  0.7818608E-02  0.1041147E+00
         -2   -1    0    0    0  501 -0.00000000000E+00  0.00000000000E+00  0.20296878941E+03  0.20296878943E+03  0.25500000000E-02 0. -1.
          2   -1    0    0  501    0  0.00000000000E+00 -0.00000000000E+00 -0.20472947482E+03  0.20472947484E+03  0.25500000000E-02 0.  1.
    5000001    1    1    2    0    0  0.12697511059E+03 -0.72050741246E+02 -0.64995725512E+02  0.20412602078E+03  0.12700000000E+03 0.  0.
   -5000001    1    1    2    0    0 -0.12697511059E+03  0.72050741246E+02  0.63235040106E+02  0.20357224349E+03  0.12700000000E+03 0.  0.
<mgrwt>
<rscale>  0 0.40769446E+03</rscale>
<asrwt>0</asrwt>
<pdfrwt beam="1">  1        2 0.29247068E-01 0.40769446E+03</pdfrwt>
<pdfrwt beam="2">  1       -2 0.28995541E-01 0.40769446E+03</pdfrwt>
<totfact> 0.19787851E+03</totfact>
</mgrwt>
</event>
<event>
 4    1  0.1383574E-004  0.3799015E+03  0.7818608E-02  0.1050970E+00
         -2   -1    0    0    0  501 -0.00000000000E+00  0.00000000000E+00  0.25421046847E+03  0.25421046848E+03  0.25500000000E-02 0. -1.
          2   -1    0    0  501    0  0.00000000000E+00 -0.00000000000E+00 -0.14193473006E+03  0.14193473008E+03  0.25500000000E-02 0.  1.
    5000001    1    1    2    0    0 -0.13227637003E+03 -0.34352051390E+02  0.93374575572E+02  0.20862625163E+03  0.12700000000E+03 0.  0.
   -5000001    1    1    2    0    0  0.13227637003E+03  0.34352051390E+02  0.18901162833E+02  0.18751894694E+03  0.12700000000E+03 0.  0.
<mgrwt>
<rscale>  0 0.37990154E+03</rscale>
<asrwt>0</asrwt>
<pdfrwt beam="1">  1        2 0.20276390E-01 0.37990154E+03</pdfrwt>
<pdfrwt beam="2">  1       -2 0.36315781E-01 0.37990154E+03</pdfrwt>
<totfact> 0.19718255E+03</totfact>
</mgrwt>
</event>
<event>
 4    1  0.1383574E-004  0.9595622E+03  0.7818608E-02  0.9354043E-01
         -2   -1    0    0    0  501 -0.00000000000E+00  0.00000000000E+00  0.30381114201E+03  0.30381114202E+03  0.25500000000E-02 0. -1.
          2   -1    0    0  501    0  0.00000000000E+00 -0.00000000000E+00 -0.75767432750E+03  0.75767432751E+03  0.25500000000E-02 0.  1.
    5000001    1    1    2    0    0  0.25892931762E+03  0.37952371988E+03 -0.16656147452E+03  0.50493006473E+03  0.12700000000E+03 0.  0.
   -5000001    1    1    2    0    0 -0.25892931762E+03 -0.37952371988E+03 -0.28730171098E+03  0.55655540480E+03  0.12700000000E+03 0.  0.
<mgrwt>
<rscale>  0 0.95956220E+03</rscale>
<asrwt>0</asrwt>
<pdfrwt beam="1">  1        2 0.10823919E+00 0.95956220E+03</pdfrwt>
<pdfrwt beam="2">  1       -2 0.43401592E-01 0.95956220E+03</pdfrwt>
<totfact> 0.20500224E+02</totfact>
</mgrwt>
</event>
<event>
 4    1  0.1383574E-004  0.5497282E+03  0.7818608E-02  0.1001557E+00
          2   -1    0    0  501    0  0.00000000000E+00  0.00000000000E+00  0.21990275069E+04  0.21990275070E+04  0.25500000000E-02 0.  1.
         -2   -1    0    0    0  501 -0.00000000000E+00 -0.00000000000E+00 -0.34356222913E+02  0.34356223008E+02  0.25500000000E-02 0. -1.
    5000001    1    1    2    0    0  0.18348278813E+03  0.11311961255E+03  0.15448296080E+04  0.15649567080E+04  0.12700000000E+03 0.  0.
   -5000001    1    1    2    0    0 -0.18348278813E+03 -0.11311961255E+03  0.61984167603E+03  0.66842702192E+03  0.12700000000E+03 0.  0.
<mgrwt>
<rscale>  0 0.54972822E+03</rscale>
<asrwt>0</asrwt>
<pdfrwt beam="1">  1        2 0.31414688E+00 0.54972822E+03</pdfrwt>
<pdfrwt beam="2">  1       -2 0.49080304E-02 0.54972822E+03</pdfrwt>
<totfact> 0.13936015E+03</totfact>
</mgrwt>
</event>
<event>
 4    1  0.1383574E-004  0.1133462E+04  0.7818608E-02  0.9173178E-01
          2   -1    0    0  501    0  0.00000000000E+00  0.00000000000E+00  0.10704452311E+04  0.10704452311E+04  0.25500000000E-02 0.  1.
         -2   -1    0    0    0  501 -0.00000000000E+00 -0.00000000000E+00 -0.30004698105E+03  0.30004698106E+03  0.25500000000E-02 0. -1.
    5000001    1    1    2    0    0  0.24903043175E+03 -0.15124620249E+03 -0.18213926677E+03  0.36632674241E+03  0.12700000000E+03 0.  0.
   -5000001    1    1    2    0    0 -0.24903043175E+03  0.15124620249E+03  0.95253751683E+03  0.10041654698E+04  0.12700000000E+03 0.  0.
<mgrwt>
<rscale>  0 0.11334617E+04</rscale>
<asrwt>0</asrwt>
<pdfrwt beam="1">  1        2 0.15292075E+00 0.11334617E+04</pdfrwt>
<pdfrwt beam="2">  1       -2 0.42863854E-01 0.11334617E+04</pdfrwt>
<totfact> 0.12998540E+02</totfact>
</mgrwt>
</event>
<event>
 4    1  0.1383574E-004  0.4657132E+03  0.7818608E-02  0.1023137E+00
          2   -1    0    0  501    0  0.00000000000E+00  0.00000000000E+00  0.13357959419E+04  0.13357959419E+04  0.25500000000E-02 0.  1.
         -2   -1    0    0    0  501 -0.00000000000E+00 -0.00000000000E+00 -0.40591669582E+02  0.40591669662E+02  0.25500000000E-02 0. -1.
    5000001    1    1    2    0    0 -0.90404416473E+02 -0.30010294444E+02  0.11510656901E+04  0.11619616169E+04  0.12700000000E+03 0.  0.
   -5000001    1    1    2    0    0  0.90404416473E+02  0.30010294444E+02  0.14413858221E+03  0.21442599463E+03  0.12700000000E+03 0.  0.
<mgrwt>
<rscale>  0 0.46571316E+03</rscale>
<asrwt>0</asrwt>
<pdfrwt beam="1">  1        2 0.19082795E+00 0.46571316E+03</pdfrwt>
<pdfrwt beam="2">  1       -2 0.57988112E-02 0.46571316E+03</pdfrwt>
<totfact> 0.29611868E+03</totfact>
</mgrwt>
</event>
<event>
 4    1  0.1383574E-004  0.3634991E+03  0.7818608E-02  0.1057207E+00
         -2   -1    0    0    0  501 -0.00000000000E+00  0.00000000000E+00  0.75792992444E+03  0.75792992444E+03  0.25500000000E-02 0. -1.
          2   -1    0    0  501    0  0.00000000000E+00 -0.00000000000E+00 -0.43583041126E+02  0.43583041201E+02  0.25500000000E-02 0.  1.
    5000001    1    1    2    0    0 -0.11567178355E+03 -0.30871662777E+02  0.46897486284E+03  0.50039928362E+03  0.12700000000E+03 0.  0.
   -5000001    1    1    2    0    0  0.11567178355E+03  0.30871662777E+02  0.24537202048E+03  0.30111368203E+03  0.12700000000E+03 0.  0.
<mgrwt>
<rscale>  0 0.36349906E+03</rscale>
<asrwt>0</asrwt>
<pdfrwt beam="1">  1        2 0.62261494E-02 0.36349906E+03</pdfrwt>
<pdfrwt beam="2">  1       -2 0.10827569E+00 0.36349906E+03</pdfrwt>
<totfact> 0.84224720E+02</totfact>
</mgrwt>
</event>
<event>
 4    1  0.1383574E-004  0.6379118E+03  0.7818608E-02  0.9829730E-01
         -2   -1    0    0    0  501 -0.00000000000E+00  0.00000000000E+00  0.27484657466E+03  0.27484657467E+03  0.25500000000E-02 0. -1.
          2   -1    0    0  501    0  0.00000000000E+00 -0.00000000000E+00 -0.37014416329E+03  0.37014416330E+03  0.25500000000E-02 0.  1.
    5000001    1    1    2    0    0  0.18812690841E+02 -0.27899570403E+03 -0.13469324600E+03  0.33535621467E+03  0.12700000000E+03 0.  0.
   -5000001    1    1    2    0    0 -0.18812690841E+02  0.27899570403E+03  0.39395657365E+02  0.30963452330E+03  0.12700000000E+03 0.  0.
<mgrwt>
<rscale>  0 0.63791177E+03</rscale>
<asrwt>0</asrwt>
<pdfrwt beam="1">  1        2 0.52877737E-01 0.63791177E+03</pdfrwt>
<pdfrwt beam="2">  1       -2 0.39263797E-01 0.63791177E+03</pdfrwt>
<totfact> 0.58227648E+02</totfact>
</mgrwt>
</event>
<event>
 4    1  0.1383574E-004  0.4787662E+03  0.7818608E-02  0.1019475E+00
          2   -1    0    0  501    0  0.00000000000E+00  0.00000000000E+00  0.92198039294E+03  0.92198039295E+03  0.25500000000E-02 0.  1.
         -2   -1    0    0    0  501 -0.00000000000E+00 -0.00000000000E+00 -0.62153461068E+02  0.62153461120E+02  0.25500000000E-02 0. -1.
    5000001    1    1    2    0    0  0.14634736973E+03 -0.47414595244E+01  0.14114360537E+03  0.23977187367E+03  0.12700000000E+03 0.  0.
   -5000001    1    1    2    0    0 -0.14634736973E+03  0.47414595244E+01  0.71868332651E+03  0.74436198040E+03  0.12700000000E+03 0.  0.
<mgrwt>
<rscale>  0 0.47876622E+03</rscale>
<asrwt>0</asrwt>
<pdfrwt beam="1">  1        2 0.13171149E+00 0.47876622E+03</pdfrwt>
<pdfrwt beam="2">  1       -2 0.88790655E-02 0.47876622E+03</pdfrwt>
<totfact> 0.26163369E+03</totfact>
</mgrwt>
</event>
<event>
 4    1  0.1383574E-004  0.7660559E+03  0.7818608E-02  0.9610492E-01
          2   -1    0    0  501    0  0.00000000000E+00  0.00000000000E+00  0.17285436488E+04  0.17285436488E+04  0.25500000000E-02 0.  1.
         -2   -1    0    0    0  501 -0.00000000000E+00 -0.00000000000E+00 -0.84875164594E+02  0.84875164632E+02  0.25500000000E-02 0. -1.
    5000001    1    1    2    0    0 -0.11921679981E+03 -0.26839516210E+03  0.32340868628E+03  0.45494042111E+03  0.12700000000E+03 0.  0.
   -5000001    1    1    2    0    0  0.11921679981E+03  0.26839516210E+03  0.13202597979E+04  0.13584783923E+04  0.12700000000E+03 0.  0.
<mgrwt>
<rscale>  0 0.76605594E+03</rscale>
<asrwt>0</asrwt>
<pdfrwt beam="1">  1        2 0.24693480E+00 0.76605594E+03</pdfrwt>
<pdfrwt beam="2">  1       -2 0.12125024E-01 0.76605594E+03</pdfrwt>
<totfact> 0.56177943E+02</totfact>
</mgrwt>
</event>
<event>
 4    1  0.1383574E-004  0.2733940E+03  0.7818608E-02  0.1099353E+00
          2   -1    0    0  501    0  0.00000000000E+00  0.00000000000E+00  0.12216058777E+04  0.12216058777E+04  0.25500000000E-02 0.  1.
         -2   -1    0    0    0  501 -0.00000000000E+00 -0.00000000000E+00 -0.15296311180E+02  0.15296311393E+02  0.25500000000E-02 0. -1.
    5000001    1    1    2    0    0 -0.54559964055E+01 -0.38372287290E+02  0.75009631786E+03  0.76175828607E+03  0.12700000000E+03 0.  0.
   -5000001    1    1    2    0    0  0.54559964055E+01  0.38372287290E+02  0.45621324863E+03  0.47514390300E+03  0.12700000000E+03 0.  0.
<mgrwt>
<rscale>  0 0.27339396E+03</rscale>
<asrwt>0</asrwt>
<pdfrwt beam="1">  1        2 0.17451518E+00 0.27339396E+03</pdfrwt>
<pdfrwt beam="2">  1       -2 0.21851866E-02 0.27339396E+03</pdfrwt>
<totfact> 0.14766650E+04</totfact>
</mgrwt>
</event>
<event>
 4    1  0.1383574E-004  0.4463439E+03  0.7818608E-02  0.1028818E+00
         -2   -1    0    0    0  501 -0.00000000000E+00  0.00000000000E+00  0.15401008277E+02  0.15401008488E+02  0.25500000000E-02 0. -1.
          2   -1    0    0  501    0  0.00000000000E+00 -0.00000000000E+00 -0.32339255515E+04  0.32339255515E+04  0.25500000000E-02 0.  1.
    5000001    1    1    2    0    0 -0.48571046822E+02 -0.86008941025E+02 -0.48334978039E+03  0.50942388512E+03  0.12700000000E+03 0.  0.
   -5000001    1    1    2    0    0  0.48571046822E+02  0.86008941025E+02 -0.27351747629E+04  0.27399026749E+04  0.12700000000E+03 0.  0.
<mgrwt>
<rscale>  0 0.44634388E+03</rscale>
<asrwt>0</asrwt>
<pdfrwt beam="1">  1        2 0.46198893E+00 0.44634388E+03</pdfrwt>
<pdfrwt beam="2">  1       -2 0.22001461E-02 0.44634388E+03</pdfrwt>
<totfact> 0.13626103E+03</totfact>
</mgrwt>
</event>
<event>
 4    1  0.1383574E-004  0.3144302E+03  0.7818608E-02  0.1078242E+00
          2   -1    0    0  501    0  0.00000000000E+00  0.00000000000E+00  0.51587648627E+03  0.51587648628E+03  0.25500000000E-02 0.  1.
         -2   -1    0    0    0  501 -0.00000000000E+00 -0.00000000000E+00 -0.47911826463E+02  0.47911826531E+02  0.25500000000E-02 0. -1.
    5000001    1    1    2    0    0 -0.27286225242E+02  0.63635835995E+02  0.34441903285E+03  0.37356060807E+03  0.12700000000E+03 0.  0.
   -5000001    1    1    2    0    0  0.27286225242E+02 -0.63635835995E+02  0.12354562696E+03  0.19022770474E+03  0.12700000000E+03 0.  0.
<mgrwt>
<rscale>  0 0.31443018E+03</rscale>
<asrwt>0</asrwt>
<pdfrwt beam="1">  1        2 0.73696645E-01 0.31443018E+03</pdfrwt>
<pdfrwt beam="2">  1       -2 0.68445462E-02 0.31443018E+03</pdfrwt>
<totfact> 0.78890670E+03</totfact>
</mgrwt>
</event>
<event>
 4    1  0.1383574E-004  0.3400721E+03  0.7818608E-02  0.1066765E+00
         -2   -1    0    0    0  501 -0.00000000000E+00  0.00000000000E+00  0.41793030700E+02  0.41793030777E+02  0.25500000000E-02 0. -1.
          2   -1    0    0  501    0  0.00000000000E+00 -0.00000000000E+00 -0.69179602657E+03  0.69179602657E+03  0.25500000000E-02 0.  1.
    5000001    1    1    2    0    0 -0.67733227616E+02  0.90321761650E+02 -0.31180190418E+03  0.35509891326E+03  0.12700000000E+03 0.  0.
   -5000001    1    1    2    0    0  0.67733227616E+02 -0.90321761650E+02 -0.33820109169E+03  0.37849014409E+03  0.12700000000E+03 0.  0.
<mgrwt>
<rscale>  0 0.34007207E+03</rscale>
<asrwt>0</asrwt>
<pdfrwt beam="1">  1        2 0.98827997E-01 0.34007207E+03</pdfrwt>
<pdfrwt beam="2">  1       -2 0.59704334E-02 0.34007207E+03</pdfrwt>
<totfact> 0.69697261E+03</totfact>
</mgrwt>
</event>
<event>
 4    1  0.1383574E-004  0.3668499E+03  0.7818608E-02  0.1055904E+00
         -2   -1    0    0    0  501 -0.00000000000E+00  0.00000000000E+00  0.32976440245E+03  0.32976440246E+03  0.25500000000E-02 0. -1.
          2   -1    0    0  501    0  0.00000000000E+00 -0.00000000000E+00 -0.10202652118E+03  0.10202652121E+03  0.25500000000E-02 0.  1.
    5000001    1    1    2    0    0 -0.13058927370E+03 -0.68082066962E+01  0.89867915406E+02  0.20323669035E+03  0.12700000000E+03 0.  0.
   -5000001    1    1    2    0    0  0.13058927370E+03  0.68082066962E+01  0.13786996586E+03  0.22855423332E+03  0.12700000000E+03 0.  0.
<mgrwt>
<rscale>  0 0.36684991E+03</rscale>
<asrwt>0</asrwt>
<pdfrwt beam="1">  1        2 0.14575217E-01 0.36684991E+03</pdfrwt>
<pdfrwt beam="2">  1       -2 0.47109201E-01 0.36684991E+03</pdfrwt>
<totfact> 0.17566435E+03</totfact>
</mgrwt>
</event>
<event>
 4    1  0.1383574E-004  0.6920640E+03  0.7818608E-02  0.9730901E-01
         -2   -1    0    0    0  501 -0.00000000000E+00  0.00000000000E+00  0.11749854859E+03  0.11749854862E+03  0.25500000000E-02 0. -1.
          2   -1    0    0  501    0  0.00000000000E+00 -0.00000000000E+00 -0.10190604953E+04  0.10190604953E+04  0.25500000000E-02 0.  1.
    5000001    1    1    2    0    0  0.21140062577E+03  0.21187047336E+03 -0.64530427035E+03  0.72258281421E+03  0.12700000000E+03 0.  0.
   -5000001    1    1    2    0    0 -0.21140062577E+03 -0.21187047336E+03 -0.25625767631E+03  0.41397622967E+03  0.12700000000E+03 0.  0.
<mgrwt>
<rscale>  0 0.69206395E+03</rscale>
<asrwt>0</asrwt>
<pdfrwt beam="1">  1        2 0.14558007E+00 0.69206395E+03</pdfrwt>
<pdfrwt beam="2">  1       -2 0.16785508E-01 0.69206395E+03</pdfrwt>
<totfact> 0.79420866E+02</totfact>
</mgrwt>
</event>
<event>
 4    1  0.1383574E-004  0.4464926E+03  0.7818608E-02  0.1028773E+00
         -2   -1    0    0    0  501 -0.00000000000E+00  0.00000000000E+00  0.23604828824E+02  0.23604828962E+02  0.25500000000E-02 0. -1.
          2   -1    0    0  501    0  0.00000000000E+00 -0.00000000000E+00 -0.21113861337E+04  0.21113861337E+04  0.25500000000E-02 0.  1.
    5000001    1    1    2    0    0  0.64989275098E+02 -0.13450714036E+03 -0.15543044462E+04  0.15666228289E+04  0.12700000000E+03 0.  0.
   -5000001    1    1    2    0    0 -0.64989275098E+02  0.13450714036E+03 -0.53347685867E+03  0.56836813371E+03  0.12700000000E+03 0.  0.
<mgrwt>
<rscale>  0 0.44649259E+03</rscale>
<asrwt>0</asrwt>
<pdfrwt beam="1">  1        2 0.30162647E+00 0.44649259E+03</pdfrwt>
<pdfrwt beam="2">  1       -2 0.33721197E-02 0.44649259E+03</pdfrwt>
<totfact> 0.27517139E+03</totfact>
</mgrwt>
</event>
<event>
 4    1  0.1383574E-004  0.3109242E+03  0.7818608E-02  0.1079904E+00
          2   -1    0    0  501    0  0.00000000000E+00  0.00000000000E+00  0.12798728631E+04  0.12798728631E+04  0.25500000000E-02 0.  1.
         -2   -1    0    0    0  501 -0.00000000000E+00 -0.00000000000E+00 -0.18883482663E+02  0.18883482835E+02  0.25500000000E-02 0. -1.
    5000001    1    1    2    0    0 -0.77718261214E+02  0.37959646210E+02  0.72920072350E+03  0.74521390085E+03  0.12700000000E+03 0.  0.
   -5000001    1    1    2    0    0  0.77718261214E+02 -0.37959646210E+02  0.53178865693E+03  0.55354244508E+03  0.12700000000E+03 0.  0.
<mgrwt>
<rscale>  0 0.31092415E+03</rscale>
<asrwt>0</asrwt>
<pdfrwt beam="1">  1        2 0.18283898E+00 0.31092415E+03</pdfrwt>
<pdfrwt beam="2">  1       -2 0.26976405E-02 0.31092415E+03</pdfrwt>
<totfact> 0.10096913E+04</totfact>
</mgrwt>
</event>
<event>
 4    1  0.1383574E-004  0.4205303E+03  0.7818608E-02  0.1036894E+00
          2   -1    0    0  501    0  0.00000000000E+00  0.00000000000E+00  0.52857044516E+03  0.52857044516E+03  0.25500000000E-02 0.  1.
         -2   -1    0    0    0  501 -0.00000000000E+00 -0.00000000000E+00 -0.83643404334E+02  0.83643404373E+02  0.25500000000E-02 0. -1.
    5000001    1    1    2    0    0 -0.15718608917E+03 -0.50134657049E+02  0.17973393088E+03  0.27505315190E+03  0.12700000000E+03 0.  0.
   -5000001    1    1    2    0    0  0.15718608917E+03  0.50134657049E+02  0.26519310995E+03  0.33716069763E+03  0.12700000000E+03 0.  0.
<mgrwt>
<rscale>  0 0.42053029E+03</rscale>
<asrwt>0</asrwt>
<pdfrwt beam="1">  1        2 0.75510063E-01 0.42053029E+03</pdfrwt>
<pdfrwt beam="2">  1       -2 0.11949058E-01 0.42053029E+03</pdfrwt>
<totfact> 0.31879794E+03</totfact>
</mgrwt>
</event>
<event>
 4    1  0.1383574E-004  0.3211616E+03  0.7818608E-02  0.1075116E+00
         -2   -1    0    0    0  501 -0.00000000000E+00  0.00000000000E+00  0.57958888693E+02  0.57958888750E+02  0.25500000000E-02 0. -1.
          2   -1    0    0  501    0  0.00000000000E+00 -0.00000000000E+00 -0.44490486143E+03  0.44490486144E+03  0.25500000000E-02 0.  1.
    5000001    1    1    2    0    0  0.87686582200E+02 -0.40742928584E+02 -0.22096403208E+03  0.27258581474E+03  0.12700000000E+03 0.  0.
   -5000001    1    1    2    0    0 -0.87686582200E+02  0.40742928584E+02 -0.16598194067E+03  0.23027793545E+03  0.12700000000E+03 0.  0.
<mgrwt>
<rscale>  0 0.32116159E+03</rscale>
<asrwt>0</asrwt>
<pdfrwt beam="1">  1        2 0.63557835E-01 0.32116159E+03</pdfrwt>
<pdfrwt beam="2">  1       -2 0.82798415E-02 0.32116159E+03</pdfrwt>
<totfact> 0.69069018E+03</totfact>
</mgrwt>
</event>
<event>
 4    1  0.1383574E-004  0.2839552E+03  0.7818608E-02  0.1093548E+00
         -2   -1    0    0    0  501 -0.00000000000E+00  0.00000000000E+00  0.24813742844E+02  0.24813742975E+02  0.25500000000E-02 0. -1.
          2   -1    0    0  501    0  0.00000000000E+00 -0.00000000000E+00 -0.81235793802E+03  0.81235793803E+03  0.25500000000E-02 0.  1.
    5000001    1    1    2    0    0 -0.25270647430E+02 -0.53208426573E+02 -0.46347185206E+03  0.48415379780E+03  0.12700000000E+03 0.  0.
   -5000001    1    1    2    0    0  0.25270647430E+02  0.53208426573E+02 -0.32407234312E+03  0.35301788320E+03  0.12700000000E+03 0.  0.
<mgrwt>
<rscale>  0 0.28395521E+03</rscale>
<asrwt>0</asrwt>
<pdfrwt beam="1">  1        2 0.11605112E+00 0.28395521E+03</pdfrwt>
<pdfrwt beam="2">  1       -2 0.35448209E-02 0.28395521E+03</pdfrwt>
<totfact> 0.12579238E+04</totfact>
</mgrwt>
</event>
<event>
 4    1  0.1383574E-004  0.8825748E+03  0.7818608E-02  0.9447630E-01
         -2   -1    0    0    0  501 -0.00000000000E+00  0.00000000000E+00  0.60888161114E+02  0.60888161168E+02  0.25500000000E-02 0. -1.
          2   -1    0    0  501    0  0.00000000000E+00 -0.00000000000E+00 -0.31982337763E+04  0.31982337763E+04  0.25500000000E-02 0.  1.
    5000001    1    1    2    0    0 -0.95568795190E+02  0.38504653341E+03 -0.10308574538E+04  0.11118409588E+04  0.12700000000E+03 0.  0.
   -5000001    1    1    2    0    0  0.95568795190E+02 -0.38504653341E+03 -0.21064881613E+04  0.21472809787E+04  0.12700000000E+03 0.  0.
<mgrwt>
<rscale>  0 0.88257481E+03</rscale>
<asrwt>0</asrwt>
<pdfrwt beam="1">  1        2 0.45689043E+00 0.88257481E+03</pdfrwt>
<pdfrwt beam="2">  1       -2 0.86983108E-02 0.88257481E+03</pdfrwt>
<totfact> 0.16258777E+02</totfact>
</mgrwt>
</event>
<event>
 4    1  0.1383574E-004  0.1021726E+04  0.7818608E-02  0.9285032E-01
          2   -1    0    0  501    0  0.00000000000E+00  0.00000000000E+00  0.19560945636E+04  0.19560945636E+04  0.25500000000E-02 0.  1.
         -2   -1    0    0    0  501 -0.00000000000E+00 -0.00000000000E+00 -0.13341936671E+03  0.13341936674E+03  0.25500000000E-02 0. -1.
    5000001    1    1    2    0    0  0.46892339196E+03 -0.44502618152E+02  0.12213701904E+04  0.13151972371E+04  0.12700000000E+03 0.  0.
   -5000001    1    1    2    0    0 -0.46892339196E+03  0.44502618152E+02  0.60130500647E+03  0.77431669319E+03  0.12700000000E+03 0.  0.
<mgrwt>
<rscale>  0 0.10217258E+04</rscale>
<asrwt>0</asrwt>
<pdfrwt beam="1">  1        2 0.27944205E+00 0.10217258E+04</pdfrwt>
<pdfrwt beam="2">  1       -2 0.19059912E-01 0.10217258E+04</pdfrwt>
<totfact> 0.19623352E+02</totfact>
</mgrwt>
</event>
<event>
 4    1  0.1383574E-004  0.5845864E+03  0.7818608E-02  0.9937911E-01
         -2   -1    0    0    0  501 -0.00000000000E+00  0.00000000000E+00  0.21952619763E+03  0.21952619765E+03  0.25500000000E-02 0. -1.
          2   -1    0    0  501    0  0.00000000000E+00 -0.00000000000E+00 -0.38918047159E+03  0.38918047160E+03  0.25500000000E-02 0.  1.
    5000001    1    1    2    0    0 -0.74678271693E+02 -0.19743841175E+03 -0.24863146427E+03  0.35000767952E+03  0.12700000000E+03 0.  0.
   -5000001    1    1    2    0    0  0.74678271693E+02  0.19743841175E+03  0.78977190313E+02  0.25869898973E+03  0.12700000000E+03 0.  0.
<mgrwt>
<rscale>  0 0.58458638E+03</rscale>
<asrwt>0</asrwt>
<pdfrwt beam="1">  1        2 0.55597210E-01 0.58458638E+03</pdfrwt>
<pdfrwt beam="2">  1       -2 0.31360886E-01 0.58458638E+03</pdfrwt>
<totfact> 0.84427235E+02</totfact>
</mgrwt>
</event>
<event>
 4    1  0.1383574E-004  0.3285991E+03  0.7818608E-02  0.1071758E+00
         -2   -1    0    0    0  501 -0.00000000000E+00  0.00000000000E+00  0.52702139274E+03  0.52702139275E+03  0.25500000000E-02 0. -1.
          2   -1    0    0  501    0  0.00000000000E+00 -0.00000000000E+00 -0.51220578307E+02  0.51220578371E+02  0.25500000000E-02 0.  1.
    5000001    1    1    2    0    0 -0.81625638278E+02  0.11129907419E+02  0.12551621011E+03  0.19664673571E+03  0.12700000000E+03 0.  0.
   -5000001    1    1    2    0    0  0.81625638278E+02 -0.11129907419E+02  0.35028460432E+03  0.38159523541E+03  0.12700000000E+03 0.  0.
<mgrwt>
<rscale>  0 0.32859909E+03</rscale>
<asrwt>0</asrwt>
<pdfrwt beam="1">  1        2 0.73172256E-02 0.32859909E+03</pdfrwt>
<pdfrwt beam="2">  1       -2 0.75288769E-01 0.32859909E+03</pdfrwt>
<totfact> 0.15602782E+03</totfact>
</mgrwt>
</event>
<event>
 4    1  0.1383574E-004  0.4428076E+03  0.7818608E-02  0.1029889E+00
          2   -1    0    0  501    0  0.00000000000E+00  0.00000000000E+00  0.13748358176E+04  0.13748358176E+04  0.25500000000E-02 0.  1.
         -2   -1    0    0    0  501 -0.00000000000E+00 -0.00000000000E+00 -0.35654913272E+02  0.35654913363E+02  0.25500000000E-02 0. -1.
    5000001    1    1    2    0    0  0.17770078502E+03  0.10880288756E+01  0.55421714371E+03  0.59570495649E+03  0.12700000000E+03 0.  0.
   -5000001    1    1    2    0    0 -0.17770078502E+03 -0.10880288756E+01  0.78496376063E+03  0.81478577448E+03  0.12700000000E+03 0.  0.
<mgrwt>
<rscale>  0 0.44280764E+03</rscale>
<asrwt>0</asrwt>
<pdfrwt beam="1">  1        2 0.19640513E+00 0.44280764E+03</pdfrwt>
<pdfrwt beam="2">  1       -2 0.50935587E-02 0.44280764E+03</pdfrwt>
<totfact> 0.34507853E+03</totfact>
</mgrwt>
</event>
<event>
 4    1  0.1383574E-004  0.4027186E+03  0.7818608E-02  0.1042842E+00
          2   -1    0    0  501    0  0.00000000000E+00  0.00000000000E+00  0.11064466860E+03  0.11064466863E+03  0.25500000000E-02 0.  1.
         -2   -1    0    0    0  501 -0.00000000000E+00 -0.00000000000E+00 -0.36644850189E+03  0.36644850190E+03  0.25500000000E-02 0. -1.
    5000001    1    1    2    0    0 -0.62579581338E+02  0.13747544783E+03 -0.17530204929E+03  0.26396119268E+03  0.12700000000E+03 0.  0.
   -5000001    1    1    2    0    0  0.62579581338E+02 -0.13747544783E+03 -0.80501783997E+02  0.21313197785E+03  0.12700000000E+03 0.  0.
<mgrwt>
<rscale>  0 0.40271863E+03</rscale>
<asrwt>0</asrwt>
<pdfrwt beam="1">  1        2 0.15806381E-01 0.40271863E+03</pdfrwt>
<pdfrwt beam="2">  1       -2 0.52349785E-01 0.40271863E+03</pdfrwt>
<totfact> 0.12918485E+03</totfact>
</mgrwt>
</event>
<event>
 4    1  0.1383574E-004  0.1422585E+04  0.7818608E-02  0.8937631E-01
         -2   -1    0    0    0  501 -0.00000000000E+00  0.00000000000E+00  0.36640952543E+03  0.36640952544E+03  0.25500000000E-02 0. -1.
          2   -1    0    0  501    0  0.00000000000E+00 -0.00000000000E+00 -0.13807960038E+04  0.13807960038E+04  0.25500000000E-02 0.  1.
    5000001    1    1    2    0    0 -0.51838491613E+03  0.22828133875E+03 -0.10120566520E+04  0.11667146000E+04  0.12700000000E+03 0.  0.
   -5000001    1    1    2    0    0  0.51838491613E+03 -0.22828133875E+03 -0.23298263589E+01  0.58049092928E+03  0.12700000000E+03 0.  0.
<mgrwt>
<rscale>  0 0.14225847E+04</rscale>
<asrwt>0</asrwt>
<pdfrwt beam="1">  1        2 0.19725657E+00 0.14225847E+04</pdfrwt>
<pdfrwt beam="2">  1       -2 0.52344219E-01 0.14225847E+04</pdfrwt>
<totfact> 0.56784234E+01</totfact>
</mgrwt>
</event>
<event>
 4    1  0.1383574E-004  0.3429350E+03  0.7818608E-02  0.1065553E+00
          2   -1    0    0  501    0  0.00000000000E+00  0.00000000000E+00  0.77944917522E+03  0.77944917523E+03  0.25500000000E-02 0.  1.
         -2   -1    0    0    0  501 -0.00000000000E+00 -0.00000000000E+00 -0.37720362377E+02  0.37720362463E+02  0.25500000000E-02 0. -1.
    5000001    1    1    2    0    0  0.16854126728E+02 -0.11159800770E+03  0.31580368676E+03  0.35860723010E+03  0.12700000000E+03 0.  0.
   -5000001    1    1    2    0    0 -0.16854126728E+02  0.11159800770E+03  0.42592512608E+03  0.45856230759E+03  0.12700000000E+03 0.  0.
<mgrwt>
<rscale>  0 0.34293501E+03</rscale>
<asrwt>0</asrwt>
<pdfrwt beam="1">  1        2 0.11134988E+00 0.34293501E+03</pdfrwt>
<pdfrwt beam="2">  1       -2 0.53886232E-02 0.34293501E+03</pdfrwt>
<totfact> 0.70609330E+03</totfact>
</mgrwt>
</event>
<event>
 4    1  0.1383574E-004  0.3732672E+03  0.7818608E-02  0.1053451E+00
         -2   -1    0    0    0  501 -0.00000000000E+00  0.00000000000E+00  0.15158310168E+03  0.15158310170E+03  0.25500000000E-02 0. -1.
          2   -1    0    0  501    0  0.00000000000E+00 -0.00000000000E+00 -0.22978880278E+03  0.22978880280E+03  0.25500000000E-02 0.  1.
    5000001    1    1    2    0    0  0.11592635102E+03  0.17690302331E+02  0.32789981417E+02  0.17594331058E+03  0.12700000000E+03 0.  0.
   -5000001    1    1    2    0    0 -0.11592635102E+03 -0.17690302331E+02 -0.11099568252E+03  0.20542859391E+03  0.12700000000E+03 0.  0.
<mgrwt>
<rscale>  0 0.37326719E+03</rscale>
<asrwt>0</asrwt>
<pdfrwt beam="1">  1        2 0.32826972E-01 0.37326719E+03</pdfrwt>
<pdfrwt beam="2">  1       -2 0.21654729E-01 0.37326719E+03</pdfrwt>
<totfact> 0.29235388E+03</totfact>
</mgrwt>
</event>
<event>
 4    1  0.1383574E-004  0.3603044E+03  0.7818608E-02  0.1058463E+00
          2   -1    0    0  501    0  0.00000000000E+00  0.00000000000E+00  0.11783148168E+04  0.11783148168E+04  0.25500000000E-02 0.  1.
         -2   -1    0    0    0  501 -0.00000000000E+00 -0.00000000000E+00 -0.27543412119E+02  0.27543412237E+02  0.25500000000E-02 0. -1.
    5000001    1    1    2    0    0 -0.71984521710E+02 -0.98225041033E+02  0.44594371131E+03  0.47940037933E+03  0.12700000000E+03 0.  0.
   -5000001    1    1    2    0    0  0.71984521710E+02  0.98225041033E+02  0.70482769337E+03  0.72645784970E+03  0.12700000000E+03 0.  0.
<mgrwt>
<rscale>  0 0.36030438E+03</rscale>
<asrwt>0</asrwt>
<pdfrwt beam="1">  1        2 0.16833072E+00 0.36030438E+03</pdfrwt>
<pdfrwt beam="2">  1       -2 0.39347725E-02 0.36030438E+03</pdfrwt>
<totfact> 0.65231446E+03</totfact>
</mgrwt>
</event>
<event>
 4    1  0.1383574E-004  0.5561349E+03  0.7818608E-02  0.1000084E+00
          2   -1    0    0  501    0  0.00000000000E+00  0.00000000000E+00  0.23990945013E+03  0.23990945014E+03  0.25500000000E-02 0.  1.
         -2   -1    0    0    0  501 -0.00000000000E+00 -0.00000000000E+00 -0.32229456668E+03  0.32229456669E+03  0.25500000000E-02 0. -1.
    5000001    1    1    2    0    0 -0.15766839278E+03 -0.74701879755E+02 -0.21847113135E+03  0.30708032851E+03  0.12700000000E+03 0.  0.
   -5000001    1    1    2    0    0  0.15766839278E+03  0.74701879755E+02  0.13608601480E+03  0.25512368833E+03  0.12700000000E+03 0.  0.
<mgrwt>
<rscale>  0 0.55613492E+03</rscale>
<asrwt>0</asrwt>
<pdfrwt beam="1">  1        2 0.34272779E-01 0.55613492E+03</pdfrwt>
<pdfrwt beam="2">  1       -2 0.46042081E-01 0.55613492E+03</pdfrwt>
<totfact> 0.68892737E+02</totfact>
</mgrwt>
</event>
<event>
 4    1  0.1383574E-004  0.5399199E+03  0.7818608E-02  0.1003854E+00
          2   -1    0    0  501    0  0.00000000000E+00  0.00000000000E+00  0.67846324770E+03  0.67846324770E+03  0.25500000000E-02 0.  1.
         -2   -1    0    0    0  501 -0.00000000000E+00 -0.00000000000E+00 -0.10741683789E+03  0.10741683792E+03  0.25500000000E-02 0. -1.
    5000001    1    1    2    0    0 -0.71154372203E+02  0.19806778675E+03  0.44796919224E+03  0.51097865907E+03  0.12700000000E+03 0.  0.
   -5000001    1    1    2    0    0  0.71154372203E+02 -0.19806778675E+03  0.12307721757E+03  0.27490142655E+03  0.12700000000E+03 0.  0.
<mgrwt>
<rscale>  0 0.53991991E+03</rscale>
<asrwt>0</asrwt>
<pdfrwt beam="1">  1        2 0.96923323E-01 0.53991991E+03</pdfrwt>
<pdfrwt beam="2">  1       -2 0.15345262E-01 0.53991991E+03</pdfrwt>
<totfact> 0.15758057E+03</totfact>
</mgrwt>
</event>
<event>
 4    1  0.1383574E-004  0.4055706E+03  0.7818608E-02  0.1041868E+00
         -2   -1    0    0    0  501 -0.00000000000E+00  0.00000000000E+00  0.32662766777E+02  0.32662766877E+02  0.25500000000E-02 0. -1.
          2   -1    0    0  501    0  0.00000000000E+00 -0.00000000000E+00 -0.12589831771E+04  0.12589831771E+04  0.25500000000E-02 0.  1.
    5000001    1    1    2    0    0  0.10442277786E+03  0.72417060672E+02 -0.31364812750E+03  0.36145884288E+03  0.12700000000E+03 0.  0.
   -5000001    1    1    2    0    0 -0.10442277786E+03 -0.72417060672E+02 -0.91267228279E+03  0.93018710106E+03  0.12700000000E+03 0.  0.
<mgrwt>
<rscale>  0 0.40557058E+03</rscale>
<asrwt>0</asrwt>
<pdfrwt beam="1">  1        2 0.17985471E+00 0.40557058E+03</pdfrwt>
<pdfrwt beam="2">  1       -2 0.46661103E-02 0.40557058E+03</pdfrwt>
<totfact> 0.45517016E+03</totfact>
</mgrwt>
</event>
<event>
 4    1  0.1383574E-004  0.4370620E+03  0.7818608E-02  0.1031652E+00
         -2   -1    0    0    0  501 -0.00000000000E+00  0.00000000000E+00  0.15842371336E+02  0.15842371541E+02  0.25500000000E-02 0. -1.
          2   -1    0    0  501    0  0.00000000000E+00 -0.00000000000E+00 -0.30144355757E+04  0.30144355757E+04  0.25500000000E-02 0.  1.
    5000001    1    1    2    0    0  0.15943876229E+03 -0.57766244262E+02 -0.18706744633E+04  0.18826336886E+04  0.12700000000E+03 0.  0.
   -5000001    1    1    2    0    0 -0.15943876229E+03  0.57766244262E+02 -0.11279187410E+04  0.11476442586E+04  0.12700000000E+03 0.  0.
<mgrwt>
<rscale>  0 0.43706205E+03</rscale>
<asrwt>0</asrwt>
<pdfrwt beam="1">  1        2 0.43063329E+00 0.43706205E+03</pdfrwt>
<pdfrwt beam="2">  1       -2 0.22631978E-02 0.43706205E+03</pdfrwt>
<totfact> 0.17257880E+03</totfact>
</mgrwt>
</event>
<event>
 4    1  0.1383574E-004  0.4222187E+03  0.7818608E-02  0.1036347E+00
         -2   -1    0    0    0  501 -0.00000000000E+00  0.00000000000E+00  0.32987209386E+02  0.32987209484E+02  0.25500000000E-02 0. -1.
          2   -1    0    0  501    0  0.00000000000E+00 -0.00000000000E+00 -0.13510436083E+04  0.13510436083E+04  0.25500000000E-02 0.  1.
    5000001    1    1    2    0    0  0.54910463005E+02 -0.11688855630E+03 -0.10145065465E+04  0.10305487017E+04  0.12700000000E+03 0.  0.
   -5000001    1    1    2    0    0 -0.54910463005E+02  0.11688855630E+03 -0.30354985242E+03  0.35348211616E+03  0.12700000000E+03 0.  0.
<mgrwt>
<rscale>  0 0.42221870E+03</rscale>
<asrwt>0</asrwt>
<pdfrwt beam="1">  1        2 0.19300619E+00 0.42221870E+03</pdfrwt>
<pdfrwt beam="2">  1       -2 0.47124594E-02 0.42221870E+03</pdfrwt>
<totfact> 0.40030722E+03</totfact>
</mgrwt>
</event>
<event>
 4    1  0.1383574E-004  0.3757334E+03  0.7818608E-02  0.1052522E+00
         -2   -1    0    0    0  501 -0.00000000000E+00  0.00000000000E+00  0.19808245551E+02  0.19808245715E+02  0.25500000000E-02 0. -1.
          2   -1    0    0  501    0  0.00000000000E+00 -0.00000000000E+00 -0.17817781047E+04  0.17817781048E+04  0.25500000000E-02 0.  1.
    5000001    1    1    2    0    0 -0.65833812677E+02 -0.78565778586E+02 -0.43482585741E+03  0.46444504382E+03  0.12700000000E+03 0.  0.
   -5000001    1    1    2    0    0  0.65833812677E+02  0.78565778586E+02 -0.13271440018E+04  0.13371413067E+04  0.12700000000E+03 0.  0.
<mgrwt>
<rscale>  0 0.37573341E+03</rscale>
<asrwt>0</asrwt>
<pdfrwt beam="1">  1        2 0.25453963E+00 0.37573341E+03</pdfrwt>
<pdfrwt beam="2">  1       -2 0.28297505E-02 0.37573341E+03</pdfrwt>
<totfact> 0.52287836E+03</totfact>
</mgrwt>
</event>
<event>
 4    1  0.1383574E-004  0.6787762E+03  0.7818608E-02  0.9754232E-01
          2   -1    0    0  501    0  0.00000000000E+00  0.00000000000E+00  0.53748188905E+03  0.53748188906E+03  0.25500000000E-02 0.  1.
         -2   -1    0    0    0  501 -0.00000000000E+00 -0.00000000000E+00 -0.21430358748E+03  0.21430358749E+03  0.25500000000E-02 0. -1.
    5000001    1    1    2    0    0 -0.21638086480E+03 -0.20329224804E+03  0.45919993743E+02  0.32616876397E+03  0.12700000000E+03 0.  0.
   -5000001    1    1    2    0    0  0.21638086480E+03  0.20329224804E+03  0.27725830783E+03  0.42561671258E+03  0.12700000000E+03 0.  0.
<mgrwt>
<rscale>  0 0.67877624E+03</rscale>
<asrwt>0</asrwt>
<pdfrwt beam="1">  1        2 0.76783126E-01 0.67877624E+03</pdfrwt>
<pdfrwt beam="2">  1       -2 0.30614799E-01 0.67877624E+03</pdfrwt>
<totfact> 0.61233985E+02</totfact>
</mgrwt>
</event>
<event>
 4    1  0.1383574E-004  0.3009414E+03  0.7818608E-02  0.1084771E+00
          2   -1    0    0  501    0  0.00000000000E+00  0.00000000000E+00  0.18750635704E+04  0.18750635704E+04  0.25500000000E-02 0.  1.
         -2   -1    0    0    0  501 -0.00000000000E+00 -0.00000000000E+00 -0.12075021127E+02  0.12075021396E+02  0.25500000000E-02 0. -1.
    5000001    1    1    2    0    0 -0.40931698938E+02 -0.51646896807E+02  0.12235826976E+04  0.12319198123E+04  0.12700000000E+03 0.  0.
   -5000001    1    1    2    0    0  0.40931698938E+02  0.51646896807E+02  0.63940585164E+03  0.65521877952E+03  0.12700000000E+03 0.  0.
<mgrwt>
<rscale>  0 0.30094141E+03</rscale>
<asrwt>0</asrwt>
<pdfrwt beam="1">  1        2 0.26786618E+00 0.30094141E+03</pdfrwt>
<pdfrwt beam="2">  1       -2 0.17250033E-02 0.30094141E+03</pdfrwt>
<totfact> 0.97869690E+03</totfact>
</mgrwt>
</event>
<event>
 4    1  0.1383574E-004  0.4427652E+03  0.7818608E-02  0.1029902E+00
         -2   -1    0    0    0  501 -0.00000000000E+00  0.00000000000E+00  0.13711887106E+03  0.13711887109E+03  0.25500000000E-02 0. -1.
          2   -1    0    0  501    0  0.00000000000E+00 -0.00000000000E+00 -0.35742901585E+03  0.35742901586E+03  0.25500000000E-02 0.  1.
    5000001    1    1    2    0    0 -0.39004736361E+02 -0.16297730782E+03 -0.18752605657E+03  0.28174100556E+03  0.12700000000E+03 0.  0.
   -5000001    1    1    2    0    0  0.39004736361E+02  0.16297730782E+03 -0.32784088214E+02  0.21280688138E+03  0.12700000000E+03 0.  0.
<mgrwt>
<rscale>  0 0.44276523E+03</rscale>
<asrwt>0</asrwt>
<pdfrwt beam="1">  1        2 0.51061288E-01 0.44276523E+03</pdfrwt>
<pdfrwt beam="2">  1       -2 0.19588410E-01 0.44276523E+03</pdfrwt>
<totfact> 0.21508256E+03</totfact>
</mgrwt>
</event>
<event>
 4    1  0.1383574E-004  0.4867517E+03  0.7818608E-02  0.1017296E+00
          2   -1    0    0  501    0  0.00000000000E+00  0.00000000000E+00  0.24113049595E+04  0.24113049595E+04  0.25500000000E-02 0.  1.
         -2   -1    0    0    0  501 -0.00000000000E+00 -0.00000000000E+00 -0.24564214563E+02  0.24564214696E+02  0.25500000000E-02 0. -1.
    5000001    1    1    2    0    0 -0.18978989070E+03 -0.45519994139E+02  0.83913761246E+03  0.87084625802E+03  0.12700000000E+03 0.  0.
   -5000001    1    1    2    0    0  0.18978989070E+03  0.45519994139E+02  0.15476031325E+04  0.15650229162E+04  0.12700000000E+03 0.  0.
<mgrwt>
<rscale>  0 0.48675173E+03</rscale>
<asrwt>0</asrwt>
<pdfrwt beam="1">  1        2 0.34447218E+00 0.48675173E+03</pdfrwt>
<pdfrwt beam="2">  1       -2 0.35091731E-02 0.48675173E+03</pdfrwt>
<totfact> 0.18289992E+03</totfact>
</mgrwt>
</event>
<event>
 4    1  0.1383574E-004  0.2980510E+03  0.7818608E-02  0.1086219E+00
         -2   -1    0    0    0  501 -0.00000000000E+00  0.00000000000E+00  0.40751250506E+02  0.40751250586E+02  0.25500000000E-02 0. -1.
          2   -1    0    0  501    0  0.00000000000E+00 -0.00000000000E+00 -0.54497957073E+03  0.54497957074E+03  0.25500000000E-02 0.  1.
    5000001    1    1    2    0    0  0.74661296641E+02  0.18334422886E+02 -0.27767228946E+03  0.31486721108E+03  0.12700000000E+03 0.  0.
   -5000001    1    1    2    0    0 -0.74661296641E+02 -0.18334422886E+02 -0.22655603077E+03  0.27086361024E+03  0.12700000000E+03 0.  0.
<mgrwt>
<rscale>  0 0.29805100E+03</rscale>
<asrwt>0</asrwt>
<pdfrwt beam="1">  1        2 0.77854220E-01 0.29805100E+03</pdfrwt>
<pdfrwt beam="2">  1       -2 0.58216075E-02 0.29805100E+03</pdfrwt>
<totfact> 0.95061401E+03</totfact>
</mgrwt>
</event>
<event>
 4    1  0.1383574E-004  0.3673695E+03  0.7818608E-02  0.1055703E+00
         -2   -1    0    0    0  501 -0.00000000000E+00  0.00000000000E+00  0.17815493480E+02  0.17815493662E+02  0.25500000000E-02 0. -1.
          2   -1    0    0  501    0  0.00000000000E+00 -0.00000000000E+00 -0.18938624938E+04  0.18938624938E+04  0.25500000000E-02 0.  1.
    5000001    1    1    2    0    0  0.53300892012E+02 -0.20187841232E+02 -0.31439272799E+03  0.34383182144E+03  0.12700000000E+03 0.  0.
   -5000001    1    1    2    0    0 -0.53300892012E+02  0.20187841232E+02 -0.15616542723E+04  0.15678461660E+04  0.12700000000E+03 0.  0.
<mgrwt>
<rscale>  0 0.36736954E+03</rscale>
<asrwt>0</asrwt>
<pdfrwt beam="1">  1        2 0.27055166E+00 0.36736954E+03</pdfrwt>
<pdfrwt beam="2">  1       -2 0.25450717E-02 0.36736954E+03</pdfrwt>
<totfact> 0.53925890E+03</totfact>
</mgrwt>
</event>
<event>
 4    1  0.1383574E-004  0.6957074E+03  0.7818608E-02  0.9724601E-01
          2   -1    0    0  501    0  0.00000000000E+00  0.00000000000E+00  0.21987717022E+04  0.21987717022E+04  0.25500000000E-02 0.  1.
         -2   -1    0    0    0  501 -0.00000000000E+00 -0.00000000000E+00 -0.55031723816E+02  0.55031723875E+02  0.25500000000E-02 0. -1.
    5000001    1    1    2    0    0 -0.29853745430E+03  0.75216319195E+02  0.74643932802E+03  0.81736330766E+03  0.12700000000E+03 0.  0.
   -5000001    1    1    2    0    0  0.29853745430E+03 -0.75216319195E+02  0.13973006503E+04  0.14364401184E+04  0.12700000000E+03 0.  0.
<mgrwt>
<rscale>  0 0.69570740E+03</rscale>
<asrwt>0</asrwt>
<pdfrwt beam="1">  1        2 0.31411015E+00 0.69570740E+03</pdfrwt>
<pdfrwt beam="2">  1       -2 0.78616771E-02 0.69570740E+03</pdfrwt>
<totfact> 0.65899271E+02</totfact>
</mgrwt>
</event>
<event>
 4    1  0.1383574E-004  0.3212404E+03  0.7818608E-02  0.1075080E+00
         -2   -1    0    0    0  501 -0.00000000000E+00  0.00000000000E+00  0.10878196082E+02  0.10878196381E+02  0.25500000000E-02 0. -1.
          2   -1    0    0  501    0  0.00000000000E+00 -0.00000000000E+00 -0.23716113855E+04  0.23716113855E+04  0.25500000000E-02 0.  1.
    5000001    1    1    2    0    0  0.30619028772E+02  0.89752682941E+02 -0.13733083281E+04  0.13824246211E+04  0.12700000000E+03 0.  0.
   -5000001    1    1    2    0    0 -0.30619028772E+02 -0.89752682941E+02 -0.98742486135E+03  0.10000649608E+04  0.12700000000E+03 0.  0.
<mgrwt>
<rscale>  0 0.32124043E+03</rscale>
<asrwt>0</asrwt>
<pdfrwt beam="1">  1        2 0.33880130E+00 0.32124043E+03</pdfrwt>
<pdfrwt beam="2">  1       -2 0.15540296E-02 0.32124043E+03</pdfrwt>
<totfact> 0.65074703E+03</totfact>
</mgrwt>
</event>
<event>
 4    1  0.1383574E-004  0.6815019E+03  0.7818608E-02  0.9749400E-01
          2   -1    0    0  501    0  0.00000000000E+00  0.00000000000E+00  0.10262312099E+04  0.10262312099E+04  0.25500000000E-02 0.  1.
         -2   -1    0    0    0  501 -0.00000000000E+00 -0.00000000000E+00 -0.11314332873E+03  0.11314332876E+03  0.25500000000E-02 0. -1.
    5000001    1    1    2    0    0 -0.17605338189E+03 -0.10452122199E+03  0.53689478981E+02  0.24684213432E+03  0.12700000000E+03 0.  0.
   -5000001    1    1    2    0    0  0.17605338189E+03  0.10452122199E+03  0.85939840216E+03  0.89253240432E+03  0.12700000000E+03 0.  0.
<mgrwt>
<rscale>  0 0.68150192E+03</rscale>
<asrwt>0</asrwt>
<pdfrwt beam="1">  1        2 0.14660444E+00 0.68150192E+03</pdfrwt>
<pdfrwt beam="2">  1       -2 0.16163334E-01 0.68150192E+03</pdfrwt>
<totfact> 0.83889656E+02</totfact>
</mgrwt>
</event>
<event>
 4    1  0.1383574E-004  0.3550009E+03  0.7818608E-02  0.1060581E+00
         -2   -1    0    0    0  501 -0.00000000000E+00  0.00000000000E+00  0.37681149935E+02  0.37681150022E+02  0.25500000000E-02 0. -1.
          2   -1    0    0  501    0  0.00000000000E+00 -0.00000000000E+00 -0.83613176936E+03  0.83613176936E+03  0.25500000000E-02 0.  1.
    5000001    1    1    2    0    0  0.10546752514E+03 -0.53676726534E+02 -0.49042541042E+03  0.52024097591E+03  0.12700000000E+03 0.  0.
   -5000001    1    1    2    0    0 -0.10546752514E+03  0.53676726534E+02 -0.30802520900E+03  0.35357194347E+03  0.12700000000E+03 0.  0.
<mgrwt>
<rscale>  0 0.35500088E+03</rscale>
<asrwt>0</asrwt>
<pdfrwt beam="1">  1        2 0.11944738E+00 0.35500088E+03</pdfrwt>
<pdfrwt beam="2">  1       -2 0.53830220E-02 0.35500088E+03</pdfrwt>
<totfact> 0.64810555E+03</totfact>
</mgrwt>
</event>
<event>
 4    1  0.1383574E-004  0.4443888E+03  0.7818608E-02  0.1029409E+00
          2   -1    0    0  501    0  0.00000000000E+00  0.00000000000E+00  0.25907089487E+04  0.25907089487E+04  0.25500000000E-02 0.  1.
         -2   -1    0    0    0  501 -0.00000000000E+00 -0.00000000000E+00 -0.19056697054E+02  0.19056697225E+02  0.25500000000E-02 0. -1.
    5000001    1    1    2    0    0  0.54124145444E+02  0.16671590179E+03  0.15805015337E+04  0.15952547486E+04  0.12700000000E+03 0.  0.
   -5000001    1    1    2    0    0 -0.54124145444E+02 -0.16671590179E+03  0.99115071800E+03  0.10145108973E+04  0.12700000000E+03 0.  0.
<mgrwt>
<rscale>  0 0.44438882E+03</rscale>
<asrwt>0</asrwt>
<pdfrwt beam="1">  1        2 0.37010111E+00 0.44438882E+03</pdfrwt>
<pdfrwt beam="2">  1       -2 0.27223865E-02 0.44438882E+03</pdfrwt>
<totfact> 0.21818170E+03</totfact>
</mgrwt>
</event>
<event>
 4    1  0.1383574E-004  0.6137015E+03  0.7818608E-02  0.9877381E-01
          2   -1    0    0  501    0  0.00000000000E+00  0.00000000000E+00  0.39508717950E+03  0.39508717950E+03  0.25500000000E-02 0.  1.
         -2   -1    0    0    0  501 -0.00000000000E+00 -0.00000000000E+00 -0.23832052626E+03  0.23832052627E+03  0.25500000000E-02 0. -1.
    5000001    1    1    2    0    0  0.60715137840E+02  0.27093824496E+03  0.46831726984E+02  0.30889491935E+03  0.12700000000E+03 0.  0.
   -5000001    1    1    2    0    0 -0.60715137840E+02 -0.27093824496E+03  0.10993492625E+03  0.32451278643E+03  0.12700000000E+03 0.  0.
<mgrwt>
<rscale>  0 0.61370151E+03</rscale>
<asrwt>0</asrwt>
<pdfrwt beam="1">  1        2 0.56441025E-01 0.61370151E+03</pdfrwt>
<pdfrwt beam="2">  1       -2 0.34045790E-01 0.61370151E+03</pdfrwt>
<totfact> 0.71157247E+02</totfact>
</mgrwt>
</event>
<event>
 4    1  0.1383574E-004  0.3575840E+03  0.7818608E-02  0.1059545E+00
         -2   -1    0    0    0  501 -0.00000000000E+00  0.00000000000E+00  0.25243671705E+02  0.25243671834E+02  0.25500000000E-02 0.  1.
          2   -1    0    0  501    0  0.00000000000E+00 -0.00000000000E+00 -0.12663207854E+04  0.12663207854E+04  0.25500000000E-02 0. -1.
    5000001    1    1    2    0    0 -0.51896384689E+02 -0.23628496899E+01 -0.10345528065E+04  0.10436126327E+04  0.12700000000E+03 0.  0.
   -5000001    1    1    2    0    0  0.51896384689E+02  0.23628496899E+01 -0.20652430720E+03  0.24795182448E+03  0.12700000000E+03 0.  0.
<mgrwt>
<rscale>  0 0.35758404E+03</rscale>
<asrwt>0</asrwt>
<pdfrwt beam="1">  1        2 0.18090293E+00 0.35758404E+03</pdfrwt>
<pdfrwt beam="2">  1       -2 0.36062396E-02 0.35758404E+03</pdfrwt>
<totfact> 0.66632550E+03</totfact>
</mgrwt>
</event>
<event>
 4    1  0.1383574E-004  0.3176641E+03  0.7818608E-02  0.1076729E+00
          2   -1    0    0  501    0  0.00000000000E+00  0.00000000000E+00  0.29721394691E+02  0.29721394801E+02  0.25500000000E-02 0.  1.
         -2   -1    0    0    0  501 -0.00000000000E+00 -0.00000000000E+00 -0.84880322975E+03  0.84880322976E+03  0.25500000000E-02 0. -1.
    5000001    1    1    2    0    0  0.74087653432E+01 -0.81216730814E+02 -0.54636208222E+03  0.56682587455E+03  0.12700000000E+03 0.  0.
   -5000001    1    1    2    0    0 -0.74087653432E+01  0.81216730814E+02 -0.27271975284E+03  0.31169875001E+03  0.12700000000E+03 0.  0.
<mgrwt>
<rscale>  0 0.31766407E+03</rscale>
<asrwt>0</asrwt>
<pdfrwt beam="1">  1        2 0.42459141E-02 0.31766407E+03</pdfrwt>
<pdfrwt beam="2">  1       -2 0.12125759E+00 0.31766407E+03</pdfrwt>
<totfact> 0.10638970E+03</totfact>
</mgrwt>
</event>
<event>
 4    1  0.1383574E-004  0.5244253E+03  0.7818608E-02  0.1007593E+00
         -2   -1    0    0    0  501 -0.00000000000E+00  0.00000000000E+00  0.28947630019E+02  0.28947630131E+02  0.25500000000E-02 0. -1.
          2   -1    0    0  501    0  0.00000000000E+00 -0.00000000000E+00 -0.23751680659E+04  0.23751680659E+04  0.25500000000E-02 0.  1.
    5000001    1    1    2    0    0 -0.34769813571E+02 -0.17846596147E+03 -0.53184339172E+03  0.57623383505E+03  0.12700000000E+03 0.  0.
   -5000001    1    1    2    0    0  0.34769813571E+02  0.17846596147E+03 -0.18143770442E+04  0.18278818610E+04  0.12700000000E+03 0.  0.
<mgrwt>
<rscale>  0 0.52442535E+03</rscale>
<asrwt>0</asrwt>
<pdfrwt beam="1">  1        2 0.33930960E+00 0.52442535E+03</pdfrwt>
<pdfrwt beam="2">  1       -2 0.41353772E-02 0.52442535E+03</pdfrwt>
<totfact> 0.14811975E+03</totfact>
</mgrwt>
</event>
<event>
 4    1  0.1383574E-004  0.4136872E+03  0.7818608E-02  0.1039141E+00
          2   -1    0    0  501    0  0.00000000000E+00  0.00000000000E+00  0.19945847928E+04  0.19945847928E+04  0.25500000000E-02 0.  1.
         -2   -1    0    0    0  501 -0.00000000000E+00 -0.00000000000E+00 -0.21450212308E+02  0.21450212459E+02  0.25500000000E-02 0. -1.
    5000001    1    1    2    0    0  0.15159950248E+03 -0.51631547016E+02  0.83191735788E+03  0.85665845944E+03  0.12700000000E+03 0.  0.
   -5000001    1    1    2    0    0 -0.15159950248E+03  0.51631547016E+02  0.11412172227E+04  0.11593765459E+04  0.12700000000E+03 0.  0.
<mgrwt>
<rscale>  0 0.41368716E+03</rscale>
<asrwt>0</asrwt>
<pdfrwt beam="1">  1        2 0.28494064E+00 0.41368716E+03</pdfrwt>
<pdfrwt beam="2">  1       -2 0.30643165E-02 0.41368716E+03</pdfrwt>
<totfact> 0.36374906E+03</totfact>
</mgrwt>
</event>
<event>
 4    1  0.1383574E-004  0.4265753E+03  0.7818608E-02  0.1034947E+00
         -2   -1    0    0    0  501 -0.00000000000E+00  0.00000000000E+00  0.40830955826E+02  0.40830955906E+02  0.25500000000E-02 0. -1.
          2   -1    0    0  501    0  0.00000000000E+00 -0.00000000000E+00 -0.11141452093E+04  0.11141452093E+04  0.25500000000E-02 0.  1.
    5000001    1    1    2    0    0 -0.35757780220E+02 -0.10509583654E+03 -0.89008241719E+03  0.90592464538E+03  0.12700000000E+03 0.  0.
   -5000001    1    1    2    0    0  0.35757780220E+02  0.10509583654E+03 -0.18323183629E+03  0.24905151984E+03  0.12700000000E+03 0.  0.
<mgrwt>
<rscale>  0 0.42657526E+03</rscale>
<asrwt>0</asrwt>
<pdfrwt beam="1">  1        2 0.15916358E+00 0.42657526E+03</pdfrwt>
<pdfrwt beam="2">  1       -2 0.58329944E-02 0.42657526E+03</pdfrwt>
<totfact> 0.38853149E+03</totfact>
</mgrwt>
</event>
<event>
 4    1  0.1383574E-004  0.4262171E+03  0.7818608E-02  0.1035062E+00
          2   -1    0    0  501    0  0.00000000000E+00  0.00000000000E+00  0.72224712721E+03  0.72224712721E+03  0.25500000000E-02 0.  1.
         -2   -1    0    0    0  501 -0.00000000000E+00 -0.00000000000E+00 -0.62880479157E+02  0.62880479209E+02  0.25500000000E-02 0. -1.
    5000001    1    1    2    0    0 -0.53066908383E+02 -0.34455275803E+02  0.36780490530E+02  0.14657785399E+03  0.12700000000E+03 0.  0.
   -5000001    1    1    2    0    0  0.53066908383E+02  0.34455275803E+02  0.62258615752E+03  0.63854975243E+03  0.12700000000E+03 0.  0.
<mgrwt>
<rscale>  0 0.42621706E+03</rscale>
<asrwt>0</asrwt>
<pdfrwt beam="1">  1        2 0.10317816E+00 0.42621706E+03</pdfrwt>
<pdfrwt beam="2">  1       -2 0.89829261E-02 0.42621706E+03</pdfrwt>
<totfact> 0.35033965E+03</totfact>
</mgrwt>
</event>
<event>
 4    1  0.1383574E-004  0.6447480E+03  0.7818608E-02  0.9816684E-01
          2   -1    0    0  501    0  0.00000000000E+00  0.00000000000E+00  0.32670980845E+04  0.32670980845E+04  0.25500000000E-02 0.  1.
         -2   -1    0    0    0  501 -0.00000000000E+00 -0.00000000000E+00 -0.31809570451E+02  0.31809570553E+02  0.25500000000E-02 0. -1.
    5000001    1    1    2    0    0 -0.29177887075E+03  0.24562623483E+02  0.13855432615E+04  0.14218288790E+04  0.12700000000E+03 0.  0.
   -5000001    1    1    2    0    0  0.29177887075E+03 -0.24562623483E+02  0.18497452526E+04  0.18770787760E+04  0.12700000000E+03 0.  0.
<mgrwt>
<rscale>  0 0.64474797E+03</rscale>
<asrwt>0</asrwt>
<pdfrwt beam="1">  1        2 0.46672853E+00 0.64474797E+03</pdfrwt>
<pdfrwt beam="2">  1       -2 0.45442221E-02 0.64474797E+03</pdfrwt>
<totfact> 0.42439086E+02</totfact>
</mgrwt>
</event>
<event>
 4    1  0.1383574E-004  0.4827235E+03  0.7818608E-02  0.1018389E+00
         -2   -1    0    0    0  501 -0.00000000000E+00  0.00000000000E+00  0.33844666421E+02  0.33844666517E+02  0.25500000000E-02 0. -1.
          2   -1    0    0  501    0  0.00000000000E+00 -0.00000000000E+00 -0.17212608632E+04  0.17212608632E+04  0.25500000000E-02 0.  1.
    5000001    1    1    2    0    0  0.11658441243E+03 -0.14964407547E+03 -0.11286342333E+04  0.11514901247E+04  0.12700000000E+03 0.  0.
   -5000001    1    1    2    0    0 -0.11658441243E+03  0.14964407547E+03 -0.55878196341E+03  0.60361540502E+03  0.12700000000E+03 0.  0.
<mgrwt>
<rscale>  0 0.48272352E+03</rscale>
<asrwt>0</asrwt>
<pdfrwt beam="1">  1        2 0.24589435E+00 0.48272352E+03</pdfrwt>
<pdfrwt beam="2">  1       -2 0.48349534E-02 0.48272352E+03</pdfrwt>
<totfact> 0.24812497E+03</totfact>
</mgrwt>
</event>
<event>
 4    1  0.1383574E-004  0.2983215E+03  0.7818608E-02  0.1086083E+00
          2   -1    0    0  501    0  0.00000000000E+00  0.00000000000E+00  0.23646183454E+03  0.23646183455E+03  0.25500000000E-02 0.  1.
         -2   -1    0    0    0  501 -0.00000000000E+00 -0.00000000000E+00 -0.94091001711E+02  0.94091001746E+02  0.25500000000E-02 0. -1.
    5000001    1    1    2    0    0 -0.71212407031E+02  0.30854618130E+02  0.82082408365E+02  0.16996980949E+03  0.12700000000E+03 0.  0.
   -5000001    1    1    2    0    0  0.71212407031E+02 -0.30854618130E+02  0.60288424464E+02  0.16058302681E+03  0.12700000000E+03 0.  0.
<mgrwt>
<rscale>  0 0.29832151E+03</rscale>
<asrwt>0</asrwt>
<pdfrwt beam="1">  1        2 0.33780262E-01 0.29832151E+03</pdfrwt>
<pdfrwt beam="2">  1       -2 0.13441572E-01 0.29832151E+03</pdfrwt>
<totfact> 0.62921145E+03</totfact>
</mgrwt>
</event>
<event>
 4    1  0.1383574E-004  0.9951086E+03  0.7818608E-02  0.9313926E-01
          2   -1    0    0  501    0  0.00000000000E+00  0.00000000000E+00  0.99746511104E+03  0.99746511105E+03  0.25500000000E-02 0.  1.
         -2   -1    0    0    0  501 -0.00000000000E+00 -0.00000000000E+00 -0.24818942243E+03  0.24818942244E+03  0.25500000000E-02 0. -1.
    5000001    1    1    2    0    0 -0.13466367857E+03  0.45520978156E+03  0.47225271741E+03  0.68154374816E+03  0.12700000000E+03 0.  0.
   -5000001    1    1    2    0    0  0.13466367857E+03 -0.45520978156E+03  0.27702297120E+03  0.56411078533E+03  0.12700000000E+03 0.  0.
<mgrwt>
<rscale>  0 0.99510862E+03</rscale>
<asrwt>0</asrwt>
<pdfrwt beam="1">  1        2 0.14249502E+00 0.99510862E+03</pdfrwt>
<pdfrwt beam="2">  1       -2 0.35455631E-01 0.99510862E+03</pdfrwt>
<totfact> 0.20988872E+02</totfact>
</mgrwt>
</event>
<event>
 4    1  0.1383574E-004  0.3194178E+03  0.7818608E-02  0.1075918E+00
          2   -1    0    0  501    0  0.00000000000E+00  0.00000000000E+00  0.79729770424E+03  0.79729770424E+03  0.25500000000E-02 0.  1.
         -2   -1    0    0    0  501 -0.00000000000E+00 -0.00000000000E+00 -0.31991728425E+02  0.31991728527E+02  0.25500000000E-02 0. -1.
    5000001    1    1    2    0    0  0.89526717701E+02  0.25514799513E+01  0.47827085816E+03  0.50288523243E+03  0.12700000000E+03 0.  0.
   -5000001    1    1    2    0    0 -0.89526717701E+02 -0.25514799513E+01  0.28703511766E+03  0.32640420034E+03  0.12700000000E+03 0.  0.
<mgrwt>
<rscale>  0 0.31941779E+03</rscale>
<asrwt>0</asrwt>
<pdfrwt beam="1">  1        2 0.11389966E+00 0.31941779E+03</pdfrwt>
<pdfrwt beam="2">  1       -2 0.45702472E-02 0.31941779E+03</pdfrwt>
<totfact> 0.88109936E+03</totfact>
</mgrwt>
</event>
<event>
 4    1  0.1383574E-004  0.2650452E+03  0.7818608E-02  0.1104149E+00
          2   -1    0    0  501    0  0.00000000000E+00  0.00000000000E+00  0.31443544677E+03  0.31443544678E+03  0.25500000000E-02 0.  1.
         -2   -1    0    0    0  501 -0.00000000000E+00 -0.00000000000E+00 -0.55853260715E+02  0.55853260773E+02  0.25500000000E-02 0. -1.
    5000001    1    1    2    0    0 -0.28620071480E+02  0.83570350743E+01  0.16188513469E+03  0.20790561647E+03  0.12700000000E+03 0.  0.
   -5000001    1    1    2    0    0  0.28620071480E+02 -0.83570350743E+01  0.96697051369E+02  0.16238309108E+03  0.12700000000E+03 0.  0.
<mgrwt>
<rscale>  0 0.26504524E+03</rscale>
<asrwt>0</asrwt>
<pdfrwt beam="1">  1        2 0.44919352E-01 0.26504524E+03</pdfrwt>
<pdfrwt beam="2">  1       -2 0.79790369E-02 0.26504524E+03</pdfrwt>
<totfact> 0.10578487E+04</totfact>
</mgrwt>
</event>
<event>
 4    1  0.1383574E-004  0.3992003E+03  0.7818608E-02  0.1044057E+00
         -2   -1    0    0    0  501 -0.00000000000E+00  0.00000000000E+00  0.29102599102E+02  0.29102599213E+02  0.25500000000E-02 0. -1.
          2   -1    0    0  501    0  0.00000000000E+00 -0.00000000000E+00 -0.13689572803E+04  0.13689572803E+04  0.25500000000E-02 0.  1.
    5000001    1    1    2    0    0  0.14070648876E+03 -0.59102544712E+02 -0.59817268784E+03  0.63026263672E+03  0.12700000000E+03 0.  0.
   -5000001    1    1    2    0    0 -0.14070648876E+03  0.59102544712E+02 -0.74168199336E+03  0.76779724280E+03  0.12700000000E+03 0.  0.
<mgrwt>
<rscale>  0 0.39920028E+03</rscale>
<asrwt>0</asrwt>
<pdfrwt beam="1">  1        2 0.19556528E+00 0.39920028E+03</pdfrwt>
<pdfrwt beam="2">  1       -2 0.41575150E-02 0.39920028E+03</pdfrwt>
<totfact> 0.47422010E+03</totfact>
</mgrwt>
</event>
<event>
 4    1  0.1383574E-004  0.3005548E+03  0.7818608E-02  0.1084964E+00
          2   -1    0    0  501    0  0.00000000000E+00  0.00000000000E+00  0.35531495090E+02  0.35531495182E+02  0.25500000000E-02 0.  1.
         -2   -1    0    0    0  501 -0.00000000000E+00 -0.00000000000E+00 -0.63558526566E+03  0.63558526566E+03  0.25500000000E-02 0. -1.
    5000001    1    1    2    0    0 -0.57377174554E+02 -0.48075701605E+02 -0.36516107086E+03  0.39379565884E+03  0.12700000000E+03 0.  0.
   -5000001    1    1    2    0    0  0.57377174554E+02  0.48075701605E+02 -0.23489269970E+03  0.27732110201E+03  0.12700000000E+03 0.  0.
<mgrwt>
<rscale>  0 0.30055479E+03</rscale>
<asrwt>0</asrwt>
<pdfrwt beam="1">  1        2 0.50759283E-02 0.30055479E+03</pdfrwt>
<pdfrwt beam="2">  1       -2 0.90797888E-01 0.30055479E+03</pdfrwt>
<totfact> 0.16549041E+03</totfact>
</mgrwt>
</event>
<event>
 4    1  0.1383574E-004  0.5111830E+03  0.7818608E-02  0.1010901E+00
         -2   -1    0    0    0  501 -0.00000000000E+00  0.00000000000E+00  0.13263213587E+03  0.13263213589E+03  0.25500000000E-02 0.  1.
          2   -1    0    0  501    0  0.00000000000E+00 -0.00000000000E+00 -0.49254296924E+03  0.49254296925E+03  0.25500000000E-02 0. -1.
    5000001    1    1    2    0    0 -0.16965714365E+01  0.22058657518E+03 -0.20828859482E+03  0.32889885107E+03  0.12700000000E+03 0.  0.
   -5000001    1    1    2    0    0  0.16965714365E+01 -0.22058657518E+03 -0.15162223855E+03  0.29627625407E+03  0.12700000000E+03 0.  0.
<mgrwt>
<rscale>  0 0.51118304E+03</rscale>
<asrwt>0</asrwt>
<pdfrwt beam="1">  1        2 0.70363280E-01 0.51118304E+03</pdfrwt>
<pdfrwt beam="2">  1       -2 0.18947448E-01 0.51118304E+03</pdfrwt>
<totfact> 0.15977797E+03</totfact>
</mgrwt>
</event>
<event>
 4    1  0.1383574E-004  0.3644156E+03  0.7818608E-02  0.1056849E+00
         -2   -1    0    0    0  501 -0.00000000000E+00  0.00000000000E+00  0.41192174791E+03  0.41192174792E+03  0.25500000000E-02 0. -1.
          2   -1    0    0  501    0  0.00000000000E+00 -0.00000000000E+00 -0.80597081876E+02  0.80597081916E+02  0.25500000000E-02 0.  1.
    5000001    1    1    2    0    0 -0.45107396032E+02  0.10726869237E+03  0.24595554029E+03  0.30027383726E+03  0.12700000000E+03 0.  0.
   -5000001    1    1    2    0    0  0.45107396032E+02 -0.10726869237E+03  0.85369125739E+02  0.19224499257E+03  0.12700000000E+03 0.  0.
<mgrwt>
<rscale>  0 0.36441565E+03</rscale>
<asrwt>0</asrwt>
<pdfrwt beam="1">  1        2 0.11513869E-01 0.36441565E+03</pdfrwt>
<pdfrwt beam="2">  1       -2 0.58845965E-01 0.36441565E+03</pdfrwt>
<totfact> 0.14902620E+03</totfact>
</mgrwt>
</event>
<event>
 4    1  0.1383574E-004  0.2883655E+03  0.7818608E-02  0.1091206E+00
          2   -1    0    0  501    0  0.00000000000E+00  0.00000000000E+00  0.23150934950E+04  0.23150934950E+04  0.25500000000E-02 0.  1.
         -2   -1    0    0    0  501 -0.00000000000E+00 -0.00000000000E+00 -0.89796240305E+01  0.89796243926E+01  0.25500000000E-02 0. -1.
    5000001    1    1    2    0    0  0.26426332769E+02 -0.62734884003E+02  0.11122368029E+04  0.11215318642E+04  0.12700000000E+03 0.  0.
   -5000001    1    1    2    0    0 -0.26426332769E+02  0.62734884003E+02  0.11938770681E+04  0.12025412552E+04  0.12700000000E+03 0.  0.
<mgrwt>
<rscale>  0 0.28836553E+03</rscale>
<asrwt>0</asrwt>
<pdfrwt beam="1">  1        2 0.33072772E+00 0.28836553E+03</pdfrwt>
<pdfrwt beam="2">  1       -2 0.12828032E-02 0.28836553E+03</pdfrwt>
<totfact> 0.91896403E+03</totfact>
</mgrwt>
</event>
<event>
 4    1  0.1383574E-004  0.5195195E+03  0.7818608E-02  0.1008806E+00
         -2   -1    0    0    0  501 -0.00000000000E+00  0.00000000000E+00  0.12546638684E+03  0.12546638687E+03  0.25500000000E-02 0. -1.
          2   -1    0    0  501    0  0.00000000000E+00 -0.00000000000E+00 -0.53779454792E+03  0.53779454793E+03  0.25500000000E-02 0.  1.
    5000001    1    1    2    0    0  0.11368205404E+03  0.13330247307E+03 -0.22690349519E+02  0.21757070276E+03  0.12700000000E+03 0.  0.
   -5000001    1    1    2    0    0 -0.11368205404E+03 -0.13330247307E+03 -0.38963781156E+03  0.44569023204E+03  0.12700000000E+03 0.  0.
<mgrwt>
<rscale>  0 0.51951954E+03</rscale>
<asrwt>0</asrwt>
<pdfrwt beam="1">  1        2 0.76827791E-01 0.51951954E+03</pdfrwt>
<pdfrwt beam="2">  1       -2 0.17923770E-01 0.51951954E+03</pdfrwt>
<totfact> 0.15905086E+03</totfact>
</mgrwt>
</event>
<event>
 4    1  0.1383574E-004  0.2910390E+03  0.7818608E-02  0.1089808E+00
         -2   -1    0    0    0  501 -0.00000000000E+00  0.00000000000E+00  0.99417313730E+02  0.99417313763E+02  0.25500000000E-02 0.  1.
          2   -1    0    0  501    0  0.00000000000E+00 -0.00000000000E+00 -0.21300030339E+03  0.21300030340E+03  0.25500000000E-02 0. -1.
    5000001    1    1    2    0    0  0.67396023360E+02  0.15744763601E+02 -0.39589496423E+02  0.14995482577E+03  0.12700000000E+03 0.  0.
   -5000001    1    1    2    0    0 -0.67396023360E+02 -0.15744763601E+02 -0.73993493232E+02  0.16246279139E+03  0.12700000000E+03 0.  0.
<mgrwt>
<rscale>  0 0.29103895E+03</rscale>
<asrwt>0</asrwt>
<pdfrwt beam="1">  1        2 0.30428615E-01 0.29103895E+03</pdfrwt>
<pdfrwt beam="2">  1       -2 0.14202473E-01 0.29103895E+03</pdfrwt>
<totfact> 0.64395918E+03</totfact>
</mgrwt>
</event>
<event>
 4    1  0.1383574E-004  0.2857063E+03  0.7818608E-02  0.1092612E+00
          2   -1    0    0  501    0  0.00000000000E+00  0.00000000000E+00  0.49207710883E+02  0.49207710949E+02  0.25500000000E-02 0.  1.
         -2   -1    0    0    0  501 -0.00000000000E+00 -0.00000000000E+00 -0.41471201174E+03  0.41471201175E+03  0.25500000000E-02 0. -1.
    5000001    1    1    2    0    0 -0.51133421661E+02 -0.40630799887E+02 -0.18850222011E+03  0.23649011755E+03  0.12700000000E+03 0.  0.
   -5000001    1    1    2    0    0  0.51133421661E+02  0.40630799887E+02 -0.17700208074E+03  0.22742960515E+03  0.12700000000E+03 0.  0.
<mgrwt>
<rscale>  0 0.28570634E+03</rscale>
<asrwt>0</asrwt>
<pdfrwt beam="1">  1        2 0.70296732E-02 0.28570634E+03</pdfrwt>
<pdfrwt beam="2">  1       -2 0.59244571E-01 0.28570634E+03</pdfrwt>
<totfact> 0.27242753E+03</totfact>
</mgrwt>
</event>
<event>
 4    1  0.1383574E-004  0.3812137E+03  0.7818608E-02  0.1050486E+00
         -2   -1    0    0    0  501 -0.00000000000E+00  0.00000000000E+00  0.27874541677E+03  0.27874541678E+03  0.25500000000E-02 0. -1.
          2   -1    0    0  501    0  0.00000000000E+00 -0.00000000000E+00 -0.13033747127E+03  0.13033747129E+03  0.25500000000E-02 0.  1.
    5000001    1    1    2    0    0 -0.12395692280E+03 -0.64233698815E+02  0.45596355975E+02  0.19416311300E+03  0.12700000000E+03 0.  0.
   -5000001    1    1    2    0    0  0.12395692280E+03  0.64233698815E+02  0.10281158953E+03  0.21491977506E+03  0.12700000000E+03 0.  0.
<mgrwt>
<rscale>  0 0.38121371E+03</rscale>
<asrwt>0</asrwt>
<pdfrwt beam="1">  1        2 0.18619639E-01 0.38121371E+03</pdfrwt>
<pdfrwt beam="2">  1       -2 0.39820774E-01 0.38121371E+03</pdfrwt>
<totfact> 0.18263878E+03</totfact>
</mgrwt>
</event>
<event>
 4    1  0.1383574E-004  0.6442680E+03  0.7818608E-02  0.9817595E-01
          2   -1    0    0  501    0  0.00000000000E+00  0.00000000000E+00  0.18360423306E+03  0.18360423308E+03  0.25500000000E-02 0.  1.
         -2   -1    0    0    0  501 -0.00000000000E+00 -0.00000000000E+00 -0.56518469888E+03  0.56518469889E+03  0.25500000000E-02 0. -1.
    5000001    1    1    2    0    0 -0.92249658696E+02 -0.27919088108E+03 -0.23077770017E+03  0.39477195253E+03  0.12700000000E+03 0.  0.
   -5000001    1    1    2    0    0  0.92249658696E+02  0.27919088108E+03 -0.15080276565E+03  0.35401697944E+03  0.12700000000E+03 0.  0.
<mgrwt>
<rscale>  0 0.64426797E+03</rscale>
<asrwt>0</asrwt>
<pdfrwt beam="1">  1        2 0.26229176E-01 0.64426797E+03</pdfrwt>
<pdfrwt beam="2">  1       -2 0.80740671E-01 0.64426797E+03</pdfrwt>
<totfact> 0.28364106E+02</totfact>
</mgrwt>
</event>
<event>
 4    1  0.1383574E-004  0.3245534E+03  0.7818608E-02  0.1073573E+00
          2   -1    0    0  501    0  0.00000000000E+00  0.00000000000E+00  0.35851561539E+04  0.35851561539E+04  0.25500000000E-02 0.  1.
         -2   -1    0    0    0  501 -0.00000000000E+00 -0.00000000000E+00 -0.73452092199E+01  0.73452096625E+01  0.25500000000E-02 0. -1.
    5000001    1    1    2    0    0 -0.26568831585E+01  0.10072707100E+03  0.18685111714E+04  0.18755308581E+04  0.12700000000E+03 0.  0.
   -5000001    1    1    2    0    0  0.26568831585E+01 -0.10072707100E+03  0.17092997732E+04  0.17169705054E+04  0.12700000000E+03 0.  0.
<mgrwt>
<rscale>  0 0.32455337E+03</rscale>
<asrwt>0</asrwt>
<pdfrwt beam="1">  1        2 0.51216404E+00 0.32455337E+03</pdfrwt>
<pdfrwt beam="2">  1       -2 0.10493179E-02 0.32455337E+03</pdfrwt>
<totfact> 0.25872694E+03</totfact>
</mgrwt>
</event>
<event>
 4    1  0.1383574E-004  0.1479397E+04  0.7818608E-02  0.8898270E-01
          2   -1    0    0  501    0  0.00000000000E+00  0.00000000000E+00  0.16004307252E+04  0.16004307252E+04  0.25500000000E-02 0.  1.
         -2   -1    0    0    0  501 -0.00000000000E+00 -0.00000000000E+00 -0.34187920494E+03  0.34187920495E+03  0.25500000000E-02 0. -1.
    5000001    1    1    2    0    0  0.60646937197E+03  0.19068730719E+03  0.10968957686E+04  0.12741570058E+04  0.12700000000E+03 0.  0.
   -5000001    1    1    2    0    0 -0.60646937197E+03 -0.19068730719E+03  0.16165575165E+03  0.66815292434E+03  0.12700000000E+03 0.  0.
<mgrwt>
<rscale>  0 0.14793972E+04</rscale>
<asrwt>0</asrwt>
<pdfrwt beam="1">  1        2 0.22863296E+00 0.14793972E+04</pdfrwt>
<pdfrwt beam="2">  1       -2 0.48839886E-01 0.14793972E+04</pdfrwt>
<totfact> 0.49739854E+01</totfact>
</mgrwt>
</event>
<event>
 4    1  0.1383574E-004  0.3325389E+03  0.7818608E-02  0.1070019E+00
          2   -1    0    0  501    0  0.00000000000E+00  0.00000000000E+00  0.59943722053E+03  0.59943722054E+03  0.25500000000E-02 0.  1.
         -2   -1    0    0    0  501 -0.00000000000E+00 -0.00000000000E+00 -0.46119134112E+02  0.46119134182E+02  0.25500000000E-02 0. -1.
    5000001    1    1    2    0    0  0.49582713357E+02  0.93737319793E+02  0.24467799724E+03  0.29536664151E+03  0.12700000000E+03 0.  0.
   -5000001    1    1    2    0    0 -0.49582713357E+02 -0.93737319793E+02  0.30864008918E+03  0.35018971321E+03  0.12700000000E+03 0.  0.
<mgrwt>
<rscale>  0 0.33253887E+03</rscale>
<asrwt>0</asrwt>
<pdfrwt beam="1">  1        2 0.85633891E-01 0.33253887E+03</pdfrwt>
<pdfrwt beam="2">  1       -2 0.65884476E-02 0.33253887E+03</pdfrwt>
<totfact> 0.70734664E+03</totfact>
</mgrwt>
</event>
<event>
 4    1  0.1383574E-004  0.4539492E+03  0.7818608E-02  0.1026551E+00
          2   -1    0    0  501    0  0.00000000000E+00  0.00000000000E+00  0.26221693911E+04  0.26221693911E+04  0.25500000000E-02 0.  1.
         -2   -1    0    0    0  501 -0.00000000000E+00 -0.00000000000E+00 -0.19646886137E+02  0.19646886303E+02  0.25500000000E-02 0. -1.
    5000001    1    1    2    0    0  0.15594625900E+03 -0.50452071621E+02  0.76396671662E+03  0.79160519915E+03  0.12700000000E+03 0.  0.
   -5000001    1    1    2    0    0 -0.15594625900E+03  0.50452071621E+02  0.18385557883E+04  0.18502110782E+04  0.12700000000E+03 0.  0.
<mgrwt>
<rscale>  0 0.45394918E+03</rscale>
<asrwt>0</asrwt>
<pdfrwt beam="1">  1        2 0.37459540E+00 0.45394918E+03</pdfrwt>
<pdfrwt beam="2">  1       -2 0.28066997E-02 0.45394918E+03</pdfrwt>
<totfact> 0.20066067E+03</totfact>
</mgrwt>
</event>
<event>
 4    1  0.1383574E-004  0.3700565E+03  0.7818608E-02  0.1054671E+00
          2   -1    0    0  501    0  0.00000000000E+00  0.00000000000E+00  0.58544646010E+03  0.58544646011E+03  0.25500000000E-02 0.  1.
         -2   -1    0    0    0  501 -0.00000000000E+00 -0.00000000000E+00 -0.58477502846E+02  0.58477502902E+02  0.25500000000E-02 0. -1.
    5000001    1    1    2    0    0  0.91490902937E+02 -0.84256894559E+02  0.17413504611E+03  0.24884096103E+03  0.12700000000E+03 0.  0.
   -5000001    1    1    2    0    0 -0.91490902937E+02  0.84256894559E+02  0.35283391115E+03  0.39508300198E+03  0.12700000000E+03 0.  0.
<mgrwt>
<rscale>  0 0.37005647E+03</rscale>
<asrwt>0</asrwt>
<pdfrwt beam="1">  1        2 0.83635212E-01 0.37005647E+03</pdfrwt>
<pdfrwt beam="2">  1       -2 0.83539286E-02 0.37005647E+03</pdfrwt>
<totfact> 0.50264419E+03</totfact>
</mgrwt>
</event>
<event>
 4    1  0.1383574E-004  0.1485810E+04  0.7818608E-02  0.8893944E-01
          2   -1    0    0  501    0  0.00000000000E+00  0.00000000000E+00  0.36217242892E+03  0.36217242893E+03  0.25500000000E-02 0.  1.
         -2   -1    0    0    0  501 -0.00000000000E+00 -0.00000000000E+00 -0.15238811365E+04  0.15238811365E+04  0.25500000000E-02 0. -1.
    5000001    1    1    2    0    0 -0.68556536658E+03 -0.25380493216E+03 -0.62769966537E+03  0.97188100369E+03  0.12700000000E+03 0.  0.
   -5000001    1    1    2    0    0  0.68556536658E+03  0.25380493216E+03 -0.53400904217E+03  0.91417256169E+03  0.12700000000E+03 0.  0.
<mgrwt>
<rscale>  0 0.14858099E+04</rscale>
<asrwt>0</asrwt>
<pdfrwt beam="1">  1        2 0.51738919E-01 0.14858099E+04</pdfrwt>
<pdfrwt beam="2">  1       -2 0.21769730E+00 0.14858099E+04</pdfrwt>
<totfact> 0.95698687E+00</totfact>
</mgrwt>
</event>
<event>
 4    1  0.1383574E-004  0.3539863E+03  0.7818608E-02  0.1060991E+00
         -2   -1    0    0    0  501 -0.00000000000E+00  0.00000000000E+00  0.17622434370E+02  0.17622434555E+02  0.25500000000E-02 0. -1.
          2   -1    0    0  501    0  0.00000000000E+00 -0.00000000000E+00 -0.17776532182E+04  0.17776532182E+04  0.25500000000E-02 0.  1.
    5000001    1    1    2    0    0 -0.11089287628E+03 -0.40089106310E+02 -0.69763449502E+03  0.71883743301E+03  0.12700000000E+03 0.  0.
   -5000001    1    1    2    0    0  0.11089287628E+03  0.40089106310E+02 -0.10623962888E+04  0.10764382198E+04  0.12700000000E+03 0.  0.
<mgrwt>
<rscale>  0 0.35398631E+03</rscale>
<asrwt>0</asrwt>
<pdfrwt beam="1">  1        2 0.25395034E+00 0.35398631E+03</pdfrwt>
<pdfrwt beam="2">  1       -2 0.25174918E-02 0.35398631E+03</pdfrwt>
<totfact> 0.62557018E+03</totfact>
</mgrwt>
</event>
<event>
 4    1  0.1383574E-004  0.2623452E+03  0.7818608E-02  0.1105742E+00
          2   -1    0    0  501    0  0.00000000000E+00  0.00000000000E+00  0.21133447828E+04  0.21133447828E+04  0.25500000000E-02 0.  1.
         -2   -1    0    0    0  501 -0.00000000000E+00 -0.00000000000E+00 -0.81417146644E+01  0.81417150637E+01  0.25500000000E-02 0. -1.
    5000001    1    1    2    0    0 -0.16958517792E+02 -0.25452366903E+02  0.11489092078E+04  0.11563117149E+04  0.12700000000E+03 0.  0.
   -5000001    1    1    2    0    0  0.16958517792E+02  0.25452366903E+02  0.95629386032E+03  0.96517478292E+03  0.12700000000E+03 0.  0.
<mgrwt>
<rscale>  0 0.26234520E+03</rscale>
<asrwt>0</asrwt>
<pdfrwt beam="1">  1        2 0.30190673E+00 0.26234520E+03</pdfrwt>
<pdfrwt beam="2">  1       -2 0.11631008E-02 0.26234520E+03</pdfrwt>
<totfact> 0.13291179E+04</totfact>
</mgrwt>
</event>
<event>
 4    1  0.1383574E-004  0.3676005E+03  0.7818608E-02  0.1055614E+00
         -2   -1    0    0    0  501 -0.00000000000E+00  0.00000000000E+00  0.96680715887E+01  0.96680719250E+01  0.25500000000E-02 0. -1.
          2   -1    0    0  501    0  0.00000000000E+00 -0.00000000000E+00 -0.34942374082E+04  0.34942374082E+04  0.25500000000E-02 0.  1.
    5000001    1    1    2    0    0 -0.80638412394E+01  0.13143191770E+03 -0.19112330734E+04  0.19199688110E+04  0.12700000000E+03 0.  0.
   -5000001    1    1    2    0    0  0.80638412394E+01 -0.13143191770E+03 -0.15733362632E+04  0.15839366691E+04  0.12700000000E+03 0.  0.
<mgrwt>
<rscale>  0 0.36760053E+03</rscale>
<asrwt>0</asrwt>
<pdfrwt beam="1">  1        2 0.49917597E+00 0.36760053E+03</pdfrwt>
<pdfrwt beam="2">  1       -2 0.13811553E-02 0.36760053E+03</pdfrwt>
<totfact> 0.19466084E+03</totfact>
</mgrwt>
</event>
<event>
 4    1  0.1383574E-004  0.3531384E+03  0.7818608E-02  0.1061334E+00
          2   -1    0    0  501    0  0.00000000000E+00  0.00000000000E+00  0.55024529679E+03  0.55024529679E+03  0.25500000000E-02 0.  1.
         -2   -1    0    0    0  501 -0.00000000000E+00 -0.00000000000E+00 -0.56659622429E+02  0.56659622486E+02  0.25500000000E-02 0. -1.
    5000001    1    1    2    0    0  0.24213424670E+02 -0.10539004814E+03  0.14725708470E+03  0.22250168803E+03  0.12700000000E+03 0.  0.
   -5000001    1    1    2    0    0 -0.24213424670E+02  0.10539004814E+03  0.34632858966E+03  0.38440323125E+03  0.12700000000E+03 0.  0.
<mgrwt>
<rscale>  0 0.35313845E+03</rscale>
<asrwt>0</asrwt>
<pdfrwt beam="1">  1        2 0.78606467E-01 0.35313845E+03</pdfrwt>
<pdfrwt beam="2">  1       -2 0.80942322E-02 0.35313845E+03</pdfrwt>
<totfact> 0.56645107E+03</totfact>
</mgrwt>
</event>
<event>
 4    1  0.1383574E-004  0.3338759E+03  0.7818608E-02  0.1069435E+00
          2   -1    0    0  501    0  0.00000000000E+00  0.00000000000E+00  0.50139035703E+03  0.50139035704E+03  0.25500000000E-02 0.  1.
         -2   -1    0    0    0  501 -0.00000000000E+00 -0.00000000000E+00 -0.55581987541E+02  0.55581987599E+02  0.25500000000E-02 0. -1.
    5000001    1    1    2    0    0 -0.50668086418E+02 -0.82542134075E+02  0.30392478069E+03  0.34333617811E+03  0.12700000000E+03 0.  0.
   -5000001    1    1    2    0    0  0.50668086418E+02  0.82542134075E+02  0.14188358880E+03  0.21363616653E+03  0.12700000000E+03 0.  0.
<mgrwt>
<rscale>  0 0.33387586E+03</rscale>
<asrwt>0</asrwt>
<pdfrwt beam="1">  1        2 0.71627193E-01 0.33387586E+03</pdfrwt>
<pdfrwt beam="2">  1       -2 0.79402840E-02 0.33387586E+03</pdfrwt>
<totfact> 0.64715508E+03</totfact>
</mgrwt>
</event>
<event>
 4    1  0.1383574E-004  0.4945107E+03  0.7818608E-02  0.1015222E+00
          2   -1    0    0  501    0  0.00000000000E+00  0.00000000000E+00  0.32330716204E+03  0.32330716205E+03  0.25500000000E-02 0.  1.
         -2   -1    0    0    0  501 -0.00000000000E+00 -0.00000000000E+00 -0.18909323274E+03  0.18909323276E+03  0.25500000000E-02 0. -1.
    5000001    1    1    2    0    0 -0.10537875433E+03  0.14114804263E+03 -0.55402005694E+02  0.22411120908E+03  0.12700000000E+03 0.  0.
   -5000001    1    1    2    0    0  0.10537875433E+03 -0.14114804263E+03  0.18961593499E+03  0.28828918572E+03  0.12700000000E+03 0.  0.
<mgrwt>
<rscale>  0 0.49451065E+03</rscale>
<asrwt>0</asrwt>
<pdfrwt beam="1">  1        2 0.46186737E-01 0.49451065E+03</pdfrwt>
<pdfrwt beam="2">  1       -2 0.27013319E-01 0.49451065E+03</pdfrwt>
<totfact> 0.13623161E+03</totfact>
</mgrwt>
</event>
<event>
 4    1  0.1383574E-004  0.5235280E+03  0.7818608E-02  0.1007814E+00
         -2   -1    0    0    0  501 -0.00000000000E+00  0.00000000000E+00  0.36731318484E+02  0.36731318573E+02  0.25500000000E-02 0. -1.
          2   -1    0    0  501    0  0.00000000000E+00 -0.00000000000E+00 -0.18654486241E+04  0.18654486241E+04  0.25500000000E-02 0.  1.
    5000001    1    1    2    0    0  0.93192958682E+02 -0.13075006684E+03 -0.15070673715E+04  0.15209081399E+04  0.12700000000E+03 0.  0.
   -5000001    1    1    2    0    0 -0.93192958682E+02  0.13075006684E+03 -0.32164993404E+03  0.38127180278E+03  0.12700000000E+03 0.  0.
<mgrwt>
<rscale>  0 0.52352798E+03</rscale>
<asrwt>0</asrwt>
<pdfrwt beam="1">  1        2 0.26649260E+00 0.52352798E+03</pdfrwt>
<pdfrwt beam="2">  1       -2 0.52473324E-02 0.52352798E+03</pdfrwt>
<totfact> 0.18481773E+03</totfact>
</mgrwt>
</event>
<event>
 4    1  0.1383574E-004  0.5240435E+03  0.7818608E-02  0.1007687E+00
          2   -1    0    0  501    0  0.00000000000E+00  0.00000000000E+00  0.27439984981E+03  0.27439984982E+03  0.25500000000E-02 0.  1.
         -2   -1    0    0    0  501 -0.00000000000E+00 -0.00000000000E+00 -0.25020198894E+03  0.25020198895E+03  0.25500000000E-02 0. -1.
    5000001    1    1    2    0    0 -0.19007843412E+03 -0.46017779485E+02  0.13172077628E+03  0.26781861408E+03  0.12700000000E+03 0.  0.
   -5000001    1    1    2    0    0  0.19007843412E+03  0.46017779485E+02 -0.10752291541E+03  0.25678322469E+03  0.12700000000E+03 0.  0.
<mgrwt>
<rscale>  0 0.52404346E+03</rscale>
<asrwt>0</asrwt>
<pdfrwt beam="1">  1        2 0.39199979E-01 0.52404346E+03</pdfrwt>
<pdfrwt beam="2">  1       -2 0.35743141E-01 0.52404346E+03</pdfrwt>
<totfact> 0.97118787E+02</totfact>
</mgrwt>
</event>
<event>
 4    1  0.1383574E-004  0.4109905E+03  0.7818608E-02  0.1040039E+00
          2   -1    0    0  501    0  0.00000000000E+00  0.00000000000E+00  0.41885675331E+03  0.41885675331E+03  0.25500000000E-02 0.  1.
         -2   -1    0    0    0  501 -0.00000000000E+00 -0.00000000000E+00 -0.10081801455E+03  0.10081801459E+03  0.25500000000E-02 0. -1.
    5000001    1    1    2    0    0 -0.19108160838E+02 -0.15878453320E+03  0.18789903106E+03  0.27751161357E+03  0.12700000000E+03 0.  0.
   -5000001    1    1    2    0    0  0.19108160838E+02  0.15878453320E+03  0.13013970769E+03  0.24216315433E+03  0.12700000000E+03 0.  0.
<mgrwt>
<rscale>  0 0.41099054E+03</rscale>
<asrwt>0</asrwt>
<pdfrwt beam="1">  1        2 0.59836680E-01 0.41099054E+03</pdfrwt>
<pdfrwt beam="2">  1       -2 0.14402573E-01 0.41099054E+03</pdfrwt>
<totfact> 0.30377299E+03</totfact>
</mgrwt>
</event>
<event>
 4    1  0.1383574E-004  0.3661241E+03  0.7818608E-02  0.1056185E+00
          2   -1    0    0  501    0  0.00000000000E+00  0.00000000000E+00  0.34934582210E+04  0.34934582210E+04  0.25500000000E-02 0.  1.
         -2   -1    0    0    0  501 -0.00000000000E+00 -0.00000000000E+00 -0.95927058414E+01  0.95927061803E+01  0.25500000000E-02 0. -1.
    5000001    1    1    2    0    0  0.11104033721E+03 -0.68105072864E+02  0.19367195689E+04  0.19452454719E+04  0.12700000000E+03 0.  0.
   -5000001    1    1    2    0    0 -0.11104033721E+03  0.68105072864E+02  0.15471459463E+04  0.15578054553E+04  0.12700000000E+03 0.  0.
<mgrwt>
<rscale>  0 0.36612412E+03</rscale>
<asrwt>0</asrwt>
<pdfrwt beam="1">  1        2 0.49906654E+00 0.36612412E+03</pdfrwt>
<pdfrwt beam="2">  1       -2 0.13703836E-02 0.36612412E+03</pdfrwt>
<totfact> 0.19715321E+03</totfact>
</mgrwt>
</event>
<event>
 4    1  0.1383574E-004  0.3763264E+03  0.7818608E-02  0.1052300E+00
         -2   -1    0    0    0  501 -0.00000000000E+00  0.00000000000E+00  0.13256037322E+02  0.13256037567E+02  0.25500000000E-02 0. -1.
          2   -1    0    0  501    0  0.00000000000E+00 -0.00000000000E+00 -0.26708876977E+04  0.26708876977E+04  0.25500000000E-02 0.  1.
    5000001    1    1    2    0    0 -0.92354223872E+02  0.10072816950E+03 -0.11539722779E+04  0.11689552964E+04  0.12700000000E+03 0.  0.
   -5000001    1    1    2    0    0  0.92354223872E+02 -0.10072816950E+03 -0.15036593825E+04  0.15151884389E+04  0.12700000000E+03 0.  0.
<mgrwt>
<rscale>  0 0.37632639E+03</rscale>
<asrwt>0</asrwt>
<pdfrwt beam="1">  1        2 0.38155504E+00 0.37632639E+03</pdfrwt>
<pdfrwt beam="2">  1       -2 0.18937213E-02 0.37632639E+03</pdfrwt>
<totfact> 0.34265543E+03</totfact>
</mgrwt>
</event>
<event>
 4    1  0.1383574E-004  0.2998600E+03  0.7818608E-02  0.1085311E+00
          2   -1    0    0  501    0  0.00000000000E+00  0.00000000000E+00  0.16425689026E+04  0.16425689026E+04  0.25500000000E-02 0.  1.
         -2   -1    0    0    0  501 -0.00000000000E+00 -0.00000000000E+00 -0.13685274982E+02  0.13685275220E+02  0.25500000000E-02 0. -1.
    5000001    1    1    2    0    0 -0.74160877602E+02  0.25517502634E+02  0.89236490462E+03  0.90476245596E+03  0.12700000000E+03 0.  0.
   -5000001    1    1    2    0    0  0.74160877602E+02 -0.25517502634E+02  0.73651872295E+03  0.75149172182E+03  0.12700000000E+03 0.  0.
<mgrwt>
<rscale>  0 0.29986002E+03</rscale>
<asrwt>0</asrwt>
<pdfrwt beam="1">  1        2 0.23465246E+00 0.29986002E+03</pdfrwt>
<pdfrwt beam="2">  1       -2 0.19550413E-02 0.29986002E+03</pdfrwt>
<totfact> 0.10598208E+04</totfact>
</mgrwt>
</event>
<event>
 4    1  0.1383574E-004  0.3026943E+03  0.7818608E-02  0.1083901E+00
          2   -1    0    0  501    0  0.00000000000E+00  0.00000000000E+00  0.22696659461E+03  0.22696659462E+03  0.25500000000E-02 0.  1.
         -2   -1    0    0    0  501 -0.00000000000E+00 -0.00000000000E+00 -0.10092218133E+03  0.10092218136E+03  0.25500000000E-02 0. -1.
    5000001    1    1    2    0    0  0.57220498868E+02 -0.48228111399E+02  0.25861950992E+02  0.14965953604E+03  0.12700000000E+03 0.  0.
   -5000001    1    1    2    0    0 -0.57220498868E+02  0.48228111399E+02  0.10018246229E+03  0.17822923994E+03  0.12700000000E+03 0.  0.
<mgrwt>
<rscale>  0 0.30269433E+03</rscale>
<asrwt>0</asrwt>
<pdfrwt beam="1">  1        2 0.32423799E-01 0.30269433E+03</pdfrwt>
<pdfrwt beam="2">  1       -2 0.14417454E-01 0.30269433E+03</pdfrwt>
<totfact> 0.58675645E+03</totfact>
</mgrwt>
</event>
<event>
 4    1  0.1383574E-004  0.3478193E+03  0.7818608E-02  0.1063514E+00
          2   -1    0    0  501    0  0.00000000000E+00  0.00000000000E+00  0.31428623971E+03  0.31428623972E+03  0.25500000000E-02 0.  1.
         -2   -1    0    0    0  501 -0.00000000000E+00 -0.00000000000E+00 -0.96232531658E+02  0.96232531692E+02  0.25500000000E-02 0. -1.
    5000001    1    1    2    0    0 -0.44089408528E+01  0.10242487923E+03  0.17989450453E+03  0.24290188843E+03  0.12700000000E+03 0.  0.
   -5000001    1    1    2    0    0  0.44089408528E+01 -0.10242487923E+03  0.38159203520E+02  0.16761688297E+03  0.12700000000E+03 0.  0.
<mgrwt>
<rscale>  0 0.34781927E+03</rscale>
<asrwt>0</asrwt>
<pdfrwt beam="1">  1        2 0.44898035E-01 0.34781927E+03</pdfrwt>
<pdfrwt beam="2">  1       -2 0.13747504E-01 0.34781927E+03</pdfrwt>
<totfact> 0.44726803E+03</totfact>
</mgrwt>
</event>
<event>
 4    1  0.1383574E-004  0.3900569E+03  0.7818608E-02  0.1047278E+00
          2   -1    0    0  501    0  0.00000000000E+00  0.00000000000E+00  0.54940205496E+03  0.54940205496E+03  0.25500000000E-02 0.  1.
         -2   -1    0    0    0  501 -0.00000000000E+00 -0.00000000000E+00 -0.69231812338E+02  0.69231812385E+02  0.25500000000E-02 0. -1.
    5000001    1    1    2    0    0 -0.12875846729E+03  0.42583269903E+02  0.33411583724E+03  0.38230154390E+03  0.12700000000E+03 0.  0.
   -5000001    1    1    2    0    0  0.12875846729E+03 -0.42583269903E+02  0.14605440538E+03  0.23633232345E+03  0.12700000000E+03 0.  0.
<mgrwt>
<rscale>  0 0.39005692E+03</rscale>
<asrwt>0</asrwt>
<pdfrwt beam="1">  1        2 0.78486006E-01 0.39005692E+03</pdfrwt>
<pdfrwt beam="2">  1       -2 0.98902592E-02 0.39005692E+03</pdfrwt>
<totfact> 0.41368732E+03</totfact>
</mgrwt>
</event>
<event>
 4    1  0.1383574E-004  0.4604575E+03  0.7818608E-02  0.1024649E+00
         -2   -1    0    0    0  501 -0.00000000000E+00  0.00000000000E+00  0.53467963208E+02  0.53467963269E+02  0.25500000000E-02 0. -1.
          2   -1    0    0  501    0  0.00000000000E+00 -0.00000000000E+00 -0.99134662083E+03  0.99134662083E+03  0.25500000000E-02 0.  1.
    5000001    1    1    2    0    0  0.61489854607E+02 -0.17114689862E+03 -0.60888875736E+03  0.64803300993E+03  0.12700000000E+03 0.  0.
   -5000001    1    1    2    0    0 -0.61489854607E+02  0.17114689862E+03 -0.32898990026E+03  0.39678157417E+03  0.12700000000E+03 0.  0.
<mgrwt>
<rscale>  0 0.46045753E+03</rscale>
<asrwt>0</asrwt>
<pdfrwt beam="1">  1        2 0.14162094E+00 0.46045753E+03</pdfrwt>
<pdfrwt beam="2">  1       -2 0.76382810E-02 0.46045753E+03</pdfrwt>
<totfact> 0.30098719E+03</totfact>
</mgrwt>
</event>
<event>
 4    1  0.1383574E-004  0.3424147E+03  0.7818608E-02  0.1065772E+00
          2   -1    0    0  501    0  0.00000000000E+00  0.00000000000E+00  0.92337646734E+03  0.92337646734E+03  0.25500000000E-02 0.  1.
         -2   -1    0    0    0  501 -0.00000000000E+00 -0.00000000000E+00 -0.31744309750E+02  0.31744309853E+02  0.25500000000E-02 0. -1.
    5000001    1    1    2    0    0  0.15825443576E+02  0.99625495185E+02  0.59878097591E+03  0.62035743009E+03  0.12700000000E+03 0.  0.
   -5000001    1    1    2    0    0 -0.15825443576E+02 -0.99625495185E+02  0.29285118168E+03  0.33476334711E+03  0.12700000000E+03 0.  0.
<mgrwt>
<rscale>  0 0.34241465E+03</rscale>
<asrwt>0</asrwt>
<pdfrwt beam="1">  1        2 0.13191091E+00 0.34241465E+03</pdfrwt>
<pdfrwt beam="2">  1       -2 0.45349017E-02 0.34241465E+03</pdfrwt>
<totfact> 0.74001389E+03</totfact>
</mgrwt>
</event>
<event>
 4    1  0.1383574E-004  0.4892146E+03  0.7818608E-02  0.1016633E+00
          2   -1    0    0  501    0  0.00000000000E+00  0.00000000000E+00  0.99583925377E+03  0.99583925378E+03  0.25500000000E-02 0. -1.
         -2   -1    0    0    0  501 -0.00000000000E+00 -0.00000000000E+00 -0.60082709527E+02  0.60082709581E+02  0.25500000000E-02 0.  1.
    5000001    1    1    2    0    0  0.17549861280E+02  0.20789963569E+03  0.49630571243E+03  0.55315333890E+03  0.12700000000E+03 0.  0.
   -5000001    1    1    2    0    0 -0.17549861280E+02 -0.20789963569E+03  0.43945083182E+03  0.50276862446E+03  0.12700000000E+03 0.  0.
<mgrwt>
<rscale>  0 0.48921456E+03</rscale>
<asrwt>0</asrwt>
<pdfrwt beam="1">  1        2 0.14226275E+00 0.48921456E+03</pdfrwt>
<pdfrwt beam="2">  1       -2 0.85832444E-02 0.48921456E+03</pdfrwt>
<totfact> 0.24861698E+03</totfact>
</mgrwt>
</event>
<event>
 4    1  0.1383574E-004  0.4470919E+03  0.7818608E-02  0.1028593E+00
          2   -1    0    0  501    0  0.00000000000E+00  0.00000000000E+00  0.19452384802E+04  0.19452384802E+04  0.25500000000E-02 0.  1.
         -2   -1    0    0    0  501 -0.00000000000E+00 -0.00000000000E+00 -0.25689800764E+02  0.25689800891E+02  0.25500000000E-02 0. -1.
    5000001    1    1    2    0    0  0.64406032509E+02 -0.13641883513E+03  0.49563035919E+03  0.53341980518E+03  0.12700000000E+03 0.  0.
   -5000001    1    1    2    0    0 -0.64406032509E+02  0.13641883513E+03  0.14239183202E+04  0.14375084759E+04  0.12700000000E+03 0.  0.
<mgrwt>
<rscale>  0 0.44709189E+03</rscale>
<asrwt>0</asrwt>
<pdfrwt beam="1">  1        2 0.27789124E+00 0.44709189E+03</pdfrwt>
<pdfrwt beam="2">  1       -2 0.36699712E-02 0.44709189E+03</pdfrwt>
<totfact> 0.29266259E+03</totfact>
</mgrwt>
</event>
<event>
 4    1  0.1383574E-004  0.3203733E+03  0.7818608E-02  0.1075478E+00
         -2   -1    0    0    0  501 -0.00000000000E+00  0.00000000000E+00  0.76400518203E+02  0.76400518245E+02  0.25500000000E-02 0. -1.
          2   -1    0    0  501    0  0.00000000000E+00 -0.00000000000E+00 -0.33585846063E+03  0.33585846064E+03  0.25500000000E-02 0.  1.
    5000001    1    1    2    0    0  0.91536411809E+01 -0.82674759038E+02 -0.19549299886E+03  0.24751851957E+03  0.12700000000E+03 0.  0.
   -5000001    1    1    2    0    0 -0.91536411809E+01  0.82674759038E+02 -0.63964943570E+02  0.16474045931E+03  0.12700000000E+03 0.  0.
<mgrwt>
<rscale>  0 0.32037329E+03</rscale>
<asrwt>0</asrwt>
<pdfrwt beam="1">  1        2 0.47979779E-01 0.32037329E+03</pdfrwt>
<pdfrwt beam="2">  1       -2 0.10914360E-01 0.32037329E+03</pdfrwt>
<totfact> 0.60439153E+03</totfact>
</mgrwt>
</event>
<event>
 4    1  0.1383574E-004  0.3440162E+03  0.7818608E-02  0.1065098E+00
          2   -1    0    0  501    0  0.00000000000E+00  0.00000000000E+00  0.50949952010E+02  0.50949952074E+02  0.25500000000E-02 0.  1.
         -2   -1    0    0    0  501 -0.00000000000E+00 -0.00000000000E+00 -0.58070293022E+03  0.58070293023E+03  0.25500000000E-02 0. -1.
    5000001    1    1    2    0    0  0.47019530684E+02 -0.10128033115E+03 -0.20712655999E+03  0.26739288247E+03  0.12700000000E+03 0.  0.
   -5000001    1    1    2    0    0 -0.47019530684E+02  0.10128033115E+03 -0.32262641822E+03  0.36425999983E+03  0.12700000000E+03 0.  0.
<mgrwt>
<rscale>  0 0.34401620E+03</rscale>
<asrwt>0</asrwt>
<pdfrwt beam="1">  1        2 0.72785649E-02 0.34401620E+03</pdfrwt>
<pdfrwt beam="2">  1       -2 0.82957558E-01 0.34401620E+03</pdfrwt>
<totfact> 0.12690886E+03</totfact>
</mgrwt>
</event>
<event>
 4    1  0.1383574E-004  0.3580195E+03  0.7818608E-02  0.1059371E+00
          2   -1    0    0  501    0  0.00000000000E+00  0.00000000000E+00  0.22190592801E+03  0.22190592802E+03  0.25500000000E-02 0.  1.
         -2   -1    0    0    0  501 -0.00000000000E+00 -0.00000000000E+00 -0.14440575942E+03  0.14440575945E+03  0.25500000000E-02 0. -1.
    5000001    1    1    2    0    0  0.36731799809E+02 -0.12069079805E+03  0.38735213360E+02  0.18315269751E+03  0.12700000000E+03 0.  0.
   -5000001    1    1    2    0    0 -0.36731799809E+02  0.12069079805E+03  0.38764955225E+02  0.18315898996E+03  0.12700000000E+03 0.  0.
<mgrwt>
<rscale>  0 0.35801952E+03</rscale>
<asrwt>0</asrwt>
<pdfrwt beam="1">  1        2 0.31700847E-01 0.35801952E+03</pdfrwt>
<pdfrwt beam="2">  1       -2 0.20629394E-01 0.35801952E+03</pdfrwt>
<totfact> 0.33020528E+03</totfact>
</mgrwt>
</event>
<event>
 4    1  0.1383574E-004  0.2983099E+03  0.7818608E-02  0.1086089E+00
         -2   -1    0    0    0  501 -0.00000000000E+00  0.00000000000E+00  0.18742577516E+03  0.18742577518E+03  0.25500000000E-02 0. -1.
          2   -1    0    0  501    0  0.00000000000E+00 -0.00000000000E+00 -0.11869875073E+03  0.11869875075E+03  0.25500000000E-02 0.  1.
    5000001    1    1    2    0    0 -0.47428089763E+02 -0.51693289248E+02  0.69861380169E+02  0.16103177417E+03  0.12700000000E+03 0.  0.
   -5000001    1    1    2    0    0  0.47428089763E+02  0.51693289248E+02 -0.11343557341E+01  0.14509275176E+03  0.12700000000E+03 0.  0.
<mgrwt>
<rscale>  0 0.29830994E+03</rscale>
<asrwt>0</asrwt>
<pdfrwt beam="1">  1        2 0.16956964E-01 0.29830994E+03</pdfrwt>
<pdfrwt beam="2">  1       -2 0.26775111E-01 0.29830994E+03</pdfrwt>
<totfact> 0.42252169E+03</totfact>
</mgrwt>
</event>
<event>
 4    1  0.1383574E-004  0.7497998E+03  0.7818608E-02  0.9635664E-01
          2   -1    0    0  501    0  0.00000000000E+00  0.00000000000E+00  0.55232981037E+03  0.55232981037E+03  0.25500000000E-02 0.  1.
         -2   -1    0    0    0  501 -0.00000000000E+00 -0.00000000000E+00 -0.25446741132E+03  0.25446741133E+03  0.25500000000E-02 0. -1.
    5000001    1    1    2    0    0  0.18810852259E+03 -0.28896690782E+03  0.68883595322E+02  0.37384574331E+03  0.12700000000E+03 0.  0.
   -5000001    1    1    2    0    0 -0.18810852259E+03  0.28896690782E+03  0.22897880373E+03  0.43295147839E+03  0.12700000000E+03 0.  0.
<mgrwt>
<rscale>  0 0.74979981E+03</rscale>
<asrwt>0</asrwt>
<pdfrwt beam="1">  1        2 0.78904257E-01 0.74979981E+03</pdfrwt>
<pdfrwt beam="2">  1       -2 0.36352488E-01 0.74979981E+03</pdfrwt>
<totfact> 0.42830372E+02</totfact>
</mgrwt>
</event>
<event>
 4    1  0.1383574E-004  0.4176555E+03  0.7818608E-02  0.1037832E+00
         -2   -1    0    0    0  501 -0.00000000000E+00  0.00000000000E+00  0.20368639482E+02  0.20368639641E+02  0.25500000000E-02 0. -1.
          2   -1    0    0  501    0  0.00000000000E+00 -0.00000000000E+00 -0.21409884170E+04  0.21409884170E+04  0.25500000000E-02 0.  1.
    5000001    1    1    2    0    0 -0.14380809509E+03  0.10152930813E+02 -0.14837788906E+04  0.14961659822E+04  0.12700000000E+03 0.  0.
   -5000001    1    1    2    0    0  0.14380809509E+03 -0.10152930813E+02 -0.63684088691E+03  0.66519107440E+03  0.12700000000E+03 0.  0.
<mgrwt>
<rscale>  0 0.41765546E+03</rscale>
<asrwt>0</asrwt>
<pdfrwt beam="1">  1        2 0.30585535E+00 0.41765546E+03</pdfrwt>
<pdfrwt beam="2">  1       -2 0.29098070E-02 0.41765546E+03</pdfrwt>
<totfact> 0.33268410E+03</totfact>
</mgrwt>
</event>
<event>
 4    1  0.1383574E-004  0.4644213E+03  0.7818608E-02  0.1023507E+00
         -2   -1    0    0    0  501 -0.00000000000E+00  0.00000000000E+00  0.21024950541E+02  0.21024950695E+02  0.25500000000E-02 0. -1.
          2   -1    0    0  501    0  0.00000000000E+00 -0.00000000000E+00 -0.25646564890E+04  0.25646564890E+04  0.25500000000E-02 0.  1.
    5000001    1    1    2    0    0 -0.74654661193E+02  0.17914009065E+03 -0.12087560910E+04  0.12308065559E+04  0.12700000000E+03 0.  0.
   -5000001    1    1    2    0    0  0.74654661193E+02 -0.17914009065E+03 -0.13348754474E+04  0.13548748838E+04  0.12700000000E+03 0.  0.
<mgrwt>
<rscale>  0 0.46442126E+03</rscale>
<asrwt>0</asrwt>
<pdfrwt beam="1">  1        2 0.36637930E+00 0.46442126E+03</pdfrwt>
<pdfrwt beam="2">  1       -2 0.30035660E-02 0.46442126E+03</pdfrwt>
<totfact> 0.19375053E+03</totfact>
</mgrwt>
</event>
<event>
 4    1  0.1383574E-004  0.3425862E+03  0.7818608E-02  0.1065700E+00
          2   -1    0    0  501    0  0.00000000000E+00  0.00000000000E+00  0.13553823123E+04  0.13553823123E+04  0.25500000000E-02 0.  1.
         -2   -1    0    0    0  501 -0.00000000000E+00 -0.00000000000E+00 -0.21648009176E+02  0.21648009326E+02  0.25500000000E-02 0. -1.
    5000001    1    1    2    0    0  0.95184133644E+02  0.53775883566E+02  0.80957203067E+03  0.82673317207E+03  0.12700000000E+03 0.  0.
   -5000001    1    1    2    0    0 -0.95184133644E+02 -0.53775883566E+02  0.52416227241E+03  0.55029714952E+03  0.12700000000E+03 0.  0.
<mgrwt>
<rscale>  0 0.34258622E+03</rscale>
<asrwt>0</asrwt>
<pdfrwt beam="1">  1        2 0.19362604E+00 0.34258622E+03</pdfrwt>
<pdfrwt beam="2">  1       -2 0.30925729E-02 0.34258622E+03</pdfrwt>
<totfact> 0.75251841E+03</totfact>
</mgrwt>
</event>
<event>
 4    1  0.1383574E-004  0.3701420E+03  0.7818608E-02  0.1054639E+00
          2   -1    0    0  501    0  0.00000000000E+00  0.00000000000E+00  0.17781940900E+03  0.17781940902E+03  0.25500000000E-02 0.  1.
         -2   -1    0    0    0  501 -0.00000000000E+00 -0.00000000000E+00 -0.19261834320E+03  0.19261834321E+03  0.25500000000E-02 0. -1.
    5000001    1    1    2    0    0 -0.12616260198E+03  0.33940562014E+01 -0.54274460586E+02  0.18709152527E+03  0.12700000000E+03 0.  0.
   -5000001    1    1    2    0    0  0.12616260198E+03 -0.33940562014E+01  0.39475526388E+02  0.18334622696E+03  0.12700000000E+03 0.  0.
<mgrwt>
<rscale>  0 0.37014203E+03</rscale>
<asrwt>0</asrwt>
<pdfrwt beam="1">  1        2 0.25402773E-01 0.37014203E+03</pdfrwt>
<pdfrwt beam="2">  1       -2 0.27516906E-01 0.37014203E+03</pdfrwt>
<totfact> 0.25435769E+03</totfact>
</mgrwt>
</event>
<event>
 4    1  0.1383574E-004  0.2877276E+03  0.7818608E-02  0.1091542E+00
          2   -1    0    0  501    0  0.00000000000E+00  0.00000000000E+00  0.10401694735E+03  0.10401694738E+03  0.25500000000E-02 0.  1.
         -2   -1    0    0    0  501 -0.00000000000E+00 -0.00000000000E+00 -0.19897520178E+03  0.19897520179E+03  0.25500000000E-02 0. -1.
    5000001    1    1    2    0    0  0.21668394638E+02 -0.63399303464E+02 -0.38131127014E+02  0.14856639544E+03  0.12700000000E+03 0.  0.
   -5000001    1    1    2    0    0 -0.21668394638E+02  0.63399303464E+02 -0.56827127413E+02  0.15442575373E+03  0.12700000000E+03 0.  0.
<mgrwt>
<rscale>  0 0.28772760E+03</rscale>
<asrwt>0</asrwt>
<pdfrwt beam="1">  1        2 0.14859564E-01 0.28772760E+03</pdfrwt>
<pdfrwt beam="2">  1       -2 0.28425029E-01 0.28772760E+03</pdfrwt>
<totfact> 0.44300863E+03</totfact>
</mgrwt>
</event>
<event>
 4    1  0.1383574E-004  0.4103888E+03  0.7818608E-02  0.1040241E+00
         -2   -1    0    0    0  501 -0.00000000000E+00  0.00000000000E+00  0.63738479383E+02  0.63738479434E+02  0.25500000000E-02 0. -1.
          2   -1    0    0  501    0  0.00000000000E+00 -0.00000000000E+00 -0.66058581924E+03  0.66058581924E+03  0.25500000000E-02 0.  1.
    5000001    1    1    2    0    0  0.73828837318E+02  0.12403807080E+03 -0.42495615946E+03  0.46642564005E+03  0.12700000000E+03 0.  0.
   -5000001    1    1    2    0    0 -0.73828837318E+02 -0.12403807080E+03 -0.17189118039E+03  0.25789865863E+03  0.12700000000E+03 0.  0.
<mgrwt>
<rscale>  0 0.41038877E+03</rscale>
<asrwt>0</asrwt>
<pdfrwt beam="1">  1        2 0.94369399E-01 0.41038877E+03</pdfrwt>
<pdfrwt beam="2">  1       -2 0.91054975E-02 0.41038877E+03</pdfrwt>
<totfact> 0.38152014E+03</totfact>
</mgrwt>
</event>
<event>
 4    1  0.1383574E-004  0.3742656E+03  0.7818608E-02  0.1053074E+00
         -2   -1    0    0    0  501 -0.00000000000E+00  0.00000000000E+00  0.83854725257E+02  0.83854725296E+02  0.25500000000E-02 0. -1.
          2   -1    0    0  501    0  0.00000000000E+00 -0.00000000000E+00 -0.41761123776E+03  0.41761123776E+03  0.25500000000E-02 0.  1.
    5000001    1    1    2    0    0 -0.63003103931E+02  0.59112843809E+02 -0.31009964613E+03  0.34605564572E+03  0.12700000000E+03 0.  0.
   -5000001    1    1    2    0    0  0.63003103931E+02 -0.59112843809E+02 -0.23656866372E+02  0.15541031734E+03  0.12700000000E+03 0.  0.
<mgrwt>
<rscale>  0 0.37426555E+03</rscale>
<asrwt>0</asrwt>
<pdfrwt beam="1">  1        2 0.59658747E-01 0.37426555E+03</pdfrwt>
<pdfrwt beam="2">  1       -2 0.11979247E-01 0.37426555E+03</pdfrwt>
<totfact> 0.41184479E+03</totfact>
</mgrwt>
</event>
<event>
 4    1  0.1383574E-004  0.7462105E+03  0.7818608E-02  0.9641314E-01
          2   -1    0    0  501    0  0.00000000000E+00  0.00000000000E+00  0.17242069051E+04  0.17242069051E+04  0.25500000000E-02 0.  1.
         -2   -1    0    0    0  501 -0.00000000000E+00 -0.00000000000E+00 -0.80737136333E+02  0.80737136373E+02  0.25500000000E-02 0. -1.
    5000001    1    1    2    0    0 -0.31022005008E+03  0.70996187919E+02  0.11788814416E+04  0.12276674597E+04  0.12700000000E+03 0.  0.
   -5000001    1    1    2    0    0  0.31022005008E+03 -0.70996187919E+02  0.46458832719E+03  0.57727658183E+03  0.12700000000E+03 0.  0.
<mgrwt>
<rscale>  0 0.74621050E+03</rscale>
<asrwt>0</asrwt>
<pdfrwt beam="1">  1        2 0.24631527E+00 0.74621050E+03</pdfrwt>
<pdfrwt beam="2">  1       -2 0.11533877E-01 0.74621050E+03</pdfrwt>
<totfact> 0.61391087E+02</totfact>
</mgrwt>
</event>
<event>
 4    1  0.1383574E-004  0.3545759E+03  0.7818608E-02  0.1060752E+00
          2   -1    0    0  501    0  0.00000000000E+00  0.00000000000E+00  0.14243879691E+04  0.14243879691E+04  0.25500000000E-02 0.  1.
         -2   -1    0    0    0  501 -0.00000000000E+00 -0.00000000000E+00 -0.22066332891E+02  0.22066333038E+02  0.25500000000E-02 0. -1.
    5000001    1    1    2    0    0 -0.81522428708E+02 -0.92857984511E+02  0.72477466297E+03  0.74612051557E+03  0.12700000000E+03 0.  0.
   -5000001    1    1    2    0    0  0.81522428708E+02  0.92857984511E+02  0.67754697329E+03  0.70033378662E+03  0.12700000000E+03 0.  0.
<mgrwt>
<rscale>  0 0.35457591E+03</rscale>
<asrwt>0</asrwt>
<pdfrwt beam="1">  1        2 0.20348400E+00 0.35457591E+03</pdfrwt>
<pdfrwt beam="2">  1       -2 0.31523331E-02 0.35457591E+03</pdfrwt>
<totfact> 0.67346792E+03</totfact>
</mgrwt>
</event>
<event>
 4    1  0.1383574E-004  0.4251112E+03  0.7818608E-02  0.1035416E+00
          2   -1    0    0  501    0  0.00000000000E+00  0.00000000000E+00  0.53346330630E+03  0.53346330630E+03  0.25500000000E-02 0.  1.
         -2   -1    0    0    0  501 -0.00000000000E+00 -0.00000000000E+00 -0.84691632904E+02  0.84691632942E+02  0.25500000000E-02 0. -1.
    5000001    1    1    2    0    0 -0.45034767115E+02  0.13057023319E+03  0.36960804544E+03  0.41450672286E+03  0.12700000000E+03 0.  0.
   -5000001    1    1    2    0    0  0.45034767115E+02 -0.13057023319E+03  0.79163627952E+02  0.20364821638E+03  0.12700000000E+03 0.  0.
<mgrwt>
<rscale>  0 0.42511118E+03</rscale>
<asrwt>0</asrwt>
<pdfrwt beam="1">  1        2 0.76209047E-01 0.42511118E+03</pdfrwt>
<pdfrwt beam="2">  1       -2 0.12098804E-01 0.42511118E+03</pdfrwt>
<totfact> 0.30917508E+03</totfact>
</mgrwt>
</event>
<event>
 4    1  0.1383574E-004  0.3288236E+03  0.7818608E-02  0.1071659E+00
          2   -1    0    0  501    0  0.00000000000E+00  0.00000000000E+00  0.23599553660E+03  0.23599553662E+03  0.25500000000E-02 0.  1.
         -2   -1    0    0    0  501 -0.00000000000E+00 -0.00000000000E+00 -0.11454133871E+03  0.11454133874E+03  0.25500000000E-02 0. -1.
    5000001    1    1    2    0    0  0.46916169206E+02  0.74357407867E+02  0.12076751520E+03  0.19607127216E+03  0.12700000000E+03 0.  0.
   -5000001    1    1    2    0    0 -0.46916169206E+02 -0.74357407867E+02  0.68668269096E+00  0.15446560320E+03  0.12700000000E+03 0.  0.
<mgrwt>
<rscale>  0 0.32882363E+03</rscale>
<asrwt>0</asrwt>
<pdfrwt beam="1">  1        2 0.33713649E-01 0.32882363E+03</pdfrwt>
<pdfrwt beam="2">  1       -2 0.16363048E-01 0.32882363E+03</pdfrwt>
<totfact> 0.45673189E+03</totfact>
</mgrwt>
</event>
<event>
 4    1  0.1383574E-004  0.4314150E+03  0.7818608E-02  0.1033414E+00
         -2   -1    0    0    0  501 -0.00000000000E+00  0.00000000000E+00  0.81411449696E+02  0.81411449736E+02  0.25500000000E-02 0. -1.
          2   -1    0    0  501    0  0.00000000000E+00 -0.00000000000E+00 -0.57153784050E+03  0.57153784051E+03  0.25500000000E-02 0.  1.
    5000001    1    1    2    0    0  0.67743024128E+02  0.11757047729E+02 -0.48757100714E+03  0.50850942222E+03  0.12700000000E+03 0.  0.
   -5000001    1    1    2    0    0 -0.67743024128E+02 -0.11757047729E+02 -0.25553836728E+01  0.14443986802E+03  0.12700000000E+03 0.  0.
<mgrwt>
<rscale>  0 0.43141499E+03</rscale>
<asrwt>0</asrwt>
<pdfrwt beam="1">  1        2 0.81648261E-01 0.43141499E+03</pdfrwt>
<pdfrwt beam="2">  1       -2 0.11630207E-01 0.43141499E+03</pdfrwt>
<totfact> 0.30481313E+03</totfact>
</mgrwt>
</event>
<event>
 4    1  0.1383574E-004  0.3591459E+03  0.7818608E-02  0.1058923E+00
         -2   -1    0    0    0  501 -0.00000000000E+00  0.00000000000E+00  0.19583440593E+03  0.19583440595E+03  0.25500000000E-02 0. -1.
          2   -1    0    0  501    0  0.00000000000E+00 -0.00000000000E+00 -0.16466182945E+03  0.16466182947E+03  0.25500000000E-02 0.  1.
    5000001    1    1    2    0    0  0.11311287778E+01  0.12523916917E+03 -0.52601030535E+01  0.17844550325E+03  0.12700000000E+03 0.  0.
   -5000001    1    1    2    0    0 -0.11311287778E+01 -0.12523916917E+03  0.36432679534E+02  0.18205073217E+03  0.12700000000E+03 0.  0.
<mgrwt>
<rscale>  0 0.35914594E+03</rscale>
<asrwt>0</asrwt>
<pdfrwt beam="1">  1        2 0.23523119E-01 0.35914594E+03</pdfrwt>
<pdfrwt beam="2">  1       -2 0.27976344E-01 0.35914594E+03</pdfrwt>
<totfact> 0.26911559E+03</totfact>
</mgrwt>
</event>
<event>
 4    1  0.1383574E-004  0.3070623E+03  0.7818608E-02  0.1081763E+00
         -2   -1    0    0    0  501 -0.00000000000E+00  0.00000000000E+00  0.50777616804E+02  0.50777616868E+02  0.25500000000E-02 0. -1.
          2   -1    0    0  501    0  0.00000000000E+00 -0.00000000000E+00 -0.46421667459E+03  0.46421667460E+03  0.25500000000E-02 0.  1.
    5000001    1    1    2    0    0  0.47634830462E+02  0.60637017471E+02 -0.14183053335E+03  0.20540405339E+03  0.12700000000E+03 0.  0.
   -5000001    1    1    2    0    0 -0.47634830462E+02 -0.60637017471E+02 -0.27160852444E+03  0.30959023807E+03  0.12700000000E+03 0.  0.
<mgrwt>
<rscale>  0 0.30706232E+03</rscale>
<asrwt>0</asrwt>
<pdfrwt beam="1">  1        2 0.66316665E-01 0.30706232E+03</pdfrwt>
<pdfrwt beam="2">  1       -2 0.72539455E-02 0.30706232E+03</pdfrwt>
<totfact> 0.80953398E+03</totfact>
</mgrwt>
</event>
<event>
 4    1  0.1383574E-004  0.3819321E+03  0.7818608E-02  0.1050222E+00
          2   -1    0    0  501    0  0.00000000000E+00  0.00000000000E+00  0.22664654505E+02  0.22664654649E+02  0.25500000000E-02 0.  1.
         -2   -1    0    0    0  501 -0.00000000000E+00 -0.00000000000E+00 -0.16090264034E+04  0.16090264034E+04  0.25500000000E-02 0. -1.
    5000001    1    1    2    0    0  0.76295652024E+00 -0.10624272709E+03 -0.38673907377E+03  0.42069491362E+03  0.12700000000E+03 0.  0.
   -5000001    1    1    2    0    0 -0.76295652024E+00  0.10624272709E+03 -0.11996226751E+04  0.12109961444E+04  0.12700000000E+03 0.  0.
<mgrwt>
<rscale>  0 0.38193208E+03</rscale>
<asrwt>0</asrwt>
<pdfrwt beam="1">  1        2 0.32378088E-02 0.38193208E+03</pdfrwt>
<pdfrwt beam="2">  1       -2 0.22986084E+00 0.38193208E+03</pdfrwt>
<totfact> 0.26650465E+02</totfact>
</mgrwt>
</event>
<event>
 4    1  0.1383574E-004  0.2878764E+03  0.7818608E-02  0.1091463E+00
         -2   -1    0    0    0  501 -0.00000000000E+00  0.00000000000E+00  0.83172286211E+01  0.83172290120E+01  0.25500000000E-02 0. -1.
          2   -1    0    0  501    0  0.00000000000E+00 -0.00000000000E+00 -0.24909990379E+04  0.24909990379E+04  0.25500000000E-02 0.  1.
    5000001    1    1    2    0    0  0.16683442307E+02 -0.65108356347E+02 -0.13148934475E+04  0.13227211398E+04  0.12700000000E+03 0.  0.
   -5000001    1    1    2    0    0 -0.16683442307E+02  0.65108356347E+02 -0.11677883618E+04  0.11765951271E+04  0.12700000000E+03 0.  0.
<mgrwt>
<rscale>  0 0.28787642E+03</rscale>
<asrwt>0</asrwt>
<pdfrwt beam="1">  1        2 0.35585653E+00 0.28787642E+03</pdfrwt>
<pdfrwt beam="2">  1       -2 0.11881771E-02 0.28787642E+03</pdfrwt>
<totfact> 0.84058082E+03</totfact>
</mgrwt>
</event>
<event>
 4    1  0.1383574E-004  0.3085097E+03  0.7818608E-02  0.1081062E+00
          2   -1    0    0  501    0  0.00000000000E+00  0.00000000000E+00  0.39160205756E+04  0.39160205756E+04  0.25500000000E-02 0.  1.
         -2   -1    0    0    0  501 -0.00000000000E+00 -0.00000000000E+00 -0.60762101491E+01  0.60762106842E+01  0.25500000000E-02 0. -1.
    5000001    1    1    2    0    0  0.86758748437E+02 -0.22726542366E+01  0.21017621837E+04  0.21073835727E+04  0.12700000000E+03 0.  0.
   -5000001    1    1    2    0    0 -0.86758748437E+02  0.22726542366E+01  0.18081821817E+04  0.18147132136E+04  0.12700000000E+03 0.  0.
<mgrwt>
<rscale>  0 0.30850974E+03</rscale>
<asrwt>0</asrwt>
<pdfrwt beam="1">  1        2 0.55943196E+00 0.30850974E+03</pdfrwt>
<pdfrwt beam="2">  1       -2 0.86802937E-03 0.30850974E+03</pdfrwt>
<totfact> 0.21383007E+03</totfact>
</mgrwt>
</event>
<event>
 4    1  0.1383574E-004  0.6061123E+03  0.7818608E-02  0.9892806E-01
          2   -1    0    0  501    0  0.00000000000E+00  0.00000000000E+00  0.67584526586E+03  0.67584526587E+03  0.25500000000E-02 0.  1.
         -2   -1    0    0    0  501 -0.00000000000E+00 -0.00000000000E+00 -0.13589357320E+03  0.13589357323E+03  0.25500000000E-02 0. -1.
    5000001    1    1    2    0    0 -0.25254783921E+03  0.10639977664E+03  0.30312624771E+03  0.42792037298E+03  0.12700000000E+03 0.  0.
   -5000001    1    1    2    0    0  0.25254783921E+03 -0.10639977664E+03  0.23682544495E+03  0.38381846612E+03  0.12700000000E+03 0.  0.
<mgrwt>
<rscale>  0 0.60611229E+03</rscale>
<asrwt>0</asrwt>
<pdfrwt beam="1">  1        2 0.96549325E-01 0.60611229E+03</pdfrwt>
<pdfrwt beam="2">  1       -2 0.19413367E-01 0.60611229E+03</pdfrwt>
<totfact> 0.10587321E+03</totfact>
</mgrwt>
</event>
<event>
 4    1  0.1383574E-004  0.2745589E+03  0.7818608E-02  0.1098698E+00
         -2   -1    0    0    0  501 -0.00000000000E+00  0.00000000000E+00  0.34919070513E+02  0.34919070606E+02  0.25500000000E-02 0. -1.
          2   -1    0    0  501    0  0.00000000000E+00 -0.00000000000E+00 -0.53969501051E+03  0.53969501052E+03  0.25500000000E-02 0.  1.
    5000001    1    1    2    0    0  0.46180275746E+01 -0.43399970432E+02 -0.31201672867E+03  0.33968856705E+03  0.12700000000E+03 0.  0.
   -5000001    1    1    2    0    0 -0.46180275746E+01  0.43399970432E+02 -0.19275921133E+03  0.23492551408E+03  0.12700000000E+03 0.  0.
<mgrwt>
<rscale>  0 0.27455891E+03</rscale>
<asrwt>0</asrwt>
<pdfrwt beam="1">  1        2 0.77099282E-01 0.27455891E+03</pdfrwt>
<pdfrwt beam="2">  1       -2 0.49884390E-02 0.27455891E+03</pdfrwt>
<totfact> 0.12127465E+04</totfact>
</mgrwt>
</event>
<event>
 4    1  0.1383574E-004  0.3268943E+03  0.7818608E-02  0.1072519E+00
         -2   -1    0    0    0  501 -0.00000000000E+00  0.00000000000E+00  0.11201844334E+03  0.11201844337E+03  0.25500000000E-02 0. -1.
          2   -1    0    0  501    0  0.00000000000E+00 -0.00000000000E+00 -0.23848719707E+03  0.23848719708E+03  0.25500000000E-02 0.  1.
    5000001    1    1    2    0    0 -0.94812429641E+02  0.16699422365E+02 -0.10215640858E+03  0.18929659093E+03  0.12700000000E+03 0.  0.
   -5000001    1    1    2    0    0  0.94812429641E+02 -0.16699422365E+02 -0.24312345142E+02  0.16120904952E+03  0.12700000000E+03 0.  0.
<mgrwt>
<rscale>  0 0.32689426E+03</rscale>
<asrwt>0</asrwt>
<pdfrwt beam="1">  1        2 0.34069599E-01 0.32689426E+03</pdfrwt>
<pdfrwt beam="2">  1       -2 0.16002635E-01 0.32689426E+03</pdfrwt>
<totfact> 0.46857575E+03</totfact>
</mgrwt>
</event>
<event>
 4    1  0.1383574E-004  0.3262237E+03  0.7818608E-02  0.1072820E+00
         -2   -1    0    0    0  501 -0.00000000000E+00  0.00000000000E+00  0.14848921609E+03  0.14848921611E+03  0.25500000000E-02 0. -1.
          2   -1    0    0  501    0  0.00000000000E+00 -0.00000000000E+00 -0.17917445240E+03  0.17917445242E+03  0.25500000000E-02 0.  1.
    5000001    1    1    2    0    0 -0.59932937158E+02  0.25110426926E+02 -0.94773824549E+02  0.17127045372E+03  0.12700000000E+03 0.  0.
   -5000001    1    1    2    0    0  0.59932937158E+02 -0.25110426926E+02  0.64088588233E+02  0.15639321481E+03  0.12700000000E+03 0.  0.
<mgrwt>
<rscale>  0 0.32622369E+03</rscale>
<asrwt>0</asrwt>
<pdfrwt beam="1">  1        2 0.25596350E-01 0.32622369E+03</pdfrwt>
<pdfrwt beam="2">  1       -2 0.21212745E-01 0.32622369E+03</pdfrwt>
<totfact> 0.39813052E+03</totfact>
</mgrwt>
</event>
<event>
 4    1  0.1383574E-004  0.4065588E+03  0.7818608E-02  0.1041532E+00
          2   -1    0    0  501    0  0.00000000000E+00  0.00000000000E+00  0.41577795336E+02  0.41577795414E+02  0.25500000000E-02 0.  1.
         -2   -1    0    0    0  501 -0.00000000000E+00 -0.00000000000E+00 -0.99386023923E+03  0.99386023923E+03  0.25500000000E-02 0. -1.
    5000001    1    1    2    0    0 -0.13702630144E+03  0.65465556087E+02 -0.35855656201E+03  0.40957753171E+03  0.12700000000E+03 0.  0.
   -5000001    1    1    2    0    0  0.13702630144E+03 -0.65465556087E+02 -0.59372588188E+03  0.62586050294E+03  0.12700000000E+03 0.  0.
<mgrwt>
<rscale>  0 0.40655882E+03</rscale>
<asrwt>0</asrwt>
<pdfrwt beam="1">  1        2 0.59396856E-02 0.40655882E+03</pdfrwt>
<pdfrwt beam="2">  1       -2 0.14198002E+00 0.40655882E+03</pdfrwt>
<totfact> 0.45965733E+02</totfact>
</mgrwt>
</event>
<event>
 4    1  0.1383574E-004  0.3179697E+03  0.7818608E-02  0.1076588E+00
          2   -1    0    0  501    0  0.00000000000E+00  0.00000000000E+00  0.19923753509E+04  0.19923753509E+04  0.25500000000E-02 0.  1.
         -2   -1    0    0    0  501 -0.00000000000E+00 -0.00000000000E+00 -0.12686455853E+02  0.12686456109E+02  0.25500000000E-02 0. -1.
    5000001    1    1    2    0    0 -0.78387376650E+02 -0.46961746671E+02  0.81180160885E+03  0.82674109526E+03  0.12700000000E+03 0.  0.
   -5000001    1    1    2    0    0  0.78387376650E+02  0.46961746671E+02  0.11678872862E+04  0.11783207117E+04  0.12700000000E+03 0.  0.
<mgrwt>
<rscale>  0 0.31796970E+03</rscale>
<asrwt>0</asrwt>
<pdfrwt beam="1">  1        2 0.28462488E+00 0.31796970E+03</pdfrwt>
<pdfrwt beam="2">  1       -2 0.18123519E-02 0.31796970E+03</pdfrwt>
<totfact> 0.79771213E+03</totfact>
</mgrwt>
</event>
<event>
 4    1  0.1383574E-004  0.3209281E+03  0.7818608E-02  0.1075223E+00
         -2   -1    0    0    0  501 -0.00000000000E+00  0.00000000000E+00  0.14105641303E+03  0.14105641306E+03  0.25500000000E-02 0. -1.
          2   -1    0    0  501    0  0.00000000000E+00 -0.00000000000E+00 -0.18254189458E+03  0.18254189460E+03  0.25500000000E-02 0.  1.
    5000001    1    1    2    0    0  0.42427294515E+01  0.51691140578E+02 -0.10468037252E+03  0.17256000452E+03  0.12700000000E+03 0.  0.
   -5000001    1    1    2    0    0 -0.42427294515E+01 -0.51691140578E+02  0.63194890981E+02  0.15103830313E+03  0.12700000000E+03 0.  0.
<mgrwt>
<rscale>  0 0.32092806E+03</rscale>
<asrwt>0</asrwt>
<pdfrwt beam="1">  1        2 0.26077413E-01 0.32092806E+03</pdfrwt>
<pdfrwt beam="2">  1       -2 0.20150916E-01 0.32092806E+03</pdfrwt>
<totfact> 0.42582789E+03</totfact>
</mgrwt>
</event>
<event>
 4    1  0.1383574E-004  0.4944717E+03  0.7818608E-02  0.1015232E+00
         -2   -1    0    0    0  501 -0.00000000000E+00  0.00000000000E+00  0.15078402326E+03  0.15078402329E+03  0.25500000000E-02 0. -1.
          2   -1    0    0  501    0  0.00000000000E+00 -0.00000000000E+00 -0.40538492726E+03  0.40538492727E+03  0.25500000000E-02 0.  1.
    5000001    1    1    2    0    0  0.16544655324E+03  0.14777049345E+02  0.21091507431E+02  0.21015416925E+03  0.12700000000E+03 0.  0.
   -5000001    1    1    2    0    0 -0.16544655324E+03 -0.14777049345E+02 -0.27569241143E+03  0.34601478131E+03  0.12700000000E+03 0.  0.
<mgrwt>
<rscale>  0 0.49447172E+03</rscale>
<asrwt>0</asrwt>
<pdfrwt beam="1">  1        2 0.57912132E-01 0.49447172E+03</pdfrwt>
<pdfrwt beam="2">  1       -2 0.21540575E-01 0.49447172E+03</pdfrwt>
<totfact> 0.15888549E+03</totfact>
</mgrwt>
</event>
<event>
 4    1  0.1383574E-004  0.4643220E+03  0.7818608E-02  0.1023535E+00
         -2   -1    0    0    0  501 -0.00000000000E+00  0.00000000000E+00  0.42414269260E+02  0.42414269337E+02  0.25500000000E-02 0. -1.
          2   -1    0    0  501    0  0.00000000000E+00 -0.00000000000E+00 -0.12707687137E+04  0.12707687137E+04  0.25500000000E-02 0.  1.
    5000001    1    1    2    0    0  0.61632885160E+01  0.10449504830E+03 -0.10772773040E+04  0.10897763949E+04  0.12700000000E+03 0.  0.
   -5000001    1    1    2    0    0 -0.61632885160E+01 -0.10449504830E+03 -0.15107714044E+03  0.22340658811E+03  0.12700000000E+03 0.  0.
<mgrwt>
<rscale>  0 0.46432199E+03</rscale>
<asrwt>0</asrwt>
<pdfrwt beam="1">  1        2 0.18153836E+00 0.46432199E+03</pdfrwt>
<pdfrwt beam="2">  1       -2 0.60591821E-02 0.46432199E+03</pdfrwt>
<totfact> 0.29977621E+03</totfact>
</mgrwt>
</event>
<event>
 4    1  0.1383574E-004  0.4467693E+03  0.7818608E-02  0.1028690E+00
          2   -1    0    0  501    0  0.00000000000E+00  0.00000000000E+00  0.56486650690E+03  0.56486650691E+03  0.25500000000E-02 0.  1.
         -2   -1    0    0    0  501 -0.00000000000E+00 -0.00000000000E+00 -0.88340694505E+02  0.88340694542E+02  0.25500000000E-02 0. -1.
    5000001    1    1    2    0    0 -0.58402706217E+02  0.17421686859E+03  0.24272308694E+03  0.32985737877E+03  0.12700000000E+03 0.  0.
   -5000001    1    1    2    0    0  0.58402706217E+02 -0.17421686859E+03  0.23380272546E+03  0.32334982268E+03  0.12700000000E+03 0.  0.
<mgrwt>
<rscale>  0 0.44676929E+03</rscale>
<asrwt>0</asrwt>
<pdfrwt beam="1">  1        2 0.80695216E-01 0.44676929E+03</pdfrwt>
<pdfrwt beam="2">  1       -2 0.12620099E-01 0.44676929E+03</pdfrwt>
<totfact> 0.27042774E+03</totfact>
</mgrwt>
</event>
<event>
 4    1  0.1383574E-004  0.4480180E+03  0.7818608E-02  0.1028315E+00
          2   -1    0    0  501    0  0.00000000000E+00  0.00000000000E+00  0.22096586545E+04  0.22096586545E+04  0.25500000000E-02 0.  1.
         -2   -1    0    0    0  501 -0.00000000000E+00 -0.00000000000E+00 -0.22709400449E+02  0.22709400592E+02  0.25500000000E-02 0. -1.
    5000001    1    1    2    0    0  0.16428718907E+03 -0.78941163551E+02  0.95000599237E+03  0.97563434407E+03  0.12700000000E+03 0.  0.
   -5000001    1    1    2    0    0 -0.16428718907E+03  0.78941163551E+02  0.12369432616E+04  0.12567337110E+04  0.12700000000E+03 0.  0.
<mgrwt>
<rscale>  0 0.44801796E+03</rscale>
<asrwt>0</asrwt>
<pdfrwt beam="1">  1        2 0.31566543E+00 0.44801796E+03</pdfrwt>
<pdfrwt beam="2">  1       -2 0.32442010E-02 0.44801796E+03</pdfrwt>
<totfact> 0.26066120E+03</totfact>
</mgrwt>
</event>
<event>
 4    1  0.1383574E-004  0.5367037E+03  0.7818608E-02  0.1004619E+00
          2   -1    0    0  501    0  0.00000000000E+00  0.00000000000E+00  0.96559114867E+03  0.96559114867E+03  0.25500000000E-02 0.  1.
         -2   -1    0    0    0  501 -0.00000000000E+00 -0.00000000000E+00 -0.74578896693E+02  0.74578896737E+02  0.25500000000E-02 0. -1.
    5000001    1    1    2    0    0 -0.38777355305E+02 -0.17697152881E+03  0.73981943666E+03  0.77219453776E+03  0.12700000000E+03 0.  0.
   -5000001    1    1    2    0    0  0.38777355305E+02  0.17697152881E+03  0.15119281531E+03  0.26797550764E+03  0.12700000000E+03 0.  0.
<mgrwt>
<rscale>  0 0.53670373E+03</rscale>
<asrwt>0</asrwt>
<pdfrwt beam="1">  1        2 0.13794159E+00 0.53670373E+03</pdfrwt>
<pdfrwt beam="2">  1       -2 0.10654129E-01 0.53670373E+03</pdfrwt>
<totfact> 0.18317566E+03</totfact>
</mgrwt>
</event>
<event>
 4    1  0.1383574E-004  0.4062805E+03  0.7818608E-02  0.1041626E+00
          2   -1    0    0  501    0  0.00000000000E+00  0.00000000000E+00  0.16951184337E+03  0.16951184339E+03  0.25500000000E-02 0.  1.
         -2   -1    0    0    0  501 -0.00000000000E+00 -0.00000000000E+00 -0.24343994400E+03  0.24343994401E+03  0.25500000000E-02 0. -1.
    5000001    1    1    2    0    0 -0.11816847892E+03 -0.72646101382E+02 -0.11500838849E+03  0.22044766925E+03  0.12700000000E+03 0.  0.
   -5000001    1    1    2    0    0  0.11816847892E+03  0.72646101382E+02  0.41080287858E+02  0.19250411815E+03  0.12700000000E+03 0.  0.
<mgrwt>
<rscale>  0 0.40628046E+03</rscale>
<asrwt>0</asrwt>
<pdfrwt beam="1">  1        2 0.24215978E-01 0.40628046E+03</pdfrwt>
<pdfrwt beam="2">  1       -2 0.34777135E-01 0.40628046E+03</pdfrwt>
<totfact> 0.17477022E+03</totfact>
</mgrwt>
</event>
<event>
 4    1  0.1383574E-004  0.4821869E+03  0.7818608E-02  0.1018536E+00
          2   -1    0    0  501    0  0.00000000000E+00  0.00000000000E+00  0.19976341791E+04  0.19976341791E+04  0.25500000000E-02 0.  1.
         -2   -1    0    0    0  501 -0.00000000000E+00 -0.00000000000E+00 -0.29097445540E+02  0.29097445651E+02  0.25500000000E-02 0. -1.
    5000001    1    1    2    0    0  0.19579736126E+03  0.49149909212E+02  0.83597603524E+03  0.86933149704E+03  0.12700000000E+03 0.  0.
   -5000001    1    1    2    0    0 -0.19579736126E+03 -0.49149909212E+02  0.11325606983E+04  0.11574001277E+04  0.12700000000E+03 0.  0.
<mgrwt>
<rscale>  0 0.48218690E+03</rscale>
<asrwt>0</asrwt>
<pdfrwt beam="1">  1        2 0.28537636E+00 0.48218690E+03</pdfrwt>
<pdfrwt beam="2">  1       -2 0.41567773E-02 0.48218690E+03</pdfrwt>
<totfact> 0.22765111E+03</totfact>
</mgrwt>
</event>
<event>
 4    1  0.1383574E-004  0.4219913E+03  0.7818608E-02  0.1036420E+00
          2   -1    0    0  501    0  0.00000000000E+00  0.00000000000E+00  0.85152422177E+02  0.85152422215E+02  0.25500000000E-02 0.  1.
         -2   -1    0    0    0  501 -0.00000000000E+00 -0.00000000000E+00 -0.52281732764E+03  0.52281732765E+03  0.25500000000E-02 0. -1.
    5000001    1    1    2    0    0 -0.87552047002E+02 -0.13593986539E+03 -0.28709799465E+03  0.35312783304E+03  0.12700000000E+03 0.  0.
   -5000001    1    1    2    0    0  0.87552047002E+02  0.13593986539E+03 -0.15056691081E+03  0.25484191682E+03  0.12700000000E+03 0.  0.
<mgrwt>
<rscale>  0 0.42199129E+03</rscale>
<asrwt>0</asrwt>
<pdfrwt beam="1">  1        2 0.12164632E-01 0.42199129E+03</pdfrwt>
<pdfrwt beam="2">  1       -2 0.74688188E-01 0.42199129E+03</pdfrwt>
<totfact> 0.83911748E+02</totfact>
</mgrwt>
</event>
<event>
 4    1  0.1383574E-004  0.4525101E+03  0.7818608E-02  0.1026976E+00
         -2   -1    0    0    0  501 -0.00000000000E+00  0.00000000000E+00  0.17180061631E+03  0.17180061633E+03  0.25500000000E-02 0. -1.
          2   -1    0    0  501    0  0.00000000000E+00 -0.00000000000E+00 -0.29796951290E+03  0.29796951291E+03  0.25500000000E-02 0.  1.
    5000001    1    1    2    0    0 -0.80802560752E+02  0.16617348647E+03 -0.31601757231E+02  0.22642957512E+03  0.12700000000E+03 0.  0.
   -5000001    1    1    2    0    0  0.80802560752E+02 -0.16617348647E+03 -0.94567139362E+02  0.24334055412E+03  0.12700000000E+03 0.  0.
<mgrwt>
<rscale>  0 0.45251009E+03</rscale>
<asrwt>0</asrwt>
<pdfrwt beam="1">  1        2 0.42567073E-01 0.45251009E+03</pdfrwt>
<pdfrwt beam="2">  1       -2 0.24542945E-01 0.45251009E+03</pdfrwt>
<totfact> 0.17684397E+03</totfact>
</mgrwt>
</event>
<event>
 4    1  0.1383574E-004  0.3037134E+03  0.7818608E-02  0.1083399E+00
         -2   -1    0    0    0  501 -0.00000000000E+00  0.00000000000E+00  0.17479699362E+03  0.17479699364E+03  0.25500000000E-02 0. -1.
          2   -1    0    0  501    0  0.00000000000E+00 -0.00000000000E+00 -0.13192706113E+03  0.13192706115E+03  0.25500000000E-02 0.  1.
    5000001    1    1    2    0    0 -0.36748590825E+02  0.74701800975E+02  0.22240160678E+02  0.15347456709E+03  0.12700000000E+03 0.  0.
   -5000001    1    1    2    0    0  0.36748590825E+02 -0.74701800975E+02  0.20629771817E+02  0.15324948770E+03  0.12700000000E+03 0.  0.
<mgrwt>
<rscale>  0 0.30371338E+03</rscale>
<asrwt>0</asrwt>
<pdfrwt beam="1">  1        2 0.18846723E-01 0.30371338E+03</pdfrwt>
<pdfrwt beam="2">  1       -2 0.24970999E-01 0.30371338E+03</pdfrwt>
<totfact> 0.42315807E+03</totfact>
</mgrwt>
</event>
<event>
 4    1  0.1383574E-004  0.3762352E+03  0.7818608E-02  0.1052334E+00
          2   -1    0    0  501    0  0.00000000000E+00  0.00000000000E+00  0.20090282825E+03  0.20090282827E+03  0.25500000000E-02 0.  1.
         -2   -1    0    0    0  501 -0.00000000000E+00 -0.00000000000E+00 -0.17614605091E+03  0.17614605093E+03  0.25500000000E-02 0. -1.
    5000001    1    1    2    0    0  0.78083911676E+02  0.10382300506E+03 -0.36542402459E+02  0.18531233316E+03  0.12700000000E+03 0.  0.
   -5000001    1    1    2    0    0 -0.78083911676E+02 -0.10382300506E+03  0.61299179799E+02  0.19173654604E+03  0.12700000000E+03 0.  0.
<mgrwt>
<rscale>  0 0.37623524E+03</rscale>
<asrwt>0</asrwt>
<pdfrwt beam="1">  1        2 0.28700404E-01 0.37623524E+03</pdfrwt>
<pdfrwt beam="2">  1       -2 0.25163722E-01 0.37623524E+03</pdfrwt>
<totfact> 0.26047528E+03</totfact>
</mgrwt>
</event>
<event>
 4    1  0.1383574E-004  0.2976048E+03  0.7818608E-02  0.1086444E+00
          2   -1    0    0  501    0  0.00000000000E+00  0.00000000000E+00  0.18426613408E+04  0.18426613408E+04  0.25500000000E-02 0.  1.
         -2   -1    0    0    0  501 -0.00000000000E+00 -0.00000000000E+00 -0.12016396460E+02  0.12016396731E+02  0.25500000000E-02 0. -1.
    5000001    1    1    2    0    0  0.69270145547E+02 -0.15940438617E+02  0.72216024575E+03  0.73667962589E+03  0.12700000000E+03 0.  0.
   -5000001    1    1    2    0    0 -0.69270145547E+02  0.15940438617E+02  0.11084846986E+04  0.11179981116E+04  0.12700000000E+03 0.  0.
<mgrwt>
<rscale>  0 0.29760477E+03</rscale>
<asrwt>0</asrwt>
<pdfrwt beam="1">  1        2 0.26323743E+00 0.29760477E+03</pdfrwt>
<pdfrwt beam="2">  1       -2 0.17166275E-02 0.29760477E+03</pdfrwt>
<totfact> 0.10222719E+04</totfact>
</mgrwt>
</event>
<event>
 4    1  0.1383574E-004  0.4371714E+03  0.7818608E-02  0.1031618E+00
         -2   -1    0    0    0  501 -0.00000000000E+00  0.00000000000E+00  0.40043546881E+02  0.40043546962E+02  0.25500000000E-02 0. -1.
          2   -1    0    0  501    0  0.00000000000E+00 -0.00000000000E+00 -0.11931935964E+04  0.11931935964E+04  0.25500000000E-02 0.  1.
    5000001    1    1    2    0    0 -0.13838719105E+03  0.99447472637E+02 -0.72068894044E+03  0.75137365094E+03  0.12700000000E+03 0.  0.
   -5000001    1    1    2    0    0  0.13838719105E+03 -0.99447472637E+02 -0.43246110908E+03  0.48186349242E+03  0.12700000000E+03 0.  0.
<mgrwt>
<rscale>  0 0.43717138E+03</rscale>
<asrwt>0</asrwt>
<pdfrwt beam="1">  1        2 0.17045621E+00 0.43717138E+03</pdfrwt>
<pdfrwt beam="2">  1       -2 0.57205075E-02 0.43717138E+03</pdfrwt>
<totfact> 0.36151302E+03</totfact>
</mgrwt>
</event>
<event>
 4    1  0.1383574E-004  0.3773072E+03  0.7818608E-02  0.1051934E+00
         -2   -1    0    0    0  501 -0.00000000000E+00  0.00000000000E+00  0.19711198331E+04  0.19711198331E+04  0.25500000000E-02 0. -1.
          2   -1    0    0  501    0  0.00000000000E+00 -0.00000000000E+00 -0.18055817230E+02  0.18055817410E+02  0.25500000000E-02 0.  1.
    5000001    1    1    2    0    0 -0.10916033451E+03 -0.76524366127E+02  0.75985069285E+03  0.78184015800E+03  0.12700000000E+03 0.  0.
   -5000001    1    1    2    0    0  0.10916033451E+03  0.76524366127E+02  0.11932133231E+04  0.12073354926E+04  0.12700000000E+03 0.  0.
<mgrwt>
<rscale>  0 0.37730719E+03</rscale>
<asrwt>0</asrwt>
<pdfrwt beam="1">  1        2 0.25794026E-02 0.37730719E+03</pdfrwt>
<pdfrwt beam="2">  1       -2 0.28158853E+00 0.37730719E+03</pdfrwt>
<totfact> 0.17977941E+02</totfact>
</mgrwt>
</event>
<event>
 4    1  0.1383574E-004  0.3272990E+03  0.7818608E-02  0.1072338E+00
          2   -1    0    0  501    0  0.00000000000E+00  0.00000000000E+00  0.24327672670E+02  0.24327672804E+02  0.25500000000E-02 0.  1.
         -2   -1    0    0    0  501 -0.00000000000E+00 -0.00000000000E+00 -0.11008518790E+04  0.11008518790E+04  0.25500000000E-02 0. -1.
    5000001    1    1    2    0    0 -0.90560173727E+02 -0.39181874354E+02 -0.64229660829E+03  0.66212559032E+03  0.12700000000E+03 0.  0.
   -5000001    1    1    2    0    0  0.90560173727E+02  0.39181874354E+02 -0.43422759804E+03  0.46305396148E+03  0.12700000000E+03 0.  0.
<mgrwt>
<rscale>  0 0.32729903E+03</rscale>
<asrwt>0</asrwt>
<pdfrwt beam="1">  1        2 0.34753825E-02 0.32729903E+03</pdfrwt>
<pdfrwt beam="2">  1       -2 0.15726452E+00 0.32729903E+03</pdfrwt>
<totfact> 0.72196246E+02</totfact>
</mgrwt>
</event>
<event>
 4    1  0.1383574E-004  0.6350377E+03  0.7818608E-02  0.9835267E-01
          2   -1    0    0  501    0  0.00000000000E+00  0.00000000000E+00  0.26495319702E+04  0.26495319702E+04  0.25500000000E-02 0.  1.
         -2   -1    0    0    0  501 -0.00000000000E+00 -0.00000000000E+00 -0.38051327910E+02  0.38051327995E+02  0.25500000000E-02 0. -1.
    5000001    1    1    2    0    0 -0.29083541629E+03 -0.93463826339E+01  0.13229916104E+04  0.13605544441E+04  0.12700000000E+03 0.  0.
   -5000001    1    1    2    0    0  0.29083541629E+03  0.93463826339E+01  0.12884890319E+04  0.13270288541E+04  0.12700000000E+03 0.  0.
<mgrwt>
<rscale>  0 0.63503767E+03</rscale>
<asrwt>0</asrwt>
<pdfrwt beam="1">  1        2 0.37850454E+00 0.63503767E+03</pdfrwt>
<pdfrwt beam="2">  1       -2 0.54359044E-02 0.63503767E+03</pdfrwt>
<totfact> 0.69603619E+02</totfact>
</mgrwt>
</event>
<event>
 4    1  0.1383574E-004  0.3848705E+03  0.7818608E-02  0.1049148E+00
          2   -1    0    0  501    0  0.00000000000E+00  0.00000000000E+00  0.50547418286E+03  0.50547418287E+03  0.25500000000E-02 0.  1.
         -2   -1    0    0    0  501 -0.00000000000E+00 -0.00000000000E+00 -0.73260571155E+02  0.73260571200E+02  0.25500000000E-02 0. -1.
    5000001    1    1    2    0    0 -0.11899754265E+03  0.36935796009E+02  0.10583574189E+03  0.20701418416E+03  0.12700000000E+03 0.  0.
   -5000001    1    1    2    0    0  0.11899754265E+03 -0.36935796009E+02  0.32637786981E+03  0.37172056990E+03  0.12700000000E+03 0.  0.
<mgrwt>
<rscale>  0 0.38487051E+03</rscale>
<asrwt>0</asrwt>
<pdfrwt beam="1">  1        2 0.72210598E-01 0.38487051E+03</pdfrwt>
<pdfrwt beam="2">  1       -2 0.10465796E-01 0.38487051E+03</pdfrwt>
<totfact> 0.41495774E+03</totfact>
</mgrwt>
</event>
<event>
 4    1  0.1383574E-004  0.4234258E+03  0.7818608E-02  0.1035957E+00
          2   -1    0    0  501    0  0.00000000000E+00  0.00000000000E+00  0.28580419514E+03  0.28580419515E+03  0.25500000000E-02 0.  1.
         -2   -1    0    0    0  501 -0.00000000000E+00 -0.00000000000E+00 -0.15682885092E+03  0.15682885095E+03  0.25500000000E-02 0. -1.
    5000001    1    1    2    0    0  0.71664045832E+02  0.15225059093E+03  0.44180580725E+02  0.21539940022E+03  0.12700000000E+03 0.  0.
   -5000001    1    1    2    0    0 -0.71664045832E+02 -0.15225059093E+03  0.84794763489E+02  0.22723364587E+03  0.12700000000E+03 0.  0.
<mgrwt>
<rscale>  0 0.42342576E+03</rscale>
<asrwt>0</asrwt>
<pdfrwt beam="1">  1        2 0.40829170E-01 0.42342576E+03</pdfrwt>
<pdfrwt beam="2">  1       -2 0.22404122E-01 0.42342576E+03</pdfrwt>
<totfact> 0.21730217E+03</totfact>
</mgrwt>
</event>
<event>
 4    1  0.1383574E-004  0.3352809E+03  0.7818608E-02  0.1068824E+00
         -2   -1    0    0    0  501 -0.00000000000E+00  0.00000000000E+00  0.13639632166E+03  0.13639632168E+03  0.25500000000E-02 0. -1.
          2   -1    0    0  501    0  0.00000000000E+00 -0.00000000000E+00 -0.20604164349E+03  0.20604164351E+03  0.25500000000E-02 0.  1.
    5000001    1    1    2    0    0  0.41476257688E+02 -0.87569031018E+02 -0.86757973246E+02  0.18178163017E+03  0.12700000000E+03 0.  0.
   -5000001    1    1    2    0    0 -0.41476257688E+02  0.87569031018E+02  0.17112651412E+02  0.16065633502E+03  0.12700000000E+03 0.  0.
<mgrwt>
<rscale>  0 0.33528091E+03</rscale>
<asrwt>0</asrwt>
<pdfrwt beam="1">  1        2 0.29434520E-01 0.33528091E+03</pdfrwt>
<pdfrwt beam="2">  1       -2 0.19485189E-01 0.33528091E+03</pdfrwt>
<totfact> 0.39475163E+03</totfact>
</mgrwt>
</event>
<event>
 4    1  0.1383574E-004  0.2869260E+03  0.7818608E-02  0.1091965E+00
          2   -1    0    0  501    0  0.00000000000E+00  0.00000000000E+00  0.38219937307E+03  0.38219937308E+03  0.25500000000E-02 0.  1.
         -2   -1    0    0    0  501 -0.00000000000E+00 -0.00000000000E+00 -0.53850521324E+02  0.53850521384E+02  0.25500000000E-02 0. -1.
    5000001    1    1    2    0    0  0.64189159778E+02 -0.18046174292E+02  0.16023399747E+03  0.21505777500E+03  0.12700000000E+03 0.  0.
   -5000001    1    1    2    0    0 -0.64189159778E+02  0.18046174292E+02  0.16811485427E+03  0.22099211947E+03  0.12700000000E+03 0.  0.
<mgrwt>
<rscale>  0 0.28692602E+03</rscale>
<asrwt>0</asrwt>
<pdfrwt beam="1">  1        2 0.54599911E-01 0.28692602E+03</pdfrwt>
<pdfrwt beam="2">  1       -2 0.76929315E-02 0.28692602E+03</pdfrwt>
<totfact> 0.91065513E+03</totfact>
</mgrwt>
</event>
<event>
 4    1  0.1383574E-004  0.3802784E+03  0.7818608E-02  0.1050831E+00
         -2   -1    0    0    0  501 -0.00000000000E+00  0.00000000000E+00  0.24060750523E+02  0.24060750658E+02  0.25500000000E-02 0. -1.
          2   -1    0    0  501    0  0.00000000000E+00 -0.00000000000E+00 -0.15025684394E+04  0.15025684394E+04  0.25500000000E-02 0.  1.
    5000001    1    1    2    0    0 -0.84108039639E+02  0.10160535415E+03 -0.53352809691E+03  0.56407361268E+03  0.12700000000E+03 0.  0.
   -5000001    1    1    2    0    0  0.84108039639E+02 -0.10160535415E+03 -0.94497959201E+03  0.96255557742E+03  0.12700000000E+03 0.  0.
<mgrwt>
<rscale>  0 0.38027845E+03</rscale>
<asrwt>0</asrwt>
<pdfrwt beam="1">  1        2 0.21465258E+00 0.38027845E+03</pdfrwt>
<pdfrwt beam="2">  1       -2 0.34372510E-02 0.38027845E+03</pdfrwt>
<totfact> 0.53926744E+03</totfact>
</mgrwt>
</event>
<event>
 4    1  0.1383574E-004  0.4177429E+03  0.7818608E-02  0.1037803E+00
         -2   -1    0    0    0  501 -0.00000000000E+00  0.00000000000E+00  0.60983657127E+03  0.60983657127E+03  0.25500000000E-02 0. -1.
          2   -1    0    0  501    0  0.00000000000E+00 -0.00000000000E+00 -0.71539300688E+02  0.71539300733E+02  0.25500000000E-02 0.  1.
    5000001    1    1    2    0    0 -0.14194444221E+03 -0.78855540893E+02  0.21427367768E+03  0.29733588743E+03  0.12700000000E+03 0.  0.
   -5000001    1    1    2    0    0  0.14194444221E+03  0.78855540893E+02  0.32402359289E+03  0.38403998458E+03  0.12700000000E+03 0.  0.
<mgrwt>
<rscale>  0 0.41774290E+03</rscale>
<asrwt>0</asrwt>
<pdfrwt beam="1">  1        2 0.10219900E-01 0.41774290E+03</pdfrwt>
<pdfrwt beam="2">  1       -2 0.87119508E-01 0.41774290E+03</pdfrwt>
<totfact> 0.73939017E+02</totfact>
</mgrwt>
</event>
<event>
 4    1  0.1383574E-004  0.4132451E+03  0.7818608E-02  0.1039287E+00
         -2   -1    0    0    0  501 -0.00000000000E+00  0.00000000000E+00  0.33125464694E+02  0.33125464792E+02  0.25500000000E-02 0. -1.
          2   -1    0    0  501    0  0.00000000000E+00 -0.00000000000E+00 -0.12888237665E+04  0.12888237665E+04  0.25500000000E-02 0.  1.
    5000001    1    1    2    0    0  0.16064761867E+03 -0.13492291743E+02 -0.55119535418E+03  0.58816240766E+03  0.12700000000E+03 0.  0.
   -5000001    1    1    2    0    0 -0.16064761867E+03  0.13492291743E+02 -0.70450294761E+03  0.73378682361E+03  0.12700000000E+03 0.  0.
<mgrwt>
<rscale>  0 0.41324514E+03</rscale>
<asrwt>0</asrwt>
<pdfrwt beam="1">  1        2 0.18411765E+00 0.41324514E+03</pdfrwt>
<pdfrwt beam="2">  1       -2 0.47322101E-02 0.41324514E+03</pdfrwt>
<totfact> 0.42930283E+03</totfact>
</mgrwt>
</event>
<event>
 4    1  0.1383574E-004  0.5047492E+03  0.7818608E-02  0.1012547E+00
          2   -1    0    0  501    0  0.00000000000E+00  0.00000000000E+00  0.81437303813E+03  0.81437303813E+03  0.25500000000E-02 0.  1.
         -2   -1    0    0    0  501 -0.00000000000E+00 -0.00000000000E+00 -0.78211022364E+02  0.78211022405E+02  0.25500000000E-02 0. -1.
    5000001    1    1    2    0    0 -0.19634964144E+03 -0.94710670660E+02  0.35680563517E+03  0.43699262479E+03  0.12700000000E+03 0.  0.
   -5000001    1    1    2    0    0  0.19634964144E+03  0.94710670660E+02  0.37935638059E+03  0.45559143575E+03  0.12700000000E+03 0.  0.
<mgrwt>
<rscale>  0 0.50474924E+03</rscale>
<asrwt>0</asrwt>
<pdfrwt beam="1">  1        2 0.11633900E+00 0.50474924E+03</pdfrwt>
<pdfrwt beam="2">  1       -2 0.11173003E-01 0.50474924E+03</pdfrwt>
<totfact> 0.21244090E+03</totfact>
</mgrwt>
</event>
<event>
 4    1  0.1383574E-004  0.3253508E+03  0.7818608E-02  0.1073213E+00
          2   -1    0    0  501    0  0.00000000000E+00  0.00000000000E+00  0.19900782036E+03  0.19900782038E+03  0.25500000000E-02 0.  1.
         -2   -1    0    0    0  501 -0.00000000000E+00 -0.00000000000E+00 -0.13297613349E+03  0.13297613351E+03  0.25500000000E-02 0. -1.
    5000001    1    1    2    0    0 -0.49621379233E+02 -0.66696081796E+02 -0.26688969356E+02  0.15411667557E+03  0.12700000000E+03 0.  0.
   -5000001    1    1    2    0    0  0.49621379233E+02  0.66696081796E+02  0.92720656229E+02  0.17786727832E+03  0.12700000000E+03 0.  0.
<mgrwt>
<rscale>  0 0.32535083E+03</rscale>
<asrwt>0</asrwt>
<pdfrwt beam="1">  1        2 0.28429689E-01 0.32535083E+03</pdfrwt>
<pdfrwt beam="2">  1       -2 0.18996591E-01 0.32535083E+03</pdfrwt>
<totfact> 0.42807218E+03</totfact>
</mgrwt>
</event>
<event>
 4    1  0.1383574E-004  0.1568973E+04  0.7818608E-02  0.8839839E-01
         -2   -1    0    0    0  501 -0.00000000000E+00  0.00000000000E+00  0.28790012530E+03  0.28790012531E+03  0.25500000000E-02 0. -1.
          2   -1    0    0  501    0  0.00000000000E+00 -0.00000000000E+00 -0.21376122551E+04  0.21376122551E+04  0.25500000000E-02 0.  1.
    5000001    1    1    2    0    0 -0.72947601414E+03  0.86543001548E+01 -0.52446570569E+03  0.90741579695E+03  0.12700000000E+03 0.  0.
   -5000001    1    1    2    0    0  0.72947601414E+03 -0.86543001548E+01 -0.13252464242E+04  0.15180965835E+04  0.12700000000E+03 0.  0.
<mgrwt>
<rscale>  0 0.15689727E+04</rscale>
<asrwt>0</asrwt>
<pdfrwt beam="1">  1        2 0.30537317E+00 0.15689727E+04</pdfrwt>
<pdfrwt beam="2">  1       -2 0.41128591E-01 0.15689727E+04</pdfrwt>
<totfact> 0.36736431E+01</totfact>
</mgrwt>
</event>
<event>
 4    1  0.1383574E-004  0.3535327E+03  0.7818608E-02  0.1061174E+00
          2   -1    0    0  501    0  0.00000000000E+00  0.00000000000E+00  0.15868885711E+04  0.15868885711E+04  0.25500000000E-02 0.  1.
         -2   -1    0    0    0  501 -0.00000000000E+00 -0.00000000000E+00 -0.19690323350E+02  0.19690323515E+02  0.25500000000E-02 0. -1.
    5000001    1    1    2    0    0 -0.72819580124E+02 -0.66608123390E+02  0.11168593313E+04  0.11283807422E+04  0.12700000000E+03 0.  0.
   -5000001    1    1    2    0    0  0.72819580124E+02  0.66608123390E+02  0.45033891645E+03  0.47819815247E+03  0.12700000000E+03 0.  0.
<mgrwt>
<rscale>  0 0.35353274E+03</rscale>
<asrwt>0</asrwt>
<pdfrwt beam="1">  1        2 0.22669845E+00 0.35353274E+03</pdfrwt>
<pdfrwt beam="2">  1       -2 0.28129023E-02 0.35353274E+03</pdfrwt>
<totfact> 0.66000884E+03</totfact>
</mgrwt>
</event>
<event>
 4    1  0.1383574E-004  0.3620373E+03  0.7818608E-02  0.1057780E+00
          2   -1    0    0  501    0  0.00000000000E+00  0.00000000000E+00  0.19603637520E+04  0.19603637520E+04  0.25500000000E-02 0.  1.
         -2   -1    0    0    0  501 -0.00000000000E+00 -0.00000000000E+00 -0.16715140286E+02  0.16715140480E+02  0.25500000000E-02 0. -1.
    5000001    1    1    2    0    0 -0.96853468753E+02  0.35122835210E+02  0.54795412110E+03  0.57183645108E+03  0.12700000000E+03 0.  0.
   -5000001    1    1    2    0    0  0.96853468753E+02 -0.35122835210E+02  0.13956944906E+04  0.14052424414E+04  0.12700000000E+03 0.  0.
<mgrwt>
<rscale>  0 0.36203732E+03</rscale>
<asrwt>0</asrwt>
<pdfrwt beam="1">  1        2 0.28005187E+00 0.36203732E+03</pdfrwt>
<pdfrwt beam="2">  1       -2 0.23878780E-02 0.36203732E+03</pdfrwt>
<totfact> 0.54991361E+03</totfact>
</mgrwt>
</event>
<event>
 4    1  0.1383574E-004  0.3635408E+03  0.7818608E-02  0.1057191E+00
          2   -1    0    0  501    0  0.00000000000E+00  0.00000000000E+00  0.83199800991E+03  0.83199800991E+03  0.25500000000E-02 0.  1.
         -2   -1    0    0    0  501 -0.00000000000E+00 -0.00000000000E+00 -0.39712209340E+02  0.39712209421E+02  0.25500000000E-02 0. -1.
    5000001    1    1    2    0    0  0.83280245480E+01 -0.12828213176E+03  0.34904406854E+03  0.39304760921E+03  0.12700000000E+03 0.  0.
   -5000001    1    1    2    0    0 -0.83280245480E+01  0.12828213176E+03  0.44324173202E+03  0.47866261012E+03  0.12700000000E+03 0.  0.
<mgrwt>
<rscale>  0 0.36354080E+03</rscale>
<asrwt>0</asrwt>
<pdfrwt beam="1">  1        2 0.11885685E+00 0.36354080E+03</pdfrwt>
<pdfrwt beam="2">  1       -2 0.56731732E-02 0.36354080E+03</pdfrwt>
<totfact> 0.60189856E+03</totfact>
</mgrwt>
</event>
<event>
 4    1  0.1383574E-004  0.3364864E+03  0.7818608E-02  0.1068302E+00
         -2   -1    0    0    0  501 -0.00000000000E+00  0.00000000000E+00  0.22382197489E+02  0.22382197634E+02  0.25500000000E-02 0.  1.
          2   -1    0    0  501    0  0.00000000000E+00 -0.00000000000E+00 -0.12646555638E+04  0.12646555638E+04  0.25500000000E-02 0. -1.
    5000001    1    1    2    0    0  0.74952843664E+02 -0.80160717808E+02 -0.66526474270E+03  0.68611212446E+03  0.12700000000E+03 0.  0.
   -5000001    1    1    2    0    0 -0.74952843664E+02  0.80160717808E+02 -0.57700862362E+03  0.60092563698E+03  0.12700000000E+03 0.  0.
<mgrwt>
<rscale>  0 0.33648638E+03</rscale>
<asrwt>0</asrwt>
<pdfrwt beam="1">  1        2 0.18066504E+00 0.33648638E+03</pdfrwt>
<pdfrwt beam="2">  1       -2 0.31974576E-02 0.33648638E+03</pdfrwt>
<totfact> 0.79939532E+03</totfact>
</mgrwt>
</event>
<event>
 4    1  0.1383574E-004  0.7961968E+03  0.7818608E-02  0.9565538E-01
         -2   -1    0    0    0  501 -0.00000000000E+00  0.00000000000E+00  0.86279521472E+03  0.86279521473E+03  0.25500000000E-02 0. -1.
          2   -1    0    0  501    0  0.00000000000E+00 -0.00000000000E+00 -0.18368478400E+03  0.18368478402E+03  0.25500000000E-02 0.  1.
    5000001    1    1    2    0    0  0.35486058610E+02 -0.26270074119E+03  0.69243366729E+03  0.75223953856E+03  0.12700000000E+03 0.  0.
   -5000001    1    1    2    0    0 -0.35486058610E+02  0.26270074119E+03 -0.13323236564E+02  0.29424046019E+03  0.12700000000E+03 0.  0.
<mgrwt>
<rscale>  0 0.79619684E+03</rscale>
<asrwt>0</asrwt>
<pdfrwt beam="1">  1        2 0.26240684E-01 0.79619684E+03</pdfrwt>
<pdfrwt beam="2">  1       -2 0.12325646E+00 0.79619684E+03</pdfrwt>
<totfact> 0.10374528E+02</totfact>
</mgrwt>
</event>
<event>
 4    1  0.1383574E-004  0.3396645E+03  0.7818608E-02  0.1066939E+00
          2   -1    0    0  501    0  0.00000000000E+00  0.00000000000E+00  0.79203770878E+03  0.79203770878E+03  0.25500000000E-02 0.  1.
         -2   -1    0    0    0  501 -0.00000000000E+00 -0.00000000000E+00 -0.36416179287E+02  0.36416179376E+02  0.25500000000E-02 0. -1.
    5000001    1    1    2    0    0  0.61665129582E+02 -0.85672054313E+02  0.47450549284E+03  0.50242089112E+03  0.12700000000E+03 0.  0.
   -5000001    1    1    2    0    0 -0.61665129582E+02  0.85672054313E+02  0.28111603665E+03  0.32603299704E+03  0.12700000000E+03 0.  0.
<mgrwt>
<rscale>  0 0.33966447E+03</rscale>
<asrwt>0</asrwt>
<pdfrwt beam="1">  1        2 0.11314823E+00 0.33966447E+03</pdfrwt>
<pdfrwt beam="2">  1       -2 0.52023119E-02 0.33966447E+03</pdfrwt>
<totfact> 0.73037644E+03</totfact>
</mgrwt>
</event>
<event>
 4    1  0.1383574E-004  0.1159759E+04  0.7818608E-02  0.9148828E-01
         -2   -1    0    0    0  501 -0.00000000000E+00  0.00000000000E+00  0.16586406264E+03  0.16586406266E+03  0.25500000000E-02 0. -1.
          2   -1    0    0  501    0  0.00000000000E+00 -0.00000000000E+00 -0.20273228221E+04  0.20273228221E+04  0.25500000000E-02 0.  1.
    5000001    1    1    2    0    0  0.45153846175E+03  0.34009360945E+03 -0.88517244278E+03  0.10579271710E+04  0.12700000000E+03 0.  0.
   -5000001    1    1    2    0    0 -0.45153846175E+03 -0.34009360945E+03 -0.97628631672E+03  0.11352597138E+04  0.12700000000E+03 0.  0.
<mgrwt>
<rscale>  0 0.11597586E+04</rscale>
<asrwt>0</asrwt>
<pdfrwt beam="1">  1        2 0.28961753E+00 0.11597586E+04</pdfrwt>
<pdfrwt beam="2">  1       -2 0.23694867E-01 0.11597586E+04</pdfrwt>
<totfact> 0.12154399E+02</totfact>
</mgrwt>
</event>
<event>
 4    1  0.1383574E-004  0.3362653E+03  0.7818608E-02  0.1068398E+00
          2   -1    0    0  501    0  0.00000000000E+00  0.00000000000E+00  0.24003657499E+03  0.24003657501E+03  0.25500000000E-02 0.  1.
         -2   -1    0    0    0  501 -0.00000000000E+00 -0.00000000000E+00 -0.11776780590E+03  0.11776780593E+03  0.25500000000E-02 0. -1.
    5000001    1    1    2    0    0  0.73185279905E+02  0.70323480622E+02  0.15515080530E+02  0.16331318026E+03  0.12700000000E+03 0.  0.
   -5000001    1    1    2    0    0 -0.73185279905E+02 -0.70323480622E+02  0.10675368856E+03  0.19449120068E+03  0.12700000000E+03 0.  0.
<mgrwt>
<rscale>  0 0.33626526E+03</rscale>
<asrwt>0</asrwt>
<pdfrwt beam="1">  1        2 0.34290938E-01 0.33626526E+03</pdfrwt>
<pdfrwt beam="2">  1       -2 0.16823973E-01 0.33626526E+03</pdfrwt>
<totfact> 0.42816979E+03</totfact>
</mgrwt>
</event>
<event>
 4    1  0.1383574E-004  0.3346567E+03  0.7818608E-02  0.1069095E+00
          2   -1    0    0  501    0  0.00000000000E+00  0.00000000000E+00  0.40995382077E+03  0.40995382077E+03  0.25500000000E-02 0.  1.
         -2   -1    0    0    0  501 -0.00000000000E+00 -0.00000000000E+00 -0.68297412104E+02  0.68297412151E+02  0.25500000000E-02 0. -1.
    5000001    1    1    2    0    0 -0.13328189249E+02  0.55101214357E+02  0.30378641088E+03  0.33410921551E+03  0.12700000000E+03 0.  0.
   -5000001    1    1    2    0    0  0.13328189249E+02 -0.55101214357E+02  0.37869997779E+02  0.14414201741E+03  0.12700000000E+03 0.  0.
<mgrwt>
<rscale>  0 0.33465675E+03</rscale>
<asrwt>0</asrwt>
<pdfrwt beam="1">  1        2 0.58564831E-01 0.33465675E+03</pdfrwt>
<pdfrwt beam="2">  1       -2 0.97567733E-02 0.33465675E+03</pdfrwt>
<totfact> 0.58322868E+03</totfact>
</mgrwt>
</event>
<event>
 4    1  0.1383574E-004  0.4724990E+03  0.7818608E-02  0.1021217E+00
         -2   -1    0    0    0  501 -0.00000000000E+00  0.00000000000E+00  0.32778308242E+03  0.32778308243E+03  0.25500000000E-02 0. -1.
          2   -1    0    0  501    0  0.00000000000E+00 -0.00000000000E+00 -0.17027667910E+03  0.17027667912E+03  0.25500000000E-02 0.  1.
    5000001    1    1    2    0    0 -0.33121827065E+01 -0.25407483786E+02 -0.12948981513E+03  0.18317511570E+03  0.12700000000E+03 0.  0.
   -5000001    1    1    2    0    0  0.33121827065E+01  0.25407483786E+02  0.28699621845E+03  0.31488464585E+03  0.12700000000E+03 0.  0.
<mgrwt>
<rscale>  0 0.47249895E+03</rscale>
<asrwt>0</asrwt>
<pdfrwt beam="1">  1        2 0.24325240E-01 0.47249895E+03</pdfrwt>
<pdfrwt beam="2">  1       -2 0.46826155E-01 0.47249895E+03</pdfrwt>
<totfact> 0.97945081E+02</totfact>
</mgrwt>
</event>
<event>
 4    1  0.1383574E-004  0.3714080E+03  0.7818608E-02  0.1054156E+00
          2   -1    0    0  501    0  0.00000000000E+00  0.00000000000E+00  0.22381458751E+04  0.22381458751E+04  0.25500000000E-02 0.  1.
         -2   -1    0    0    0  501 -0.00000000000E+00 -0.00000000000E+00 -0.15408276451E+02  0.15408276662E+02  0.25500000000E-02 0. -1.
    5000001    1    1    2    0    0 -0.11147847010E+03 -0.69104410249E+02  0.90523992249E+03  0.92346693827E+03  0.12700000000E+03 0.  0.
   -5000001    1    1    2    0    0  0.11147847010E+03  0.69104410249E+02  0.13174976762E+04  0.13300872135E+04  0.12700000000E+03 0.  0.
<mgrwt>
<rscale>  0 0.37140797E+03</rscale>
<asrwt>0</asrwt>
<pdfrwt beam="1">  1        2 0.31973541E+00 0.37140797E+03</pdfrwt>
<pdfrwt beam="2">  1       -2 0.22011804E-02 0.37140797E+03</pdfrwt>
<totfact> 0.45263314E+03</totfact>
</mgrwt>
</event>
<event>
 4    1  0.1383574E-004  0.4134613E+03  0.7818608E-02  0.1039216E+00
          2   -1    0    0  501    0  0.00000000000E+00  0.00000000000E+00  0.16597727175E+04  0.16597727175E+04  0.25500000000E-02 0.  1.
         -2   -1    0    0    0  501 -0.00000000000E+00 -0.00000000000E+00 -0.25749042492E+02  0.25749042618E+02  0.25500000000E-02 0. -1.
    5000001    1    1    2    0    0 -0.13058273760E+03 -0.88474287302E+02  0.98652286220E+03  0.10070928003E+04  0.12700000000E+03 0.  0.
   -5000001    1    1    2    0    0  0.13058273760E+03  0.88474287302E+02  0.64750081286E+03  0.67842895982E+03  0.12700000000E+03 0.  0.
<mgrwt>
<rscale>  0 0.41346128E+03</rscale>
<asrwt>0</asrwt>
<pdfrwt beam="1">  1        2 0.23711040E+00 0.41346128E+03</pdfrwt>
<pdfrwt beam="2">  1       -2 0.36784345E-02 0.41346128E+03</pdfrwt>
<totfact> 0.40513967E+03</totfact>
</mgrwt>
</event>
<event>
 4    1  0.1383574E-004  0.4859120E+03  0.7818608E-02  0.1017523E+00
          2   -1    0    0  501    0  0.00000000000E+00  0.00000000000E+00  0.15390974332E+04  0.15390974332E+04  0.25500000000E-02 0.  1.
         -2   -1    0    0    0  501 -0.00000000000E+00 -0.00000000000E+00 -0.38352094736E+02  0.38352094821E+02  0.25500000000E-02 0. -1.
    5000001    1    1    2    0    0 -0.20684740945E+03  0.61713637433E+01  0.72231943701E+03  0.76203563276E+03  0.12700000000E+03 0.  0.
   -5000001    1    1    2    0    0  0.20684740945E+03 -0.61713637433E+01  0.77842590150E+03  0.81541389530E+03  0.12700000000E+03 0.  0.
<mgrwt>
<rscale>  0 0.48591197E+03</rscale>
<asrwt>0</asrwt>
<pdfrwt beam="1">  1        2 0.21987106E+00 0.48591197E+03</pdfrwt>
<pdfrwt beam="2">  1       -2 0.54788709E-02 0.48591197E+03</pdfrwt>
<totfact> 0.25310785E+03</totfact>
</mgrwt>
</event>
<event>
 4    1  0.1383574E-004  0.4562632E+03  0.7818608E-02  0.1025871E+00
          2   -1    0    0  501    0  0.00000000000E+00  0.00000000000E+00  0.34982908907E+03  0.34982908908E+03  0.25500000000E-02 0.  1.
         -2   -1    0    0    0  501 -0.00000000000E+00 -0.00000000000E+00 -0.14876987395E+03  0.14876987397E+03  0.25500000000E-02 0. -1.
    5000001    1    1    2    0    0 -0.45198272895E+02 -0.17150604541E+03  0.17349169994E+03  0.27872132576E+03  0.12700000000E+03 0.  0.
   -5000001    1    1    2    0    0  0.45198272895E+02  0.17150604541E+03  0.27567515169E+02  0.21987763729E+03  0.12700000000E+03 0.  0.
<mgrwt>
<rscale>  0 0.45626321E+03</rscale>
<asrwt>0</asrwt>
<pdfrwt beam="1">  1        2 0.49975584E-01 0.45626321E+03</pdfrwt>
<pdfrwt beam="2">  1       -2 0.21252839E-01 0.45626321E+03</pdfrwt>
<totfact> 0.19120745E+03</totfact>
</mgrwt>
</event>
<event>
 4    1  0.1383574E-004  0.4292478E+03  0.7818608E-02  0.1034098E+00
          2   -1    0    0  501    0  0.00000000000E+00  0.00000000000E+00  0.20432356887E+04  0.20432356887E+04  0.25500000000E-02 0.  1.
         -2   -1    0    0    0  501 -0.00000000000E+00 -0.00000000000E+00 -0.22544346109E+02  0.22544346254E+02  0.25500000000E-02 0. -1.
    5000001    1    1    2    0    0 -0.17055504419E+03  0.51898168664E+01  0.87266482234E+03  0.89821425587E+03  0.12700000000E+03 0.  0.
   -5000001    1    1    2    0    0  0.17055504419E+03 -0.51898168664E+01  0.11480265203E+04  0.11675657791E+04  0.12700000000E+03 0.  0.
<mgrwt>
<rscale>  0 0.42924777E+03</rscale>
<asrwt>0</asrwt>
<pdfrwt beam="1">  1        2 0.29189085E+00 0.42924777E+03</pdfrwt>
<pdfrwt beam="2">  1       -2 0.32206205E-02 0.42924777E+03</pdfrwt>
<totfact> 0.31908547E+03</totfact>
</mgrwt>
</event>
<event>
 4    1  0.1383574E-004  0.3405849E+03  0.7818608E-02  0.1066547E+00
         -2   -1    0    0    0  501 -0.00000000000E+00  0.00000000000E+00  0.67660073134E+02  0.67660073182E+02  0.25500000000E-02 0.  1.
          2   -1    0    0  501    0  0.00000000000E+00 -0.00000000000E+00 -0.42860611180E+03  0.42860611181E+03  0.25500000000E-02 0. -1.
    5000001    1    1    2    0    0 -0.79552323630E+02 -0.48072330177E+02 -0.27525172580E+03  0.31706786920E+03  0.12700000000E+03 0.  0.
   -5000001    1    1    2    0    0  0.79552323630E+02  0.48072330177E+02 -0.85694312864E+02  0.17919831579E+03  0.12700000000E+03 0.  0.
<mgrwt>
<rscale>  0 0.34058491E+03</rscale>
<asrwt>0</asrwt>
<pdfrwt beam="1">  1        2 0.61229443E-01 0.34058491E+03</pdfrwt>
<pdfrwt beam="2">  1       -2 0.96657250E-02 0.34058491E+03</pdfrwt>
<totfact> 0.56419760E+03</totfact>
</mgrwt>
</event>
<event>
 4    1  0.1383574E-004  0.2700709E+03  0.7818608E-02  0.1101239E+00
         -2   -1    0    0    0  501 -0.00000000000E+00  0.00000000000E+00  0.20421246366E+03  0.20421246368E+03  0.25500000000E-02 0. -1.
          2   -1    0    0  501    0  0.00000000000E+00 -0.00000000000E+00 -0.89292195324E+02  0.89292195360E+02  0.25500000000E-02 0.  1.
    5000001    1    1    2    0    0 -0.42824249294E+02  0.14694987711E+02  0.65572424782E+02  0.14992865598E+03  0.12700000000E+03 0.  0.
   -5000001    1    1    2    0    0  0.42824249294E+02 -0.14694987711E+02  0.49347843557E+02  0.14357600306E+03  0.12700000000E+03 0.  0.
<mgrwt>
<rscale>  0 0.27007095E+03</rscale>
<asrwt>0</asrwt>
<pdfrwt beam="1">  1        2 0.12756028E-01 0.27007095E+03</pdfrwt>
<pdfrwt beam="2">  1       -2 0.29173209E-01 0.27007095E+03</pdfrwt>
<totfact> 0.50641343E+03</totfact>
</mgrwt>
</event>
<event>
 4    1  0.1383574E-004  0.5187967E+03  0.7818608E-02  0.1008986E+00
          2   -1    0    0  501    0  0.00000000000E+00  0.00000000000E+00  0.17327025365E+04  0.17327025365E+04  0.25500000000E-02 0.  1.
         -2   -1    0    0    0  501 -0.00000000000E+00 -0.00000000000E+00 -0.38833848281E+02  0.38833848364E+02  0.25500000000E-02 0. -1.
    5000001    1    1    2    0    0 -0.16081158388E+03  0.15503809849E+02  0.13874696964E+04  0.14026053943E+04  0.12700000000E+03 0.  0.
   -5000001    1    1    2    0    0  0.16081158388E+03 -0.15503809849E+02  0.30639899182E+03  0.36893099059E+03  0.12700000000E+03 0.  0.
<mgrwt>
<rscale>  0 0.51879671E+03</rscale>
<asrwt>0</asrwt>
<pdfrwt beam="1">  1        2 0.24752899E+00 0.51879671E+03</pdfrwt>
<pdfrwt beam="2">  1       -2 0.55476913E-02 0.51879671E+03</pdfrwt>
<totfact> 0.19770505E+03</totfact>
</mgrwt>
</event>
<event>
 4    1  0.1383574E-004  0.4450170E+03  0.7818608E-02  0.1029219E+00
          2   -1    0    0  501    0  0.00000000000E+00  0.00000000000E+00  0.18182590238E+04  0.18182590238E+04  0.25500000000E-02 0.  1.
         -2   -1    0    0    0  501 -0.00000000000E+00 -0.00000000000E+00 -0.27229355758E+02  0.27229355878E+02  0.25500000000E-02 0. -1.
    5000001    1    1    2    0    0  0.53398106683E+02 -0.17462077142E+03  0.87020438881E+03  0.89818063323E+03  0.12700000000E+03 0.  0.
   -5000001    1    1    2    0    0 -0.53398106683E+02  0.17462077142E+03  0.92082527921E+03  0.94730774643E+03  0.12700000000E+03 0.  0.
<mgrwt>
<rscale>  0 0.44501695E+03</rscale>
<asrwt>0</asrwt>
<pdfrwt beam="1">  1        2 0.25975140E+00 0.44501695E+03</pdfrwt>
<pdfrwt beam="2">  1       -2 0.38899063E-02 0.44501695E+03</pdfrwt>
<totfact> 0.30984612E+03</totfact>
</mgrwt>
</event>
<event>
 4    1  0.1383574E-004  0.3664162E+03  0.7818608E-02  0.1056072E+00
         -2   -1    0    0    0  501 -0.00000000000E+00  0.00000000000E+00  0.78141658744E+02  0.78141658786E+02  0.25500000000E-02 0. -1.
          2   -1    0    0  501    0  0.00000000000E+00 -0.00000000000E+00 -0.42954305735E+03  0.42954305736E+03  0.25500000000E-02 0.  1.
    5000001    1    1    2    0    0  0.94883563510E+02 -0.20746009369E+02 -0.51751520922E+02  0.16804912212E+03  0.12700000000E+03 0.  0.
   -5000001    1    1    2    0    0 -0.94883563510E+02  0.20746009369E+02 -0.29964987768E+03  0.33963559402E+03  0.12700000000E+03 0.  0.
<mgrwt>
<rscale>  0 0.36641620E+03</rscale>
<asrwt>0</asrwt>
<pdfrwt beam="1">  1        2 0.61363293E-01 0.36641620E+03</pdfrwt>
<pdfrwt beam="2">  1       -2 0.11163094E-01 0.36641620E+03</pdfrwt>
<totfact> 0.44750112E+03</totfact>
</mgrwt>
</event>
<event>
 4    1  0.1383574E-004  0.4026300E+03  0.7818608E-02  0.1042873E+00
          2   -1    0    0  501    0  0.00000000000E+00  0.00000000000E+00  0.10589193096E+03  0.10589193100E+03  0.25500000000E-02 0.  1.
         -2   -1    0    0    0  501 -0.00000000000E+00 -0.00000000000E+00 -0.38272720676E+03  0.38272720677E+03  0.25500000000E-02 0. -1.
    5000001    1    1    2    0    0 -0.72233669373E+02 -0.61398895776E+02  0.12237012278E+02  0.15895367836E+03  0.12700000000E+03 0.  0.
   -5000001    1    1    2    0    0  0.72233669373E+02  0.61398895776E+02 -0.28907228807E+03  0.32966545941E+03  0.12700000000E+03 0.  0.
<mgrwt>
<rscale>  0 0.40262997E+03</rscale>
<asrwt>0</asrwt>
<pdfrwt beam="1">  1        2 0.15127419E-01 0.40262997E+03</pdfrwt>
<pdfrwt beam="2">  1       -2 0.54675315E-01 0.40262997E+03</pdfrwt>
<totfact> 0.12459688E+03</totfact>
</mgrwt>
</event>
<event>
 4    1  0.1383574E-004  0.5579305E+03  0.7818608E-02  0.9996748E-01
          2   -1    0    0  501    0  0.00000000000E+00  0.00000000000E+00  0.12314365373E+04  0.12314365373E+04  0.25500000000E-02 0.  1.
         -2   -1    0    0    0  501 -0.00000000000E+00 -0.00000000000E+00 -0.63195803338E+02  0.63195803389E+02  0.25500000000E-02 0. -1.
    5000001    1    1    2    0    0  0.62001368830E+02  0.23428844354E+03  0.71030882873E+03  0.76118517897E+03  0.12700000000E+03 0.  0.
   -5000001    1    1    2    0    0 -0.62001368830E+02 -0.23428844354E+03  0.45793190522E+03  0.53344716170E+03  0.12700000000E+03 0.  0.
<mgrwt>
<rscale>  0 0.55793054E+03</rscale>
<asrwt>0</asrwt>
<pdfrwt beam="1">  1        2 0.17591950E+00 0.55793054E+03</pdfrwt>
<pdfrwt beam="2">  1       -2 0.90279720E-02 0.55793054E+03</pdfrwt>
<totfact> 0.16756455E+03</totfact>
</mgrwt>
</event>
<event>
 4    1  0.1383574E-004  0.3820612E+03  0.7818608E-02  0.1050175E+00
         -2   -1    0    0    0  501 -0.00000000000E+00  0.00000000000E+00  0.13109909597E+02  0.13109909845E+02  0.25500000000E-02 0. -1.
          2   -1    0    0  501    0  0.00000000000E+00 -0.00000000000E+00 -0.27835951264E+04  0.27835951264E+04  0.25500000000E-02 0.  1.
    5000001    1    1    2    0    0 -0.13366164193E+03 -0.33056936732E+02 -0.11108155526E+04  0.11264982856E+04  0.12700000000E+03 0.  0.
   -5000001    1    1    2    0    0  0.13366164193E+03  0.33056936732E+02 -0.16596696643E+04  0.16702067507E+04  0.12700000000E+03 0.  0.
<mgrwt>
<rscale>  0 0.38206115E+03</rscale>
<asrwt>0</asrwt>
<pdfrwt beam="1">  1        2 0.39765607E+00 0.38206115E+03</pdfrwt>
<pdfrwt beam="2">  1       -2 0.18728460E-02 0.38206115E+03</pdfrwt>
<totfact> 0.30450109E+03</totfact>
</mgrwt>
</event>
<event>
 4    1  0.1383574E-004  0.2699494E+03  0.7818608E-02  0.1101309E+00
         -2   -1    0    0    0  501 -0.00000000000E+00  0.00000000000E+00  0.47728825117E+01  0.47728831928E+01  0.25500000000E-02 0. -1.
          2   -1    0    0  501    0  0.00000000000E+00 -0.00000000000E+00 -0.38170156794E+04  0.38170156794E+04  0.25500000000E-02 0.  1.
    5000001    1    1    2    0    0  0.43195476678E+02  0.99821717768E+01 -0.17486772450E+04  0.17538433795E+04  0.12700000000E+03 0.  0.
   -5000001    1    1    2    0    0 -0.43195476678E+02 -0.99821717768E+01 -0.20635655520E+04  0.20679451831E+04  0.12700000000E+03 0.  0.
<mgrwt>
<rscale>  0 0.26994939E+03</rscale>
<asrwt>0</asrwt>
<pdfrwt beam="1">  1        2 0.54528600E+00 0.26994939E+03</pdfrwt>
<pdfrwt beam="2">  1       -2 0.68184285E-03 0.26994939E+03</pdfrwt>
<totfact> 0.35211656E+03</totfact>
</mgrwt>
</event>
<event>
 4    1  0.1383574E-004  0.3027836E+03  0.7818608E-02  0.1083857E+00
          2   -1    0    0  501    0  0.00000000000E+00  0.00000000000E+00  0.25573521487E+04  0.25573521487E+04  0.25500000000E-02 0.  1.
         -2   -1    0    0    0  501 -0.00000000000E+00 -0.00000000000E+00 -0.89621907280E+01  0.89621910908E+01  0.25500000000E-02 0. -1.
    5000001    1    1    2    0    0 -0.17224594601E+02 -0.53765934599E+02  0.76543777077E+03  0.77795336834E+03  0.12700000000E+03 0.  0.
   -5000001    1    1    2    0    0  0.17224594601E+02  0.53765934599E+02  0.17829521872E+04  0.17883609715E+04  0.12700000000E+03 0.  0.
<mgrwt>
<rscale>  0 0.30278361E+03</rscale>
<asrwt>0</asrwt>
<pdfrwt beam="1">  1        2 0.36533643E+00 0.30278361E+03</pdfrwt>
<pdfrwt beam="2">  1       -2 0.12803116E-02 0.30278361E+03</pdfrwt>
<totfact> 0.69816198E+03</totfact>
</mgrwt>
</event>
<event>
 4    1  0.1383574E-004  0.4063401E+03  0.7818608E-02  0.1041606E+00
         -2   -1    0    0    0  501 -0.00000000000E+00  0.00000000000E+00  0.67915444216E+02  0.67915444264E+02  0.25500000000E-02 0. -1.
          2   -1    0    0  501    0  0.00000000000E+00 -0.00000000000E+00 -0.60778632032E+03  0.60778632033E+03  0.25500000000E-02 0.  1.
    5000001    1    1    2    0    0 -0.12635526560E+03  0.88686764870E+02 -0.33030758603E+03  0.38608690317E+03  0.12700000000E+03 0.  0.
   -5000001    1    1    2    0    0  0.12635526560E+03 -0.88686764870E+02 -0.20956329007E+03  0.28961486142E+03  0.12700000000E+03 0.  0.
<mgrwt>
<rscale>  0 0.40634014E+03</rscale>
<asrwt>0</asrwt>
<pdfrwt beam="1">  1        2 0.86826614E-01 0.40634014E+03</pdfrwt>
<pdfrwt beam="2">  1       -2 0.97022066E-02 0.40634014E+03</pdfrwt>
<totfact> 0.38010390E+03</totfact>
</mgrwt>
</event>
<event>
 4    1  0.1383574E-004  0.5377833E+03  0.7818608E-02  0.1004362E+00
          2   -1    0    0  501    0  0.00000000000E+00  0.00000000000E+00  0.21546558491E+04  0.21546558491E+04  0.25500000000E-02 0. -1.
         -2   -1    0    0    0  501 -0.00000000000E+00 -0.00000000000E+00 -0.33556505725E+02  0.33556505822E+02  0.25500000000E-02 0.  1.
    5000001    1    1    2    0    0  0.22372330684E+03  0.77418545416E+02  0.10145197703E+04  0.10494880245E+04  0.12700000000E+03 0.  0.
   -5000001    1    1    2    0    0 -0.22372330684E+03 -0.77418545416E+02  0.11065795731E+04  0.11387243304E+04  0.12700000000E+03 0.  0.
<mgrwt>
<rscale>  0 0.53778331E+03</rscale>
<asrwt>0</asrwt>
<pdfrwt beam="1">  1        2 0.30780799E+00 0.53778331E+03</pdfrwt>
<pdfrwt beam="2">  1       -2 0.47937864E-02 0.53778331E+03</pdfrwt>
<totfact> 0.15223021E+03</totfact>
</mgrwt>
</event>
<event>
 4    1  0.1383574E-004  0.3795178E+03  0.7818608E-02  0.1051112E+00
          2   -1    0    0  501    0  0.00000000000E+00  0.00000000000E+00  0.33389832158E+03  0.33389832159E+03  0.25500000000E-02 0.  1.
         -2   -1    0    0    0  501 -0.00000000000E+00 -0.00000000000E+00 -0.10784252385E+03  0.10784252388E+03  0.25500000000E-02 0. -1.
    5000001    1    1    2    0    0 -0.31717197472E+02 -0.12343560609E+03  0.18322408814E+03  0.25679251535E+03  0.12700000000E+03 0.  0.
   -5000001    1    1    2    0    0  0.31717197472E+02  0.12343560609E+03  0.42831709594E+02  0.18494833012E+03  0.12700000000E+03 0.  0.
<mgrwt>
<rscale>  0 0.37951779E+03</rscale>
<asrwt>0</asrwt>
<pdfrwt beam="1">  1        2 0.47699759E-01 0.37951779E+03</pdfrwt>
<pdfrwt beam="2">  1       -2 0.15406075E-01 0.37951779E+03</pdfrwt>
<totfact> 0.34740787E+03</totfact>
</mgrwt>
</event>
<event>
 4    1  0.1383574E-004  0.5382634E+03  0.7818608E-02  0.1004248E+00
         -2   -1    0    0    0  501 -0.00000000000E+00  0.00000000000E+00  0.27390713280E+03  0.27390713281E+03  0.25500000000E-02 0. -1.
          2   -1    0    0  501    0  0.00000000000E+00 -0.00000000000E+00 -0.26443956550E+03  0.26443956551E+03  0.25500000000E-02 0.  1.
    5000001    1    1    2    0    0 -0.91687284497E+02  0.12666997212E+03 -0.17376242688E+03  0.26603424774E+03  0.12700000000E+03 0.  0.
   -5000001    1    1    2    0    0  0.91687284497E+02 -0.12666997212E+03  0.18322999417E+03  0.27231245058E+03  0.12700000000E+03 0.  0.
<mgrwt>
<rscale>  0 0.53826344E+03</rscale>
<asrwt>0</asrwt>
<pdfrwt beam="1">  1        2 0.37777080E-01 0.53826344E+03</pdfrwt>
<pdfrwt beam="2">  1       -2 0.39129591E-01 0.53826344E+03</pdfrwt>
<totfact> 0.85075930E+02</totfact>
</mgrwt>
</event>
<event>
 4    1  0.1383574E-004  0.6455293E+03  0.7818608E-02  0.9815204E-01
          2   -1    0    0  501    0  0.00000000000E+00  0.00000000000E+00  0.34032277745E+04  0.34032277745E+04  0.25500000000E-02 0.  1.
         -2   -1    0    0    0  501 -0.00000000000E+00 -0.00000000000E+00 -0.30611242964E+02  0.30611243071E+02  0.25500000000E-02 0. -1.
    5000001    1    1    2    0    0  0.15502697856E+03  0.24059027181E+03  0.12697946242E+04  0.13078319581E+04  0.12700000000E+03 0.  0.
   -5000001    1    1    2    0    0 -0.15502697856E+03 -0.24059027181E+03  0.21028219073E+04  0.21260070595E+04  0.12700000000E+03 0.  0.
<mgrwt>
<rscale>  0 0.64552934E+03</rscale>
<asrwt>0</asrwt>
<pdfrwt beam="1">  1        2 0.48617545E+00 0.64552934E+03</pdfrwt>
<pdfrwt beam="2">  1       -2 0.43730343E-02 0.64552934E+03</pdfrwt>
<totfact> 0.37587510E+02</totfact>
</mgrwt>
</event>
<event>
 4    1  0.1383574E-004  0.5765356E+03  0.7818608E-02  0.9955320E-01
         -2   -1    0    0    0  501 -0.00000000000E+00  0.00000000000E+00  0.19564956397E+03  0.19564956399E+03  0.25500000000E-02 0. -1.
          2   -1    0    0  501    0  0.00000000000E+00 -0.00000000000E+00 -0.42473036279E+03  0.42473036280E+03  0.25500000000E-02 0.  1.
    5000001    1    1    2    0    0 -0.24418651267E+03  0.12393973267E+02 -0.23306714457E+02  0.27650111480E+03  0.12700000000E+03 0.  0.
   -5000001    1    1    2    0    0  0.24418651267E+03 -0.12393973267E+02 -0.20577408436E+03  0.34387881199E+03  0.12700000000E+03 0.  0.
<mgrwt>
<rscale>  0 0.57653555E+03</rscale>
<asrwt>0</asrwt>
<pdfrwt beam="1">  1        2 0.60675766E-01 0.57653555E+03</pdfrwt>
<pdfrwt beam="2">  1       -2 0.27949938E-01 0.57653555E+03</pdfrwt>
<totfact> 0.94717765E+02</totfact>
</mgrwt>
</event>
<event>
 4    1  0.1383574E-004  0.5286163E+03  0.7818608E-02  0.1006568E+00
         -2   -1    0    0    0  501 -0.00000000000E+00  0.00000000000E+00  0.36671980785E+02  0.36671980874E+02  0.25500000000E-02 0. -1.
          2   -1    0    0  501    0  0.00000000000E+00 -0.00000000000E+00 -0.19049639138E+04  0.19049639138E+04  0.25500000000E-02 0.  1.
    5000001    1    1    2    0    0  0.18056223396E+03  0.14008186586E+03 -0.10765993943E+04  0.11078902948E+04  0.12700000000E+03 0.  0.
   -5000001    1    1    2    0    0 -0.18056223396E+03 -0.14008186586E+03 -0.79169253865E+03  0.83374559983E+03  0.12700000000E+03 0.  0.
<mgrwt>
<rscale>  0 0.52861631E+03</rscale>
<asrwt>0</asrwt>
<pdfrwt beam="1">  1        2 0.27213764E+00 0.52861631E+03</pdfrwt>
<pdfrwt beam="2">  1       -2 0.52388556E-02 0.52861631E+03</pdfrwt>
<totfact> 0.17699155E+03</totfact>
</mgrwt>
</event>
<event>
 4    1  0.1383574E-004  0.8266117E+03  0.7818608E-02  0.9522277E-01
         -2   -1    0    0    0  501 -0.00000000000E+00  0.00000000000E+00  0.88458914011E+03  0.88458914011E+03  0.25500000000E-02 0. -1.
          2   -1    0    0  501    0  0.00000000000E+00 -0.00000000000E+00 -0.19310856428E+03  0.19310856430E+03  0.25500000000E-02 0.  1.
    5000001    1    1    2    0    0  0.32200760142E+03 -0.73626984348E+02  0.62409361678E+03  0.71744802648E+03  0.12700000000E+03 0.  0.
   -5000001    1    1    2    0    0 -0.32200760142E+03  0.73626984348E+02  0.67386959046E+02  0.36024967793E+03  0.12700000000E+03 0.  0.
<mgrwt>
<rscale>  0 0.82661173E+03</rscale>
<asrwt>0</asrwt>
<pdfrwt beam="1">  1        2 0.27586938E-01 0.82661173E+03</pdfrwt>
<pdfrwt beam="2">  1       -2 0.12636988E+00 0.82661173E+03</pdfrwt>
<totfact> 0.91920437E+01</totfact>
</mgrwt>
</event>
<event>
 4    1  0.1383574E-004  0.5387981E+03  0.7818608E-02  0.1004120E+00
         -2   -1    0    0    0  501 -0.00000000000E+00  0.00000000000E+00  0.24341868298E+02  0.24341868431E+02  0.25500000000E-02 0. -1.
          2   -1    0    0  501    0  0.00000000000E+00 -0.00000000000E+00 -0.29815230269E+04  0.29815230269E+04  0.25500000000E-02 0.  1.
    5000001    1    1    2    0    0  0.15947445359E+03 -0.16912133355E+03 -0.17526194784E+04  0.17725231064E+04  0.12700000000E+03 0.  0.
   -5000001    1    1    2    0    0 -0.15947445359E+03  0.16912133355E+03 -0.12045616802E+04  0.12333417889E+04  0.12700000000E+03 0.  0.
<mgrwt>
<rscale>  0 0.53879807E+03</rscale>
<asrwt>0</asrwt>
<pdfrwt beam="1">  1        2 0.42593163E+00 0.53879807E+03</pdfrwt>
<pdfrwt beam="2">  1       -2 0.34774117E-02 0.53879807E+03</pdfrwt>
<totfact> 0.93148305E+02</totfact>
</mgrwt>
</event>
<event>
 4    1  0.1383574E-004  0.2947528E+03  0.7818608E-02  0.1087893E+00
         -2   -1    0    0    0  501 -0.00000000000E+00  0.00000000000E+00  0.17938054803E+03  0.17938054805E+03  0.25500000000E-02 0. -1.
          2   -1    0    0  501    0  0.00000000000E+00 -0.00000000000E+00 -0.12108226989E+03  0.12108226992E+03  0.25500000000E-02 0.  1.
    5000001    1    1    2    0    0 -0.51373512184E+02  0.78903719127E+01  0.83942725346E+02  0.16086291326E+03  0.12700000000E+03 0.  0.
   -5000001    1    1    2    0    0  0.51373512184E+02 -0.78903719127E+01 -0.25644447210E+02  0.13959990471E+03  0.12700000000E+03 0.  0.
<mgrwt>
<rscale>  0 0.29475280E+03</rscale>
<asrwt>0</asrwt>
<pdfrwt beam="1">  1        2 0.17297467E-01 0.29475280E+03</pdfrwt>
<pdfrwt beam="2">  1       -2 0.25625793E-01 0.29475280E+03</pdfrwt>
<totfact> 0.44617211E+03</totfact>
</mgrwt>
</event>
<event>
 4    1  0.1383574E-004  0.4316305E+03  0.7818608E-02  0.1033346E+00
         -2   -1    0    0    0  501 -0.00000000000E+00  0.00000000000E+00  0.56493082395E+02  0.56493082452E+02  0.25500000000E-02 0. -1.
          2   -1    0    0  501    0  0.00000000000E+00 -0.00000000000E+00 -0.82445888966E+03  0.82445888967E+03  0.25500000000E-02 0.  1.
    5000001    1    1    2    0    0  0.10270947177E+03 -0.69529559614E+02 -0.13348453605E+03  0.22210519268E+03  0.12700000000E+03 0.  0.
   -5000001    1    1    2    0    0 -0.10270947177E+03  0.69529559614E+02 -0.63448127122E+03  0.65884677944E+03  0.12700000000E+03 0.  0.
<mgrwt>
<rscale>  0 0.43163051E+03</rscale>
<asrwt>0</asrwt>
<pdfrwt beam="1">  1        2 0.11777983E+00 0.43163051E+03</pdfrwt>
<pdfrwt beam="2">  1       -2 0.80704409E-02 0.43163051E+03</pdfrwt>
<totfact> 0.35218693E+03</totfact>
</mgrwt>
</event>
<event>
 4    1  0.1383574E-004  0.4175423E+03  0.7818608E-02  0.1037869E+00
         -2   -1    0    0    0  501 -0.00000000000E+00  0.00000000000E+00  0.70344012998E+03  0.70344012998E+03  0.25500000000E-02 0. -1.
          2   -1    0    0  501    0  0.00000000000E+00 -0.00000000000E+00 -0.61960349990E+02  0.61960350042E+02  0.25500000000E-02 0.  1.
    5000001    1    1    2    0    0 -0.56526169432E+02 -0.15533167419E+03  0.34190097199E+03  0.40043527752E+03  0.12700000000E+03 0.  0.
   -5000001    1    1    2    0    0  0.56526169432E+02  0.15533167419E+03  0.29957880799E+03  0.36496520250E+03  0.12700000000E+03 0.  0.
<mgrwt>
<rscale>  0 0.41754232E+03</rscale>
<asrwt>0</asrwt>
<pdfrwt beam="1">  1        2 0.88514785E-02 0.41754232E+03</pdfrwt>
<pdfrwt beam="2">  1       -2 0.10049145E+00 0.41754232E+03</pdfrwt>
<totfact> 0.63822146E+02</totfact>
</mgrwt>
</event>
<event>
 4    1  0.1383574E-004  0.2817010E+03  0.7818608E-02  0.1094764E+00
         -2   -1    0    0    0  501 -0.00000000000E+00  0.00000000000E+00  0.12787225378E+02  0.12787225633E+02  0.25500000000E-02 0. -1.
          2   -1    0    0  501    0  0.00000000000E+00 -0.00000000000E+00 -0.15514595161E+04  0.15514595161E+04  0.25500000000E-02 0.  1.
    5000001    1    1    2    0    0  0.53344337715E+02 -0.82601870460E+01 -0.92600300317E+03  0.93622882403E+03  0.12700000000E+03 0.  0.
   -5000001    1    1    2    0    0 -0.53344337715E+02  0.82601870460E+01 -0.61266928760E+03  0.62801791776E+03  0.12700000000E+03 0.  0.
<mgrwt>
<rscale>  0 0.28170100E+03</rscale>
<asrwt>0</asrwt>
<pdfrwt beam="1">  1        2 0.22163695E+00 0.28170100E+03</pdfrwt>
<pdfrwt beam="2">  1       -2 0.18267475E-02 0.28170100E+03</pdfrwt>
<totfact> 0.12986732E+04</totfact>
</mgrwt>
</event>
<event>
 4    1  0.1383574E-004  0.7780725E+03  0.7818608E-02  0.9592310E-01
          2   -1    0    0  501    0  0.00000000000E+00  0.00000000000E+00  0.97697769790E+03  0.97697769790E+03  0.25500000000E-02 0.  1.
         -2   -1    0    0    0  501 -0.00000000000E+00 -0.00000000000E+00 -0.15491572217E+03  0.15491572219E+03  0.25500000000E-02 0. -1.
    5000001    1    1    2    0    0  0.91717052501E+02  0.31284360119E+03  0.16356658396E+03  0.38622035668E+03  0.12700000000E+03 0.  0.
   -5000001    1    1    2    0    0 -0.91717052501E+02 -0.31284360119E+03  0.65849539177E+03  0.74567306342E+03  0.12700000000E+03 0.  0.
<mgrwt>
<rscale>  0 0.77807250E+03</rscale>
<asrwt>0</asrwt>
<pdfrwt beam="1">  1        2 0.13956825E+00 0.77807250E+03</pdfrwt>
<pdfrwt beam="2">  1       -2 0.22130817E-01 0.77807250E+03</pdfrwt>
<totfact> 0.51943197E+02</totfact>
</mgrwt>
</event>
<event>
 4    1  0.1383574E-004  0.3239047E+03  0.7818608E-02  0.1073866E+00
         -2   -1    0    0    0  501 -0.00000000000E+00  0.00000000000E+00  0.12708701245E+04  0.12708701245E+04  0.25500000000E-02 0.  1.
          2   -1    0    0  501    0  0.00000000000E+00 -0.00000000000E+00 -0.20638267968E+02  0.20638268126E+02  0.25500000000E-02 0. -1.
    5000001    1    1    2    0    0  0.79383799032E+02 -0.47297558254E+02  0.46759387169E+03  0.49326653587E+03  0.12700000000E+03 0.  0.
   -5000001    1    1    2    0    0 -0.79383799032E+02  0.47297558254E+02  0.78263798482E+03  0.79824185674E+03  0.12700000000E+03 0.  0.
<mgrwt>
<rscale>  0 0.32390467E+03</rscale>
<asrwt>0</asrwt>
<pdfrwt beam="1">  1        2 0.29483238E-02 0.32390467E+03</pdfrwt>
<pdfrwt beam="2">  1       -2 0.18155289E+00 0.32390467E+03</pdfrwt>
<totfact> 0.61186886E+02</totfact>
</mgrwt>
</event>
<event>
 4    1  0.1383574E-004  0.3081114E+03  0.7818608E-02  0.1081255E+00
          2   -1    0    0  501    0  0.00000000000E+00  0.00000000000E+00  0.55948674044E+03  0.55948674045E+03  0.25500000000E-02 0.  1.
         -2   -1    0    0    0  501 -0.00000000000E+00 -0.00000000000E+00 -0.42419509077E+02  0.42419509153E+02  0.25500000000E-02 0. -1.
    5000001    1    1    2    0    0 -0.78446129375E+02  0.35656298280E+02  0.23239811932E+03  0.27850144108E+03  0.12700000000E+03 0.  0.
   -5000001    1    1    2    0    0  0.78446129375E+02 -0.35656298280E+02  0.28466911204E+03  0.32340480852E+03  0.12700000000E+03 0.  0.
<mgrwt>
<rscale>  0 0.30811136E+03</rscale>
<asrwt>0</asrwt>
<pdfrwt beam="1">  1        2 0.79926675E-01 0.30811136E+03</pdfrwt>
<pdfrwt beam="2">  1       -2 0.60599300E-02 0.30811136E+03</pdfrwt>
<totfact> 0.86867308E+03</totfact>
</mgrwt>
</event>
<event>
 4    1  0.1383574E-004  0.4391651E+03  0.7818608E-02  0.1031003E+00
          2   -1    0    0  501    0  0.00000000000E+00  0.00000000000E+00  0.28020598952E+04  0.28020598952E+04  0.25500000000E-02 0. -1.
         -2   -1    0    0    0  501 -0.00000000000E+00 -0.00000000000E+00 -0.17207520083E+02  0.17207520272E+02  0.25500000000E-02 0.  1.
    5000001    1    1    2    0    0 -0.15372510556E+03  0.29883239260E+02  0.83413863088E+03  0.85816121539E+03  0.12700000000E+03 0.  0.
   -5000001    1    1    2    0    0  0.15372510556E+03 -0.29883239260E+02  0.19507137442E+04  0.19611062001E+04  0.12700000000E+03 0.  0.
<mgrwt>
<rscale>  0 0.43916513E+03</rscale>
<asrwt>0</asrwt>
<pdfrwt beam="1">  1        2 0.40029451E+00 0.43916513E+03</pdfrwt>
<pdfrwt beam="2">  1       -2 0.24582157E-02 0.43916513E+03</pdfrwt>
<totfact> 0.19773196E+03</totfact>
</mgrwt>
</event>
<event>
 4    1  0.1383574E-004  0.4445383E+03  0.7818608E-02  0.1029363E+00
         -2   -1    0    0    0  501 -0.00000000000E+00  0.00000000000E+00  0.20261630977E+03  0.20261630978E+03  0.25500000000E-02 0. -1.
          2   -1    0    0  501    0  0.00000000000E+00 -0.00000000000E+00 -0.24382825218E+03  0.24382825219E+03  0.25500000000E-02 0.  1.
    5000001    1    1    2    0    0  0.15062603254E+02 -0.16940501057E+03  0.45628647078E+02  0.21710806770E+03  0.12700000000E+03 0.  0.
   -5000001    1    1    2    0    0 -0.15062603254E+02  0.16940501057E+03 -0.86840589487E+02  0.22933649428E+03  0.12700000000E+03 0.  0.
<mgrwt>
<rscale>  0 0.44453833E+03</rscale>
<asrwt>0</asrwt>
<pdfrwt beam="1">  1        2 0.34832607E-01 0.44453833E+03</pdfrwt>
<pdfrwt beam="2">  1       -2 0.28945187E-01 0.44453833E+03</pdfrwt>
<totfact> 0.16370374E+03</totfact>
</mgrwt>
</event>
<event>
 4    1  0.1383574E-004  0.3252489E+03  0.7818608E-02  0.1073259E+00
          2   -1    0    0  501    0  0.00000000000E+00  0.00000000000E+00  0.30421914652E+03  0.30421914653E+03  0.25500000000E-02 0.  1.
         -2   -1    0    0    0  501 -0.00000000000E+00 -0.00000000000E+00 -0.86933111004E+02  0.86933111041E+02  0.25500000000E-02 0. -1.
    5000001    1    1    2    0    0  0.38793515873E+02  0.91344094002E+02  0.82597483833E+02  0.18110777100E+03  0.12700000000E+03 0.  0.
   -5000001    1    1    2    0    0 -0.38793515873E+02 -0.91344094002E+02  0.13468855169E+03  0.21004448657E+03  0.12700000000E+03 0.  0.
<mgrwt>
<rscale>  0 0.32524893E+03</rscale>
<asrwt>0</asrwt>
<pdfrwt beam="1">  1        2 0.43459878E-01 0.32524893E+03</pdfrwt>
<pdfrwt beam="2">  1       -2 0.12419016E-01 0.32524893E+03</pdfrwt>
<totfact> 0.54613934E+03</totfact>
</mgrwt>
</event>
<event>
 4    1  0.1383574E-004  0.3618994E+03  0.7818608E-02  0.1057834E+00
         -2   -1    0    0    0  501 -0.00000000000E+00  0.00000000000E+00  0.23648017395E+02  0.23648017532E+02  0.25500000000E-02 0. -1.
          2   -1    0    0  501    0  0.00000000000E+00 -0.00000000000E+00 -0.13845892608E+04  0.13845892608E+04  0.25500000000E-02 0.  1.
    5000001    1    1    2    0    0 -0.88871365465E+02 -0.96237264050E+01 -0.31912850959E+03  0.35491230092E+03  0.12700000000E+03 0.  0.
   -5000001    1    1    2    0    0  0.88871365465E+02  0.96237264050E+01 -0.10418127338E+04  0.10533249774E+04  0.12700000000E+03 0.  0.
<mgrwt>
<rscale>  0 0.36189938E+03</rscale>
<asrwt>0</asrwt>
<pdfrwt beam="1">  1        2 0.19779841E+00 0.36189938E+03</pdfrwt>
<pdfrwt beam="2">  1       -2 0.33782891E-02 0.36189938E+03</pdfrwt>
<totfact> 0.63663489E+03</totfact>
</mgrwt>
</event>
<event>
 4    1  0.1383574E-004  0.4525835E+03  0.7818608E-02  0.1026954E+00
          2   -1    0    0  501    0  0.00000000000E+00  0.00000000000E+00  0.16756556180E+04  0.16756556180E+04  0.25500000000E-02 0.  1.
         -2   -1    0    0    0  501 -0.00000000000E+00 -0.00000000000E+00 -0.30559948279E+02  0.30559948385E+02  0.25500000000E-02 0. -1.
    5000001    1    1    2    0    0 -0.15331459609E+03  0.10361612830E+03  0.71346133408E+03  0.74792896898E+03  0.12700000000E+03 0.  0.
   -5000001    1    1    2    0    0  0.15331459609E+03 -0.10361612830E+03  0.93163433566E+03  0.95828659742E+03  0.12700000000E+03 0.  0.
<mgrwt>
<rscale>  0 0.45258347E+03</rscale>
<asrwt>0</asrwt>
<pdfrwt beam="1">  1        2 0.23937937E+00 0.45258347E+03</pdfrwt>
<pdfrwt beam="2">  1       -2 0.43657070E-02 0.45258347E+03</pdfrwt>
<totfact> 0.30623238E+03</totfact>
</mgrwt>
</event>
<event>
 4    1  0.1383574E-004  0.3945205E+03  0.7818608E-02  0.1045694E+00
         -2   -1    0    0    0  501 -0.00000000000E+00  0.00000000000E+00  0.20705218283E+03  0.20705218284E+03  0.25500000000E-02 0. -1.
          2   -1    0    0  501    0  0.00000000000E+00 -0.00000000000E+00 -0.18793137379E+03  0.18793137381E+03  0.25500000000E-02 0.  1.
    5000001    1    1    2    0    0  0.10300955264E+03  0.10090021065E+03 -0.35110133516E+02  0.19532931659E+03  0.12700000000E+03 0.  0.
   -5000001    1    1    2    0    0 -0.10300955264E+03 -0.10090021065E+03  0.54230942549E+02  0.19965424006E+03  0.12700000000E+03 0.  0.
<mgrwt>
<rscale>  0 0.39452047E+03</rscale>
<asrwt>0</asrwt>
<pdfrwt beam="1">  1        2 0.26847339E-01 0.39452047E+03</pdfrwt>
<pdfrwt beam="2">  1       -2 0.29578883E-01 0.39452047E+03</pdfrwt>
<totfact> 0.20987141E+03</totfact>
</mgrwt>
</event>
<event>
 4    1  0.1383574E-004  0.3077848E+03  0.7818608E-02  0.1081413E+00
          2   -1    0    0  501    0  0.00000000000E+00  0.00000000000E+00  0.10932557556E+04  0.10932557556E+04  0.25500000000E-02 0.  1.
         -2   -1    0    0    0  501 -0.00000000000E+00 -0.00000000000E+00 -0.21662700419E+02  0.21662700569E+02  0.25500000000E-02 0. -1.
    5000001    1    1    2    0    0  0.31770142039E+02  0.69022134359E+02  0.38294708104E+03  0.41054946576E+03  0.12700000000E+03 0.  0.
   -5000001    1    1    2    0    0 -0.31770142039E+02 -0.69022134359E+02  0.68864597414E+03  0.70436899041E+03  0.12700000000E+03 0.  0.
<mgrwt>
<rscale>  0 0.30778481E+03</rscale>
<asrwt>0</asrwt>
<pdfrwt beam="1">  1        2 0.15617943E+00 0.30778481E+03</pdfrwt>
<pdfrwt beam="2">  1       -2 0.30946707E-02 0.30778481E+03</pdfrwt>
<totfact> 0.10411662E+04</totfact>
</mgrwt>
</event>
<event>
 4    1  0.1383574E-004  0.6530234E+03  0.7818608E-02  0.9801122E-01
         -2   -1    0    0    0  501 -0.00000000000E+00  0.00000000000E+00  0.12681383620E+03  0.12681383623E+03  0.25500000000E-02 0. -1.
          2   -1    0    0  501    0  0.00000000000E+00 -0.00000000000E+00 -0.84068028094E+03  0.84068028094E+03  0.25500000000E-02 0.  1.
    5000001    1    1    2    0    0 -0.18501545986E+03  0.23606172173E+03 -0.39088117237E+03  0.50879558544E+03  0.12700000000E+03 0.  0.
   -5000001    1    1    2    0    0  0.18501545986E+03 -0.23606172173E+03 -0.32298527237E+03  0.45869853173E+03  0.12700000000E+03 0.  0.
<mgrwt>
<rscale>  0 0.65302340E+03</rscale>
<asrwt>0</asrwt>
<pdfrwt beam="1">  1        2 0.12009718E+00 0.65302340E+03</pdfrwt>
<pdfrwt beam="2">  1       -2 0.18116263E-01 0.65302340E+03</pdfrwt>
<totfact> 0.90635775E+02</totfact>
</mgrwt>
</event>
<event>
 4    1  0.1383574E-004  0.4278927E+03  0.7818608E-02  0.1034528E+00
          2   -1    0    0  501    0  0.00000000000E+00  0.00000000000E+00  0.77354449122E+03  0.77354449122E+03  0.25500000000E-02 0. -1.
         -2   -1    0    0    0  501 -0.00000000000E+00 -0.00000000000E+00 -0.59173119856E+02  0.59173119911E+02  0.25500000000E-02 0.  1.
    5000001    1    1    2    0    0  0.15579714305E+03 -0.40771846209E+02  0.47570475306E+03  0.51803388433E+03  0.12700000000E+03 0.  0.
   -5000001    1    1    2    0    0 -0.15579714305E+03  0.40771846209E+02  0.23866661830E+03  0.31468372681E+03  0.12700000000E+03 0.  0.
<mgrwt>
<rscale>  0 0.42789270E+03</rscale>
<asrwt>0</asrwt>
<pdfrwt beam="1">  1        2 0.11050636E+00 0.42789270E+03</pdfrwt>
<pdfrwt beam="2">  1       -2 0.84533024E-02 0.42789270E+03</pdfrwt>
<totfact> 0.35460358E+03</totfact>
</mgrwt>
</event>
<event>
 4    1  0.1383574E-004  0.3310680E+03  0.7818608E-02  0.1070665E+00
         -2   -1    0    0    0  501 -0.00000000000E+00  0.00000000000E+00  0.10801916525E+02  0.10801916826E+02  0.25500000000E-02 0. -1.
          2   -1    0    0  501    0  0.00000000000E+00 -0.00000000000E+00 -0.25367261555E+04  0.25367261555E+04  0.25500000000E-02 0.  1.
    5000001    1    1    2    0    0 -0.86835886625E+02 -0.58469631089E+02 -0.13991713838E+04  0.14088182034E+04  0.12700000000E+03 0.  0.
   -5000001    1    1    2    0    0  0.86835886625E+02  0.58469631089E+02 -0.11267528552E+04  0.11387098689E+04  0.12700000000E+03 0.  0.
<mgrwt>
<rscale>  0 0.33106800E+03</rscale>
<asrwt>0</asrwt>
<pdfrwt beam="1">  1        2 0.36238907E+00 0.33106800E+03</pdfrwt>
<pdfrwt beam="2">  1       -2 0.15431326E-02 0.33106800E+03</pdfrwt>
<totfact> 0.54351108E+03</totfact>
</mgrwt>
</event>
<event>
 4    1  0.1383574E-004  0.3613636E+03  0.7818608E-02  0.1058045E+00
         -2   -1    0    0    0  501 -0.00000000000E+00  0.00000000000E+00  0.60466092619E+02  0.60466092673E+02  0.25500000000E-02 0. -1.
          2   -1    0    0  501    0  0.00000000000E+00 -0.00000000000E+00 -0.53990439748E+03  0.53990439748E+03  0.25500000000E-02 0.  1.
    5000001    1    1    2    0    0 -0.12268408720E+03 -0.22896881041E+02 -0.18874746106E+03  0.25948074393E+03  0.12700000000E+03 0.  0.
   -5000001    1    1    2    0    0  0.12268408720E+03  0.22896881041E+02 -0.29069084380E+03  0.34088974623E+03  0.12700000000E+03 0.  0.
<mgrwt>
<rscale>  0 0.36136358E+03</rscale>
<asrwt>0</asrwt>
<pdfrwt beam="1">  1        2 0.77129197E-01 0.36136358E+03</pdfrwt>
<pdfrwt beam="2">  1       -2 0.86380135E-02 0.36136358E+03</pdfrwt>
<totfact> 0.52260686E+03</totfact>
</mgrwt>
</event>
<event>
 4    1  0.1383574E-004  0.3073093E+03  0.7818608E-02  0.1081643E+00
         -2   -1    0    0    0  501 -0.00000000000E+00  0.00000000000E+00  0.36600702399E+02  0.36600702488E+02  0.25500000000E-02 0. -1.
          2   -1    0    0  501    0  0.00000000000E+00 -0.00000000000E+00 -0.64506267380E+03  0.64506267380E+03  0.25500000000E-02 0.  1.
    5000001    1    1    2    0    0 -0.72938490471E+02  0.31840334727E+01 -0.40709717655E+03  0.43265144471E+03  0.12700000000E+03 0.  0.
   -5000001    1    1    2    0    0  0.72938490471E+02 -0.31840334727E+01 -0.20136479485E+03  0.24901193158E+03  0.12700000000E+03 0.  0.
<mgrwt>
<rscale>  0 0.30730927E+03</rscale>
<asrwt>0</asrwt>
<pdfrwt beam="1">  1        2 0.92151804E-01 0.30730927E+03</pdfrwt>
<pdfrwt beam="2">  1       -2 0.52286722E-02 0.30730927E+03</pdfrwt>
<totfact> 0.92496473E+03</totfact>
</mgrwt>
</event>
<event>
 4    1  0.1383574E-004  0.4964800E+03  0.7818608E-02  0.1014702E+00
          2   -1    0    0  501    0  0.00000000000E+00  0.00000000000E+00  0.90332328997E+03  0.90332328997E+03  0.25500000000E-02 0.  1.
         -2   -1    0    0    0  501 -0.00000000000E+00 -0.00000000000E+00 -0.68218212571E+02  0.68218212619E+02  0.25500000000E-02 0. -1.
    5000001    1    1    2    0    0 -0.89401722279E+02  0.18878187770E+03  0.50201170270E+03  0.55836906697E+03  0.12700000000E+03 0.  0.
   -5000001    1    1    2    0    0  0.89401722279E+02 -0.18878187770E+03  0.33309337469E+03  0.41317243562E+03  0.12700000000E+03 0.  0.
<mgrwt>
<rscale>  0 0.49648001E+03</rscale>
<asrwt>0</asrwt>
<pdfrwt beam="1">  1        2 0.12904617E+00 0.49648001E+03</pdfrwt>
<pdfrwt beam="2">  1       -2 0.97454597E-02 0.49648001E+03</pdfrwt>
<totfact> 0.23159205E+03</totfact>
</mgrwt>
</event>
<event>
 4    1  0.1383574E-004  0.5159179E+03  0.7818608E-02  0.1009706E+00
          2   -1    0    0  501    0  0.00000000000E+00  0.00000000000E+00  0.24270350375E+04  0.24270350375E+04  0.25500000000E-02 0.  1.
         -2   -1    0    0    0  501 -0.00000000000E+00 -0.00000000000E+00 -0.27417325274E+02  0.27417325392E+02  0.25500000000E-02 0. -1.
    5000001    1    1    2    0    0 -0.18356938132E+03  0.79307876992E+02  0.71402817453E+03  0.75229827272E+03  0.12700000000E+03 0.  0.
   -5000001    1    1    2    0    0  0.18356938132E+03 -0.79307876992E+02  0.16855895377E+04  0.17021540902E+04  0.12700000000E+03 0.  0.
<mgrwt>
<rscale>  0 0.51591786E+03</rscale>
<asrwt>0</asrwt>
<pdfrwt beam="1">  1        2 0.34671897E+00 0.51591786E+03</pdfrwt>
<pdfrwt beam="2">  1       -2 0.39167644E-02 0.51591786E+03</pdfrwt>
<totfact> 0.15159350E+03</totfact>
</mgrwt>
</event>
<event>
 4    1  0.1383574E-004  0.7984132E+03  0.7818608E-02  0.9562317E-01
          2   -1    0    0  501    0  0.00000000000E+00  0.00000000000E+00  0.27182327524E+04  0.27182327524E+04  0.25500000000E-02 0.  1.
         -2   -1    0    0    0  501 -0.00000000000E+00 -0.00000000000E+00 -0.58628503771E+02  0.58628503827E+02  0.25500000000E-02 0. -1.
    5000001    1    1    2    0    0 -0.10035926615E+03  0.16329830752E+03  0.19479546898E+03  0.30135128054E+03  0.12700000000E+03 0.  0.
   -5000001    1    1    2    0    0  0.10035926615E+03 -0.16329830752E+03  0.24648087797E+04  0.24755099757E+04  0.12700000000E+03 0.  0.
<mgrwt>
<rscale>  0 0.79841322E+03</rscale>
<asrwt>0</asrwt>
<pdfrwt beam="1">  1        2 0.38831895E+00 0.79841322E+03</pdfrwt>
<pdfrwt beam="2">  1       -2 0.83755009E-02 0.79841322E+03</pdfrwt>
<totfact> 0.31874006E+02</totfact>
</mgrwt>
</event>
<event>
 4    1  0.1383574E-004  0.4782413E+03  0.7818608E-02  0.1019620E+00
         -2   -1    0    0    0  501 -0.00000000000E+00  0.00000000000E+00  0.61026365156E+02  0.61026365209E+02  0.25500000000E-02 0. -1.
          2   -1    0    0  501    0  0.00000000000E+00 -0.00000000000E+00 -0.93695036646E+03  0.93695036647E+03  0.25500000000E-02 0.  1.
    5000001    1    1    2    0    0  0.36681060556E+02  0.15451749699E+03 -0.70050080600E+03  0.72941862897E+03  0.12700000000E+03 0.  0.
   -5000001    1    1    2    0    0 -0.36681060556E+02 -0.15451749699E+03 -0.17542319531E+03  0.26855810271E+03  0.12700000000E+03 0.  0.
<mgrwt>
<rscale>  0 0.47824126E+03</rscale>
<asrwt>0</asrwt>
<pdfrwt beam="1">  1        2 0.13385004E+00 0.47824126E+03</pdfrwt>
<pdfrwt beam="2">  1       -2 0.87180528E-02 0.47824126E+03</pdfrwt>
<totfact> 0.26361461E+03</totfact>
</mgrwt>
</event>
<event>
 4    1  0.1383574E-004  0.9785447E+03  0.7818608E-02  0.9332395E-01
         -2   -1    0    0    0  501 -0.00000000000E+00  0.00000000000E+00  0.11593805744E+04  0.11593805744E+04  0.25500000000E-02 0. -1.
          2   -1    0    0  501    0  0.00000000000E+00 -0.00000000000E+00 -0.20647873176E+03  0.20647873178E+03  0.25500000000E-02 0.  1.
    5000001    1    1    2    0    0  0.23118066360E+03 -0.41203884108E+03  0.46785510049E+03  0.67693271515E+03  0.12700000000E+03 0.  0.
   -5000001    1    1    2    0    0 -0.23118066360E+03  0.41203884108E+03  0.48504674219E+03  0.68892659108E+03  0.12700000000E+03 0.  0.
<mgrwt>
<rscale>  0 0.97854470E+03</rscale>
<asrwt>0</asrwt>
<pdfrwt beam="1">  1        2 0.29496963E-01 0.97854470E+03</pdfrwt>
<pdfrwt beam="2">  1       -2 0.16562579E+00 0.97854470E+03</pdfrwt>
<totfact> 0.41565051E+01</totfact>
</mgrwt>
</event>
<event>
 4    1  0.1383574E-004  0.1551603E+04  0.7818608E-02  0.8850844E-01
         -2   -1    0    0    0  501 -0.00000000000E+00  0.00000000000E+00  0.10080283249E+04  0.10080283249E+04  0.25500000000E-02 0.  1.
          2   -1    0    0  501    0  0.00000000000E+00 -0.00000000000E+00 -0.59707462107E+03  0.59707462107E+03  0.25500000000E-02 0. -1.
    5000001    1    1    2    0    0 -0.39651156710E+03 -0.65170487945E+03  0.26923355528E+03  0.81887506985E+03  0.12700000000E+03 0.  0.
   -5000001    1    1    2    0    0  0.39651156710E+03  0.65170487945E+03  0.14172014859E+03  0.78622787616E+03  0.12700000000E+03 0.  0.
<mgrwt>
<rscale>  0 0.15516032E+04</rscale>
<asrwt>0</asrwt>
<pdfrwt beam="1">  1        2 0.85296375E-01 0.15516032E+04</pdfrwt>
<pdfrwt beam="2">  1       -2 0.14400404E+00 0.15516032E+04</pdfrwt>
<totfact> 0.17555251E+01</totfact>
</mgrwt>
</event>
<event>
 4    1  0.1383574E-004  0.3038180E+03  0.7818608E-02  0.1083347E+00
         -2   -1    0    0    0  501 -0.00000000000E+00  0.00000000000E+00  0.14738327940E+03  0.14738327942E+03  0.25500000000E-02 0. -1.
          2   -1    0    0  501    0  0.00000000000E+00 -0.00000000000E+00 -0.15657367952E+03  0.15657367955E+03  0.25500000000E-02 0.  1.
    5000001    1    1    2    0    0  0.25914171378E+02 -0.76407413482E+02 -0.25526176360E+02  0.15261134556E+03  0.12700000000E+03 0.  0.
   -5000001    1    1    2    0    0 -0.25914171378E+02  0.76407413482E+02  0.16335776236E+02  0.15134561341E+03  0.12700000000E+03 0.  0.
<mgrwt>
<rscale>  0 0.30381799E+03</rscale>
<asrwt>0</asrwt>
<pdfrwt beam="1">  1        2 0.22367668E-01 0.30381799E+03</pdfrwt>
<pdfrwt beam="2">  1       -2 0.21054754E-01 0.30381799E+03</pdfrwt>
<totfact> 0.46853140E+03</totfact>
</mgrwt>
</event>
<event>
 4    1  0.1383574E-004  0.3906517E+03  0.7818608E-02  0.1047066E+00
          2   -1    0    0  501    0  0.00000000000E+00  0.00000000000E+00  0.93165093080E+03  0.93165093081E+03  0.25500000000E-02 0.  1.
         -2   -1    0    0    0  501 -0.00000000000E+00 -0.00000000000E+00 -0.40951161608E+02  0.40951161688E+02  0.25500000000E-02 0. -1.
    5000001    1    1    2    0    0  0.13603861416E+03 -0.33474392536E+02  0.32347833503E+03  0.37469223735E+03  0.12700000000E+03 0.  0.
   -5000001    1    1    2    0    0 -0.13603861416E+03  0.33474392536E+02  0.56722143417E+03  0.59790985514E+03  0.12700000000E+03 0.  0.
<mgrwt>
<rscale>  0 0.39065170E+03</rscale>
<asrwt>0</asrwt>
<pdfrwt beam="1">  1        2 0.13309300E+00 0.39065170E+03</pdfrwt>
<pdfrwt beam="2">  1       -2 0.58501657E-02 0.39065170E+03</pdfrwt>
<totfact> 0.49603721E+03</totfact>
</mgrwt>
</event>
<event>
 4    1  0.1383574E-004  0.4889060E+03  0.7818608E-02  0.1016716E+00
          2   -1    0    0  501    0  0.00000000000E+00  0.00000000000E+00  0.19982363181E+04  0.19982363181E+04  0.25500000000E-02 0.  1.
         -2   -1    0    0    0  501 -0.00000000000E+00 -0.00000000000E+00 -0.29905002817E+02  0.29905002926E+02  0.25500000000E-02 0. -1.
    5000001    1    1    2    0    0 -0.65469896782E+02  0.14931073557E+03  0.44252295605E+03  0.48840103375E+03  0.12700000000E+03 0.  0.
   -5000001    1    1    2    0    0  0.65469896782E+02 -0.14931073557E+03  0.15258083592E+04  0.15397402873E+04  0.12700000000E+03 0.  0.
<mgrwt>
<rscale>  0 0.48890597E+03</rscale>
<asrwt>0</asrwt>
<pdfrwt beam="1">  1        2 0.28546243E+00 0.48890597E+03</pdfrwt>
<pdfrwt beam="2">  1       -2 0.42721419E-02 0.48890597E+03</pdfrwt>
<totfact> 0.21809313E+03</totfact>
</mgrwt>
</event>
<event>
 4    1  0.1383574E-004  0.1125679E+04  0.7818608E-02  0.9180519E-01
          2   -1    0    0  501    0  0.00000000000E+00  0.00000000000E+00  0.51620727718E+03  0.51620727718E+03  0.25500000000E-02 0.  1.
         -2   -1    0    0    0  501 -0.00000000000E+00 -0.00000000000E+00 -0.61368411025E+03  0.61368411025E+03  0.25500000000E-02 0. -1.
    5000001    1    1    2    0    0 -0.43808292245E+03  0.11131008002E+03  0.26283039119E+03  0.53806634850E+03  0.12700000000E+03 0.  0.
   -5000001    1    1    2    0    0  0.43808292245E+03 -0.11131008002E+03 -0.36030722426E+03  0.59182503894E+03  0.12700000000E+03 0.  0.
<mgrwt>
<rscale>  0 0.11256788E+04</rscale>
<asrwt>0</asrwt>
<pdfrwt beam="1">  1        2 0.73743897E-01 0.11256788E+04</pdfrwt>
<pdfrwt beam="2">  1       -2 0.87669158E-01 0.11256788E+04</pdfrwt>
<totfact> 0.72112889E+01</totfact>
</mgrwt>
</event>
<event>
 4    1  0.1383574E-004  0.4258578E+03  0.7818608E-02  0.1035177E+00
          2   -1    0    0  501    0  0.00000000000E+00  0.00000000000E+00  0.25834156751E+03  0.25834156752E+03  0.25500000000E-02 0.  1.
         -2   -1    0    0    0  501 -0.00000000000E+00 -0.00000000000E+00 -0.17549908567E+03  0.17549908569E+03  0.25500000000E-02 0. -1.
    5000001    1    1    2    0    0  0.15313971853E+03 -0.26522289302E+02  0.11384898087E+03  0.23075050524E+03  0.12700000000E+03 0.  0.
   -5000001    1    1    2    0    0 -0.15313971853E+03  0.26522289302E+02 -0.31006499031E+02  0.20309014798E+03  0.12700000000E+03 0.  0.
<mgrwt>
<rscale>  0 0.42585776E+03</rscale>
<asrwt>0</asrwt>
<pdfrwt beam="1">  1        2 0.36905938E-01 0.42585776E+03</pdfrwt>
<pdfrwt beam="2">  1       -2 0.25071298E-01 0.42585776E+03</pdfrwt>
<totfact> 0.19896668E+03</totfact>
</mgrwt>
</event>
<event>
 4    1  0.1383574E-004  0.4357208E+03  0.7818608E-02  0.1032068E+00
         -2   -1    0    0    0  501 -0.00000000000E+00  0.00000000000E+00  0.33331019628E+03  0.33331019629E+03  0.25500000000E-02 0. -1.
          2   -1    0    0  501    0  0.00000000000E+00 -0.00000000000E+00 -0.14239931785E+03  0.14239931787E+03  0.25500000000E-02 0.  1.
    5000001    1    1    2    0    0 -0.12658500958E+03 -0.10011686143E+03  0.17484035643E+03  0.26971336791E+03  0.12700000000E+03 0.  0.
   -5000001    1    1    2    0    0  0.12658500958E+03  0.10011686143E+03  0.16070522007E+02  0.20599614625E+03  0.12700000000E+03 0.  0.
<mgrwt>
<rscale>  0 0.43572076E+03</rscale>
<asrwt>0</asrwt>
<pdfrwt beam="1">  1        2 0.20342760E-01 0.43572076E+03</pdfrwt>
<pdfrwt beam="2">  1       -2 0.47615742E-01 0.43572076E+03</pdfrwt>
<totfact> 0.11628981E+03</totfact>
</mgrwt>
</event>
<event>
 4    1  0.1383574E-004  0.3359393E+03  0.7818608E-02  0.1068539E+00
          2   -1    0    0  501    0  0.00000000000E+00  0.00000000000E+00  0.72480796686E+03  0.72480796687E+03  0.25500000000E-02 0.  1.
         -2   -1    0    0    0  501 -0.00000000000E+00 -0.00000000000E+00 -0.38925893457E+02  0.38925893541E+02  0.25500000000E-02 0. -1.
    5000001    1    1    2    0    0  0.98167705456E+02  0.11976081048E+02  0.45207679505E+03  0.47987785273E+03  0.12700000000E+03 0.  0.
   -5000001    1    1    2    0    0 -0.98167705456E+02 -0.11976081048E+02  0.23380527835E+03  0.28385600768E+03  0.12700000000E+03 0.  0.
<mgrwt>
<rscale>  0 0.33593927E+03</rscale>
<asrwt>0</asrwt>
<pdfrwt beam="1">  1        2 0.10354400E+00 0.33593927E+03</pdfrwt>
<pdfrwt beam="2">  1       -2 0.55608418E-02 0.33593927E+03</pdfrwt>
<totfact> 0.73496548E+03</totfact>
</mgrwt>
</event>
<event>
 4    1  0.1383574E-004  0.4112229E+03  0.7818608E-02  0.1039961E+00
         -2   -1    0    0    0  501 -0.00000000000E+00  0.00000000000E+00  0.31722099718E+02  0.31722099820E+02  0.25500000000E-02 0. -1.
          2   -1    0    0  501    0  0.00000000000E+00 -0.00000000000E+00 -0.13327009580E+04  0.13327009580E+04  0.25500000000E-02 0.  1.
    5000001    1    1    2    0    0  0.14301291362E+03  0.10279546463E+02 -0.89853274694E+03  0.91872110015E+03  0.12700000000E+03 0.  0.
   -5000001    1    1    2    0    0 -0.14301291362E+03 -0.10279546463E+02 -0.40244611135E+03  0.44570195768E+03  0.12700000000E+03 0.  0.
<mgrwt>
<rscale>  0 0.41122292E+03</rscale>
<asrwt>0</asrwt>
<pdfrwt beam="1">  1        2 0.19038582E+00 0.41122292E+03</pdfrwt>
<pdfrwt beam="2">  1       -2 0.45317294E-02 0.41122292E+03</pdfrwt>
<totfact> 0.43460535E+03</totfact>
</mgrwt>
</event>
<event>
 4    1  0.1383574E-004  0.6075243E+03  0.7818608E-02  0.9889917E-01
         -2   -1    0    0    0  501 -0.00000000000E+00  0.00000000000E+00  0.74051722398E+02  0.74051722442E+02  0.25500000000E-02 0. -1.
          2   -1    0    0  501    0  0.00000000000E+00 -0.00000000000E+00 -0.12460405340E+04  0.12460405340E+04  0.25500000000E-02 0.  1.
    5000001    1    1    2    0    0 -0.49607371070E+02 -0.24191807705E+03 -0.85351062503E+03  0.89754923782E+03  0.12700000000E+03 0.  0.
   -5000001    1    1    2    0    0  0.49607371070E+02  0.24191807705E+03 -0.31847818657E+03  0.42254301863E+03  0.12700000000E+03 0.  0.
<mgrwt>
<rscale>  0 0.60752431E+03</rscale>
<asrwt>0</asrwt>
<pdfrwt beam="1">  1        2 0.17800578E+00 0.60752431E+03</pdfrwt>
<pdfrwt beam="2">  1       -2 0.10578818E-01 0.60752431E+03</pdfrwt>
<totfact> 0.12712958E+03</totfact>
</mgrwt>
</event>
<event>
 4    1  0.1383574E-004  0.3434289E+03  0.7818608E-02  0.1065345E+00
          2   -1    0    0  501    0  0.00000000000E+00  0.00000000000E+00  0.82793637338E+03  0.82793637339E+03  0.25500000000E-02 0.  1.
         -2   -1    0    0    0  501 -0.00000000000E+00 -0.00000000000E+00 -0.35613675005E+02  0.35613675096E+02  0.25500000000E-02 0. -1.
    5000001    1    1    2    0    0 -0.54379476837E+02  0.89466703176E+02  0.51922878493E+03  0.54469160961E+03  0.12700000000E+03 0.  0.
   -5000001    1    1    2    0    0  0.54379476837E+02 -0.89466703176E+02  0.27309391344E+03  0.31885843887E+03  0.12700000000E+03 0.  0.
<mgrwt>
<rscale>  0 0.34342893E+03</rscale>
<asrwt>0</asrwt>
<pdfrwt beam="1">  1        2 0.11827664E+00 0.34342893E+03</pdfrwt>
<pdfrwt beam="2">  1       -2 0.50876672E-02 0.34342893E+03</pdfrwt>
<totfact> 0.71501942E+03</totfact>
</mgrwt>
</event>
<event>
 4    1  0.1383574E-004  0.1001325E+04  0.7818608E-02  0.9307092E-01
          2   -1    0    0  501    0  0.00000000000E+00  0.00000000000E+00  0.14936949007E+04  0.14936949007E+04  0.25500000000E-02 0.  1.
         -2   -1    0    0    0  501 -0.00000000000E+00 -0.00000000000E+00 -0.16781417550E+03  0.16781417552E+03  0.25500000000E-02 0. -1.
    5000001    1    1    2    0    0 -0.47710765510E+03  0.78844868747E+02  0.70639876833E+03  0.86543425388E+03  0.12700000000E+03 0.  0.
   -5000001    1    1    2    0    0  0.47710765510E+03 -0.78844868747E+02  0.61948195687E+03  0.79607482235E+03  0.12700000000E+03 0.  0.
<mgrwt>
<rscale>  0 0.10013255E+04</rscale>
<asrwt>0</asrwt>
<pdfrwt beam="1">  1        2 0.21338498E+00 0.10013255E+04</pdfrwt>
<pdfrwt beam="2">  1       -2 0.23973454E-01 0.10013255E+04</pdfrwt>
<totfact> 0.22707429E+02</totfact>
</mgrwt>
</event>
<event>
 4    1  0.1383574E-004  0.4110012E+03  0.7818608E-02  0.1040036E+00
          2   -1    0    0  501    0  0.00000000000E+00  0.00000000000E+00  0.29089177818E+04  0.29089177818E+04  0.25500000000E-02 0.  1.
         -2   -1    0    0    0  501 -0.00000000000E+00 -0.00000000000E+00 -0.14517598006E+02  0.14517598230E+02  0.25500000000E-02 0. -1.
    5000001    1    1    2    0    0  0.35210618361E+02 -0.14362863337E+03  0.98444598565E+03  0.10035595999E+04  0.12700000000E+03 0.  0.
   -5000001    1    1    2    0    0 -0.35210618361E+02  0.14362863337E+03  0.19099541981E+04  0.19198757801E+04  0.12700000000E+03 0.  0.
<mgrwt>
<rscale>  0 0.41100121E+03</rscale>
<asrwt>0</asrwt>
<pdfrwt beam="1">  1        2 0.41556011E+00 0.41100121E+03</pdfrwt>
<pdfrwt beam="2">  1       -2 0.20739404E-02 0.41100121E+03</pdfrwt>
<totfact> 0.22437710E+03</totfact>
</mgrwt>
</event>
<event>
 4    1  0.1383574E-004  0.4650380E+03  0.7818608E-02  0.1023330E+00
          2   -1    0    0  501    0  0.00000000000E+00  0.00000000000E+00  0.55806587851E+03  0.55806587852E+03  0.25500000000E-02 0.  1.
         -2   -1    0    0    0  501 -0.00000000000E+00 -0.00000000000E+00 -0.96879380158E+02  0.96879380191E+02  0.25500000000E-02 0. -1.
    5000001    1    1    2    0    0 -0.12257174862E+03  0.20883327530E+02  0.19449922902E+02  0.17879386575E+03  0.12700000000E+03 0.  0.
   -5000001    1    1    2    0    0  0.12257174862E+03 -0.20883327530E+02  0.44173657545E+03  0.47615139296E+03  0.12700000000E+03 0.  0.
<mgrwt>
<rscale>  0 0.46503796E+03</rscale>
<asrwt>0</asrwt>
<pdfrwt beam="1">  1        2 0.79723699E-01 0.46503796E+03</pdfrwt>
<pdfrwt beam="2">  1       -2 0.13839911E-01 0.46503796E+03</pdfrwt>
<totfact> 0.23555769E+03</totfact>
</mgrwt>
</event>
<event>
 4    1  0.1383574E-004  0.3805038E+03  0.7818608E-02  0.1050748E+00
         -2   -1    0    0    0  501 -0.00000000000E+00  0.00000000000E+00  0.22630557342E+03  0.22630557344E+03  0.25500000000E-02 0. -1.
          2   -1    0    0  501    0  0.00000000000E+00 -0.00000000000E+00 -0.15994207355E+03  0.15994207357E+03  0.25500000000E-02 0.  1.
    5000001    1    1    2    0    0  0.37404941773E+01 -0.12295819337E+03  0.10448506098E+03  0.20537486842E+03  0.12700000000E+03 0.  0.
   -5000001    1    1    2    0    0 -0.37404941773E+01  0.12295819337E+03 -0.38121561110E+02  0.18087277859E+03  0.12700000000E+03 0.  0.
<mgrwt>
<rscale>  0 0.38050379E+03</rscale>
<asrwt>0</asrwt>
<pdfrwt beam="1">  1        2 0.22848868E-01 0.38050379E+03</pdfrwt>
<pdfrwt beam="2">  1       -2 0.32329367E-01 0.38050379E+03</pdfrwt>
<totfact> 0.21372696E+03</totfact>
</mgrwt>
</event>
<event>
 4    1  0.1383574E-004  0.3802271E+03  0.7818608E-02  0.1050850E+00
         -2   -1    0    0    0  501 -0.00000000000E+00  0.00000000000E+00  0.20370590236E+02  0.20370590395E+02  0.25500000000E-02 0. -1.
          2   -1    0    0  501    0  0.00000000000E+00 -0.00000000000E+00 -0.17742817355E+04  0.17742817355E+04  0.25500000000E-02 0.  1.
    5000001    1    1    2    0    0  0.30418486067E+02  0.11184464284E+03 -0.49409654715E+03  0.52315858622E+03  0.12700000000E+03 0.  0.
   -5000001    1    1    2    0    0 -0.30418486067E+02 -0.11184464284E+03 -0.12598145981E+04  0.12714937396E+04  0.12700000000E+03 0.  0.
<mgrwt>
<rscale>  0 0.38022712E+03</rscale>
<asrwt>0</asrwt>
<pdfrwt beam="1">  1        2 0.25346872E+00 0.38022712E+03</pdfrwt>
<pdfrwt beam="2">  1       -2 0.29100854E-02 0.38022712E+03</pdfrwt>
<totfact> 0.50570413E+03</totfact>
</mgrwt>
</event>
<event>
 4    1  0.1383574E-004  0.5101730E+03  0.7818608E-02  0.1011157E+00
         -2   -1    0    0    0  501 -0.00000000000E+00  0.00000000000E+00  0.10084888223E+03  0.10084888226E+03  0.25500000000E-02 0. -1.
          2   -1    0    0  501    0  0.00000000000E+00 -0.00000000000E+00 -0.64521408818E+03  0.64521408818E+03  0.25500000000E-02 0.  1.
    5000001    1    1    2    0    0  0.14947696936E+03  0.15393141462E+03 -0.19340597956E+03  0.31555208398E+03  0.12700000000E+03 0.  0.
   -5000001    1    1    2    0    0 -0.14947696936E+03 -0.15393141462E+03 -0.35095922640E+03  0.43051088647E+03  0.12700000000E+03 0.  0.
<mgrwt>
<rscale>  0 0.51017299E+03</rscale>
<asrwt>0</asrwt>
<pdfrwt beam="1">  1        2 0.92173439E-01 0.51017299E+03</pdfrwt>
<pdfrwt beam="2">  1       -2 0.14406984E-01 0.51017299E+03</pdfrwt>
<totfact> 0.18604915E+03</totfact>
</mgrwt>
</event>
<event>
 4    1  0.1383574E-004  0.1218508E+04  0.7818608E-02  0.9096809E-01
          2   -1    0    0  501    0  0.00000000000E+00  0.00000000000E+00  0.11322438740E+04  0.11322438740E+04  0.25500000000E-02 0.  1.
         -2   -1    0    0    0  501 -0.00000000000E+00 -0.00000000000E+00 -0.32783586053E+03  0.32783586054E+03  0.25500000000E-02 0. -1.
    5000001    1    1    2    0    0 -0.27994908858E+03 -0.50777591028E+03  0.56673275335E+03  0.82068439792E+03  0.12700000000E+03 0.  0.
   -5000001    1    1    2    0    0  0.27994908858E+03  0.50777591028E+03  0.23767526016E+03  0.63939533667E+03  0.12700000000E+03 0.  0.
<mgrwt>
<rscale>  0 0.12185075E+04</rscale>
<asrwt>0</asrwt>
<pdfrwt beam="1">  1        2 0.16174912E+00 0.12185075E+04</pdfrwt>
<pdfrwt beam="2">  1       -2 0.46833696E-01 0.12185075E+04</pdfrwt>
<totfact> 0.99602484E+01</totfact>
</mgrwt>
</event>
<event>
 4    1  0.1383574E-004  0.4880794E+03  0.7818608E-02  0.1016938E+00
          2   -1    0    0  501    0  0.00000000000E+00  0.00000000000E+00  0.27413778640E+03  0.27413778641E+03  0.25500000000E-02 0.  1.
         -2   -1    0    0    0  501 -0.00000000000E+00 -0.00000000000E+00 -0.21724616030E+03  0.21724616032E+03  0.25500000000E-02 0. -1.
    5000001    1    1    2    0    0 -0.19211408354E+03  0.76029218685E+02  0.55798087911E+02  0.24885877481E+03  0.12700000000E+03 0.  0.
   -5000001    1    1    2    0    0  0.19211408354E+03 -0.76029218685E+02  0.10935381915E+01  0.24252517192E+03  0.12700000000E+03 0.  0.
<mgrwt>
<rscale>  0 0.48807943E+03</rscale>
<asrwt>0</asrwt>
<pdfrwt beam="1">  1        2 0.39162541E-01 0.48807943E+03</pdfrwt>
<pdfrwt beam="2">  1       -2 0.31035166E-01 0.48807943E+03</pdfrwt>
<totfact> 0.12665528E+03</totfact>
</mgrwt>
</event>
<event>
 4    1  0.1383574E-004  0.6524551E+03  0.7818608E-02  0.9802183E-01
         -2   -1    0    0    0  501 -0.00000000000E+00  0.00000000000E+00  0.65250995423E+02  0.65250995473E+02  0.25500000000E-02 0. -1.
          2   -1    0    0  501    0  0.00000000000E+00 -0.00000000000E+00 -0.16310005088E+04  0.16310005088E+04  0.25500000000E-02 0.  1.
    5000001    1    1    2    0    0  0.16359107306E+02 -0.27860823724E+03 -0.49331236455E+03  0.58084099310E+03  0.12700000000E+03 0.  0.
   -5000001    1    1    2    0    0 -0.16359107306E+02  0.27860823724E+03 -0.10724371488E+04  0.11154105112E+04  0.12700000000E+03 0.  0.
<mgrwt>
<rscale>  0 0.65245508E+03</rscale>
<asrwt>0</asrwt>
<pdfrwt beam="1">  1        2 0.23300005E+00 0.65245508E+03</pdfrwt>
<pdfrwt beam="2">  1       -2 0.93215718E-02 0.65245508E+03</pdfrwt>
<totfact> 0.97441589E+02</totfact>
</mgrwt>
</event>
<event>
 4    1  0.1383574E-004  0.4545135E+03  0.7818608E-02  0.1026385E+00
         -2   -1    0    0    0  501 -0.00000000000E+00  0.00000000000E+00  0.20394979250E+03  0.20394979252E+03  0.25500000000E-02 0. -1.
          2   -1    0    0  501    0  0.00000000000E+00 -0.00000000000E+00 -0.25322716826E+03  0.25322716827E+03  0.25500000000E-02 0.  1.
    5000001    1    1    2    0    0 -0.70506036468E+02 -0.13536318886E+03  0.86563834251E+02  0.21660238105E+03  0.12700000000E+03 0.  0.
   -5000001    1    1    2    0    0  0.70506036468E+02  0.13536318886E+03 -0.13584121001E+03  0.24057457973E+03  0.12700000000E+03 0.  0.
<mgrwt>
<rscale>  0 0.45451349E+03</rscale>
<asrwt>0</asrwt>
<pdfrwt beam="1">  1        2 0.36175310E-01 0.45451349E+03</pdfrwt>
<pdfrwt beam="2">  1       -2 0.29135685E-01 0.45451349E+03</pdfrwt>
<totfact> 0.15517475E+03</totfact>
</mgrwt>
</event>
<event>
 4    1  0.1383574E-004  0.5434022E+03  0.7818608E-02  0.1003033E+00
          2   -1    0    0  501    0  0.00000000000E+00  0.00000000000E+00  0.16775289240E+03  0.16775289242E+03  0.25500000000E-02 0.  1.
         -2   -1    0    0    0  501 -0.00000000000E+00 -0.00000000000E+00 -0.44006081829E+03  0.44006081830E+03  0.25500000000E-02 0. -1.
    5000001    1    1    2    0    0 -0.20430007243E+03  0.11934397540E+03 -0.89887055923E+02  0.28317871898E+03  0.12700000000E+03 0.  0.
   -5000001    1    1    2    0    0  0.20430007243E+03 -0.11934397540E+03 -0.18242086997E+03  0.32463499174E+03  0.12700000000E+03 0.  0.
<mgrwt>
<rscale>  0 0.54340215E+03</rscale>
<asrwt>0</asrwt>
<pdfrwt beam="1">  1        2 0.23964699E-01 0.54340215E+03</pdfrwt>
<pdfrwt beam="2">  1       -2 0.62865831E-01 0.54340215E+03</pdfrwt>
<totfact> 0.54390038E+02</totfact>
</mgrwt>
</event>
<event>
 4    1  0.1383574E-004  0.4003465E+03  0.7818608E-02  0.1043660E+00
          2   -1    0    0  501    0  0.00000000000E+00  0.00000000000E+00  0.90195555738E+03  0.90195555738E+03  0.25500000000E-02 0.  1.
         -2   -1    0    0    0  501 -0.00000000000E+00 -0.00000000000E+00 -0.44424942520E+02  0.44424942593E+02  0.25500000000E-02 0. -1.
    5000001    1    1    2    0    0  0.52627944062E+01  0.15349414650E+03  0.38440359419E+03  0.43299338706E+03  0.12700000000E+03 0.  0.
   -5000001    1    1    2    0    0 -0.52627944062E+01 -0.15349414650E+03  0.47312702067E+03  0.51338711291E+03  0.12700000000E+03 0.  0.
<mgrwt>
<rscale>  0 0.40034647E+03</rscale>
<asrwt>0</asrwt>
<pdfrwt beam="1">  1        2 0.12885079E+00 0.40034647E+03</pdfrwt>
<pdfrwt beam="2">  1       -2 0.63464208E-02 0.40034647E+03</pdfrwt>
<totfact> 0.45655311E+03</totfact>
</mgrwt>
</event>
<event>
 4    1  0.1383574E-004  0.4273682E+03  0.7818608E-02  0.1034695E+00
          2   -1    0    0  501    0  0.00000000000E+00  0.00000000000E+00  0.10960516960E+04  0.10960516960E+04  0.25500000000E-02 0.  1.
         -2   -1    0    0    0  501 -0.00000000000E+00 -0.00000000000E+00 -0.41659434811E+02  0.41659434889E+02  0.25500000000E-02 0. -1.
    5000001    1    1    2    0    0  0.47706937435E+02  0.16476781479E+03  0.49959331848E+03  0.54327421119E+03  0.12700000000E+03 0.  0.
   -5000001    1    1    2    0    0 -0.47706937435E+02 -0.16476781479E+03  0.55479894266E+03  0.59443691965E+03  0.12700000000E+03 0.  0.
<mgrwt>
<rscale>  0 0.42736820E+03</rscale>
<asrwt>0</asrwt>
<pdfrwt beam="1">  1        2 0.15657881E+00 0.42736820E+03</pdfrwt>
<pdfrwt beam="2">  1       -2 0.59513481E-02 0.42736820E+03</pdfrwt>
<totfact> 0.38571316E+03</totfact>
</mgrwt>
</event>
<event>
 4    1  0.1383574E-004  0.4914324E+03  0.7818608E-02  0.1016040E+00
          2   -1    0    0  501    0  0.00000000000E+00  0.00000000000E+00  0.22180746304E+04  0.22180746304E+04  0.25500000000E-02 0.  1.
         -2   -1    0    0    0  501 -0.00000000000E+00 -0.00000000000E+00 -0.27220203932E+02  0.27220204051E+02  0.25500000000E-02 0. -1.
    5000001    1    1    2    0    0 -0.19724640108E+03  0.71406896867E+02  0.10242998462E+04  0.10532446357E+04  0.12700000000E+03 0.  0.
   -5000001    1    1    2    0    0  0.19724640108E+03 -0.71406896867E+02  0.11665545803E+04  0.11920501988E+04  0.12700000000E+03 0.  0.
<mgrwt>
<rscale>  0 0.49143237E+03</rscale>
<asrwt>0</asrwt>
<pdfrwt beam="1">  1        2 0.31686793E+00 0.49143237E+03</pdfrwt>
<pdfrwt beam="2">  1       -2 0.38885990E-02 0.49143237E+03</pdfrwt>
<totfact> 0.19559436E+03</totfact>
</mgrwt>
</event>
<event>
 4    1  0.1383574E-004  0.4342007E+03  0.7818608E-02  0.1032541E+00
          2   -1    0    0  501    0  0.00000000000E+00  0.00000000000E+00  0.30318500287E+04  0.30318500287E+04  0.25500000000E-02 0.  1.
         -2   -1    0    0    0  501 -0.00000000000E+00 -0.00000000000E+00 -0.15545806463E+02  0.15545806672E+02  0.25500000000E-02 0. -1.
    5000001    1    1    2    0    0  0.62947949323E+02 -0.15620294222E+03  0.11474204224E+04  0.11666466599E+04  0.12700000000E+03 0.  0.
   -5000001    1    1    2    0    0 -0.62947949323E+02  0.15620294222E+03  0.18688837999E+04  0.18807491755E+04  0.12700000000E+03 0.  0.
<mgrwt>
<rscale>  0 0.43420066E+03</rscale>
<asrwt>0</asrwt>
<pdfrwt beam="1">  1        2 0.43312136E+00 0.43420066E+03</pdfrwt>
<pdfrwt beam="2">  1       -2 0.22208299E-02 0.43420066E+03</pdfrwt>
<totfact> 0.17376299E+03</totfact>
</mgrwt>
</event>
<event>
 4    1  0.1383574E-004  0.8967837E+03  0.7818608E-02  0.9429611E-01
         -2   -1    0    0    0  501 -0.00000000000E+00  0.00000000000E+00  0.25669863055E+03  0.25669863056E+03  0.25500000000E-02 0. -1.
          2   -1    0    0  501    0  0.00000000000E+00 -0.00000000000E+00 -0.78323462957E+03  0.78323462957E+03  0.25500000000E-02 0.  1.
    5000001    1    1    2    0    0  0.26778058397E+01  0.42891751700E+03 -0.29898841395E+03  0.53805248694E+03  0.12700000000E+03 0.  0.
   -5000001    1    1    2    0    0 -0.26778058397E+01 -0.42891751700E+03 -0.22754758507E+03  0.50188077319E+03  0.12700000000E+03 0.  0.
<mgrwt>
<rscale>  0 0.89678371E+03</rscale>
<asrwt>0</asrwt>
<pdfrwt beam="1">  1        2 0.11189066E+00 0.89678371E+03</pdfrwt>
<pdfrwt beam="2">  1       -2 0.36671233E-01 0.89678371E+03</pdfrwt>
<totfact> 0.27381816E+02</totfact>
</mgrwt>
</event>
<event>
 4    1  0.1383574E-004  0.4538836E+03  0.7818608E-02  0.1026570E+00
         -2   -1    0    0    0  501 -0.00000000000E+00  0.00000000000E+00  0.82230788138E+02  0.82230788178E+02  0.25500000000E-02 0. -1.
          2   -1    0    0  501    0  0.00000000000E+00 -0.00000000000E+00 -0.62631758636E+03  0.62631758636E+03  0.25500000000E-02 0.  1.
    5000001    1    1    2    0    0 -0.79253138008E+02 -0.16647214982E+03 -0.21406128418E+03  0.30975033484E+03  0.12700000000E+03 0.  0.
   -5000001    1    1    2    0    0  0.79253138008E+02  0.16647214982E+03 -0.33002551403E+03  0.39879803969E+03  0.12700000000E+03 0.  0.
<mgrwt>
<rscale>  0 0.45388364E+03</rscale>
<asrwt>0</asrwt>
<pdfrwt beam="1">  1        2 0.89473938E-01 0.45388364E+03</pdfrwt>
<pdfrwt beam="2">  1       -2 0.11747256E-01 0.45388364E+03</pdfrwt>
<totfact> 0.26973810E+03</totfact>
</mgrwt>
</event>
<event>
 4    1  0.1383574E-004  0.5048339E+03  0.7818608E-02  0.1012525E+00
         -2   -1    0    0    0  501 -0.00000000000E+00  0.00000000000E+00  0.27249046120E+02  0.27249046239E+02  0.25500000000E-02 0. -1.
          2   -1    0    0  501    0  0.00000000000E+00 -0.00000000000E+00 -0.23382223560E+04  0.23382223560E+04  0.25500000000E-02 0.  1.
    5000001    1    1    2    0    0 -0.15726175621E+03 -0.11360743041E+03 -0.16228174429E+04  0.16392996557E+04  0.12700000000E+03 0.  0.
   -5000001    1    1    2    0    0  0.15726175621E+03  0.11360743041E+03 -0.68815586702E+03  0.72617174658E+03  0.12700000000E+03 0.  0.
<mgrwt>
<rscale>  0 0.50483395E+03</rscale>
<asrwt>0</asrwt>
<pdfrwt beam="1">  1        2 0.33403164E+00 0.50483395E+03</pdfrwt>
<pdfrwt beam="2">  1       -2 0.38927224E-02 0.50483395E+03</pdfrwt>
<totfact> 0.16981850E+03</totfact>
</mgrwt>
</event>
<event>
 4    1  0.1383574E-004  0.3813619E+03  0.7818608E-02  0.1050432E+00
          2   -1    0    0  501    0  0.00000000000E+00  0.00000000000E+00  0.67163913707E+03  0.67163913708E+03  0.25500000000E-02 0.  1.
         -2   -1    0    0    0  501 -0.00000000000E+00 -0.00000000000E+00 -0.54135072514E+02  0.54135072574E+02  0.25500000000E-02 0. -1.
    5000001    1    1    2    0    0 -0.20873591625E+02  0.71139812725E+02  0.77748082984E+02  0.16634405366E+03  0.12700000000E+03 0.  0.
   -5000001    1    1    2    0    0  0.20873591625E+02 -0.71139812725E+02  0.53975598158E+03  0.55943015599E+03  0.12700000000E+03 0.  0.
<mgrwt>
<rscale>  0 0.38136195E+03</rscale>
<asrwt>0</asrwt>
<pdfrwt beam="1">  1        2 0.95948447E-01 0.38136195E+03</pdfrwt>
<pdfrwt beam="2">  1       -2 0.77335819E-02 0.38136195E+03</pdfrwt>
<totfact> 0.48378330E+03</totfact>
</mgrwt>
</event>
<event>
 4    1  0.1383574E-004  0.3520526E+03  0.7818608E-02  0.1061776E+00
         -2   -1    0    0    0  501 -0.00000000000E+00  0.00000000000E+00  0.29768285498E+02  0.29768285607E+02  0.25500000000E-02 0. -1.
          2   -1    0    0  501    0  0.00000000000E+00 -0.00000000000E+00 -0.10408813276E+04  0.10408813276E+04  0.25500000000E-02 0.  1.
    5000001    1    1    2    0    0  0.46359531586E+01 -0.11988471950E+03 -0.57095318553E+03  0.59708490024E+03  0.12700000000E+03 0.  0.
   -5000001    1    1    2    0    0 -0.46359531586E+01  0.11988471950E+03 -0.44015985656E+03  0.47356471295E+03  0.12700000000E+03 0.  0.
<mgrwt>
<rscale>  0 0.35205257E+03</rscale>
<asrwt>0</asrwt>
<pdfrwt beam="1">  1        2 0.14869731E+00 0.35205257E+03</pdfrwt>
<pdfrwt beam="2">  1       -2 0.42526129E-02 0.35205257E+03</pdfrwt>
<totfact> 0.69368300E+03</totfact>
</mgrwt>
</event>
<event>
 4    1  0.1383574E-004  0.3060001E+03  0.7818608E-02  0.1082279E+00
          2   -1    0    0  501    0  0.00000000000E+00  0.00000000000E+00  0.48274992232E+03  0.48274992233E+03  0.25500000000E-02 0.  1.
         -2   -1    0    0    0  501 -0.00000000000E+00 -0.00000000000E+00 -0.48490987329E+02  0.48490987396E+02  0.25500000000E-02 0. -1.
    5000001    1    1    2    0    0 -0.78044753809E+02 -0.38773391896E+00  0.15726900265E+03  0.21668796258E+03  0.12700000000E+03 0.  0.
   -5000001    1    1    2    0    0  0.78044753809E+02  0.38773391896E+00  0.27698993234E+03  0.31455294714E+03  0.12700000000E+03 0.  0.
<mgrwt>
<rscale>  0 0.30600013E+03</rscale>
<asrwt>0</asrwt>
<pdfrwt beam="1">  1        2 0.68964275E-01 0.30600013E+03</pdfrwt>
<pdfrwt beam="2">  1       -2 0.69272838E-02 0.30600013E+03</pdfrwt>
<totfact> 0.83280302E+03</totfact>
</mgrwt>
</event>
<event>
 4    1  0.1383574E-004  0.3625560E+03  0.7818608E-02  0.1057576E+00
         -2   -1    0    0    0  501 -0.00000000000E+00  0.00000000000E+00  0.84964753738E+02  0.84964753776E+02  0.25500000000E-02 0. -1.
          2   -1    0    0  501    0  0.00000000000E+00 -0.00000000000E+00 -0.38676870150E+03  0.38676870151E+03  0.25500000000E-02 0.  1.
    5000001    1    1    2    0    0  0.12646114641E+03 -0.22731071413E+01 -0.11562426116E+03  0.21329687840E+03  0.12700000000E+03 0.  0.
   -5000001    1    1    2    0    0 -0.12646114641E+03  0.22731071413E+01 -0.18617968660E+03  0.25843657688E+03  0.12700000000E+03 0.  0.
<mgrwt>
<rscale>  0 0.36255597E+03</rscale>
<asrwt>0</asrwt>
<pdfrwt beam="1">  1        2 0.55252671E-01 0.36255597E+03</pdfrwt>
<pdfrwt beam="2">  1       -2 0.12137822E-01 0.36255597E+03</pdfrwt>
<totfact> 0.43810827E+03</totfact>
</mgrwt>
</event>
<event>
 4    1  0.1383574E-004  0.4484032E+03  0.7818608E-02  0.1028199E+00
          2   -1    0    0  501    0  0.00000000000E+00  0.00000000000E+00  0.22274981036E+04  0.22274981036E+04  0.25500000000E-02 0.  1.
         -2   -1    0    0    0  501 -0.00000000000E+00 -0.00000000000E+00 -0.22566280600E+02  0.22566280744E+02  0.25500000000E-02 0. -1.
    5000001    1    1    2    0    0  0.14393842111E+02  0.18370610874E+03  0.10347272495E+04  0.10586522554E+04  0.12700000000E+03 0.  0.
   -5000001    1    1    2    0    0 -0.14393842111E+02 -0.18370610874E+03  0.11702045735E+04  0.11914121290E+04  0.12700000000E+03 0.  0.
<mgrwt>
<rscale>  0 0.44840316E+03</rscale>
<asrwt>0</asrwt>
<pdfrwt beam="1">  1        2 0.31821402E+00 0.44840316E+03</pdfrwt>
<pdfrwt beam="2">  1       -2 0.32237543E-02 0.44840316E+03</pdfrwt>
<totfact> 0.25782327E+03</totfact>
</mgrwt>
</event>
<event>
 4    1  0.1383574E-004  0.9046914E+03  0.7818608E-02  0.9419736E-01
         -2   -1    0    0    0  501 -0.00000000000E+00  0.00000000000E+00  0.16023741299E+03  0.16023741301E+03  0.25500000000E-02 0. -1.
          2   -1    0    0  501    0  0.00000000000E+00 -0.00000000000E+00 -0.12769591586E+04  0.12769591586E+04  0.25500000000E-02 0.  1.
    5000001    1    1    2    0    0 -0.14443029713E+03 -0.32601128718E+03 -0.16489929440E+03  0.41287316138E+03  0.12700000000E+03 0.  0.
   -5000001    1    1    2    0    0  0.14443029713E+03  0.32601128718E+03 -0.95182245118E+03  0.10243234102E+04  0.12700000000E+03 0.  0.
<mgrwt>
<rscale>  0 0.90469140E+03</rscale>
<asrwt>0</asrwt>
<pdfrwt beam="1">  1        2 0.18242273E+00 0.90469140E+03</pdfrwt>
<pdfrwt beam="2">  1       -2 0.22891060E-01 0.90469140E+03</pdfrwt>
<totfact> 0.32489677E+02</totfact>
</mgrwt>
</event>
<event>
 4    1  0.1383574E-004  0.6673614E+03  0.7818608E-02  0.9774736E-01
         -2   -1    0    0    0  501 -0.00000000000E+00  0.00000000000E+00  0.70084375982E+02  0.70084376028E+02  0.25500000000E-02 0. -1.
          2   -1    0    0  501    0  0.00000000000E+00 -0.00000000000E+00 -0.15886965949E+04  0.15886965949E+04  0.25500000000E-02 0.  1.
    5000001    1    1    2    0    0 -0.17112526452E+03 -0.17774954979E+03 -0.12198773427E+04  0.12510429609E+04  0.12700000000E+03 0.  0.
   -5000001    1    1    2    0    0  0.17112526452E+03  0.17774954979E+03 -0.29873487619E+03  0.40773801008E+03  0.12700000000E+03 0.  0.
<mgrwt>
<rscale>  0 0.66736140E+03</rscale>
<asrwt>0</asrwt>
<pdfrwt beam="1">  1        2 0.22695663E+00 0.66736140E+03</pdfrwt>
<pdfrwt beam="2">  1       -2 0.10012055E-01 0.66736140E+03</pdfrwt>
<totfact> 0.91195209E+02</totfact>
</mgrwt>
</event>
<event>
 4    1  0.1383574E-004  0.7570869E+03  0.7818608E-02  0.9624297E-01
         -2   -1    0    0    0  501 -0.00000000000E+00  0.00000000000E+00  0.90617029081E+03  0.90617029081E+03  0.25500000000E-02 0. -1.
          2   -1    0    0  501    0  0.00000000000E+00 -0.00000000000E+00 -0.15813266936E+03  0.15813266938E+03  0.25500000000E-02 0.  1.
    5000001    1    1    2    0    0 -0.20485518968E+03 -0.29143659262E+03  0.35112601982E+03  0.51606144794E+03  0.12700000000E+03 0.  0.
   -5000001    1    1    2    0    0  0.20485518968E+03  0.29143659262E+03  0.39691160163E+03  0.54824151226E+03  0.12700000000E+03 0.  0.
<mgrwt>
<rscale>  0 0.75708686E+03</rscale>
<asrwt>0</asrwt>
<pdfrwt beam="1">  1        2 0.22590381E-01 0.75708686E+03</pdfrwt>
<pdfrwt beam="2">  1       -2 0.12945290E+00 0.75708686E+03</pdfrwt>
<totfact> 0.10919096E+02</totfact>
</mgrwt>
</event>
<event>
 4    1  0.1383574E-004  0.3376166E+03  0.7818608E-02  0.1067816E+00
         -2   -1    0    0    0  501 -0.00000000000E+00  0.00000000000E+00  0.13089664577E+03  0.13089664580E+03  0.25500000000E-02 0. -1.
          2   -1    0    0  501    0  0.00000000000E+00 -0.00000000000E+00 -0.21770026902E+03  0.21770026904E+03  0.25500000000E-02 0.  1.
    5000001    1    1    2    0    0  0.35467467013E+02 -0.10451979916E+03 -0.29361570513E+02  0.17080231690E+03  0.12700000000E+03 0.  0.
   -5000001    1    1    2    0    0 -0.35467467013E+02  0.10451979916E+03 -0.57442052737E+02  0.17779459794E+03  0.12700000000E+03 0.  0.
<mgrwt>
<rscale>  0 0.33761656E+03</rscale>
<asrwt>0</asrwt>
<pdfrwt beam="1">  1        2 0.31100038E-01 0.33761656E+03</pdfrwt>
<pdfrwt beam="2">  1       -2 0.18699521E-01 0.33761656E+03</pdfrwt>
<totfact> 0.39861555E+03</totfact>
</mgrwt>
</event>
<event>
 4    1  0.1383574E-004  0.2943105E+03  0.7818608E-02  0.1088120E+00
          2   -1    0    0  501    0  0.00000000000E+00  0.00000000000E+00  0.31717725595E+03  0.31717725596E+03  0.25500000000E-02 0.  1.
         -2   -1    0    0    0  501 -0.00000000000E+00 -0.00000000000E+00 -0.68273060669E+02  0.68273060717E+02  0.25500000000E-02 0. -1.
    5000001    1    1    2    0    0  0.61683039941E+02  0.41442247901E+02  0.12203550458E+03  0.19116464554E+03  0.12700000000E+03 0.  0.
   -5000001    1    1    2    0    0 -0.61683039941E+02 -0.41442247901E+02  0.12686869070E+03  0.19428567113E+03  0.12700000000E+03 0.  0.
<mgrwt>
<rscale>  0 0.29431046E+03</rscale>
<asrwt>0</asrwt>
<pdfrwt beam="1">  1        2 0.45311036E-01 0.29431046E+03</pdfrwt>
<pdfrwt beam="2">  1       -2 0.97532946E-02 0.29431046E+03</pdfrwt>
<totfact> 0.76727657E+03</totfact>
</mgrwt>
</event>
<event>
 4    1  0.1383574E-004  0.3024511E+03  0.7818608E-02  0.1084022E+00
          2   -1    0    0  501    0  0.00000000000E+00  0.00000000000E+00  0.43851723908E+03  0.43851723909E+03  0.25500000000E-02 0.  1.
         -2   -1    0    0    0  501 -0.00000000000E+00 -0.00000000000E+00 -0.52151136193E+02  0.52151136255E+02  0.25500000000E-02 0. -1.
    5000001    1    1    2    0    0  0.22495065548E+02 -0.56830842121E+02  0.10426054351E+03  0.17531409962E+03  0.12700000000E+03 0.  0.
   -5000001    1    1    2    0    0 -0.22495065548E+02  0.56830842121E+02  0.28210555937E+03  0.31535427573E+03  0.12700000000E+03 0.  0.
<mgrwt>
<rscale>  0 0.30245114E+03</rscale>
<asrwt>0</asrwt>
<pdfrwt beam="1">  1        2 0.62645324E-01 0.30245114E+03</pdfrwt>
<pdfrwt beam="2">  1       -2 0.74501619E-02 0.30245114E+03</pdfrwt>
<totfact> 0.82615650E+03</totfact>
</mgrwt>
</event>
<event>
 4    1  0.1383574E-004  0.5115271E+03  0.7818608E-02  0.1010813E+00
         -2   -1    0    0    0  501 -0.00000000000E+00  0.00000000000E+00  0.25310587518E+02  0.25310587646E+02  0.25500000000E-02 0. -1.
          2   -1    0    0  501    0  0.00000000000E+00 -0.00000000000E+00 -0.25844917987E+04  0.25844917987E+04  0.25500000000E-02 0.  1.
    5000001    1    1    2    0    0 -0.12202575066E+03  0.83391851652E+02 -0.21247585704E+04  0.21336758112E+04  0.12700000000E+03 0.  0.
   -5000001    1    1    2    0    0  0.12202575066E+03 -0.83391851652E+02 -0.43442264072E+03  0.47612657510E+03  0.12700000000E+03 0.  0.
<mgrwt>
<rscale>  0 0.51152715E+03</rscale>
<asrwt>0</asrwt>
<pdfrwt beam="1">  1        2 0.36921295E+00 0.51152715E+03</pdfrwt>
<pdfrwt beam="2">  1       -2 0.36157999E-02 0.51152715E+03</pdfrwt>
<totfact> 0.14236093E+03</totfact>
</mgrwt>
</event>
<event>
 4    1  0.1383574E-004  0.4481830E+03  0.7818608E-02  0.1028265E+00
          2   -1    0    0  501    0  0.00000000000E+00  0.00000000000E+00  0.28730925033E+03  0.28730925034E+03  0.25500000000E-02 0.  1.
         -2   -1    0    0    0  501 -0.00000000000E+00 -0.00000000000E+00 -0.17478375850E+03  0.17478375852E+03  0.25500000000E-02 0. -1.
    5000001    1    1    2    0    0  0.88914364346E+02 -0.16142733899E+03  0.67717959718E+02  0.23383599387E+03  0.12700000000E+03 0.  0.
   -5000001    1    1    2    0    0 -0.88914364346E+02  0.16142733899E+03  0.44807532107E+02  0.22825701499E+03  0.12700000000E+03 0.  0.
<mgrwt>
<rscale>  0 0.44818296E+03</rscale>
<asrwt>0</asrwt>
<pdfrwt beam="1">  1        2 0.41044178E-01 0.44818296E+03</pdfrwt>
<pdfrwt beam="2">  1       -2 0.24969109E-01 0.44818296E+03</pdfrwt>
<totfact> 0.17846315E+03</totfact>
</mgrwt>
</event>
<event>
 4    1  0.1383574E-004  0.5039605E+03  0.7818608E-02  0.1012750E+00
          2   -1    0    0  501    0  0.00000000000E+00  0.00000000000E+00  0.13943581954E+04  0.13943581954E+04  0.25500000000E-02 0.  1.
         -2   -1    0    0    0  501 -0.00000000000E+00 -0.00000000000E+00 -0.45536400396E+02  0.45536400468E+02  0.25500000000E-02 0. -1.
    5000001    1    1    2    0    0  0.21089647289E+03 -0.43422251710E+02  0.76486323831E+03  0.80467856162E+03  0.12700000000E+03 0.  0.
   -5000001    1    1    2    0    0 -0.21089647289E+03  0.43422251710E+02  0.58395855666E+03  0.63521603421E+03  0.12700000000E+03 0.  0.
<mgrwt>
<rscale>  0 0.50396053E+03</rscale>
<asrwt>0</asrwt>
<pdfrwt beam="1">  1        2 0.19919404E+00 0.50396053E+03</pdfrwt>
<pdfrwt beam="2">  1       -2 0.65051996E-02 0.50396053E+03</pdfrwt>
<totfact> 0.23030517E+03</totfact>
</mgrwt>
</event>
<event>
 4    1  0.1383574E-004  0.4543830E+03  0.7818608E-02  0.1026423E+00
         -2   -1    0    0    0  501 -0.00000000000E+00  0.00000000000E+00  0.83623581183E+02  0.83623581222E+02  0.25500000000E-02 0. -1.
          2   -1    0    0  501    0  0.00000000000E+00 -0.00000000000E+00 -0.61724196545E+03  0.61724196545E+03  0.25500000000E-02 0.  1.
    5000001    1    1    2    0    0 -0.15695403948E+03  0.96224989757E+02 -0.20524291164E+03  0.30355802072E+03  0.12700000000E+03 0.  0.
   -5000001    1    1    2    0    0  0.15695403948E+03 -0.96224989757E+02 -0.32837547262E+03  0.39730752596E+03  0.12700000000E+03 0.  0.
<mgrwt>
<rscale>  0 0.45438303E+03</rscale>
<asrwt>0</asrwt>
<pdfrwt beam="1">  1        2 0.88177421E-01 0.45438303E+03</pdfrwt>
<pdfrwt beam="2">  1       -2 0.11946226E-01 0.45438303E+03</pdfrwt>
<totfact> 0.26697768E+03</totfact>
</mgrwt>
</event>
<event>
 4    1  0.1383574E-004  0.3036334E+03  0.7818608E-02  0.1083438E+00
          2   -1    0    0  501    0  0.00000000000E+00  0.00000000000E+00  0.24273639178E+04  0.24273639178E+04  0.25500000000E-02 0.  1.
         -2   -1    0    0    0  501 -0.00000000000E+00 -0.00000000000E+00 -0.94952040544E+01  0.94952043968E+01  0.25500000000E-02 0. -1.
    5000001    1    1    2    0    0 -0.50106309658E+02 -0.31287924290E+01  0.67663970007E+03  0.69028306898E+03  0.12700000000E+03 0.  0.
   -5000001    1    1    2    0    0  0.50106309658E+02  0.31287924290E+01  0.17412290137E+04  0.17465760532E+04  0.12700000000E+03 0.  0.
<mgrwt>
<rscale>  0 0.30363344E+03</rscale>
<asrwt>0</asrwt>
<pdfrwt beam="1">  1        2 0.34676672E+00 0.30363344E+03</pdfrwt>
<pdfrwt beam="2">  1       -2 0.13564560E-02 0.30363344E+03</pdfrwt>
<totfact> 0.74528942E+03</totfact>
</mgrwt>
</event>
<event>
 4    1  0.1383574E-004  0.3733085E+03  0.7818608E-02  0.1053435E+00
          2   -1    0    0  501    0  0.00000000000E+00  0.00000000000E+00  0.27304632172E+03  0.27304632173E+03  0.25500000000E-02 0.  1.
         -2   -1    0    0    0  501 -0.00000000000E+00 -0.00000000000E+00 -0.12759666562E+03  0.12759666565E+03  0.25500000000E-02 0. -1.
    5000001    1    1    2    0    0 -0.62426119354E+02 -0.11487318684E+03  0.29556056369E+02  0.18464947847E+03  0.12700000000E+03 0.  0.
   -5000001    1    1    2    0    0  0.62426119354E+02  0.11487318684E+03  0.11589359973E+03  0.21599350891E+03  0.12700000000E+03 0.  0.
<mgrwt>
<rscale>  0 0.37330845E+03</rscale>
<asrwt>0</asrwt>
<pdfrwt beam="1">  1        2 0.39006617E-01 0.37330845E+03</pdfrwt>
<pdfrwt beam="2">  1       -2 0.18228095E-01 0.37330845E+03</pdfrwt>
<totfact> 0.32554990E+03</totfact>
</mgrwt>
</event>
<event>
 4    1  0.1383574E-004  0.4469302E+03  0.7818608E-02  0.1028641E+00
          2   -1    0    0  501    0  0.00000000000E+00  0.00000000000E+00  0.15528406277E+03  0.15528406279E+03  0.25500000000E-02 0.  1.
         -2   -1    0    0    0  501 -0.00000000000E+00 -0.00000000000E+00 -0.32158259219E+03  0.32158259220E+03  0.25500000000E-02 0. -1.
    5000001    1    1    2    0    0 -0.87721818968E+02  0.15934699811E+03 -0.11180063485E+03  0.24842496912E+03  0.12700000000E+03 0.  0.
   -5000001    1    1    2    0    0  0.87721818968E+02 -0.15934699811E+03 -0.54497894568E+02  0.22844168587E+03  0.12700000000E+03 0.  0.
<mgrwt>
<rscale>  0 0.44693020E+03</rscale>
<asrwt>0</asrwt>
<pdfrwt beam="1">  1        2 0.22183438E-01 0.44693020E+03</pdfrwt>
<pdfrwt beam="2">  1       -2 0.45940370E-01 0.44693020E+03</pdfrwt>
<totfact> 0.11301479E+03</totfact>
</mgrwt>
</event>
<event>
 4    1  0.1383574E-004  0.3267101E+03  0.7818608E-02  0.1072602E+00
         -2   -1    0    0    0  501 -0.00000000000E+00  0.00000000000E+00  0.47279957724E+02  0.47279957792E+02  0.25500000000E-02 0. -1.
          2   -1    0    0  501    0  0.00000000000E+00 -0.00000000000E+00 -0.56440139917E+03  0.56440139917E+03  0.25500000000E-02 0.  1.
    5000001    1    1    2    0    0  0.60115840750E+02 -0.34445184229E+01 -0.10270158234E+03  0.17407582839E+03  0.12700000000E+03 0.  0.
   -5000001    1    1    2    0    0 -0.60115840750E+02  0.34445184229E+01 -0.41441985910E+03  0.43760552857E+03  0.12700000000E+03 0.  0.
<mgrwt>
<rscale>  0 0.32671011E+03</rscale>
<asrwt>0</asrwt>
<pdfrwt beam="1">  1        2 0.80628767E-01 0.32671011E+03</pdfrwt>
<pdfrwt beam="2">  1       -2 0.67542800E-02 0.32671011E+03</pdfrwt>
<totfact> 0.72869085E+03</totfact>
</mgrwt>
</event>
<event>
 4    1  0.1383574E-004  0.2987337E+03  0.7818608E-02  0.1085875E+00
          2   -1    0    0  501    0  0.00000000000E+00  0.00000000000E+00  0.73185768760E+02  0.73185768804E+02  0.25500000000E-02 0.  1.
         -2   -1    0    0    0  501 -0.00000000000E+00 -0.00000000000E+00 -0.30484698005E+03  0.30484698006E+03  0.25500000000E-02 0. -1.
    5000001    1    1    2    0    0 -0.62866955236E+02 -0.47176825640E+02 -0.11821612621E+03  0.19047823874E+03  0.12700000000E+03 0.  0.
   -5000001    1    1    2    0    0  0.62866955236E+02  0.47176825640E+02 -0.11344508508E+03  0.18755451012E+03  0.12700000000E+03 0.  0.
<mgrwt>
<rscale>  0 0.29873373E+03</rscale>
<asrwt>0</asrwt>
<pdfrwt beam="1">  1        2 0.10455110E-01 0.29873373E+03</pdfrwt>
<pdfrwt beam="2">  1       -2 0.43549568E-01 0.29873373E+03</pdfrwt>
<totfact> 0.30602147E+03</totfact>
</mgrwt>
</event>
<event>
 4    1  0.1383574E-004  0.3603006E+03  0.7818608E-02  0.1058465E+00
         -2   -1    0    0    0  501 -0.00000000000E+00  0.00000000000E+00  0.57105240383E+03  0.57105240383E+03  0.25500000000E-02 0. -1.
          2   -1    0    0  501    0  0.00000000000E+00 -0.00000000000E+00 -0.56832135313E+02  0.56832135370E+02  0.25500000000E-02 0.  1.
    5000001    1    1    2    0    0 -0.59038449632E+02 -0.91752125852E+02  0.37298300858E+03  0.40883898520E+03  0.12700000000E+03 0.  0.
   -5000001    1    1    2    0    0  0.59038449632E+02  0.91752125852E+02  0.14123725994E+03  0.21904555400E+03  0.12700000000E+03 0.  0.
<mgrwt>
<rscale>  0 0.36030058E+03</rscale>
<asrwt>0</asrwt>
<pdfrwt beam="1">  1        2 0.81188769E-02 0.36030058E+03</pdfrwt>
<pdfrwt beam="2">  1       -2 0.81578911E-01 0.36030058E+03</pdfrwt>
<totfact> 0.11455718E+03</totfact>
</mgrwt>
</event>
<event>
 4    1  0.1383574E-004  0.5912770E+03  0.7818608E-02  0.9923671E-01
          2   -1    0    0  501    0  0.00000000000E+00  0.00000000000E+00  0.76194096243E+02  0.76194096285E+02  0.25500000000E-02 0.  1.
         -2   -1    0    0    0  501 -0.00000000000E+00 -0.00000000000E+00 -0.11470983967E+04  0.11470983967E+04  0.25500000000E-02 0. -1.
    5000001    1    1    2    0    0  0.23844340404E+03 -0.64384307399E+02 -0.74514229532E+03  0.79521483653E+03  0.12700000000E+03 0.  0.
   -5000001    1    1    2    0    0 -0.23844340404E+03  0.64384307399E+02 -0.32576200515E+03  0.42807765647E+03  0.12700000000E+03 0.  0.
<mgrwt>
<rscale>  0 0.59127701E+03</rscale>
<asrwt>0</asrwt>
<pdfrwt beam="1">  1        2 0.10884872E-01 0.59127701E+03</pdfrwt>
<pdfrwt beam="2">  1       -2 0.16387119E+00 0.59127701E+03</pdfrwt>
<totfact> 0.14344261E+02</totfact>
</mgrwt>
</event>
<event>
 4    1  0.1383574E-004  0.4060004E+03  0.7818608E-02  0.1041722E+00
         -2   -1    0    0    0  501 -0.00000000000E+00  0.00000000000E+00  0.93010513547E+01  0.93010517042E+01  0.25500000000E-02 0. -1.
          2   -1    0    0  501    0  0.00000000000E+00 -0.00000000000E+00 -0.44305834176E+04  0.44305834176E+04  0.25500000000E-02 0.  1.
    5000001    1    1    2    0    0  0.33988768246E+02 -0.14393716116E+03 -0.28299264367E+04  0.28366328243E+04  0.12700000000E+03 0.  0.
   -5000001    1    1    2    0    0 -0.33988768246E+02  0.14393716116E+03 -0.15913559295E+04  0.16032516450E+04  0.12700000000E+03 0.  0.
<mgrwt>
<rscale>  0 0.40600042E+03</rscale>
<asrwt>0</asrwt>
<pdfrwt beam="1">  1        2 0.63293914E+00 0.40600042E+03</pdfrwt>
<pdfrwt beam="2">  1       -2 0.13287245E-02 0.40600042E+03</pdfrwt>
<totfact> 0.49686857E+02</totfact>
</mgrwt>
</event>
<event>
 4    1  0.1383574E-004  0.3412127E+03  0.7818608E-02  0.1066281E+00
         -2   -1    0    0    0  501 -0.00000000000E+00  0.00000000000E+00  0.10900561061E+03  0.10900561064E+03  0.25500000000E-02 0. -1.
          2   -1    0    0  501    0  0.00000000000E+00 -0.00000000000E+00 -0.26701864576E+03  0.26701864577E+03  0.25500000000E-02 0.  1.
    5000001    1    1    2    0    0 -0.10670650548E+03 -0.34741189325E+02 -0.57402876180E+02  0.17893383900E+03  0.12700000000E+03 0.  0.
   -5000001    1    1    2    0    0  0.10670650548E+03  0.34741189325E+02 -0.10061015897E+03  0.19709041741E+03  0.12700000000E+03 0.  0.
<mgrwt>
<rscale>  0 0.34121272E+03</rscale>
<asrwt>0</asrwt>
<pdfrwt beam="1">  1        2 0.38145520E-01 0.34121272E+03</pdfrwt>
<pdfrwt beam="2">  1       -2 0.15572230E-01 0.34121272E+03</pdfrwt>
<totfact> 0.43402352E+03</totfact>
</mgrwt>
</event>
<event>
 4    1  0.1383574E-004  0.4557635E+03  0.7818608E-02  0.1026017E+00
          2   -1    0    0  501    0  0.00000000000E+00  0.00000000000E+00  0.90954759113E+03  0.90954759114E+03  0.25500000000E-02 0.  1.
         -2   -1    0    0    0  501 -0.00000000000E+00 -0.00000000000E+00 -0.57094408599E+02  0.57094408656E+02  0.25500000000E-02 0. -1.
    5000001    1    1    2    0    0 -0.11273417853E+03  0.12333217864E+03  0.23793800086E+03  0.31727482338E+03  0.12700000000E+03 0.  0.
   -5000001    1    1    2    0    0  0.11273417853E+03 -0.12333217864E+03  0.61451518167E+03  0.64936717641E+03  0.12700000000E+03 0.  0.
<mgrwt>
<rscale>  0 0.45576346E+03</rscale>
<asrwt>0</asrwt>
<pdfrwt beam="1">  1        2 0.12993537E+00 0.45576346E+03</pdfrwt>
<pdfrwt beam="2">  1       -2 0.81563440E-02 0.45576346E+03</pdfrwt>
<totfact> 0.30488755E+03</totfact>
</mgrwt>
</event>
<event>
 4    1  0.1383574E-004  0.3648421E+03  0.7818608E-02  0.1056683E+00
          2   -1    0    0  501    0  0.00000000000E+00  0.00000000000E+00  0.39670973284E+03  0.39670973285E+03  0.25500000000E-02 0.  1.
         -2   -1    0    0    0  501 -0.00000000000E+00 -0.00000000000E+00 -0.83883594314E+02  0.83883594353E+02  0.25500000000E-02 0. -1.
    5000001    1    1    2    0    0 -0.22753225591E+02 -0.10583736025E+03  0.59353132102E+02  0.17711874658E+03  0.12700000000E+03 0.  0.
   -5000001    1    1    2    0    0  0.22753225591E+02  0.10583736025E+03  0.25347300642E+03  0.30347458062E+03  0.12700000000E+03 0.  0.
<mgrwt>
<rscale>  0 0.36484209E+03</rscale>
<asrwt>0</asrwt>
<pdfrwt beam="1">  1        2 0.56672819E-01 0.36484209E+03</pdfrwt>
<pdfrwt beam="2">  1       -2 0.11983371E-01 0.36484209E+03</pdfrwt>
<totfact> 0.43516188E+03</totfact>
</mgrwt>
</event>
<event>
 4    1  0.1383574E-004  0.3606195E+03  0.7818608E-02  0.1058339E+00
         -2   -1    0    0    0  501 -0.00000000000E+00  0.00000000000E+00  0.23273055913E+03  0.23273055915E+03  0.25500000000E-02 0. -1.
          2   -1    0    0  501    0  0.00000000000E+00 -0.00000000000E+00 -0.13969632559E+03  0.13969632562E+03  0.25500000000E-02 0.  1.
    5000001    1    1    2    0    0  0.12707724781E+03  0.80644945205E+01  0.33093815273E+02  0.18286022967E+03  0.12700000000E+03 0.  0.
   -5000001    1    1    2    0    0 -0.12707724781E+03 -0.80644945205E+01  0.59940418266E+02  0.18956665510E+03  0.12700000000E+03 0.  0.
<mgrwt>
<rscale>  0 0.36061949E+03</rscale>
<asrwt>0</asrwt>
<pdfrwt beam="1">  1        2 0.19956618E-01 0.36061949E+03</pdfrwt>
<pdfrwt beam="2">  1       -2 0.33247223E-01 0.36061949E+03</pdfrwt>
<totfact> 0.23676087E+03</totfact>
</mgrwt>
</event>
<event>
 4    1  0.1383574E-004  0.4904602E+03  0.7818608E-02  0.1016299E+00
         -2   -1    0    0    0  501 -0.00000000000E+00  0.00000000000E+00  0.15877053671E+02  0.15877053875E+02  0.25500000000E-02 0. -1.
          2   -1    0    0  501    0  0.00000000000E+00 -0.00000000000E+00 -0.37877175364E+04  0.37877175364E+04  0.25500000000E-02 0.  1.
    5000001    1    1    2    0    0 -0.38509766249E+02 -0.20459517519E+03 -0.16856919345E+04  0.17032405837E+04  0.12700000000E+03 0.  0.
   -5000001    1    1    2    0    0  0.38509766249E+02  0.20459517519E+03 -0.20861485482E+04  0.21003540066E+04  0.12700000000E+03 0.  0.
<mgrwt>
<rscale>  0 0.49046017E+03</rscale>
<asrwt>0</asrwt>
<pdfrwt beam="1">  1        2 0.54110193E+00 0.49046017E+03</pdfrwt>
<pdfrwt beam="2">  1       -2 0.22681530E-02 0.49046017E+03</pdfrwt>
<totfact> 0.60867302E+02</totfact>
</mgrwt>
</event>
<event>
 4    1  0.1383574E-004  0.4563204E+03  0.7818608E-02  0.1025854E+00
          2   -1    0    0  501    0  0.00000000000E+00  0.00000000000E+00  0.12296723676E+03  0.12296723679E+03  0.25500000000E-02 0.  1.
         -2   -1    0    0    0  501 -0.00000000000E+00 -0.00000000000E+00 -0.42334107481E+03  0.42334107481E+03  0.25500000000E-02 0. -1.
    5000001    1    1    2    0    0 -0.82456311002E+02  0.12150716635E+03 -0.29367685250E+03  0.35204847449E+03  0.12700000000E+03 0.  0.
   -5000001    1    1    2    0    0  0.82456311002E+02 -0.12150716635E+03 -0.66969855433E+01  0.19425983711E+03  0.12700000000E+03 0.  0.
<mgrwt>
<rscale>  0 0.45632042E+03</rscale>
<asrwt>0</asrwt>
<pdfrwt beam="1">  1        2 0.17566748E-01 0.45632042E+03</pdfrwt>
<pdfrwt beam="2">  1       -2 0.60477296E-01 0.45632042E+03</pdfrwt>
<totfact> 0.84700893E+02</totfact>
</mgrwt>
</event>
<event>
 4    1  0.1383574E-004  0.4824141E+03  0.7818608E-02  0.1018474E+00
         -2   -1    0    0    0  501 -0.00000000000E+00  0.00000000000E+00  0.35494114086E+03  0.35494114087E+03  0.25500000000E-02 0. -1.
          2   -1    0    0  501    0  0.00000000000E+00 -0.00000000000E+00 -0.16391685741E+03  0.16391685743E+03  0.25500000000E-02 0.  1.
    5000001    1    1    2    0    0  0.69354998036E+02  0.97361016484E+02  0.27472049171E+03  0.32540687124E+03  0.12700000000E+03 0.  0.
   -5000001    1    1    2    0    0 -0.69354998036E+02 -0.97361016484E+02 -0.83696208261E+02  0.19345112706E+03  0.12700000000E+03 0.  0.
<mgrwt>
<rscale>  0 0.48241408E+03</rscale>
<asrwt>0</asrwt>
<pdfrwt beam="1">  1        2 0.23416694E-01 0.48241408E+03</pdfrwt>
<pdfrwt beam="2">  1       -2 0.50705877E-01 0.48241408E+03</pdfrwt>
<totfact> 0.87195056E+02</totfact>
</mgrwt>
</event>
<event>
 4    1  0.1383574E-004  0.1652429E+04  0.7818608E-02  0.8788971E-01
          2   -1    0    0  501    0  0.00000000000E+00  0.00000000000E+00  0.24489989877E+04  0.24489989877E+04  0.25500000000E-02 0.  1.
         -2   -1    0    0    0  501 -0.00000000000E+00 -0.00000000000E+00 -0.27873865198E+03  0.27873865199E+03  0.25500000000E-02 0. -1.
    5000001    1    1    2    0    0  0.23084726522E+01 -0.71831168214E+03  0.17255776891E+04  0.18734258360E+04  0.12700000000E+03 0.  0.
   -5000001    1    1    2    0    0 -0.23084726522E+01  0.71831168214E+03  0.44468264654E+03  0.85431180366E+03  0.12700000000E+03 0.  0.
<mgrwt>
<rscale>  0 0.16524293E+04</rscale>
<asrwt>0</asrwt>
<pdfrwt beam="1">  1        2 0.34985699E+00 0.16524293E+04</pdfrwt>
<pdfrwt beam="2">  1       -2 0.39819808E-01 0.16524293E+04</pdfrwt>
<totfact> 0.26801992E+01</totfact>
</mgrwt>
</event>
<event>
 4    1  0.1383574E-004  0.4018844E+03  0.7818608E-02  0.1043129E+00
          2   -1    0    0  501    0  0.00000000000E+00  0.00000000000E+00  0.14350397623E+04  0.14350397623E+04  0.25500000000E-02 0.  1.
         -2   -1    0    0    0  501 -0.00000000000E+00 -0.00000000000E+00 -0.28137033027E+02  0.28137033143E+02  0.25500000000E-02 0. -1.
    5000001    1    1    2    0    0  0.51403963389E+02  0.92707578410E+02  0.11187520912E+04  0.11309165770E+04  0.12700000000E+03 0.  0.
   -5000001    1    1    2    0    0 -0.51403963389E+02 -0.92707578410E+02  0.28815063808E+03  0.33226021846E+03  0.12700000000E+03 0.  0.
<mgrwt>
<rscale>  0 0.40188437E+03</rscale>
<asrwt>0</asrwt>
<pdfrwt beam="1">  1        2 0.20500565E+00 0.40188437E+03</pdfrwt>
<pdfrwt beam="2">  1       -2 0.40195767E-02 0.40188437E+03</pdfrwt>
<totfact> 0.46106775E+03</totfact>
</mgrwt>
</event>
<event>
 4    1  0.1383574E-004  0.3392987E+03  0.7818608E-02  0.1067095E+00
         -2   -1    0    0    0  501 -0.00000000000E+00  0.00000000000E+00  0.51909091058E+02  0.51909091121E+02  0.25500000000E-02 0. -1.
          2   -1    0    0  501    0  0.00000000000E+00 -0.00000000000E+00 -0.55444810280E+03  0.55444810281E+03  0.25500000000E-02 0.  1.
    5000001    1    1    2    0    0 -0.46121414060E+02  0.10242231259E+03 -0.26174833442E+03  0.31186328018E+03  0.12700000000E+03 0.  0.
   -5000001    1    1    2    0    0  0.46121414060E+02 -0.10242231259E+03 -0.24079067733E+03  0.29449391375E+03  0.12700000000E+03 0.  0.
<mgrwt>
<rscale>  0 0.33929867E+03</rscale>
<asrwt>0</asrwt>
<pdfrwt beam="1">  1        2 0.79206869E-01 0.33929867E+03</pdfrwt>
<pdfrwt beam="2">  1       -2 0.74155847E-02 0.33929867E+03</pdfrwt>
<totfact> 0.64360323E+03</totfact>
</mgrwt>
</event>
<event>
 4    1  0.1383574E-004  0.4392133E+03  0.7818608E-02  0.1030988E+00
         -2   -1    0    0    0  501 -0.00000000000E+00  0.00000000000E+00  0.24181229863E+02  0.24181229998E+02  0.25500000000E-02 0. -1.
          2   -1    0    0  501    0  0.00000000000E+00 -0.00000000000E+00 -0.19944012849E+04  0.19944012849E+04  0.25500000000E-02 0.  1.
    5000001    1    1    2    0    0 -0.17329169801E+03  0.22125115770E+02 -0.80251068374E+03  0.83106674272E+03  0.12700000000E+03 0.  0.
   -5000001    1    1    2    0    0  0.17329169801E+03 -0.22125115770E+02 -0.11677093713E+04  0.11875157721E+04  0.12700000000E+03 0.  0.
<mgrwt>
<rscale>  0 0.43921328E+03</rscale>
<asrwt>0</asrwt>
<pdfrwt beam="1">  1        2 0.28491437E+00 0.43921328E+03</pdfrwt>
<pdfrwt beam="2">  1       -2 0.34544627E-02 0.43921328E+03</pdfrwt>
<totfact> 0.30334717E+03</totfact>
</mgrwt>
</event>
<event>
 4    1  0.1383574E-004  0.3985422E+03  0.7818608E-02  0.1044286E+00
         -2   -1    0    0    0  501 -0.00000000000E+00  0.00000000000E+00  0.83950449775E+01  0.83950453648E+01  0.25500000000E-02 0. -1.
          2   -1    0    0  501    0  0.00000000000E+00 -0.00000000000E+00 -0.47300478739E+04  0.47300478739E+04  0.25500000000E-02 0.  1.
    5000001    1    1    2    0    0  0.88865753462E+02 -0.49753365788E+02 -0.37272042012E+04  0.37307576545E+04  0.12700000000E+03 0.  0.
   -5000001    1    1    2    0    0 -0.88865753462E+02  0.49753365788E+02 -0.99444862778E+03  0.10076852648E+04  0.12700000000E+03 0.  0.
<mgrwt>
<rscale>  0 0.39854217E+03</rscale>
<asrwt>0</asrwt>
<pdfrwt beam="1">  1        2 0.67571942E+00 0.39854217E+03</pdfrwt>
<pdfrwt beam="2">  1       -2 0.11992952E-02 0.39854217E+03</pdfrwt>
<totfact> 0.33605443E+02</totfact>
</mgrwt>
</event>
<event>
 4    1  0.1383574E-004  0.8854774E+03  0.7818608E-02  0.9443920E-01
          2   -1    0    0  501    0  0.00000000000E+00  0.00000000000E+00  0.16250316298E+04  0.16250316298E+04  0.25500000000E-02 0.  1.
         -2   -1    0    0    0  501 -0.00000000000E+00 -0.00000000000E+00 -0.12062385029E+03  0.12062385031E+03  0.25500000000E-02 0. -1.
    5000001    1    1    2    0    0  0.13461958958E+03  0.28405805079E+03  0.19085831065E+03  0.38905951327E+03  0.12700000000E+03 0.  0.
   -5000001    1    1    2    0    0 -0.13461958958E+03 -0.28405805079E+03  0.13135494688E+04  0.13565959668E+04  0.12700000000E+03 0.  0.
<mgrwt>
<rscale>  0 0.88547744E+03</rscale>
<asrwt>0</asrwt>
<pdfrwt beam="1">  1        2 0.23214739E+00 0.88547744E+03</pdfrwt>
<pdfrwt beam="2">  1       -2 0.17231977E-01 0.88547744E+03</pdfrwt>
<totfact> 0.34865862E+02</totfact>
</mgrwt>
</event>
<event>
 4    1  0.1383574E-004  0.3517967E+03  0.7818608E-02  0.1061880E+00
          2   -1    0    0  501    0  0.00000000000E+00  0.00000000000E+00  0.86417305975E+03  0.86417305975E+03  0.25500000000E-02 0.  1.
         -2   -1    0    0    0  501 -0.00000000000E+00 -0.00000000000E+00 -0.35803287303E+02  0.35803287394E+02  0.25500000000E-02 0. -1.
    5000001    1    1    2    0    0 -0.23165310671E+02  0.11914459979E+03  0.43694723879E+03  0.47093944065E+03  0.12700000000E+03 0.  0.
   -5000001    1    1    2    0    0  0.23165310671E+02 -0.11914459979E+03  0.39142253366E+03  0.42903690649E+03  0.12700000000E+03 0.  0.
<mgrwt>
<rscale>  0 0.35179674E+03</rscale>
<asrwt>0</asrwt>
<pdfrwt beam="1">  1        2 0.12345327E+00 0.35179674E+03</pdfrwt>
<pdfrwt beam="2">  1       -2 0.51147562E-02 0.35179674E+03</pdfrwt>
<totfact> 0.67185187E+03</totfact>
</mgrwt>
</event>
<event>
 4    1  0.1383574E-004  0.3863444E+03  0.7818608E-02  0.1048613E+00
         -2   -1    0    0    0  501 -0.00000000000E+00  0.00000000000E+00  0.11993473597E+02  0.11993473868E+02  0.25500000000E-02 0. -1.
          2   -1    0    0  501    0  0.00000000000E+00 -0.00000000000E+00 -0.31113167874E+04  0.31113167874E+04  0.25500000000E-02 0.  1.
    5000001    1    1    2    0    0  0.57752677477E+02  0.10370811400E+03 -0.22306500676E+04  0.22374135667E+04  0.12700000000E+03 0.  0.
   -5000001    1    1    2    0    0 -0.57752677477E+02 -0.10370811400E+03 -0.86867324622E+03  0.88589669452E+03  0.12700000000E+03 0.  0.
<mgrwt>
<rscale>  0 0.38634439E+03</rscale>
<asrwt>0</asrwt>
<pdfrwt beam="1">  1        2 0.44447331E+00 0.38634439E+03</pdfrwt>
<pdfrwt beam="2">  1       -2 0.17133554E-02 0.38634439E+03</pdfrwt>
<totfact> 0.23239451E+03</totfact>
</mgrwt>
</event>
<event>
 4    1  0.1383574E-004  0.2853079E+03  0.7818608E-02  0.1092825E+00
          2   -1    0    0  501    0  0.00000000000E+00  0.00000000000E+00  0.11315033784E+03  0.11315033787E+03  0.25500000000E-02 0.  1.
         -2   -1    0    0    0  501 -0.00000000000E+00 -0.00000000000E+00 -0.17985053836E+03  0.17985053838E+03  0.25500000000E-02 0. -1.
    5000001    1    1    2    0    0 -0.38045288857E+02 -0.48198362047E+02 -0.55150368564E+02  0.15146316140E+03  0.12700000000E+03 0.  0.
   -5000001    1    1    2    0    0  0.38045288857E+02  0.48198362047E+02 -0.11549831958E+02  0.14153771486E+03  0.12700000000E+03 0.  0.
<mgrwt>
<rscale>  0 0.28530790E+03</rscale>
<asrwt>0</asrwt>
<pdfrwt beam="1">  1        2 0.16164334E-01 0.28530790E+03</pdfrwt>
<pdfrwt beam="2">  1       -2 0.25692934E-01 0.28530790E+03</pdfrwt>
<totfact> 0.48031081E+03</totfact>
</mgrwt>
</event>
<event>
 4    1  0.1383574E-004  0.3146719E+03  0.7818608E-02  0.1078128E+00
          2   -1    0    0  501    0  0.00000000000E+00  0.00000000000E+00  0.29341304531E+04  0.29341304531E+04  0.25500000000E-02 0.  1.
         -2   -1    0    0    0  501 -0.00000000000E+00 -0.00000000000E+00 -0.84367768932E+01  0.84367772786E+01  0.25500000000E-02 0. -1.
    5000001    1    1    2    0    0 -0.88955748612E+02  0.19102082908E+02  0.12885048838E+04  0.12979413894E+04  0.12700000000E+03 0.  0.
   -5000001    1    1    2    0    0  0.88955748612E+02 -0.19102082908E+02  0.16371887924E+04  0.16446258410E+04  0.12700000000E+03 0.  0.
<mgrwt>
<rscale>  0 0.31467192E+03</rscale>
<asrwt>0</asrwt>
<pdfrwt beam="1">  1        2 0.41916131E+00 0.31467192E+03</pdfrwt>
<pdfrwt beam="2">  1       -2 0.12052544E-02 0.31467192E+03</pdfrwt>
<totfact> 0.48781150E+03</totfact>
</mgrwt>
</event>
<event>
 4    1  0.1383574E-004  0.3129150E+03  0.7818608E-02  0.1078957E+00
          2   -1    0    0  501    0  0.00000000000E+00  0.00000000000E+00  0.13563039226E+03  0.13563039228E+03  0.25500000000E-02 0.  1.
         -2   -1    0    0    0  501 -0.00000000000E+00 -0.00000000000E+00 -0.18048277980E+03  0.18048277982E+03  0.25500000000E-02 0. -1.
    5000001    1    1    2    0    0  0.83988865365E+02  0.27244994749E+02 -0.46193894455E+02  0.16142891664E+03  0.12700000000E+03 0.  0.
   -5000001    1    1    2    0    0 -0.83988865365E+02 -0.27244994749E+02  0.13415069125E+01  0.15468425545E+03  0.12700000000E+03 0.  0.
<mgrwt>
<rscale>  0 0.31291501E+03</rscale>
<asrwt>0</asrwt>
<pdfrwt beam="1">  1        2 0.19375770E-01 0.31291501E+03</pdfrwt>
<pdfrwt beam="2">  1       -2 0.25783254E-01 0.31291501E+03</pdfrwt>
<totfact> 0.38756881E+03</totfact>
</mgrwt>
</event>
<event>
 4    1  0.1383574E-004  0.3236510E+03  0.7818608E-02  0.1073981E+00
         -2   -1    0    0    0  501 -0.00000000000E+00  0.00000000000E+00  0.10944860970E+02  0.10944861267E+02  0.25500000000E-02 0. -1.
          2   -1    0    0  501    0  0.00000000000E+00 -0.00000000000E+00 -0.23926753221E+04  0.23926753221E+04  0.25500000000E-02 0.  1.
    5000001    1    1    2    0    0 -0.98123610799E+02  0.98400464920E+01 -0.10552554836E+04  0.10674353400E+04  0.12700000000E+03 0.  0.
   -5000001    1    1    2    0    0  0.98123610799E+02 -0.98400464920E+01 -0.13264749776E+04  0.13361848434E+04  0.12700000000E+03 0.  0.
<mgrwt>
<rscale>  0 0.32365104E+03</rscale>
<asrwt>0</asrwt>
<pdfrwt beam="1">  1        2 0.34181043E+00 0.32365104E+03</pdfrwt>
<pdfrwt beam="2">  1       -2 0.15635531E-02 0.32365104E+03</pdfrwt>
<totfact> 0.62954243E+03</totfact>
</mgrwt>
</event>
<event>
 4    1  0.1383574E-004  0.4355181E+03  0.7818608E-02  0.1032131E+00
          2   -1    0    0  501    0  0.00000000000E+00  0.00000000000E+00  0.25211384171E+04  0.25211384171E+04  0.25500000000E-02 0.  1.
         -2   -1    0    0    0  501 -0.00000000000E+00 -0.00000000000E+00 -0.18808568434E+02  0.18808568607E+02  0.25500000000E-02 0. -1.
    5000001    1    1    2    0    0 -0.14233803114E+03  0.30057105273E+02  0.66428768746E+03  0.69178802852E+03  0.12700000000E+03 0.  0.
   -5000001    1    1    2    0    0  0.14233803114E+03 -0.30057105273E+02  0.18380421612E+04  0.18481589572E+04  0.12700000000E+03 0.  0.
<mgrwt>
<rscale>  0 0.43551810E+03</rscale>
<asrwt>0</asrwt>
<pdfrwt beam="1">  1        2 0.36016232E+00 0.43551810E+03</pdfrwt>
<pdfrwt beam="2">  1       -2 0.26869406E-02 0.43551810E+03</pdfrwt>
<totfact> 0.24160795E+03</totfact>
</mgrwt>
</event>
<event>
 4    1  0.1383574E-004  0.4265345E+03  0.7818608E-02  0.1034960E+00
         -2   -1    0    0    0  501 -0.00000000000E+00  0.00000000000E+00  0.20801947609E+03  0.20801947610E+03  0.25500000000E-02 0. -1.
          2   -1    0    0  501    0  0.00000000000E+00 -0.00000000000E+00 -0.21864741814E+03  0.21864741816E+03  0.25500000000E-02 0.  1.
    5000001    1    1    2    0    0  0.37591947489E+02 -0.16103556748E+03  0.39514142216E+02  0.21221681353E+03  0.12700000000E+03 0.  0.
   -5000001    1    1    2    0    0 -0.37591947489E+02  0.16103556748E+03 -0.50142084272E+02  0.21445008073E+03  0.12700000000E+03 0.  0.
<mgrwt>
<rscale>  0 0.42653451E+03</rscale>
<asrwt>0</asrwt>
<pdfrwt beam="1">  1        2 0.31235345E-01 0.42653451E+03</pdfrwt>
<pdfrwt beam="2">  1       -2 0.29717068E-01 0.42653451E+03</pdfrwt>
<totfact> 0.17594057E+03</totfact>
</mgrwt>
</event>
<event>
 4    1  0.1383574E-004  0.3459871E+03  0.7818608E-02  0.1064274E+00
         -2   -1    0    0    0  501 -0.00000000000E+00  0.00000000000E+00  0.11163959460E+03  0.11163959463E+03  0.25500000000E-02 0.  1.
          2   -1    0    0  501    0  0.00000000000E+00 -0.00000000000E+00 -0.26806594580E+03  0.26806594581E+03  0.25500000000E-02 0. -1.
    5000001    1    1    2    0    0 -0.80733587117E+02  0.16167726723E+02  0.13727584871E+02  0.15197616281E+03  0.12700000000E+03 0.  0.
   -5000001    1    1    2    0    0  0.80733587117E+02 -0.16167726723E+02 -0.17015393607E+03  0.22772937763E+03  0.12700000000E+03 0.  0.
<mgrwt>
<rscale>  0 0.34598713E+03</rscale>
<asrwt>0</asrwt>
<pdfrwt beam="1">  1        2 0.38295135E-01 0.34598713E+03</pdfrwt>
<pdfrwt beam="2">  1       -2 0.15948514E-01 0.34598713E+03</pdfrwt>
<totfact> 0.41542322E+03</totfact>
</mgrwt>
</event>
<event>
 4    1  0.1383574E-004  0.3422689E+03  0.7818608E-02  0.1065834E+00
          2   -1    0    0  501    0  0.00000000000E+00  0.00000000000E+00  0.25577434441E+04  0.25577434441E+04  0.25500000000E-02 0.  1.
         -2   -1    0    0    0  501 -0.00000000000E+00 -0.00000000000E+00 -0.11450328442E+02  0.11450328726E+02  0.25500000000E-02 0. -1.
    5000001    1    1    2    0    0  0.17895165494E+02  0.10957729764E+03  0.10568146420E+04  0.10701932577E+04  0.12700000000E+03 0.  0.
   -5000001    1    1    2    0    0 -0.17895165494E+02 -0.10957729764E+03  0.14894784737E+04  0.14990005152E+04  0.12700000000E+03 0.  0.
<mgrwt>
<rscale>  0 0.34226892E+03</rscale>
<asrwt>0</asrwt>
<pdfrwt beam="1">  1        2 0.36539237E+00 0.34226892E+03</pdfrwt>
<pdfrwt beam="2">  1       -2 0.16357592E-02 0.34226892E+03</pdfrwt>
<totfact> 0.48658977E+03</totfact>
</mgrwt>
</event>
<event>
 4    1  0.1383574E-004  0.3104596E+03  0.7818608E-02  0.1080126E+00
         -2   -1    0    0    0  501 -0.00000000000E+00  0.00000000000E+00  0.12793141476E+02  0.12793141730E+02  0.25500000000E-02 0. -1.
          2   -1    0    0  501    0  0.00000000000E+00 -0.00000000000E+00 -0.18835324872E+04  0.18835324872E+04  0.25500000000E-02 0.  1.
    5000001    1    1    2    0    0 -0.75792158924E+02  0.46969787894E+02 -0.96032006167E+03  0.97277655871E+03  0.12700000000E+03 0.  0.
   -5000001    1    1    2    0    0  0.75792158924E+02 -0.46969787894E+02 -0.91041928405E+03  0.92354907022E+03  0.12700000000E+03 0.  0.
<mgrwt>
<rscale>  0 0.31045965E+03</rscale>
<asrwt>0</asrwt>
<pdfrwt beam="1">  1        2 0.26907589E+00 0.31045965E+03</pdfrwt>
<pdfrwt beam="2">  1       -2 0.18275929E-02 0.31045965E+03</pdfrwt>
<totfact> 0.89073121E+03</totfact>
</mgrwt>
</event>
<event>
 4    1  0.1383574E-004  0.2835363E+03  0.7818608E-02  0.1093773E+00
         -2   -1    0    0    0  501 -0.00000000000E+00  0.00000000000E+00  0.23245844702E+02  0.23245844841E+02  0.25500000000E-02 0. -1.
          2   -1    0    0  501    0  0.00000000000E+00 -0.00000000000E+00 -0.86459354934E+03  0.86459354935E+03  0.25500000000E-02 0.  1.
    5000001    1    1    2    0    0 -0.28880983243E+02 -0.39907549073E+02 -0.29769340862E+03  0.32737912151E+03  0.12700000000E+03 0.  0.
   -5000001    1    1    2    0    0  0.28880983243E+02  0.39907549073E+02 -0.54365429602E+03  0.56046027267E+03  0.12700000000E+03 0.  0.
<mgrwt>
<rscale>  0 0.28353629E+03</rscale>
<asrwt>0</asrwt>
<pdfrwt beam="1">  1        2 0.12351334E+00 0.28353629E+03</pdfrwt>
<pdfrwt beam="2">  1       -2 0.33208355E-02 0.28353629E+03</pdfrwt>
<totfact> 0.12820799E+04</totfact>
</mgrwt>
</event>
<event>
 4    1  0.1383574E-004  0.4339404E+03  0.7818608E-02  0.1032622E+00
          2   -1    0    0  501    0  0.00000000000E+00  0.00000000000E+00  0.12377734890E+04  0.12377734890E+04  0.25500000000E-02 0.  1.
         -2   -1    0    0    0  501 -0.00000000000E+00 -0.00000000000E+00 -0.38032857464E+02  0.38032857550E+02  0.25500000000E-02 0. -1.
    5000001    1    1    2    0    0 -0.34843097585E+02 -0.13883855031E+03  0.29922411397E+03  0.35518200247E+03  0.12700000000E+03 0.  0.
   -5000001    1    1    2    0    0  0.34843097585E+02  0.13883855031E+03  0.90051651758E+03  0.92062434409E+03  0.12700000000E+03 0.  0.
<mgrwt>
<rscale>  0 0.43394038E+03</rscale>
<asrwt>0</asrwt>
<pdfrwt beam="1">  1        2 0.17682475E+00 0.43394038E+03</pdfrwt>
<pdfrwt beam="2">  1       -2 0.54332663E-02 0.43394038E+03</pdfrwt>
<totfact> 0.36998673E+03</totfact>
</mgrwt>
</event>
<event>
 4    1  0.1383574E-004  0.5902780E+03  0.7818608E-02  0.9925784E-01
          2   -1    0    0  501    0  0.00000000000E+00  0.00000000000E+00  0.63041318977E+03  0.63041318978E+03  0.25500000000E-02 0.  1.
         -2   -1    0    0    0  501 -0.00000000000E+00 -0.00000000000E+00 -0.13817451051E+03  0.13817451054E+03  0.25500000000E-02 0. -1.
    5000001    1    1    2    0    0 -0.25055336877E+03  0.90183765129E+02  0.23538751671E+03  0.37742070043E+03  0.12700000000E+03 0.  0.
   -5000001    1    1    2    0    0  0.25055336877E+03 -0.90183765129E+02  0.25685116255E+03  0.39116699988E+03  0.12700000000E+03 0.  0.
<mgrwt>
<rscale>  0 0.59027802E+03</rscale>
<asrwt>0</asrwt>
<pdfrwt beam="1">  1        2 0.90059030E-01 0.59027802E+03</pdfrwt>
<pdfrwt beam="2">  1       -2 0.19739215E-01 0.59027802E+03</pdfrwt>
<totfact> 0.11184259E+03</totfact>
</mgrwt>
</event>
<event>
 4    1  0.1383574E-004  0.3699608E+03  0.7818608E-02  0.1054708E+00
         -2   -1    0    0    0  501 -0.00000000000E+00  0.00000000000E+00  0.99086318356E+02  0.99086318389E+02  0.25500000000E-02 0. -1.
          2   -1    0    0  501    0  0.00000000000E+00 -0.00000000000E+00 -0.34533270246E+03  0.34533270247E+03  0.25500000000E-02 0.  1.
    5000001    1    1    2    0    0  0.34774645411E+02 -0.12426504523E+03 -0.16867088115E+03  0.24744685001E+03  0.12700000000E+03 0.  0.
   -5000001    1    1    2    0    0 -0.34774645411E+02  0.12426504523E+03 -0.77575502947E+02  0.19697217085E+03  0.12700000000E+03 0.  0.
<mgrwt>
<rscale>  0 0.36996079E+03</rscale>
<asrwt>0</asrwt>
<pdfrwt beam="1">  1        2 0.49333243E-01 0.36996079E+03</pdfrwt>
<pdfrwt beam="2">  1       -2 0.14155189E-01 0.36996079E+03</pdfrwt>
<totfact> 0.38532281E+03</totfact>
</mgrwt>
</event>
<event>
 4    1  0.1383574E-004  0.5040783E+03  0.7818608E-02  0.1012720E+00
          2   -1    0    0  501    0  0.00000000000E+00  0.00000000000E+00  0.10929805226E+04  0.10929805226E+04  0.25500000000E-02 0.  1.
         -2   -1    0    0    0  501 -0.00000000000E+00 -0.00000000000E+00 -0.58119720896E+02  0.58119720952E+02  0.25500000000E-02 0. -1.
    5000001    1    1    2    0    0 -0.39158061599E+02  0.15667589299E+03  0.85081689561E+03  0.87527086041E+03  0.12700000000E+03 0.  0.
   -5000001    1    1    2    0    0  0.39158061599E+02 -0.15667589299E+03  0.18404390608E+03  0.27582938313E+03  0.12700000000E+03 0.  0.
<mgrwt>
<rscale>  0 0.50407826E+03</rscale>
<asrwt>0</asrwt>
<pdfrwt beam="1">  1        2 0.15614008E+00 0.50407826E+03</pdfrwt>
<pdfrwt beam="2">  1       -2 0.83028172E-02 0.50407826E+03</pdfrwt>
<totfact> 0.22959075E+03</totfact>
</mgrwt>
</event>
<event>
 4    1  0.1383574E-004  0.3334665E+03  0.7818608E-02  0.1069613E+00
          2   -1    0    0  501    0  0.00000000000E+00  0.00000000000E+00  0.10084434655E+04  0.10084434655E+04  0.25500000000E-02 0.  1.
         -2   -1    0    0    0  501 -0.00000000000E+00 -0.00000000000E+00 -0.27567221898E+02  0.27567222016E+02  0.25500000000E-02 0. -1.
    5000001    1    1    2    0    0 -0.83008510025E+02 -0.68152816204E+02  0.45423824615E+03  0.48373195404E+03  0.12700000000E+03 0.  0.
   -5000001    1    1    2    0    0  0.83008510025E+02  0.68152816204E+02  0.52663799743E+03  0.55227873345E+03  0.12700000000E+03 0.  0.
<mgrwt>
<rscale>  0 0.33346655E+03</rscale>
<asrwt>0</asrwt>
<pdfrwt beam="1">  1        2 0.14406334E+00 0.33346655E+03</pdfrwt>
<pdfrwt beam="2">  1       -2 0.39381750E-02 0.33346655E+03</pdfrwt>
<totfact> 0.81335186E+03</totfact>
</mgrwt>
</event>
<event>
 4    1  0.1383574E-004  0.3786299E+03  0.7818608E-02  0.1051441E+00
         -2   -1    0    0    0  501 -0.00000000000E+00  0.00000000000E+00  0.25652293569E+02  0.25652293696E+02  0.25500000000E-02 0. -1.
          2   -1    0    0  501    0  0.00000000000E+00 -0.00000000000E+00 -0.13971516970E+04  0.13971516970E+04  0.25500000000E-02 0.  1.
    5000001    1    1    2    0    0 -0.52232430977E+02 -0.13028276561E+03 -0.67427789933E+03  0.70034385225E+03  0.12700000000E+03 0.  0.
   -5000001    1    1    2    0    0  0.52232430977E+02  0.13028276561E+03 -0.69722150408E+03  0.72246013842E+03  0.12700000000E+03 0.  0.
<mgrwt>
<rscale>  0 0.37862988E+03</rscale>
<asrwt>0</asrwt>
<pdfrwt beam="1">  1        2 0.19959305E+00 0.37862988E+03</pdfrwt>
<pdfrwt beam="2">  1       -2 0.36646143E-02 0.37862988E+03</pdfrwt>
<totfact> 0.55488723E+03</totfact>
</mgrwt>
</event>
<event>
 4    1  0.1383574E-004  0.4249194E+03  0.7818608E-02  0.1035477E+00
          2   -1    0    0  501    0  0.00000000000E+00  0.00000000000E+00  0.12597292251E+04  0.12597292251E+04  0.25500000000E-02 0.  1.
         -2   -1    0    0    0  501 -0.00000000000E+00 -0.00000000000E+00 -0.35832396899E+02  0.35832396990E+02  0.25500000000E-02 0. -1.
    5000001    1    1    2    0    0 -0.15763918173E+02 -0.75127799699E+02  0.14837200822E+03  0.20984742130E+03  0.12700000000E+03 0.  0.
   -5000001    1    1    2    0    0  0.15763918173E+02  0.75127799699E+02  0.10755248200E+04  0.10857142008E+04  0.12700000000E+03 0.  0.
<mgrwt>
<rscale>  0 0.42491937E+03</rscale>
<asrwt>0</asrwt>
<pdfrwt beam="1">  1        2 0.17996130E+00 0.42491937E+03</pdfrwt>
<pdfrwt beam="2">  1       -2 0.51189142E-02 0.42491937E+03</pdfrwt>
<totfact> 0.39456651E+03</totfact>
</mgrwt>
</event>
<event>
 4    1  0.1383574E-004  0.4912717E+03  0.7818608E-02  0.1016083E+00
          2   -1    0    0  501    0  0.00000000000E+00  0.00000000000E+00  0.60109079605E+03  0.60109079606E+03  0.25500000000E-02 0.  1.
         -2   -1    0    0    0  501 -0.00000000000E+00 -0.00000000000E+00 -0.10037912366E+03  0.10037912370E+03  0.25500000000E-02 0. -1.
    5000001    1    1    2    0    0 -0.27254364835E+02 -0.17706296272E+03  0.40751106935E+03  0.46291291278E+03  0.12700000000E+03 0.  0.
   -5000001    1    1    2    0    0  0.27254364835E+02  0.17706296272E+03  0.93200603034E+02  0.23855700697E+03  0.12700000000E+03 0.  0.
<mgrwt>
<rscale>  0 0.49127169E+03</rscale>
<asrwt>0</asrwt>
<pdfrwt beam="1">  1        2 0.85870115E-01 0.49127169E+03</pdfrwt>
<pdfrwt beam="2">  1       -2 0.14339875E-01 0.49127169E+03</pdfrwt>
<totfact> 0.20381815E+03</totfact>
</mgrwt>
</event>
<event>
 4    1  0.1383574E-004  0.3560454E+03  0.7818608E-02  0.1060161E+00
         -2   -1    0    0    0  501 -0.00000000000E+00  0.00000000000E+00  0.25574578563E+02  0.25574578690E+02  0.25500000000E-02 0. -1.
          2   -1    0    0  501    0  0.00000000000E+00 -0.00000000000E+00 -0.12392025629E+04  0.12392025629E+04  0.25500000000E-02 0.  1.
    5000001    1    1    2    0    0 -0.76492924267E+02 -0.23600943109E+02 -0.26692610292E+03  0.30624616960E+03  0.12700000000E+03 0.  0.
   -5000001    1    1    2    0    0  0.76492924267E+02  0.23600943109E+02 -0.94670188144E+03  0.95853097201E+03  0.12700000000E+03 0.  0.
<mgrwt>
<rscale>  0 0.35604541E+03</rscale>
<asrwt>0</asrwt>
<pdfrwt beam="1">  1        2 0.17702890E+00 0.35604541E+03</pdfrwt>
<pdfrwt beam="2">  1       -2 0.36535120E-02 0.35604541E+03</pdfrwt>
<totfact> 0.67570449E+03</totfact>
</mgrwt>
</event>
<event>
 4    1  0.1383574E-004  0.8230806E+03  0.7818608E-02  0.9527197E-01
         -2   -1    0    0    0  501 -0.00000000000E+00  0.00000000000E+00  0.62611762542E+03  0.62611762542E+03  0.25500000000E-02 0. -1.
          2   -1    0    0  501    0  0.00000000000E+00 -0.00000000000E+00 -0.27050096749E+03  0.27050096750E+03  0.25500000000E-02 0.  1.
    5000001    1    1    2    0    0  0.35137124465E+03  0.14187667375E+03  0.70821128508E+02  0.40587605788E+03  0.12700000000E+03 0.  0.
   -5000001    1    1    2    0    0 -0.35137124465E+03 -0.14187667375E+03  0.28479552942E+03  0.49074253504E+03  0.12700000000E+03 0.  0.
<mgrwt>
<rscale>  0 0.82308061E+03</rscale>
<asrwt>0</asrwt>
<pdfrwt beam="1">  1        2 0.38642995E-01 0.82308061E+03</pdfrwt>
<pdfrwt beam="2">  1       -2 0.89445376E-01 0.82308061E+03</pdfrwt>
<totfact> 0.14444027E+02</totfact>
</mgrwt>
</event>
<event>
 4    1  0.1383574E-004  0.4609828E+03  0.7818608E-02  0.1024497E+00
         -2   -1    0    0    0  501 -0.00000000000E+00  0.00000000000E+00  0.16016295849E+03  0.16016295851E+03  0.25500000000E-02 0. -1.
          2   -1    0    0  501    0  0.00000000000E+00 -0.00000000000E+00 -0.33170146768E+03  0.33170146769E+03  0.25500000000E-02 0.  1.
    5000001    1    1    2    0    0 -0.60055923773E+02  0.28654102024E+02 -0.27832937032E+03  0.31308786295E+03  0.12700000000E+03 0.  0.
   -5000001    1    1    2    0    0  0.60055923773E+02 -0.28654102024E+02  0.10679086114E+03  0.17877656324E+03  0.12700000000E+03 0.  0.
<mgrwt>
<rscale>  0 0.46098281E+03</rscale>
<asrwt>0</asrwt>
<pdfrwt beam="1">  1        2 0.47385924E-01 0.46098281E+03</pdfrwt>
<pdfrwt beam="2">  1       -2 0.22880423E-01 0.46098281E+03</pdfrwt>
<totfact> 0.17809304E+03</totfact>
</mgrwt>
</event>
<event>
 4    1  0.1383574E-004  0.3393721E+03  0.7818608E-02  0.1067064E+00
         -2   -1    0    0    0  501 -0.00000000000E+00  0.00000000000E+00  0.78356644153E+03  0.78356644153E+03  0.25500000000E-02 0. -1.
          2   -1    0    0  501    0  0.00000000000E+00 -0.00000000000E+00 -0.36746533509E+02  0.36746533597E+02  0.25500000000E-02 0.  1.
    5000001    1    1    2    0    0 -0.69666689451E+02  0.77748927050E+02  0.27183193812E+03  0.31767899814E+03  0.12700000000E+03 0.  0.
   -5000001    1    1    2    0    0  0.69666689451E+02 -0.77748927050E+02  0.47498796989E+03  0.50263397698E+03  0.12700000000E+03 0.  0.
<mgrwt>
<rscale>  0 0.33937207E+03</rscale>
<asrwt>0</asrwt>
<pdfrwt beam="1">  1        2 0.52495041E-02 0.33937207E+03</pdfrwt>
<pdfrwt beam="2">  1       -2 0.11193808E+00 0.33937207E+03</pdfrwt>
<totfact> 0.97342397E+02</totfact>
</mgrwt>
</event>
<event>
 4    1  0.1383574E-004  0.3666605E+03  0.7818608E-02  0.1055977E+00
         -2   -1    0    0    0  501 -0.00000000000E+00  0.00000000000E+00  0.11536777810E+03  0.11536777813E+03  0.25500000000E-02 0. -1.
          2   -1    0    0  501    0  0.00000000000E+00 -0.00000000000E+00 -0.29132893546E+03  0.29132893548E+03  0.25500000000E-02 0.  1.
    5000001    1    1    2    0    0  0.26440462975E+02  0.12935894868E+03 -0.95676187052E+02  0.20667793413E+03  0.12700000000E+03 0.  0.
   -5000001    1    1    2    0    0 -0.26440462975E+02 -0.12935894868E+03 -0.80284970311E+02  0.20001877948E+03  0.12700000000E+03 0.  0.
<mgrwt>
<rscale>  0 0.36666045E+03</rscale>
<asrwt>0</asrwt>
<pdfrwt beam="1">  1        2 0.41618419E-01 0.36666045E+03</pdfrwt>
<pdfrwt beam="2">  1       -2 0.16481111E-01 0.36666045E+03</pdfrwt>
<totfact> 0.35960453E+03</totfact>
</mgrwt>
</event>
<event>
 4    1  0.1383574E-004  0.4214923E+03  0.7818608E-02  0.1036582E+00
         -2   -1    0    0    0  501 -0.00000000000E+00  0.00000000000E+00  0.36398721020E+02  0.36398721109E+02  0.25500000000E-02 0. -1.
          2   -1    0    0  501    0  0.00000000000E+00 -0.00000000000E+00 -0.12202058748E+04  0.12202058748E+04  0.25500000000E-02 0.  1.
    5000001    1    1    2    0    0 -0.71890692947E+01  0.16759794886E+03 -0.55610558362E+03  0.59457814903E+03  0.12700000000E+03 0.  0.
   -5000001    1    1    2    0    0  0.71890692947E+01 -0.16759794886E+03 -0.62770157016E+03  0.66202644687E+03  0.12700000000E+03 0.  0.
<mgrwt>
<rscale>  0 0.42149227E+03</rscale>
<asrwt>0</asrwt>
<pdfrwt beam="1">  1        2 0.17431510E+00 0.42149227E+03</pdfrwt>
<pdfrwt beam="2">  1       -2 0.51998181E-02 0.42149227E+03</pdfrwt>
<totfact> 0.40474839E+03</totfact>
</mgrwt>
</event>
<event>
 4    1  0.1383574E-004  0.5192417E+03  0.7818608E-02  0.1008875E+00
          2   -1    0    0  501    0  0.00000000000E+00  0.00000000000E+00  0.29566353925E+03  0.29566353926E+03  0.25500000000E-02 0.  1.
         -2   -1    0    0    0  501 -0.00000000000E+00 -0.00000000000E+00 -0.22797188098E+03  0.22797188100E+03  0.25500000000E-02 0. -1.
    5000001    1    1    2    0    0  0.10670195648E+03 -0.19826315371E+03  0.95507377169E+01  0.25867702300E+03  0.12700000000E+03 0.  0.
   -5000001    1    1    2    0    0 -0.10670195648E+03  0.19826315371E+03  0.58140920549E+02  0.26495839726E+03  0.12700000000E+03 0.  0.
<mgrwt>
<rscale>  0 0.51924165E+03</rscale>
<asrwt>0</asrwt>
<pdfrwt beam="1">  1        2 0.42237648E-01 0.51924165E+03</pdfrwt>
<pdfrwt beam="2">  1       -2 0.32567412E-01 0.51924165E+03</pdfrwt>
<totfact> 0.10658236E+03</totfact>
</mgrwt>
</event>
<event>
 4    1  0.1383574E-004  0.7266044E+03  0.7818608E-02  0.9672787E-01
          2   -1    0    0  501    0  0.00000000000E+00  0.00000000000E+00  0.31971540801E+04  0.31971540801E+04  0.25500000000E-02 0.  1.
         -2   -1    0    0    0  501 -0.00000000000E+00 -0.00000000000E+00 -0.41283113185E+02  0.41283113263E+02  0.25500000000E-02 0. -1.
    5000001    1    1    2    0    0  0.31269421966E+03  0.41010557211E+02  0.21487020388E+04  0.21754330586E+04  0.12700000000E+03 0.  0.
   -5000001    1    1    2    0    0 -0.31269421966E+03 -0.41010557211E+02  0.10071689281E+04  0.10630041348E+04  0.12700000000E+03 0.  0.
<mgrwt>
<rscale>  0 0.72660436E+03</rscale>
<asrwt>0</asrwt>
<pdfrwt beam="1">  1        2 0.45673619E+00 0.72660436E+03</pdfrwt>
<pdfrwt beam="2">  1       -2 0.58975890E-02 0.72660436E+03</pdfrwt>
<totfact> 0.30704874E+02</totfact>
</mgrwt>
</event>
<event>
 4    1  0.1383574E-004  0.5660567E+03  0.7818608E-02  0.9978443E-01
         -2   -1    0    0    0  501 -0.00000000000E+00  0.00000000000E+00  0.61373768613E+02  0.61373768666E+02  0.25500000000E-02 0. -1.
          2   -1    0    0  501    0  0.00000000000E+00 -0.00000000000E+00 -0.13052000665E+04  0.13052000665E+04  0.25500000000E-02 0.  1.
    5000001    1    1    2    0    0  0.34820813174E+02  0.16674601258E+03 -0.10733060103E+04  0.10941350527E+04  0.12700000000E+03 0.  0.
   -5000001    1    1    2    0    0 -0.34820813174E+02 -0.16674601258E+03 -0.17052028764E+03  0.27243878255E+03  0.12700000000E+03 0.  0.
<mgrwt>
<rscale>  0 0.56605670E+03</rscale>
<asrwt>0</asrwt>
<pdfrwt beam="1">  1        2 0.18645713E+00 0.56605670E+03</pdfrwt>
<pdfrwt beam="2">  1       -2 0.87676821E-02 0.56605670E+03</pdfrwt>
<totfact> 0.15999217E+03</totfact>
</mgrwt>
</event>
<event>
 4    1  0.1383574E-004  0.3244754E+03  0.7818608E-02  0.1073608E+00
         -2   -1    0    0    0  501 -0.00000000000E+00  0.00000000000E+00  0.87030572204E+02  0.87030572241E+02  0.25500000000E-02 0. -1.
          2   -1    0    0  501    0  0.00000000000E+00 -0.00000000000E+00 -0.30243475471E+03  0.30243475472E+03  0.25500000000E-02 0.  1.
    5000001    1    1    2    0    0  0.97931737255E+02 -0.13222258874E+01 -0.78308494706E+02  0.17847575126E+03  0.12700000000E+03 0.  0.
   -5000001    1    1    2    0    0 -0.97931737255E+02  0.13222258874E+01 -0.13709568780E+03  0.21098957570E+03  0.12700000000E+03 0.  0.
<mgrwt>
<rscale>  0 0.32447539E+03</rscale>
<asrwt>0</asrwt>
<pdfrwt beam="1">  1        2 0.43204964E-01 0.32447539E+03</pdfrwt>
<pdfrwt beam="2">  1       -2 0.12432939E-01 0.32447539E+03</pdfrwt>
<totfact> 0.54858506E+03</totfact>
</mgrwt>
</event>
<event>
 4    1  0.1383574E-004  0.3710404E+03  0.7818608E-02  0.1054296E+00
         -2   -1    0    0    0  501 -0.00000000000E+00  0.00000000000E+00  0.13749950548E+03  0.13749950551E+03  0.25500000000E-02 0. -1.
          2   -1    0    0  501    0  0.00000000000E+00 -0.00000000000E+00 -0.25031177392E+03  0.25031177394E+03  0.25500000000E-02 0.  1.
    5000001    1    1    2    0    0  0.10591326064E+03 -0.76997852976E+02 -0.91734143363E+02  0.20418237241E+03  0.12700000000E+03 0.  0.
   -5000001    1    1    2    0    0 -0.10591326064E+03  0.76997852976E+02 -0.21078125079E+02  0.18362890704E+03  0.12700000000E+03 0.  0.
<mgrwt>
<rscale>  0 0.37104040E+03</rscale>
<asrwt>0</asrwt>
<pdfrwt beam="1">  1        2 0.35758825E-01 0.37104040E+03</pdfrwt>
<pdfrwt beam="2">  1       -2 0.19642787E-01 0.37104040E+03</pdfrwt>
<totfact> 0.31500509E+03</totfact>
</mgrwt>
</event>
<event>
 4    1  0.1383574E-004  0.5925623E+03  0.7818608E-02  0.9920958E-01
         -2   -1    0    0    0  501 -0.00000000000E+00  0.00000000000E+00  0.32428937567E+02  0.32428937667E+02  0.25500000000E-02 0. -1.
          2   -1    0    0  501    0  0.00000000000E+00 -0.00000000000E+00 -0.27069197217E+04  0.27069197217E+04  0.25500000000E-02 0.  1.
    5000001    1    1    2    0    0 -0.24062916062E+03  0.11244550810E+03 -0.14910663918E+04  0.15198534041E+04  0.12700000000E+03 0.  0.
   -5000001    1    1    2    0    0  0.24062916062E+03 -0.11244550810E+03 -0.11834243924E+04  0.12194952553E+04  0.12700000000E+03 0.  0.
<mgrwt>
<rscale>  0 0.59256234E+03</rscale>
<asrwt>0</asrwt>
<pdfrwt beam="1">  1        2 0.38670267E+00 0.59256234E+03</pdfrwt>
<pdfrwt beam="2">  1       -2 0.46327071E-02 0.59256234E+03</pdfrwt>
<totfact> 0.83550182E+02</totfact>
</mgrwt>
</event>
<event>
 4    1  0.1383574E-004  0.5232601E+03  0.7818608E-02  0.1007880E+00
          2   -1    0    0  501    0  0.00000000000E+00  0.00000000000E+00  0.68275846017E+03  0.68275846018E+03  0.25500000000E-02 0.  1.
         -2   -1    0    0    0  501 -0.00000000000E+00 -0.00000000000E+00 -0.10025550560E+03  0.10025550563E+03  0.25500000000E-02 0. -1.
    5000001    1    1    2    0    0  0.86420161223E+02 -0.48307823092E+02 -0.17311927080E+02  0.16195923208E+03  0.12700000000E+03 0.  0.
   -5000001    1    1    2    0    0 -0.86420161223E+02  0.48307823092E+02  0.59981488165E+03  0.62105473373E+03  0.12700000000E+03 0.  0.
<mgrwt>
<rscale>  0 0.52326014E+03</rscale>
<asrwt>0</asrwt>
<pdfrwt beam="1">  1        2 0.97536923E-01 0.52326014E+03</pdfrwt>
<pdfrwt beam="2">  1       -2 0.14322215E-01 0.52326014E+03</pdfrwt>
<totfact> 0.17557014E+03</totfact>
</mgrwt>
</event>
<event>
 4    1  0.1383574E-004  0.2896632E+03  0.7818608E-02  0.1090525E+00
          2   -1    0    0  501    0  0.00000000000E+00  0.00000000000E+00  0.17646196816E+04  0.17646196816E+04  0.25500000000E-02 0.  1.
         -2   -1    0    0    0  501 -0.00000000000E+00 -0.00000000000E+00 -0.11887089199E+02  0.11887089472E+02  0.25500000000E-02 0. -1.
    5000001    1    1    2    0    0 -0.61703891700E+02 -0.23363559215E+02  0.74005811469E+03  0.75376935415E+03  0.12700000000E+03 0.  0.
   -5000001    1    1    2    0    0  0.61703891700E+02  0.23363559215E+02  0.10126744777E+04  0.10227374169E+04  0.12700000000E+03 0.  0.
<mgrwt>
<rscale>  0 0.28966320E+03</rscale>
<asrwt>0</asrwt>
<pdfrwt beam="1">  1        2 0.25208851E+00 0.28966320E+03</pdfrwt>
<pdfrwt beam="2">  1       -2 0.16981557E-02 0.28966320E+03</pdfrwt>
<totfact> 0.11339230E+04</totfact>
</mgrwt>
</event>
<event>
 4    1  0.1383574E-004  0.3081355E+03  0.7818608E-02  0.1081243E+00
         -2   -1    0    0    0  501 -0.00000000000E+00  0.00000000000E+00  0.34372394238E+02  0.34372394332E+02  0.25500000000E-02 0. -1.
          2   -1    0    0  501    0  0.00000000000E+00 -0.00000000000E+00 -0.69057945710E+03  0.69057945711E+03  0.25500000000E-02 0.  1.
    5000001    1    1    2    0    0  0.29461143999E+02  0.59277488596E+02 -0.46173405464E+03  0.48343470797E+03  0.12700000000E+03 0.  0.
   -5000001    1    1    2    0    0 -0.29461143999E+02 -0.59277488596E+02 -0.19447300823E+03  0.24151714347E+03  0.12700000000E+03 0.  0.
<mgrwt>
<rscale>  0 0.30813549E+03</rscale>
<asrwt>0</asrwt>
<pdfrwt beam="1">  1        2 0.98654200E-01 0.30813549E+03</pdfrwt>
<pdfrwt beam="2">  1       -2 0.49103425E-02 0.30813549E+03</pdfrwt>
<totfact> 0.93956156E+03</totfact>
</mgrwt>
</event>
<event>
 4    1  0.1383574E-004  0.3461950E+03  0.7818608E-02  0.1064188E+00
          2   -1    0    0  501    0  0.00000000000E+00  0.00000000000E+00  0.11072671939E+04  0.11072671939E+04  0.25500000000E-02 0.  1.
         -2   -1    0    0    0  501 -0.00000000000E+00 -0.00000000000E+00 -0.27060091718E+02  0.27060091838E+02  0.25500000000E-02 0. -1.
    5000001    1    1    2    0    0 -0.77986523549E+02 -0.44486427071E+02  0.29115406418E+03  0.33009184954E+03  0.12700000000E+03 0.  0.
   -5000001    1    1    2    0    0  0.77986523549E+02  0.44486427071E+02  0.78905303796E+03  0.80423543615E+03  0.12700000000E+03 0.  0.
<mgrwt>
<rscale>  0 0.34619504E+03</rscale>
<asrwt>0</asrwt>
<pdfrwt beam="1">  1        2 0.15818100E+00 0.34619504E+03</pdfrwt>
<pdfrwt beam="2">  1       -2 0.38657281E-02 0.34619504E+03</pdfrwt>
<totfact> 0.73378882E+03</totfact>
</mgrwt>
</event>
<event>
 4    1  0.1383574E-004  0.5282512E+03  0.7818608E-02  0.1006657E+00
          2   -1    0    0  501    0  0.00000000000E+00  0.00000000000E+00  0.18251111565E+04  0.18251111565E+04  0.25500000000E-02 0.  1.
         -2   -1    0    0    0  501 -0.00000000000E+00 -0.00000000000E+00 -0.38223605581E+02  0.38223605666E+02  0.25500000000E-02 0. -1.
    5000001    1    1    2    0    0 -0.10268237935E+03 -0.20149395319E+03  0.71743409721E+03  0.76287886852E+03  0.12700000000E+03 0.  0.
   -5000001    1    1    2    0    0  0.10268237935E+03  0.20149395319E+03  0.10694534537E+04  0.11004558936E+04  0.12700000000E+03 0.  0.
<mgrwt>
<rscale>  0 0.52825119E+03</rscale>
<asrwt>0</asrwt>
<pdfrwt beam="1">  1        2 0.26073007E+00 0.52825119E+03</pdfrwt>
<pdfrwt beam="2">  1       -2 0.54605170E-02 0.52825119E+03</pdfrwt>
<totfact> 0.18199348E+03</totfact>
</mgrwt>
</event>
<event>
 4    1  0.1383574E-004  0.6478207E+03  0.7818608E-02  0.9810877E-01
          2   -1    0    0  501    0  0.00000000000E+00  0.00000000000E+00  0.20702202541E+03  0.20702202543E+03  0.25500000000E-02 0. -1.
         -2   -1    0    0    0  501 -0.00000000000E+00 -0.00000000000E+00 -0.50679586291E+03  0.50679586291E+03  0.25500000000E-02 0.  1.
    5000001    1    1    2    0    0  0.18228541501E+03 -0.79342225440E+02  0.94684189016E+02  0.25419924648E+03  0.12700000000E+03 0.  0.
   -5000001    1    1    2    0    0 -0.18228541501E+03  0.79342225440E+02 -0.39445802651E+03  0.45961864186E+03  0.12700000000E+03 0.  0.
<mgrwt>
<rscale>  0 0.64782067E+03</rscale>
<asrwt>0</asrwt>
<pdfrwt beam="1">  1        2 0.29574575E-01 0.64782067E+03</pdfrwt>
<pdfrwt beam="2">  1       -2 0.72399408E-01 0.64782067E+03</pdfrwt>
<totfact> 0.31529721E+02</totfact>
</mgrwt>
</event>
<event>
 4    1  0.1383574E-004  0.3022936E+03  0.7818608E-02  0.1084100E+00
         -2   -1    0    0    0  501 -0.00000000000E+00  0.00000000000E+00  0.74514829781E+02  0.74514829824E+02  0.25500000000E-02 0. -1.
          2   -1    0    0  501    0  0.00000000000E+00 -0.00000000000E+00 -0.30658805785E+03  0.30658805786E+03  0.25500000000E-02 0.  1.
    5000001    1    1    2    0    0  0.54776910809E+02 -0.60434292107E+02 -0.10598702583E+03  0.18443173063E+03  0.12700000000E+03 0.  0.
   -5000001    1    1    2    0    0 -0.54776910809E+02  0.60434292107E+02 -0.12608620224E+03  0.19667115705E+03  0.12700000000E+03 0.  0.
<mgrwt>
<rscale>  0 0.30229361E+03</rscale>
<asrwt>0</asrwt>
<pdfrwt beam="1">  1        2 0.43798293E-01 0.30229361E+03</pdfrwt>
<pdfrwt beam="2">  1       -2 0.10644976E-01 0.30229361E+03</pdfrwt>
<totfact> 0.69288932E+03</totfact>
</mgrwt>
</event>
<event>
 4    1  0.1383574E-004  0.5323554E+03  0.7818608E-02  0.1005663E+00
          2   -1    0    0  501    0  0.00000000000E+00  0.00000000000E+00  0.35274127477E+03  0.35274127478E+03  0.25500000000E-02 0.  1.
         -2   -1    0    0    0  501 -0.00000000000E+00 -0.00000000000E+00 -0.20085703642E+03  0.20085703643E+03  0.25500000000E-02 0. -1.
    5000001    1    1    2    0    0  0.11964098941E+03  0.85594254522E+02  0.26508233609E+03  0.32869132581E+03  0.12700000000E+03 0.  0.
   -5000001    1    1    2    0    0 -0.11964098941E+03 -0.85594254522E+02 -0.11319809774E+03  0.22490698541E+03  0.12700000000E+03 0.  0.
<mgrwt>
<rscale>  0 0.53235540E+03</rscale>
<asrwt>0</asrwt>
<pdfrwt beam="1">  1        2 0.50391610E-01 0.53235540E+03</pdfrwt>
<pdfrwt beam="2">  1       -2 0.28693863E-01 0.53235540E+03</pdfrwt>
<totfact> 0.11092088E+03</totfact>
</mgrwt>
</event>
<event>
 4    1  0.1383574E-004  0.3604772E+03  0.7818608E-02  0.1058395E+00
         -2   -1    0    0    0  501 -0.00000000000E+00  0.00000000000E+00  0.27474623622E+03  0.27474623623E+03  0.25500000000E-02 0. -1.
          2   -1    0    0  501    0  0.00000000000E+00 -0.00000000000E+00 -0.11823983726E+03  0.11823983729E+03  0.25500000000E-02 0.  1.
    5000001    1    1    2    0    0 -0.54770844447E+02 -0.10614644939E+03  0.12809299773E+03  0.21634169776E+03  0.12700000000E+03 0.  0.
   -5000001    1    1    2    0    0  0.54770844447E+02  0.10614644939E+03  0.28413401227E+02  0.17664437576E+03  0.12700000000E+03 0.  0.
<mgrwt>
<rscale>  0 0.36047719E+03</rscale>
<asrwt>0</asrwt>
<pdfrwt beam="1">  1        2 0.16891405E-01 0.36047719E+03</pdfrwt>
<pdfrwt beam="2">  1       -2 0.39249462E-01 0.36047719E+03</pdfrwt>
<totfact> 0.21030184E+03</totfact>
</mgrwt>
</event>
<event>
 4    1  0.1383574E-004  0.4672986E+03  0.7818608E-02  0.1022685E+00
         -2   -1    0    0    0  501 -0.00000000000E+00  0.00000000000E+00  0.30426150491E+02  0.30426150597E+02  0.25500000000E-02 0. -1.
          2   -1    0    0  501    0  0.00000000000E+00 -0.00000000000E+00 -0.17942458803E+04  0.17942458803E+04  0.25500000000E-02 0.  1.
    5000001    1    1    2    0    0  0.17890423799E+03 -0.23988838313E+02 -0.58247062753E+03  0.62288299276E+03  0.12700000000E+03 0.  0.
   -5000001    1    1    2    0    0 -0.17890423799E+03  0.23988838313E+02 -0.11813491023E+04  0.12017890381E+04  0.12700000000E+03 0.  0.
<mgrwt>
<rscale>  0 0.46729860E+03</rscale>
<asrwt>0</asrwt>
<pdfrwt beam="1">  1        2 0.25632077E+00 0.46729860E+03</pdfrwt>
<pdfrwt beam="2">  1       -2 0.43465941E-02 0.46729860E+03</pdfrwt>
<totfact> 0.26869927E+03</totfact>
</mgrwt>
</event>
<event>
 4    1  0.1383574E-004  0.3918496E+03  0.7818608E-02  0.1046639E+00
          2   -1    0    0  501    0  0.00000000000E+00  0.00000000000E+00  0.72304314543E+03  0.72304314543E+03  0.25500000000E-02 0.  1.
         -2   -1    0    0    0  501 -0.00000000000E+00 -0.00000000000E+00 -0.53090217292E+02  0.53090217353E+02  0.25500000000E-02 0. -1.
    5000001    1    1    2    0    0  0.91813929908E+02  0.10412916513E+03  0.44318893311E+03  0.48147493308E+03  0.12700000000E+03 0.  0.
   -5000001    1    1    2    0    0 -0.91813929908E+02 -0.10412916513E+03  0.22676399503E+03  0.29465842970E+03  0.12700000000E+03 0.  0.
<mgrwt>
<rscale>  0 0.39184955E+03</rscale>
<asrwt>0</asrwt>
<pdfrwt beam="1">  1        2 0.10329186E+00 0.39184955E+03</pdfrwt>
<pdfrwt beam="2">  1       -2 0.75843179E-02 0.39184955E+03</pdfrwt>
<totfact> 0.45674672E+03</totfact>
</mgrwt>
</event>
<event>
 4    1  0.1383574E-004  0.3975862E+03  0.7818608E-02  0.1044619E+00
          2   -1    0    0  501    0  0.00000000000E+00  0.00000000000E+00  0.16149361579E+03  0.16149361581E+03  0.25500000000E-02 0.  1.
         -2   -1    0    0    0  501 -0.00000000000E+00 -0.00000000000E+00 -0.24470751927E+03  0.24470751928E+03  0.25500000000E-02 0. -1.
    5000001    1    1    2    0    0  0.31293803853E+02  0.12069592070E+03  0.48872089894E+02  0.18456513377E+03  0.12700000000E+03 0.  0.
   -5000001    1    1    2    0    0 -0.31293803853E+02 -0.12069592070E+03 -0.13208599337E+03  0.22163600131E+03  0.12700000000E+03 0.  0.
<mgrwt>
<rscale>  0 0.39758623E+03</rscale>
<asrwt>0</asrwt>
<pdfrwt beam="1">  1        2 0.23070517E-01 0.39758623E+03</pdfrwt>
<pdfrwt beam="2">  1       -2 0.34958217E-01 0.39758623E+03</pdfrwt>
<totfact> 0.18282437E+03</totfact>
</mgrwt>
</event>
<event>
 4    1  0.1383574E-004  0.5248350E+03  0.7818608E-02  0.1007492E+00
          2   -1    0    0  501    0  0.00000000000E+00  0.00000000000E+00  0.33017669652E+03  0.33017669653E+03  0.25500000000E-02 0.  1.
         -2   -1    0    0    0  501 -0.00000000000E+00 -0.00000000000E+00 -0.20856393788E+03  0.20856393789E+03  0.25500000000E-02 0. -1.
    5000001    1    1    2    0    0  0.21859889418E+03  0.27397534740E+02  0.12731384633E+03  0.28438339775E+03  0.12700000000E+03 0.  0.
   -5000001    1    1    2    0    0 -0.21859889418E+03 -0.27397534740E+02 -0.57010876886E+01  0.25435723667E+03  0.12700000000E+03 0.  0.
<mgrwt>
<rscale>  0 0.52483503E+03</rscale>
<asrwt>0</asrwt>
<pdfrwt beam="1">  1        2 0.47168099E-01 0.52483503E+03</pdfrwt>
<pdfrwt beam="2">  1       -2 0.29794849E-01 0.52483503E+03</pdfrwt>
<totfact> 0.11132831E+03</totfact>
</mgrwt>
</event>
<event>
 4    1  0.1383574E-004  0.5445913E+03  0.7818608E-02  0.1002754E+00
         -2   -1    0    0    0  501 -0.00000000000E+00  0.00000000000E+00  0.66816632660E+03  0.66816632661E+03  0.25500000000E-02 0. -1.
          2   -1    0    0  501    0  0.00000000000E+00 -0.00000000000E+00 -0.11096775097E+03  0.11096775100E+03  0.25500000000E-02 0.  1.
    5000001    1    1    2    0    0 -0.22340149055E+03  0.80288425430E+02  0.22028350446E+03  0.34786244347E+03  0.12700000000E+03 0.  0.
   -5000001    1    1    2    0    0  0.22340149055E+03 -0.80288425430E+02  0.33691507117E+03  0.43127163414E+03  0.12700000000E+03 0.  0.
<mgrwt>
<rscale>  0 0.54459128E+03</rscale>
<asrwt>0</asrwt>
<pdfrwt beam="1">  1        2 0.15852535E-01 0.54459128E+03</pdfrwt>
<pdfrwt beam="2">  1       -2 0.95452337E-01 0.54459128E+03</pdfrwt>
<totfact> 0.34943224E+02</totfact>
</mgrwt>
</event>
<event>
 4    1  0.1383574E-004  0.7799460E+03  0.7818608E-02  0.9589507E-01
          2   -1    0    0  501    0  0.00000000000E+00  0.00000000000E+00  0.80929884728E+03  0.80929884729E+03  0.25500000000E-02 0.  1.
         -2   -1    0    0    0  501 -0.00000000000E+00 -0.00000000000E+00 -0.18791445129E+03  0.18791445130E+03  0.25500000000E-02 0. -1.
    5000001    1    1    2    0    0 -0.14428678581E+03 -0.20933305197E+03 -0.30737750519E+02  0.28585453033E+03  0.12700000000E+03 0.  0.
   -5000001    1    1    2    0    0  0.14428678581E+03  0.20933305197E+03  0.65212214652E+03  0.71135876826E+03  0.12700000000E+03 0.  0.
<mgrwt>
<rscale>  0 0.77994602E+03</rscale>
<asrwt>0</asrwt>
<pdfrwt beam="1">  1        2 0.11561412E+00 0.77994602E+03</pdfrwt>
<pdfrwt beam="2">  1       -2 0.26844922E-01 0.77994602E+03</pdfrwt>
<totfact> 0.47277356E+02</totfact>
</mgrwt>
</event>
<event>
 4    1  0.1383574E-004  0.3937432E+03  0.7818608E-02  0.1045968E+00
          2   -1    0    0  501    0  0.00000000000E+00  0.00000000000E+00  0.20141611835E+04  0.20141611835E+04  0.25500000000E-02 0.  1.
         -2   -1    0    0    0  501 -0.00000000000E+00 -0.00000000000E+00 -0.19242961330E+02  0.19242961499E+02  0.25500000000E-02 0. -1.
    5000001    1    1    2    0    0 -0.56352805893E+01  0.14597327453E+03  0.81201343359E+03  0.83476629640E+03  0.12700000000E+03 0.  0.
   -5000001    1    1    2    0    0  0.56352805893E+01 -0.14597327453E+03  0.11829047885E+04  0.11986378486E+04  0.12700000000E+03 0.  0.
<mgrwt>
<rscale>  0 0.39374320E+03</rscale>
<asrwt>0</asrwt>
<pdfrwt beam="1">  1        2 0.28773721E+00 0.39374320E+03</pdfrwt>
<pdfrwt beam="2">  1       -2 0.27489955E-02 0.39374320E+03</pdfrwt>
<totfact> 0.41897586E+03</totfact>
</mgrwt>
</event>
<event>
 4    1  0.1383574E-004  0.3250575E+03  0.7818608E-02  0.1073345E+00
          2   -1    0    0  501    0  0.00000000000E+00  0.00000000000E+00  0.42821501840E+03  0.42821501841E+03  0.25500000000E-02 0.  1.
         -2   -1    0    0    0  501 -0.00000000000E+00 -0.00000000000E+00 -0.61687705724E+02  0.61687705777E+02  0.25500000000E-02 0. -1.
    5000001    1    1    2    0    0 -0.95663616044E+02  0.28694608252E+01  0.13267176834E+03  0.20710036058E+03  0.12700000000E+03 0.  0.
   -5000001    1    1    2    0    0  0.95663616044E+02 -0.28694608252E+01  0.23385554434E+03  0.28280236360E+03  0.12700000000E+03 0.  0.
<mgrwt>
<rscale>  0 0.32505755E+03</rscale>
<asrwt>0</asrwt>
<pdfrwt beam="1">  1        2 0.61173577E-01 0.32505755E+03</pdfrwt>
<pdfrwt beam="2">  1       -2 0.88125289E-02 0.32505755E+03</pdfrwt>
<totfact> 0.65305699E+03</totfact>
</mgrwt>
</event>
<event>
 4    1  0.1383574E-004  0.5279782E+03  0.7818608E-02  0.1006724E+00
          2   -1    0    0  501    0  0.00000000000E+00  0.00000000000E+00  0.19550864979E+03  0.19550864981E+03  0.25500000000E-02 0.  1.
         -2   -1    0    0    0  501 -0.00000000000E+00 -0.00000000000E+00 -0.35645602857E+03  0.35645602857E+03  0.25500000000E-02 0. -1.
    5000001    1    1    2    0    0 -0.17146427846E+03 -0.89817096030E+02  0.52152422420E+02  0.23730989168E+03  0.12700000000E+03 0.  0.
   -5000001    1    1    2    0    0  0.17146427846E+03  0.89817096030E+02 -0.21309980119E+03  0.31465478670E+03  0.12700000000E+03 0.  0.
<mgrwt>
<rscale>  0 0.52797817E+03</rscale>
<asrwt>0</asrwt>
<pdfrwt beam="1">  1        2 0.27929808E-01 0.52797817E+03</pdfrwt>
<pdfrwt beam="2">  1       -2 0.50922289E-01 0.52797817E+03</pdfrwt>
<totfact> 0.70756306E+02</totfact>
</mgrwt>
</event>
<event>
 4    1  0.1383574E-004  0.4461868E+03  0.7818608E-02  0.1028865E+00
          2   -1    0    0  501    0  0.00000000000E+00  0.00000000000E+00  0.35444724992E+03  0.35444724993E+03  0.25500000000E-02 0.  1.
         -2   -1    0    0    0  501 -0.00000000000E+00 -0.00000000000E+00 -0.14041772372E+03  0.14041772375E+03  0.25500000000E-02 0. -1.
    5000001    1    1    2    0    0  0.11378243067E+03 -0.14334993134E+03  0.12041749976E+03  0.25322918196E+03  0.12700000000E+03 0.  0.
   -5000001    1    1    2    0    0 -0.11378243067E+03  0.14334993134E+03  0.93612026432E+02  0.24163579172E+03  0.12700000000E+03 0.  0.
<mgrwt>
<rscale>  0 0.44618685E+03</rscale>
<asrwt>0</asrwt>
<pdfrwt beam="1">  1        2 0.50635321E-01 0.44618685E+03</pdfrwt>
<pdfrwt beam="2">  1       -2 0.20059675E-01 0.44618685E+03</pdfrwt>
<totfact> 0.20834471E+03</totfact>
</mgrwt>
</event>
<event>
 4    1  0.1383574E-004  0.2926789E+03  0.7818608E-02  0.1088959E+00
         -2   -1    0    0    0  501 -0.00000000000E+00  0.00000000000E+00  0.10393121093E+02  0.10393121406E+02  0.25500000000E-02 0. -1.
          2   -1    0    0  501    0  0.00000000000E+00 -0.00000000000E+00 -0.20605199523E+04  0.20605199523E+04  0.25500000000E-02 0.  1.
    5000001    1    1    2    0    0  0.41792049246E+02  0.98248564481E+01 -0.14402537246E+04  0.14464794829E+04  0.12700000000E+03 0.  0.
   -5000001    1    1    2    0    0 -0.41792049246E+02 -0.98248564481E+01 -0.60987310664E+03  0.62443359085E+03  0.12700000000E+03 0.  0.
<mgrwt>
<rscale>  0 0.29267889E+03</rscale>
<asrwt>0</asrwt>
<pdfrwt beam="1">  1        2 0.29435973E+00 0.29267889E+03</pdfrwt>
<pdfrwt beam="2">  1       -2 0.14847329E-02 0.29267889E+03</pdfrwt>
<totfact> 0.98940956E+03</totfact>
</mgrwt>
</event>
<event>
 4    1  0.1383574E-004  0.3736728E+03  0.7818608E-02  0.1053297E+00
          2   -1    0    0  501    0  0.00000000000E+00  0.00000000000E+00  0.19837493667E+04  0.19837493667E+04  0.25500000000E-02 0.  1.
         -2   -1    0    0    0  501 -0.00000000000E+00 -0.00000000000E+00 -0.17596899928E+02  0.17596900112E+02  0.25500000000E-02 0. -1.
    5000001    1    1    2    0    0 -0.99209121284E+02  0.88170884262E+02  0.80048201762E+03  0.82128984842E+03  0.12700000000E+03 0.  0.
   -5000001    1    1    2    0    0  0.99209121284E+02 -0.88170884262E+02  0.11656704492E+04  0.11800564184E+04  0.12700000000E+03 0.  0.
<mgrwt>
<rscale>  0 0.37367279E+03</rscale>
<asrwt>0</asrwt>
<pdfrwt beam="1">  1        2 0.28339266E+00 0.37367279E+03</pdfrwt>
<pdfrwt beam="2">  1       -2 0.25138438E-02 0.37367279E+03</pdfrwt>
<totfact> 0.49594945E+03</totfact>
</mgrwt>
</event>
<event>
 4    1  0.1383574E-004  0.5264417E+03  0.7818608E-02  0.1007099E+00
          2   -1    0    0  501    0  0.00000000000E+00  0.00000000000E+00  0.44230270683E+03  0.44230270684E+03  0.25500000000E-02 0.  1.
         -2   -1    0    0    0  501 -0.00000000000E+00 -0.00000000000E+00 -0.15664658469E+03  0.15664658471E+03  0.25500000000E-02 0. -1.
    5000001    1    1    2    0    0 -0.18091374020E+03  0.12117031024E+03  0.56598946239E+02  0.25834950395E+03  0.12700000000E+03 0.  0.
   -5000001    1    1    2    0    0  0.18091374020E+03 -0.12117031024E+03  0.22905717591E+03  0.34059978760E+03  0.12700000000E+03 0.  0.
<mgrwt>
<rscale>  0 0.52644167E+03</rscale>
<asrwt>0</asrwt>
<pdfrwt beam="1">  1        2 0.63186102E-01 0.52644167E+03</pdfrwt>
<pdfrwt beam="2">  1       -2 0.22378083E-01 0.52644167E+03</pdfrwt>
<totfact> 0.13489628E+03</totfact>
</mgrwt>
</event>
<event>
 4    1  0.1383574E-004  0.6882656E+03  0.7818608E-02  0.9737513E-01
         -2   -1    0    0    0  501 -0.00000000000E+00  0.00000000000E+00  0.53017831122E+02  0.53017831183E+02  0.25500000000E-02 0. -1.
          2   -1    0    0  501    0  0.00000000000E+00 -0.00000000000E+00 -0.22337276815E+04  0.22337276815E+04  0.25500000000E-02 0.  1.
    5000001    1    1    2    0    0 -0.15718132543E+03 -0.20244512123E+03 -0.17260548020E+04  0.17495954320E+04  0.12700000000E+03 0.  0.
   -5000001    1    1    2    0    0  0.15718132543E+03  0.20244512123E+03 -0.45465504845E+03  0.53715008075E+03  0.12700000000E+03 0.  0.
<mgrwt>
<rscale>  0 0.68826564E+03</rscale>
<asrwt>0</asrwt>
<pdfrwt beam="1">  1        2 0.31910389E+00 0.68826564E+03</pdfrwt>
<pdfrwt beam="2">  1       -2 0.75739773E-02 0.68826564E+03</pdfrwt>
<totfact> 0.67176383E+02</totfact>
</mgrwt>
</event>
<event>
 4    1  0.1383574E-004  0.4959151E+03  0.7818608E-02  0.1014851E+00
         -2   -1    0    0    0  501 -0.00000000000E+00  0.00000000000E+00  0.33604373256E+02  0.33604373353E+02  0.25500000000E-02 0. -1.
          2   -1    0    0  501    0  0.00000000000E+00 -0.00000000000E+00 -0.18296114292E+04  0.18296114292E+04  0.25500000000E-02 0.  1.
    5000001    1    1    2    0    0  0.20101025851E+03  0.67430667152E+02 -0.97332680241E+03  0.10042141620E+04  0.12700000000E+03 0.  0.
   -5000001    1    1    2    0    0 -0.20101025851E+03 -0.67430667152E+02 -0.82268025352E+03  0.85900164053E+03  0.12700000000E+03 0.  0.
<mgrwt>
<rscale>  0 0.49591510E+03</rscale>
<asrwt>0</asrwt>
<pdfrwt beam="1">  1        2 0.26137300E+00 0.49591510E+03</pdfrwt>
<pdfrwt beam="2">  1       -2 0.48006259E-02 0.49591510E+03</pdfrwt>
<totfact> 0.22124095E+03</totfact>
</mgrwt>
</event>
<event>
 4    1  0.1383574E-004  0.3329120E+03  0.7818608E-02  0.1069856E+00
         -2   -1    0    0    0  501 -0.00000000000E+00  0.00000000000E+00  0.15154566135E+03  0.15154566137E+03  0.25500000000E-02 0. -1.
          2   -1    0    0  501    0  0.00000000000E+00 -0.00000000000E+00 -0.18283337216E+03  0.18283337218E+03  0.25500000000E-02 0.  1.
    5000001    1    1    2    0    0  0.79647048201E+02 -0.69129276541E+02  0.58066376165E+01  0.16518240282E+03  0.12700000000E+03 0.  0.
   -5000001    1    1    2    0    0 -0.79647048201E+02  0.69129276541E+02 -0.37094348431E+02  0.16919663072E+03  0.12700000000E+03 0.  0.
<mgrwt>
<rscale>  0 0.33291203E+03</rscale>
<asrwt>0</asrwt>
<pdfrwt beam="1">  1        2 0.26119053E-01 0.33291203E+03</pdfrwt>
<pdfrwt beam="2">  1       -2 0.21649380E-01 0.33291203E+03</pdfrwt>
<totfact> 0.37591811E+03</totfact>
</mgrwt>
</event>
<event>
 4    1  0.1383574E-004  0.4300041E+03  0.7818608E-02  0.1033859E+00
         -2   -1    0    0    0  501 -0.00000000000E+00  0.00000000000E+00  0.30756584527E+02  0.30756584633E+02  0.25500000000E-02 0. -1.
          2   -1    0    0  501    0  0.00000000000E+00 -0.00000000000E+00 -0.15029588580E+04  0.15029588580E+04  0.25500000000E-02 0.  1.
    5000001    1    1    2    0    0 -0.16987110462E+03  0.35212050994E+02 -0.73290991077E+03  0.76379448677E+03  0.12700000000E+03 0.  0.
   -5000001    1    1    2    0    0  0.16987110462E+03 -0.35212050994E+02 -0.73929236268E+03  0.76992095584E+03  0.12700000000E+03 0.  0.
<mgrwt>
<rscale>  0 0.43000410E+03</rscale>
<asrwt>0</asrwt>
<pdfrwt beam="1">  1        2 0.21470836E+00 0.43000410E+03</pdfrwt>
<pdfrwt beam="2">  1       -2 0.43937988E-02 0.43000410E+03</pdfrwt>
<totfact> 0.37133140E+03</totfact>
</mgrwt>
</event>
<event>
 4    1  0.1383574E-004  0.1217683E+04  0.7818608E-02  0.9097518E-01
         -2   -1    0    0    0  501 -0.00000000000E+00  0.00000000000E+00  0.20605742684E+03  0.20605742685E+03  0.25500000000E-02 0. -1.
          2   -1    0    0  501    0  0.00000000000E+00 -0.00000000000E+00 -0.17989544054E+04  0.17989544054E+04  0.25500000000E-02 0.  1.
    5000001    1    1    2    0    0  0.51081659370E+03  0.26955033074E+03 -0.10348783468E+04  0.11919283392E+04  0.12700000000E+03 0.  0.
   -5000001    1    1    2    0    0 -0.51081659370E+03 -0.26955033074E+03 -0.55801863174E+03  0.81308349299E+03  0.12700000000E+03 0.  0.
<mgrwt>
<rscale>  0 0.12176829E+04</rscale>
<asrwt>0</asrwt>
<pdfrwt beam="1">  1        2 0.25699348E+00 0.12176829E+04</pdfrwt>
<pdfrwt beam="2">  1       -2 0.29436776E-01 0.12176829E+04</pdfrwt>
<totfact> 0.10666135E+02</totfact>
</mgrwt>
</event>
<event>
 4    1  0.1383574E-004  0.3436167E+03  0.7818608E-02  0.1065266E+00
         -2   -1    0    0    0  501 -0.00000000000E+00  0.00000000000E+00  0.14697231127E+02  0.14697231348E+02  0.25500000000E-02 0. -1.
          2   -1    0    0  501    0  0.00000000000E+00 -0.00000000000E+00 -0.20084124097E+04  0.20084124097E+04  0.25500000000E-02 0.  1.
    5000001    1    1    2    0    0  0.49295554024E+01  0.97140470202E+02 -0.13658863860E+04  0.13752218698E+04  0.12700000000E+03 0.  0.
   -5000001    1    1    2    0    0 -0.49295554024E+01 -0.97140470202E+02 -0.62782879254E+03  0.64788777131E+03  0.12700000000E+03 0.  0.
<mgrwt>
<rscale>  0 0.34361666E+03</rscale>
<asrwt>0</asrwt>
<pdfrwt beam="1">  1        2 0.28691588E+00 0.34361666E+03</pdfrwt>
<pdfrwt beam="2">  1       -2 0.20996057E-02 0.34361666E+03</pdfrwt>
<totfact> 0.63047693E+03</totfact>
</mgrwt>
</event>
<event>
 4    1  0.1383574E-004  0.3093699E+03  0.7818608E-02  0.1080648E+00
         -2   -1    0    0    0  501 -0.00000000000E+00  0.00000000000E+00  0.73567063942E+01  0.73567068361E+01  0.25500000000E-02 0. -1.
          2   -1    0    0  501    0  0.00000000000E+00 -0.00000000000E+00 -0.32524653064E+04  0.32524653064E+04  0.25500000000E-02 0.  1.
    5000001    1    1    2    0    0  0.82648218165E+02 -0.24845464527E+01 -0.19492908597E+04  0.19551728201E+04  0.12700000000E+03 0.  0.
   -5000001    1    1    2    0    0 -0.82648218165E+02  0.24845464527E+01 -0.12958177404E+04  0.13046491931E+04  0.12700000000E+03 0.  0.
<mgrwt>
<rscale>  0 0.30936990E+03</rscale>
<asrwt>0</asrwt>
<pdfrwt beam="1">  1        2 0.46463698E+00 0.30936990E+03</pdfrwt>
<pdfrwt beam="2">  1       -2 0.10509602E-02 0.30936990E+03</pdfrwt>
<totfact> 0.40105325E+03</totfact>
</mgrwt>
</event>
<event>
 4    1  0.1383574E-004  0.3122917E+03  0.7818608E-02  0.1079253E+00
         -2   -1    0    0    0  501 -0.00000000000E+00  0.00000000000E+00  0.77146074867E+03  0.77146074867E+03  0.25500000000E-02 0. -1.
          2   -1    0    0  501    0  0.00000000000E+00 -0.00000000000E+00 -0.31604363867E+02  0.31604363970E+02  0.25500000000E-02 0.  1.
    5000001    1    1    2    0    0  0.72770708556E+02 -0.54377218809E+02  0.36925612562E+03  0.40091338748E+03  0.12700000000E+03 0.  0.
   -5000001    1    1    2    0    0 -0.72770708556E+02  0.54377218809E+02  0.37060025918E+03  0.40215172517E+03  0.12700000000E+03 0.  0.
<mgrwt>
<rscale>  0 0.31229170E+03</rscale>
<asrwt>0</asrwt>
<pdfrwt beam="1">  1        2 0.45149088E-02 0.31229170E+03</pdfrwt>
<pdfrwt beam="2">  1       -2 0.11020869E+00 0.31229170E+03</pdfrwt>
<totfact> 0.12328665E+03</totfact>
</mgrwt>
</event>
<event>
 4    1  0.1383574E-004  0.5514447E+03  0.7818608E-02  0.1001160E+00
         -2   -1    0    0    0  501 -0.00000000000E+00  0.00000000000E+00  0.22349227091E+02  0.22349227236E+02  0.25500000000E-02 0. -1.
          2   -1    0    0  501    0  0.00000000000E+00 -0.00000000000E+00 -0.34015852441E+04  0.34015852441E+04  0.25500000000E-02 0.  1.
    5000001    1    1    2    0    0  0.86362360320E+02  0.22513259468E+03 -0.19494091144E+04  0.19683668454E+04  0.12700000000E+03 0.  0.
   -5000001    1    1    2    0    0 -0.86362360320E+02 -0.22513259468E+03 -0.14298269026E+04  0.14555676260E+04  0.12700000000E+03 0.  0.
<mgrwt>
<rscale>  0 0.55144465E+03</rscale>
<asrwt>0</asrwt>
<pdfrwt beam="1">  1        2 0.48594042E+00 0.55144465E+03</pdfrwt>
<pdfrwt beam="2">  1       -2 0.31927489E-02 0.55144465E+03</pdfrwt>
<totfact> 0.61654650E+02</totfact>
</mgrwt>
</event>
<event>
 4    1  0.1383574E-004  0.7090397E+03  0.7818608E-02  0.9701897E-01
         -2   -1    0    0    0  501 -0.00000000000E+00  0.00000000000E+00  0.32620799703E+02  0.32620799802E+02  0.25500000000E-02 0. -1.
          2   -1    0    0  501    0  0.00000000000E+00 -0.00000000000E+00 -0.38528892221E+04  0.38528892221E+04  0.25500000000E-02 0.  1.
    5000001    1    1    2    0    0 -0.27679795750E+03  0.17095078297E+03 -0.15761689848E+04  0.16143973947E+04  0.12700000000E+03 0.  0.
   -5000001    1    1    2    0    0  0.27679795750E+03 -0.17095078297E+03 -0.22440994376E+04  0.22711126272E+04  0.12700000000E+03 0.  0.
<mgrwt>
<rscale>  0 0.70903971E+03</rscale>
<asrwt>0</asrwt>
<pdfrwt beam="1">  1        2 0.55041246E+00 0.70903971E+03</pdfrwt>
<pdfrwt beam="2">  1       -2 0.46601167E-02 0.70903971E+03</pdfrwt>
<totfact> 0.17918213E+02</totfact>
</mgrwt>
</event>
<event>
 4    1  0.1383574E-004  0.3321413E+03  0.7818608E-02  0.1070193E+00
          2   -1    0    0  501    0  0.00000000000E+00  0.00000000000E+00  0.18355381021E+03  0.18355381023E+03  0.25500000000E-02 0.  1.
         -2   -1    0    0    0  501 -0.00000000000E+00 -0.00000000000E+00 -0.15025269407E+03  0.15025269409E+03  0.25500000000E-02 0. -1.
    5000001    1    1    2    0    0 -0.10685009589E+03 -0.50546999780E+01  0.13814795784E+02  0.16662035160E+03  0.12700000000E+03 0.  0.
   -5000001    1    1    2    0    0  0.10685009589E+03  0.50546999780E+01  0.19486320355E+02  0.16718615273E+03  0.12700000000E+03 0.  0.
<mgrwt>
<rscale>  0 0.33214126E+03</rscale>
<asrwt>0</asrwt>
<pdfrwt beam="1">  1        2 0.26221973E-01 0.33214126E+03</pdfrwt>
<pdfrwt beam="2">  1       -2 0.21464671E-01 0.33214126E+03</pdfrwt>
<totfact> 0.37985055E+03</totfact>
</mgrwt>
</event>
<event>
 4    1  0.1383574E-004  0.4102528E+03  0.7818608E-02  0.1040286E+00
         -2   -1    0    0    0  501 -0.00000000000E+00  0.00000000000E+00  0.53542318857E+02  0.53542318918E+02  0.25500000000E-02 0. -1.
          2   -1    0    0  501    0  0.00000000000E+00 -0.00000000000E+00 -0.78586130642E+03  0.78586130642E+03  0.25500000000E-02 0.  1.
    5000001    1    1    2    0    0  0.13918593048E+02  0.15833463025E+03 -0.31263801893E+03  0.37300819462E+03  0.12700000000E+03 0.  0.
   -5000001    1    1    2    0    0 -0.13918593048E+02 -0.15833463025E+03 -0.41968096863E+03  0.46639543073E+03  0.12700000000E+03 0.  0.
<mgrwt>
<rscale>  0 0.41025278E+03</rscale>
<asrwt>0</asrwt>
<pdfrwt beam="1">  1        2 0.11226589E+00 0.41025278E+03</pdfrwt>
<pdfrwt beam="2">  1       -2 0.76489032E-02 0.41025278E+03</pdfrwt>
<totfact> 0.40699799E+03</totfact>
</mgrwt>
</event>
<event>
 4    1  0.1383574E-004  0.3555410E+03  0.7818608E-02  0.1060364E+00
          2   -1    0    0  501    0  0.00000000000E+00  0.00000000000E+00  0.21255895933E+04  0.21255895933E+04  0.25500000000E-02 0.  1.
         -2   -1    0    0    0  501 -0.00000000000E+00 -0.00000000000E+00 -0.14867566768E+02  0.14867566987E+02  0.25500000000E-02 0. -1.
    5000001    1    1    2    0    0  0.11024842037E+03 -0.32247719478E+02  0.13427446069E+04  0.13536198539E+04  0.12700000000E+03 0.  0.
   -5000001    1    1    2    0    0 -0.11024842037E+03  0.32247719478E+02  0.76797741957E+03  0.78683730630E+03  0.12700000000E+03 0.  0.
<mgrwt>
<rscale>  0 0.35554097E+03</rscale>
<asrwt>0</asrwt>
<pdfrwt beam="1">  1        2 0.30365570E+00 0.35554097E+03</pdfrwt>
<pdfrwt beam="2">  1       -2 0.21239379E-02 0.35554097E+03</pdfrwt>
<totfact> 0.54269675E+03</totfact>
</mgrwt>
</event>
<event>
 4    1  0.1383574E-004  0.4650776E+03  0.7818608E-02  0.1023319E+00
         -2   -1    0    0    0  501 -0.00000000000E+00  0.00000000000E+00  0.13528969822E+03  0.13528969825E+03  0.25500000000E-02 0. -1.
          2   -1    0    0  501    0  0.00000000000E+00 -0.00000000000E+00 -0.39969261607E+03  0.39969261608E+03  0.25500000000E-02 0.  1.
    5000001    1    1    2    0    0  0.46810525510E+02  0.50015549064E+02 -0.34196318045E+03  0.37116114725E+03  0.12700000000E+03 0.  0.
   -5000001    1    1    2    0    0 -0.46810525510E+02 -0.50015549064E+02  0.77560262603E+02  0.16382116707E+03  0.12700000000E+03 0.  0.
<mgrwt>
<rscale>  0 0.46507760E+03</rscale>
<asrwt>0</asrwt>
<pdfrwt beam="1">  1        2 0.57098945E-01 0.46507760E+03</pdfrwt>
<pdfrwt beam="2">  1       -2 0.19327100E-01 0.46507760E+03</pdfrwt>
<totfact> 0.19476701E+03</totfact>
</mgrwt>
</event>
<event>
 4    1  0.1383574E-004  0.8185652E+03  0.7818608E-02  0.9533527E-01
         -2   -1    0    0    0  501 -0.00000000000E+00  0.00000000000E+00  0.11392385559E+03  0.11392385562E+03  0.25500000000E-02 0. -1.
          2   -1    0    0  501    0  0.00000000000E+00 -0.00000000000E+00 -0.14703877257E+04  0.14703877257E+04  0.25500000000E-02 0.  1.
    5000001    1    1    2    0    0 -0.75304481747E+02  0.14045800263E+03  0.87496039212E+01  0.20397247619E+03  0.12700000000E+03 0.  0.
   -5000001    1    1    2    0    0  0.75304481747E+02 -0.14045800263E+03 -0.13652134740E+04  0.13803391051E+04  0.12700000000E+03 0.  0.
<mgrwt>
<rscale>  0 0.81856518E+03</rscale>
<asrwt>0</asrwt>
<pdfrwt beam="1">  1        2 0.21005538E+00 0.81856518E+03</pdfrwt>
<pdfrwt beam="2">  1       -2 0.16274837E-01 0.81856518E+03</pdfrwt>
<totfact> 0.46509400E+02</totfact>
</mgrwt>
</event>
<event>
 4    1  0.1383574E-004  0.2926581E+03  0.7818608E-02  0.1088969E+00
          2   -1    0    0  501    0  0.00000000000E+00  0.00000000000E+00  0.14195853434E+03  0.14195853436E+03  0.25500000000E-02 0.  1.
         -2   -1    0    0    0  501 -0.00000000000E+00 -0.00000000000E+00 -0.15083415463E+03  0.15083415465E+03  0.25500000000E-02 0. -1.
    5000001    1    1    2    0    0  0.70643183139E+02 -0.10147915020E+02 -0.18219339549E+02  0.14681411321E+03  0.12700000000E+03 0.  0.
   -5000001    1    1    2    0    0 -0.70643183139E+02  0.10147915020E+02  0.93437192625E+01  0.14597857580E+03  0.12700000000E+03 0.  0.
<mgrwt>
<rscale>  0 0.29265813E+03</rscale>
<asrwt>0</asrwt>
<pdfrwt beam="1">  1        2 0.20279791E-01 0.29265813E+03</pdfrwt>
<pdfrwt beam="2">  1       -2 0.21547736E-01 0.29265813E+03</pdfrwt>
<totfact> 0.50274850E+03</totfact>
</mgrwt>
</event>
<event>
 4    1  0.1383574E-004  0.3362921E+03  0.7818608E-02  0.1068386E+00
          2   -1    0    0  501    0  0.00000000000E+00  0.00000000000E+00  0.13166425631E+03  0.13166425634E+03  0.25500000000E-02 0.  1.
         -2   -1    0    0    0  501 -0.00000000000E+00 -0.00000000000E+00 -0.21473624526E+03  0.21473624527E+03  0.25500000000E-02 0. -1.
    5000001    1    1    2    0    0  0.50684731499E+02  0.97545253941E+02 -0.49519411011E+02  0.17511479275E+03  0.12700000000E+03 0.  0.
   -5000001    1    1    2    0    0 -0.50684731499E+02 -0.97545253941E+02 -0.33552577936E+02  0.17128570886E+03  0.12700000000E+03 0.  0.
<mgrwt>
<rscale>  0 0.33629206E+03</rscale>
<asrwt>0</asrwt>
<pdfrwt beam="1">  1        2 0.18809180E-01 0.33629206E+03</pdfrwt>
<pdfrwt beam="2">  1       -2 0.30676606E-01 0.33629206E+03</pdfrwt>
<totfact> 0.29372093E+03</totfact>
</mgrwt>
</event>
<event>
 4    1  0.1383574E-004  0.3027651E+03  0.7818608E-02  0.1083866E+00
         -2   -1    0    0    0  501 -0.00000000000E+00  0.00000000000E+00  0.19593372268E+02  0.19593372434E+02  0.25500000000E-02 0. -1.
          2   -1    0    0  501    0  0.00000000000E+00 -0.00000000000E+00 -0.11696134736E+04  0.11696134736E+04  0.25500000000E-02 0.  1.
    5000001    1    1    2    0    0 -0.40109401630E+02 -0.70962772214E+02 -0.52800843767E+03  0.54915060720E+03  0.12700000000E+03 0.  0.
   -5000001    1    1    2    0    0  0.40109401630E+02  0.70962772214E+02 -0.62201166364E+03  0.64005623881E+03  0.12700000000E+03 0.  0.
<mgrwt>
<rscale>  0 0.30276507E+03</rscale>
<asrwt>0</asrwt>
<pdfrwt beam="1">  1        2 0.16708759E+00 0.30276507E+03</pdfrwt>
<pdfrwt beam="2">  1       -2 0.27990539E-02 0.30276507E+03</pdfrwt>
<totfact> 0.10956984E+04</totfact>
</mgrwt>
</event>
<event>
 4    1  0.1383574E-004  0.3575858E+03  0.7818608E-02  0.1059544E+00
         -2   -1    0    0    0  501 -0.00000000000E+00  0.00000000000E+00  0.29903708863E+02  0.29903708972E+02  0.25500000000E-02 0.  1.
          2   -1    0    0  501    0  0.00000000000E+00 -0.00000000000E+00 -0.10689947366E+04  0.10689947366E+04  0.25500000000E-02 0. -1.
    5000001    1    1    2    0    0  0.10897427488E+03 -0.73303559217E+01 -0.71167671880E+03  0.73112370963E+03  0.12700000000E+03 0.  0.
   -5000001    1    1    2    0    0 -0.10897427488E+03  0.73303559217E+01 -0.32741430896E+03  0.36777473596E+03  0.12700000000E+03 0.  0.
<mgrwt>
<rscale>  0 0.35758584E+03</rscale>
<asrwt>0</asrwt>
<pdfrwt beam="1">  1        2 0.15271351E+00 0.35758584E+03</pdfrwt>
<pdfrwt beam="2">  1       -2 0.42719591E-02 0.35758584E+03</pdfrwt>
<totfact> 0.66368393E+03</totfact>
</mgrwt>
</event>
<event>
 4    1  0.1383574E-004  0.4561306E+03  0.7818608E-02  0.1025909E+00
          2   -1    0    0  501    0  0.00000000000E+00  0.00000000000E+00  0.40336032646E+03  0.40336032647E+03  0.25500000000E-02 0.  1.
         -2   -1    0    0    0  501 -0.00000000000E+00 -0.00000000000E+00 -0.12895114293E+03  0.12895114295E+03  0.25500000000E-02 0. -1.
    5000001    1    1    2    0    0  0.49477947134E+02 -0.12839346549E+03  0.28914905588E+03  0.34448385412E+03  0.12700000000E+03 0.  0.
   -5000001    1    1    2    0    0 -0.49477947134E+02  0.12839346549E+03 -0.14739872345E+02  0.18782761530E+03  0.12700000000E+03 0.  0.
<mgrwt>
<rscale>  0 0.45613057E+03</rscale>
<asrwt>0</asrwt>
<pdfrwt beam="1">  1        2 0.57622904E-01 0.45613057E+03</pdfrwt>
<pdfrwt beam="2">  1       -2 0.18421592E-01 0.45613057E+03</pdfrwt>
<totfact> 0.20935454E+03</totfact>
</mgrwt>
</event>
<event>
 4    1  0.1383574E-004  0.1093162E+04  0.7818608E-02  0.9211882E-01
         -2   -1    0    0    0  501 -0.00000000000E+00  0.00000000000E+00  0.55923599995E+03  0.55923599995E+03  0.25500000000E-02 0. -1.
          2   -1    0    0  501    0  0.00000000000E+00 -0.00000000000E+00 -0.53421251194E+03  0.53421251195E+03  0.25500000000E-02 0.  1.
    5000001    1    1    2    0    0  0.86037060331E+02 -0.51268647995E+03  0.12377067048E+03  0.54927040822E+03  0.12700000000E+03 0.  0.
   -5000001    1    1    2    0    0 -0.86037060331E+02  0.51268647995E+03 -0.98747182474E+02  0.54417810368E+03  0.12700000000E+03 0.  0.
<mgrwt>
<rscale>  0 0.10931621E+04</rscale>
<asrwt>0</asrwt>
<pdfrwt beam="1">  1        2 0.76316073E-01 0.10931621E+04</pdfrwt>
<pdfrwt beam="2">  1       -2 0.79890857E-01 0.10931621E+04</pdfrwt>
<totfact> 0.85758806E+01</totfact>
</mgrwt>
</event>
<event>
 4    1  0.1383574E-004  0.4355655E+03  0.7818608E-02  0.1032116E+00
         -2   -1    0    0    0  501 -0.00000000000E+00  0.00000000000E+00  0.79516686911E+02  0.79516686952E+02  0.25500000000E-02 0. -1.
          2   -1    0    0  501    0  0.00000000000E+00 -0.00000000000E+00 -0.59647017991E+03  0.59647017991E+03  0.25500000000E-02 0.  1.
    5000001    1    1    2    0    0 -0.17589061284E+03  0.10866154490E+02 -0.23419681292E+03  0.31942562230E+03  0.12700000000E+03 0.  0.
   -5000001    1    1    2    0    0  0.17589061284E+03 -0.10866154490E+02 -0.28275668007E+03  0.35656124456E+03  0.12700000000E+03 0.  0.
<mgrwt>
<rscale>  0 0.43556553E+03</rscale>
<asrwt>0</asrwt>
<pdfrwt beam="1">  1        2 0.85210023E-01 0.43556553E+03</pdfrwt>
<pdfrwt beam="2">  1       -2 0.11359527E-01 0.43556553E+03</pdfrwt>
<totfact> 0.30149843E+03</totfact>
</mgrwt>
</event>
<event>
 4    1  0.1383574E-004  0.5900981E+03  0.7818608E-02  0.9926165E-01
         -2   -1    0    0    0  501 -0.00000000000E+00  0.00000000000E+00  0.22386045133E+03  0.22386045135E+03  0.25500000000E-02 0. -1.
          2   -1    0    0  501    0  0.00000000000E+00 -0.00000000000E+00 -0.38887595330E+03  0.38887595331E+03  0.25500000000E-02 0.  1.
    5000001    1    1    2    0    0 -0.16389847726E+03 -0.17903752321E+03  0.31276248432E+02  0.27572513357E+03  0.12700000000E+03 0.  0.
   -5000001    1    1    2    0    0  0.16389847726E+03  0.17903752321E+03 -0.19629175040E+03  0.33701127109E+03  0.12700000000E+03 0.  0.
<mgrwt>
<rscale>  0 0.59009812E+03</rscale>
<asrwt>0</asrwt>
<pdfrwt beam="1">  1        2 0.55553707E-01 0.59009812E+03</pdfrwt>
<pdfrwt beam="2">  1       -2 0.31980065E-01 0.59009812E+03</pdfrwt>
<totfact> 0.81473950E+02</totfact>
</mgrwt>
</event>
<event>
 4    1  0.1383574E-004  0.3401831E+03  0.7818608E-02  0.1066718E+00
          2   -1    0    0  501    0  0.00000000000E+00  0.00000000000E+00  0.45722046727E+03  0.45722046728E+03  0.25500000000E-02 0.  1.
         -2   -1    0    0    0  501 -0.00000000000E+00 -0.00000000000E+00 -0.63276107691E+02  0.63276107743E+02  0.25500000000E-02 0. -1.
    5000001    1    1    2    0    0 -0.83463146154E+00 -0.11297987606E+03  0.20627690422E+03  0.26729068487E+03  0.12700000000E+03 0.  0.
   -5000001    1    1    2    0    0  0.83463146154E+00  0.11297987606E+03  0.18766745537E+03  0.25320589015E+03  0.12700000000E+03 0.  0.
<mgrwt>
<rscale>  0 0.34018308E+03</rscale>
<asrwt>0</asrwt>
<pdfrwt beam="1">  1        2 0.65317207E-01 0.34018308E+03</pdfrwt>
<pdfrwt beam="2">  1       -2 0.90394443E-02 0.34018308E+03</pdfrwt>
<totfact> 0.58455791E+03</totfact>
</mgrwt>
</event>
<event>
 4    1  0.1383574E-004  0.3851127E+03  0.7818608E-02  0.1049060E+00
          2   -1    0    0  501    0  0.00000000000E+00  0.00000000000E+00  0.96745941918E+02  0.96745941952E+02  0.25500000000E-02 0.  1.
         -2   -1    0    0    0  501 -0.00000000000E+00 -0.00000000000E+00 -0.38325074055E+03  0.38325074056E+03  0.25500000000E-02 0. -1.
    5000001    1    1    2    0    0  0.32713836973E+02 -0.10129965568E+03 -0.26548112835E+03  0.31295534007E+03  0.12700000000E+03 0.  0.
   -5000001    1    1    2    0    0 -0.32713836973E+02  0.10129965568E+03 -0.21023670280E+02  0.16704134243E+03  0.12700000000E+03 0.  0.
<mgrwt>
<rscale>  0 0.38511273E+03</rscale>
<asrwt>0</asrwt>
<pdfrwt beam="1">  1        2 0.13820849E-01 0.38511273E+03</pdfrwt>
<pdfrwt beam="2">  1       -2 0.54750105E-01 0.38511273E+03</pdfrwt>
<totfact> 0.13844477E+03</totfact>
</mgrwt>
</event>
<event>
 4    1  0.1383574E-004  0.2628547E+03  0.7818608E-02  0.1105440E+00
         -2   -1    0    0    0  501 -0.00000000000E+00  0.00000000000E+00  0.32548831158E+02  0.32548831258E+02  0.25500000000E-02 0. -1.
          2   -1    0    0  501    0  0.00000000000E+00 -0.00000000000E+00 -0.53068404926E+03  0.53068404927E+03  0.25500000000E-02 0.  1.
    5000001    1    1    2    0    0 -0.88986200559E+01  0.30944395654E+02 -0.22686093597E+03  0.26197638316E+03  0.12700000000E+03 0.  0.
   -5000001    1    1    2    0    0  0.88986200559E+01 -0.30944395654E+02 -0.27127428213E+03  0.30125649737E+03  0.12700000000E+03 0.  0.
<mgrwt>
<rscale>  0 0.26285468E+03</rscale>
<asrwt>0</asrwt>
<pdfrwt beam="1">  1        2 0.75812001E-01 0.26285468E+03</pdfrwt>
<pdfrwt beam="2">  1       -2 0.46498334E-02 0.26285468E+03</pdfrwt>
<totfact> 0.13720097E+04</totfact>
</mgrwt>
</event>
<event>
 4    1  0.1383574E-004  0.3492971E+03  0.7818608E-02  0.1062904E+00
          2   -1    0    0  501    0  0.00000000000E+00  0.00000000000E+00  0.68704137702E+03  0.68704137703E+03  0.25500000000E-02 0.  1.
         -2   -1    0    0    0  501 -0.00000000000E+00 -0.00000000000E+00 -0.44396342667E+02  0.44396342740E+02  0.25500000000E-02 0. -1.
    5000001    1    1    2    0    0  0.10718808987E+03 -0.72996710233E+01  0.43273091523E+03  0.46360286539E+03  0.12700000000E+03 0.  0.
   -5000001    1    1    2    0    0 -0.10718808987E+03  0.72996710233E+01  0.20991411913E+03  0.26783485437E+03  0.12700000000E+03 0.  0.
<mgrwt>
<rscale>  0 0.34929715E+03</rscale>
<asrwt>0</asrwt>
<pdfrwt beam="1">  1        2 0.98148759E-01 0.34929715E+03</pdfrwt>
<pdfrwt beam="2">  1       -2 0.63423353E-02 0.34929715E+03</pdfrwt>
<totfact> 0.64048221E+03</totfact>
</mgrwt>
</event>
<event>
 4    1  0.1383574E-004  0.3067097E+03  0.7818608E-02  0.1081934E+00
          2   -1    0    0  501    0  0.00000000000E+00  0.00000000000E+00  0.78159033023E+03  0.78159033023E+03  0.25500000000E-02 0.  1.
         -2   -1    0    0    0  501 -0.00000000000E+00 -0.00000000000E+00 -0.30089567905E+02  0.30089568013E+02  0.25500000000E-02 0. -1.
    5000001    1    1    2    0    0  0.44985754265E+02  0.64328058343E+02  0.28305427492E+03  0.32001646790E+03  0.12700000000E+03 0.  0.
   -5000001    1    1    2    0    0 -0.44985754265E+02 -0.64328058343E+02  0.46844648741E+03  0.49166343035E+03  0.12700000000E+03 0.  0.
<mgrwt>
<rscale>  0 0.30670973E+03</rscale>
<asrwt>0</asrwt>
<pdfrwt beam="1">  1        2 0.11165577E+00 0.30670973E+03</pdfrwt>
<pdfrwt beam="2">  1       -2 0.42985094E-02 0.30670973E+03</pdfrwt>
<totfact> 0.98980991E+03</totfact>
</mgrwt>
</event>
<event>
 4    1  0.1383574E-004  0.4542276E+03  0.7818608E-02  0.1026469E+00
         -2   -1    0    0    0  501 -0.00000000000E+00  0.00000000000E+00  0.24635630289E+02  0.24635630421E+02  0.25500000000E-02 0. -1.
          2   -1    0    0  501    0  0.00000000000E+00 -0.00000000000E+00 -0.20937428846E+04  0.20937428846E+04  0.25500000000E-02 0.  1.
    5000001    1    1    2    0    0 -0.57934578166E+02  0.82141523459E+02 -0.17770633835E+04  0.17844290163E+04  0.12700000000E+03 0.  0.
   -5000001    1    1    2    0    0  0.57934578166E+02 -0.82141523459E+02 -0.29204387084E+03  0.33394949875E+03  0.12700000000E+03 0.  0.
<mgrwt>
<rscale>  0 0.45422759E+03</rscale>
<asrwt>0</asrwt>
<pdfrwt beam="1">  1        2 0.29910601E+00 0.45422759E+03</pdfrwt>
<pdfrwt beam="2">  1       -2 0.35193771E-02 0.45422759E+03</pdfrwt>
<totfact> 0.26308486E+03</totfact>
</mgrwt>
</event>
<event>
 4    1  0.1383574E-004  0.7565248E+03  0.7818608E-02  0.9625169E-01
         -2   -1    0    0    0  501 -0.00000000000E+00  0.00000000000E+00  0.73475223833E+02  0.73475223877E+02  0.25500000000E-02 0. -1.
          2   -1    0    0  501    0  0.00000000000E+00 -0.00000000000E+00 -0.19473565812E+04  0.19473565812E+04  0.25500000000E-02 0.  1.
    5000001    1    1    2    0    0  0.33143201915E+03  0.53129044157E+02 -0.61769462324E+03  0.71438471864E+03  0.12700000000E+03 0.  0.
   -5000001    1    1    2    0    0 -0.33143201915E+03 -0.53129044157E+02 -0.12561867341E+04  0.13064470864E+04  0.12700000000E+03 0.  0.
<mgrwt>
<rscale>  0 0.75652485E+03</rscale>
<asrwt>0</asrwt>
<pdfrwt beam="1">  1        2 0.27819377E+00 0.75652485E+03</pdfrwt>
<pdfrwt beam="2">  1       -2 0.10496462E-01 0.75652485E+03</pdfrwt>
<totfact> 0.55155316E+02</totfact>
</mgrwt>
</event>
<event>
 4    1  0.1383574E-004  0.4114058E+03  0.7818608E-02  0.1039900E+00
          2   -1    0    0  501    0  0.00000000000E+00  0.00000000000E+00  0.15149491436E+04  0.15149491436E+04  0.25500000000E-02 0.  1.
         -2   -1    0    0    0  501 -0.00000000000E+00 -0.00000000000E+00 -0.27930766772E+02  0.27930766889E+02  0.25500000000E-02 0. -1.
    5000001    1    1    2    0    0  0.46972638799E+02 -0.11528217274E+03  0.35579147117E+03  0.39775995161E+03  0.12700000000E+03 0.  0.
   -5000001    1    1    2    0    0 -0.46972638799E+02  0.11528217274E+03  0.11312269057E+04  0.11451199589E+04  0.12700000000E+03 0.  0.
<mgrwt>
<rscale>  0 0.41140584E+03</rscale>
<asrwt>0</asrwt>
<pdfrwt beam="1">  1        2 0.21642139E+00 0.41140584E+03</pdfrwt>
<pdfrwt beam="2">  1       -2 0.39901080E-02 0.41140584E+03</pdfrwt>
<totfact> 0.42408395E+03</totfact>
</mgrwt>
</event>
<event>
 4    1  0.1383574E-004  0.3168960E+03  0.7818608E-02  0.1077087E+00
         -2   -1    0    0    0  501 -0.00000000000E+00  0.00000000000E+00  0.25114916787E+02  0.25114916916E+02  0.25500000000E-02 0. -1.
          2   -1    0    0  501    0  0.00000000000E+00 -0.00000000000E+00 -0.99963551115E+03  0.99963551115E+03  0.25500000000E-02 0.  1.
    5000001    1    1    2    0    0  0.56307401713E+02 -0.69254109651E+02 -0.59003475929E+03  0.61011201624E+03  0.12700000000E+03 0.  0.
   -5000001    1    1    2    0    0 -0.56307401713E+02  0.69254109651E+02 -0.38448583507E+03  0.41463841182E+03  0.12700000000E+03 0.  0.
<mgrwt>
<rscale>  0 0.31689596E+03</rscale>
<asrwt>0</asrwt>
<pdfrwt beam="1">  1        2 0.14280505E+00 0.31689596E+03</pdfrwt>
<pdfrwt beam="2">  1       -2 0.35878459E-02 0.31689596E+03</pdfrwt>
<totfact> 0.94606720E+03</totfact>
</mgrwt>
</event>
<event>
 4    1  0.1383574E-004  0.5736695E+03  0.7818608E-02  0.9961591E-01
          2   -1    0    0  501    0  0.00000000000E+00  0.00000000000E+00  0.19122770416E+04  0.19122770416E+04  0.25500000000E-02 0.  1.
         -2   -1    0    0    0  501 -0.00000000000E+00 -0.00000000000E+00 -0.43024195035E+02  0.43024195111E+02  0.25500000000E-02 0. -1.
    5000001    1    1    2    0    0  0.66609743017E+02  0.24836908231E+03  0.91896198142E+03  0.96267553319E+03  0.12700000000E+03 0.  0.
   -5000001    1    1    2    0    0 -0.66609743017E+02 -0.24836908231E+03  0.95029086516E+03  0.99262570354E+03  0.12700000000E+03 0.  0.
<mgrwt>
<rscale>  0 0.57366952E+03</rscale>
<asrwt>0</asrwt>
<pdfrwt beam="1">  1        2 0.27318250E+00 0.57366952E+03</pdfrwt>
<pdfrwt beam="2">  1       -2 0.61463121E-02 0.57366952E+03</pdfrwt>
<totfact> 0.13654947E+03</totfact>
</mgrwt>
</event>
<event>
 4    1  0.1383574E-004  0.5204667E+03  0.7818608E-02  0.1008571E+00
          2   -1    0    0  501    0  0.00000000000E+00  0.00000000000E+00  0.26556492429E+04  0.26556492429E+04  0.25500000000E-02 0.  1.
         -2   -1    0    0    0  501 -0.00000000000E+00 -0.00000000000E+00 -0.25500881346E+02  0.25500881474E+02  0.25500000000E-02 0. -1.
    5000001    1    1    2    0    0  0.12151125440E+03  0.12873310348E+03  0.58191809009E+03  0.62136531964E+03  0.12700000000E+03 0.  0.
   -5000001    1    1    2    0    0 -0.12151125440E+03 -0.12873310348E+03  0.20482302714E+04  0.20597848047E+04  0.12700000000E+03 0.  0.
<mgrwt>
<rscale>  0 0.52046670E+03</rscale>
<asrwt>0</asrwt>
<pdfrwt beam="1">  1        2 0.37937848E+00 0.52046670E+03</pdfrwt>
<pdfrwt beam="2">  1       -2 0.36429829E-02 0.52046670E+03</pdfrwt>
<totfact> 0.12924254E+03</totfact>
</mgrwt>
</event>
<event>
 4    1  0.1383574E-004  0.3745860E+03  0.7818608E-02  0.1052953E+00
          2   -1    0    0  501    0  0.00000000000E+00  0.00000000000E+00  0.63685634420E+02  0.63685634471E+02  0.25500000000E-02 0.  1.
         -2   -1    0    0    0  501 -0.00000000000E+00 -0.00000000000E+00 -0.55080972100E+03  0.55080972100E+03  0.25500000000E-02 0. -1.
    5000001    1    1    2    0    0 -0.11940935397E+03 -0.56181473168E+02 -0.17929609622E+03  0.25630263725E+03  0.12700000000E+03 0.  0.
   -5000001    1    1    2    0    0  0.11940935397E+03  0.56181473168E+02 -0.30782799035E+03  0.35819271822E+03  0.12700000000E+03 0.  0.
<mgrwt>
<rscale>  0 0.37458599E+03</rscale>
<asrwt>0</asrwt>
<pdfrwt beam="1">  1        2 0.90979481E-02 0.37458599E+03</pdfrwt>
<pdfrwt beam="2">  1       -2 0.78687100E-01 0.37458599E+03</pdfrwt>
<totfact> 0.10741647E+03</totfact>
</mgrwt>
</event>
<event>
 4    1  0.1383574E-004  0.2686580E+03  0.7818608E-02  0.1102050E+00
         -2   -1    0    0    0  501 -0.00000000000E+00  0.00000000000E+00  0.64695286947E+02  0.64695286997E+02  0.25500000000E-02 0. -1.
          2   -1    0    0  501    0  0.00000000000E+00 -0.00000000000E+00 -0.27891179712E+03  0.27891179714E+03  0.25500000000E-02 0.  1.
    5000001    1    1    2    0    0 -0.41863363148E+02 -0.11156966605E+02 -0.99197225297E+02  0.16687153318E+03  0.12700000000E+03 0.  0.
   -5000001    1    1    2    0    0  0.41863363148E+02  0.11156966605E+02 -0.11501928488E+03  0.17673555096E+03  0.12700000000E+03 0.  0.
<mgrwt>
<rscale>  0 0.26865799E+03</rscale>
<asrwt>0</asrwt>
<pdfrwt beam="1">  1        2 0.39844542E-01 0.26865799E+03</pdfrwt>
<pdfrwt beam="2">  1       -2 0.92421840E-02 0.26865799E+03</pdfrwt>
<totfact> 0.95611703E+03</totfact>
</mgrwt>
</event>
<event>
 4    1  0.1383574E-004  0.5324781E+03  0.7818608E-02  0.1005633E+00
          2   -1    0    0  501    0  0.00000000000E+00  0.00000000000E+00  0.31726994755E+03  0.31726994756E+03  0.25500000000E-02 0.  1.
         -2   -1    0    0    0  501 -0.00000000000E+00 -0.00000000000E+00 -0.22341612597E+03  0.22341612598E+03  0.25500000000E-02 0. -1.
    5000001    1    1    2    0    0  0.10613499523E+03 -0.18614652716E+03  0.14239239915E+03  0.28691420690E+03  0.12700000000E+03 0.  0.
   -5000001    1    1    2    0    0 -0.10613499523E+03  0.18614652716E+03 -0.48538577569E+02  0.25377186664E+03  0.12700000000E+03 0.  0.
<mgrwt>
<rscale>  0 0.53247807E+03</rscale>
<asrwt>0</asrwt>
<pdfrwt beam="1">  1        2 0.45324278E-01 0.53247807E+03</pdfrwt>
<pdfrwt beam="2">  1       -2 0.31916590E-01 0.53247807E+03</pdfrwt>
<totfact> 0.10241112E+03</totfact>
</mgrwt>
</event>
<event>
 4    1  0.1383574E-004  0.8428394E+03  0.7818608E-02  0.9499998E-01
         -2   -1    0    0    0  501 -0.00000000000E+00  0.00000000000E+00  0.26384703933E+03  0.26384703934E+03  0.25500000000E-02 0. -1.
          2   -1    0    0  501    0  0.00000000000E+00 -0.00000000000E+00 -0.67309661115E+03  0.67309661115E+03  0.25500000000E-02 0.  1.
    5000001    1    1    2    0    0  0.46070704201E+02  0.38305786857E+03 -0.79794153752E+02  0.41394679300E+03  0.12700000000E+03 0.  0.
   -5000001    1    1    2    0    0 -0.46070704201E+02 -0.38305786857E+03 -0.32945541807E+03  0.52299685750E+03  0.12700000000E+03 0.  0.
<mgrwt>
<rscale>  0 0.84283936E+03</rscale>
<asrwt>0</asrwt>
<pdfrwt beam="1">  1        2 0.96156658E-01 0.84283936E+03</pdfrwt>
<pdfrwt beam="2">  1       -2 0.37692435E-01 0.84283936E+03</pdfrwt>
<totfact> 0.31463026E+02</totfact>
</mgrwt>
</event>
<event>
 4    1  0.1383574E-004  0.3738359E+03  0.7818608E-02  0.1053236E+00
         -2   -1    0    0    0  501 -0.00000000000E+00  0.00000000000E+00  0.96509936163E+03  0.96509936164E+03  0.25500000000E-02 0. -1.
          2   -1    0    0  501    0  0.00000000000E+00 -0.00000000000E+00 -0.36201779724E+02  0.36201779813E+02  0.25500000000E-02 0.  1.
    5000001    1    1    2    0    0  0.12699788400E+03 -0.25692716846E+02  0.58485213880E+03  0.61234761573E+03  0.12700000000E+03 0.  0.
   -5000001    1    1    2    0    0 -0.12699788400E+03  0.25692716846E+02  0.34404544311E+03  0.38895352572E+03  0.12700000000E+03 0.  0.
<mgrwt>
<rscale>  0 0.37383587E+03</rscale>
<asrwt>0</asrwt>
<pdfrwt beam="1">  1        2 0.51716838E-02 0.37383587E+03</pdfrwt>
<pdfrwt beam="2">  1       -2 0.13787131E+00 0.37383587E+03</pdfrwt>
<totfact> 0.59511243E+02</totfact>
</mgrwt>
</event>
<event>
 4    1  0.1383574E-004  0.5150928E+03  0.7818608E-02  0.1009913E+00
          2   -1    0    0  501    0  0.00000000000E+00  0.00000000000E+00  0.16600642511E+04  0.16600642511E+04  0.25500000000E-02 0.  1.
         -2   -1    0    0    0  501 -0.00000000000E+00 -0.00000000000E+00 -0.39956379688E+02  0.39956379770E+02  0.25500000000E-02 0. -1.
    5000001    1    1    2    0    0 -0.19632996789E+03 -0.96858900616E+02  0.65266683585E+03  0.70002150077E+03  0.12700000000E+03 0.  0.
   -5000001    1    1    2    0    0  0.19632996789E+03  0.96858900616E+02  0.96744103552E+03  0.99999913006E+03  0.12700000000E+03 0.  0.
<mgrwt>
<rscale>  0 0.51509284E+03</rscale>
<asrwt>0</asrwt>
<pdfrwt beam="1">  1        2 0.23715212E+00 0.51509284E+03</pdfrwt>
<pdfrwt beam="2">  1       -2 0.57080523E-02 0.51509284E+03</pdfrwt>
<totfact> 0.20586492E+03</totfact>
</mgrwt>
</event>
<event>
 4    1  0.1383574E-004  0.5744123E+03  0.7818608E-02  0.9959962E-01
         -2   -1    0    0    0  501 -0.00000000000E+00  0.00000000000E+00  0.34360969008E+02  0.34360969103E+02  0.25500000000E-02 0.  1.
          2   -1    0    0  501    0  0.00000000000E+00 -0.00000000000E+00 -0.24006124421E+04  0.24006124421E+04  0.25500000000E-02 0. -1.
    5000001    1    1    2    0    0  0.22405201823E+03 -0.12240844119E+03 -0.13284483277E+04  0.13587078762E+04  0.12700000000E+03 0.  0.
   -5000001    1    1    2    0    0 -0.22405201823E+03  0.12240844119E+03 -0.10378031453E+04  0.10762655350E+04  0.12700000000E+03 0.  0.
<mgrwt>
<rscale>  0 0.57441229E+03</rscale>
<asrwt>0</asrwt>
<pdfrwt beam="1">  1        2 0.34294453E+00 0.57441229E+03</pdfrwt>
<pdfrwt beam="2">  1       -2 0.49087114E-02 0.57441229E+03</pdfrwt>
<totfact> 0.11003911E+03</totfact>
</mgrwt>
</event>
<event>
 4    1  0.1383574E-004  0.4851439E+03  0.7818608E-02  0.1017731E+00
          2   -1    0    0  501    0  0.00000000000E+00  0.00000000000E+00  0.30960646128E+04  0.30960646128E+04  0.25500000000E-02 0.  1.
         -2   -1    0    0    0  501 -0.00000000000E+00 -0.00000000000E+00 -0.19005142966E+02  0.19005143137E+02  0.25500000000E-02 0. -1.
    5000001    1    1    2    0    0  0.12001441503E+03  0.15353018393E+03  0.10965963050E+04  0.11209939488E+04  0.12700000000E+03 0.  0.
   -5000001    1    1    2    0    0 -0.12001441503E+03 -0.15353018393E+03  0.19804631648E+04  0.19940758071E+04  0.12700000000E+03 0.  0.
<mgrwt>
<rscale>  0 0.48514390E+03</rscale>
<asrwt>0</asrwt>
<pdfrwt beam="1">  1        2 0.44229495E+00 0.48514390E+03</pdfrwt>
<pdfrwt beam="2">  1       -2 0.27150204E-02 0.48514390E+03</pdfrwt>
<totfact> 0.11800876E+03</totfact>
</mgrwt>
</event>
<event>
 4    1  0.1383574E-004  0.6755495E+03  0.7818608E-02  0.9759984E-01
         -2   -1    0    0    0  501 -0.00000000000E+00  0.00000000000E+00  0.99951736469E+02  0.99951736502E+02  0.25500000000E-02 0. -1.
          2   -1    0    0  501    0  0.00000000000E+00 -0.00000000000E+00 -0.11414688585E+04  0.11414688585E+04  0.25500000000E-02 0.  1.
    5000001    1    1    2    0    0 -0.15537396124E+03  0.15418914055E+03 -0.93186346718E+03  0.96561580370E+03  0.12700000000E+03 0.  0.
   -5000001    1    1    2    0    0  0.15537396124E+03 -0.15418914055E+03 -0.10965365488E+03  0.27580479133E+03  0.12700000000E+03 0.  0.
<mgrwt>
<rscale>  0 0.67554954E+03</rscale>
<asrwt>0</asrwt>
<pdfrwt beam="1">  1        2 0.16306697E+00 0.67554954E+03</pdfrwt>
<pdfrwt beam="2">  1       -2 0.14278820E-01 0.67554954E+03</pdfrwt>
<totfact> 0.88498764E+02</totfact>
</mgrwt>
</event>
<event>
 4    1  0.1383574E-004  0.5004144E+03  0.7818608E-02  0.1013671E+00
         -2   -1    0    0    0  501 -0.00000000000E+00  0.00000000000E+00  0.85747228869E+02  0.85747228907E+02  0.25500000000E-02 0. -1.
          2   -1    0    0  501    0  0.00000000000E+00 -0.00000000000E+00 -0.73009530308E+03  0.73009530308E+03  0.25500000000E-02 0.  1.
    5000001    1    1    2    0    0  0.40350225325E+02  0.21163988483E+03 -0.31007573748E+03  0.39836609357E+03  0.12700000000E+03 0.  0.
   -5000001    1    1    2    0    0 -0.40350225325E+02 -0.21163988483E+03 -0.33427233672E+03  0.41747643842E+03  0.12700000000E+03 0.  0.
<mgrwt>
<rscale>  0 0.50041442E+03</rscale>
<asrwt>0</asrwt>
<pdfrwt beam="1">  1        2 0.10429933E+00 0.50041442E+03</pdfrwt>
<pdfrwt beam="2">  1       -2 0.12249605E-01 0.50041442E+03</pdfrwt>
<totfact> 0.20958316E+03</totfact>
</mgrwt>
</event>
<event>
 4    1  0.1383574E-004  0.5541719E+03  0.7818608E-02  0.1000533E+00
          2   -1    0    0  501    0  0.00000000000E+00  0.00000000000E+00  0.43750526921E+03  0.43750526922E+03  0.25500000000E-02 0.  1.
         -2   -1    0    0    0  501 -0.00000000000E+00 -0.00000000000E+00 -0.17548732097E+03  0.17548732099E+03  0.25500000000E-02 0. -1.
    5000001    1    1    2    0    0 -0.82708951239E+02  0.18924773426E+03 -0.17363134853E+02  0.24307602512E+03  0.12700000000E+03 0.  0.
   -5000001    1    1    2    0    0  0.82708951239E+02 -0.18924773426E+03  0.27938108309E+03  0.36991656509E+03  0.12700000000E+03 0.  0.
<mgrwt>
<rscale>  0 0.55417191E+03</rscale>
<asrwt>0</asrwt>
<pdfrwt beam="1">  1        2 0.62500752E-01 0.55417191E+03</pdfrwt>
<pdfrwt beam="2">  1       -2 0.25069618E-01 0.55417191E+03</pdfrwt>
<totfact> 0.11157574E+03</totfact>
</mgrwt>
</event>
<event>
 4    1  0.1383574E-004  0.5245568E+03  0.7818608E-02  0.1007561E+00
         -2   -1    0    0    0  501 -0.00000000000E+00  0.00000000000E+00  0.47143224975E+03  0.47143224976E+03  0.25500000000E-02 0. -1.
          2   -1    0    0  501    0  0.00000000000E+00 -0.00000000000E+00 -0.14591693459E+03  0.14591693461E+03  0.25500000000E-02 0.  1.
    5000001    1    1    2    0    0  0.18631220901E+03 -0.56047959402E+02  0.30596881427E+03  0.38418684034E+03  0.12700000000E+03 0.  0.
   -5000001    1    1    2    0    0 -0.18631220901E+03  0.56047959402E+02  0.19546500892E+02  0.23316234404E+03  0.12700000000E+03 0.  0.
<mgrwt>
<rscale>  0 0.52455676E+03</rscale>
<asrwt>0</asrwt>
<pdfrwt beam="1">  1        2 0.20845277E-01 0.52455676E+03</pdfrwt>
<pdfrwt beam="2">  1       -2 0.67347463E-01 0.52455676E+03</pdfrwt>
<totfact> 0.55159330E+02</totfact>
</mgrwt>
</event>
<event>
 4    1  0.1383574E-004  0.4582122E+03  0.7818608E-02  0.1025301E+00
          2   -1    0    0  501    0  0.00000000000E+00  0.00000000000E+00  0.29513994529E+04  0.29513994529E+04  0.25500000000E-02 0.  1.
         -2   -1    0    0    0  501 -0.00000000000E+00 -0.00000000000E+00 -0.17784651096E+02  0.17784651278E+02  0.25500000000E-02 0. -1.
    5000001    1    1    2    0    0  0.33245336879E+02 -0.13361997274E+03  0.61201960213E+03  0.64004417264E+03  0.12700000000E+03 0.  0.
   -5000001    1    1    2    0    0 -0.33245336879E+02  0.13361997274E+03  0.23215951997E+04  0.23291399316E+04  0.12700000000E+03 0.  0.
<mgrwt>
<rscale>  0 0.45821222E+03</rscale>
<asrwt>0</asrwt>
<pdfrwt beam="1">  1        2 0.42162882E+00 0.45821222E+03</pdfrwt>
<pdfrwt beam="2">  1       -2 0.25406625E-02 0.45821222E+03</pdfrwt>
<totfact> 0.15659745E+03</totfact>
</mgrwt>
</event>
<event>
 4    1  0.1383574E-004  0.7316956E+03  0.7818608E-02  0.9664513E-01
         -2   -1    0    0    0  501 -0.00000000000E+00  0.00000000000E+00  0.33308942230E+02  0.33308942327E+02  0.25500000000E-02 0. -1.
          2   -1    0    0  501    0  0.00000000000E+00 -0.00000000000E+00 -0.40182791072E+04  0.40182791072E+04  0.25500000000E-02 0.  1.
    5000001    1    1    2    0    0  0.24285061786E+02  0.18529829567E+03 -0.35857383461E+04  0.35928503600E+04  0.12700000000E+03 0.  0.
   -5000001    1    1    2    0    0 -0.24285061786E+02 -0.18529829567E+03 -0.39923181889E+03  0.45873768956E+03  0.12700000000E+03 0.  0.
<mgrwt>
<rscale>  0 0.73169564E+03</rscale>
<asrwt>0</asrwt>
<pdfrwt beam="1">  1        2 0.57403956E+00 0.73169564E+03</pdfrwt>
<pdfrwt beam="2">  1       -2 0.47584229E-02 0.73169564E+03</pdfrwt>
<totfact> 0.13454417E+02</totfact>
</mgrwt>
</event>
<event>
 4    1  0.1383574E-004  0.5632319E+03  0.7818608E-02  0.9984768E-01
          2   -1    0    0  501    0  0.00000000000E+00  0.00000000000E+00  0.89344249844E+03  0.89344249845E+03  0.25500000000E-02 0.  1.
         -2   -1    0    0    0  501 -0.00000000000E+00 -0.00000000000E+00 -0.88766264273E+02  0.88766264309E+02  0.25500000000E-02 0. -1.
    5000001    1    1    2    0    0  0.23447920875E+03 -0.89433149765E+02  0.42698582829E+03  0.51129706158E+03  0.12700000000E+03 0.  0.
   -5000001    1    1    2    0    0 -0.23447920875E+03  0.89433149765E+02  0.37769040588E+03  0.47091170118E+03  0.12700000000E+03 0.  0.
<mgrwt>
<rscale>  0 0.56323193E+03</rscale>
<asrwt>0</asrwt>
<pdfrwt beam="1">  1        2 0.12763465E+00 0.56323193E+03</pdfrwt>
<pdfrwt beam="2">  1       -2 0.12680895E-01 0.56323193E+03</pdfrwt>
<totfact> 0.15290636E+03</totfact>
</mgrwt>
</event>
<event>
 4    1  0.1383574E-004  0.7516647E+03  0.7818608E-02  0.9632742E-01
          2   -1    0    0  501    0  0.00000000000E+00  0.00000000000E+00  0.17983268298E+04  0.17983268298E+04  0.25500000000E-02 0.  1.
         -2   -1    0    0    0  501 -0.00000000000E+00 -0.00000000000E+00 -0.78545217917E+02  0.78545217959E+02  0.25500000000E-02 0. -1.
    5000001    1    1    2    0    0  0.23038701854E+03 -0.25163615419E+03  0.62669564691E+03  0.72475883318E+03  0.12700000000E+03 0.  0.
   -5000001    1    1    2    0    0 -0.23038701854E+03  0.25163615419E+03  0.10930859650E+04  0.11521132146E+04  0.12700000000E+03 0.  0.
<mgrwt>
<rscale>  0 0.75166475E+03</rscale>
<asrwt>0</asrwt>
<pdfrwt beam="1">  1        2 0.25690380E+00 0.75166475E+03</pdfrwt>
<pdfrwt beam="2">  1       -2 0.11220747E-01 0.75166475E+03</pdfrwt>
<totfact> 0.58861662E+02</totfact>
</mgrwt>
</event>
<event>
 4    1  0.1383574E-004  0.3217098E+03  0.7818608E-02  0.1074865E+00
         -2   -1    0    0    0  501 -0.00000000000E+00  0.00000000000E+00  0.66486800417E+02  0.66486800465E+02  0.25500000000E-02 0. -1.
          2   -1    0    0  501    0  0.00000000000E+00 -0.00000000000E+00 -0.38916449487E+03  0.38916449488E+03  0.25500000000E-02 0.  1.
    5000001    1    1    2    0    0 -0.54885516494E+02 -0.29207549817E+02 -0.52733898869E+02  0.15091509195E+03  0.12700000000E+03 0.  0.
   -5000001    1    1    2    0    0  0.54885516494E+02  0.29207549817E+02 -0.26994379559E+03  0.30473620340E+03  0.12700000000E+03 0.  0.
<mgrwt>
<rscale>  0 0.32170982E+03</rscale>
<asrwt>0</asrwt>
<pdfrwt beam="1">  1        2 0.55594926E-01 0.32170982E+03</pdfrwt>
<pdfrwt beam="2">  1       -2 0.94981146E-02 0.32170982E+03</pdfrwt>
<totfact> 0.64342223E+03</totfact>
</mgrwt>
</event>
<event>
 4    1  0.1383574E-004  0.1303013E+04  0.7818608E-02  0.9027179E-01
          2   -1    0    0  501    0  0.00000000000E+00  0.00000000000E+00  0.26942842533E+04  0.26942842533E+04  0.25500000000E-02 0.  1.
         -2   -1    0    0    0  501 -0.00000000000E+00 -0.00000000000E+00 -0.15754119623E+03  0.15754119625E+03  0.25500000000E-02 0. -1.
    5000001    1    1    2    0    0 -0.51704990662E+03 -0.35772764605E+03  0.10186163462E+04  0.12037516087E+04  0.12700000000E+03 0.  0.
   -5000001    1    1    2    0    0  0.51704990662E+03  0.35772764605E+03  0.15181267109E+04  0.16480738409E+04  0.12700000000E+03 0.  0.
<mgrwt>
<rscale>  0 0.13030131E+04</rscale>
<asrwt>0</asrwt>
<pdfrwt beam="1">  1        2 0.38489775E+00 0.13030131E+04</pdfrwt>
<pdfrwt beam="2">  1       -2 0.22505885E-01 0.13030131E+04</pdfrwt>
<totfact> 0.59323065E+01</totfact>
</mgrwt>
</event>
<event>
 4    1  0.1383574E-004  0.4545471E+03  0.7818608E-02  0.1026375E+00
         -2   -1    0    0    0  501 -0.00000000000E+00  0.00000000000E+00  0.42042045101E+02  0.42042045178E+02  0.25500000000E-02 0. -1.
          2   -1    0    0  501    0  0.00000000000E+00 -0.00000000000E+00 -0.12286099398E+04  0.12286099398E+04  0.25500000000E-02 0.  1.
    5000001    1    1    2    0    0  0.13533714923E+03 -0.35070827944E+02 -0.23992899649E+03  0.30535394265E+03  0.12700000000E+03 0.  0.
   -5000001    1    1    2    0    0 -0.13533714923E+03  0.35070827944E+02 -0.94663889820E+03  0.96529804233E+03  0.12700000000E+03 0.  0.
<mgrwt>
<rscale>  0 0.45454714E+03</rscale>
<asrwt>0</asrwt>
<pdfrwt beam="1">  1        2 0.17551568E+00 0.45454714E+03</pdfrwt>
<pdfrwt beam="2">  1       -2 0.60060072E-02 0.45454714E+03</pdfrwt>
<totfact> 0.32046076E+03</totfact>
</mgrwt>
</event>
<event>
 4    1  0.1383574E-004  0.3213361E+03  0.7818608E-02  0.1075036E+00
         -2   -1    0    0    0  501 -0.00000000000E+00  0.00000000000E+00  0.14127370341E+02  0.14127370571E+02  0.25500000000E-02 0. -1.
          2   -1    0    0  501    0  0.00000000000E+00 -0.00000000000E+00 -0.18272490527E+04  0.18272490527E+04  0.25500000000E-02 0.  1.
    5000001    1    1    2    0    0 -0.19988562707E+02 -0.61508115579E+02 -0.13316308255E+04  0.13392357695E+04  0.12700000000E+03 0.  0.
   -5000001    1    1    2    0    0  0.19988562707E+02  0.61508115579E+02 -0.48149085691E+03  0.50214065381E+03  0.12700000000E+03 0.  0.
<mgrwt>
<rscale>  0 0.32133611E+03</rscale>
<asrwt>0</asrwt>
<pdfrwt beam="1">  1        2 0.26103543E+00 0.32133611E+03</pdfrwt>
<pdfrwt beam="2">  1       -2 0.20181969E-02 0.32133611E+03</pdfrwt>
<totfact> 0.82032897E+03</totfact>
</mgrwt>
</event>
<event>
 4    1  0.1383574E-004  0.4480200E+03  0.7818608E-02  0.1028314E+00
          2   -1    0    0  501    0  0.00000000000E+00  0.00000000000E+00  0.50523865854E+02  0.50523865919E+02  0.25500000000E-02 0.  1.
         -2   -1    0    0    0  501 -0.00000000000E+00 -0.00000000000E+00 -0.99320351934E+03  0.99320351935E+03  0.25500000000E-02 0. -1.
    5000001    1    1    2    0    0 -0.16828427164E+03 -0.25893334155E+02 -0.63707927336E+03  0.67155719144E+03  0.12700000000E+03 0.  0.
   -5000001    1    1    2    0    0  0.16828427164E+03  0.25893334155E+02 -0.30560038013E+03  0.37217019382E+03  0.12700000000E+03 0.  0.
<mgrwt>
<rscale>  0 0.44802001E+03</rscale>
<asrwt>0</asrwt>
<pdfrwt beam="1">  1        2 0.72176958E-02 0.44802001E+03</pdfrwt>
<pdfrwt beam="2">  1       -2 0.14188620E+00 0.44802001E+03</pdfrwt>
<totfact> 0.35651926E+02</totfact>
</mgrwt>
</event>
<event>
 4    1  0.1383574E-004  0.3402776E+03  0.7818608E-02  0.1066678E+00
         -2   -1    0    0    0  501 -0.00000000000E+00  0.00000000000E+00  0.10338344639E+04  0.10338344639E+04  0.25500000000E-02 0. -1.
          2   -1    0    0  501    0  0.00000000000E+00 -0.00000000000E+00 -0.27999843839E+02  0.27999843955E+02  0.25500000000E-02 0.  1.
    5000001    1    1    2    0    0 -0.42223562770E+02  0.40806344826E+02  0.80498081975E+03  0.81705024765E+03  0.12700000000E+03 0.  0.
   -5000001    1    1    2    0    0  0.42223562770E+02 -0.40806344826E+02  0.20085380033E+03  0.24478406022E+03  0.12700000000E+03 0.  0.
<mgrwt>
<rscale>  0 0.34027755E+03</rscale>
<asrwt>0</asrwt>
<pdfrwt beam="1">  1        2 0.39999772E-02 0.34027755E+03</pdfrwt>
<pdfrwt beam="2">  1       -2 0.14769066E+00 0.34027755E+03</pdfrwt>
<totfact> 0.70346117E+02</totfact>
</mgrwt>
</event>
<event>
 4    1  0.1383574E-004  0.9779160E+03  0.7818608E-02  0.9333103E-01
         -2   -1    0    0    0  501 -0.00000000000E+00  0.00000000000E+00  0.18434638004E+03  0.18434638006E+03  0.25500000000E-02 0. -1.
          2   -1    0    0  501    0  0.00000000000E+00 -0.00000000000E+00 -0.12969058698E+04  0.12969058698E+04  0.25500000000E-02 0.  1.
    5000001    1    1    2    0    0  0.12896404414E+03 -0.24914278721E+03  0.19002487998E+02  0.30853516436E+03  0.12700000000E+03 0.  0.
   -5000001    1    1    2    0    0 -0.12896404414E+03  0.24914278721E+03 -0.11315619777E+04  0.11727170855E+04  0.12700000000E+03 0.  0.
<mgrwt>
<rscale>  0 0.97791595E+03</rscale>
<asrwt>0</asrwt>
<pdfrwt beam="1">  1        2 0.18527226E+00 0.97791595E+03</pdfrwt>
<pdfrwt beam="2">  1       -2 0.26335198E-01 0.97791595E+03</pdfrwt>
<totfact> 0.24503875E+02</totfact>
</mgrwt>
</event>
<event>
 4    1  0.1383574E-004  0.6341764E+03  0.7818608E-02  0.9836933E-01
         -2   -1    0    0    0  501 -0.00000000000E+00  0.00000000000E+00  0.95369308721E+03  0.95369308722E+03  0.25500000000E-02 0. -1.
          2   -1    0    0  501    0  0.00000000000E+00 -0.00000000000E+00 -0.10542692593E+03  0.10542692596E+03  0.25500000000E-02 0.  1.
    5000001    1    1    2    0    0  0.17939070224E+03 -0.70421860386E+02  0.78725622209E+03  0.82039113945E+03  0.12700000000E+03 0.  0.
   -5000001    1    1    2    0    0 -0.17939070224E+03  0.70421860386E+02  0.61009939188E+02  0.23872887373E+03  0.12700000000E+03 0.  0.
<mgrwt>
<rscale>  0 0.63417641E+03</rscale>
<asrwt>0</asrwt>
<pdfrwt beam="1">  1        2 0.15060989E-01 0.63417641E+03</pdfrwt>
<pdfrwt beam="2">  1       -2 0.13624187E+00 0.63417641E+03</pdfrwt>
<totfact> 0.15592148E+02</totfact>
</mgrwt>
</event>
<event>
 4    1  0.1383574E-004  0.3557888E+03  0.7818608E-02  0.1060264E+00
          2   -1    0    0  501    0  0.00000000000E+00  0.00000000000E+00  0.36695626857E+03  0.36695626858E+03  0.25500000000E-02 0.  1.
         -2   -1    0    0    0  501 -0.00000000000E+00 -0.00000000000E+00 -0.86240306138E+02  0.86240306176E+02  0.25500000000E-02 0. -1.
    5000001    1    1    2    0    0 -0.10302246383E+03  0.68680648370E+02  0.12295042016E+03  0.21581581344E+03  0.12700000000E+03 0.  0.
   -5000001    1    1    2    0    0  0.10302246383E+03 -0.68680648370E+02  0.15776554227E+03  0.23738076132E+03  0.12700000000E+03 0.  0.
<mgrwt>
<rscale>  0 0.35578882E+03</rscale>
<asrwt>0</asrwt>
<pdfrwt beam="1">  1        2 0.52422322E-01 0.35578882E+03</pdfrwt>
<pdfrwt beam="2">  1       -2 0.12320044E-01 0.35578882E+03</pdfrwt>
<totfact> 0.45262622E+03</totfact>
</mgrwt>
</event>
<event>
 4    1  0.1383574E-004  0.4210769E+03  0.7818608E-02  0.1036716E+00
          2   -1    0    0  501    0  0.00000000000E+00  0.00000000000E+00  0.14693499144E+04  0.14693499144E+04  0.25500000000E-02 0.  1.
         -2   -1    0    0    0  501 -0.00000000000E+00 -0.00000000000E+00 -0.30167376045E+02  0.30167376153E+02  0.25500000000E-02 0. -1.
    5000001    1    1    2    0    0 -0.11019995108E+03 -0.12406002784E+03  0.62792978272E+03  0.66178526105E+03  0.12700000000E+03 0.  0.
   -5000001    1    1    2    0    0  0.11019995108E+03  0.12406002784E+03  0.81125275564E+03  0.83773202951E+03  0.12700000000E+03 0.  0.
<mgrwt>
<rscale>  0 0.42107686E+03</rscale>
<asrwt>0</asrwt>
<pdfrwt beam="1">  1        2 0.20990713E+00 0.42107686E+03</pdfrwt>
<pdfrwt beam="2">  1       -2 0.43096251E-02 0.42107686E+03</pdfrwt>
<totfact> 0.39804412E+03</totfact>
</mgrwt>
</event>
<event>
 4    1  0.1383574E-004  0.2935139E+03  0.7818608E-02  0.1088529E+00
         -2   -1    0    0    0  501 -0.00000000000E+00  0.00000000000E+00  0.36601352362E+02  0.36601352451E+02  0.25500000000E-02 0. -1.
          2   -1    0    0  501    0  0.00000000000E+00 -0.00000000000E+00 -0.58843749424E+03  0.58843749425E+03  0.25500000000E-02 0.  1.
    5000001    1    1    2    0    0 -0.69011013356E+02 -0.24700423595E+02 -0.26314509733E+03  0.30124238271E+03  0.12700000000E+03 0.  0.
   -5000001    1    1    2    0    0  0.69011013356E+02  0.24700423595E+02 -0.28869104455E+03  0.32379646399E+03  0.12700000000E+03 0.  0.
<mgrwt>
<rscale>  0 0.29351394E+03</rscale>
<asrwt>0</asrwt>
<pdfrwt beam="1">  1        2 0.84062494E-01 0.29351394E+03</pdfrwt>
<pdfrwt beam="2">  1       -2 0.52287650E-02 0.29351394E+03</pdfrwt>
<totfact> 0.10266054E+04</totfact>
</mgrwt>
</event>
<event>
 4    1  0.1383574E-004  0.4979166E+03  0.7818608E-02  0.1014324E+00
         -2   -1    0    0    0  501 -0.00000000000E+00  0.00000000000E+00  0.30895828938E+02  0.30895829043E+02  0.25500000000E-02 0. -1.
          2   -1    0    0  501    0  0.00000000000E+00 -0.00000000000E+00 -0.20061037913E+04  0.20061037913E+04  0.25500000000E-02 0.  1.
    5000001    1    1    2    0    0 -0.13546115512E+03 -0.79143983724E+02 -0.15837992529E+04  0.15966097107E+04  0.12700000000E+03 0.  0.
   -5000001    1    1    2    0    0  0.13546115512E+03  0.79143983724E+02 -0.39140870949E+03  0.44038990971E+03  0.12700000000E+03 0.  0.
<mgrwt>
<rscale>  0 0.49791662E+03</rscale>
<asrwt>0</asrwt>
<pdfrwt beam="1">  1        2 0.28658617E+00 0.49791662E+03</pdfrwt>
<pdfrwt beam="2">  1       -2 0.44136911E-02 0.49791662E+03</pdfrwt>
<totfact> 0.20551107E+03</totfact>
</mgrwt>
</event>
<event>
 4    1  0.1383574E-004  0.3032058E+03  0.7818608E-02  0.1083649E+00
         -2   -1    0    0    0  501 -0.00000000000E+00  0.00000000000E+00  0.23229914346E+02  0.23229914486E+02  0.25500000000E-02 0. -1.
          2   -1    0    0  501    0  0.00000000000E+00 -0.00000000000E+00 -0.98938966800E+03  0.98938966800E+03  0.25500000000E-02 0.  1.
    5000001    1    1    2    0    0 -0.12320637808E+02 -0.48425833149E+02 -0.70354069494E+03  0.71665568363E+03  0.12700000000E+03 0.  0.
   -5000001    1    1    2    0    0  0.12320637808E+02  0.48425833149E+02 -0.26261905871E+03  0.29596389886E+03  0.12700000000E+03 0.  0.
<mgrwt>
<rscale>  0 0.30320579E+03</rscale>
<asrwt>0</asrwt>
<pdfrwt beam="1">  1        2 0.14134136E+00 0.30320579E+03</pdfrwt>
<pdfrwt beam="2">  1       -2 0.33185598E-02 0.30320579E+03</pdfrwt>
<totfact> 0.10772276E+04</totfact>
</mgrwt>
</event>
<event>
 4    1  0.1383574E-004  0.4725525E+03  0.7818608E-02  0.1021202E+00
         -2   -1    0    0    0  501 -0.00000000000E+00  0.00000000000E+00  0.33771477129E+03  0.33771477130E+03  0.25500000000E-02 0. -1.
          2   -1    0    0  501    0  0.00000000000E+00 -0.00000000000E+00 -0.16530654319E+03  0.16530654321E+03  0.25500000000E-02 0.  1.
    5000001    1    1    2    0    0 -0.97901948271E+02  0.16368931144E+03  0.14752464360E+03  0.27252798503E+03  0.12700000000E+03 0.  0.
   -5000001    1    1    2    0    0  0.97901948271E+02 -0.16368931144E+03  0.24883584497E+02  0.23049332947E+03  0.12700000000E+03 0.  0.
<mgrwt>
<rscale>  0 0.47255248E+03</rscale>
<asrwt>0</asrwt>
<pdfrwt beam="1">  1        2 0.23615221E-01 0.47255248E+03</pdfrwt>
<pdfrwt beam="2">  1       -2 0.48244967E-01 0.47255248E+03</pdfrwt>
<totfact> 0.95449748E+02</totfact>
</mgrwt>
</event>
<event>
 4    1  0.1383574E-004  0.2770257E+03  0.7818608E-02  0.1097325E+00
         -2   -1    0    0    0  501 -0.00000000000E+00  0.00000000000E+00  0.11002058351E+02  0.11002058647E+02  0.25500000000E-02 0. -1.
          2   -1    0    0  501    0  0.00000000000E+00 -0.00000000000E+00 -0.17438380119E+04  0.17438380119E+04  0.25500000000E-02 0.  1.
    5000001    1    1    2    0    0  0.31212016216E+02  0.34266034844E+02 -0.10573459769E+04  0.10659539699E+04  0.12700000000E+03 0.  0.
   -5000001    1    1    2    0    0 -0.31212016216E+02 -0.34266034844E+02 -0.67548997669E+03  0.68888610068E+03  0.12700000000E+03 0.  0.
<mgrwt>
<rscale>  0 0.27702569E+03</rscale>
<asrwt>0</asrwt>
<pdfrwt beam="1">  1        2 0.24911954E+00 0.27702569E+03</pdfrwt>
<pdfrwt beam="2">  1       -2 0.15717238E-02 0.27702569E+03</pdfrwt>
<totfact> 0.12991091E+04</totfact>
</mgrwt>
</event>
<event>
 4    1  0.1383574E-004  0.5520352E+03  0.7818608E-02  0.1001024E+00
         -2   -1    0    0    0  501 -0.00000000000E+00  0.00000000000E+00  0.11257410122E+03  0.11257410125E+03  0.25500000000E-02 0. -1.
          2   -1    0    0  501    0  0.00000000000E+00 -0.00000000000E+00 -0.67676047626E+03  0.67676047627E+03  0.25500000000E-02 0.  1.
    5000001    1    1    2    0    0 -0.19890621203E+03  0.96534802104E+02 -0.43324026740E+03  0.50270148050E+03  0.12700000000E+03 0.  0.
   -5000001    1    1    2    0    0  0.19890621203E+03 -0.96534802104E+02 -0.13094610764E+03  0.28663309702E+03  0.12700000000E+03 0.  0.
<mgrwt>
<rscale>  0 0.55203515E+03</rscale>
<asrwt>0</asrwt>
<pdfrwt beam="1">  1        2 0.96680066E-01 0.55203515E+03</pdfrwt>
<pdfrwt beam="2">  1       -2 0.16082015E-01 0.55203515E+03</pdfrwt>
<totfact> 0.14602019E+03</totfact>
</mgrwt>
</event>
<event>
 4    1  0.1383574E-004  0.3102581E+03  0.7818608E-02  0.1080222E+00
          2   -1    0    0  501    0  0.00000000000E+00  0.00000000000E+00  0.51085807453E+03  0.51085807453E+03  0.25500000000E-02 0.  1.
         -2   -1    0    0    0  501 -0.00000000000E+00 -0.00000000000E+00 -0.47107068195E+02  0.47107068264E+02  0.25500000000E-02 0. -1.
    5000001    1    1    2    0    0  0.50671024087E+02  0.68707858548E+02  0.27764457251E+03  0.31702339212E+03  0.12700000000E+03 0.  0.
   -5000001    1    1    2    0    0 -0.50671024087E+02 -0.68707858548E+02  0.18610643382E+03  0.24094175067E+03  0.12700000000E+03 0.  0.
<mgrwt>
<rscale>  0 0.31025813E+03</rscale>
<asrwt>0</asrwt>
<pdfrwt beam="1">  1        2 0.72979721E-01 0.31025813E+03</pdfrwt>
<pdfrwt beam="2">  1       -2 0.67295815E-02 0.31025813E+03</pdfrwt>
<totfact> 0.81842001E+03</totfact>
</mgrwt>
</event>
<event>
 4    1  0.1383574E-004  0.3551237E+03  0.7818608E-02  0.1060531E+00
          2   -1    0    0  501    0  0.00000000000E+00  0.00000000000E+00  0.23323933124E+03  0.23323933125E+03  0.25500000000E-02 0.  1.
         -2   -1    0    0    0  501 -0.00000000000E+00 -0.00000000000E+00 -0.13517537816E+03  0.13517537819E+03  0.25500000000E-02 0. -1.
    5000001    1    1    2    0    0 -0.91388669443E+02 -0.77024662337E+02  0.83665974801E+02  0.19342616899E+03  0.12700000000E+03 0.  0.
   -5000001    1    1    2    0    0  0.91388669443E+02  0.77024662337E+02  0.14397978275E+02  0.17498854045E+03  0.12700000000E+03 0.  0.
<mgrwt>
<rscale>  0 0.35512372E+03</rscale>
<asrwt>0</asrwt>
<pdfrwt beam="1">  1        2 0.33319905E-01 0.35512372E+03</pdfrwt>
<pdfrwt beam="2">  1       -2 0.19310768E-01 0.35512372E+03</pdfrwt>
<totfact> 0.35016054E+03</totfact>
</mgrwt>
</event>
<event>
 4    1  0.1383574E-004  0.3470304E+03  0.7818608E-02  0.1063841E+00
          2   -1    0    0  501    0  0.00000000000E+00  0.00000000000E+00  0.17416713932E+04  0.17416713932E+04  0.25500000000E-02 0.  1.
         -2   -1    0    0    0  501 -0.00000000000E+00 -0.00000000000E+00 -0.17286574125E+02  0.17286574313E+02  0.25500000000E-02 0. -1.
    5000001    1    1    2    0    0 -0.55683626181E+02  0.34735688677E+02  0.13606523494E+04  0.13681414584E+04  0.12700000000E+03 0.  0.
   -5000001    1    1    2    0    0  0.55683626181E+02 -0.34735688677E+02  0.36373246968E+03  0.39081650911E+03  0.12700000000E+03 0.  0.
<mgrwt>
<rscale>  0 0.34703044E+03</rscale>
<asrwt>0</asrwt>
<pdfrwt beam="1">  1        2 0.24881020E+00 0.34703044E+03</pdfrwt>
<pdfrwt beam="2">  1       -2 0.24695106E-02 0.34703044E+03</pdfrwt>
<totfact> 0.67068367E+03</totfact>
</mgrwt>
</event>
<event>
 4    1  0.1383574E-004  0.3571264E+03  0.7818608E-02  0.1059727E+00
          2   -1    0    0  501    0  0.00000000000E+00  0.00000000000E+00  0.51741883839E+03  0.51741883839E+03  0.25500000000E-02 0.  1.
         -2   -1    0    0    0  501 -0.00000000000E+00 -0.00000000000E+00 -0.61622840284E+02  0.61622840337E+02  0.25500000000E-02 0. -1.
    5000001    1    1    2    0    0 -0.12219803416E+03  0.28629667494E+02  0.23105910585E+03  0.29200912282E+03  0.12700000000E+03 0.  0.
   -5000001    1    1    2    0    0  0.12219803416E+03 -0.28629667494E+02  0.22473689225E+03  0.28703255591E+03  0.12700000000E+03 0.  0.
<mgrwt>
<rscale>  0 0.35712641E+03</rscale>
<asrwt>0</asrwt>
<pdfrwt beam="1">  1        2 0.73916977E-01 0.35712641E+03</pdfrwt>
<pdfrwt beam="2">  1       -2 0.88032629E-02 0.35712641E+03</pdfrwt>
<totfact> 0.53192205E+03</totfact>
</mgrwt>
</event>
<event>
 4    1  0.1383574E-004  0.5270326E+03  0.7818608E-02  0.1006954E+00
          2   -1    0    0  501    0  0.00000000000E+00  0.00000000000E+00  0.60216024331E+03  0.60216024332E+03  0.25500000000E-02 0.  1.
         -2   -1    0    0    0  501 -0.00000000000E+00 -0.00000000000E+00 -0.11531952144E+03  0.11531952147E+03  0.25500000000E-02 0. -1.
    5000001    1    1    2    0    0 -0.18285767354E+03 -0.12436283984E+03  0.33381272307E+03  0.42007496806E+03  0.12700000000E+03 0.  0.
   -5000001    1    1    2    0    0  0.18285767354E+03  0.12436283984E+03  0.15302799879E+03  0.29740479673E+03  0.12700000000E+03 0.  0.
<mgrwt>
<rscale>  0 0.52703256E+03</rscale>
<asrwt>0</asrwt>
<pdfrwt beam="1">  1        2 0.86022893E-01 0.52703256E+03</pdfrwt>
<pdfrwt beam="2">  1       -2 0.16474217E-01 0.52703256E+03</pdfrwt>
<totfact> 0.16108593E+03</totfact>
</mgrwt>
</event>
<event>
 4    1  0.1383574E-004  0.2801742E+03  0.7818608E-02  0.1095594E+00
          2   -1    0    0  501    0  0.00000000000E+00  0.00000000000E+00  0.40624182892E+04  0.40624182892E+04  0.25500000000E-02 0.  1.
         -2   -1    0    0    0  501 -0.00000000000E+00 -0.00000000000E+00 -0.48307184661E+01  0.48307191391E+01  0.25500000000E-02 0. -1.
    5000001    1    1    2    0    0 -0.75654429974E+00 -0.35968926205E+02  0.27098593826E+04  0.27130722824E+04  0.12700000000E+03 0.  0.
   -5000001    1    1    2    0    0  0.75654429974E+00  0.35968926205E+02  0.13477281881E+04  0.13541767259E+04  0.12700000000E+03 0.  0.
<mgrwt>
<rscale>  0 0.28017423E+03</rscale>
<asrwt>0</asrwt>
<pdfrwt beam="1">  1        2 0.58034430E+00 0.28017423E+03</pdfrwt>
<pdfrwt beam="2">  1       -2 0.69010408E-03 0.28017423E+03</pdfrwt>
<totfact> 0.24039045E+03</totfact>
</mgrwt>
</event>
<event>
 4    1  0.1383574E-004  0.3546228E+03  0.7818608E-02  0.1060734E+00
          2   -1    0    0  501    0  0.00000000000E+00  0.00000000000E+00  0.69928073978E+03  0.69928073978E+03  0.25500000000E-02 0.  1.
         -2   -1    0    0    0  501 -0.00000000000E+00 -0.00000000000E+00 -0.44959519488E+02  0.44959519560E+02  0.25500000000E-02 0. -1.
    5000001    1    1    2    0    0  0.97501864735E+02 -0.35731386633E+02  0.46836586517E+03  0.49626497889E+03  0.12700000000E+03 0.  0.
   -5000001    1    1    2    0    0 -0.97501864735E+02  0.35731386633E+02  0.18595535512E+03  0.24797528045E+03  0.12700000000E+03 0.  0.
<mgrwt>
<rscale>  0 0.35462276E+03</rscale>
<asrwt>0</asrwt>
<pdfrwt beam="1">  1        2 0.99897244E-01 0.35462276E+03</pdfrwt>
<pdfrwt beam="2">  1       -2 0.64227888E-02 0.35462276E+03</pdfrwt>
<totfact> 0.61518886E+03</totfact>
</mgrwt>
</event>
<event>
 4    1  0.1383574E-004  0.3686692E+03  0.7818608E-02  0.1055203E+00
         -2   -1    0    0    0  501 -0.00000000000E+00  0.00000000000E+00  0.49710644929E+02  0.49710644994E+02  0.25500000000E-02 0. -1.
          2   -1    0    0  501    0  0.00000000000E+00 -0.00000000000E+00 -0.68354063922E+03  0.68354063923E+03  0.25500000000E-02 0.  1.
    5000001    1    1    2    0    0  0.12210221086E+03  0.54217514492E+02 -0.31427845863E+03  0.36434659095E+03  0.12700000000E+03 0.  0.
   -5000001    1    1    2    0    0 -0.12210221086E+03 -0.54217514492E+02 -0.31955153566E+03  0.36890469328E+03  0.12700000000E+03 0.  0.
<mgrwt>
<rscale>  0 0.36866921E+03</rscale>
<asrwt>0</asrwt>
<pdfrwt beam="1">  1        2 0.97648657E-01 0.36866921E+03</pdfrwt>
<pdfrwt beam="2">  1       -2 0.71015211E-02 0.36866921E+03</pdfrwt>
<totfact> 0.54112419E+03</totfact>
</mgrwt>
</event>
<event>
 4    1  0.1383574E-004  0.3191802E+03  0.7818608E-02  0.1076027E+00
          2   -1    0    0  501    0  0.00000000000E+00  0.00000000000E+00  0.14328023985E+04  0.14328023985E+04  0.25500000000E-02 0.  1.
         -2   -1    0    0    0  501 -0.00000000000E+00 -0.00000000000E+00 -0.17775650081E+02  0.17775650264E+02  0.25500000000E-02 0. -1.
    5000001    1    1    2    0    0 -0.94995288861E+02 -0.11565961846E+02  0.64618217783E+03  0.66546095552E+03  0.12700000000E+03 0.  0.
   -5000001    1    1    2    0    0  0.94995288861E+02  0.11565961846E+02  0.76884457057E+03  0.78511709323E+03  0.12700000000E+03 0.  0.
<mgrwt>
<rscale>  0 0.31918016E+03</rscale>
<asrwt>0</asrwt>
<pdfrwt beam="1">  1        2 0.20468604E+00 0.31918016E+03</pdfrwt>
<pdfrwt beam="2">  1       -2 0.25393788E-02 0.31918016E+03</pdfrwt>
<totfact> 0.91952129E+03</totfact>
</mgrwt>
</event>
<event>
 4    1  0.1383574E-004  0.8560358E+03  0.7818608E-02  0.9482272E-01
         -2   -1    0    0    0  501 -0.00000000000E+00  0.00000000000E+00  0.94463441545E+02  0.94463441579E+02  0.25500000000E-02 0. -1.
          2   -1    0    0  501    0  0.00000000000E+00 -0.00000000000E+00 -0.19393673995E+04  0.19393673995E+04  0.25500000000E-02 0.  1.
    5000001    1    1    2    0    0  0.16147421091E+03 -0.35824943990E+03 -0.11897109599E+04  0.12593481449E+04  0.12700000000E+03 0.  0.
   -5000001    1    1    2    0    0 -0.16147421091E+03  0.35824943990E+03 -0.65519299807E+03  0.77448269619E+03  0.12700000000E+03 0.  0.
<mgrwt>
<rscale>  0 0.85603579E+03</rscale>
<asrwt>0</asrwt>
<pdfrwt beam="1">  1        2 0.27705246E+00 0.85603579E+03</pdfrwt>
<pdfrwt beam="2">  1       -2 0.13494779E-01 0.85603579E+03</pdfrwt>
<totfact> 0.36506088E+02</totfact>
</mgrwt>
</event>
<event>
 4    1  0.1383574E-004  0.4658957E+03  0.7818608E-02  0.1023085E+00
         -2   -1    0    0    0  501 -0.00000000000E+00  0.00000000000E+00  0.16977252473E+02  0.16977252664E+02  0.25500000000E-02 0. -1.
          2   -1    0    0  501    0  0.00000000000E+00 -0.00000000000E+00 -0.31963181478E+04  0.31963181478E+04  0.25500000000E-02 0.  1.
    5000001    1    1    2    0    0  0.34507803578E+02  0.17348347760E+03 -0.21604341569E+04  0.21713802182E+04  0.12700000000E+03 0.  0.
   -5000001    1    1    2    0    0 -0.34507803578E+02 -0.17348347760E+03 -0.10189067384E+04  0.10419151823E+04  0.12700000000E+03 0.  0.
<mgrwt>
<rscale>  0 0.46589570E+03</rscale>
<asrwt>0</asrwt>
<pdfrwt beam="1">  1        2 0.45661649E+00 0.46589570E+03</pdfrwt>
<pdfrwt beam="2">  1       -2 0.24253238E-02 0.46589570E+03</pdfrwt>
<totfact> 0.12333432E+03</totfact>
</mgrwt>
</event>
<event>
 4    1  0.1383574E-004  0.4733445E+03  0.7818608E-02  0.1020980E+00
         -2   -1    0    0    0  501 -0.00000000000E+00  0.00000000000E+00  0.10434737024E+03  0.10434737027E+03  0.25500000000E-02 0. -1.
          2   -1    0    0  501    0  0.00000000000E+00 -0.00000000000E+00 -0.53680073078E+03  0.53680073079E+03  0.25500000000E-02 0.  1.
    5000001    1    1    2    0    0 -0.12343147923E+03 -0.12987327982E+03 -0.33571799004E+03  0.40117074634E+03  0.12700000000E+03 0.  0.
   -5000001    1    1    2    0    0  0.12343147923E+03  0.12987327982E+03 -0.96735370495E+02  0.23997735473E+03  0.12700000000E+03 0.  0.
<mgrwt>
<rscale>  0 0.47334446E+03</rscale>
<asrwt>0</asrwt>
<pdfrwt beam="1">  1        2 0.76685817E-01 0.47334446E+03</pdfrwt>
<pdfrwt beam="2">  1       -2 0.14906767E-01 0.47334446E+03</pdfrwt>
<totfact> 0.21764144E+03</totfact>
</mgrwt>
</event>
<event>
 4    1  0.1383574E-004  0.4413036E+03  0.7818608E-02  0.1030348E+00
          2   -1    0    0  501    0  0.00000000000E+00  0.00000000000E+00  0.71339319001E+03  0.71339319001E+03  0.25500000000E-02 0.  1.
         -2   -1    0    0    0  501 -0.00000000000E+00 -0.00000000000E+00 -0.68247383601E+02  0.68247383649E+02  0.25500000000E-02 0. -1.
    5000001    1    1    2    0    0  0.15765846228E+03  0.60410460627E+02  0.20981766852E+03  0.29775504782E+03  0.12700000000E+03 0.  0.
   -5000001    1    1    2    0    0 -0.15765846228E+03 -0.60410460627E+02  0.43532813789E+03  0.48388552584E+03  0.12700000000E+03 0.  0.
<mgrwt>
<rscale>  0 0.44130361E+03</rscale>
<asrwt>0</asrwt>
<pdfrwt beam="1">  1        2 0.10191331E+00 0.44130361E+03</pdfrwt>
<pdfrwt beam="2">  1       -2 0.97496264E-02 0.44130361E+03</pdfrwt>
<totfact> 0.31208027E+03</totfact>
</mgrwt>
</event>
<event>
 4    1  0.1383574E-004  0.4482462E+03  0.7818608E-02  0.1028246E+00
         -2   -1    0    0    0  501 -0.00000000000E+00  0.00000000000E+00  0.14690036009E+03  0.14690036011E+03  0.25500000000E-02 0. -1.
          2   -1    0    0  501    0  0.00000000000E+00 -0.00000000000E+00 -0.34194035200E+03  0.34194035201E+03  0.25500000000E-02 0.  1.
    5000001    1    1    2    0    0  0.50720211346E+02 -0.17078916101E+03 -0.44532957567E+02  0.22327933551E+03  0.12700000000E+03 0.  0.
   -5000001    1    1    2    0    0 -0.50720211346E+02  0.17078916101E+03 -0.15050703435E+03  0.26556137661E+03  0.12700000000E+03 0.  0.
<mgrwt>
<rscale>  0 0.44824619E+03</rscale>
<asrwt>0</asrwt>
<pdfrwt beam="1">  1        2 0.48848622E-01 0.44824619E+03</pdfrwt>
<pdfrwt beam="2">  1       -2 0.20985766E-01 0.44824619E+03</pdfrwt>
<totfact> 0.20038074E+03</totfact>
</mgrwt>
</event>
<event>
 4    1  0.1383574E-004  0.3602323E+03  0.7818608E-02  0.1058492E+00
          2   -1    0    0  501    0  0.00000000000E+00  0.00000000000E+00  0.26794062573E+03  0.26794062574E+03  0.25500000000E-02 0.  1.
         -2   -1    0    0    0  501 -0.00000000000E+00 -0.00000000000E+00 -0.12107842622E+03  0.12107842625E+03  0.25500000000E-02 0. -1.
    5000001    1    1    2    0    0 -0.94378688936E+02  0.14289897138E+02 -0.18210654656E+02  0.15991299518E+03  0.12700000000E+03 0.  0.
   -5000001    1    1    2    0    0  0.94378688936E+02 -0.14289897138E+02  0.16507285416E+03  0.22910605681E+03  0.12700000000E+03 0.  0.
<mgrwt>
<rscale>  0 0.36023231E+03</rscale>
<asrwt>0</asrwt>
<pdfrwt beam="1">  1        2 0.38277232E-01 0.36023231E+03</pdfrwt>
<pdfrwt beam="2">  1       -2 0.17296918E-01 0.36023231E+03</pdfrwt>
<totfact> 0.36295806E+03</totfact>
</mgrwt>
</event>
<event>
 4    1  0.1383574E-004  0.4293742E+03  0.7818608E-02  0.1034058E+00
          2   -1    0    0  501    0  0.00000000000E+00  0.00000000000E+00  0.50948669557E+02  0.50948669621E+02  0.25500000000E-02 0.  1.
         -2   -1    0    0    0  501 -0.00000000000E+00 -0.00000000000E+00 -0.90464667591E+03  0.90464667591E+03  0.25500000000E-02 0. -1.
    5000001    1    1    2    0    0  0.84492770166E+02 -0.63588454367E+02 -0.12186670789E+03  0.20533634415E+03  0.12700000000E+03 0.  0.
   -5000001    1    1    2    0    0 -0.84492770166E+02  0.63588454367E+02 -0.73183129847E+03  0.75025900138E+03  0.12700000000E+03 0.  0.
<mgrwt>
<rscale>  0 0.42937417E+03</rscale>
<asrwt>0</asrwt>
<pdfrwt beam="1">  1        2 0.72783819E-02 0.42937417E+03</pdfrwt>
<pdfrwt beam="2">  1       -2 0.12923523E+00 0.42937417E+03</pdfrwt>
<totfact> 0.44678013E+02</totfact>
</mgrwt>
</event>
<event>
 4    1  0.1383574E-004  0.6410692E+03  0.7818608E-02  0.9823683E-01
         -2   -1    0    0    0  501 -0.00000000000E+00  0.00000000000E+00  0.18185750078E+03  0.18185750080E+03  0.25500000000E-02 0. -1.
          2   -1    0    0  501    0  0.00000000000E+00 -0.00000000000E+00 -0.56496119763E+03  0.56496119764E+03  0.25500000000E-02 0.  1.
    5000001    1    1    2    0    0  0.43931650640E+02 -0.28645304593E+03 -0.25127334946E+03  0.40404533607E+03  0.12700000000E+03 0.  0.
   -5000001    1    1    2    0    0 -0.43931650640E+02  0.28645304593E+03 -0.13183034738E+03  0.34277336236E+03  0.12700000000E+03 0.  0.
<mgrwt>
<rscale>  0 0.64106921E+03</rscale>
<asrwt>0</asrwt>
<pdfrwt beam="1">  1        2 0.80708741E-01 0.64106921E+03</pdfrwt>
<pdfrwt beam="2">  1       -2 0.25979643E-01 0.64106921E+03</pdfrwt>
<totfact> 0.78137750E+02</totfact>
</mgrwt>
</event>
<event>
 4    1  0.1383574E-004  0.6654474E+03  0.7818608E-02  0.9778217E-01
         -2   -1    0    0    0  501 -0.00000000000E+00  0.00000000000E+00  0.38879256511E+02  0.38879256595E+02  0.25500000000E-02 0. -1.
          2   -1    0    0  501    0  0.00000000000E+00 -0.00000000000E+00 -0.28474066210E+04  0.28474066210E+04  0.25500000000E-02 0.  1.
    5000001    1    1    2    0    0  0.70424079049E+02 -0.14848896181E+03 -0.27682054182E+03  0.34607388671E+03  0.12700000000E+03 0.  0.
   -5000001    1    1    2    0    0 -0.70424079049E+02  0.14848896181E+03 -0.25317068227E+04  0.25402119909E+04  0.12700000000E+03 0.  0.
<mgrwt>
<rscale>  0 0.66544738E+03</rscale>
<asrwt>0</asrwt>
<pdfrwt beam="1">  1        2 0.40677224E+00 0.66544738E+03</pdfrwt>
<pdfrwt beam="2">  1       -2 0.55541813E-02 0.66544738E+03</pdfrwt>
<totfact> 0.52783584E+02</totfact>
</mgrwt>
</event>
<event>
 4    1  0.1383574E-004  0.5334350E+03  0.7818608E-02  0.1005402E+00
         -2   -1    0    0    0  501 -0.00000000000E+00  0.00000000000E+00  0.22486997220E+02  0.22486997365E+02  0.25500000000E-02 0. -1.
          2   -1    0    0  501    0  0.00000000000E+00 -0.00000000000E+00 -0.31635276630E+04  0.31635276630E+04  0.25500000000E-02 0.  1.
    5000001    1    1    2    0    0 -0.16147888538E+03 -0.29614138344E+02 -0.57009340998E+03  0.60670250017E+03  0.12700000000E+03 0.  0.
   -5000001    1    1    2    0    0  0.16147888538E+03  0.29614138344E+02 -0.25709472558E+04  0.25793121602E+04  0.12700000000E+03 0.  0.
<mgrwt>
<rscale>  0 0.53343505E+03</rscale>
<asrwt>0</asrwt>
<pdfrwt beam="1">  1        2 0.45193224E+00 0.53343505E+03</pdfrwt>
<pdfrwt beam="2">  1       -2 0.32124302E-02 0.53343505E+03</pdfrwt>
<totfact> 0.83561745E+02</totfact>
</mgrwt>
</event>
<event>
 4    1  0.1383574E-004  0.6737257E+03  0.7818608E-02  0.9763251E-01
          2   -1    0    0  501    0  0.00000000000E+00  0.00000000000E+00  0.86839101860E+03  0.86839101860E+03  0.25500000000E-02 0.  1.
         -2   -1    0    0    0  501 -0.00000000000E+00 -0.00000000000E+00 -0.13067453759E+03  0.13067453762E+03  0.25500000000E-02 0. -1.
    5000001    1    1    2    0    0 -0.26965319066E+03  0.15010590750E+03  0.43686110199E+03  0.54974653171E+03  0.12700000000E+03 0.  0.
   -5000001    1    1    2    0    0  0.26965319066E+03 -0.15010590750E+03  0.30085537902E+03  0.44931902451E+03  0.12700000000E+03 0.  0.
<mgrwt>
<rscale>  0 0.67372574E+03</rscale>
<asrwt>0</asrwt>
<pdfrwt beam="1">  1        2 0.12405586E+00 0.67372574E+03</pdfrwt>
<pdfrwt beam="2">  1       -2 0.18667791E-01 0.67372574E+03</pdfrwt>
<totfact> 0.82428784E+02</totfact>
</mgrwt>
</event>
<event>
 4    1  0.1383574E-004  0.3147519E+03  0.7818608E-02  0.1078090E+00
          2   -1    0    0  501    0  0.00000000000E+00  0.00000000000E+00  0.39118373646E+03  0.39118373647E+03  0.25500000000E-02 0.  1.
         -2   -1    0    0    0  501 -0.00000000000E+00 -0.00000000000E+00 -0.63313459431E+02  0.63313459482E+02  0.25500000000E-02 0. -1.
    5000001    1    1    2    0    0 -0.58119660011E+01 -0.15758505568E+02  0.29593219625E+03  0.32247011369E+03  0.12700000000E+03 0.  0.
   -5000001    1    1    2    0    0  0.58119660011E+01  0.15758505568E+02  0.31938080782E+02  0.13202708226E+03  0.12700000000E+03 0.  0.
<mgrwt>
<rscale>  0 0.31475194E+03</rscale>
<asrwt>0</asrwt>
<pdfrwt beam="1">  1        2 0.55883393E-01 0.31475194E+03</pdfrwt>
<pdfrwt beam="2">  1       -2 0.90447796E-02 0.31475194E+03</pdfrwt>
<totfact> 0.69091414E+03</totfact>
</mgrwt>
</event>
<event>
 4    1  0.1383574E-004  0.4594940E+03  0.7818608E-02  0.1024928E+00
         -2   -1    0    0    0  501 -0.00000000000E+00  0.00000000000E+00  0.94062761262E+03  0.94062761262E+03  0.25500000000E-02 0. -1.
          2   -1    0    0  501    0  0.00000000000E+00 -0.00000000000E+00 -0.56115385651E+02  0.56115385709E+02  0.25500000000E-02 0.  1.
    5000001    1    1    2    0    0  0.17542027878E+03 -0.61045528251E+02  0.34153681674E+03  0.40899294360E+03  0.12700000000E+03 0.  0.
   -5000001    1    1    2    0    0 -0.17542027878E+03  0.61045528251E+02  0.54297541023E+03  0.58775005473E+03  0.12700000000E+03 0.  0.
<mgrwt>
<rscale>  0 0.45949399E+03</rscale>
<asrwt>0</asrwt>
<pdfrwt beam="1">  1        2 0.80164841E-02 0.45949399E+03</pdfrwt>
<pdfrwt beam="2">  1       -2 0.13437537E+00 0.45949399E+03</pdfrwt>
<totfact> 0.35741907E+02</totfact>
</mgrwt>
</event>
<event>
 4    1  0.1383574E-004  0.3577007E+03  0.7818608E-02  0.1059498E+00
         -2   -1    0    0    0  501 -0.00000000000E+00  0.00000000000E+00  0.54935369829E+02  0.54935369888E+02  0.25500000000E-02 0. -1.
          2   -1    0    0  501    0  0.00000000000E+00 -0.00000000000E+00 -0.58227422541E+03  0.58227422542E+03  0.25500000000E-02 0.  1.
    5000001    1    1    2    0    0 -0.16140945762E+02  0.12489044550E+03 -0.26269953769E+03  0.31780214066E+03  0.12700000000E+03 0.  0.
   -5000001    1    1    2    0    0  0.16140945762E+02 -0.12489044550E+03 -0.26463931789E+03  0.31940745464E+03  0.12700000000E+03 0.  0.
<mgrwt>
<rscale>  0 0.35770071E+03</rscale>
<asrwt>0</asrwt>
<pdfrwt beam="1">  1        2 0.83182029E-01 0.35770071E+03</pdfrwt>
<pdfrwt beam="2">  1       -2 0.78479103E-02 0.35770071E+03</pdfrwt>
<totfact> 0.55767286E+03</totfact>
</mgrwt>
</event>
<event>
 4    1  0.1383574E-004  0.5429359E+03  0.7818608E-02  0.1003142E+00
         -2   -1    0    0    0  501 -0.00000000000E+00  0.00000000000E+00  0.40763571345E+03  0.40763571346E+03  0.25500000000E-02 0. -1.
          2   -1    0    0  501    0  0.00000000000E+00 -0.00000000000E+00 -0.18078605471E+03  0.18078605473E+03  0.25500000000E-02 0.  1.
    5000001    1    1    2    0    0 -0.20878982772E+03  0.94299543244E+02  0.19067206978E+03  0.32399141070E+03  0.12700000000E+03 0.  0.
   -5000001    1    1    2    0    0  0.20878982772E+03 -0.94299543244E+02  0.36177588957E+02  0.26443035748E+03  0.12700000000E+03 0.  0.
<mgrwt>
<rscale>  0 0.54293592E+03</rscale>
<asrwt>0</asrwt>
<pdfrwt beam="1">  1        2 0.25826579E-01 0.54293592E+03</pdfrwt>
<pdfrwt beam="2">  1       -2 0.58233673E-01 0.54293592E+03</pdfrwt>
<totfact> 0.58657620E+02</totfact>
</mgrwt>
</event>
<event>
 4    1  0.1383574E-004  0.3770518E+03  0.7818608E-02  0.1052029E+00
          2   -1    0    0  501    0  0.00000000000E+00  0.00000000000E+00  0.10653154519E+04  0.10653154519E+04  0.25500000000E-02 0. -1.
         -2   -1    0    0    0  501 -0.00000000000E+00 -0.00000000000E+00 -0.33362909795E+02  0.33362909892E+02  0.25500000000E-02 0.  1.
    5000001    1    1    2    0    0  0.52747756750E+02 -0.12597644375E+03  0.59633945387E+03  0.62482168213E+03  0.12700000000E+03 0.  0.
   -5000001    1    1    2    0    0 -0.52747756750E+02  0.12597644375E+03  0.43561308826E+03  0.47385667968E+03  0.12700000000E+03 0.  0.
<mgrwt>
<rscale>  0 0.37705184E+03</rscale>
<asrwt>0</asrwt>
<pdfrwt beam="1">  1        2 0.15218791E+00 0.37705184E+03</pdfrwt>
<pdfrwt beam="2">  1       -2 0.47661303E-02 0.37705184E+03</pdfrwt>
<totfact> 0.56492735E+03</totfact>
</mgrwt>
</event>
<event>
 4    1  0.1383574E-004  0.3962544E+03  0.7818608E-02  0.1045084E+00
          2   -1    0    0  501    0  0.00000000000E+00  0.00000000000E+00  0.74321815606E+03  0.74321815607E+03  0.25500000000E-02 0.  1.
         -2   -1    0    0    0  501 -0.00000000000E+00 -0.00000000000E+00 -0.52816789456E+02  0.52816789518E+02  0.25500000000E-02 0. -1.
    5000001    1    1    2    0    0 -0.12352901198E+03 -0.88524052235E+02  0.35610666525E+03  0.40747623448E+03  0.12700000000E+03 0.  0.
   -5000001    1    1    2    0    0  0.12352901198E+03  0.88524052235E+02  0.33429470135E+03  0.38855871111E+03  0.12700000000E+03 0.  0.
<mgrwt>
<rscale>  0 0.39625445E+03</rscale>
<asrwt>0</asrwt>
<pdfrwt beam="1">  1        2 0.10617402E+00 0.39625445E+03</pdfrwt>
<pdfrwt beam="2">  1       -2 0.75452560E-02 0.39625445E+03</pdfrwt>
<totfact> 0.44533656E+03</totfact>
</mgrwt>
</event>
<event>
 4    1  0.1383574E-004  0.3792208E+03  0.7818608E-02  0.1051222E+00
          2   -1    0    0  501    0  0.00000000000E+00  0.00000000000E+00  0.86566111911E+03  0.86566111912E+03  0.25500000000E-02 0.  1.
         -2   -1    0    0    0  501 -0.00000000000E+00 -0.00000000000E+00 -0.41531390368E+02  0.41531390446E+02  0.25500000000E-02 0. -1.
    5000001    1    1    2    0    0 -0.83813222653E+01 -0.13864981149E+03  0.46709154590E+03  0.50358467912E+03  0.12700000000E+03 0.  0.
   -5000001    1    1    2    0    0  0.83813222653E+01  0.13864981149E+03  0.35703818284E+03  0.40360783044E+03  0.12700000000E+03 0.  0.
<mgrwt>
<rscale>  0 0.37922083E+03</rscale>
<asrwt>0</asrwt>
<pdfrwt beam="1">  1        2 0.12366587E+00 0.37922083E+03</pdfrwt>
<pdfrwt beam="2">  1       -2 0.59330562E-02 0.37922083E+03</pdfrwt>
<totfact> 0.53427035E+03</totfact>
</mgrwt>
</event>
<event>
 4    1  0.1383574E-004  0.2745992E+03  0.7818608E-02  0.1098676E+00
         -2   -1    0    0    0  501 -0.00000000000E+00  0.00000000000E+00  0.51914493292E+02  0.51914493354E+02  0.25500000000E-02 0. -1.
          2   -1    0    0  501    0  0.00000000000E+00 -0.00000000000E+00 -0.36311987262E+03  0.36311987262E+03  0.25500000000E-02 0.  1.
    5000001    1    1    2    0    0  0.41472093424E+02 -0.15011749826E+02 -0.11347511295E+03  0.17592864583E+03  0.12700000000E+03 0.  0.
   -5000001    1    1    2    0    0 -0.41472093424E+02  0.15011749826E+02 -0.19773026637E+03  0.23910572015E+03  0.12700000000E+03 0.  0.
<mgrwt>
<rscale>  0 0.27459923E+03</rscale>
<asrwt>0</asrwt>
<pdfrwt beam="1">  1        2 0.51874266E-01 0.27459923E+03</pdfrwt>
<pdfrwt beam="2">  1       -2 0.74163564E-02 0.27459923E+03</pdfrwt>
<totfact> 0.10170470E+04</totfact>
</mgrwt>
</event>
<event>
 4    1  0.1383574E-004  0.3041171E+03  0.7818608E-02  0.1083200E+00
          2   -1    0    0  501    0  0.00000000000E+00  0.00000000000E+00  0.12356385242E+04  0.12356385242E+04  0.25500000000E-02 0.  1.
         -2   -1    0    0    0  501 -0.00000000000E+00 -0.00000000000E+00 -0.18712435430E+02  0.18712435604E+02  0.25500000000E-02 0. -1.
    5000001    1    1    2    0    0 -0.29223919439E+00  0.53986937466E+02  0.87185881622E+03  0.88271256378E+03  0.12700000000E+03 0.  0.
   -5000001    1    1    2    0    0  0.29223919439E+00 -0.53986937466E+02  0.34506727252E+03  0.37163839601E+03  0.12700000000E+03 0.  0.
<mgrwt>
<rscale>  0 0.30411712E+03</rscale>
<asrwt>0</asrwt>
<pdfrwt beam="1">  1        2 0.17651977E+00 0.30411712E+03</pdfrwt>
<pdfrwt beam="2">  1       -2 0.26732054E-02 0.30411712E+03</pdfrwt>
<totfact> 0.10802249E+04</totfact>
</mgrwt>
</event>
<event>
 4    1  0.1383574E-004  0.2871728E+03  0.7818608E-02  0.1091835E+00
         -2   -1    0    0    0  501 -0.00000000000E+00  0.00000000000E+00  0.76353148964E+01  0.76353153222E+01  0.25500000000E-02 0. -1.
          2   -1    0    0  501    0  0.00000000000E+00 -0.00000000000E+00 -0.27002233400E+04  0.27002233400E+04  0.25500000000E-02 0.  1.
    5000001    1    1    2    0    0  0.43782025765E+02 -0.43004478995E+02 -0.15996275197E+04  0.16058341921E+04  0.12700000000E+03 0.  0.
   -5000001    1    1    2    0    0 -0.43782025765E+02  0.43004478995E+02 -0.10929605054E+04  0.11020244632E+04  0.12700000000E+03 0.  0.
<mgrwt>
<rscale>  0 0.28717281E+03</rscale>
<asrwt>0</asrwt>
<pdfrwt beam="1">  1        2 0.38574558E+00 0.28717281E+03</pdfrwt>
<pdfrwt beam="2">  1       -2 0.10907610E-02 0.28717281E+03</pdfrwt>
<totfact> 0.74668441E+03</totfact>
</mgrwt>
</event>
<event>
 4    1  0.1383574E-004  0.3821431E+03  0.7818608E-02  0.1050144E+00
          2   -1    0    0  501    0  0.00000000000E+00  0.00000000000E+00  0.15523159275E+04  0.15523159275E+04  0.25500000000E-02 0.  1.
         -2   -1    0    0    0  501 -0.00000000000E+00 -0.00000000000E+00 -0.23518628524E+02  0.23518628662E+02  0.25500000000E-02 0. -1.
    5000001    1    1    2    0    0 -0.68516450858E+02 -0.78921529307E+02  0.11653979198E+04  0.11769470776E+04  0.12700000000E+03 0.  0.
   -5000001    1    1    2    0    0  0.68516450858E+02  0.78921529307E+02  0.36339937916E+03  0.39888747862E+03  0.12700000000E+03 0.  0.
<mgrwt>
<rscale>  0 0.38214312E+03</rscale>
<asrwt>0</asrwt>
<pdfrwt beam="1">  1        2 0.22175943E+00 0.38214312E+03</pdfrwt>
<pdfrwt beam="2">  1       -2 0.33598038E-02 0.38214312E+03</pdfrwt>
<totfact> 0.52648532E+03</totfact>
</mgrwt>
</event>
<event>
 4    1  0.1383574E-004  0.4950309E+03  0.7818608E-02  0.1015084E+00
         -2   -1    0    0    0  501 -0.00000000000E+00  0.00000000000E+00  0.28424709990E+03  0.28424709992E+03  0.25500000000E-02 0. -1.
          2   -1    0    0  501    0  0.00000000000E+00 -0.00000000000E+00 -0.21553041948E+03  0.21553041949E+03  0.25500000000E-02 0.  1.
    5000001    1    1    2    0    0  0.15854076006E+03 -0.13024736402E+03 -0.21263925566E+02  0.24224100182E+03  0.12700000000E+03 0.  0.
   -5000001    1    1    2    0    0 -0.15854076006E+03  0.13024736402E+03  0.89980605993E+02  0.25753651758E+03  0.12700000000E+03 0.  0.
<mgrwt>
<rscale>  0 0.49503089E+03</rscale>
<asrwt>0</asrwt>
<pdfrwt beam="1">  1        2 0.30790060E-01 0.49503089E+03</pdfrwt>
<pdfrwt beam="2">  1       -2 0.40606729E-01 0.49503089E+03</pdfrwt>
<totfact> 0.99381477E+02</totfact>
</mgrwt>
</event>
<event>
 4    1  0.1383574E-004  0.4197188E+03  0.7818608E-02  0.1037158E+00
         -2   -1    0    0    0  501 -0.00000000000E+00  0.00000000000E+00  0.24933366017E+02  0.24933366147E+02  0.25500000000E-02 0. -1.
          2   -1    0    0  501    0  0.00000000000E+00 -0.00000000000E+00 -0.17663463028E+04  0.17663463028E+04  0.25500000000E-02 0.  1.
    5000001    1    1    2    0    0 -0.13358301229E+03 -0.93360519829E+02 -0.10275942519E+04  0.10481600806E+04  0.12700000000E+03 0.  0.
   -5000001    1    1    2    0    0  0.13358301229E+03  0.93360519829E+02 -0.71381868487E+03  0.74311958842E+03  0.12700000000E+03 0.  0.
<mgrwt>
<rscale>  0 0.41971876E+03</rscale>
<asrwt>0</asrwt>
<pdfrwt beam="1">  1        2 0.25233511E+00 0.41971876E+03</pdfrwt>
<pdfrwt beam="2">  1       -2 0.35619105E-02 0.41971876E+03</pdfrwt>
<totfact> 0.37615738E+03</totfact>
</mgrwt>
</event>
<event>
 4    1  0.1383574E-004  0.1353835E+04  0.7818608E-02  0.8987930E-01
          2   -1    0    0  501    0  0.00000000000E+00  0.00000000000E+00  0.14335610454E+04  0.14335610454E+04  0.25500000000E-02 0.  1.
         -2   -1    0    0    0  501 -0.00000000000E+00 -0.00000000000E+00 -0.31963548168E+03  0.31963548169E+03  0.25500000000E-02 0. -1.
    5000001    1    1    2    0    0 -0.46826351607E+02  0.57023975908E+03  0.99558250508E+03  0.11552833481E+04  0.12700000000E+03 0.  0.
   -5000001    1    1    2    0    0  0.46826351607E+02 -0.57023975908E+03  0.11834305862E+03  0.59791317895E+03  0.12700000000E+03 0.  0.
<mgrwt>
<rscale>  0 0.13538345E+04</rscale>
<asrwt>0</asrwt>
<pdfrwt beam="1">  1        2 0.20479444E+00 0.13538345E+04</pdfrwt>
<pdfrwt beam="2">  1       -2 0.45662211E-01 0.13538345E+04</pdfrwt>
<totfact> 0.70500228E+01</totfact>
</mgrwt>
</event>
<event>
 4    1  0.1383574E-004  0.4593084E+03  0.7818608E-02  0.1024982E+00
          2   -1    0    0  501    0  0.00000000000E+00  0.00000000000E+00  0.19575421114E+04  0.19575421114E+04  0.25500000000E-02 0.  1.
         -2   -1    0    0    0  501 -0.00000000000E+00 -0.00000000000E+00 -0.26942483786E+02  0.26942483906E+02  0.25500000000E-02 0. -1.
    5000001    1    1    2    0    0 -0.16369878723E+03  0.57908520451E+02  0.13126001741E+04  0.13301123662E+04  0.12700000000E+03 0.  0.
   -5000001    1    1    2    0    0  0.16369878723E+03 -0.57908520451E+02  0.61799945357E+03  0.65437222916E+03  0.12700000000E+03 0.  0.
<mgrwt>
<rscale>  0 0.45930838E+03</rscale>
<asrwt>0</asrwt>
<pdfrwt beam="1">  1        2 0.27964879E+00 0.45930838E+03</pdfrwt>
<pdfrwt beam="2">  1       -2 0.38489274E-02 0.45930838E+03</pdfrwt>
<totfact> 0.26829880E+03</totfact>
</mgrwt>
</event>
<event>
 4    1  0.1383574E-004  0.4916951E+03  0.7818608E-02  0.1015970E+00
         -2   -1    0    0    0  501 -0.00000000000E+00  0.00000000000E+00  0.91729605713E+03  0.91729605713E+03  0.25500000000E-02 0. -1.
          2   -1    0    0  501    0  0.00000000000E+00 -0.00000000000E+00 -0.65890408401E+02  0.65890408450E+02  0.25500000000E-02 0.  1.
    5000001    1    1    2    0    0 -0.20818530562E+03 -0.29818185509E+02  0.44378401028E+03  0.50725091764E+03  0.12700000000E+03 0.  0.
   -5000001    1    1    2    0    0  0.20818530562E+03  0.29818185509E+02  0.40762163844E+03  0.47593554794E+03  0.12700000000E+03 0.  0.
<mgrwt>
<rscale>  0 0.49169508E+03</rscale>
<asrwt>0</asrwt>
<pdfrwt beam="1">  1        2 0.94129165E-02 0.49169508E+03</pdfrwt>
<pdfrwt beam="2">  1       -2 0.13104228E+00 0.49169508E+03</pdfrwt>
<totfact> 0.30981471E+02</totfact>
</mgrwt>
</event>
<event>
 4    1  0.1383574E-004  0.1627687E+04  0.7818608E-02  0.8803717E-01
          2   -1    0    0  501    0  0.00000000000E+00  0.00000000000E+00  0.43262575615E+04  0.43262575615E+04  0.25500000000E-02 0.  1.
         -2   -1    0    0    0  501 -0.00000000000E+00 -0.00000000000E+00 -0.15309791188E+03  0.15309791190E+03  0.25500000000E-02 0. -1.
    5000001    1    1    2    0    0  0.73855621667E+03  0.87898876776E+02  0.29259123470E+04  0.30216359079E+04  0.12700000000E+03 0.  0.
   -5000001    1    1    2    0    0 -0.73855621667E+03 -0.87898876776E+02  0.12472473027E+04  0.14577195655E+04  0.12700000000E+03 0.  0.
<mgrwt>
<rscale>  0 0.16276867E+04</rscale>
<asrwt>0</asrwt>
<pdfrwt beam="1">  1        2 0.61803674E+00 0.16276867E+04</pdfrwt>
<pdfrwt beam="2">  1       -2 0.21871132E-01 0.16276867E+04</pdfrwt>
<totfact> 0.59082518E+00</totfact>
</mgrwt>
</event>
<event>
 4    1  0.1383574E-004  0.3032038E+03  0.7818608E-02  0.1083650E+00
         -2   -1    0    0    0  501 -0.00000000000E+00  0.00000000000E+00  0.45719108737E+02  0.45719108808E+02  0.25500000000E-02 0. -1.
          2   -1    0    0  501    0  0.00000000000E+00 -0.00000000000E+00 -0.50270290914E+03  0.50270290915E+03  0.25500000000E-02 0.  1.
    5000001    1    1    2    0    0  0.23051869189E+02 -0.70585417812E+02 -0.16226966213E+03  0.21902998226E+03  0.12700000000E+03 0.  0.
   -5000001    1    1    2    0    0 -0.23051869189E+02  0.70585417812E+02 -0.29471413828E+03  0.32939203570E+03  0.12700000000E+03 0.  0.
<mgrwt>
<rscale>  0 0.30320375E+03</rscale>
<asrwt>0</asrwt>
<pdfrwt beam="1">  1        2 0.71814698E-01 0.30320375E+03</pdfrwt>
<pdfrwt beam="2">  1       -2 0.65313015E-02 0.30320375E+03</pdfrwt>
<totfact> 0.87198935E+03</totfact>
</mgrwt>
</event>
<event>
 4    1  0.1383574E-004  0.2932411E+03  0.7818608E-02  0.1088669E+00
          2   -1    0    0  501    0  0.00000000000E+00  0.00000000000E+00  0.17234596942E+04  0.17234596942E+04  0.25500000000E-02 0.  1.
         -2   -1    0    0    0  501 -0.00000000000E+00 -0.00000000000E+00 -0.12473509838E+02  0.12473510099E+02  0.25500000000E-02 0. -1.
    5000001    1    1    2    0    0  0.63006488895E+02 -0.49051752375E+01  0.63600337666E+03  0.65163116371E+03  0.12700000000E+03 0.  0.
   -5000001    1    1    2    0    0 -0.63006488895E+02  0.49051752375E+01  0.10749828077E+04  0.10843020406E+04  0.12700000000E+03 0.  0.
<mgrwt>
<rscale>  0 0.29324114E+03</rscale>
<asrwt>0</asrwt>
<pdfrwt beam="1">  1        2 0.24620839E+00 0.29324114E+03</pdfrwt>
<pdfrwt beam="2">  1       -2 0.17819310E-02 0.29324114E+03</pdfrwt>
<totfact> 0.11072396E+04</totfact>
</mgrwt>
</event>
<event>
 4    1  0.1383574E-004  0.3506920E+03  0.7818608E-02  0.1062331E+00
          2   -1    0    0  501    0  0.00000000000E+00  0.00000000000E+00  0.10425131547E+03  0.10425131551E+03  0.25500000000E-02 0.  1.
         -2   -1    0    0    0  501 -0.00000000000E+00 -0.00000000000E+00 -0.29492411500E+03  0.29492411501E+03  0.25500000000E-02 0. -1.
    5000001    1    1    2    0    0 -0.11002070848E+03 -0.43725920752E+02 -0.67438471209E+02  0.18626180456E+03  0.12700000000E+03 0.  0.
   -5000001    1    1    2    0    0  0.11002070848E+03  0.43725920752E+02 -0.12323432832E+03  0.21291362595E+03  0.12700000000E+03 0.  0.
<mgrwt>
<rscale>  0 0.35069204E+03</rscale>
<asrwt>0</asrwt>
<pdfrwt beam="1">  1        2 0.14893045E-01 0.35069204E+03</pdfrwt>
<pdfrwt beam="2">  1       -2 0.42132016E-01 0.35069204E+03</pdfrwt>
<totfact> 0.21292394E+03</totfact>
</mgrwt>
</event>
<event>
 4    1  0.1383574E-004  0.6000731E+03  0.7818608E-02  0.9905254E-01
          2   -1    0    0  501    0  0.00000000000E+00  0.00000000000E+00  0.15874576749E+04  0.15874576749E+04  0.25500000000E-02 0.  1.
         -2   -1    0    0    0  501 -0.00000000000E+00 -0.00000000000E+00 -0.56708248508E+02  0.56708248566E+02  0.25500000000E-02 0. -1.
    5000001    1    1    2    0    0  0.73529563121E+02 -0.18705774312E+03  0.26391471360E+03  0.35521426206E+03  0.12700000000E+03 0.  0.
   -5000001    1    1    2    0    0 -0.73529563121E+02  0.18705774312E+03  0.12668347128E+04  0.12889516614E+04  0.12700000000E+03 0.  0.
<mgrwt>
<rscale>  0 0.60007314E+03</rscale>
<asrwt>0</asrwt>
<pdfrwt beam="1">  1        2 0.22677969E+00 0.60007314E+03</pdfrwt>
<pdfrwt beam="2">  1       -2 0.81011774E-02 0.60007314E+03</pdfrwt>
<totfact> 0.12879411E+03</totfact>
</mgrwt>
</event>
<event>
 4    1  0.1383574E-004  0.2721539E+03  0.7818608E-02  0.1100053E+00
         -2   -1    0    0    0  501 -0.00000000000E+00  0.00000000000E+00  0.24950179807E+02  0.24950179937E+02  0.25500000000E-02 0. -1.
          2   -1    0    0  501    0  0.00000000000E+00 -0.00000000000E+00 -0.74215633194E+03  0.74215633194E+03  0.25500000000E-02 0.  1.
    5000001    1    1    2    0    0 -0.12796385967E+02 -0.45387591716E+02 -0.39471624091E+03  0.41731725559E+03  0.12700000000E+03 0.  0.
   -5000001    1    1    2    0    0  0.12796385967E+02  0.45387591716E+02 -0.32248991122E+03  0.34978925629E+03  0.12700000000E+03 0.  0.
<mgrwt>
<rscale>  0 0.27215388E+03</rscale>
<asrwt>0</asrwt>
<pdfrwt beam="1">  1        2 0.10602232E+00 0.27215388E+03</pdfrwt>
<pdfrwt beam="2">  1       -2 0.35643119E-02 0.27215388E+03</pdfrwt>
<totfact> 0.13914913E+04</totfact>
</mgrwt>
</event>
<event>
 4    1  0.1383574E-004  0.3042366E+03  0.7818608E-02  0.1083142E+00
          2   -1    0    0  501    0  0.00000000000E+00  0.00000000000E+00  0.69206116327E+03  0.69206116328E+03  0.25500000000E-02 0.  1.
         -2   -1    0    0    0  501 -0.00000000000E+00 -0.00000000000E+00 -0.33436319971E+02  0.33436320068E+02  0.25500000000E-02 0. -1.
    5000001    1    1    2    0    0  0.11889392139E+02  0.82381620918E+02  0.35102312994E+03  0.38245826814E+03  0.12700000000E+03 0.  0.
   -5000001    1    1    2    0    0 -0.11889392139E+02 -0.82381620918E+02  0.30760171336E+03  0.34303921521E+03  0.12700000000E+03 0.  0.
<mgrwt>
<rscale>  0 0.30423661E+03</rscale>
<asrwt>0</asrwt>
<pdfrwt beam="1">  1        2 0.98865880E-01 0.30423661E+03</pdfrwt>
<pdfrwt beam="2">  1       -2 0.47766172E-02 0.30423661E+03</pdfrwt>
<totfact> 0.97696889E+03</totfact>
</mgrwt>
</event>
<event>
 4    1  0.1383574E-004  0.7442167E+03  0.7818608E-02  0.9644467E-01
          2   -1    0    0  501    0  0.00000000000E+00  0.00000000000E+00  0.16658419657E+04  0.16658419657E+04  0.25500000000E-02 0.  1.
         -2   -1    0    0    0  501 -0.00000000000E+00 -0.00000000000E+00 -0.83119903395E+02  0.83119903434E+02  0.25500000000E-02 0. -1.
    5000001    1    1    2    0    0  0.34323747159E+03 -0.65594009489E+02  0.82630424464E+03  0.90610277601E+03  0.12700000000E+03 0.  0.
   -5000001    1    1    2    0    0 -0.34323747159E+03  0.65594009489E+02  0.75641781763E+03  0.84285909310E+03  0.12700000000E+03 0.  0.
<mgrwt>
<rscale>  0 0.74421670E+03</rscale>
<asrwt>0</asrwt>
<pdfrwt beam="1">  1        2 0.23797741E+00 0.74421670E+03</pdfrwt>
<pdfrwt beam="2">  1       -2 0.11874273E-01 0.74421670E+03</pdfrwt>
<totfact> 0.62696020E+02</totfact>
</mgrwt>
</event>
<event>
 4    1  0.1383574E-004  0.3409546E+03  0.7818608E-02  0.1066390E+00
          2   -1    0    0  501    0  0.00000000000E+00  0.00000000000E+00  0.17171567277E+04  0.17171567277E+04  0.25500000000E-02 0.  1.
         -2   -1    0    0    0  501 -0.00000000000E+00 -0.00000000000E+00 -0.16924783681E+02  0.16924783873E+02  0.25500000000E-02 0. -1.
    5000001    1    1    2    0    0  0.13293001304E+01 -0.11359138541E+03  0.82285197309E+03  0.84030895479E+03  0.12700000000E+03 0.  0.
   -5000001    1    1    2    0    0 -0.13293001304E+01  0.11359138541E+03  0.87737997090E+03  0.89377255676E+03  0.12700000000E+03 0.  0.
<mgrwt>
<rscale>  0 0.34095458E+03</rscale>
<asrwt>0</asrwt>
<pdfrwt beam="1">  1        2 0.24530816E+00 0.34095458E+03</pdfrwt>
<pdfrwt beam="2">  1       -2 0.24178257E-02 0.34095458E+03</pdfrwt>
<totfact> 0.71170786E+03</totfact>
</mgrwt>
</event>
<event>
 4    1  0.1383574E-004  0.4241548E+03  0.7818608E-02  0.1035723E+00
         -2   -1    0    0    0  501 -0.00000000000E+00  0.00000000000E+00  0.55235482987E+02  0.55235483046E+02  0.25500000000E-02 0. -1.
          2   -1    0    0  501    0  0.00000000000E+00 -0.00000000000E+00 -0.81427398238E+03  0.81427398239E+03  0.25500000000E-02 0.  1.
    5000001    1    1    2    0    0 -0.10301442981E+03  0.94238171619E+02 -0.57779614599E+03  0.60784059757E+03  0.12700000000E+03 0.  0.
   -5000001    1    1    2    0    0  0.10301442981E+03 -0.94238171619E+02 -0.18124235341E+03  0.26166886786E+03  0.12700000000E+03 0.  0.
<mgrwt>
<rscale>  0 0.42415477E+03</rscale>
<asrwt>0</asrwt>
<pdfrwt beam="1">  1        2 0.11632485E+00 0.42415477E+03</pdfrwt>
<pdfrwt beam="2">  1       -2 0.78907838E-02 0.42415477E+03</pdfrwt>
<totfact> 0.37069307E+03</totfact>
</mgrwt>
</event>
<event>
 4    1  0.1383574E-004  0.3941762E+03  0.7818608E-02  0.1045815E+00
         -2   -1    0    0    0  501 -0.00000000000E+00  0.00000000000E+00  0.22954348699E+02  0.22954348841E+02  0.25500000000E-02 0. -1.
          2   -1    0    0  501    0  0.00000000000E+00 -0.00000000000E+00 -0.16922163358E+04  0.16922163358E+04  0.25500000000E-02 0.  1.
    5000001    1    1    2    0    0 -0.87833422186E+02  0.34968135447E+01 -0.30192735313E+03  0.33914018388E+03  0.12700000000E+03 0.  0.
   -5000001    1    1    2    0    0  0.87833422186E+02 -0.34968135447E+01 -0.13673346340E+04  0.13760305008E+04  0.12700000000E+03 0.  0.
<mgrwt>
<rscale>  0 0.39417622E+03</rscale>
<asrwt>0</asrwt>
<pdfrwt beam="1">  1        2 0.24174511E+00 0.39417622E+03</pdfrwt>
<pdfrwt beam="2">  1       -2 0.32791938E-02 0.39417622E+03</pdfrwt>
<totfact> 0.46430737E+03</totfact>
</mgrwt>
</event>
<event>
 4    1  0.1383574E-004  0.4503756E+03  0.7818608E-02  0.1027610E+00
         -2   -1    0    0    0  501 -0.00000000000E+00  0.00000000000E+00  0.83210080186E+02  0.83210080225E+02  0.25500000000E-02 0. -1.
          2   -1    0    0  501    0  0.00000000000E+00 -0.00000000000E+00 -0.60941585262E+03  0.60941585262E+03  0.25500000000E-02 0.  1.
    5000001    1    1    2    0    0 -0.16503063971E+03  0.70264731113E+02 -0.33857369005E+03  0.40365008123E+03  0.12700000000E+03 0.  0.
   -5000001    1    1    2    0    0  0.16503063971E+03 -0.70264731113E+02 -0.18763208238E+03  0.28897585162E+03  0.12700000000E+03 0.  0.
<mgrwt>
<rscale>  0 0.45037559E+03</rscale>
<asrwt>0</asrwt>
<pdfrwt beam="1">  1        2 0.87059405E-01 0.45037559E+03</pdfrwt>
<pdfrwt beam="2">  1       -2 0.11887155E-01 0.45037559E+03</pdfrwt>
<totfact> 0.27317598E+03</totfact>
</mgrwt>
</event>
<event>
 4    1  0.1383574E-004  0.3740549E+03  0.7818608E-02  0.1053153E+00
          2   -1    0    0  501    0  0.00000000000E+00  0.00000000000E+00  0.90855743813E+02  0.90855743849E+02  0.25500000000E-02 0.  1.
         -2   -1    0    0    0  501 -0.00000000000E+00 -0.00000000000E+00 -0.38499795654E+03  0.38499795655E+03  0.25500000000E-02 0. -1.
    5000001    1    1    2    0    0 -0.31730018448E+02  0.10385926063E+03 -0.40205003364E+02  0.17186908502E+03  0.12700000000E+03 0.  0.
   -5000001    1    1    2    0    0  0.31730018448E+02 -0.10385926063E+03 -0.25393720937E+03  0.30398461538E+03  0.12700000000E+03 0.  0.
<mgrwt>
<rscale>  0 0.37405495E+03</rscale>
<asrwt>0</asrwt>
<pdfrwt beam="1">  1        2 0.12979392E-01 0.37405495E+03</pdfrwt>
<pdfrwt beam="2">  1       -2 0.54999707E-01 0.37405495E+03</pdfrwt>
<totfact> 0.14796486E+03</totfact>
</mgrwt>
</event>
<event>
 4    1  0.1383574E-004  0.3864336E+03  0.7818608E-02  0.1048581E+00
          2   -1    0    0  501    0  0.00000000000E+00  0.00000000000E+00  0.73322499440E+03  0.73322499441E+03  0.25500000000E-02 0.  1.
         -2   -1    0    0    0  501 -0.00000000000E+00 -0.00000000000E+00 -0.50915779481E+02  0.50915779545E+02  0.25500000000E-02 0. -1.
    5000001    1    1    2    0    0  0.92299127571E+02  0.10673261411E+03  0.26819622615E+03  0.32858666374E+03  0.12700000000E+03 0.  0.
   -5000001    1    1    2    0    0 -0.92299127571E+02 -0.10673261411E+03  0.41411298877E+03  0.45555411022E+03  0.12700000000E+03 0.  0.
<mgrwt>
<rscale>  0 0.38643355E+03</rscale>
<asrwt>0</asrwt>
<pdfrwt beam="1">  1        2 0.10474643E+00 0.38643355E+03</pdfrwt>
<pdfrwt beam="2">  1       -2 0.72736829E-02 0.38643355E+03</pdfrwt>
<totfact> 0.47936467E+03</totfact>
</mgrwt>
</event>
<event>
 4    1  0.1383574E-004  0.6764224E+03  0.7818608E-02  0.9758425E-01
         -2   -1    0    0    0  501 -0.00000000000E+00  0.00000000000E+00  0.54265329657E+02  0.54265329717E+02  0.25500000000E-02 0. -1.
          2   -1    0    0  501    0  0.00000000000E+00 -0.00000000000E+00 -0.21079170595E+04  0.21079170595E+04  0.25500000000E-02 0.  1.
    5000001    1    1    2    0    0  0.26141018359E+03  0.73516548582E+02 -0.52631268890E+03  0.60570125763E+03  0.12700000000E+03 0.  0.
   -5000001    1    1    2    0    0 -0.26141018359E+03 -0.73516548582E+02 -0.15273390410E+04  0.15564811316E+04  0.12700000000E+03 0.  0.
<mgrwt>
<rscale>  0 0.67642240E+03</rscale>
<asrwt>0</asrwt>
<pdfrwt beam="1">  1        2 0.30113096E+00 0.67642240E+03</pdfrwt>
<pdfrwt beam="2">  1       -2 0.77521912E-02 0.67642240E+03</pdfrwt>
<totfact> 0.74999842E+02</totfact>
</mgrwt>
</event>
<event>
 4    1  0.1383574E-004  0.4285123E+03  0.7818608E-02  0.1034331E+00
          2   -1    0    0  501    0  0.00000000000E+00  0.00000000000E+00  0.27492025185E+02  0.27492025303E+02  0.25500000000E-02 0.  1.
         -2   -1    0    0    0  501 -0.00000000000E+00 -0.00000000000E+00 -0.16697819473E+04  0.16697819473E+04  0.25500000000E-02 0. -1.
    5000001    1    1    2    0    0 -0.84638459395E+02 -0.14641897421E+03 -0.68540250416E+03  0.71729197508E+03  0.12700000000E+03 0.  0.
   -5000001    1    1    2    0    0  0.84638459395E+02  0.14641897421E+03 -0.95688741793E+03  0.97998199749E+03  0.12700000000E+03 0.  0.
<mgrwt>
<rscale>  0 0.42851225E+03</rscale>
<asrwt>0</asrwt>
<pdfrwt beam="1">  1        2 0.39274332E-02 0.42851225E+03</pdfrwt>
<pdfrwt beam="2">  1       -2 0.23854021E+00 0.42851225E+03</pdfrwt>
<totfact> 0.18113436E+02</totfact>
</mgrwt>
</event>
<event>
 4    1  0.1383574E-004  0.2664391E+03  0.7818608E-02  0.1103335E+00
          2   -1    0    0  501    0  0.00000000000E+00  0.00000000000E+00  0.10739990638E+03  0.10739990641E+03  0.25500000000E-02 0.  1.
         -2   -1    0    0    0  501 -0.00000000000E+00 -0.00000000000E+00 -0.16524642165E+03  0.16524642167E+03  0.25500000000E-02 0. -1.
    5000001    1    1    2    0    0  0.34928669954E+02  0.32508543250E+01 -0.87700179030E+01  0.13204731445E+03  0.12700000000E+03 0.  0.
   -5000001    1    1    2    0    0 -0.34928669954E+02 -0.32508543250E+01 -0.49076497367E+02  0.14059901363E+03  0.12700000000E+03 0.  0.
<mgrwt>
<rscale>  0 0.26643911E+03</rscale>
<asrwt>0</asrwt>
<pdfrwt beam="1">  1        2 0.15342844E-01 0.26643911E+03</pdfrwt>
<pdfrwt beam="2">  1       -2 0.23606631E-01 0.26643911E+03</pdfrwt>
<totfact> 0.59138831E+03</totfact>
</mgrwt>
</event>
<event>
 4    1  0.1383574E-004  0.3464931E+03  0.7818608E-02  0.1064064E+00
          2   -1    0    0  501    0  0.00000000000E+00  0.00000000000E+00  0.15565994183E+04  0.15565994183E+04  0.25500000000E-02 0.  1.
         -2   -1    0    0    0  501 -0.00000000000E+00 -0.00000000000E+00 -0.19282009490E+02  0.19282009658E+02  0.25500000000E-02 0. -1.
    5000001    1    1    2    0    0 -0.83718302426E+02 -0.77302803624E+02  0.63214879126E+03  0.65477138904E+03  0.12700000000E+03 0.  0.
   -5000001    1    1    2    0    0  0.83718302426E+02  0.77302803624E+02  0.90516861756E+03  0.92111003893E+03  0.12700000000E+03 0.  0.
<mgrwt>
<rscale>  0 0.34649309E+03</rscale>
<asrwt>0</asrwt>
<pdfrwt beam="1">  1        2 0.22237132E+00 0.34649309E+03</pdfrwt>
<pdfrwt beam="2">  1       -2 0.27545731E-02 0.34649309E+03</pdfrwt>
<totfact> 0.70527557E+03</totfact>
</mgrwt>
</event>
<event>
 4    1  0.1383574E-004  0.5137767E+03  0.7818608E-02  0.1010244E+00
         -2   -1    0    0    0  501 -0.00000000000E+00  0.00000000000E+00  0.33969080509E+02  0.33969080605E+02  0.25500000000E-02 0. -1.
          2   -1    0    0  501    0  0.00000000000E+00 -0.00000000000E+00 -0.19426971822E+04  0.19426971822E+04  0.25500000000E-02 0.  1.
    5000001    1    1    2    0    0 -0.37284074955E+01  0.21978624263E+03 -0.11054784265E+04  0.11342536952E+04  0.12700000000E+03 0.  0.
   -5000001    1    1    2    0    0  0.37284074955E+01 -0.21978624263E+03 -0.80324967512E+03  0.84241256760E+03  0.12700000000E+03 0.  0.
<mgrwt>
<rscale>  0 0.51377675E+03</rscale>
<asrwt>0</asrwt>
<pdfrwt beam="1">  1        2 0.27752810E+00 0.51377675E+03</pdfrwt>
<pdfrwt beam="2">  1       -2 0.48527270E-02 0.51377675E+03</pdfrwt>
<totfact> 0.19089253E+03</totfact>
</mgrwt>
</event>
<event>
 4    1  0.1383574E-004  0.4188459E+03  0.7818608E-02  0.1037443E+00
          2   -1    0    0  501    0  0.00000000000E+00  0.00000000000E+00  0.50033606246E+03  0.50033606247E+03  0.25500000000E-02 0.  1.
         -2   -1    0    0    0  501 -0.00000000000E+00 -0.00000000000E+00 -0.87657046390E+02  0.87657046427E+02  0.25500000000E-02 0. -1.
    5000001    1    1    2    0    0 -0.23853837955E+02 -0.13873169902E+03  0.33122212543E+03  0.38164458108E+03  0.12700000000E+03 0.  0.
   -5000001    1    1    2    0    0  0.23853837955E+02  0.13873169902E+03  0.81456890643E+02  0.20634852781E+03  0.12700000000E+03 0.  0.
<mgrwt>
<rscale>  0 0.41884595E+03</rscale>
<asrwt>0</asrwt>
<pdfrwt beam="1">  1        2 0.71476578E-01 0.41884595E+03</pdfrwt>
<pdfrwt beam="2">  1       -2 0.12522436E-01 0.41884595E+03</pdfrwt>
<totfact> 0.31413888E+03</totfact>
</mgrwt>
</event>
<event>
 4    1  0.1383574E-004  0.2614152E+03  0.7818608E-02  0.1106296E+00
         -2   -1    0    0    0  501 -0.00000000000E+00  0.00000000000E+00  0.14493690638E+02  0.14493690862E+02  0.25500000000E-02 0. -1.
          2   -1    0    0  501    0  0.00000000000E+00 -0.00000000000E+00 -0.11787525373E+04  0.11787525373E+04  0.25500000000E-02 0.  1.
    5000001    1    1    2    0    0  0.19308885048E+02 -0.23542060261E+02 -0.55779849834E+03  0.57288325721E+03  0.12700000000E+03 0.  0.
   -5000001    1    1    2    0    0 -0.19308885048E+02  0.23542060261E+02 -0.60646034831E+03  0.62036297095E+03  0.12700000000E+03 0.  0.
<mgrwt>
<rscale>  0 0.26141519E+03</rscale>
<asrwt>0</asrwt>
<pdfrwt beam="1">  1        2 0.16839316E+00 0.26141519E+03</pdfrwt>
<pdfrwt beam="2">  1       -2 0.20705280E-02 0.26141519E+03</pdfrwt>
<totfact> 0.16836618E+04</totfact>
</mgrwt>
</event>
<event>
 4    1  0.1383574E-004  0.3482812E+03  0.7818608E-02  0.1063323E+00
          2   -1    0    0  501    0  0.00000000000E+00  0.00000000000E+00  0.96551371801E+02  0.96551371835E+02  0.25500000000E-02 0.  1.
         -2   -1    0    0    0  501 -0.00000000000E+00 -0.00000000000E+00 -0.31408089518E+03  0.31408089519E+03  0.25500000000E-02 0. -1.
    5000001    1    1    2    0    0 -0.54212623786E+02  0.10543440744E+03 -0.94788540652E+02  0.19791232980E+03  0.12700000000E+03 0.  0.
   -5000001    1    1    2    0    0  0.54212623786E+02 -0.10543440744E+03 -0.12274098272E+03  0.21271993722E+03  0.12700000000E+03 0.  0.
<mgrwt>
<rscale>  0 0.34828116E+03</rscale>
<asrwt>0</asrwt>
<pdfrwt beam="1">  1        2 0.13793053E-01 0.34828116E+03</pdfrwt>
<pdfrwt beam="2">  1       -2 0.44868699E-01 0.34828116E+03</pdfrwt>
<totfact> 0.20647342E+03</totfact>
</mgrwt>
</event>
<event>
 4    1  0.1383574E-004  0.3979441E+03  0.7818608E-02  0.1044494E+00
          2   -1    0    0  501    0  0.00000000000E+00  0.00000000000E+00  0.31663462731E+03  0.31663462732E+03  0.25500000000E-02 0.  1.
         -2   -1    0    0    0  501 -0.00000000000E+00 -0.00000000000E+00 -0.12503329183E+03  0.12503329186E+03  0.25500000000E-02 0. -1.
    5000001    1    1    2    0    0 -0.11411693668E+03 -0.53134956061E+02  0.19265188814E+03  0.26284928913E+03  0.12700000000E+03 0.  0.
   -5000001    1    1    2    0    0  0.11411693668E+03  0.53134956061E+02 -0.10505526659E+01  0.17881863005E+03  0.12700000000E+03 0.  0.
<mgrwt>
<rscale>  0 0.39794407E+03</rscale>
<asrwt>0</asrwt>
<pdfrwt beam="1">  1        2 0.45233517E-01 0.39794407E+03</pdfrwt>
<pdfrwt beam="2">  1       -2 0.17861899E-01 0.39794407E+03</pdfrwt>
<totfact> 0.28713509E+03</totfact>
</mgrwt>
</event>
<event>
 4    1  0.1383574E-004  0.4505476E+03  0.7818608E-02  0.1027559E+00
          2   -1    0    0  501    0  0.00000000000E+00  0.00000000000E+00  0.16548172145E+04  0.16548172145E+04  0.25500000000E-02 0.  1.
         -2   -1    0    0    0  501 -0.00000000000E+00 -0.00000000000E+00 -0.30667003084E+02  0.30667003190E+02  0.25500000000E-02 0. -1.
    5000001    1    1    2    0    0 -0.39473704915E+02 -0.15413896295E+03  0.11728854512E+04  0.11904227295E+04  0.12700000000E+03 0.  0.
   -5000001    1    1    2    0    0  0.39473704915E+02  0.15413896295E+03  0.45126476027E+03  0.49506148825E+03  0.12700000000E+03 0.  0.
<mgrwt>
<rscale>  0 0.45054760E+03</rscale>
<asrwt>0</asrwt>
<pdfrwt beam="1">  1        2 0.23640249E+00 0.45054760E+03</pdfrwt>
<pdfrwt beam="2">  1       -2 0.43809999E-02 0.45054760E+03</pdfrwt>
<totfact> 0.31207516E+03</totfact>
</mgrwt>
</event>
<event>
 4    1  0.1383574E-004  0.3526605E+03  0.7818608E-02  0.1061528E+00
         -2   -1    0    0    0  501 -0.00000000000E+00  0.00000000000E+00  0.41242759048E+02  0.41242759127E+02  0.25500000000E-02 0. -1.
          2   -1    0    0  501    0  0.00000000000E+00 -0.00000000000E+00 -0.75388664045E+03  0.75388664046E+03  0.25500000000E-02 0.  1.
    5000001    1    1    2    0    0  0.94307202282E+02 -0.76342024650E+02 -0.39135356964E+03  0.42896220067E+03  0.12700000000E+03 0.  0.
   -5000001    1    1    2    0    0 -0.94307202282E+02  0.76342024650E+02 -0.32129031176E+03  0.36616719891E+03  0.12700000000E+03 0.  0.
<mgrwt>
<rscale>  0 0.35266055E+03</rscale>
<asrwt>0</asrwt>
<pdfrwt beam="1">  1        2 0.10769808E+00 0.35266055E+03</pdfrwt>
<pdfrwt beam="2">  1       -2 0.58918232E-02 0.35266055E+03</pdfrwt>
<totfact> 0.64170898E+03</totfact>
</mgrwt>
</event>
<event>
 4    1  0.1383574E-004  0.4863993E+03  0.7818608E-02  0.1017391E+00
         -2   -1    0    0    0  501 -0.00000000000E+00  0.00000000000E+00  0.49305134076E+02  0.49305134142E+02  0.25500000000E-02 0. -1.
          2   -1    0    0  501    0  0.00000000000E+00 -0.00000000000E+00 -0.11995927344E+04  0.11995927344E+04  0.25500000000E-02 0.  1.
    5000001    1    1    2    0    0 -0.10956003762E+03  0.16978323270E+03 -0.45505808025E+03  0.51384492247E+03  0.12700000000E+03 0.  0.
   -5000001    1    1    2    0    0  0.10956003762E+03 -0.16978323270E+03 -0.69522952010E+03  0.73505294610E+03  0.12700000000E+03 0.  0.
<mgrwt>
<rscale>  0 0.48639934E+03</rscale>
<asrwt>0</asrwt>
<pdfrwt beam="1">  1        2 0.17137037E+00 0.48639934E+03</pdfrwt>
<pdfrwt beam="2">  1       -2 0.70435913E-02 0.48639934E+03</pdfrwt>
<totfact> 0.25913691E+03</totfact>
</mgrwt>
</event>
<event>
 4    1  0.1383574E-004  0.4052863E+03  0.7818608E-02  0.1041964E+00
          2   -1    0    0  501    0  0.00000000000E+00  0.00000000000E+00  0.75680723974E+03  0.75680723975E+03  0.25500000000E-02 0.  1.
         -2   -1    0    0    0  501 -0.00000000000E+00 -0.00000000000E+00 -0.54259849442E+02  0.54259849502E+02  0.25500000000E-02 0. -1.
    5000001    1    1    2    0    0 -0.53072379804E+01 -0.10693738518E+03  0.11899871062E+03  0.20433664442E+03  0.12700000000E+03 0.  0.
   -5000001    1    1    2    0    0  0.53072379804E+01  0.10693738518E+03  0.58354867968E+03  0.60673044483E+03  0.12700000000E+03 0.  0.
<mgrwt>
<rscale>  0 0.40528630E+03</rscale>
<asrwt>0</asrwt>
<pdfrwt beam="1">  1        2 0.10811531E+00 0.40528630E+03</pdfrwt>
<pdfrwt beam="2">  1       -2 0.77514074E-02 0.40528630E+03</pdfrwt>
<totfact> 0.41758560E+03</totfact>
</mgrwt>
</event>
<event>
 4    1  0.1383574E-004  0.3385491E+03  0.7818608E-02  0.1067416E+00
          2   -1    0    0  501    0  0.00000000000E+00  0.00000000000E+00  0.19286019527E+04  0.19286019527E+04  0.25500000000E-02 0.  1.
         -2   -1    0    0    0  501 -0.00000000000E+00 -0.00000000000E+00 -0.14857331945E+02  0.14857332164E+02  0.25500000000E-02 0. -1.
    5000001    1    1    2    0    0  0.93815679616E+02 -0.42358275268E+02  0.70472709313E+03  0.72343961809E+03  0.12700000000E+03 0.  0.
   -5000001    1    1    2    0    0 -0.93815679616E+02  0.42358275268E+02  0.12090175276E+04  0.12200196668E+04  0.12700000000E+03 0.  0.
<mgrwt>
<rscale>  0 0.33854914E+03</rscale>
<asrwt>0</asrwt>
<pdfrwt beam="1">  1        2 0.27551474E+00 0.33854914E+03</pdfrwt>
<pdfrwt beam="2">  1       -2 0.21224747E-02 0.33854914E+03</pdfrwt>
<totfact> 0.67906293E+03</totfact>
</mgrwt>
</event>
<event>
 4    1  0.1383574E-004  0.3685802E+03  0.7818608E-02  0.1055237E+00
         -2   -1    0    0    0  501 -0.00000000000E+00  0.00000000000E+00  0.30108815484E+02  0.30108815592E+02  0.25500000000E-02 0. -1.
          2   -1    0    0  501    0  0.00000000000E+00 -0.00000000000E+00 -0.11280032707E+04  0.11280032707E+04  0.25500000000E-02 0.  1.
    5000001    1    1    2    0    0  0.24971510447E+01  0.59310778800E+02 -0.17307871579E+03  0.22273133166E+03  0.12700000000E+03 0.  0.
   -5000001    1    1    2    0    0 -0.24971510447E+01 -0.59310778800E+02 -0.92481573946E+03  0.93538075466E+03  0.12700000000E+03 0.  0.
<mgrwt>
<rscale>  0 0.36858021E+03</rscale>
<asrwt>0</asrwt>
<pdfrwt beam="1">  1        2 0.16114330E+00 0.36858021E+03</pdfrwt>
<pdfrwt beam="2">  1       -2 0.43012601E-02 0.36858021E+03</pdfrwt>
<totfact> 0.60813360E+03</totfact>
</mgrwt>
</event>
<event>
 4    1  0.1383574E-004  0.3546976E+03  0.7818608E-02  0.1060703E+00
         -2   -1    0    0    0  501 -0.00000000000E+00  0.00000000000E+00  0.17448502405E+02  0.17448502591E+02  0.25500000000E-02 0. -1.
          2   -1    0    0  501    0  0.00000000000E+00 -0.00000000000E+00 -0.18025957381E+04  0.18025957381E+04  0.25500000000E-02 0.  1.
    5000001    1    1    2    0    0  0.50862947835E+02 -0.68785324406E+02 -0.13516744230E+04  0.13603202586E+04  0.12700000000E+03 0.  0.
   -5000001    1    1    2    0    0 -0.50862947835E+02  0.68785324406E+02 -0.43347281272E+03  0.45972398207E+03  0.12700000000E+03 0.  0.
<mgrwt>
<rscale>  0 0.35469760E+03</rscale>
<asrwt>0</asrwt>
<pdfrwt beam="1">  1        2 0.25751356E+00 0.35469760E+03</pdfrwt>
<pdfrwt beam="2">  1       -2 0.24926444E-02 0.35469760E+03</pdfrwt>
<totfact> 0.61709557E+03</totfact>
</mgrwt>
</event>
<event>
 4    1  0.1383574E-004  0.6886653E+03  0.7818608E-02  0.9736815E-01
          2   -1    0    0  501    0  0.00000000000E+00  0.00000000000E+00  0.52609377330E+02  0.52609377392E+02  0.25500000000E-02 0.  1.
         -2   -1    0    0    0  501 -0.00000000000E+00 -0.00000000000E+00 -0.22536850602E+04  0.22536850602E+04  0.25500000000E-02 0. -1.
    5000001    1    1    2    0    0 -0.29744055493E+03 -0.11812659669E+03 -0.10893345553E+04  0.11424550538E+04  0.12700000000E+03 0.  0.
   -5000001    1    1    2    0    0  0.29744055493E+03  0.11812659669E+03 -0.11117411275E+04  0.11638393838E+04  0.12700000000E+03 0.  0.
<mgrwt>
<rscale>  0 0.68866528E+03</rscale>
<asrwt>0</asrwt>
<pdfrwt beam="1">  1        2 0.75156268E-02 0.68866528E+03</pdfrwt>
<pdfrwt beam="2">  1       -2 0.32195495E+00 0.68866528E+03</pdfrwt>
<totfact> 0.23602593E+01</totfact>
</mgrwt>
</event>
<event>
 4    1  0.1383574E-004  0.7058717E+03  0.7818608E-02  0.9707243E-01
          2   -1    0    0  501    0  0.00000000000E+00  0.00000000000E+00  0.15983855848E+04  0.15983855848E+04  0.25500000000E-02 0.  1.
         -2   -1    0    0    0  501 -0.00000000000E+00 -0.00000000000E+00 -0.77930962737E+02  0.77930962779E+02  0.25500000000E-02 0. -1.
    5000001    1    1    2    0    0  0.37734237537E+02 -0.28986470624E+03  0.40015213853E+03  0.51156246400E+03  0.12700000000E+03 0.  0.
   -5000001    1    1    2    0    0 -0.37734237537E+02  0.28986470624E+03  0.11203024835E+04  0.11647540836E+04  0.12700000000E+03 0.  0.
<mgrwt>
<rscale>  0 0.70587174E+03</rscale>
<asrwt>0</asrwt>
<pdfrwt beam="1">  1        2 0.22834078E+00 0.70587174E+03</pdfrwt>
<pdfrwt beam="2">  1       -2 0.11132995E-01 0.70587174E+03</pdfrwt>
<totfact> 0.75671815E+02</totfact>
</mgrwt>
</event>
<event>
 4    1  0.1383574E-004  0.3183575E+03  0.7818608E-02  0.1076408E+00
         -2   -1    0    0    0  501 -0.00000000000E+00  0.00000000000E+00  0.62819705719E+01  0.62819710894E+01  0.25500000000E-02 0. -1.
          2   -1    0    0  501    0  0.00000000000E+00 -0.00000000000E+00 -0.40334281583E+04  0.40334281583E+04  0.25500000000E-02 0.  1.
    5000001    1    1    2    0    0  0.28286704942E+02 -0.66781519819E+02 -0.12161717784E+04  0.12249337548E+04  0.12700000000E+03 0.  0.
   -5000001    1    1    2    0    0 -0.28286704942E+02  0.66781519819E+02 -0.28109744094E+04  0.28147763746E+04  0.12700000000E+03 0.  0.
<mgrwt>
<rscale>  0 0.31835752E+03</rscale>
<asrwt>0</asrwt>
<pdfrwt beam="1">  1        2 0.57620237E+00 0.31835752E+03</pdfrwt>
<pdfrwt beam="2">  1       -2 0.89742698E-03 0.31835752E+03</pdfrwt>
<totfact> 0.17062104E+03</totfact>
</mgrwt>
</event>
<event>
 4    1  0.1383574E-004  0.5806384E+03  0.7818608E-02  0.9946410E-01
         -2   -1    0    0    0  501 -0.00000000000E+00  0.00000000000E+00  0.22185812490E+03  0.22185812492E+03  0.25500000000E-02 0. -1.
          2   -1    0    0  501    0  0.00000000000E+00 -0.00000000000E+00 -0.37990607128E+03  0.37990607129E+03  0.25500000000E-02 0.  1.
    5000001    1    1    2    0    0 -0.62610375517E+02 -0.20577777059E+03 -0.23236568005E+03  0.34115591635E+03  0.12700000000E+03 0.  0.
   -5000001    1    1    2    0    0  0.62610375517E+02  0.20577777059E+03  0.74317733671E+02  0.26060827986E+03  0.12700000000E+03 0.  0.
<mgrwt>
<rscale>  0 0.58063844E+03</rscale>
<asrwt>0</asrwt>
<pdfrwt beam="1">  1        2 0.54272296E-01 0.58063844E+03</pdfrwt>
<pdfrwt beam="2">  1       -2 0.31694018E-01 0.58063844E+03</pdfrwt>
<totfact> 0.85030388E+02</totfact>
</mgrwt>
</event>
<event>
 4    1  0.1383574E-004  0.6689787E+03  0.7818608E-02  0.9771805E-01
         -2   -1    0    0    0  501 -0.00000000000E+00  0.00000000000E+00  0.35094329329E+03  0.35094329330E+03  0.25500000000E-02 0. -1.
          2   -1    0    0  501    0  0.00000000000E+00 -0.00000000000E+00 -0.31880688308E+03  0.31880688309E+03  0.25500000000E-02 0.  1.
    5000001    1    1    2    0    0  0.25832409866E+03  0.16920756401E+03 -0.37434450527E+01  0.33392447207E+03  0.12700000000E+03 0.  0.
   -5000001    1    1    2    0    0 -0.25832409866E+03 -0.16920756401E+03  0.35879855264E+02  0.33582570432E+03  0.12700000000E+03 0.  0.
<mgrwt>
<rscale>  0 0.66897874E+03</rscale>
<asrwt>0</asrwt>
<pdfrwt beam="1">  1        2 0.45543840E-01 0.66897874E+03</pdfrwt>
<pdfrwt beam="2">  1       -2 0.50134756E-01 0.66897874E+03</pdfrwt>
<totfact> 0.42287240E+02</totfact>
</mgrwt>
</event>
<event>
 4    1  0.1383574E-004  0.3708625E+03  0.7818608E-02  0.1054364E+00
         -2   -1    0    0    0  501 -0.00000000000E+00  0.00000000000E+00  0.21682401682E+03  0.21682401683E+03  0.25500000000E-02 0. -1.
          2   -1    0    0  501    0  0.00000000000E+00 -0.00000000000E+00 -0.15858364771E+03  0.15858364773E+03  0.25500000000E-02 0.  1.
    5000001    1    1    2    0    0  0.23139523150E+02 -0.80387595191E+02  0.13652495653E+03  0.20436650104E+03  0.12700000000E+03 0.  0.
   -5000001    1    1    2    0    0 -0.23139523150E+02  0.80387595191E+02 -0.78284587421E+02  0.17104116352E+03  0.12700000000E+03 0.  0.
<mgrwt>
<rscale>  0 0.37086247E+03</rscale>
<asrwt>0</asrwt>
<pdfrwt beam="1">  1        2 0.22654807E-01 0.37086247E+03</pdfrwt>
<pdfrwt beam="2">  1       -2 0.30974860E-01 0.37086247E+03</pdfrwt>
<totfact> 0.23344652E+03</totfact>
</mgrwt>
</event>
<event>
 4    1  0.1383574E-004  0.3271067E+03  0.7818608E-02  0.1072424E+00
          2   -1    0    0  501    0  0.00000000000E+00  0.00000000000E+00  0.30562958657E+04  0.30562958657E+04  0.25500000000E-02 0.  1.
         -2   -1    0    0    0  501 -0.00000000000E+00 -0.00000000000E+00 -0.87523271033E+01  0.87523274748E+01  0.25500000000E-02 0. -1.
    5000001    1    1    2    0    0  0.10065309685E+03 -0.10316037365E+02  0.17072060597E+04  0.17149107839E+04  0.12700000000E+03 0.  0.
   -5000001    1    1    2    0    0 -0.10065309685E+03  0.10316037365E+02  0.13403374789E+04  0.13501374093E+04  0.12700000000E+03 0.  0.
<mgrwt>
<rscale>  0 0.32710672E+03</rscale>
<asrwt>0</asrwt>
<pdfrwt beam="1">  1        2 0.43661375E+00 0.32710672E+03</pdfrwt>
<pdfrwt beam="2">  1       -2 0.12503323E-02 0.32710672E+03</pdfrwt>
<totfact> 0.39766688E+03</totfact>
</mgrwt>
</event>
<event>
 4    1  0.1383574E-004  0.4662201E+03  0.7818608E-02  0.1022993E+00
         -2   -1    0    0    0  501 -0.00000000000E+00  0.00000000000E+00  0.49062553969E+02  0.49062554035E+02  0.25500000000E-02 0. -1.
          2   -1    0    0  501    0  0.00000000000E+00 -0.00000000000E+00 -0.11075715892E+04  0.11075715893E+04  0.25500000000E-02 0.  1.
    5000001    1    1    2    0    0 -0.12691127881E+03  0.14699555771E+03 -0.47394020725E+03  0.52769544884E+03  0.12700000000E+03 0.  0.
   -5000001    1    1    2    0    0  0.12691127881E+03 -0.14699555771E+03 -0.58456882803E+03  0.62893869445E+03  0.12700000000E+03 0.  0.
<mgrwt>
<rscale>  0 0.46622008E+03</rscale>
<asrwt>0</asrwt>
<pdfrwt beam="1">  1        2 0.15822450E+00 0.46622008E+03</pdfrwt>
<pdfrwt beam="2">  1       -2 0.70089369E-02 0.46622008E+03</pdfrwt>
<totfact> 0.29436013E+03</totfact>
</mgrwt>
</event>
<event>
 4    1  0.1383574E-004  0.4721393E+03  0.7818608E-02  0.1021318E+00
          2   -1    0    0  501    0  0.00000000000E+00  0.00000000000E+00  0.55480459056E+03  0.55480459056E+03  0.25500000000E-02 0.  1.
         -2   -1    0    0    0  501 -0.00000000000E+00 -0.00000000000E+00 -0.10044777894E+03  0.10044777897E+03  0.25500000000E-02 0. -1.
    5000001    1    1    2    0    0 -0.10825573587E+03  0.14730433050E+03  0.11805860332E+03  0.25196171128E+03  0.12700000000E+03 0.  0.
   -5000001    1    1    2    0    0  0.10825573587E+03 -0.14730433050E+03  0.33629820830E+03  0.40329065826E+03  0.12700000000E+03 0.  0.
<mgrwt>
<rscale>  0 0.47213934E+03</rscale>
<asrwt>0</asrwt>
<pdfrwt beam="1">  1        2 0.79257801E-01 0.47213934E+03</pdfrwt>
<pdfrwt beam="2">  1       -2 0.14349682E-01 0.47213934E+03</pdfrwt>
<totfact> 0.22333047E+03</totfact>
</mgrwt>
</event>
<event>
 4    1  0.1383574E-004  0.7419065E+03  0.7818608E-02  0.9648134E-01
          2   -1    0    0  501    0  0.00000000000E+00  0.00000000000E+00  0.21948864733E+04  0.21948864733E+04  0.25500000000E-02 0.  1.
         -2   -1    0    0    0  501 -0.00000000000E+00 -0.00000000000E+00 -0.62694039783E+02  0.62694039835E+02  0.25500000000E-02 0. -1.
    5000001    1    1    2    0    0 -0.34369552024E+02 -0.22209802976E+03  0.25545831910E+03  0.36317592669E+03  0.12700000000E+03 0.  0.
   -5000001    1    1    2    0    0  0.34369552024E+02  0.22209802976E+03  0.18767341144E+04  0.18944045864E+04  0.12700000000E+03 0.  0.
<mgrwt>
<rscale>  0 0.74190646E+03</rscale>
<asrwt>0</asrwt>
<pdfrwt beam="1">  1        2 0.31355516E+00 0.74190646E+03</pdfrwt>
<pdfrwt beam="2">  1       -2 0.89562929E-02 0.74190646E+03</pdfrwt>
<totfact> 0.53532630E+02</totfact>
</mgrwt>
</event>
<event>
 4    1  0.1383574E-004  0.4334627E+03  0.7818608E-02  0.1032772E+00
         -2   -1    0    0    0  501 -0.00000000000E+00  0.00000000000E+00  0.20063760927E+02  0.20063761089E+02  0.25500000000E-02 0. -1.
          2   -1    0    0  501    0  0.00000000000E+00 -0.00000000000E+00 -0.23411598156E+04  0.23411598156E+04  0.25500000000E-02 0.  1.
    5000001    1    1    2    0    0 -0.38545344662E+02 -0.16591245808E+03 -0.13936274473E+04  0.14097301689E+04  0.12700000000E+03 0.  0.
   -5000001    1    1    2    0    0  0.38545344662E+02  0.16591245808E+03 -0.92746860740E+03  0.95149340778E+03  0.12700000000E+03 0.  0.
<mgrwt>
<rscale>  0 0.43346267E+03</rscale>
<asrwt>0</asrwt>
<pdfrwt beam="1">  1        2 0.33445123E+00 0.43346267E+03</pdfrwt>
<pdfrwt beam="2">  1       -2 0.28662531E-02 0.43346267E+03</pdfrwt>
<totfact> 0.27027660E+03</totfact>
</mgrwt>
</event>
<event>
 4    1  0.1383574E-004  0.5686028E+03  0.7818608E-02  0.9972775E-01
          2   -1    0    0  501    0  0.00000000000E+00  0.00000000000E+00  0.79405809621E+03  0.79405809621E+03  0.25500000000E-02 0.  1.
         -2   -1    0    0    0  501 -0.00000000000E+00 -0.00000000000E+00 -0.10179014481E+03  0.10179014484E+03  0.25500000000E-02 0. -1.
    5000001    1    1    2    0    0  0.22098206061E+03  0.10892092275E+03  0.44579701947E+03  0.52493887367E+03  0.12700000000E+03 0.  0.
   -5000001    1    1    2    0    0 -0.22098206061E+03 -0.10892092275E+03  0.24647093194E+03  0.37090936738E+03  0.12700000000E+03 0.  0.
<mgrwt>
<rscale>  0 0.56860281E+03</rscale>
<asrwt>0</asrwt>
<pdfrwt beam="1">  1        2 0.11343687E+00 0.56860281E+03</pdfrwt>
<pdfrwt beam="2">  1       -2 0.14541449E-01 0.56860281E+03</pdfrwt>
<totfact> 0.14191729E+03</totfact>
</mgrwt>
</event>
<event>
 4    1  0.1383574E-004  0.3366929E+03  0.7818608E-02  0.1068213E+00
         -2   -1    0    0    0  501 -0.00000000000E+00  0.00000000000E+00  0.10412826496E+04  0.10412826496E+04  0.25500000000E-02 0. -1.
          2   -1    0    0  501    0  0.00000000000E+00 -0.00000000000E+00 -0.27216944790E+02  0.27216944909E+02  0.25500000000E-02 0.  1.
    5000001    1    1    2    0    0  0.14971784423E+02 -0.99291868553E+02  0.65344512865E+03  0.67320321274E+03  0.12700000000E+03 0.  0.
   -5000001    1    1    2    0    0 -0.14971784423E+02  0.99291868553E+02  0.36062057614E+03  0.39529638175E+03  0.12700000000E+03 0.  0.
<mgrwt>
<rscale>  0 0.33669293E+03</rscale>
<asrwt>0</asrwt>
<pdfrwt beam="1">  1        2 0.38881355E-02 0.33669293E+03</pdfrwt>
<pdfrwt beam="2">  1       -2 0.14875465E+00 0.33669293E+03</pdfrwt>
<totfact> 0.71738558E+02</totfact>
</mgrwt>
</event>
<event>
 4    1  0.1383574E-004  0.3828640E+03  0.7818608E-02  0.1049880E+00
          2   -1    0    0  501    0  0.00000000000E+00  0.00000000000E+00  0.16447027432E+04  0.16447027432E+04  0.25500000000E-02 0.  1.
         -2   -1    0    0    0  501 -0.00000000000E+00 -0.00000000000E+00 -0.22281353764E+02  0.22281353910E+02  0.25500000000E-02 0. -1.
    5000001    1    1    2    0    0  0.12495637710E+03  0.38707014616E+01  0.50680124592E+03  0.53722023544E+03  0.12700000000E+03 0.  0.
   -5000001    1    1    2    0    0 -0.12495637710E+03 -0.38707014616E+01  0.11156201436E+04  0.11297638617E+04  0.12700000000E+03 0.  0.
<mgrwt>
<rscale>  0 0.38286396E+03</rscale>
<asrwt>0</asrwt>
<pdfrwt beam="1">  1        2 0.23495744E+00 0.38286396E+03</pdfrwt>
<pdfrwt beam="2">  1       -2 0.31830518E-02 0.38286396E+03</pdfrwt>
<totfact> 0.51297209E+03</totfact>
</mgrwt>
</event>
<event>
 4    1  0.1383574E-004  0.5031514E+03  0.7818608E-02  0.1012960E+00
         -2   -1    0    0    0  501 -0.00000000000E+00  0.00000000000E+00  0.10567174746E+03  0.10567174749E+03  0.25500000000E-02 0. -1.
          2   -1    0    0  501    0  0.00000000000E+00 -0.00000000000E+00 -0.59893334184E+03  0.59893334184E+03  0.25500000000E-02 0.  1.
    5000001    1    1    2    0    0  0.66756880449E+02  0.20651064134E+03 -0.23594679694E+03  0.34482316781E+03  0.12700000000E+03 0.  0.
   -5000001    1    1    2    0    0 -0.66756880449E+02 -0.20651064134E+03 -0.25731479744E+03  0.35978192152E+03  0.12700000000E+03 0.  0.
<mgrwt>
<rscale>  0 0.50315140E+03</rscale>
<asrwt>0</asrwt>
<pdfrwt beam="1">  1        2 0.85561904E-01 0.50315140E+03</pdfrwt>
<pdfrwt beam="2">  1       -2 0.15095964E-01 0.50315140E+03</pdfrwt>
<totfact> 0.18783240E+03</totfact>
</mgrwt>
</event>
<event>
 4    1  0.1383574E-004  0.3573515E+03  0.7818608E-02  0.1059637E+00
         -2   -1    0    0    0  501 -0.00000000000E+00  0.00000000000E+00  0.46767892637E+02  0.46767892706E+02  0.25500000000E-02 0. -1.
          2   -1    0    0  501    0  0.00000000000E+00 -0.00000000000E+00 -0.68262700403E+03  0.68262700404E+03  0.25500000000E-02 0.  1.
    5000001    1    1    2    0    0  0.48724446956E+02  0.10735626116E+03 -0.22903941736E+03  0.28720636004E+03  0.12700000000E+03 0.  0.
   -5000001    1    1    2    0    0 -0.48724446956E+02 -0.10735626116E+03 -0.40681969404E+03  0.44218853671E+03  0.12700000000E+03 0.  0.
<mgrwt>
<rscale>  0 0.35735152E+03</rscale>
<asrwt>0</asrwt>
<pdfrwt beam="1">  1        2 0.97518137E-01 0.35735152E+03</pdfrwt>
<pdfrwt beam="2">  1       -2 0.66811280E-02 0.35735152E+03</pdfrwt>
<totfact> 0.59565631E+03</totfact>
</mgrwt>
</event>
<event>
 4    1  0.1383574E-004  0.4297321E+03  0.7818608E-02  0.1033945E+00
          2   -1    0    0  501    0  0.00000000000E+00  0.00000000000E+00  0.32283547673E+03  0.32283547674E+03  0.25500000000E-02 0.  1.
         -2   -1    0    0    0  501 -0.00000000000E+00 -0.00000000000E+00 -0.14300605237E+03  0.14300605239E+03  0.25500000000E-02 0. -1.
    5000001    1    1    2    0    0  0.44055188046E+02 -0.14507496638E+03  0.18093961737E+03  0.26805922965E+03  0.12700000000E+03 0.  0.
   -5000001    1    1    2    0    0 -0.44055188046E+02  0.14507496638E+03 -0.11101930103E+01  0.19778229949E+03  0.12700000000E+03 0.  0.
<mgrwt>
<rscale>  0 0.42973214E+03</rscale>
<asrwt>0</asrwt>
<pdfrwt beam="1">  1        2 0.46119354E-01 0.42973214E+03</pdfrwt>
<pdfrwt beam="2">  1       -2 0.20429436E-01 0.42973214E+03</pdfrwt>
<totfact> 0.22347675E+03</totfact>
</mgrwt>
</event>
<event>
 4    1  0.1383574E-004  0.3622888E+03  0.7818608E-02  0.1057681E+00
          2   -1    0    0  501    0  0.00000000000E+00  0.00000000000E+00  0.10127339052E+03  0.10127339055E+03  0.25500000000E-02 0.  1.
         -2   -1    0    0    0  501 -0.00000000000E+00 -0.00000000000E+00 -0.32400703392E+03  0.32400703393E+03  0.25500000000E-02 0. -1.
    5000001    1    1    2    0    0  0.10793270806E+03  0.64697871332E+02 -0.77162884293E+02  0.19472646132E+03  0.12700000000E+03 0.  0.
   -5000001    1    1    2    0    0 -0.10793270806E+03 -0.64697871332E+02 -0.14557075910E+03  0.23055396316E+03  0.12700000000E+03 0.  0.
<mgrwt>
<rscale>  0 0.36228878E+03</rscale>
<asrwt>0</asrwt>
<pdfrwt beam="1">  1        2 0.14467627E-01 0.36228878E+03</pdfrwt>
<pdfrwt beam="2">  1       -2 0.46286719E-01 0.36228878E+03</pdfrwt>
<totfact> 0.18348516E+03</totfact>
</mgrwt>
</event>
<event>
 4    1  0.1383574E-004  0.6272759E+03  0.7818608E-02  0.9850379E-01
         -2   -1    0    0    0  501 -0.00000000000E+00  0.00000000000E+00  0.45268757015E+02  0.45268757087E+02  0.25500000000E-02 0. -1.
          2   -1    0    0  501    0  0.00000000000E+00 -0.00000000000E+00 -0.21729942361E+04  0.21729942361E+04  0.25500000000E-02 0.  1.
    5000001    1    1    2    0    0 -0.18978223780E+03  0.32139915525E+02 -0.31211328830E+03  0.38806439760E+03  0.12700000000E+03 0.  0.
   -5000001    1    1    2    0    0  0.18978223780E+03 -0.32139915525E+02 -0.18156121908E+04  0.18301985956E+04  0.12700000000E+03 0.  0.
<mgrwt>
<rscale>  0 0.62727585E+03</rscale>
<asrwt>0</asrwt>
<pdfrwt beam="1">  1        2 0.31042768E+00 0.62727585E+03</pdfrwt>
<pdfrwt beam="2">  1       -2 0.64669666E-02 0.62727585E+03</pdfrwt>
<totfact> 0.92962415E+02</totfact>
</mgrwt>
</event>
<event>
 4    1  0.1383574E-004  0.4313842E+03  0.7818608E-02  0.1033424E+00
          2   -1    0    0  501    0  0.00000000000E+00  0.00000000000E+00  0.12214429757E+04  0.12214429757E+04  0.25500000000E-02 0.  1.
         -2   -1    0    0    0  501 -0.00000000000E+00 -0.00000000000E+00 -0.38088629416E+02  0.38088629502E+02  0.25500000000E-02 0. -1.
    5000001    1    1    2    0    0 -0.89131617125E+02  0.95880328175E+02  0.25550560190E+03  0.31392609816E+03  0.12700000000E+03 0.  0.
   -5000001    1    1    2    0    0  0.89131617125E+02 -0.95880328175E+02  0.92784874439E+03  0.94560550705E+03  0.12700000000E+03 0.  0.
<mgrwt>
<rscale>  0 0.43138423E+03</rscale>
<asrwt>0</asrwt>
<pdfrwt beam="1">  1        2 0.17449188E+00 0.43138423E+03</pdfrwt>
<pdfrwt beam="2">  1       -2 0.54412319E-02 0.43138423E+03</pdfrwt>
<totfact> 0.37682756E+03</totfact>
</mgrwt>
</event>
<event>
 4    1  0.1383574E-004  0.3503096E+03  0.7818608E-02  0.1062488E+00
         -2   -1    0    0    0  501 -0.00000000000E+00  0.00000000000E+00  0.23768867050E+02  0.23768867187E+02  0.25500000000E-02 0. -1.
          2   -1    0    0  501    0  0.00000000000E+00 -0.00000000000E+00 -0.12907303994E+04  0.12907303994E+04  0.25500000000E-02 0.  1.
    5000001    1    1    2    0    0 -0.10515102823E+03 -0.44328478734E+02 -0.48677963077E+03  0.51585381814E+03  0.12700000000E+03 0.  0.
   -5000001    1    1    2    0    0  0.10515102823E+03  0.44328478734E+02 -0.78018190161E+03  0.79864544847E+03  0.12700000000E+03 0.  0.
<mgrwt>
<rscale>  0 0.35030957E+03</rscale>
<asrwt>0</asrwt>
<pdfrwt beam="1">  1        2 0.18439001E+00 0.35030957E+03</pdfrwt>
<pdfrwt beam="2">  1       -2 0.33955533E-02 0.35030957E+03</pdfrwt>
<totfact> 0.70775517E+03</totfact>
</mgrwt>
</event>
<event>
 4    1  0.1383574E-004  0.3219367E+03  0.7818608E-02  0.1074761E+00
          2   -1    0    0  501    0  0.00000000000E+00  0.00000000000E+00  0.57612625701E+03  0.57612625702E+03  0.25500000000E-02 0.  1.
         -2   -1    0    0    0  501 -0.00000000000E+00 -0.00000000000E+00 -0.44974187090E+02  0.44974187163E+02  0.25500000000E-02 0. -1.
    5000001    1    1    2    0    0  0.81836667909E+01  0.96352895679E+02  0.30562657831E+03  0.34480060655E+03  0.12700000000E+03 0.  0.
   -5000001    1    1    2    0    0 -0.81836667909E+01 -0.96352895679E+02  0.22552549161E+03  0.27629983763E+03  0.12700000000E+03 0.  0.
<mgrwt>
<rscale>  0 0.32193670E+03</rscale>
<asrwt>0</asrwt>
<pdfrwt beam="1">  1        2 0.82303742E-01 0.32193670E+03</pdfrwt>
<pdfrwt beam="2">  1       -2 0.64248846E-02 0.32193670E+03</pdfrwt>
<totfact> 0.76883116E+03</totfact>
</mgrwt>
</event>
<event>
 4    1  0.1383574E-004  0.4221895E+03  0.7818608E-02  0.1036356E+00
          2   -1    0    0  501    0  0.00000000000E+00  0.00000000000E+00  0.37735521075E+02  0.37735521161E+02  0.25500000000E-02 0.  1.
         -2   -1    0    0    0  501 -0.00000000000E+00 -0.00000000000E+00 -0.11808766959E+04  0.11808766959E+04  0.25500000000E-02 0. -1.
    5000001    1    1    2    0    0  0.93755700990E+02 -0.10185977265E+03 -0.29371774889E+03  0.34866124069E+03  0.12700000000E+03 0.  0.
   -5000001    1    1    2    0    0 -0.93755700990E+02  0.10185977265E+03 -0.84942342598E+03  0.86995097641E+03  0.12700000000E+03 0.  0.
<mgrwt>
<rscale>  0 0.42218952E+03</rscale>
<asrwt>0</asrwt>
<pdfrwt beam="1">  1        2 0.53907895E-02 0.42218952E+03</pdfrwt>
<pdfrwt beam="2">  1       -2 0.16869665E+00 0.42218952E+03</pdfrwt>
<totfact> 0.33147324E+02</totfact>
</mgrwt>
</event>
<event>
 4    1  0.1383574E-004  0.3336968E+03  0.7818608E-02  0.1069513E+00
          2   -1    0    0  501    0  0.00000000000E+00  0.00000000000E+00  0.36001707385E+04  0.36001707385E+04  0.25500000000E-02 0.  1.
         -2   -1    0    0    0  501 -0.00000000000E+00 -0.00000000000E+00 -0.77325174500E+01  0.77325178704E+01  0.25500000000E-02 0. -1.
    5000001    1    1    2    0    0  0.10213385557E+03 -0.72591227005E+01  0.14177455670E+04  0.14271003861E+04  0.12700000000E+03 0.  0.
   -5000001    1    1    2    0    0 -0.10213385557E+03  0.72591227005E+01  0.21746926540E+04  0.21808028702E+04  0.12700000000E+03 0.  0.
<mgrwt>
<rscale>  0 0.33369677E+03</rscale>
<asrwt>0</asrwt>
<pdfrwt beam="1">  1        2 0.51431032E+00 0.33369677E+03</pdfrwt>
<pdfrwt beam="2">  1       -2 0.11046449E-02 0.33369677E+03</pdfrwt>
<totfact> 0.23486288E+03</totfact>
</mgrwt>
</event>
<event>
 4    1  0.1383574E-004  0.3544162E+03  0.7818608E-02  0.1060817E+00
         -2   -1    0    0    0  501 -0.00000000000E+00  0.00000000000E+00  0.33264997708E+02  0.33264997806E+02  0.25500000000E-02 0. -1.
          2   -1    0    0  501    0  0.00000000000E+00 -0.00000000000E+00 -0.94401651165E+03  0.94401651166E+03  0.25500000000E-02 0.  1.
    5000001    1    1    2    0    0  0.11968588464E+03 -0.29221534847E+02 -0.42848568386E+03  0.46358126619E+03  0.12700000000E+03 0.  0.
   -5000001    1    1    2    0    0 -0.11968588464E+03  0.29221534847E+02 -0.48226583008E+03  0.51370024328E+03  0.12700000000E+03 0.  0.
<mgrwt>
<rscale>  0 0.35441618E+03</rscale>
<asrwt>0</asrwt>
<pdfrwt beam="1">  1        2 0.13485949E+00 0.35441618E+03</pdfrwt>
<pdfrwt beam="2">  1       -2 0.47521431E-02 0.35441618E+03</pdfrwt>
<totfact> 0.66960463E+03</totfact>
</mgrwt>
</event>
<event>
 4    1  0.1383574E-004  0.5322737E+03  0.7818608E-02  0.1005682E+00
         -2   -1    0    0    0  501 -0.00000000000E+00  0.00000000000E+00  0.15166854320E+03  0.15166854322E+03  0.25500000000E-02 0. -1.
          2   -1    0    0  501    0  0.00000000000E+00 -0.00000000000E+00 -0.46699750608E+03  0.46699750609E+03  0.25500000000E-02 0.  1.
    5000001    1    1    2    0    0  0.12727172736E+03 -0.16723461395E+03 -0.27696011823E+03  0.37013702298E+03  0.12700000000E+03 0.  0.
   -5000001    1    1    2    0    0 -0.12727172736E+03  0.16723461395E+03 -0.38368844652E+02  0.24852902633E+03  0.12700000000E+03 0.  0.
<mgrwt>
<rscale>  0 0.53227373E+03</rscale>
<asrwt>0</asrwt>
<pdfrwt beam="1">  1        2 0.66713929E-01 0.53227373E+03</pdfrwt>
<pdfrwt beam="2">  1       -2 0.21666935E-01 0.53227373E+03</pdfrwt>
<totfact> 0.13435704E+03</totfact>
</mgrwt>
</event>
<event>
 4    1  0.1383574E-004  0.4774488E+03  0.7818608E-02  0.1019839E+00
         -2   -1    0    0    0  501 -0.00000000000E+00  0.00000000000E+00  0.70196007540E+02  0.70196007586E+02  0.25500000000E-02 0. -1.
          2   -1    0    0  501    0  0.00000000000E+00 -0.00000000000E+00 -0.81186002974E+03  0.81186002974E+03  0.25500000000E-02 0.  1.
    5000001    1    1    2    0    0 -0.12867698412E+03 -0.14029162230E+03 -0.49641455084E+03  0.54662227526E+03  0.12700000000E+03 0.  0.
   -5000001    1    1    2    0    0  0.12867698412E+03  0.14029162230E+03 -0.24524947136E+03  0.33543376206E+03  0.12700000000E+03 0.  0.
<mgrwt>
<rscale>  0 0.47744877E+03</rscale>
<asrwt>0</asrwt>
<pdfrwt beam="1">  1        2 0.11598000E+00 0.47744877E+03</pdfrwt>
<pdfrwt beam="2">  1       -2 0.10028002E-01 0.47744877E+03</pdfrwt>
<totfact> 0.25409401E+03</totfact>
</mgrwt>
</event>
<event>
 4    1  0.1383574E-004  0.3322111E+03  0.7818608E-02  0.1070163E+00
          2   -1    0    0  501    0  0.00000000000E+00  0.00000000000E+00  0.14016286213E+04  0.14016286213E+04  0.25500000000E-02 0.  1.
         -2   -1    0    0    0  501 -0.00000000000E+00 -0.00000000000E+00 -0.19684994508E+02  0.19684994673E+02  0.25500000000E-02 0. -1.
    5000001    1    1    2    0    0 -0.10258821761E+03  0.10322460445E+01  0.56003461374E+03  0.58334653210E+03  0.12700000000E+03 0.  0.
   -5000001    1    1    2    0    0  0.10258821761E+03 -0.10322460445E+01  0.82190901303E+03  0.83796708385E+03  0.12700000000E+03 0.  0.
<mgrwt>
<rscale>  0 0.33221109E+03</rscale>
<asrwt>0</asrwt>
<pdfrwt beam="1">  1        2 0.20023264E+00 0.33221109E+03</pdfrwt>
<pdfrwt beam="2">  1       -2 0.28121423E-02 0.33221109E+03</pdfrwt>
<totfact> 0.82026591E+03</totfact>
</mgrwt>
</event>
<event>
 4    1  0.1383574E-004  0.4462212E+03  0.7818608E-02  0.1028855E+00
         -2   -1    0    0    0  501 -0.00000000000E+00  0.00000000000E+00  0.50408916929E+02  0.50408916994E+02  0.25500000000E-02 0. -1.
          2   -1    0    0  501    0  0.00000000000E+00 -0.00000000000E+00 -0.98749091774E+03  0.98749091774E+03  0.25500000000E-02 0.  1.
    5000001    1    1    2    0    0 -0.52845031142E+02 -0.17425115483E+03 -0.52020099305E+03  0.56559184528E+03  0.12700000000E+03 0.  0.
   -5000001    1    1    2    0    0  0.52845031142E+02  0.17425115483E+03 -0.41688100776E+03  0.47230798946E+03  0.12700000000E+03 0.  0.
<mgrwt>
<rscale>  0 0.44622124E+03</rscale>
<asrwt>0</asrwt>
<pdfrwt beam="1">  1        2 0.14107012E+00 0.44622124E+03</pdfrwt>
<pdfrwt beam="2">  1       -2 0.72012744E-02 0.44622124E+03</pdfrwt>
<totfact> 0.33198823E+03</totfact>
</mgrwt>
</event>
<event>
 4    1  0.1383574E-004  0.4518410E+03  0.7818608E-02  0.1027174E+00
         -2   -1    0    0    0  501 -0.00000000000E+00  0.00000000000E+00  0.26014046748E+02  0.26014046873E+02  0.25500000000E-02 0. -1.
          2   -1    0    0  501    0  0.00000000000E+00 -0.00000000000E+00 -0.19620195767E+04  0.19620195767E+04  0.25500000000E-02 0.  1.
    5000001    1    1    2    0    0  0.11563820160E+03 -0.13079585627E+03 -0.12608928237E+04  0.12792417529E+04  0.12700000000E+03 0.  0.
   -5000001    1    1    2    0    0 -0.11563820160E+03  0.13079585627E+03 -0.67511270626E+03  0.70879187061E+03  0.12700000000E+03 0.  0.
<mgrwt>
<rscale>  0 0.45184099E+03</rscale>
<asrwt>0</asrwt>
<pdfrwt beam="1">  1        2 0.28028842E+00 0.45184099E+03</pdfrwt>
<pdfrwt beam="2">  1       -2 0.37162936E-02 0.45184099E+03</pdfrwt>
<totfact> 0.28163154E+03</totfact>
</mgrwt>
</event>
<event>
 4    1  0.1383574E-004  0.3937659E+03  0.7818608E-02  0.1045960E+00
         -2   -1    0    0    0  501 -0.00000000000E+00  0.00000000000E+00  0.37556090304E+03  0.37556090305E+03  0.25500000000E-02 0. -1.
          2   -1    0    0  501    0  0.00000000000E+00 -0.00000000000E+00 -0.10321335067E+03  0.10321335070E+03  0.25500000000E-02 0.  1.
    5000001    1    1    2    0    0  0.93356192485E+02 -0.87795082501E+02  0.23199406780E+03  0.29389386295E+03  0.12700000000E+03 0.  0.
   -5000001    1    1    2    0    0 -0.93356192485E+02  0.87795082501E+02  0.40353484573E+02  0.18488039080E+03  0.12700000000E+03 0.  0.
<mgrwt>
<rscale>  0 0.39376592E+03</rscale>
<asrwt>0</asrwt>
<pdfrwt beam="1">  1        2 0.14744764E-01 0.39376592E+03</pdfrwt>
<pdfrwt beam="2">  1       -2 0.53651558E-01 0.39376592E+03</pdfrwt>
<totfact> 0.13351047E+03</totfact>
</mgrwt>
</event>
<event>
 4    1  0.1383574E-004  0.4685362E+03  0.7818608E-02  0.1022334E+00
          2   -1    0    0  501    0  0.00000000000E+00  0.00000000000E+00  0.24992733763E+04  0.24992733763E+04  0.25500000000E-02 0.  1.
         -2   -1    0    0    0  501 -0.00000000000E+00 -0.00000000000E+00 -0.21959003778E+02  0.21959003927E+02  0.25500000000E-02 0. -1.
    5000001    1    1    2    0    0 -0.44653916409E+02 -0.18623652525E+03  0.14837498944E+04  0.15014395642E+04  0.12700000000E+03 0.  0.
   -5000001    1    1    2    0    0  0.44653916409E+02  0.18623652525E+03  0.99356447809E+03  0.10197928161E+04  0.12700000000E+03 0.  0.
<mgrwt>
<rscale>  0 0.46853625E+03</rscale>
<asrwt>0</asrwt>
<pdfrwt beam="1">  1        2 0.35703878E+00 0.46853625E+03</pdfrwt>
<pdfrwt beam="2">  1       -2 0.31370030E-02 0.46853625E+03</pdfrwt>
<totfact> 0.19585811E+03</totfact>
</mgrwt>
</event>
<event>
 4    1  0.1383574E-004  0.3958523E+03  0.7818608E-02  0.1045225E+00
          2   -1    0    0  501    0  0.00000000000E+00  0.00000000000E+00  0.90203289367E+03  0.90203289368E+03  0.25500000000E-02 0.  1.
         -2   -1    0    0    0  501 -0.00000000000E+00 -0.00000000000E+00 -0.43429418173E+02  0.43429418248E+02  0.25500000000E-02 0. -1.
    5000001    1    1    2    0    0  0.10766952950E+03 -0.10700329468E+03  0.43366093675E+03  0.47668987897E+03  0.12700000000E+03 0.  0.
   -5000001    1    1    2    0    0 -0.10766952950E+03  0.10700329468E+03  0.42494253875E+03  0.46877243295E+03  0.12700000000E+03 0.  0.
<mgrwt>
<rscale>  0 0.39585231E+03</rscale>
<asrwt>0</asrwt>
<pdfrwt beam="1">  1        2 0.12886184E+00 0.39585231E+03</pdfrwt>
<pdfrwt beam="2">  1       -2 0.62042027E-02 0.39585231E+03</pdfrwt>
<totfact> 0.47278767E+03</totfact>
</mgrwt>
</event>
<event>
 4    1  0.1383574E-004  0.1273479E+04  0.7818608E-02  0.9050865E-01
         -2   -1    0    0    0  501 -0.00000000000E+00  0.00000000000E+00  0.74496470269E+03  0.74496470269E+03  0.25500000000E-02 0. -1.
          2   -1    0    0  501    0  0.00000000000E+00 -0.00000000000E+00 -0.54423656747E+03  0.54423656747E+03  0.25500000000E-02 0.  1.
    5000001    1    1    2    0    0 -0.37453506280E+02  0.57487496173E+03  0.34295575530E+03  0.68237206629E+03  0.12700000000E+03 0.  0.
   -5000001    1    1    2    0    0  0.37453506280E+02 -0.57487496173E+03 -0.14222762008E+03  0.60682920387E+03  0.12700000000E+03 0.  0.
<mgrwt>
<rscale>  0 0.12734788E+04</rscale>
<asrwt>0</asrwt>
<pdfrwt beam="1">  1        2 0.77748081E-01 0.12734788E+04</pdfrwt>
<pdfrwt beam="2">  1       -2 0.10642353E+00 0.12734788E+04</pdfrwt>
<totfact> 0.42591316E+01</totfact>
</mgrwt>
</event>
<event>
 4    1  0.1383574E-004  0.3774378E+03  0.7818608E-02  0.1051885E+00
          2   -1    0    0  501    0  0.00000000000E+00  0.00000000000E+00  0.19802612971E+04  0.19802612971E+04  0.25500000000E-02 0.  1.
         -2   -1    0    0    0  501 -0.00000000000E+00 -0.00000000000E+00 -0.17984914472E+02  0.17984914653E+02  0.25500000000E-02 0. -1.
    5000001    1    1    2    0    0 -0.13210599419E+03 -0.10729368942E+02  0.12130426218E+04  0.12268530945E+04  0.12700000000E+03 0.  0.
   -5000001    1    1    2    0    0  0.13210599419E+03  0.10729368942E+02  0.74923376077E+03  0.77139311725E+03  0.12700000000E+03 0.  0.
<mgrwt>
<rscale>  0 0.37743784E+03</rscale>
<asrwt>0</asrwt>
<pdfrwt beam="1">  1        2 0.28289424E+00 0.37743784E+03</pdfrwt>
<pdfrwt beam="2">  1       -2 0.25692756E-02 0.37743784E+03</pdfrwt>
<totfact> 0.48193927E+03</totfact>
</mgrwt>
</event>
<event>
 4    1  0.1383574E-004  0.3153471E+03  0.7818608E-02  0.1077811E+00
          2   -1    0    0  501    0  0.00000000000E+00  0.00000000000E+00  0.39153315324E+04  0.39153315324E+04  0.25500000000E-02 0.  1.
         -2   -1    0    0    0  501 -0.00000000000E+00 -0.00000000000E+00 -0.63496411026E+01  0.63496416146E+01  0.25500000000E-02 0. -1.
    5000001    1    1    2    0    0 -0.91551105611E+02  0.10492829284E+02  0.17617330972E+04  0.17687069317E+04  0.12700000000E+03 0.  0.
   -5000001    1    1    2    0    0  0.91551105611E+02 -0.10492829284E+02  0.21472487941E+04  0.21529742423E+04  0.12700000000E+03 0.  0.
<mgrwt>
<rscale>  0 0.31534712E+03</rscale>
<asrwt>0</asrwt>
<pdfrwt beam="1">  1        2 0.55933423E+00 0.31534712E+03</pdfrwt>
<pdfrwt beam="2">  1       -2 0.90708975E-03 0.31534712E+03</pdfrwt>
<totfact> 0.20056690E+03</totfact>
</mgrwt>
</event>
<event>
 4    1  0.1383574E-004  0.2990502E+03  0.7818608E-02  0.1085716E+00
         -2   -1    0    0    0  501 -0.00000000000E+00  0.00000000000E+00  0.32592728084E+03  0.32592728085E+03  0.25500000000E-02 0. -1.
          2   -1    0    0  501    0  0.00000000000E+00 -0.00000000000E+00 -0.68597376755E+02  0.68597376802E+02  0.25500000000E-02 0.  1.
    5000001    1    1    2    0    0 -0.75016077690E+02  0.23478096672E+02  0.13800504019E+03  0.20335442964E+03  0.12700000000E+03 0.  0.
   -5000001    1    1    2    0    0  0.75016077690E+02 -0.23478096672E+02  0.11932486389E+03  0.19117022801E+03  0.12700000000E+03 0.  0.
<mgrwt>
<rscale>  0 0.29905021E+03</rscale>
<asrwt>0</asrwt>
<pdfrwt beam="1">  1        2 0.97996253E-02 0.29905021E+03</pdfrwt>
<pdfrwt beam="2">  1       -2 0.46561040E-01 0.29905021E+03</pdfrwt>
<totfact> 0.29100646E+03</totfact>
</mgrwt>
</event>
<event>
 4    1  0.1383574E-004  0.2711086E+03  0.7818608E-02  0.1100647E+00
          2   -1    0    0  501    0  0.00000000000E+00  0.00000000000E+00  0.68347743322E+02  0.68347743370E+02  0.25500000000E-02 0.  1.
         -2   -1    0    0    0  501 -0.00000000000E+00 -0.00000000000E+00 -0.26884534292E+03  0.26884534293E+03  0.25500000000E-02 0. -1.
    5000001    1    1    2    0    0  0.44386667501E+02 -0.60844469140E+01 -0.81029815571E+02  0.15716878748E+03  0.12700000000E+03 0.  0.
   -5000001    1    1    2    0    0 -0.44386667501E+02  0.60844469140E+01 -0.11946778402E+03  0.18002429882E+03  0.12700000000E+03 0.  0.
<mgrwt>
<rscale>  0 0.27110863E+03</rscale>
<asrwt>0</asrwt>
<pdfrwt beam="1">  1        2 0.97639635E-02 0.27110863E+03</pdfrwt>
<pdfrwt beam="2">  1       -2 0.38406477E-01 0.27110863E+03</pdfrwt>
<totfact> 0.42275117E+03</totfact>
</mgrwt>
</event>
<event>
 4    1  0.1383574E-004  0.5892964E+03  0.7818608E-02  0.9927865E-01
         -2   -1    0    0    0  501 -0.00000000000E+00  0.00000000000E+00  0.41747582976E+03  0.41747582977E+03  0.25500000000E-02 0. -1.
          2   -1    0    0  501    0  0.00000000000E+00 -0.00000000000E+00 -0.20795829543E+03  0.20795829544E+03  0.25500000000E-02 0.  1.
    5000001    1    1    2    0    0 -0.12515933759E+03  0.18789135777E+03 -0.44282723256E+02  0.26278885382E+03  0.12700000000E+03 0.  0.
   -5000001    1    1    2    0    0  0.12515933759E+03 -0.18789135777E+03  0.25380025759E+03  0.36264527139E+03  0.12700000000E+03 0.  0.
<mgrwt>
<rscale>  0 0.58929640E+03</rscale>
<asrwt>0</asrwt>
<pdfrwt beam="1">  1        2 0.29708328E-01 0.58929640E+03</pdfrwt>
<pdfrwt beam="2">  1       -2 0.59639404E-01 0.58929640E+03</pdfrwt>
<totfact> 0.47605637E+02</totfact>
</mgrwt>
</event>
<event>
 4    1  0.1383574E-004  0.3102317E+03  0.7818608E-02  0.1080235E+00
          2   -1    0    0  501    0  0.00000000000E+00  0.00000000000E+00  0.54965658743E+03  0.54965658744E+03  0.25500000000E-02 0.  1.
         -2   -1    0    0    0  501 -0.00000000000E+00 -0.00000000000E+00 -0.43774469885E+02  0.43774469960E+02  0.25500000000E-02 0. -1.
    5000001    1    1    2    0    0 -0.48943489948E+02 -0.67662825114E+02  0.31215347625E+03  0.34719233264E+03  0.12700000000E+03 0.  0.
   -5000001    1    1    2    0    0  0.48943489948E+02  0.67662825114E+02  0.19372864130E+03  0.24623872476E+03  0.12700000000E+03 0.  0.
<mgrwt>
<rscale>  0 0.31023169E+03</rscale>
<asrwt>0</asrwt>
<pdfrwt beam="1">  1        2 0.78522366E-01 0.31023169E+03</pdfrwt>
<pdfrwt beam="2">  1       -2 0.62534960E-02 0.31023169E+03</pdfrwt>
<totfact> 0.84451608E+03</totfact>
</mgrwt>
</event>
<event>
 4    1  0.1383574E-004  0.4118188E+03  0.7818608E-02  0.1039762E+00
         -2   -1    0    0    0  501 -0.00000000000E+00  0.00000000000E+00  0.25206690357E+02  0.25206690486E+02  0.25500000000E-02 0. -1.
          2   -1    0    0  501    0  0.00000000000E+00 -0.00000000000E+00 -0.16820408494E+04  0.16820408494E+04  0.25500000000E-02 0.  1.
    5000001    1    1    2    0    0 -0.16062195798E+03 -0.20868377235E+02 -0.85286588827E+03  0.87735062885E+03  0.12700000000E+03 0.  0.
   -5000001    1    1    2    0    0  0.16062195798E+03  0.20868377235E+02 -0.80396827076E+03  0.82989691103E+03  0.12700000000E+03 0.  0.
<mgrwt>
<rscale>  0 0.41181881E+03</rscale>
<asrwt>0</asrwt>
<pdfrwt beam="1">  1        2 0.24029148E+00 0.41181881E+03</pdfrwt>
<pdfrwt beam="2">  1       -2 0.36009568E-02 0.41181881E+03</pdfrwt>
<totfact> 0.40778387E+03</totfact>
</mgrwt>
</event>
<event>
 4    1  0.1383574E-004  0.3704925E+03  0.7818608E-02  0.1054505E+00
          2   -1    0    0  501    0  0.00000000000E+00  0.00000000000E+00  0.16778795506E+04  0.16778795506E+04  0.25500000000E-02 0.  1.
         -2   -1    0    0    0  501 -0.00000000000E+00 -0.00000000000E+00 -0.20452110124E+02  0.20452110283E+02  0.25500000000E-02 0. -1.
    5000001    1    1    2    0    0 -0.87774326549E+02  0.10156365585E+03  0.88807035925E+03  0.90709286821E+03  0.12700000000E+03 0.  0.
   -5000001    1    1    2    0    0  0.87774326549E+02 -0.10156365585E+03  0.76935708118E+03  0.79123879263E+03  0.12700000000E+03 0.  0.
<mgrwt>
<rscale>  0 0.37049252E+03</rscale>
<asrwt>0</asrwt>
<pdfrwt beam="1">  1        2 0.23969712E+00 0.37049252E+03</pdfrwt>
<pdfrwt beam="2">  1       -2 0.29217295E-02 0.37049252E+03</pdfrwt>
<totfact> 0.56146060E+03</totfact>
</mgrwt>
</event>
<event>
 4    1  0.1383574E-004  0.3202793E+03  0.7818608E-02  0.1075521E+00
          2   -1    0    0  501    0  0.00000000000E+00  0.00000000000E+00  0.92120215494E+03  0.92120215495E+03  0.25500000000E-02 0.  1.
         -2   -1    0    0    0  501 -0.00000000000E+00 -0.00000000000E+00 -0.27838300928E+02  0.27838301044E+02  0.25500000000E-02 0. -1.
    5000001    1    1    2    0    0 -0.86334727106E+02  0.44144639817E+02  0.41514564202E+03  0.44483405717E+03  0.12700000000E+03 0.  0.
   -5000001    1    1    2    0    0  0.86334727106E+02 -0.44144639817E+02  0.47821821199E+03  0.50420639882E+03  0.12700000000E+03 0.  0.
<mgrwt>
<rscale>  0 0.32027927E+03</rscale>
<asrwt>0</asrwt>
<pdfrwt beam="1">  1        2 0.13160032E+00 0.32027927E+03</pdfrwt>
<pdfrwt beam="2">  1       -2 0.39768997E-02 0.32027927E+03</pdfrwt>
<totfact> 0.90423697E+03</totfact>
</mgrwt>
</event>
<event>
 4    1  0.1383574E-004  0.3427844E+03  0.7818608E-02  0.1065616E+00
         -2   -1    0    0    0  501 -0.00000000000E+00  0.00000000000E+00  0.37333944606E+02  0.37333944693E+02  0.25500000000E-02 0. -1.
          2   -1    0    0  501    0  0.00000000000E+00 -0.00000000000E+00 -0.78682509870E+03  0.78682509871E+03  0.25500000000E-02 0.  1.
    5000001    1    1    2    0    0 -0.10822665694E+03 -0.37489537628E+02 -0.34756414205E+03  0.38736069437E+03  0.12700000000E+03 0.  0.
   -5000001    1    1    2    0    0  0.10822665694E+03  0.37489537628E+02 -0.40192701205E+03  0.43679834903E+03  0.12700000000E+03 0.  0.
<mgrwt>
<rscale>  0 0.34278439E+03</rscale>
<asrwt>0</asrwt>
<pdfrwt beam="1">  1        2 0.11240358E+00 0.34278439E+03</pdfrwt>
<pdfrwt beam="2">  1       -2 0.53334211E-02 0.34278439E+03</pdfrwt>
<totfact> 0.70899647E+03</totfact>
</mgrwt>
</event>
<event>
 4    1  0.1383574E-004  0.3922145E+03  0.7818608E-02  0.1046509E+00
         -2   -1    0    0    0  501 -0.00000000000E+00  0.00000000000E+00  0.53229762778E+03  0.53229762778E+03  0.25500000000E-02 0. -1.
          2   -1    0    0  501    0  0.00000000000E+00 -0.00000000000E+00 -0.72249155237E+02  0.72249155282E+02  0.25500000000E-02 0.  1.
    5000001    1    1    2    0    0 -0.10090573583E+02 -0.11017297192E+03  0.75201917443E+02  0.18445658515E+03  0.12700000000E+03 0.  0.
   -5000001    1    1    2    0    0  0.10090573583E+02  0.11017297192E+03  0.38484655510E+03  0.42009019792E+03  0.12700000000E+03 0.  0.
<mgrwt>
<rscale>  0 0.39221450E+03</rscale>
<asrwt>0</asrwt>
<pdfrwt beam="1">  1        2 0.10321308E-01 0.39221450E+03</pdfrwt>
<pdfrwt beam="2">  1       -2 0.76042515E-01 0.39221450E+03</pdfrwt>
<totfact> 0.98863241E+02</totfact>
</mgrwt>
</event>
<event>
 4    1  0.1383574E-004  0.3440297E+03  0.7818608E-02  0.1065093E+00
          2   -1    0    0  501    0  0.00000000000E+00  0.00000000000E+00  0.21786092801E+04  0.21786092801E+04  0.25500000000E-02 0.  1.
         -2   -1    0    0    0  501 -0.00000000000E+00 -0.00000000000E+00 -0.13581650201E+02  0.13581650440E+02  0.25500000000E-02 0. -1.
    5000001    1    1    2    0    0  0.97714034918E+02  0.21507521923E+02  0.70826475588E+03  0.72648370287E+03  0.12700000000E+03 0.  0.
   -5000001    1    1    2    0    0 -0.97714034918E+02 -0.21507521923E+02  0.14567628740E+04  0.14657072277E+04  0.12700000000E+03 0.  0.
<mgrwt>
<rscale>  0 0.34402970E+03</rscale>
<asrwt>0</asrwt>
<pdfrwt beam="1">  1        2 0.31122997E+00 0.34402970E+03</pdfrwt>
<pdfrwt beam="2">  1       -2 0.19402353E-02 0.34402970E+03</pdfrwt>
<totfact> 0.58435605E+03</totfact>
</mgrwt>
</event>
<event>
 4    1  0.1383574E-004  0.3723952E+03  0.7818608E-02  0.1053781E+00
         -2   -1    0    0    0  501 -0.00000000000E+00  0.00000000000E+00  0.37350447432E+02  0.37350447519E+02  0.25500000000E-02 0. -1.
          2   -1    0    0  501    0  0.00000000000E+00 -0.00000000000E+00 -0.92822325701E+03  0.92822325701E+03  0.25500000000E-02 0.  1.
    5000001    1    1    2    0    0 -0.13484690778E+03 -0.17621577800E+02 -0.42778476963E+03  0.46650082280E+03  0.12700000000E+03 0.  0.
   -5000001    1    1    2    0    0  0.13484690778E+03  0.17621577800E+02 -0.46308803994E+03  0.49907288173E+03  0.12700000000E+03 0.  0.
<mgrwt>
<rscale>  0 0.37239524E+03</rscale>
<asrwt>0</asrwt>
<pdfrwt beam="1">  1        2 0.13260331E+00 0.37239524E+03</pdfrwt>
<pdfrwt beam="2">  1       -2 0.53357788E-02 0.37239524E+03</pdfrwt>
<totfact> 0.57403161E+03</totfact>
</mgrwt>
</event>
<event>
 4    1  0.1383574E-004  0.2863783E+03  0.7818608E-02  0.1092255E+00
         -2   -1    0    0    0  501 -0.00000000000E+00  0.00000000000E+00  0.10801020598E+02  0.10801020899E+02  0.25500000000E-02 0. -1.
          2   -1    0    0  501    0  0.00000000000E+00 -0.00000000000E+00 -0.18982590035E+04  0.18982590035E+04  0.25500000000E-02 0.  1.
    5000001    1    1    2    0    0 -0.41025621566E+02 -0.50686958504E+02 -0.10173191670E+04  0.10272874753E+04  0.12700000000E+03 0.  0.
   -5000001    1    1    2    0    0  0.41025621566E+02  0.50686958504E+02 -0.87013881598E+03  0.88177254916E+03  0.12700000000E+03 0.  0.
<mgrwt>
<rscale>  0 0.28637832E+03</rscale>
<asrwt>0</asrwt>
<pdfrwt beam="1">  1        2 0.27117965E+00 0.28637832E+03</pdfrwt>
<pdfrwt beam="2">  1       -2 0.15430042E-02 0.28637832E+03</pdfrwt>
<totfact> 0.11220510E+04</totfact>
</mgrwt>
</event>
<event>
 4    1  0.1383574E-004  0.6267232E+03  0.7818608E-02  0.9851464E-01
         -2   -1    0    0    0  501 -0.00000000000E+00  0.00000000000E+00  0.36427827901E+02  0.36427827990E+02  0.25500000000E-02 0. -1.
          2   -1    0    0  501    0  0.00000000000E+00 -0.00000000000E+00 -0.26956177396E+04  0.26956177396E+04  0.25500000000E-02 0.  1.
    5000001    1    1    2    0    0 -0.14137326389E+03 -0.14140184421E+03 -0.43530365568E+03  0.49557961413E+03  0.12700000000E+03 0.  0.
   -5000001    1    1    2    0    0  0.14137326389E+03  0.14140184421E+03 -0.22238862561E+04  0.22364659535E+04  0.12700000000E+03 0.  0.
<mgrwt>
<rscale>  0 0.62672322E+03</rscale>
<asrwt>0</asrwt>
<pdfrwt beam="1">  1        2 0.38508812E+00 0.62672322E+03</pdfrwt>
<pdfrwt beam="2">  1       -2 0.52039771E-02 0.62672322E+03</pdfrwt>
<totfact> 0.70524890E+02</totfact>
</mgrwt>
</event>
<event>
 4    1  0.1383574E-004  0.3879510E+03  0.7818608E-02  0.1048034E+00
         -2   -1    0    0    0  501 -0.00000000000E+00  0.00000000000E+00  0.49589613571E+02  0.49589613637E+02  0.25500000000E-02 0. -1.
          2   -1    0    0  501    0  0.00000000000E+00 -0.00000000000E+00 -0.75875752195E+03  0.75875752196E+03  0.25500000000E-02 0.  1.
    5000001    1    1    2    0    0  0.10724215555E+03  0.10581148219E+02 -0.56174196247E+03  0.58591456120E+03  0.12700000000E+03 0.  0.
   -5000001    1    1    2    0    0 -0.10724215555E+03 -0.10581148219E+02 -0.14742594591E+03  0.22243257440E+03  0.12700000000E+03 0.  0.
<mgrwt>
<rscale>  0 0.38795099E+03</rscale>
<asrwt>0</asrwt>
<pdfrwt beam="1">  1        2 0.10839392E+00 0.38795099E+03</pdfrwt>
<pdfrwt beam="2">  1       -2 0.70842310E-02 0.38795099E+03</pdfrwt>
<totfact> 0.47907124E+03</totfact>
</mgrwt>
</event>
<event>
 4    1  0.1383574E-004  0.7475414E+03  0.7818608E-02  0.9639215E-01
          2   -1    0    0  501    0  0.00000000000E+00  0.00000000000E+00  0.13895822507E+04  0.13895822507E+04  0.25500000000E-02 0.  1.
         -2   -1    0    0    0  501 -0.00000000000E+00 -0.00000000000E+00 -0.10053708078E+03  0.10053708081E+03  0.25500000000E-02 0. -1.
    5000001    1    1    2    0    0  0.11810367880E+03  0.30007532824E+03  0.92346385592E+03  0.98636107727E+03  0.12700000000E+03 0.  0.
   -5000001    1    1    2    0    0 -0.11810367880E+03 -0.30007532824E+03  0.36558131397E+03  0.50375825422E+03  0.12700000000E+03 0.  0.
<mgrwt>
<rscale>  0 0.74754142E+03</rscale>
<asrwt>0</asrwt>
<pdfrwt beam="1">  1        2 0.19851174E+00 0.74754142E+03</pdfrwt>
<pdfrwt beam="2">  1       -2 0.14362441E-01 0.74754142E+03</pdfrwt>
<totfact> 0.63697335E+02</totfact>
</mgrwt>
</event>
<event>
 4    1  0.1383574E-004  0.4667049E+03  0.7818608E-02  0.1022854E+00
          2   -1    0    0  501    0  0.00000000000E+00  0.00000000000E+00  0.27172113816E+03  0.27172113817E+03  0.25500000000E-02 0.  1.
         -2   -1    0    0    0  501 -0.00000000000E+00 -0.00000000000E+00 -0.20040162176E+03  0.20040162177E+03  0.25500000000E-02 0. -1.
    5000001    1    1    2    0    0  0.13858727422E+03  0.60066554994E+02  0.16164439150E+03  0.25509279274E+03  0.12700000000E+03 0.  0.
   -5000001    1    1    2    0    0 -0.13858727422E+03 -0.60066554994E+02 -0.90324875098E+02  0.21702996721E+03  0.12700000000E+03 0.  0.
<mgrwt>
<rscale>  0 0.46670486E+03</rscale>
<asrwt>0</asrwt>
<pdfrwt beam="1">  1        2 0.38817306E-01 0.46670486E+03</pdfrwt>
<pdfrwt beam="2">  1       -2 0.28628803E-01 0.46670486E+03</pdfrwt>
<totfact> 0.14829478E+03</totfact>
</mgrwt>
</event>
<event>
 4    1  0.1383574E-004  0.4109889E+03  0.7818608E-02  0.1040040E+00
          2   -1    0    0  501    0  0.00000000000E+00  0.00000000000E+00  0.12740756697E+04  0.12740756697E+04  0.25500000000E-02 0.  1.
         -2   -1    0    0    0  501 -0.00000000000E+00 -0.00000000000E+00 -0.33144005727E+02  0.33144005826E+02  0.25500000000E-02 0. -1.
    5000001    1    1    2    0    0  0.17829625455E+02  0.85207059274E+02  0.18760456382E+03  0.24269860086E+03  0.12700000000E+03 0.  0.
   -5000001    1    1    2    0    0 -0.17829625455E+02 -0.85207059274E+02  0.10533271001E+04  0.10645210746E+04  0.12700000000E+03 0.  0.
<mgrwt>
<rscale>  0 0.41098891E+03</rscale>
<asrwt>0</asrwt>
<pdfrwt beam="1">  1        2 0.18201078E+00 0.41098891E+03</pdfrwt>
<pdfrwt beam="2">  1       -2 0.47348588E-02 0.41098891E+03</pdfrwt>
<totfact> 0.43683937E+03</totfact>
</mgrwt>
</event>
<event>
 4    1  0.1383574E-004  0.3688308E+03  0.7818608E-02  0.1055141E+00
         -2   -1    0    0    0  501 -0.00000000000E+00  0.00000000000E+00  0.13607333563E+04  0.13607333563E+04  0.25500000000E-02 0. -1.
          2   -1    0    0  501    0  0.00000000000E+00 -0.00000000000E+00 -0.24993174988E+02  0.24993175118E+02  0.25500000000E-02 0.  1.
    5000001    1    1    2    0    0  0.17692996130E+02  0.11549311147E+03  0.91217689776E+03  0.92835736315E+03  0.12700000000E+03 0.  0.
   -5000001    1    1    2    0    0 -0.17692996130E+02 -0.11549311147E+03  0.42356328354E+03  0.45736916825E+03  0.12700000000E+03 0.  0.
<mgrwt>
<rscale>  0 0.36883084E+03</rscale>
<asrwt>0</asrwt>
<pdfrwt beam="1">  1        2 0.35704530E-02 0.36883084E+03</pdfrwt>
<pdfrwt beam="2">  1       -2 0.19439051E+00 0.36883084E+03</pdfrwt>
<totfact> 0.38814808E+02</totfact>
</mgrwt>
</event>
<event>
 4    1  0.1383574E-004  0.3062144E+03  0.7818608E-02  0.1082175E+00
         -2   -1    0    0    0  501 -0.00000000000E+00  0.00000000000E+00  0.91990745977E+01  0.91990749512E+01  0.25500000000E-02 0. -1.
          2   -1    0    0  501    0  0.00000000000E+00 -0.00000000000E+00 -0.25482789648E+04  0.25482789648E+04  0.25500000000E-02 0.  1.
    5000001    1    1    2    0    0 -0.37146302666E+02 -0.71560901498E+02 -0.10315470872E+04  0.10424582503E+04  0.12700000000E+03 0.  0.
   -5000001    1    1    2    0    0  0.37146302666E+02  0.71560901498E+02 -0.15075328029E+04  0.15150197894E+04  0.12700000000E+03 0.  0.
<mgrwt>
<rscale>  0 0.30621436E+03</rscale>
<asrwt>0</asrwt>
<pdfrwt beam="1">  1        2 0.36403940E+00 0.30621436E+03</pdfrwt>
<pdfrwt beam="2">  1       -2 0.13141552E-02 0.30621436E+03</pdfrwt>
<totfact> 0.67910998E+03</totfact>
</mgrwt>
</event>
<event>
 4    1  0.1383574E-004  0.5891640E+03  0.7818608E-02  0.9928146E-01
          2   -1    0    0  501    0  0.00000000000E+00  0.00000000000E+00  0.18706869467E+04  0.18706869467E+04  0.25500000000E-02 0.  1.
         -2   -1    0    0    0  501 -0.00000000000E+00 -0.00000000000E+00 -0.46388607056E+02  0.46388607126E+02  0.25500000000E-02 0. -1.
    5000001    1    1    2    0    0  0.12069071965E+03 -0.16871649663E+03  0.14529029453E+04  0.14731216767E+04  0.12700000000E+03 0.  0.
   -5000001    1    1    2    0    0 -0.12069071965E+03  0.16871649663E+03  0.37139539441E+03  0.44395387714E+03  0.12700000000E+03 0.  0.
<mgrwt>
<rscale>  0 0.58916402E+03</rscale>
<asrwt>0</asrwt>
<pdfrwt beam="1">  1        2 0.26724099E+00 0.58916402E+03</pdfrwt>
<pdfrwt beam="2">  1       -2 0.66269440E-02 0.58916402E+03</pdfrwt>
<totfact> 0.12720550E+03</totfact>
</mgrwt>
</event>
<event>
 4    1  0.1383574E-004  0.2979461E+03  0.7818608E-02  0.1086272E+00
          2   -1    0    0  501    0  0.00000000000E+00  0.00000000000E+00  0.10413239879E+03  0.10413239882E+03  0.25500000000E-02 0.  1.
         -2   -1    0    0    0  501 -0.00000000000E+00 -0.00000000000E+00 -0.21312266351E+03  0.21312266353E+03  0.25500000000E-02 0. -1.
    5000001    1    1    2    0    0  0.45547490666E+02  0.62567143532E+02 -0.45288842207E+02  0.15546478889E+03  0.12700000000E+03 0.  0.
   -5000001    1    1    2    0    0 -0.45547490666E+02 -0.62567143532E+02 -0.63701422517E+02  0.16179027346E+03  0.12700000000E+03 0.  0.
<mgrwt>
<rscale>  0 0.29794613E+03</rscale>
<asrwt>0</asrwt>
<pdfrwt beam="1">  1        2 0.14876057E-01 0.29794613E+03</pdfrwt>
<pdfrwt beam="2">  1       -2 0.30446095E-01 0.29794613E+03</pdfrwt>
<totfact> 0.39104226E+03</totfact>
</mgrwt>
</event>
<event>
 4    1  0.1383574E-004  0.4194781E+03  0.7818608E-02  0.1037236E+00
         -2   -1    0    0    0  501 -0.00000000000E+00  0.00000000000E+00  0.30341123418E+02  0.30341123525E+02  0.25500000000E-02 0. -1.
          2   -1    0    0  501    0  0.00000000000E+00 -0.00000000000E+00 -0.14498628559E+04  0.14498628559E+04  0.25500000000E-02 0.  1.
    5000001    1    1    2    0    0  0.12396287489E+03  0.10311877886E+03 -0.86199349808E+03  0.88609371267E+03  0.12700000000E+03 0.  0.
   -5000001    1    1    2    0    0 -0.12396287489E+03 -0.10311877886E+03 -0.55752823436E+03  0.59411026672E+03  0.12700000000E+03 0.  0.
<mgrwt>
<rscale>  0 0.41947809E+03</rscale>
<asrwt>0</asrwt>
<pdfrwt beam="1">  1        2 0.20712322E+00 0.41947809E+03</pdfrwt>
<pdfrwt beam="2">  1       -2 0.43344471E-02 0.41947809E+03</pdfrwt>
<totfact> 0.40383867E+03</totfact>
</mgrwt>
</event>
<event>
 4    1  0.1383574E-004  0.3549976E+03  0.7818608E-02  0.1060582E+00
          2   -1    0    0  501    0  0.00000000000E+00  0.00000000000E+00  0.43298315226E+03  0.43298315227E+03  0.25500000000E-02 0.  1.
         -2   -1    0    0    0  501 -0.00000000000E+00 -0.00000000000E+00 -0.72764535379E+02  0.72764535423E+02  0.25500000000E-02 0. -1.
    5000001    1    1    2    0    0  0.11458299570E+03 -0.13800708505E+02  0.24472466620E+03  0.29889611022E+03  0.12700000000E+03 0.  0.
   -5000001    1    1    2    0    0 -0.11458299570E+03  0.13800708505E+02  0.11549395069E+03  0.20685157748E+03  0.12700000000E+03 0.  0.
<mgrwt>
<rscale>  0 0.35499757E+03</rscale>
<asrwt>0</asrwt>
<pdfrwt beam="1">  1        2 0.61854738E-01 0.35499757E+03</pdfrwt>
<pdfrwt beam="2">  1       -2 0.10394933E-01 0.35499757E+03</pdfrwt>
<totfact> 0.49719964E+03</totfact>
</mgrwt>
</event>
<event>
 4    1  0.1383574E-004  0.3094470E+03  0.7818608E-02  0.1080611E+00
          2   -1    0    0  501    0  0.00000000000E+00  0.00000000000E+00  0.79593345822E+03  0.79593345822E+03  0.25500000000E-02 0.  1.
         -2   -1    0    0    0  501 -0.00000000000E+00 -0.00000000000E+00 -0.30077090081E+02  0.30077090189E+02  0.25500000000E-02 0. -1.
    5000001    1    1    2    0    0  0.78184849528E+02  0.14775389057E+02  0.48559019228E+03  0.50819092638E+03  0.12700000000E+03 0.  0.
   -5000001    1    1    2    0    0 -0.78184849528E+02 -0.14775389057E+02  0.28026617585E+03  0.31781962203E+03  0.12700000000E+03 0.  0.
<mgrwt>
<rscale>  0 0.30944701E+03</rscale>
<asrwt>0</asrwt>
<pdfrwt beam="1">  1        2 0.11370478E+00 0.30944701E+03</pdfrwt>
<pdfrwt beam="2">  1       -2 0.42967273E-02 0.30944701E+03</pdfrwt>
<totfact> 0.96866292E+03</totfact>
</mgrwt>
</event>
<event>
 4    1  0.1383574E-004  0.3720493E+03  0.7818608E-02  0.1053912E+00
         -2   -1    0    0    0  501 -0.00000000000E+00  0.00000000000E+00  0.86304403303E+02  0.86304403341E+02  0.25500000000E-02 0.  1.
          2   -1    0    0  501    0  0.00000000000E+00 -0.00000000000E+00 -0.40096653732E+03  0.40096653733E+03  0.25500000000E-02 0. -1.
    5000001    1    1    2    0    0 -0.15269008821E+02 -0.13339803897E+03 -0.18505202096E+03  0.26153667026E+03  0.12700000000E+03 0.  0.
   -5000001    1    1    2    0    0  0.15269008821E+02  0.13339803897E+03 -0.12961011306E+03  0.22573427041E+03  0.12700000000E+03 0.  0.
<mgrwt>
<rscale>  0 0.37204934E+03</rscale>
<asrwt>0</asrwt>
<pdfrwt beam="1">  1        2 0.57280933E-01 0.37204934E+03</pdfrwt>
<pdfrwt beam="2">  1       -2 0.12329201E-01 0.37204934E+03</pdfrwt>
<totfact> 0.41081346E+03</totfact>
</mgrwt>
</event>
<event>
 4    1  0.1383574E-004  0.4105384E+03  0.7818608E-02  0.1040190E+00
         -2   -1    0    0    0  501 -0.00000000000E+00  0.00000000000E+00  0.40139137460E+02  0.40139137541E+02  0.25500000000E-02 0. -1.
          2   -1    0    0  501    0  0.00000000000E+00 -0.00000000000E+00 -0.10497345490E+04  0.10497345490E+04  0.25500000000E-02 0.  1.
    5000001    1    1    2    0    0 -0.93589503773E+02  0.77069287316E+01 -0.15675248080E+03  0.22252804813E+03  0.12700000000E+03 0.  0.
   -5000001    1    1    2    0    0  0.93589503773E+02 -0.77069287316E+01 -0.85284293074E+03  0.86734563842E+03  0.12700000000E+03 0.  0.
<mgrwt>
<rscale>  0 0.41053838E+03</rscale>
<asrwt>0</asrwt>
<pdfrwt beam="1">  1        2 0.14996206E+00 0.41053838E+03</pdfrwt>
<pdfrwt beam="2">  1       -2 0.57341631E-02 0.41053838E+03</pdfrwt>
<totfact> 0.43453481E+03</totfact>
</mgrwt>
</event>
<event>
 4    1  0.1383574E-004  0.2920913E+03  0.7818608E-02  0.1089262E+00
          2   -1    0    0  501    0  0.00000000000E+00  0.00000000000E+00  0.22250913643E+03  0.22250913645E+03  0.25500000000E-02 0.  1.
         -2   -1    0    0    0  501 -0.00000000000E+00 -0.00000000000E+00 -0.95858209746E+02  0.95858209779E+02  0.25500000000E-02 0. -1.
    5000001    1    1    2    0    0 -0.49857128523E+01  0.45478857575E+02  0.25692627546E+01  0.13501401753E+03  0.12700000000E+03 0.  0.
   -5000001    1    1    2    0    0  0.49857128523E+01 -0.45478857575E+02  0.12408166393E+03  0.18335332869E+03  0.12700000000E+03 0.  0.
<mgrwt>
<rscale>  0 0.29209127E+03</rscale>
<asrwt>0</asrwt>
<pdfrwt beam="1">  1        2 0.31787020E-01 0.29209127E+03</pdfrwt>
<pdfrwt beam="2">  1       -2 0.13694030E-01 0.29209127E+03</pdfrwt>
<totfact> 0.65179320E+03</totfact>
</mgrwt>
</event>
<event>
 4    1  0.1383574E-004  0.5123640E+03  0.7818608E-02  0.1010601E+00
          2   -1    0    0  501    0  0.00000000000E+00  0.00000000000E+00  0.68984653008E+03  0.68984653008E+03  0.25500000000E-02 0.  1.
         -2   -1    0    0    0  501 -0.00000000000E+00 -0.00000000000E+00 -0.95135975261E+02  0.95135975295E+02  0.25500000000E-02 0. -1.
    5000001    1    1    2    0    0  0.21761532468E+03 -0.46283405548E+02  0.29931685978E+03  0.39397736701E+03  0.12700000000E+03 0.  0.
   -5000001    1    1    2    0    0 -0.21761532468E+03  0.46283405548E+02  0.29539369504E+03  0.39100513837E+03  0.12700000000E+03 0.  0.
<mgrwt>
<rscale>  0 0.51236402E+03</rscale>
<asrwt>0</asrwt>
<pdfrwt beam="1">  1        2 0.98549505E-01 0.51236402E+03</pdfrwt>
<pdfrwt beam="2">  1       -2 0.13590854E-01 0.51236402E+03</pdfrwt>
<totfact> 0.18920346E+03</totfact>
</mgrwt>
</event>
<event>
 4    1  0.1383574E-004  0.5705285E+03  0.7818608E-02  0.9968510E-01
          2   -1    0    0  501    0  0.00000000000E+00  0.00000000000E+00  0.16696344910E+03  0.16696344912E+03  0.25500000000E-02 0.  1.
         -2   -1    0    0    0  501 -0.00000000000E+00 -0.00000000000E+00 -0.48738626150E+03  0.48738626150E+03  0.25500000000E-02 0. -1.
    5000001    1    1    2    0    0  0.20466307803E+03 -0.52470996462E+02  0.44283820222E+01  0.24655383093E+03  0.12700000000E+03 0.  0.
   -5000001    1    1    2    0    0 -0.20466307803E+03  0.52470996462E+02 -0.32485119442E+03  0.40779587969E+03  0.12700000000E+03 0.  0.
<mgrwt>
<rscale>  0 0.57052850E+03</rscale>
<asrwt>0</asrwt>
<pdfrwt beam="1">  1        2 0.23851922E-01 0.57052850E+03</pdfrwt>
<pdfrwt beam="2">  1       -2 0.69626608E-01 0.57052850E+03</pdfrwt>
<totfact> 0.43913719E+02</totfact>
</mgrwt>
</event>
<event>
 4    1  0.1383574E-004  0.9832938E+03  0.7818608E-02  0.9327060E-01
          2   -1    0    0  501    0  0.00000000000E+00  0.00000000000E+00  0.21005696050E+04  0.21005696050E+04  0.25500000000E-02 0.  1.
         -2   -1    0    0    0  501 -0.00000000000E+00 -0.00000000000E+00 -0.11507195968E+03  0.11507195971E+03  0.25500000000E-02 0. -1.
    5000001    1    1    2    0    0 -0.28326169127E+02 -0.43412284904E+03  0.56330641980E+03  0.72298557558E+03  0.12700000000E+03 0.  0.
   -5000001    1    1    2    0    0  0.28326169127E+02  0.43412284904E+03  0.14221912255E+04  0.14926559891E+04  0.12700000000E+03 0.  0.
<mgrwt>
<rscale>  0 0.98329377E+03</rscale>
<asrwt>0</asrwt>
<pdfrwt beam="1">  1        2 0.30008136E+00 0.98329377E+03</pdfrwt>
<pdfrwt beam="2">  1       -2 0.16438852E-01 0.98329377E+03</pdfrwt>
<totfact> 0.21444498E+02</totfact>
</mgrwt>
</event>
<event>
 4    1  0.1383574E-004  0.4036624E+03  0.7818608E-02  0.1042519E+00
          2   -1    0    0  501    0  0.00000000000E+00  0.00000000000E+00  0.71393846770E+03  0.71393846770E+03  0.25500000000E-02 0.  1.
         -2   -1    0    0    0  501 -0.00000000000E+00 -0.00000000000E+00 -0.57057906337E+02  0.57057906394E+02  0.25500000000E-02 0. -1.
    5000001    1    1    2    0    0  0.14023568882E+03  0.70149401633E+02  0.33694939748E+03  0.39274786241E+03  0.12700000000E+03 0.  0.
   -5000001    1    1    2    0    0 -0.14023568882E+03 -0.70149401633E+02  0.31993116388E+03  0.37824851168E+03  0.12700000000E+03 0.  0.
<mgrwt>
<rscale>  0 0.40366240E+03</rscale>
<asrwt>0</asrwt>
<pdfrwt beam="1">  1        2 0.10199120E+00 0.40366240E+03</pdfrwt>
<pdfrwt beam="2">  1       -2 0.81511301E-02 0.40366240E+03</pdfrwt>
<totfact> 0.41423920E+03</totfact>
</mgrwt>
</event>
<event>
 4    1  0.1383574E-004  0.3787298E+03  0.7818608E-02  0.1051404E+00
         -2   -1    0    0    0  501 -0.00000000000E+00  0.00000000000E+00  0.16808983322E+02  0.16808983516E+02  0.25500000000E-02 0. -1.
          2   -1    0    0  501    0  0.00000000000E+00 -0.00000000000E+00 -0.21333273122E+04  0.21333273122E+04  0.25500000000E-02 0.  1.
    5000001    1    1    2    0    0 -0.49733323288E+02 -0.12411421252E+03 -0.81391903888E+03  0.83454834674E+03  0.12700000000E+03 0.  0.
   -5000001    1    1    2    0    0  0.49733323288E+02  0.12411421252E+03 -0.13025992900E+04  0.13155879490E+04  0.12700000000E+03 0.  0.
<mgrwt>
<rscale>  0 0.37872979E+03</rscale>
<asrwt>0</asrwt>
<pdfrwt beam="1">  1        2 0.30476087E+00 0.37872979E+03</pdfrwt>
<pdfrwt beam="2">  1       -2 0.24012847E-02 0.37872979E+03</pdfrwt>
<totfact> 0.44798648E+03</totfact>
</mgrwt>
</event>
<event>
 4    1  0.1383574E-004  0.4396852E+03  0.7818608E-02  0.1030843E+00
          2   -1    0    0  501    0  0.00000000000E+00  0.00000000000E+00  0.53396750926E+03  0.53396750926E+03  0.25500000000E-02 0.  1.
         -2   -1    0    0    0  501 -0.00000000000E+00 -0.00000000000E+00 -0.90512544446E+02  0.90512544482E+02  0.25500000000E-02 0. -1.
    5000001    1    1    2    0    0 -0.89023147370E+01 -0.15084008678E+03  0.84246903441E+02  0.21461249667E+03  0.12700000000E+03 0.  0.
   -5000001    1    1    2    0    0  0.89023147370E+01  0.15084008678E+03  0.35920806137E+03  0.40986755707E+03  0.12700000000E+03 0.  0.
<mgrwt>
<rscale>  0 0.43968515E+03</rscale>
<asrwt>0</asrwt>
<pdfrwt beam="1">  1        2 0.76281072E-01 0.43968515E+03</pdfrwt>
<pdfrwt beam="2">  1       -2 0.12930364E-01 0.43968515E+03</pdfrwt>
<totfact> 0.27706316E+03</totfact>
</mgrwt>
</event>
<event>
 4    1  0.1383574E-004  0.3329581E+03  0.7818608E-02  0.1069835E+00
          2   -1    0    0  501    0  0.00000000000E+00  0.00000000000E+00  0.19194462425E+04  0.19194462425E+04  0.25500000000E-02 0.  1.
         -2   -1    0    0    0  501 -0.00000000000E+00 -0.00000000000E+00 -0.14439204176E+02  0.14439204401E+02  0.25500000000E-02 0. -1.
    5000001    1    1    2    0    0  0.35668377237E+02 -0.10104527325E+03  0.89330093888E+03  0.90862420603E+03  0.12700000000E+03 0.  0.
   -5000001    1    1    2    0    0 -0.35668377237E+02  0.10104527325E+03  0.10117060994E+04  0.10252612409E+04  0.12700000000E+03 0.  0.
<mgrwt>
<rscale>  0 0.33295811E+03</rscale>
<asrwt>0</asrwt>
<pdfrwt beam="1">  1        2 0.27420648E+00 0.33295811E+03</pdfrwt>
<pdfrwt beam="2">  1       -2 0.20627444E-02 0.33295811E+03</pdfrwt>
<totfact> 0.71571976E+03</totfact>
</mgrwt>
</event>
<event>
 4    1  0.1383574E-004  0.8655543E+03  0.7818608E-02  0.9469695E-01
          2   -1    0    0  501    0  0.00000000000E+00  0.00000000000E+00  0.11786071034E+04  0.11786071034E+04  0.25500000000E-02 0.  1.
         -2   -1    0    0    0  501 -0.00000000000E+00 -0.00000000000E+00 -0.15891304776E+03  0.15891304778E+03  0.25500000000E-02 0. -1.
    5000001    1    1    2    0    0 -0.31484153994E+03  0.17451657161E+03  0.82496897856E+03  0.90900167471E+03  0.12700000000E+03 0.  0.
   -5000001    1    1    2    0    0  0.31484153994E+03 -0.17451657161E+03  0.19472507709E+03  0.42851847648E+03  0.12700000000E+03 0.  0.
<mgrwt>
<rscale>  0 0.86555427E+03</rscale>
<asrwt>0</asrwt>
<pdfrwt beam="1">  1        2 0.16837244E+00 0.86555427E+03</pdfrwt>
<pdfrwt beam="2">  1       -2 0.22701864E-01 0.86555427E+03</pdfrwt>
<totfact> 0.37527619E+02</totfact>
</mgrwt>
</event>
<event>
 4    1  0.1383574E-004  0.2943115E+03  0.7818608E-02  0.1088119E+00
          2   -1    0    0  501    0  0.00000000000E+00  0.00000000000E+00  0.16272859459E+03  0.16272859461E+03  0.25500000000E-02 0.  1.
         -2   -1    0    0    0  501 -0.00000000000E+00 -0.00000000000E+00 -0.13307321790E+03  0.13307321793E+03  0.25500000000E-02 0. -1.
    5000001    1    1    2    0    0  0.61885527057E+02 -0.23996419255E+02  0.48466121467E+02  0.15127330077E+03  0.12700000000E+03 0.  0.
   -5000001    1    1    2    0    0 -0.61885527057E+02  0.23996419255E+02 -0.18810744776E+02  0.14452851177E+03  0.12700000000E+03 0.  0.
<mgrwt>
<rscale>  0 0.29431152E+03</rscale>
<asrwt>0</asrwt>
<pdfrwt beam="1">  1        2 0.23246942E-01 0.29431152E+03</pdfrwt>
<pdfrwt beam="2">  1       -2 0.19010460E-01 0.29431152E+03</pdfrwt>
<totfact> 0.53380787E+03</totfact>
</mgrwt>
</event>
<event>
 4    1  0.1383574E-004  0.2992415E+03  0.7818608E-02  0.1085620E+00
         -2   -1    0    0    0  501 -0.00000000000E+00  0.00000000000E+00  0.13624912498E+03  0.13624912500E+03  0.25500000000E-02 0. -1.
          2   -1    0    0  501    0  0.00000000000E+00 -0.00000000000E+00 -0.16430472292E+03  0.16430472294E+03  0.25500000000E-02 0.  1.
    5000001    1    1    2    0    0 -0.47494455716E+02  0.61841674469E+02 -0.27400040256E+02  0.15152517359E+03  0.12700000000E+03 0.  0.
   -5000001    1    1    2    0    0  0.47494455716E+02 -0.61841674469E+02 -0.65555768455E+00  0.14902867436E+03  0.12700000000E+03 0.  0.
<mgrwt>
<rscale>  0 0.29924154E+03</rscale>
<asrwt>0</asrwt>
<pdfrwt beam="1">  1        2 0.23472103E-01 0.29924154E+03</pdfrwt>
<pdfrwt beam="2">  1       -2 0.19464161E-01 0.29924154E+03</pdfrwt>
<totfact> 0.50749722E+03</totfact>
</mgrwt>
</event>
<event>
 4    1  0.1383574E-004  0.6258468E+03  0.7818608E-02  0.9853187E-01
         -2   -1    0    0    0  501 -0.00000000000E+00  0.00000000000E+00  0.13873211184E+03  0.13873211186E+03  0.25500000000E-02 0. -1.
          2   -1    0    0  501    0  0.00000000000E+00 -0.00000000000E+00 -0.70582834083E+03  0.70582834084E+03  0.25500000000E-02 0.  1.
    5000001    1    1    2    0    0  0.11912278997E+03 -0.14512799636E+03 -0.57466969884E+03  0.61775936835E+03  0.12700000000E+03 0.  0.
   -5000001    1    1    2    0    0 -0.11912278997E+03  0.14512799636E+03  0.75734698455E+01  0.22680108435E+03  0.12700000000E+03 0.  0.
<mgrwt>
<rscale>  0 0.62584681E+03</rscale>
<asrwt>0</asrwt>
<pdfrwt beam="1">  1        2 0.10083262E+00 0.62584681E+03</pdfrwt>
<pdfrwt beam="2">  1       -2 0.19818873E-01 0.62584681E+03</pdfrwt>
<totfact> 0.96833926E+02</totfact>
</mgrwt>
</event>
<event>
 4    1  0.1383574E-004  0.5075885E+03  0.7818608E-02  0.1011817E+00
          2   -1    0    0  501    0  0.00000000000E+00  0.00000000000E+00  0.10405987291E+03  0.10405987295E+03  0.25500000000E-02 0.  1.
         -2   -1    0    0    0  501 -0.00000000000E+00 -0.00000000000E+00 -0.61898512269E+03  0.61898512270E+03  0.25500000000E-02 0. -1.
    5000001    1    1    2    0    0 -0.21762097767E+03 -0.30365380178E+02 -0.25567948468E+03  0.36025261293E+03  0.12700000000E+03 0.  0.
   -5000001    1    1    2    0    0  0.21762097767E+03  0.30365380178E+02 -0.25924576510E+03  0.36279238272E+03  0.12700000000E+03 0.  0.
<mgrwt>
<rscale>  0 0.50758847E+03</rscale>
<asrwt>0</asrwt>
<pdfrwt beam="1">  1        2 0.14865696E-01 0.50758847E+03</pdfrwt>
<pdfrwt beam="2">  1       -2 0.88426444E-01 0.50758847E+03</pdfrwt>
<totfact> 0.45049812E+02</totfact>
</mgrwt>
</event>
<event>
 4    1  0.1383574E-004  0.4985373E+03  0.7818608E-02  0.1014161E+00
          2   -1    0    0  501    0  0.00000000000E+00  0.00000000000E+00  0.14183217565E+04  0.14183217565E+04  0.25500000000E-02 0.  1.
         -2   -1    0    0    0  501 -0.00000000000E+00 -0.00000000000E+00 -0.43808723223E+02  0.43808723297E+02  0.25500000000E-02 0. -1.
    5000001    1    1    2    0    0 -0.77551611427E+02  0.69659884600E+02  0.12370300818E+04  0.12478938959E+04  0.12700000000E+03 0.  0.
   -5000001    1    1    2    0    0  0.77551611427E+02 -0.69659884600E+02  0.13748295142E+03  0.21423658392E+03  0.12700000000E+03 0.  0.
<mgrwt>
<rscale>  0 0.49853732E+03</rscale>
<asrwt>0</asrwt>
<pdfrwt beam="1">  1        2 0.20261741E+00 0.49853732E+03</pdfrwt>
<pdfrwt beam="2">  1       -2 0.62583886E-02 0.49853732E+03</pdfrwt>
<totfact> 0.23769016E+03</totfact>
</mgrwt>
</event>
<event>
 4    1  0.1383574E-004  0.4073650E+03  0.7818608E-02  0.1041259E+00
         -2   -1    0    0    0  501 -0.00000000000E+00  0.00000000000E+00  0.19826947862E+04  0.19826947862E+04  0.25500000000E-02 0. -1.
          2   -1    0    0  501    0  0.00000000000E+00 -0.00000000000E+00 -0.20924326855E+02  0.20924327010E+02  0.25500000000E-02 0.  1.
    5000001    1    1    2    0    0 -0.11258370303E+03 -0.10412981969E+03  0.76993751738E+03  0.79526781037E+03  0.12700000000E+03 0.  0.
   -5000001    1    1    2    0    0  0.11258370303E+03  0.10412981969E+03  0.11918329420E+04  0.12083513029E+04  0.12700000000E+03 0.  0.
<mgrwt>
<rscale>  0 0.40736497E+03</rscale>
<asrwt>0</asrwt>
<pdfrwt beam="1">  1        2 0.29891887E-02 0.40736497E+03</pdfrwt>
<pdfrwt beam="2">  1       -2 0.28324219E+00 0.40736497E+03</pdfrwt>
<totfact> 0.14313284E+02</totfact>
</mgrwt>
</event>
<event>
 4    1  0.1383574E-004  0.1015047E+04  0.7818608E-02  0.9292194E-01
         -2   -1    0    0    0  501 -0.00000000000E+00  0.00000000000E+00  0.36356052298E+03  0.36356052299E+03  0.25500000000E-02 0. -1.
          2   -1    0    0  501    0  0.00000000000E+00 -0.00000000000E+00 -0.70849264941E+03  0.70849264941E+03  0.25500000000E-02 0.  1.
    5000001    1    1    2    0    0 -0.31878269893E+03  0.32358708643E+03 -0.37039405552E+03  0.59970973646E+03  0.12700000000E+03 0.  0.
   -5000001    1    1    2    0    0  0.31878269893E+03 -0.32358708643E+03  0.25461929093E+02  0.47234343594E+03  0.12700000000E+03 0.  0.
<mgrwt>
<rscale>  0 0.10150467E+04</rscale>
<asrwt>0</asrwt>
<pdfrwt beam="1">  1        2 0.10121324E+00 0.10150467E+04</pdfrwt>
<pdfrwt beam="2">  1       -2 0.51937218E-01 0.10150467E+04</pdfrwt>
<totfact> 0.15483053E+02</totfact>
</mgrwt>
</event>
<event>
 4    1  0.1383574E-004  0.6940015E+03  0.7818608E-02  0.9727546E-01
         -2   -1    0    0    0  501 -0.00000000000E+00  0.00000000000E+00  0.17671048763E+03  0.17671048765E+03  0.25500000000E-02 0. -1.
          2   -1    0    0  501    0  0.00000000000E+00 -0.00000000000E+00 -0.68139424264E+03  0.68139424265E+03  0.25500000000E-02 0.  1.
    5000001    1    1    2    0    0  0.15002927491E+03  0.21608350723E+03 -0.20758441531E+02  0.29284941236E+03  0.12700000000E+03 0.  0.
   -5000001    1    1    2    0    0 -0.15002927491E+03 -0.21608350723E+03 -0.48392531348E+03  0.56525531793E+03  0.12700000000E+03 0.  0.
<mgrwt>
<rscale>  0 0.69400147E+03</rscale>
<asrwt>0</asrwt>
<pdfrwt beam="1">  1        2 0.97342034E-01 0.69400147E+03</pdfrwt>
<pdfrwt beam="2">  1       -2 0.25244356E-01 0.69400147E+03</pdfrwt>
<totfact> 0.65761931E+02</totfact>
</mgrwt>
</event>
<event>
 4    1  0.1383574E-004  0.3469608E+03  0.7818608E-02  0.1063869E+00
          2   -1    0    0  501    0  0.00000000000E+00  0.00000000000E+00  0.18705563059E+04  0.18705563059E+04  0.25500000000E-02 0.  1.
         -2   -1    0    0    0  501 -0.00000000000E+00 -0.00000000000E+00 -0.16089035588E+02  0.16089035790E+02  0.25500000000E-02 0. -1.
    5000001    1    1    2    0    0 -0.56412570014E+02  0.89774489066E+02  0.12110660961E+04  0.12223141683E+04  0.12700000000E+03 0.  0.
   -5000001    1    1    2    0    0  0.56412570014E+02 -0.89774489066E+02  0.64340117423E+03  0.66433117340E+03  0.12700000000E+03 0.  0.
<mgrwt>
<rscale>  0 0.34696079E+03</rscale>
<asrwt>0</asrwt>
<pdfrwt beam="1">  1        2 0.26722243E+00 0.34696079E+03</pdfrwt>
<pdfrwt beam="2">  1       -2 0.22984328E-02 0.34696079E+03</pdfrwt>
<totfact> 0.64444911E+03</totfact>
</mgrwt>
</event>
<event>
 4    1  0.1383574E-004  0.4460401E+03  0.7818608E-02  0.1028910E+00
          2   -1    0    0  501    0  0.00000000000E+00  0.00000000000E+00  0.91148766915E+03  0.91148766915E+03  0.25500000000E-02 0.  1.
         -2   -1    0    0    0  501 -0.00000000000E+00 -0.00000000000E+00 -0.54567877906E+02  0.54567877965E+02  0.25500000000E-02 0. -1.
    5000001    1    1    2    0    0  0.50801597355E+02  0.17251236202E+03  0.35134744302E+03  0.41462675151E+03  0.12700000000E+03 0.  0.
   -5000001    1    1    2    0    0 -0.50801597355E+02 -0.17251236202E+03  0.50557234822E+03  0.55142879561E+03  0.12700000000E+03 0.  0.
<mgrwt>
<rscale>  0 0.44604012E+03</rscale>
<asrwt>0</asrwt>
<pdfrwt beam="1">  1        2 0.13021252E+00 0.44604012E+03</pdfrwt>
<pdfrwt beam="2">  1       -2 0.77954112E-02 0.44604012E+03</pdfrwt>
<totfact> 0.32655541E+03</totfact>
</mgrwt>
</event>
<event>
 4    1  0.1383574E-004  0.4321516E+03  0.7818608E-02  0.1033182E+00
          2   -1    0    0  501    0  0.00000000000E+00  0.00000000000E+00  0.78187908461E+03  0.78187908462E+03  0.25500000000E-02 0.  1.
         -2   -1    0    0    0  501 -0.00000000000E+00 -0.00000000000E+00 -0.59713520046E+02  0.59713520101E+02  0.25500000000E-02 0. -1.
    5000001    1    1    2    0    0 -0.13895990523E+03 -0.10351778579E+03  0.31608177348E+03  0.38218120671E+03  0.12700000000E+03 0.  0.
   -5000001    1    1    2    0    0  0.13895990523E+03  0.10351778579E+03  0.40608379109E+03  0.45941139801E+03  0.12700000000E+03 0.  0.
<mgrwt>
<rscale>  0 0.43215160E+03</rscale>
<asrwt>0</asrwt>
<pdfrwt beam="1">  1        2 0.11169701E+00 0.43215160E+03</pdfrwt>
<pdfrwt beam="2">  1       -2 0.85305034E-02 0.43215160E+03</pdfrwt>
<totfact> 0.34491093E+03</totfact>
</mgrwt>
</event>
<event>
 4    1  0.1383574E-004  0.3443108E+03  0.7818608E-02  0.1064975E+00
          2   -1    0    0  501    0  0.00000000000E+00  0.00000000000E+00  0.13230298053E+03  0.13230298055E+03  0.25500000000E-02 0.  1.
         -2   -1    0    0    0  501 -0.00000000000E+00 -0.00000000000E+00 -0.22401220051E+03  0.22401220052E+03  0.25500000000E-02 0. -1.
    5000001    1    1    2    0    0  0.91519042972E+02 -0.35899019315E+02  0.18307075621E+02  0.16164350848E+03  0.12700000000E+03 0.  0.
   -5000001    1    1    2    0    0 -0.91519042972E+02  0.35899019315E+02 -0.11001629560E+03  0.19467167260E+03  0.12700000000E+03 0.  0.
<mgrwt>
<rscale>  0 0.34431080E+03</rscale>
<asrwt>0</asrwt>
<pdfrwt beam="1">  1        2 0.18900426E-01 0.34431080E+03</pdfrwt>
<pdfrwt beam="2">  1       -2 0.32001743E-01 0.34431080E+03</pdfrwt>
<totfact> 0.27037378E+03</totfact>
</mgrwt>
</event>
<event>
 4    1  0.1383574E-004  0.3783754E+03  0.7818608E-02  0.1051536E+00
          2   -1    0    0  501    0  0.00000000000E+00  0.00000000000E+00  0.43175274383E+03  0.43175274384E+03  0.25500000000E-02 0.  1.
         -2   -1    0    0    0  501 -0.00000000000E+00 -0.00000000000E+00 -0.82899270438E+02  0.82899270477E+02  0.25500000000E-02 0. -1.
    5000001    1    1    2    0    0 -0.12373998811E+03  0.39336077525E+02  0.10240134132E+03  0.20850406796E+03  0.12700000000E+03 0.  0.
   -5000001    1    1    2    0    0  0.12373998811E+03 -0.39336077525E+02  0.24645213208E+03  0.30614794635E+03  0.12700000000E+03 0.  0.
<mgrwt>
<rscale>  0 0.37837541E+03</rscale>
<asrwt>0</asrwt>
<pdfrwt beam="1">  1        2 0.61678963E-01 0.37837541E+03</pdfrwt>
<pdfrwt beam="2">  1       -2 0.11842753E-01 0.37837541E+03</pdfrwt>
<totfact> 0.40461560E+03</totfact>
</mgrwt>
</event>
<event>
 4    1  0.1383574E-004  0.1122322E+04  0.7818608E-02  0.9183704E-01
          2   -1    0    0  501    0  0.00000000000E+00  0.00000000000E+00  0.26516562602E+04  0.26516562602E+04  0.25500000000E-02 0.  1.
         -2   -1    0    0    0  501 -0.00000000000E+00 -0.00000000000E+00 -0.11875666608E+03  0.11875666611E+03  0.25500000000E-02 0. -1.
    5000001    1    1    2    0    0  0.51298703526E+03 -0.13092663965E+03  0.16019737386E+04  0.16919652309E+04  0.12700000000E+03 0.  0.
   -5000001    1    1    2    0    0 -0.51298703526E+03  0.13092663965E+03  0.93092585551E+03  0.10784476954E+04  0.12700000000E+03 0.  0.
<mgrwt>
<rscale>  0 0.11223223E+04</rscale>
<asrwt>0</asrwt>
<pdfrwt beam="1">  1        2 0.37880808E+00 0.11223223E+04</pdfrwt>
<pdfrwt beam="2">  1       -2 0.16965236E-01 0.11223223E+04</pdfrwt>
<totfact> 0.10415720E+02</totfact>
</mgrwt>
</event>
<event>
 4    1  0.1383574E-004  0.6762617E+03  0.7818608E-02  0.9758712E-01
         -2   -1    0    0    0  501 -0.00000000000E+00  0.00000000000E+00  0.36811989415E+02  0.36811989503E+02  0.25500000000E-02 0. -1.
          2   -1    0    0  501    0  0.00000000000E+00 -0.00000000000E+00 -0.31058490905E+04  0.31058490905E+04  0.25500000000E-02 0.  1.
    5000001    1    1    2    0    0  0.15966806407E+03 -0.14008598563E+03 -0.46381133693E+03  0.52570707653E+03  0.12700000000E+03 0.  0.
   -5000001    1    1    2    0    0 -0.15966806407E+03  0.14008598563E+03 -0.26052257642E+04  0.26169540035E+04  0.12700000000E+03 0.  0.
<mgrwt>
<rscale>  0 0.67626174E+03</rscale>
<asrwt>0</asrwt>
<pdfrwt beam="1">  1        2 0.44369256E+00 0.67626174E+03</pdfrwt>
<pdfrwt beam="2">  1       -2 0.52588576E-02 0.67626174E+03</pdfrwt>
<totfact> 0.41537914E+02</totfact>
</mgrwt>
</event>
<event>
 4    1  0.1383574E-004  0.1264159E+04  0.7818608E-02  0.9058480E-01
         -2   -1    0    0    0  501 -0.00000000000E+00  0.00000000000E+00  0.39389127185E+03  0.39389127186E+03  0.25500000000E-02 0. -1.
          2   -1    0    0  501    0  0.00000000000E+00 -0.00000000000E+00 -0.10143018138E+04  0.10143018138E+04  0.25500000000E-02 0.  1.
    5000001    1    1    2    0    0 -0.28556162598E+03 -0.44423070321E+03 -0.67031747731E+03  0.86275192280E+03  0.12700000000E+03 0.  0.
   -5000001    1    1    2    0    0  0.28556162598E+03  0.44423070321E+03  0.49906935400E+02  0.54544116283E+03  0.12700000000E+03 0.  0.
<mgrwt>
<rscale>  0 0.12641592E+04</rscale>
<asrwt>0</asrwt>
<pdfrwt beam="1">  1        2 0.14490026E+00 0.12641592E+04</pdfrwt>
<pdfrwt beam="2">  1       -2 0.56270182E-01 0.12641592E+04</pdfrwt>
<totfact> 0.80209244E+01</totfact>
</mgrwt>
</event>
<event>
 4    1  0.1383574E-004  0.3948656E+03  0.7818608E-02  0.1045572E+00
          2   -1    0    0  501    0  0.00000000000E+00  0.00000000000E+00  0.10164124769E+04  0.10164124769E+04  0.25500000000E-02 0.  1.
         -2   -1    0    0    0  501 -0.00000000000E+00 -0.00000000000E+00 -0.38350296554E+02  0.38350296639E+02  0.25500000000E-02 0. -1.
    5000001    1    1    2    0    0 -0.60764142302E+02 -0.13629595317E+03  0.55346459426E+03  0.58712939369E+03  0.12700000000E+03 0.  0.
   -5000001    1    1    2    0    0  0.60764142302E+02  0.13629595317E+03  0.42459758610E+03  0.46763337987E+03  0.12700000000E+03 0.  0.
<mgrwt>
<rscale>  0 0.39486565E+03</rscale>
<asrwt>0</asrwt>
<pdfrwt beam="1">  1        2 0.14520178E+00 0.39486565E+03</pdfrwt>
<pdfrwt beam="2">  1       -2 0.54786137E-02 0.39486565E+03</pdfrwt>
<totfact> 0.48760350E+03</totfact>
</mgrwt>
</event>
<event>
 4    1  0.1383574E-004  0.5452392E+03  0.7818608E-02  0.1002602E+00
          2   -1    0    0  501    0  0.00000000000E+00  0.00000000000E+00  0.43377839044E+03  0.43377839045E+03  0.25500000000E-02 0.  1.
         -2   -1    0    0    0  501 -0.00000000000E+00 -0.00000000000E+00 -0.17133509042E+03  0.17133509044E+03  0.25500000000E-02 0. -1.
    5000001    1    1    2    0    0  0.74166114216E+02 -0.17652774037E+03 -0.31621598206E+02  0.23193012114E+03  0.12700000000E+03 0.  0.
   -5000001    1    1    2    0    0 -0.74166114216E+02  0.17652774037E+03  0.29406489823E+03  0.37318335975E+03  0.12700000000E+03 0.  0.
<mgrwt>
<rscale>  0 0.54523925E+03</rscale>
<asrwt>0</asrwt>
<pdfrwt beam="1">  1        2 0.61968341E-01 0.54523925E+03</pdfrwt>
<pdfrwt beam="2">  1       -2 0.24476442E-01 0.54523925E+03</pdfrwt>
<totfact> 0.11758260E+03</totfact>
</mgrwt>
</event>
<event>
 4    1  0.1383574E-004  0.4221487E+03  0.7818608E-02  0.1036369E+00
          2   -1    0    0  501    0  0.00000000000E+00  0.00000000000E+00  0.87906617932E+03  0.87906617933E+03  0.25500000000E-02 0.  1.
         -2   -1    0    0    0  501 -0.00000000000E+00 -0.00000000000E+00 -0.50681478785E+02  0.50681478849E+02  0.25500000000E-02 0. -1.
    5000001    1    1    2    0    0 -0.12109679197E+03 -0.11679004278E+03  0.39016410210E+03  0.44346518881E+03  0.12700000000E+03 0.  0.
   -5000001    1    1    2    0    0  0.12109679197E+03  0.11679004278E+03  0.43822059844E+03  0.48628246937E+03  0.12700000000E+03 0.  0.
<mgrwt>
<rscale>  0 0.42214867E+03</rscale>
<asrwt>0</asrwt>
<pdfrwt beam="1">  1        2 0.12558088E+00 0.42214867E+03</pdfrwt>
<pdfrwt beam="2">  1       -2 0.72402114E-02 0.42214867E+03</pdfrwt>
<totfact> 0.38460517E+03</totfact>
</mgrwt>
</event>
<event>
 4    1  0.1383574E-004  0.3084218E+03  0.7818608E-02  0.1081105E+00
         -2   -1    0    0    0  501 -0.00000000000E+00  0.00000000000E+00  0.87916953958E+01  0.87916957656E+01  0.25500000000E-02 0. -1.
          2   -1    0    0  501    0  0.00000000000E+00 -0.00000000000E+00 -0.27049397700E+04  0.27049397700E+04  0.25500000000E-02 0.  1.
    5000001    1    1    2    0    0  0.66751900133E+02  0.55344838810E+02 -0.14495996208E+04  0.14577334901E+04  0.12700000000E+03 0.  0.
   -5000001    1    1    2    0    0 -0.66751900133E+02 -0.55344838810E+02 -0.12465484538E+04  0.12559979757E+04  0.12700000000E+03 0.  0.
<mgrwt>
<rscale>  0 0.30842183E+03</rscale>
<asrwt>0</asrwt>
<pdfrwt beam="1">  1        2 0.38641943E+00 0.30842183E+03</pdfrwt>
<pdfrwt beam="2">  1       -2 0.12559582E-02 0.30842183E+03</pdfrwt>
<totfact> 0.60424318E+03</totfact>
</mgrwt>
</event>
<event>
 4    1  0.1383574E-004  0.5579702E+03  0.7818608E-02  0.9996658E-01
         -2   -1    0    0    0  501 -0.00000000000E+00  0.00000000000E+00  0.68255625928E+02  0.68255625975E+02  0.25500000000E-02 0. -1.
          2   -1    0    0  501    0  0.00000000000E+00 -0.00000000000E+00 -0.11403118376E+04  0.11403118376E+04  0.25500000000E-02 0.  1.
    5000001    1    1    2    0    0  0.14416886231E+03  0.17404875457E+03 -0.31274998752E+03  0.40622553406E+03  0.12700000000E+03 0.  0.
   -5000001    1    1    2    0    0 -0.14416886231E+03 -0.17404875457E+03 -0.75930622416E+03  0.80234192953E+03  0.12700000000E+03 0.  0.
<mgrwt>
<rscale>  0 0.55797024E+03</rscale>
<asrwt>0</asrwt>
<pdfrwt beam="1">  1        2 0.16290168E+00 0.55797024E+03</pdfrwt>
<pdfrwt beam="2">  1       -2 0.97508044E-02 0.55797024E+03</pdfrwt>
<totfact> 0.16653667E+03</totfact>
</mgrwt>
</event>
<event>
 4    1  0.1383574E-004  0.3452857E+03  0.7818608E-02  0.1064567E+00
          2   -1    0    0  501    0  0.00000000000E+00  0.00000000000E+00  0.22494087029E+03  0.22494087030E+03  0.25500000000E-02 0.  1.
         -2   -1    0    0    0  501 -0.00000000000E+00 -0.00000000000E+00 -0.13250393589E+03  0.13250393591E+03  0.25500000000E-02 0. -1.
    5000001    1    1    2    0    0 -0.59782007985E+02 -0.10029537223E+03  0.53046215630E+02  0.18048809147E+03  0.12700000000E+03 0.  0.
   -5000001    1    1    2    0    0  0.59782007985E+02  0.10029537223E+03  0.39390718768E+02  0.17695671475E+03  0.12700000000E+03 0.  0.
<mgrwt>
<rscale>  0 0.34528568E+03</rscale>
<asrwt>0</asrwt>
<pdfrwt beam="1">  1        2 0.32134410E-01 0.34528568E+03</pdfrwt>
<pdfrwt beam="2">  1       -2 0.18929133E-01 0.34528568E+03</pdfrwt>
<totfact> 0.37679916E+03</totfact>
</mgrwt>
</event>
<event>
 4    1  0.1383574E-004  0.3080023E+03  0.7818608E-02  0.1081307E+00
         -2   -1    0    0    0  501 -0.00000000000E+00  0.00000000000E+00  0.64469929680E+02  0.64469929731E+02  0.25500000000E-02 0. -1.
          2   -1    0    0  501    0  0.00000000000E+00 -0.00000000000E+00 -0.36786696944E+03  0.36786696945E+03  0.25500000000E-02 0.  1.
    5000001    1    1    2    0    0 -0.39928556098E+02  0.64929324115E+02 -0.92522917347E+02  0.17464133805E+03  0.12700000000E+03 0.  0.
   -5000001    1    1    2    0    0  0.39928556098E+02 -0.64929324115E+02 -0.21087412242E+03  0.25769556113E+03  0.12700000000E+03 0.  0.
<mgrwt>
<rscale>  0 0.30800232E+03</rscale>
<asrwt>0</asrwt>
<pdfrwt beam="1">  1        2 0.52552423E-01 0.30800232E+03</pdfrwt>
<pdfrwt beam="2">  1       -2 0.92099901E-02 0.30800232E+03</pdfrwt>
<totfact> 0.71715279E+03</totfact>
</mgrwt>
</event>
<event>
 4    1  0.1383574E-004  0.4302280E+03  0.7818608E-02  0.1033788E+00
         -2   -1    0    0    0  501 -0.00000000000E+00  0.00000000000E+00  0.11417282974E+02  0.11417283259E+02  0.25500000000E-02 0. -1.
          2   -1    0    0  501    0  0.00000000000E+00 -0.00000000000E+00 -0.40529816201E+04  0.40529816201E+04  0.25500000000E-02 0.  1.
    5000001    1    1    2    0    0 -0.15748668405E+03  0.67217118426E+02 -0.17494614235E+04  0.17624030382E+04  0.12700000000E+03 0.  0.
   -5000001    1    1    2    0    0  0.15748668405E+03 -0.67217118426E+02 -0.22921029136E+04  0.23019958651E+04  0.12700000000E+03 0.  0.
<mgrwt>
<rscale>  0 0.43022803E+03</rscale>
<asrwt>0</asrwt>
<pdfrwt beam="1">  1        2 0.57899645E+00 0.43022803E+03</pdfrwt>
<pdfrwt beam="2">  1       -2 0.16310430E-02 0.43022803E+03</pdfrwt>
<totfact> 0.67586696E+02</totfact>
</mgrwt>
</event>
<event>
 4    1  0.1383574E-004  0.4412336E+03  0.7818608E-02  0.1030369E+00
         -2   -1    0    0    0  501 -0.00000000000E+00  0.00000000000E+00  0.14658303447E+02  0.14658303669E+02  0.25500000000E-02 0. -1.
          2   -1    0    0  501    0  0.00000000000E+00 -0.00000000000E+00 -0.33204226448E+04  0.33204226448E+04  0.25500000000E-02 0.  1.
    5000001    1    1    2    0    0 -0.67859610701E+01  0.17695942753E+03 -0.13930096696E+04  0.14099523495E+04  0.12700000000E+03 0.  0.
   -5000001    1    1    2    0    0  0.67859610701E+01 -0.17695942753E+03 -0.19127546717E+04  0.19251285990E+04  0.12700000000E+03 0.  0.
<mgrwt>
<rscale>  0 0.44123356E+03</rscale>
<asrwt>0</asrwt>
<pdfrwt beam="1">  1        2 0.47434561E+00 0.44123356E+03</pdfrwt>
<pdfrwt beam="2">  1       -2 0.20940455E-02 0.44123356E+03</pdfrwt>
<totfact> 0.13119196E+03</totfact>
</mgrwt>
</event>
<event>
 4    1  0.1383574E-004  0.6639471E+03  0.7818608E-02  0.9780955E-01
         -2   -1    0    0    0  501 -0.00000000000E+00  0.00000000000E+00  0.92357592843E+02  0.92357592878E+02  0.25500000000E-02 0. -1.
          2   -1    0    0  501    0  0.00000000000E+00 -0.00000000000E+00 -0.11932581537E+04  0.11932581537E+04  0.25500000000E-02 0.  1.
    5000001    1    1    2    0    0  0.26516454306E+02 -0.24133233693E+03 -0.91339082984E+03  0.95360171311E+03  0.12700000000E+03 0.  0.
   -5000001    1    1    2    0    0 -0.26516454306E+02  0.24133233693E+03 -0.18750973100E+03  0.33201403346E+03  0.12700000000E+03 0.  0.
<mgrwt>
<rscale>  0 0.66394714E+03</rscale>
<asrwt>0</asrwt>
<pdfrwt beam="1">  1        2 0.17046544E+00 0.66394714E+03</pdfrwt>
<pdfrwt beam="2">  1       -2 0.13193943E-01 0.66394714E+03</pdfrwt>
<totfact> 0.94407768E+02</totfact>
</mgrwt>
</event>
<event>
 4    1  0.1383574E-004  0.3978648E+03  0.7818608E-02  0.1044522E+00
          2   -1    0    0  501    0  0.00000000000E+00  0.00000000000E+00  0.10004029063E+04  0.10004029063E+04  0.25500000000E-02 0.  1.
         -2   -1    0    0    0  501 -0.00000000000E+00 -0.00000000000E+00 -0.39558153703E+02  0.39558153785E+02  0.25500000000E-02 0. -1.
    5000001    1    1    2    0    0 -0.62586500788E+02  0.84465385214E+02  0.18943060944E+03  0.25112631717E+03  0.12700000000E+03 0.  0.
   -5000001    1    1    2    0    0  0.62586500788E+02 -0.84465385214E+02  0.77141414318E+03  0.78883474295E+03  0.12700000000E+03 0.  0.
<mgrwt>
<rscale>  0 0.39786476E+03</rscale>
<asrwt>0</asrwt>
<pdfrwt beam="1">  1        2 0.14291468E+00 0.39786476E+03</pdfrwt>
<pdfrwt beam="2">  1       -2 0.56511656E-02 0.39786476E+03</pdfrwt>
<totfact> 0.47520735E+03</totfact>
</mgrwt>
</event>
<event>
 4    1  0.1383574E-004  0.3988617E+03  0.7818608E-02  0.1044175E+00
          2   -1    0    0  501    0  0.00000000000E+00  0.00000000000E+00  0.18970483561E+04  0.18970483561E+04  0.25500000000E-02 0.  1.
         -2   -1    0    0    0  501 -0.00000000000E+00 -0.00000000000E+00 -0.20965554737E+02  0.20965554892E+02  0.25500000000E-02 0. -1.
    5000001    1    1    2    0    0  0.11665694032E+03  0.58953601636E+02  0.13274972259E+04  0.13399486011E+04  0.12700000000E+03 0.  0.
   -5000001    1    1    2    0    0 -0.11665694032E+03 -0.58953601636E+02  0.54858557542E+03  0.57806530983E+03  0.12700000000E+03 0.  0.
<mgrwt>
<rscale>  0 0.39886174E+03</rscale>
<asrwt>0</asrwt>
<pdfrwt beam="1">  1        2 0.27100663E+00 0.39886174E+03</pdfrwt>
<pdfrwt beam="2">  1       -2 0.29950824E-02 0.39886174E+03</pdfrwt>
<totfact> 0.42088915E+03</totfact>
</mgrwt>
</event>
<event>
 4    1  0.1383574E-004  0.6312645E+03  0.7818608E-02  0.9842584E-01
          2   -1    0    0  501    0  0.00000000000E+00  0.00000000000E+00  0.39565587758E+04  0.39565587758E+04  0.25500000000E-02 0.  1.
         -2   -1    0    0    0  501 -0.00000000000E+00 -0.00000000000E+00 -0.25179383712E+02  0.25179383841E+02  0.25500000000E-02 0. -1.
    5000001    1    1    2    0    0 -0.10748517038E+03 -0.24567721233E+03  0.26445764187E+04  0.26611696280E+04  0.12700000000E+03 0.  0.
   -5000001    1    1    2    0    0  0.10748517038E+03  0.24567721233E+03  0.12868029733E+04  0.13205685316E+04  0.12700000000E+03 0.  0.
<mgrwt>
<rscale>  0 0.63126448E+03</rscale>
<asrwt>0</asrwt>
<pdfrwt beam="1">  1        2 0.56522221E+00 0.63126448E+03</pdfrwt>
<pdfrwt beam="2">  1       -2 0.35970578E-02 0.63126448E+03</pdfrwt>
<totfact> 0.23096148E+02</totfact>
</mgrwt>
</event>
<event>
 4    1  0.1383574E-004  0.3289873E+03  0.7818608E-02  0.1071586E+00
         -2   -1    0    0    0  501 -0.00000000000E+00  0.00000000000E+00  0.98891408475E+03  0.98891408476E+03  0.25500000000E-02 0. -1.
          2   -1    0    0  501    0  0.00000000000E+00 -0.00000000000E+00 -0.27361492468E+02  0.27361492587E+02  0.25500000000E-02 0.  1.
    5000001    1    1    2    0    0  0.51512886210E+02 -0.14540365611E+02  0.20337272944E+03  0.24567146102E+03  0.12700000000E+03 0.  0.
   -5000001    1    1    2    0    0 -0.51512886210E+02  0.14540365611E+02  0.75817986284E+03  0.77060411633E+03  0.12700000000E+03 0.  0.
<mgrwt>
<rscale>  0 0.32898733E+03</rscale>
<asrwt>0</asrwt>
<pdfrwt beam="1">  1        2 0.39087842E-02 0.32898733E+03</pdfrwt>
<pdfrwt beam="2">  1       -2 0.14127346E+00 0.32898733E+03</pdfrwt>
<totfact> 0.81305849E+02</totfact>
</mgrwt>
</event>
<event>
 4    1  0.1383574E-004  0.4039657E+03  0.7818608E-02  0.1042415E+00
          2   -1    0    0  501    0  0.00000000000E+00  0.00000000000E+00  0.22365701795E+03  0.22365701796E+03  0.25500000000E-02 0.  1.
         -2   -1    0    0    0  501 -0.00000000000E+00 -0.00000000000E+00 -0.18240907553E+03  0.18240907555E+03  0.25500000000E-02 0. -1.
    5000001    1    1    2    0    0  0.11219626751E+03 -0.40533249665E+02  0.12331739861E+03  0.21346458154E+03  0.12700000000E+03 0.  0.
   -5000001    1    1    2    0    0 -0.11219626751E+03  0.40533249665E+02 -0.82069456190E+02  0.19260151197E+03  0.12700000000E+03 0.  0.
<mgrwt>
<rscale>  0 0.40396569E+03</rscale>
<asrwt>0</asrwt>
<pdfrwt beam="1">  1        2 0.31951003E-01 0.40396569E+03</pdfrwt>
<pdfrwt beam="2">  1       -2 0.26058439E-01 0.40396569E+03</pdfrwt>
<totfact> 0.21752940E+03</totfact>
</mgrwt>
</event>
<event>
 4    1  0.1383574E-004  0.3632078E+03  0.7818608E-02  0.1057321E+00
         -2   -1    0    0    0  501 -0.00000000000E+00  0.00000000000E+00  0.13516118337E+02  0.13516118578E+02  0.25500000000E-02 0.  1.
          2   -1    0    0  501    0  0.00000000000E+00 -0.00000000000E+00 -0.24400477403E+04  0.24400477403E+04  0.25500000000E-02 0. -1.
    5000001    1    1    2    0    0 -0.42963201244E+02 -0.10726526687E+03 -0.81365906388E+03  0.83157786549E+03  0.12700000000E+03 0.  0.
   -5000001    1    1    2    0    0  0.42963201244E+02  0.10726526687E+03 -0.16128725581E+04  0.16219859934E+04  0.12700000000E+03 0.  0.
<mgrwt>
<rscale>  0 0.36320779E+03</rscale>
<asrwt>0</asrwt>
<pdfrwt beam="1">  1        2 0.34857797E+00 0.36320779E+03</pdfrwt>
<pdfrwt beam="2">  1       -2 0.19308756E-02 0.36320779E+03</pdfrwt>
<totfact> 0.43620740E+03</totfact>
</mgrwt>
</event>
<event>
 4    1  0.1383574E-004  0.2690312E+03  0.7818608E-02  0.1101835E+00
          2   -1    0    0  501    0  0.00000000000E+00  0.00000000000E+00  0.92922955408E+03  0.92922955408E+03  0.25500000000E-02 0.  1.
         -2   -1    0    0    0  501 -0.00000000000E+00 -0.00000000000E+00 -0.19472529665E+02  0.19472529832E+02  0.25500000000E-02 0. -1.
    5000001    1    1    2    0    0 -0.35455056462E+02  0.25087812252E+02  0.48621969485E+03  0.50440564134E+03  0.12700000000E+03 0.  0.
   -5000001    1    1    2    0    0  0.35455056462E+02 -0.25087812252E+02  0.42353732956E+03  0.44429644257E+03  0.12700000000E+03 0.  0.
<mgrwt>
<rscale>  0 0.26903123E+03</rscale>
<asrwt>0</asrwt>
<pdfrwt beam="1">  1        2 0.13274708E+00 0.26903123E+03</pdfrwt>
<pdfrwt beam="2">  1       -2 0.27817900E-02 0.26903123E+03</pdfrwt>
<totfact> 0.15171980E+04</totfact>
</mgrwt>
</event>
<event>
 4    1  0.1383574E-004  0.4749765E+03  0.7818608E-02  0.1020525E+00
         -2   -1    0    0    0  501 -0.00000000000E+00  0.00000000000E+00  0.61567321738E+02  0.61567321791E+02  0.25500000000E-02 0. -1.
          2   -1    0    0  501    0  0.00000000000E+00 -0.00000000000E+00 -0.91608130123E+03  0.91608130124E+03  0.25500000000E-02 0.  1.
    5000001    1    1    2    0    0 -0.11258619422E+03  0.11690172594E+03 -0.18432409036E+03  0.27648876097E+03  0.12700000000E+03 0.  0.
   -5000001    1    1    2    0    0  0.11258619422E+03 -0.11690172594E+03 -0.67018988914E+03  0.70115986206E+03  0.12700000000E+03 0.  0.
<mgrwt>
<rscale>  0 0.47497651E+03</rscale>
<asrwt>0</asrwt>
<pdfrwt beam="1">  1        2 0.13086875E+00 0.47497651E+03</pdfrwt>
<pdfrwt beam="2">  1       -2 0.87953322E-02 0.47497651E+03</pdfrwt>
<totfact> 0.26790539E+03</totfact>
</mgrwt>
</event>
<event>
 4    1  0.1383574E-004  0.4383428E+03  0.7818608E-02  0.1031256E+00
         -2   -1    0    0    0  501 -0.00000000000E+00  0.00000000000E+00  0.47540139755E+03  0.47540139756E+03  0.25500000000E-02 0. -1.
          2   -1    0    0  501    0  0.00000000000E+00 -0.00000000000E+00 -0.10104325084E+03  0.10104325087E+03  0.25500000000E-02 0.  1.
    5000001    1    1    2    0    0 -0.10687556469E+02 -0.12391586828E+03  0.18576290099E+02  0.17872729179E+03  0.12700000000E+03 0.  0.
   -5000001    1    1    2    0    0  0.10687556469E+02  0.12391586828E+03  0.35578185662E+03  0.39771735664E+03  0.12700000000E+03 0.  0.
<mgrwt>
<rscale>  0 0.43834280E+03</rscale>
<asrwt>0</asrwt>
<pdfrwt beam="1">  1        2 0.14434750E-01 0.43834280E+03</pdfrwt>
<pdfrwt beam="2">  1       -2 0.67914486E-01 0.43834280E+03</pdfrwt>
<totfact> 0.83722287E+02</totfact>
</mgrwt>
</event>
<event>
 4    1  0.1383574E-004  0.3328326E+03  0.7818608E-02  0.1069890E+00
         -2   -1    0    0    0  501 -0.00000000000E+00  0.00000000000E+00  0.33336840122E+02  0.33336840220E+02  0.25500000000E-02 0. -1.
          2   -1    0    0  501    0  0.00000000000E+00 -0.00000000000E+00 -0.83074414289E+03  0.83074414289E+03  0.25500000000E-02 0.  1.
    5000001    1    1    2    0    0  0.80057692990E+02  0.68982567840E+02 -0.45046763161E+03  0.47981029168E+03  0.12700000000E+03 0.  0.
   -5000001    1    1    2    0    0 -0.80057692990E+02 -0.68982567840E+02 -0.34693967115E+03  0.38427069143E+03  0.12700000000E+03 0.  0.
<mgrwt>
<rscale>  0 0.33283260E+03</rscale>
<asrwt>0</asrwt>
<pdfrwt beam="1">  1        2 0.11867772E+00 0.33283260E+03</pdfrwt>
<pdfrwt beam="2">  1       -2 0.47624062E-02 0.33283260E+03</pdfrwt>
<totfact> 0.78690836E+03</totfact>
</mgrwt>
</event>
<event>
 4    1  0.1383574E-004  0.5002151E+03  0.7818608E-02  0.1013723E+00
         -2   -1    0    0    0  501 -0.00000000000E+00  0.00000000000E+00  0.17067912075E+03  0.17067912077E+03  0.25500000000E-02 0. -1.
          2   -1    0    0  501    0  0.00000000000E+00 -0.00000000000E+00 -0.36649931084E+03  0.36649931085E+03  0.25500000000E-02 0.  1.
    5000001    1    1    2    0    0 -0.23896952251E+02  0.18107454771E+03 -0.22066208216E+03  0.31333657727E+03  0.12700000000E+03 0.  0.
   -5000001    1    1    2    0    0  0.23896952251E+02 -0.18107454771E+03  0.24841892070E+02  0.22384185434E+03  0.12700000000E+03 0.  0.
<mgrwt>
<rscale>  0 0.50021507E+03</rscale>
<asrwt>0</asrwt>
<pdfrwt beam="1">  1        2 0.52357044E-01 0.50021507E+03</pdfrwt>
<pdfrwt beam="2">  1       -2 0.24382732E-01 0.50021507E+03</pdfrwt>
<totfact> 0.14267320E+03</totfact>
</mgrwt>
</event>
<event>
 4    1  0.1383574E-004  0.4457729E+03  0.7818608E-02  0.1028990E+00
          2   -1    0    0  501    0  0.00000000000E+00  0.00000000000E+00  0.56644005323E+02  0.56644005381E+02  0.25500000000E-02 0.  1.
         -2   -1    0    0    0  501 -0.00000000000E+00 -0.00000000000E+00 -0.87702802558E+03  0.87702802558E+03  0.25500000000E-02 0. -1.
    5000001    1    1    2    0    0  0.36405830109E+02 -0.17550124705E+03 -0.33117327295E+03  0.39740509421E+03  0.12700000000E+03 0.  0.
   -5000001    1    1    2    0    0 -0.36405830109E+02  0.17550124705E+03 -0.48921074730E+03  0.53626693675E+03  0.12700000000E+03 0.  0.
<mgrwt>
<rscale>  0 0.44577295E+03</rscale>
<asrwt>0</asrwt>
<pdfrwt beam="1">  1        2 0.80920013E-02 0.44577295E+03</pdfrwt>
<pdfrwt beam="2">  1       -2 0.12528971E+00 0.44577295E+03</pdfrwt>
<totfact> 0.42076762E+02</totfact>
</mgrwt>
</event>
<event>
 4    1  0.1383574E-004  0.2997500E+03  0.7818608E-02  0.1085366E+00
          2   -1    0    0  501    0  0.00000000000E+00  0.00000000000E+00  0.33805383295E+04  0.33805383295E+04  0.25500000000E-02 0.  1.
         -2   -1    0    0    0  501 -0.00000000000E+00 -0.00000000000E+00 -0.66446574308E+01  0.66446579201E+01  0.25500000000E-02 0. -1.
    5000001    1    1    2    0    0  0.49837279371E+02 -0.57809961779E+02  0.14323138882E+04  0.14399575759E+04  0.12700000000E+03 0.  0.
   -5000001    1    1    2    0    0 -0.49837279371E+02  0.57809961779E+02  0.19415797839E+04  0.19472254116E+04  0.12700000000E+03 0.  0.
<mgrwt>
<rscale>  0 0.29975003E+03</rscale>
<asrwt>0</asrwt>
<pdfrwt beam="1">  1        2 0.48293503E+00 0.29975003E+03</pdfrwt>
<pdfrwt beam="2">  1       -2 0.94923488E-03 0.29975003E+03</pdfrwt>
<totfact> 0.39451529E+03</totfact>
</mgrwt>
</event>
<event>
 4    1  0.1383574E-004  0.2834894E+03  0.7818608E-02  0.1093798E+00
          2   -1    0    0  501    0  0.00000000000E+00  0.00000000000E+00  0.74376172065E+02  0.74376172109E+02  0.25500000000E-02 0.  1.
         -2   -1    0    0    0  501 -0.00000000000E+00 -0.00000000000E+00 -0.27013435711E+03  0.27013435712E+03  0.25500000000E-02 0. -1.
    5000001    1    1    2    0    0 -0.53915543217E+02 -0.10477914594E+02 -0.60503740189E+02  0.15101779720E+03  0.12700000000E+03 0.  0.
   -5000001    1    1    2    0    0  0.53915543217E+02  0.10477914594E+02 -0.13525444485E+03  0.19349273203E+03  0.12700000000E+03 0.  0.
<mgrwt>
<rscale>  0 0.28348940E+03</rscale>
<asrwt>0</asrwt>
<pdfrwt beam="1">  1        2 0.10625168E-01 0.28348940E+03</pdfrwt>
<pdfrwt beam="2">  1       -2 0.38590622E-01 0.28348940E+03</pdfrwt>
<totfact> 0.37782196E+03</totfact>
</mgrwt>
</event>
<event>
 4    1  0.1383574E-004  0.1293379E+04  0.7818608E-02  0.9034832E-01
         -2   -1    0    0    0  501 -0.00000000000E+00  0.00000000000E+00  0.25979242054E+03  0.25979242055E+03  0.25500000000E-02 0. -1.
          2   -1    0    0  501    0  0.00000000000E+00 -0.00000000000E+00 -0.16097760611E+04  0.16097760611E+04  0.25500000000E-02 0.  1.
    5000001    1    1    2    0    0 -0.22895941949E+03 -0.57344772915E+03 -0.88353318060E+03  0.10853684144E+04  0.12700000000E+03 0.  0.
   -5000001    1    1    2    0    0  0.22895941949E+03  0.57344772915E+03 -0.46645045999E+03  0.78420006725E+03  0.12700000000E+03 0.  0.
<mgrwt>
<rscale>  0 0.12933795E+04</rscale>
<asrwt>0</asrwt>
<pdfrwt beam="1">  1        2 0.22996800E+00 0.12933795E+04</pdfrwt>
<pdfrwt beam="2">  1       -2 0.37113204E-01 0.12933795E+04</pdfrwt>
<totfact> 0.85801334E+01</totfact>
</mgrwt>
</event>
<event>
 4    1  0.1383574E-004  0.5385721E+03  0.7818608E-02  0.1004174E+00
         -2   -1    0    0    0  501 -0.00000000000E+00  0.00000000000E+00  0.35372149772E+02  0.35372149864E+02  0.25500000000E-02 0. -1.
          2   -1    0    0  501    0  0.00000000000E+00 -0.00000000000E+00 -0.20500585751E+04  0.20500585751E+04  0.25500000000E-02 0.  1.
    5000001    1    1    2    0    0 -0.16596808692E+03  0.75622853828E+01 -0.35040754408E+03  0.40806499603E+03  0.12700000000E+03 0.  0.
   -5000001    1    1    2    0    0  0.16596808692E+03 -0.75622853828E+01 -0.16642788812E+04  0.16773657289E+04  0.12700000000E+03 0.  0.
<mgrwt>
<rscale>  0 0.53857211E+03</rscale>
<asrwt>0</asrwt>
<pdfrwt beam="1">  1        2 0.29286544E+00 0.53857211E+03</pdfrwt>
<pdfrwt beam="2">  1       -2 0.50531656E-02 0.53857211E+03</pdfrwt>
<totfact> 0.15829110E+03</totfact>
</mgrwt>
</event>
<event>
 4    1  0.1383574E-004  0.4435650E+03  0.7818608E-02  0.1029659E+00
          2   -1    0    0  501    0  0.00000000000E+00  0.00000000000E+00  0.12842790252E+03  0.12842790255E+03  0.25500000000E-02 0.  1.
         -2   -1    0    0    0  501 -0.00000000000E+00 -0.00000000000E+00 -0.38299673348E+03  0.38299673348E+03  0.25500000000E-02 0. -1.
    5000001    1    1    2    0    0  0.16319303934E+03 -0.71083367834E+02 -0.17001738560E+03  0.27698325704E+03  0.12700000000E+03 0.  0.
   -5000001    1    1    2    0    0 -0.16319303934E+03  0.71083367834E+02 -0.84551445358E+02  0.23444137900E+03  0.12700000000E+03 0.  0.
<mgrwt>
<rscale>  0 0.44356495E+03</rscale>
<asrwt>0</asrwt>
<pdfrwt beam="1">  1        2 0.18346843E-01 0.44356495E+03</pdfrwt>
<pdfrwt beam="2">  1       -2 0.54713818E-01 0.44356495E+03</pdfrwt>
<totfact> 0.99039524E+02</totfact>
</mgrwt>
</event>
<event>
 4    1  0.1383574E-004  0.3643169E+03  0.7818608E-02  0.1056888E+00
          2   -1    0    0  501    0  0.00000000000E+00  0.00000000000E+00  0.12259058980E+03  0.12259058983E+03  0.25500000000E-02 0.  1.
         -2   -1    0    0    0  501 -0.00000000000E+00 -0.00000000000E+00 -0.27067084682E+03  0.27067084684E+03  0.25500000000E-02 0. -1.
    5000001    1    1    2    0    0  0.80553233699E+02 -0.98347698494E+02 -0.41808041411E+02  0.18449391747E+03  0.12700000000E+03 0.  0.
   -5000001    1    1    2    0    0 -0.80553233699E+02  0.98347698494E+02 -0.10627221561E+03  0.20876751919E+03  0.12700000000E+03 0.  0.
<mgrwt>
<rscale>  0 0.36431689E+03</rscale>
<asrwt>0</asrwt>
<pdfrwt beam="1">  1        2 0.17512941E-01 0.36431689E+03</pdfrwt>
<pdfrwt beam="2">  1       -2 0.38667264E-01 0.36431689E+03</pdfrwt>
<totfact> 0.20743191E+03</totfact>
</mgrwt>
</event>
<event>
 4    1  0.1383574E-004  0.4577394E+03  0.7818608E-02  0.1025439E+00
         -2   -1    0    0    0  501 -0.00000000000E+00  0.00000000000E+00  0.60805046157E+03  0.60805046158E+03  0.25500000000E-02 0. -1.
          2   -1    0    0  501    0  0.00000000000E+00 -0.00000000000E+00 -0.86146386477E+02  0.86146386515E+02  0.25500000000E-02 0.  1.
    5000001    1    1    2    0    0  0.14382700189E+03  0.12405339209E+03  0.28112304619E+03  0.36226318839E+03  0.12700000000E+03 0.  0.
   -5000001    1    1    2    0    0 -0.14382700189E+03 -0.12405339209E+03  0.24078102890E+03  0.33193365970E+03  0.12700000000E+03 0.  0.
<mgrwt>
<rscale>  0 0.45773945E+03</rscale>
<asrwt>0</asrwt>
<pdfrwt beam="1">  1        2 0.12306626E-01 0.45773945E+03</pdfrwt>
<pdfrwt beam="2">  1       -2 0.86864356E-01 0.45773945E+03</pdfrwt>
<totfact> 0.59088726E+02</totfact>
</mgrwt>
</event>
<event>
 4    1  0.1383574E-004  0.3930149E+03  0.7818608E-02  0.1046226E+00
         -2   -1    0    0    0  501 -0.00000000000E+00  0.00000000000E+00  0.67947997005E+02  0.67947997053E+02  0.25500000000E-02 0. -1.
          2   -1    0    0  501    0  0.00000000000E+00 -0.00000000000E+00 -0.56830493942E+03  0.56830493943E+03  0.25500000000E-02 0.  1.
    5000001    1    1    2    0    0 -0.76708238251E+02  0.10920040494E+03 -0.36089650793E+03  0.40519646061E+03  0.12700000000E+03 0.  0.
   -5000001    1    1    2    0    0  0.76708238251E+02 -0.10920040494E+03 -0.13946043449E+03  0.23105647587E+03  0.12700000000E+03 0.  0.
<mgrwt>
<rscale>  0 0.39301492E+03</rscale>
<asrwt>0</asrwt>
<pdfrwt beam="1">  1        2 0.81186418E-01 0.39301492E+03</pdfrwt>
<pdfrwt beam="2">  1       -2 0.97068570E-02 0.39301492E+03</pdfrwt>
<totfact> 0.41018094E+03</totfact>
</mgrwt>
</event>
<event>
 4    1  0.1383574E-004  0.8086973E+03  0.7818608E-02  0.9547513E-01
         -2   -1    0    0    0  501 -0.00000000000E+00  0.00000000000E+00  0.44870103114E+03  0.44870103114E+03  0.25500000000E-02 0. -1.
          2   -1    0    0  501    0  0.00000000000E+00 -0.00000000000E+00 -0.36438029398E+03  0.36438029399E+03  0.25500000000E-02 0.  1.
    5000001    1    1    2    0    0  0.11211875553E+03 -0.36636422594E+03  0.18041737109E+02  0.40403943579E+03  0.12700000000E+03 0.  0.
   -5000001    1    1    2    0    0 -0.11211875553E+03  0.36636422594E+03  0.66279000050E+02  0.40904188935E+03  0.12700000000E+03 0.  0.
<mgrwt>
<rscale>  0 0.80869726E+03</rscale>
<asrwt>0</asrwt>
<pdfrwt beam="1">  1        2 0.52054327E-01 0.80869726E+03</pdfrwt>
<pdfrwt beam="2">  1       -2 0.64100148E-01 0.80869726E+03</pdfrwt>
<totfact> 0.21747400E+02</totfact>
</mgrwt>
</event>
<event>
 4    1  0.1383574E-004  0.5404857E+03  0.7818608E-02  0.1003720E+00
         -2   -1    0    0    0  501 -0.00000000000E+00  0.00000000000E+00  0.54289907639E+02  0.54289907699E+02  0.25500000000E-02 0. -1.
          2   -1    0    0  501    0  0.00000000000E+00 -0.00000000000E+00 -0.13452074559E+04  0.13452074559E+04  0.25500000000E-02 0.  1.
    5000001    1    1    2    0    0 -0.17590793354E+03  0.98948313637E+02 -0.31621799541E+03  0.39605200476E+03  0.12700000000E+03 0.  0.
   -5000001    1    1    2    0    0  0.17590793354E+03 -0.98948313637E+02 -0.97469955287E+03  0.10034453589E+04  0.12700000000E+03 0.  0.
<mgrwt>
<rscale>  0 0.54048567E+03</rscale>
<asrwt>0</asrwt>
<pdfrwt beam="1">  1        2 0.19217247E+00 0.54048567E+03</pdfrwt>
<pdfrwt beam="2">  1       -2 0.77557019E-02 0.54048567E+03</pdfrwt>
<totfact> 0.18523637E+03</totfact>
</mgrwt>
</event>
<event>
 4    1  0.1383574E-004  0.6046323E+03  0.7818608E-02  0.9895842E-01
          2   -1    0    0  501    0  0.00000000000E+00  0.00000000000E+00  0.53028127461E+03  0.53028127462E+03  0.25500000000E-02 0.  1.
         -2   -1    0    0    0  501 -0.00000000000E+00 -0.00000000000E+00 -0.17235204555E+03  0.17235204557E+03  0.25500000000E-02 0. -1.
    5000001    1    1    2    0    0 -0.14919207667E+03  0.40779878023E+02 -0.84356425584E+02  0.21717799320E+03  0.12700000000E+03 0.  0.
   -5000001    1    1    2    0    0  0.14919207667E+03 -0.40779878023E+02  0.44228565464E+03  0.48545532698E+03  0.12700000000E+03 0.  0.
<mgrwt>
<rscale>  0 0.60463233E+03</rscale>
<asrwt>0</asrwt>
<pdfrwt beam="1">  1        2 0.75754467E-01 0.60463233E+03</pdfrwt>
<pdfrwt beam="2">  1       -2 0.24621721E-01 0.60463233E+03</pdfrwt>
<totfact> 0.92663869E+02</totfact>
</mgrwt>
</event>
<event>
 4    1  0.1383574E-004  0.3989306E+03  0.7818608E-02  0.1044151E+00
         -2   -1    0    0    0  501 -0.00000000000E+00  0.00000000000E+00  0.65346485273E+02  0.65346485323E+02  0.25500000000E-02 0. -1.
          2   -1    0    0  501    0  0.00000000000E+00 -0.00000000000E+00 -0.60885296111E+03  0.60885296111E+03  0.25500000000E-02 0.  1.
    5000001    1    1    2    0    0 -0.76658414568E+02  0.12763223848E+03 -0.20649800234E+03  0.28449415775E+03  0.12700000000E+03 0.  0.
   -5000001    1    1    2    0    0  0.76658414568E+02 -0.12763223848E+03 -0.33700847350E+03  0.38970528869E+03  0.12700000000E+03 0.  0.
<mgrwt>
<rscale>  0 0.39893058E+03</rscale>
<asrwt>0</asrwt>
<pdfrwt beam="1">  1        2 0.86978991E-01 0.39893058E+03</pdfrwt>
<pdfrwt beam="2">  1       -2 0.93352125E-02 0.39893058E+03</pdfrwt>
<totfact> 0.40332357E+03</totfact>
</mgrwt>
</event>
<event>
 4    1  0.1383574E-004  0.3232258E+03  0.7818608E-02  0.1074174E+00
          2   -1    0    0  501    0  0.00000000000E+00  0.00000000000E+00  0.94760007157E+03  0.94760007158E+03  0.25500000000E-02 0.  1.
         -2   -1    0    0    0  501 -0.00000000000E+00 -0.00000000000E+00 -0.27563037065E+02  0.27563037183E+02  0.25500000000E-02 0. -1.
    5000001    1    1    2    0    0  0.54376305309E+02 -0.44804423360E+02  0.24614275801E+03  0.28579621455E+03  0.12700000000E+03 0.  0.
   -5000001    1    1    2    0    0 -0.54376305309E+02  0.44804423360E+02  0.67389427650E+03  0.68936689421E+03  0.12700000000E+03 0.  0.
<mgrwt>
<rscale>  0 0.32322584E+03</rscale>
<asrwt>0</asrwt>
<pdfrwt beam="1">  1        2 0.13537149E+00 0.32322584E+03</pdfrwt>
<pdfrwt beam="2">  1       -2 0.39375753E-02 0.32322584E+03</pdfrwt>
<totfact> 0.88438596E+03</totfact>
</mgrwt>
</event>
<event>
 4    1  0.1383574E-004  0.5212786E+03  0.7818608E-02  0.1008369E+00
         -2   -1    0    0    0  501 -0.00000000000E+00  0.00000000000E+00  0.88279193177E+02  0.88279193214E+02  0.25500000000E-02 0. -1.
          2   -1    0    0  501    0  0.00000000000E+00 -0.00000000000E+00 -0.76952270198E+03  0.76952270199E+03  0.25500000000E-02 0.  1.
    5000001    1    1    2    0    0 -0.14768356647E+03 -0.16457875256E+03 -0.42934913856E+03  0.49936588227E+03  0.12700000000E+03 0.  0.
   -5000001    1    1    2    0    0  0.14768356647E+03  0.16457875256E+03 -0.25189437025E+03  0.35843601293E+03  0.12700000000E+03 0.  0.
<mgrwt>
<rscale>  0 0.52127859E+03</rscale>
<asrwt>0</asrwt>
<pdfrwt beam="1">  1        2 0.10993181E+00 0.52127859E+03</pdfrwt>
<pdfrwt beam="2">  1       -2 0.12611314E-01 0.52127859E+03</pdfrwt>
<totfact> 0.18714868E+03</totfact>
</mgrwt>
</event>
<event>
 4    1  0.1383574E-004  0.3066739E+03  0.7818608E-02  0.1081951E+00
         -2   -1    0    0    0  501 -0.00000000000E+00  0.00000000000E+00  0.57719606771E+02  0.57719606827E+02  0.25500000000E-02 0. -1.
          2   -1    0    0  501    0  0.00000000000E+00 -0.00000000000E+00 -0.40735252132E+03  0.40735252133E+03  0.25500000000E-02 0.  1.
    5000001    1    1    2    0    0 -0.73788222259E+02  0.42575606754E+02 -0.15780433370E+03  0.21974665360E+03  0.12700000000E+03 0.  0.
   -5000001    1    1    2    0    0  0.73788222259E+02 -0.42575606754E+02 -0.19182858085E+03  0.24532547456E+03  0.12700000000E+03 0.  0.
<mgrwt>
<rscale>  0 0.30667395E+03</rscale>
<asrwt>0</asrwt>
<pdfrwt beam="1">  1        2 0.58193216E-01 0.30667395E+03</pdfrwt>
<pdfrwt beam="2">  1       -2 0.82456583E-02 0.30667395E+03</pdfrwt>
<totfact> 0.76424621E+03</totfact>
</mgrwt>
</event>
<event>
 4    1  0.1383574E-004  0.8474663E+03  0.7818608E-02  0.9493744E-01
         -2   -1    0    0    0  501 -0.00000000000E+00  0.00000000000E+00  0.61099301115E+02  0.61099301168E+02  0.25500000000E-02 0. -1.
          2   -1    0    0  501    0  0.00000000000E+00 -0.00000000000E+00 -0.29386553407E+04  0.29386553407E+04  0.25500000000E-02 0.  1.
    5000001    1    1    2    0    0  0.38951686551E+03 -0.10687912506E+03 -0.13801590780E+04  0.14436462921E+04  0.12700000000E+03 0.  0.
   -5000001    1    1    2    0    0 -0.38951686551E+03  0.10687912506E+03 -0.14973969615E+04  0.15561083498E+04  0.12700000000E+03 0.  0.
<mgrwt>
<rscale>  0 0.84746631E+03</rscale>
<asrwt>0</asrwt>
<pdfrwt beam="1">  1        2 0.41980782E+00 0.84746631E+03</pdfrwt>
<pdfrwt beam="2">  1       -2 0.87284735E-02 0.84746631E+03</pdfrwt>
<totfact> 0.22613962E+02</totfact>
</mgrwt>
</event>
<event>
 4    1  0.1383574E-004  0.3473093E+03  0.7818608E-02  0.1063725E+00
          2   -1    0    0  501    0  0.00000000000E+00  0.00000000000E+00  0.24001454480E+03  0.24001454482E+03  0.25500000000E-02 0.  1.
         -2   -1    0    0    0  501 -0.00000000000E+00 -0.00000000000E+00 -0.12564216078E+03  0.12564216080E+03  0.25500000000E-02 0. -1.
    5000001    1    1    2    0    0  0.33525027520E+01  0.11747859841E+03  0.41767191813E+02  0.17800550180E+03  0.12700000000E+03 0.  0.
   -5000001    1    1    2    0    0 -0.33525027520E+01 -0.11747859841E+03  0.72605192216E+02  0.18765120382E+03  0.12700000000E+03 0.  0.
<mgrwt>
<rscale>  0 0.34730935E+03</rscale>
<asrwt>0</asrwt>
<pdfrwt beam="1">  1        2 0.34287792E-01 0.34730935E+03</pdfrwt>
<pdfrwt beam="2">  1       -2 0.17948880E-01 0.34730935E+03</pdfrwt>
<totfact> 0.38418646E+03</totfact>
</mgrwt>
</event>
<event>
 4    1  0.1383574E-004  0.3901138E+03  0.7818608E-02  0.1047258E+00
         -2   -1    0    0    0  501 -0.00000000000E+00  0.00000000000E+00  0.49821170221E+03  0.49821170222E+03  0.25500000000E-02 0. -1.
          2   -1    0    0  501    0  0.00000000000E+00 -0.00000000000E+00 -0.76367543239E+02  0.76367543281E+02  0.25500000000E-02 0.  1.
    5000001    1    1    2    0    0 -0.12532031592E+03 -0.78376022292E+02  0.19857986989E+03  0.27822822858E+03  0.12700000000E+03 0.  0.
   -5000001    1    1    2    0    0  0.12532031592E+03  0.78376022292E+02  0.22326428908E+03  0.29635101692E+03  0.12700000000E+03 0.  0.
<mgrwt>
<rscale>  0 0.39011385E+03</rscale>
<asrwt>0</asrwt>
<pdfrwt beam="1">  1        2 0.10909649E-01 0.39011385E+03</pdfrwt>
<pdfrwt beam="2">  1       -2 0.71173104E-01 0.39011385E+03</pdfrwt>
<totfact> 0.10657180E+03</totfact>
</mgrwt>
</event>
<event>
 4    1  0.1383574E-004  0.5668153E+03  0.7818608E-02  0.9976751E-01
         -2   -1    0    0    0  501 -0.00000000000E+00  0.00000000000E+00  0.95143513906E+03  0.95143513907E+03  0.25500000000E-02 0. -1.
          2   -1    0    0  501    0  0.00000000000E+00 -0.00000000000E+00 -0.84419731382E+02  0.84419731421E+02  0.25500000000E-02 0.  1.
    5000001    1    1    2    0    0  0.94442042051E+02  0.17773489977E+03  0.15227510681E+03  0.28253442633E+03  0.12700000000E+03 0.  0.
   -5000001    1    1    2    0    0 -0.94442042051E+02 -0.17773489977E+03  0.71474030087E+03  0.75332044416E+03  0.12700000000E+03 0.  0.
<mgrwt>
<rscale>  0 0.56681531E+03</rscale>
<asrwt>0</asrwt>
<pdfrwt beam="1">  1        2 0.12059962E-01 0.56681531E+03</pdfrwt>
<pdfrwt beam="2">  1       -2 0.13591930E+00 0.56681531E+03</pdfrwt>
<totfact> 0.20651272E+02</totfact>
</mgrwt>
</event>
<event>
 4    1  0.1383574E-004  0.3312702E+03  0.7818608E-02  0.1070576E+00
         -2   -1    0    0    0  501 -0.00000000000E+00  0.00000000000E+00  0.19331173213E+03  0.19331173215E+03  0.25500000000E-02 0. -1.
          2   -1    0    0  501    0  0.00000000000E+00 -0.00000000000E+00 -0.14192095972E+03  0.14192095974E+03  0.25500000000E-02 0.  1.
    5000001    1    1    2    0    0 -0.82693089895E+02 -0.62040953305E+02  0.50867805159E+02  0.17147524779E+03  0.12700000000E+03 0.  0.
   -5000001    1    1    2    0    0  0.82693089895E+02  0.62040953305E+02  0.52296725040E+00  0.16375744410E+03  0.12700000000E+03 0.  0.
<mgrwt>
<rscale>  0 0.33127020E+03</rscale>
<asrwt>0</asrwt>
<pdfrwt beam="1">  1        2 0.20274423E-01 0.33127020E+03</pdfrwt>
<pdfrwt beam="2">  1       -2 0.27615962E-01 0.33127020E+03</pdfrwt>
<totfact> 0.32584262E+03</totfact>
</mgrwt>
</event>
<event>
 4    1  0.1383574E-004  0.1037475E+04  0.7818608E-02  0.9268372E-01
          2   -1    0    0  501    0  0.00000000000E+00  0.00000000000E+00  0.84858116852E+03  0.84858116852E+03  0.25500000000E-02 0.  1.
         -2   -1    0    0    0  501 -0.00000000000E+00 -0.00000000000E+00 -0.31710398020E+03  0.31710398021E+03  0.25500000000E-02 0. -1.
    5000001    1    1    2    0    0  0.38080796430E+03 -0.28701052862E+03  0.86072268675E+02  0.50092632657E+03  0.12700000000E+03 0.  0.
   -5000001    1    1    2    0    0 -0.38080796430E+03  0.28701052862E+03  0.44540491964E+03  0.66475882217E+03  0.12700000000E+03 0.  0.
<mgrwt>
<rscale>  0 0.10374748E+04</rscale>
<asrwt>0</asrwt>
<pdfrwt beam="1">  1        2 0.12122588E+00 0.10374748E+04</pdfrwt>
<pdfrwt beam="2">  1       -2 0.45300569E-01 0.10374748E+04</pdfrwt>
<totfact> 0.16189502E+02</totfact>
</mgrwt>
</event>
<event>
 4    1  0.1383574E-004  0.1371920E+04  0.7818608E-02  0.8974399E-01
         -2   -1    0    0    0  501 -0.00000000000E+00  0.00000000000E+00  0.13790557083E+03  0.13790557085E+03  0.25500000000E-02 0. -1.
          2   -1    0    0  501    0  0.00000000000E+00 -0.00000000000E+00 -0.34120533725E+04  0.34120533725E+04  0.25500000000E-02 0.  1.
    5000001    1    1    2    0    0  0.12551469438E+03  0.51296366044E+03 -0.27211652621E+04  0.27748432459E+04  0.12700000000E+03 0.  0.
   -5000001    1    1    2    0    0 -0.12551469438E+03 -0.51296366044E+03 -0.55298253960E+03  0.77511569752E+03  0.12700000000E+03 0.  0.
<mgrwt>
<rscale>  0 0.13719201E+04</rscale>
<asrwt>0</asrwt>
<pdfrwt beam="1">  1        2 0.48743614E+00 0.13719201E+04</pdfrwt>
<pdfrwt beam="2">  1       -2 0.19700798E-01 0.13719201E+04</pdfrwt>
<totfact> 0.29500437E+01</totfact>
</mgrwt>
</event>
<event>
 4    1  0.1383574E-004  0.3690173E+03  0.7818608E-02  0.1055069E+00
         -2   -1    0    0    0  501 -0.00000000000E+00  0.00000000000E+00  0.19385399271E+02  0.19385399439E+02  0.25500000000E-02 0. -1.
          2   -1    0    0  501    0  0.00000000000E+00 -0.00000000000E+00 -0.17561383009E+04  0.17561383009E+04  0.25500000000E-02 0.  1.
    5000001    1    1    2    0    0 -0.12318340878E+03 -0.51857771451E+02 -0.90275813015E+03  0.92139276219E+03  0.12700000000E+03 0.  0.
   -5000001    1    1    2    0    0  0.12318340878E+03  0.51857771451E+02 -0.83399477146E+03  0.85413093814E+03  0.12700000000E+03 0.  0.
<mgrwt>
<rscale>  0 0.36901730E+03</rscale>
<asrwt>0</asrwt>
<pdfrwt beam="1">  1        2 0.25087680E+00 0.36901730E+03</pdfrwt>
<pdfrwt beam="2">  1       -2 0.27693439E-02 0.36901730E+03</pdfrwt>
<totfact> 0.55610756E+03</totfact>
</mgrwt>
</event>
<event>
 4    1  0.1383574E-004  0.5494737E+03  0.7818608E-02  0.1001616E+00
          2   -1    0    0  501    0  0.00000000000E+00  0.00000000000E+00  0.24519854052E+03  0.24519854054E+03  0.25500000000E-02 0.  1.
         -2   -1    0    0    0  501 -0.00000000000E+00 -0.00000000000E+00 -0.30783353661E+03  0.30783353662E+03  0.25500000000E-02 0. -1.
    5000001    1    1    2    0    0  0.16010208811E+03  0.15991307860E+03  0.59524766870E+02  0.26622747641E+03  0.12700000000E+03 0.  0.
   -5000001    1    1    2    0    0 -0.16010208811E+03 -0.15991307860E+03 -0.12215976296E+03  0.28680460075E+03  0.12700000000E+03 0.  0.
<mgrwt>
<rscale>  0 0.54947369E+03</rscale>
<asrwt>0</asrwt>
<pdfrwt beam="1">  1        2 0.35028363E-01 0.54947369E+03</pdfrwt>
<pdfrwt beam="2">  1       -2 0.43976220E-01 0.54947369E+03</pdfrwt>
<totfact> 0.73652291E+02</totfact>
</mgrwt>
</event>
<event>
 4    1  0.1383574E-004  0.5247360E+03  0.7818608E-02  0.1007517E+00
         -2   -1    0    0    0  501 -0.00000000000E+00  0.00000000000E+00  0.52655236058E+02  0.52655236119E+02  0.25500000000E-02 0. -1.
          2   -1    0    0  501    0  0.00000000000E+00 -0.00000000000E+00 -0.13073148542E+04  0.13073148542E+04  0.25500000000E-02 0.  1.
    5000001    1    1    2    0    0 -0.12321424756E+03 -0.17701152759E+03 -0.83128931480E+03  0.86815076835E+03  0.12700000000E+03 0.  0.
   -5000001    1    1    2    0    0  0.12321424756E+03  0.17701152759E+03 -0.42337030332E+03  0.49181932194E+03  0.12700000000E+03 0.  0.
<mgrwt>
<rscale>  0 0.52473602E+03</rscale>
<asrwt>0</asrwt>
<pdfrwt beam="1">  1        2 0.18675924E+00 0.52473602E+03</pdfrwt>
<pdfrwt beam="2">  1       -2 0.75221774E-02 0.52473602E+03</pdfrwt>
<totfact> 0.20383732E+03</totfact>
</mgrwt>
</event>
<event>
 4    1  0.1383574E-004  0.3575851E+03  0.7818608E-02  0.1059544E+00
          2   -1    0    0  501    0  0.00000000000E+00  0.00000000000E+00  0.71248650303E+03  0.71248650303E+03  0.25500000000E-02 0.  1.
         -2   -1    0    0    0  501 -0.00000000000E+00 -0.00000000000E+00 -0.44866496369E+02  0.44866496441E+02  0.25500000000E-02 0. -1.
    5000001    1    1    2    0    0  0.29396463797E+02  0.12167536635E+03  0.30629875437E+03  0.35442484929E+03  0.12700000000E+03 0.  0.
   -5000001    1    1    2    0    0 -0.29396463797E+02 -0.12167536635E+03  0.36132125228E+03  0.40292815019E+03  0.12700000000E+03 0.  0.
<mgrwt>
<rscale>  0 0.35758508E+03</rscale>
<asrwt>0</asrwt>
<pdfrwt beam="1">  1        2 0.10178378E+00 0.35758508E+03</pdfrwt>
<pdfrwt beam="2">  1       -2 0.64095000E-02 0.35758508E+03</pdfrwt>
<totfact> 0.60355585E+03</totfact>
</mgrwt>
</event>
<event>
 4    1  0.1383574E-004  0.2935362E+03  0.7818608E-02  0.1088517E+00
         -2   -1    0    0    0  501 -0.00000000000E+00  0.00000000000E+00  0.36312973375E+03  0.36312973376E+03  0.25500000000E-02 0. -1.
          2   -1    0    0  501    0  0.00000000000E+00 -0.00000000000E+00 -0.59320061926E+02  0.59320061981E+02  0.25500000000E-02 0.  1.
    5000001    1    1    2    0    0 -0.20829152920E+02 -0.59833848983E+02  0.20571408448E+03  0.24992244327E+03  0.12700000000E+03 0.  0.
   -5000001    1    1    2    0    0  0.20829152920E+02  0.59833848983E+02  0.98095587348E+02  0.17252735248E+03  0.12700000000E+03 0.  0.
<mgrwt>
<rscale>  0 0.29353622E+03</rscale>
<asrwt>0</asrwt>
<pdfrwt beam="1">  1        2 0.84742943E-02 0.29353622E+03</pdfrwt>
<pdfrwt beam="2">  1       -2 0.51875678E-01 0.29353622E+03</pdfrwt>
<totfact> 0.28155241E+03</totfact>
</mgrwt>
</event>
<event>
 4    1  0.1383574E-004  0.4025585E+03  0.7818608E-02  0.1042897E+00
         -2   -1    0    0    0  501 -0.00000000000E+00  0.00000000000E+00  0.23415791830E+03  0.23415791831E+03  0.25500000000E-02 0. -1.
          2   -1    0    0  501    0  0.00000000000E+00 -0.00000000000E+00 -0.17301718129E+03  0.17301718131E+03  0.25500000000E-02 0.  1.
    5000001    1    1    2    0    0 -0.10184474208E+03 -0.11617186760E+03  0.75922561362E+01  0.20013719460E+03  0.12700000000E+03 0.  0.
   -5000001    1    1    2    0    0  0.10184474208E+03  0.11617186760E+03  0.53548480875E+02  0.20703790502E+03  0.12700000000E+03 0.  0.
<mgrwt>
<rscale>  0 0.40255853E+03</rscale>
<asrwt>0</asrwt>
<pdfrwt beam="1">  1        2 0.24716740E-01 0.40255853E+03</pdfrwt>
<pdfrwt beam="2">  1       -2 0.33451131E-01 0.40255853E+03</pdfrwt>
<totfact> 0.18362763E+03</totfact>
</mgrwt>
</event>
<event>
 4    1  0.1383574E-004  0.5065469E+03  0.7818608E-02  0.1012084E+00
          2   -1    0    0  501    0  0.00000000000E+00  0.00000000000E+00  0.17393952139E+03  0.17393952141E+03  0.25500000000E-02 0.  1.
         -2   -1    0    0    0  501 -0.00000000000E+00 -0.00000000000E+00 -0.36879168057E+03  0.36879168058E+03  0.25500000000E-02 0. -1.
    5000001    1    1    2    0    0 -0.98254624237E+02  0.15835914935E+03  0.26076558004E+02  0.22702550131E+03  0.12700000000E+03 0.  0.
   -5000001    1    1    2    0    0  0.98254624237E+02 -0.15835914935E+03 -0.22092871718E+03  0.31570570068E+03  0.12700000000E+03 0.  0.
<mgrwt>
<rscale>  0 0.50654693E+03</rscale>
<asrwt>0</asrwt>
<pdfrwt beam="1">  1        2 0.24848503E-01 0.50654693E+03</pdfrwt>
<pdfrwt beam="2">  1       -2 0.52684526E-01 0.50654693E+03</pdfrwt>
<totfact> 0.75382668E+02</totfact>
</mgrwt>
</event>
<event>
 4    1  0.1383574E-004  0.2844957E+03  0.7818608E-02  0.1093259E+00
          2   -1    0    0  501    0  0.00000000000E+00  0.00000000000E+00  0.84860764011E+03  0.84860764012E+03  0.25500000000E-02 0.  1.
         -2   -1    0    0    0  501 -0.00000000000E+00 -0.00000000000E+00 -0.23844294504E+02  0.23844294640E+02  0.25500000000E-02 0. -1.
    5000001    1    1    2    0    0 -0.29605949442E+02 -0.53817596171E+02  0.46830975981E+03  0.48909700166E+03  0.12700000000E+03 0.  0.
   -5000001    1    1    2    0    0  0.29605949442E+02  0.53817596171E+02  0.35645358580E+03  0.38335493310E+03  0.12700000000E+03 0.  0.
<mgrwt>
<rscale>  0 0.28449570E+03</rscale>
<asrwt>0</asrwt>
<pdfrwt beam="1">  1        2 0.12122965E+00 0.28449570E+03</pdfrwt>
<pdfrwt beam="2">  1       -2 0.34063282E-02 0.28449570E+03</pdfrwt>
<totfact> 0.12640643E+04</totfact>
</mgrwt>
</event>
<event>
 4    1  0.1383574E-004  0.4723235E+03  0.7818608E-02  0.1021266E+00
          2   -1    0    0  501    0  0.00000000000E+00  0.00000000000E+00  0.65256580653E+03  0.65256580654E+03  0.25500000000E-02 0.  1.
         -2   -1    0    0    0  501 -0.00000000000E+00 -0.00000000000E+00 -0.85466281144E+02  0.85466281182E+02  0.25500000000E-02 0. -1.
    5000001    1    1    2    0    0  0.13528290586E+03 -0.12371683460E+03  0.40494795154E+03  0.46229769980E+03  0.12700000000E+03 0.  0.
   -5000001    1    1    2    0    0 -0.13528290586E+03  0.12371683460E+03  0.16215157384E+03  0.27573438792E+03  0.12700000000E+03 0.  0.
<mgrwt>
<rscale>  0 0.47232350E+03</rscale>
<asrwt>0</asrwt>
<pdfrwt beam="1">  1        2 0.93223682E-01 0.47232350E+03</pdfrwt>
<pdfrwt beam="2">  1       -2 0.12209469E-01 0.47232350E+03</pdfrwt>
<totfact> 0.24130640E+03</totfact>
</mgrwt>
</event>
<event>
 4    1  0.1383574E-004  0.3596562E+03  0.7818608E-02  0.1058720E+00
          2   -1    0    0  501    0  0.00000000000E+00  0.00000000000E+00  0.20261535015E+04  0.20261535015E+04  0.25500000000E-02 0. -1.
         -2   -1    0    0    0  501 -0.00000000000E+00 -0.00000000000E+00 -0.15960361082E+02  0.15960361286E+02  0.25500000000E-02 0.  1.
    5000001    1    1    2    0    0  0.74841209110E+02  0.10352643901E+02  0.15869354662E+04  0.15938009781E+04  0.12700000000E+03 0.  0.
   -5000001    1    1    2    0    0 -0.74841209110E+02 -0.10352643901E+02  0.42325767418E+03  0.44831288468E+03  0.12700000000E+03 0.  0.
<mgrwt>
<rscale>  0 0.35965618E+03</rscale>
<asrwt>0</asrwt>
<pdfrwt beam="1">  1        2 0.28945071E+00 0.35965618E+03</pdfrwt>
<pdfrwt beam="2">  1       -2 0.22800499E-02 0.35965618E+03</pdfrwt>
<totfact> 0.54671702E+03</totfact>
</mgrwt>
</event>
<event>
 4    1  0.1383574E-004  0.3100055E+03  0.7818608E-02  0.1080343E+00
         -2   -1    0    0    0  501 -0.00000000000E+00  0.00000000000E+00  0.15324683585E+02  0.15324683798E+02  0.25500000000E-02 0. -1.
          2   -1    0    0  501    0  0.00000000000E+00 -0.00000000000E+00 -0.15677878839E+04  0.15677878839E+04  0.25500000000E-02 0.  1.
    5000001    1    1    2    0    0 -0.13505808027E+02  0.53030117169E+02 -0.41867873658E+03  0.44092571329E+03  0.12700000000E+03 0.  0.
   -5000001    1    1    2    0    0  0.13505808027E+02 -0.53030117169E+02 -0.11337844638E+04  0.11421868545E+04  0.12700000000E+03 0.  0.
<mgrwt>
<rscale>  0 0.31000551E+03</rscale>
<asrwt>0</asrwt>
<pdfrwt beam="1">  1        2 0.22396960E+00 0.31000551E+03</pdfrwt>
<pdfrwt beam="2">  1       -2 0.21892415E-02 0.31000551E+03</pdfrwt>
<totfact> 0.97795443E+03</totfact>
</mgrwt>
</event>
<event>
 4    1  0.1383574E-004  0.3650213E+03  0.7818608E-02  0.1056613E+00
          2   -1    0    0  501    0  0.00000000000E+00  0.00000000000E+00  0.12406421509E+03  0.12406421512E+03  0.25500000000E-02 0.  1.
         -2   -1    0    0    0  501 -0.00000000000E+00 -0.00000000000E+00 -0.26849105003E+03  0.26849105004E+03  0.25500000000E-02 0. -1.
    5000001    1    1    2    0    0  0.38564471026E+02  0.11730958532E+03 -0.24938775532E+02  0.17888459900E+03  0.12700000000E+03 0.  0.
   -5000001    1    1    2    0    0 -0.38564471026E+02 -0.11730958532E+03 -0.11948805941E+03  0.21367066616E+03  0.12700000000E+03 0.  0.
<mgrwt>
<rscale>  0 0.36502127E+03</rscale>
<asrwt>0</asrwt>
<pdfrwt beam="1">  1        2 0.17723459E-01 0.36502127E+03</pdfrwt>
<pdfrwt beam="2">  1       -2 0.38355864E-01 0.36502127E+03</pdfrwt>
<totfact> 0.20773232E+03</totfact>
</mgrwt>
</event>
<event>
 4    1  0.1383574E-004  0.3329842E+03  0.7818608E-02  0.1069824E+00
         -2   -1    0    0    0  501 -0.00000000000E+00  0.00000000000E+00  0.80861095396E+02  0.80861095436E+02  0.25500000000E-02 0. -1.
          2   -1    0    0  501    0  0.00000000000E+00 -0.00000000000E+00 -0.34280545347E+03  0.34280545348E+03  0.25500000000E-02 0.  1.
    5000001    1    1    2    0    0  0.37846866065E+02 -0.97518516786E+02 -0.98574441973E+02  0.19180241656E+03  0.12700000000E+03 0.  0.
   -5000001    1    1    2    0    0 -0.37846866065E+02  0.97518516786E+02 -0.16336991610E+03  0.23186413236E+03  0.12700000000E+03 0.  0.
<mgrwt>
<rscale>  0 0.33298423E+03</rscale>
<asrwt>0</asrwt>
<pdfrwt beam="1">  1        2 0.48972207E-01 0.33298423E+03</pdfrwt>
<pdfrwt beam="2">  1       -2 0.11551585E-01 0.33298423E+03</pdfrwt>
<totfact> 0.54011077E+03</totfact>
</mgrwt>
</event>
<event>
 4    1  0.1383574E-004  0.5082460E+03  0.7818608E-02  0.1011649E+00
          2   -1    0    0  501    0  0.00000000000E+00  0.00000000000E+00  0.20347557277E+04  0.20347557277E+04  0.25500000000E-02 0.  1.
         -2   -1    0    0    0  501 -0.00000000000E+00 -0.00000000000E+00 -0.31737712141E+02  0.31737712244E+02  0.25500000000E-02 0. -1.
    5000001    1    1    2    0    0  0.68781780737E+02  0.19692458261E+03  0.71575565050E+03  0.75627070274E+03  0.12700000000E+03 0.  0.
   -5000001    1    1    2    0    0 -0.68781780737E+02 -0.19692458261E+03  0.12872623651E+04  0.13102227372E+04  0.12700000000E+03 0.  0.
<mgrwt>
<rscale>  0 0.50824597E+03</rscale>
<asrwt>0</asrwt>
<pdfrwt beam="1">  1        2 0.29067941E+00 0.50824597E+03</pdfrwt>
<pdfrwt beam="2">  1       -2 0.45339585E-02 0.50824597E+03</pdfrwt>
<totfact> 0.19072058E+03</totfact>
</mgrwt>
</event>
<event>
 4    1  0.1383574E-004  0.3109696E+03  0.7818608E-02  0.1079882E+00
          2   -1    0    0  501    0  0.00000000000E+00  0.00000000000E+00  0.61723839211E+03  0.61723839211E+03  0.25500000000E-02 0.  1.
         -2   -1    0    0    0  501 -0.00000000000E+00 -0.00000000000E+00 -0.39167242963E+02  0.39167243046E+02  0.25500000000E-02 0. -1.
    5000001    1    1    2    0    0  0.88642787997E+02 -0.79846176378E+01  0.31265695430E+03  0.34900525649E+03  0.12700000000E+03 0.  0.
   -5000001    1    1    2    0    0 -0.88642787997E+02  0.79846176378E+01  0.26541419484E+03  0.30740037867E+03  0.12700000000E+03 0.  0.
<mgrwt>
<rscale>  0 0.31096962E+03</rscale>
<asrwt>0</asrwt>
<pdfrwt beam="1">  1        2 0.88176924E-01 0.31096962E+03</pdfrwt>
<pdfrwt beam="2">  1       -2 0.55953198E-02 0.31096962E+03</pdfrwt>
<totfact> 0.87795715E+03</totfact>
</mgrwt>
</event>
<event>
 4    1  0.1383574E-004  0.6061199E+03  0.7818608E-02  0.9892790E-01
          2   -1    0    0  501    0  0.00000000000E+00  0.00000000000E+00  0.53884529962E+03  0.53884529963E+03  0.25500000000E-02 0.  1.
         -2   -1    0    0    0  501 -0.00000000000E+00 -0.00000000000E+00 -0.17044845236E+03  0.17044845238E+03  0.25500000000E-02 0. -1.
    5000001    1    1    2    0    0  0.94220306660E+02  0.22050283700E+03  0.26251737749E+02  0.27261166711E+03  0.12700000000E+03 0.  0.
   -5000001    1    1    2    0    0 -0.94220306660E+02 -0.22050283700E+03  0.34214510951E+03  0.43668208490E+03  0.12700000000E+03 0.  0.
<mgrwt>
<rscale>  0 0.60611995E+03</rscale>
<asrwt>0</asrwt>
<pdfrwt beam="1">  1        2 0.76977899E-01 0.60611995E+03</pdfrwt>
<pdfrwt beam="2">  1       -2 0.24349779E-01 0.60611995E+03</pdfrwt>
<totfact> 0.92796169E+02</totfact>
</mgrwt>
</event>
<event>
 4    1  0.1383574E-004  0.2650968E+03  0.7818608E-02  0.1104119E+00
         -2   -1    0    0    0  501 -0.00000000000E+00  0.00000000000E+00  0.26531131507E+02  0.26531131629E+02  0.25500000000E-02 0. -1.
          2   -1    0    0  501    0  0.00000000000E+00 -0.00000000000E+00 -0.66220595703E+03  0.66220595704E+03  0.25500000000E-02 0.  1.
    5000001    1    1    2    0    0  0.54702298960E+00 -0.37748478570E+02 -0.30783353316E+03  0.33513539205E+03  0.12700000000E+03 0.  0.
   -5000001    1    1    2    0    0 -0.54702298960E+00  0.37748478570E+02 -0.32784129237E+03  0.35360169662E+03  0.12700000000E+03 0.  0.
<mgrwt>
<rscale>  0 0.26509676E+03</rscale>
<asrwt>0</asrwt>
<pdfrwt beam="1">  1        2 0.94600840E-01 0.26509676E+03</pdfrwt>
<pdfrwt beam="2">  1       -2 0.37901621E-02 0.26509676E+03</pdfrwt>
<totfact> 0.14512443E+04</totfact>
</mgrwt>
</event>
<event>
 4    1  0.1383574E-004  0.5618871E+03  0.7818608E-02  0.9987794E-01
          2   -1    0    0  501    0  0.00000000000E+00  0.00000000000E+00  0.88744929114E+02  0.88744929151E+02  0.25500000000E-02 0.  1.
         -2   -1    0    0    0  501 -0.00000000000E+00 -0.00000000000E+00 -0.88939494014E+03  0.88939494015E+03  0.25500000000E-02 0. -1.
    5000001    1    1    2    0    0  0.20883477406E+03 -0.65584787611E+02 -0.61272520967E+03  0.66292873659E+03  0.12700000000E+03 0.  0.
   -5000001    1    1    2    0    0 -0.20883477406E+03  0.65584787611E+02 -0.18792480135E+03  0.31521113271E+03  0.12700000000E+03 0.  0.
<mgrwt>
<rscale>  0 0.56188715E+03</rscale>
<asrwt>0</asrwt>
<pdfrwt beam="1">  1        2 0.12677848E-01 0.56188715E+03</pdfrwt>
<pdfrwt beam="2">  1       -2 0.12705641E+00 0.56188715E+03</pdfrwt>
<totfact> 0.23011142E+02</totfact>
</mgrwt>
</event>
<event>
 4    1  0.1383574E-004  0.5880512E+03  0.7818608E-02  0.9930511E-01
          2   -1    0    0  501    0  0.00000000000E+00  0.00000000000E+00  0.16770931387E+04  0.16770931387E+04  0.25500000000E-02 0. -1.
         -2   -1    0    0    0  501 -0.00000000000E+00 -0.00000000000E+00 -0.51548157553E+02  0.51548157616E+02  0.25500000000E-02 0.  1.
    5000001    1    1    2    0    0 -0.23143979541E+03  0.12944804794E+03  0.81000646626E+03  0.86171958977E+03  0.12700000000E+03 0.  0.
   -5000001    1    1    2    0    0  0.23143979541E+03 -0.12944804794E+03  0.81553851490E+03  0.86692170656E+03  0.12700000000E+03 0.  0.
<mgrwt>
<rscale>  0 0.58805123E+03</rscale>
<asrwt>0</asrwt>
<pdfrwt beam="1">  1        2 0.23958472E+00 0.58805123E+03</pdfrwt>
<pdfrwt beam="2">  1       -2 0.73640229E-02 0.58805123E+03</pdfrwt>
<totfact> 0.13492539E+03</totfact>
</mgrwt>
</event>
<event>
 4    1  0.1383574E-004  0.4021027E+03  0.7818608E-02  0.1043054E+00
         -2   -1    0    0    0  501 -0.00000000000E+00  0.00000000000E+00  0.30365081361E+03  0.30365081362E+03  0.25500000000E-02 0. -1.
          2   -1    0    0  501    0  0.00000000000E+00 -0.00000000000E+00 -0.13311885518E+03  0.13311885521E+03  0.25500000000E-02 0.  1.
    5000001    1    1    2    0    0 -0.12621796588E+03  0.64778978476E+02  0.15536978844E+03  0.24575610292E+03  0.12700000000E+03 0.  0.
   -5000001    1    1    2    0    0  0.12621796588E+03 -0.64778978476E+02  0.15162169991E+02  0.19101356591E+03  0.12700000000E+03 0.  0.
<mgrwt>
<rscale>  0 0.40210272E+03</rscale>
<asrwt>0</asrwt>
<pdfrwt beam="1">  1        2 0.19016979E-01 0.40210272E+03</pdfrwt>
<pdfrwt beam="2">  1       -2 0.43378687E-01 0.40210272E+03</pdfrwt>
<totfact> 0.15106715E+03</totfact>
</mgrwt>
</event>
<event>
 4    1  0.1383574E-004  0.3398711E+03  0.7818608E-02  0.1066851E+00
         -2   -1    0    0    0  501 -0.00000000000E+00  0.00000000000E+00  0.61783335864E+03  0.61783335864E+03  0.25500000000E-02 0. -1.
          2   -1    0    0  501    0  0.00000000000E+00 -0.00000000000E+00 -0.46740907832E+02  0.46740907902E+02  0.25500000000E-02 0.  1.
    5000001    1    1    2    0    0  0.78524354225E+01 -0.11140685861E+03  0.31802795389E+03  0.36019984501E+03  0.12700000000E+03 0.  0.
   -5000001    1    1    2    0    0 -0.78524354225E+01  0.11140685861E+03  0.25306449692E+03  0.30437442154E+03  0.12700000000E+03 0.  0.
<mgrwt>
<rscale>  0 0.33987111E+03</rscale>
<asrwt>0</asrwt>
<pdfrwt beam="1">  1        2 0.66772730E-02 0.33987111E+03</pdfrwt>
<pdfrwt beam="2">  1       -2 0.88261902E-01 0.33987111E+03</pdfrwt>
<totfact> 0.12344099E+03</totfact>
</mgrwt>
</event>
<event>
 4    1  0.1383574E-004  0.5319723E+03  0.7818608E-02  0.1005755E+00
         -2   -1    0    0    0  501 -0.00000000000E+00  0.00000000000E+00  0.11465036045E+03  0.11465036048E+03  0.25500000000E-02 0. -1.
          2   -1    0    0  501    0  0.00000000000E+00 -0.00000000000E+00 -0.61708157393E+03  0.61708157393E+03  0.25500000000E-02 0.  1.
    5000001    1    1    2    0    0 -0.59497217148E+02 -0.22571960276E+03 -0.26692092717E+03  0.37664975678E+03  0.12700000000E+03 0.  0.
   -5000001    1    1    2    0    0  0.59497217148E+02  0.22571960276E+03 -0.23551028630E+03  0.35508217763E+03  0.12700000000E+03 0.  0.
<mgrwt>
<rscale>  0 0.53197227E+03</rscale>
<asrwt>0</asrwt>
<pdfrwt beam="1">  1        2 0.88154508E-01 0.53197227E+03</pdfrwt>
<pdfrwt beam="2">  1       -2 0.16378623E-01 0.53197227E+03</pdfrwt>
<totfact> 0.15806807E+03</totfact>
</mgrwt>
</event>
<event>
 4    1  0.1383574E-004  0.9225515E+03  0.7818608E-02  0.9397822E-01
         -2   -1    0    0    0  501 -0.00000000000E+00  0.00000000000E+00  0.98788815615E+02  0.98788815648E+02  0.25500000000E-02 0. -1.
          2   -1    0    0  501    0  0.00000000000E+00 -0.00000000000E+00 -0.21538402946E+04  0.21538402946E+04  0.25500000000E-02 0.  1.
    5000001    1    1    2    0    0  0.44439863355E+02  0.38116515012E+03 -0.15701443022E+04  0.16213401564E+04  0.12700000000E+03 0.  0.
   -5000001    1    1    2    0    0 -0.44439863355E+02 -0.38116515012E+03 -0.48490717679E+03  0.63128895382E+03  0.12700000000E+03 0.  0.
<mgrwt>
<rscale>  0 0.92255153E+03</rscale>
<asrwt>0</asrwt>
<pdfrwt beam="1">  1        2 0.30769144E+00 0.92255153E+03</pdfrwt>
<pdfrwt beam="2">  1       -2 0.14112689E-01 0.92255153E+03</pdfrwt>
<totfact> 0.26219616E+02</totfact>
</mgrwt>
</event>
<event>
 4    1  0.1383574E-004  0.4741255E+03  0.7818608E-02  0.1020762E+00
          2   -1    0    0  501    0  0.00000000000E+00  0.00000000000E+00  0.43555940001E+02  0.43555940076E+02  0.25500000000E-02 0.  1.
         -2   -1    0    0    0  501 -0.00000000000E+00 -0.00000000000E+00 -0.12902661274E+04  0.12902661274E+04  0.25500000000E-02 0. -1.
    5000001    1    1    2    0    0  0.46535132691E+02 -0.57908766774E+02 -0.11462731968E+04  0.11556773709E+04  0.12700000000E+03 0.  0.
   -5000001    1    1    2    0    0 -0.46535132691E+02  0.57908766774E+02 -0.10043699057E+03  0.17814469658E+03  0.12700000000E+03 0.  0.
<mgrwt>
<rscale>  0 0.47412553E+03</rscale>
<asrwt>0</asrwt>
<pdfrwt beam="1">  1        2 0.62222779E-02 0.47412553E+03</pdfrwt>
<pdfrwt beam="2">  1       -2 0.18432371E+00 0.47412553E+03</pdfrwt>
<totfact> 0.21392606E+02</totfact>
</mgrwt>
</event>
<event>
 4    1  0.1383574E-004  0.3605098E+03  0.7818608E-02  0.1058382E+00
         -2   -1    0    0    0  501 -0.00000000000E+00  0.00000000000E+00  0.32927335609E+02  0.32927335707E+02  0.25500000000E-02 0. -1.
          2   -1    0    0  501    0  0.00000000000E+00 -0.00000000000E+00 -0.98677375839E+03  0.98677375839E+03  0.25500000000E-02 0.  1.
    5000001    1    1    2    0    0 -0.93489844235E+02  0.81626607634E+02 -0.56454167809E+03  0.59181040912E+03  0.12700000000E+03 0.  0.
   -5000001    1    1    2    0    0  0.93489844235E+02 -0.81626607634E+02 -0.38930474469E+03  0.42789068497E+03  0.12700000000E+03 0.  0.
<mgrwt>
<rscale>  0 0.36050981E+03</rscale>
<asrwt>0</asrwt>
<pdfrwt beam="1">  1        2 0.14096766E+00 0.36050981E+03</pdfrwt>
<pdfrwt beam="2">  1       -2 0.47039057E-02 0.36050981E+03</pdfrwt>
<totfact> 0.64080671E+03</totfact>
</mgrwt>
</event>
<event>
 4    1  0.1383574E-004  0.4632170E+03  0.7818608E-02  0.1023852E+00
          2   -1    0    0  501    0  0.00000000000E+00  0.00000000000E+00  0.41503237499E+03  0.41503237500E+03  0.25500000000E-02 0.  1.
         -2   -1    0    0    0  501 -0.00000000000E+00 -0.00000000000E+00 -0.12924894858E+03  0.12924894860E+03  0.25500000000E-02 0. -1.
    5000001    1    1    2    0    0 -0.24606194634E+00 -0.93649150114E+02 -0.56316416738E+02  0.16754331577E+03  0.12700000000E+03 0.  0.
   -5000001    1    1    2    0    0  0.24606194634E+00  0.93649150114E+02  0.34209984316E+03  0.37673800784E+03  0.12700000000E+03 0.  0.
<mgrwt>
<rscale>  0 0.46321700E+03</rscale>
<asrwt>0</asrwt>
<pdfrwt beam="1">  1        2 0.59290339E-01 0.46321700E+03</pdfrwt>
<pdfrwt beam="2">  1       -2 0.18464136E-01 0.46321700E+03</pdfrwt>
<totfact> 0.20209682E+03</totfact>
</mgrwt>
</event>
<event>
 4    1  0.1383574E-004  0.7299373E+03  0.7818608E-02  0.9667362E-01
          2   -1    0    0  501    0  0.00000000000E+00  0.00000000000E+00  0.29523958948E+03  0.29523958950E+03  0.25500000000E-02 0.  1.
         -2   -1    0    0    0  501 -0.00000000000E+00 -0.00000000000E+00 -0.45116615714E+03  0.45116615714E+03  0.25500000000E-02 0. -1.
    5000001    1    1    2    0    0 -0.25046617806E+03  0.38323794818E+02  0.15716158309E+03  0.32408453034E+03  0.12700000000E+03 0.  0.
   -5000001    1    1    2    0    0  0.25046617806E+03 -0.38323794818E+02 -0.31308815075E+03  0.42232121630E+03  0.12700000000E+03 0.  0.
<mgrwt>
<rscale>  0 0.72993729E+03</rscale>
<asrwt>0</asrwt>
<pdfrwt beam="1">  1        2 0.42177084E-01 0.72993729E+03</pdfrwt>
<pdfrwt beam="2">  1       -2 0.64452308E-01 0.72993729E+03</pdfrwt>
<totfact> 0.27226275E+02</totfact>
</mgrwt>
</event>
<event>
 4    1  0.1383574E-004  0.4973398E+03  0.7818608E-02  0.1014476E+00
          2   -1    0    0  501    0  0.00000000000E+00  0.00000000000E+00  0.13295603890E+04  0.13295603890E+04  0.25500000000E-02 0.  1.
         -2   -1    0    0    0  501 -0.00000000000E+00 -0.00000000000E+00 -0.46509155433E+02  0.46509155502E+02  0.25500000000E-02 0. -1.
    5000001    1    1    2    0    0 -0.13264441233E+03  0.72163480173E+02  0.10602788560E+04  0.10784815068E+04  0.12700000000E+03 0.  0.
   -5000001    1    1    2    0    0  0.13264441233E+03 -0.72163480173E+02  0.22277237761E+03  0.29758803777E+03  0.12700000000E+03 0.  0.
<mgrwt>
<rscale>  0 0.49733985E+03</rscale>
<asrwt>0</asrwt>
<pdfrwt beam="1">  1        2 0.18993720E+00 0.49733985E+03</pdfrwt>
<pdfrwt beam="2">  1       -2 0.66441651E-02 0.49733985E+03</pdfrwt>
<totfact> 0.24122664E+03</totfact>
</mgrwt>
</event>
<event>
 4    1  0.1383574E-004  0.6461601E+03  0.7818608E-02  0.9814011E-01
          2   -1    0    0  501    0  0.00000000000E+00  0.00000000000E+00  0.99774696443E+03  0.99774696443E+03  0.25500000000E-02 0.  1.
         -2   -1    0    0    0  501 -0.00000000000E+00 -0.00000000000E+00 -0.10461640798E+03  0.10461640801E+03  0.25500000000E-02 0. -1.
    5000001    1    1    2    0    0  0.29569296621E+03 -0.14347436417E+02  0.48875353046E+03  0.58536244562E+03  0.12700000000E+03 0.  0.
   -5000001    1    1    2    0    0 -0.29569296621E+03  0.14347436417E+02  0.40437702598E+03  0.51700092683E+03  0.12700000000E+03 0.  0.
<mgrwt>
<rscale>  0 0.64616005E+03</rscale>
<asrwt>0</asrwt>
<pdfrwt beam="1">  1        2 0.14253528E+00 0.64616005E+03</pdfrwt>
<pdfrwt beam="2">  1       -2 0.14945201E-01 0.64616005E+03</pdfrwt>
<totfact> 0.99789936E+02</totfact>
</mgrwt>
</event>
<event>
 4    1  0.1383574E-004  0.5793958E+03  0.7818608E-02  0.9949100E-01
          2   -1    0    0  501    0  0.00000000000E+00  0.00000000000E+00  0.77184158247E+03  0.77184158247E+03  0.25500000000E-02 0. -1.
         -2   -1    0    0    0  501 -0.00000000000E+00 -0.00000000000E+00 -0.10873328304E+03  0.10873328307E+03  0.25500000000E-02 0.  1.
    5000001    1    1    2    0    0 -0.23615925335E+02  0.25275234983E+03  0.41957768966E+03  0.50657269956E+03  0.12700000000E+03 0.  0.
   -5000001    1    1    2    0    0  0.23615925335E+02 -0.25275234983E+03  0.24353060976E+03  0.37400216599E+03  0.12700000000E+03 0.  0.
<mgrwt>
<rscale>  0 0.57939579E+03</rscale>
<asrwt>0</asrwt>
<pdfrwt beam="1">  1        2 0.11026308E+00 0.57939579E+03</pdfrwt>
<pdfrwt beam="2">  1       -2 0.15533327E-01 0.57939579E+03</pdfrwt>
<totfact> 0.13163723E+03</totfact>
</mgrwt>
</event>
<event>
 4    1  0.1383574E-004  0.4508607E+03  0.7818608E-02  0.1027466E+00
          2   -1    0    0  501    0  0.00000000000E+00  0.00000000000E+00  0.42852164226E+04  0.42852164226E+04  0.25500000000E-02 0.  1.
         -2   -1    0    0    0  501 -0.00000000000E+00 -0.00000000000E+00 -0.11859105603E+02  0.11859105877E+02  0.25500000000E-02 0. -1.
    5000001    1    1    2    0    0 -0.10885056950E+03 -0.28123761843E+02  0.72140868637E+03  0.74107954042E+03  0.12700000000E+03 0.  0.
   -5000001    1    1    2    0    0  0.10885056950E+03  0.28123761843E+02  0.35519486307E+04  0.35559959881E+04  0.12700000000E+03 0.  0.
<mgrwt>
<rscale>  0 0.45086066E+03</rscale>
<asrwt>0</asrwt>
<pdfrwt beam="1">  1        2 0.61217347E+00 0.45086066E+03</pdfrwt>
<pdfrwt beam="2">  1       -2 0.16941588E-02 0.45086066E+03</pdfrwt>
<totfact> 0.43945022E+02</totfact>
</mgrwt>
</event>
<event>
 4    1  0.1383574E-004  0.2933154E+03  0.7818608E-02  0.1088631E+00
         -2   -1    0    0    0  501 -0.00000000000E+00  0.00000000000E+00  0.41529054764E+02  0.41529054842E+02  0.25500000000E-02 0. -1.
          2   -1    0    0  501    0  0.00000000000E+00 -0.00000000000E+00 -0.51791399703E+03  0.51791399704E+03  0.25500000000E-02 0.  1.
    5000001    1    1    2    0    0 -0.18165140044E+02  0.70138225870E+02 -0.21643445397E+03  0.26119382823E+03  0.12700000000E+03 0.  0.
   -5000001    1    1    2    0    0  0.18165140044E+02 -0.70138225870E+02 -0.25995048830E+03  0.29824922365E+03  0.12700000000E+03 0.  0.
<mgrwt>
<rscale>  0 0.29331539E+03</rscale>
<asrwt>0</asrwt>
<pdfrwt beam="1">  1        2 0.73987710E-01 0.29331539E+03</pdfrwt>
<pdfrwt beam="2">  1       -2 0.59327224E-02 0.29331539E+03</pdfrwt>
<totfact> 0.97703206E+03</totfact>
</mgrwt>
</event>
<event>
 4    1  0.1383574E-004  0.3898970E+03  0.7818608E-02  0.1047335E+00
         -2   -1    0    0    0  501 -0.00000000000E+00  0.00000000000E+00  0.43169626937E+02  0.43169627012E+02  0.25500000000E-02 0. -1.
          2   -1    0    0  501    0  0.00000000000E+00 -0.00000000000E+00 -0.88036223180E+03  0.88036223181E+03  0.25500000000E-02 0.  1.
    5000001    1    1    2    0    0  0.95757187863E+02 -0.11018213074E+03 -0.36222585739E+03  0.41066545109E+03  0.12700000000E+03 0.  0.
   -5000001    1    1    2    0    0 -0.95757187863E+02  0.11018213074E+03 -0.47496674748E+03  0.51286640772E+03  0.12700000000E+03 0.  0.
<mgrwt>
<rscale>  0 0.38989696E+03</rscale>
<asrwt>0</asrwt>
<pdfrwt beam="1">  1        2 0.12576602E+00 0.38989696E+03</pdfrwt>
<pdfrwt beam="2">  1       -2 0.61670901E-02 0.38989696E+03</pdfrwt>
<totfact> 0.49254561E+03</totfact>
</mgrwt>
</event>
<event>
 4    1  0.1383574E-004  0.3332747E+03  0.7818608E-02  0.1069697E+00
          2   -1    0    0  501    0  0.00000000000E+00  0.00000000000E+00  0.87497497784E+02  0.87497497821E+02  0.25500000000E-02 0.  1.
         -2   -1    0    0    0  501 -0.00000000000E+00 -0.00000000000E+00 -0.31735779247E+03  0.31735779248E+03  0.25500000000E-02 0. -1.
    5000001    1    1    2    0    0 -0.98361080513E+02  0.43055291215E+02 -0.12769125859E+03  0.20967288280E+03  0.12700000000E+03 0.  0.
   -5000001    1    1    2    0    0  0.98361080513E+02 -0.43055291215E+02 -0.10216903609E+03  0.19518240750E+03  0.12700000000E+03 0.  0.
<mgrwt>
<rscale>  0 0.33327474E+03</rscale>
<asrwt>0</asrwt>
<pdfrwt beam="1">  1        2 0.12499643E-01 0.33327474E+03</pdfrwt>
<pdfrwt beam="2">  1       -2 0.45336827E-01 0.33327474E+03</pdfrwt>
<totfact> 0.22775455E+03</totfact>
</mgrwt>
</event>
<event>
 4    1  0.1383574E-004  0.3824676E+03  0.7818608E-02  0.1050025E+00
          2   -1    0    0  501    0  0.00000000000E+00  0.00000000000E+00  0.23851261661E+03  0.23851261662E+03  0.25500000000E-02 0.  1.
         -2   -1    0    0    0  501 -0.00000000000E+00 -0.00000000000E+00 -0.15332676339E+03  0.15332676341E+03  0.25500000000E-02 0. -1.
    5000001    1    1    2    0    0 -0.38806927962E+02 -0.81064928407E+02 -0.71324611132E+02  0.17115402545E+03  0.12700000000E+03 0.  0.
   -5000001    1    1    2    0    0  0.38806927962E+02  0.81064928407E+02  0.15651046435E+03  0.22068535458E+03  0.12700000000E+03 0.  0.
<mgrwt>
<rscale>  0 0.38246761E+03</rscale>
<asrwt>0</asrwt>
<pdfrwt beam="1">  1        2 0.34073231E-01 0.38246761E+03</pdfrwt>
<pdfrwt beam="2">  1       -2 0.21903823E-01 0.38246761E+03</pdfrwt>
<totfact> 0.27519848E+03</totfact>
</mgrwt>
</event>
<event>
 4    1  0.1383574E-004  0.7255223E+03  0.7818608E-02  0.9674554E-01
          2   -1    0    0  501    0  0.00000000000E+00  0.00000000000E+00  0.16607773002E+04  0.16607773002E+04  0.25500000000E-02 0.  1.
         -2   -1    0    0    0  501 -0.00000000000E+00 -0.00000000000E+00 -0.79237395651E+02  0.79237395692E+02  0.25500000000E-02 0. -1.
    5000001    1    1    2    0    0 -0.11131985365E+03  0.31665276946E+03  0.91780208641E+03  0.98546981488E+03  0.12700000000E+03 0.  0.
   -5000001    1    1    2    0    0  0.11131985365E+03 -0.31665276946E+03  0.66373781809E+03  0.75454488096E+03  0.12700000000E+03 0.  0.
<mgrwt>
<rscale>  0 0.72552234E+03</rscale>
<asrwt>0</asrwt>
<pdfrwt beam="1">  1        2 0.23725387E+00 0.72552234E+03</pdfrwt>
<pdfrwt beam="2">  1       -2 0.11319630E-01 0.72552234E+03</pdfrwt>
<totfact> 0.68311743E+02</totfact>
</mgrwt>
</event>
<event>
 4    1  0.1383574E-004  0.4351433E+03  0.7818608E-02  0.1032247E+00
          2   -1    0    0  501    0  0.00000000000E+00  0.00000000000E+00  0.10027052433E+04  0.10027052433E+04  0.25500000000E-02 0.  1.
         -2   -1    0    0    0  501 -0.00000000000E+00 -0.00000000000E+00 -0.47209708207E+02  0.47209708276E+02  0.25500000000E-02 0. -1.
    5000001    1    1    2    0    0 -0.17747109167E+02 -0.13856453949E+03  0.73865789441E+03  0.76240381457E+03  0.12700000000E+03 0.  0.
   -5000001    1    1    2    0    0  0.17747109167E+02  0.13856453949E+03  0.21683764066E+03  0.28751113699E+03  0.12700000000E+03 0.  0.
<mgrwt>
<rscale>  0 0.43514330E+03</rscale>
<asrwt>0</asrwt>
<pdfrwt beam="1">  1        2 0.14324360E+00 0.43514330E+03</pdfrwt>
<pdfrwt beam="2">  1       -2 0.67442444E-02 0.43514330E+03</pdfrwt>
<totfact> 0.36017885E+03</totfact>
</mgrwt>
</event>
<event>
 4    1  0.1383574E-004  0.3023563E+03  0.7818608E-02  0.1084069E+00
          2   -1    0    0  501    0  0.00000000000E+00  0.00000000000E+00  0.16600386163E+04  0.16600386163E+04  0.25500000000E-02 0.  1.
         -2   -1    0    0    0  501 -0.00000000000E+00 -0.00000000000E+00 -0.13767647530E+02  0.13767647766E+02  0.25500000000E-02 0. -1.
    5000001    1    1    2    0    0 -0.75542350208E+02  0.15260239659E+02  0.97836767655E+03  0.98958164499E+03  0.12700000000E+03 0.  0.
   -5000001    1    1    2    0    0  0.75542350208E+02 -0.15260239659E+02  0.66790329221E+03  0.68422461907E+03  0.12700000000E+03 0.  0.
<mgrwt>
<rscale>  0 0.30235626E+03</rscale>
<asrwt>0</asrwt>
<pdfrwt beam="1">  1        2 0.23714829E+00 0.30235626E+03</pdfrwt>
<pdfrwt beam="2">  1       -2 0.19668075E-02 0.30235626E+03</pdfrwt>
<totfact> 0.10298488E+04</totfact>
</mgrwt>
</event>
<event>
 4    1  0.1383574E-004  0.3049739E+03  0.7818608E-02  0.1082780E+00
          2   -1    0    0  501    0  0.00000000000E+00  0.00000000000E+00  0.77513995749E+03  0.77513995750E+03  0.25500000000E-02 0.  1.
         -2   -1    0    0    0  501 -0.00000000000E+00 -0.00000000000E+00 -0.29997518680E+02  0.29997518789E+02  0.25500000000E-02 0. -1.
    5000001    1    1    2    0    0 -0.78881758485E+02 -0.28310455507E+02  0.34624216700E+03  0.37820160222E+03  0.12700000000E+03 0.  0.
   -5000001    1    1    2    0    0  0.78881758485E+02  0.28310455507E+02  0.39890027181E+03  0.42693587406E+03  0.12700000000E+03 0.  0.
<mgrwt>
<rscale>  0 0.30497394E+03</rscale>
<asrwt>0</asrwt>
<pdfrwt beam="1">  1        2 0.11073429E+00 0.30497394E+03</pdfrwt>
<pdfrwt beam="2">  1       -2 0.42853595E-02 0.30497394E+03</pdfrwt>
<totfact> 0.10044270E+04</totfact>
</mgrwt>
</event>
<event>
 4    1  0.1383574E-004  0.5139189E+03  0.7818608E-02  0.1010208E+00
          2   -1    0    0  501    0  0.00000000000E+00  0.00000000000E+00  0.20678093832E+04  0.20678093832E+04  0.25500000000E-02 0.  1.
         -2   -1    0    0    0  501 -0.00000000000E+00 -0.00000000000E+00 -0.31931451939E+02  0.31931452041E+02  0.25500000000E-02 0. -1.
    5000001    1    1    2    0    0 -0.74432773620E+02 -0.16966962970E+03  0.15277758475E+04  0.15442007840E+04  0.12700000000E+03 0.  0.
   -5000001    1    1    2    0    0  0.74432773620E+02  0.16966962970E+03  0.50810208369E+03  0.55554005119E+03  0.12700000000E+03 0.  0.
<mgrwt>
<rscale>  0 0.51391889E+03</rscale>
<asrwt>0</asrwt>
<pdfrwt beam="1">  1        2 0.29540146E+00 0.51391889E+03</pdfrwt>
<pdfrwt beam="2">  1       -2 0.45616341E-02 0.51391889E+03</pdfrwt>
<totfact> 0.18184974E+03</totfact>
</mgrwt>
</event>
<event>
 4    1  0.1383574E-004  0.3326112E+03  0.7818608E-02  0.1069987E+00
         -2   -1    0    0    0  501 -0.00000000000E+00  0.00000000000E+00  0.38993004893E+03  0.38993004894E+03  0.25500000000E-02 0. -1.
          2   -1    0    0  501    0  0.00000000000E+00 -0.00000000000E+00 -0.70929540244E+02  0.70929540290E+02  0.25500000000E-02 0.  1.
    5000001    1    1    2    0    0  0.54056809909E+02  0.85417603305E+02  0.10934581667E+03  0.19571360013E+03  0.12700000000E+03 0.  0.
   -5000001    1    1    2    0    0 -0.54056809909E+02 -0.85417603305E+02  0.20965469202E+03  0.26514598910E+03  0.12700000000E+03 0.  0.
<mgrwt>
<rscale>  0 0.33261124E+03</rscale>
<asrwt>0</asrwt>
<pdfrwt beam="1">  1        2 0.10132791E-01 0.33261124E+03</pdfrwt>
<pdfrwt beam="2">  1       -2 0.55704293E-01 0.33261124E+03</pdfrwt>
<totfact> 0.19522065E+03</totfact>
</mgrwt>
</event>
<event>
 4    1  0.1383574E-004  0.4040765E+03  0.7818608E-02  0.1042377E+00
         -2   -1    0    0    0  501 -0.00000000000E+00  0.00000000000E+00  0.13377264864E+03  0.13377264866E+03  0.25500000000E-02 0. -1.
          2   -1    0    0  501    0  0.00000000000E+00 -0.00000000000E+00 -0.30514044882E+03  0.30514044884E+03  0.25500000000E-02 0.  1.
    5000001    1    1    2    0    0 -0.68580899270E+02 -0.14104225078E+03 -0.96225752672E+02  0.22357247533E+03  0.12700000000E+03 0.  0.
   -5000001    1    1    2    0    0  0.68580899270E+02  0.14104225078E+03 -0.75142047513E+02  0.21534062216E+03  0.12700000000E+03 0.  0.
<mgrwt>
<rscale>  0 0.40407646E+03</rscale>
<asrwt>0</asrwt>
<pdfrwt beam="1">  1        2 0.43591492E-01 0.40407646E+03</pdfrwt>
<pdfrwt beam="2">  1       -2 0.19110378E-01 0.40407646E+03</pdfrwt>
<totfact> 0.26642654E+03</totfact>
</mgrwt>
</event>
<event>
 4    1  0.1383574E-004  0.4022696E+03  0.7818608E-02  0.1042997E+00
         -2   -1    0    0    0  501 -0.00000000000E+00  0.00000000000E+00  0.27277402740E+02  0.27277402859E+02  0.25500000000E-02 0. -1.
          2   -1    0    0  501    0  0.00000000000E+00 -0.00000000000E+00 -0.14831032822E+04  0.14831032822E+04  0.25500000000E-02 0.  1.
    5000001    1    1    2    0    0 -0.10871838895E+03  0.35159645375E+02 -0.11265129304E+04  0.11393929398E+04  0.12700000000E+03 0.  0.
   -5000001    1    1    2    0    0  0.10871838895E+03 -0.35159645375E+02 -0.32931294899E+03  0.37098774526E+03  0.12700000000E+03 0.  0.
<mgrwt>
<rscale>  0 0.40226959E+03</rscale>
<asrwt>0</asrwt>
<pdfrwt beam="1">  1        2 0.21187185E+00 0.40226959E+03</pdfrwt>
<pdfrwt beam="2">  1       -2 0.38967728E-02 0.40226959E+03</pdfrwt>
<totfact> 0.45646445E+03</totfact>
</mgrwt>
</event>
<event>
 4    1  0.1383574E-004  0.5969553E+03  0.7818608E-02  0.9911743E-01
          2   -1    0    0  501    0  0.00000000000E+00  0.00000000000E+00  0.79777782541E+02  0.79777782581E+02  0.25500000000E-02 0.  1.
         -2   -1    0    0    0  501 -0.00000000000E+00 -0.00000000000E+00 -0.11167133532E+04  0.11167133532E+04  0.25500000000E-02 0. -1.
    5000001    1    1    2    0    0 -0.14861445050E+03  0.20690069039E+03 -0.69847521202E+03  0.75424848186E+03  0.12700000000E+03 0.  0.
   -5000001    1    1    2    0    0  0.14861445050E+03 -0.20690069039E+03 -0.33846035863E+03  0.44224265392E+03  0.12700000000E+03 0.  0.
<mgrwt>
<rscale>  0 0.59695533E+03</rscale>
<asrwt>0</asrwt>
<pdfrwt beam="1">  1        2 0.11396827E-01 0.59695533E+03</pdfrwt>
<pdfrwt beam="2">  1       -2 0.15953047E+00 0.59695533E+03</pdfrwt>
<totfact> 0.14557401E+02</totfact>
</mgrwt>
</event>
<event>
 4    1  0.1383574E-004  0.4527830E+03  0.7818608E-02  0.1026895E+00
          2   -1    0    0  501    0  0.00000000000E+00  0.00000000000E+00  0.18381795566E+04  0.18381795566E+04  0.25500000000E-02 0.  1.
         -2   -1    0    0    0  501 -0.00000000000E+00 -0.00000000000E+00 -0.27882539812E+02  0.27882539929E+02  0.25500000000E-02 0. -1.
    5000001    1    1    2    0    0  0.20629212177E+02  0.14634253030E+03  0.13801275795E+04  0.13938159262E+04  0.12700000000E+03 0.  0.
   -5000001    1    1    2    0    0 -0.20629212177E+02 -0.14634253030E+03  0.43016943729E+03  0.47224617028E+03  0.12700000000E+03 0.  0.
<mgrwt>
<rscale>  0 0.45278302E+03</rscale>
<asrwt>0</asrwt>
<pdfrwt beam="1">  1        2 0.26259704E+00 0.45278302E+03</pdfrwt>
<pdfrwt beam="2">  1       -2 0.39832206E-02 0.45278302E+03</pdfrwt>
<totfact> 0.29203608E+03</totfact>
</mgrwt>
</event>
<event>
 4    1  0.1383574E-004  0.2715089E+03  0.7818608E-02  0.1100419E+00
         -2   -1    0    0    0  501 -0.00000000000E+00  0.00000000000E+00  0.11710153020E+03  0.11710153022E+03  0.25500000000E-02 0. -1.
          2   -1    0    0  501    0  0.00000000000E+00 -0.00000000000E+00 -0.15737856848E+03  0.15737856850E+03  0.25500000000E-02 0.  1.
    5000001    1    1    2    0    0  0.21571309659E+02  0.42717798892E+02 -0.16919422254E+02  0.13676768109E+03  0.12700000000E+03 0.  0.
   -5000001    1    1    2    0    0 -0.21571309659E+02 -0.42717798892E+02 -0.23357616029E+02  0.13771241763E+03  0.12700000000E+03 0.  0.
<mgrwt>
<rscale>  0 0.27150890E+03</rscale>
<asrwt>0</asrwt>
<pdfrwt beam="1">  1        2 0.22482652E-01 0.27150890E+03</pdfrwt>
<pdfrwt beam="2">  1       -2 0.16728790E-01 0.27150890E+03</pdfrwt>
<totfact> 0.68569982E+03</totfact>
</mgrwt>
</event>
<event>
 4    1  0.1383574E-004  0.2740293E+03  0.7818608E-02  0.1098995E+00
          2   -1    0    0  501    0  0.00000000000E+00  0.00000000000E+00  0.23017409451E+04  0.23017409451E+04  0.25500000000E-02 0.  1.
         -2   -1    0    0    0  501 -0.00000000000E+00 -0.00000000000E+00 -0.81560072113E+01  0.81560076099E+01  0.25500000000E-02 0. -1.
    5000001    1    1    2    0    0  0.26615424655E+01  0.49488945524E+02  0.10312833155E+04  0.10402550247E+04  0.12700000000E+03 0.  0.
   -5000001    1    1    2    0    0 -0.26615424655E+01 -0.49488945524E+02  0.12623016223E+04  0.12696419280E+04  0.12700000000E+03 0.  0.
<mgrwt>
<rscale>  0 0.27402931E+03</rscale>
<asrwt>0</asrwt>
<pdfrwt beam="1">  1        2 0.32881978E+00 0.27402931E+03</pdfrwt>
<pdfrwt beam="2">  1       -2 0.11651452E-02 0.27402931E+03</pdfrwt>
<totfact> 0.10729511E+04</totfact>
</mgrwt>
</event>
<event>
 4    1  0.1383574E-004  0.2578972E+03  0.7818608E-02  0.1108413E+00
          2   -1    0    0  501    0  0.00000000000E+00  0.00000000000E+00  0.29734742614E+03  0.29734742615E+03  0.25500000000E-02 0.  1.
         -2   -1    0    0    0  501 -0.00000000000E+00 -0.00000000000E+00 -0.55920255791E+02  0.55920255849E+02  0.25500000000E-02 0. -1.
    5000001    1    1    2    0    0 -0.10313501222E+02 -0.19562127317E+02  0.11644758466E+03  0.17371840750E+03  0.12700000000E+03 0.  0.
   -5000001    1    1    2    0    0  0.10313501222E+02  0.19562127317E+02  0.12497958569E+03  0.17954927449E+03  0.12700000000E+03 0.  0.
<mgrwt>
<rscale>  0 0.25789722E+03</rscale>
<asrwt>0</asrwt>
<pdfrwt beam="1">  1        2 0.42478203E-01 0.25789722E+03</pdfrwt>
<pdfrwt beam="2">  1       -2 0.79886081E-02 0.25789722E+03</pdfrwt>
<totfact> 0.11197435E+04</totfact>
</mgrwt>
</event>
<event>
 4    1  0.1383574E-004  0.4252311E+03  0.7818608E-02  0.1035377E+00
          2   -1    0    0  501    0  0.00000000000E+00  0.00000000000E+00  0.32904638779E+03  0.32904638780E+03  0.25500000000E-02 0.  1.
         -2   -1    0    0    0  501 -0.00000000000E+00 -0.00000000000E+00 -0.13738300713E+03  0.13738300716E+03  0.25500000000E-02 0. -1.
    5000001    1    1    2    0    0 -0.83946630150E+01  0.16052126720E+03  0.15825621336E+03  0.25886594341E+03  0.12700000000E+03 0.  0.
   -5000001    1    1    2    0    0  0.83946630150E+01 -0.16052126720E+03  0.33407167292E+02  0.20756345154E+03  0.12700000000E+03 0.  0.
<mgrwt>
<rscale>  0 0.42523115E+03</rscale>
<asrwt>0</asrwt>
<pdfrwt beam="1">  1        2 0.47006627E-01 0.42523115E+03</pdfrwt>
<pdfrwt beam="2">  1       -2 0.19626144E-01 0.42523115E+03</pdfrwt>
<totfact> 0.23456274E+03</totfact>
</mgrwt>
</event>
<event>
 4    1  0.1383574E-004  0.1015092E+04  0.7818608E-02  0.9292146E-01
         -2   -1    0    0    0  501 -0.00000000000E+00  0.00000000000E+00  0.12367896784E+03  0.12367896787E+03  0.25500000000E-02 0. -1.
          2   -1    0    0  501    0  0.00000000000E+00 -0.00000000000E+00 -0.20828334972E+04  0.20828334972E+04  0.25500000000E-02 0.  1.
    5000001    1    1    2    0    0 -0.45883523865E+03 -0.15526563590E+03 -0.79984824804E+03  0.94367548120E+03  0.12700000000E+03 0.  0.
   -5000001    1    1    2    0    0  0.45883523865E+03  0.15526563590E+03 -0.11593062814E+04  0.12628369839E+04  0.12700000000E+03 0.  0.
<mgrwt>
<rscale>  0 0.10150915E+04</rscale>
<asrwt>0</asrwt>
<pdfrwt beam="1">  1        2 0.29754762E+00 0.10150915E+04</pdfrwt>
<pdfrwt beam="2">  1       -2 0.17668425E-01 0.10150915E+04</pdfrwt>
<totfact> 0.19295783E+02</totfact>
</mgrwt>
</event>
<event>
 4    1  0.1383574E-004  0.3519372E+03  0.7818608E-02  0.1061823E+00
         -2   -1    0    0    0  501 -0.00000000000E+00  0.00000000000E+00  0.33028930756E+02  0.33028930854E+02  0.25500000000E-02 0. -1.
          2   -1    0    0  501    0  0.00000000000E+00 -0.00000000000E+00 -0.93750977945E+03  0.93750977945E+03  0.25500000000E-02 0.  1.
    5000001    1    1    2    0    0  0.21854740269E+02 -0.11968332421E+03 -0.43610894508E+03  0.47023583418E+03  0.12700000000E+03 0.  0.
   -5000001    1    1    2    0    0 -0.21854740269E+02  0.11968332421E+03 -0.46837190361E+03  0.50030287613E+03  0.12700000000E+03 0.  0.
<mgrwt>
<rscale>  0 0.35193719E+03</rscale>
<asrwt>0</asrwt>
<pdfrwt beam="1">  1        2 0.13392995E+00 0.35193719E+03</pdfrwt>
<pdfrwt beam="2">  1       -2 0.47184193E-02 0.35193719E+03</pdfrwt>
<totfact> 0.68310355E+03</totfact>
</mgrwt>
</event>
<event>
 4    1  0.1383574E-004  0.3544568E+03  0.7818608E-02  0.1060801E+00
         -2   -1    0    0    0  501 -0.00000000000E+00  0.00000000000E+00  0.13582141477E+03  0.13582141480E+03  0.25500000000E-02 0. -1.
          2   -1    0    0  501    0  0.00000000000E+00 -0.00000000000E+00 -0.23125889861E+03  0.23125889863E+03  0.25500000000E-02 0.  1.
    5000001    1    1    2    0    0  0.68548850288E+01 -0.12258822491E+03 -0.62584341568E+02  0.18740507503E+03  0.12700000000E+03 0.  0.
   -5000001    1    1    2    0    0 -0.68548850288E+01  0.12258822491E+03 -0.32853142270E+02  0.17967523840E+03  0.12700000000E+03 0.  0.
<mgrwt>
<rscale>  0 0.35445683E+03</rscale>
<asrwt>0</asrwt>
<pdfrwt beam="1">  1        2 0.33036985E-01 0.35445683E+03</pdfrwt>
<pdfrwt beam="2">  1       -2 0.19403059E-01 0.35445683E+03</pdfrwt>
<totfact> 0.35056532E+03</totfact>
</mgrwt>
</event>
<event>
 4    1  0.1383574E-004  0.4092296E+03  0.7818608E-02  0.1040630E+00
          2   -1    0    0  501    0  0.00000000000E+00  0.00000000000E+00  0.14055459959E+03  0.14055459961E+03  0.25500000000E-02 0.  1.
         -2   -1    0    0    0  501 -0.00000000000E+00 -0.00000000000E+00 -0.29787152873E+03  0.29787152874E+03  0.25500000000E-02 0. -1.
    5000001    1    1    2    0    0  0.15652366673E+03 -0.34670056627E+02 -0.72182151619E+02  0.21688922077E+03  0.12700000000E+03 0.  0.
   -5000001    1    1    2    0    0 -0.15652366673E+03  0.34670056627E+02 -0.85134777520E+02  0.22153690758E+03  0.12700000000E+03 0.  0.
<mgrwt>
<rscale>  0 0.40922959E+03</rscale>
<asrwt>0</asrwt>
<pdfrwt beam="1">  1        2 0.20079229E-01 0.40922959E+03</pdfrwt>
<pdfrwt beam="2">  1       -2 0.42553075E-01 0.40922959E+03</pdfrwt>
<totfact> 0.14727589E+03</totfact>
</mgrwt>
</event>
<event>
 4    1  0.1383574E-004  0.3440510E+03  0.7818608E-02  0.1065084E+00
         -2   -1    0    0    0  501 -0.00000000000E+00  0.00000000000E+00  0.75139467988E+01  0.75139472315E+01  0.25500000000E-02 0. -1.
          2   -1    0    0  501    0  0.00000000000E+00 -0.00000000000E+00 -0.39383781828E+04  0.39383781828E+04  0.25500000000E-02 0.  1.
    5000001    1    1    2    0    0  0.85319701718E+02 -0.78635616093E+02 -0.19554774206E+04  0.19630292800E+04  0.12700000000E+03 0.  0.
   -5000001    1    1    2    0    0 -0.85319701718E+02  0.78635616093E+02 -0.19753868154E+04  0.19828628500E+04  0.12700000000E+03 0.  0.
<mgrwt>
<rscale>  0 0.34405096E+03</rscale>
<asrwt>0</asrwt>
<pdfrwt beam="1">  1        2 0.56262413E+00 0.34405096E+03</pdfrwt>
<pdfrwt beam="2">  1       -2 0.10734235E-02 0.34405096E+03</pdfrwt>
<totfact> 0.15094343E+03</totfact>
</mgrwt>
</event>
<event>
 4    1  0.1383574E-004  0.4184369E+03  0.7818608E-02  0.1037576E+00
         -2   -1    0    0    0  501 -0.00000000000E+00  0.00000000000E+00  0.44719936931E+02  0.44719937004E+02  0.25500000000E-02 0. -1.
          2   -1    0    0  501    0  0.00000000000E+00 -0.00000000000E+00 -0.97881069639E+03  0.97881069639E+03  0.25500000000E-02 0.  1.
    5000001    1    1    2    0    0  0.13043821489E+03 -0.12043488670E+02 -0.21658552689E+03  0.28319156764E+03  0.12700000000E+03 0.  0.
   -5000001    1    1    2    0    0 -0.13043821489E+03  0.12043488670E+02 -0.71750523256E+03  0.74033906575E+03  0.12700000000E+03 0.  0.
<mgrwt>
<rscale>  0 0.41843687E+03</rscale>
<asrwt>0</asrwt>
<pdfrwt beam="1">  1        2 0.13983009E+00 0.41843687E+03</pdfrwt>
<pdfrwt beam="2">  1       -2 0.63885630E-02 0.41843687E+03</pdfrwt>
<totfact> 0.40508693E+03</totfact>
</mgrwt>
</event>
<event>
 4    1  0.1383574E-004  0.6311497E+03  0.7818608E-02  0.9842808E-01
          2   -1    0    0  501    0  0.00000000000E+00  0.00000000000E+00  0.28429843426E+03  0.28429843428E+03  0.25500000000E-02 0.  1.
         -2   -1    0    0    0  501 -0.00000000000E+00 -0.00000000000E+00 -0.35029210420E+03  0.35029210421E+03  0.25500000000E-02 0. -1.
    5000001    1    1    2    0    0  0.24230359620E+03  0.36005447891E+02 -0.18696911352E+03  0.33330747730E+03  0.12700000000E+03 0.  0.
   -5000001    1    1    2    0    0 -0.24230359620E+03 -0.36005447891E+02  0.12097544358E+03  0.30128306119E+03  0.12700000000E+03 0.  0.
<mgrwt>
<rscale>  0 0.63114973E+03</rscale>
<asrwt>0</asrwt>
<pdfrwt beam="1">  1        2 0.40614062E-01 0.63114973E+03</pdfrwt>
<pdfrwt beam="2">  1       -2 0.50041729E-01 0.63114973E+03</pdfrwt>
<totfact> 0.48221080E+02</totfact>
</mgrwt>
</event>
<event>
 4    1  0.1383574E-004  0.4664156E+03  0.7818608E-02  0.1022937E+00
          2   -1    0    0  501    0  0.00000000000E+00  0.00000000000E+00  0.35153622464E+03  0.35153622465E+03  0.25500000000E-02 0.  1.
         -2   -1    0    0    0  501 -0.00000000000E+00 -0.00000000000E+00 -0.15470918595E+03  0.15470918598E+03  0.25500000000E-02 0. -1.
    5000001    1    1    2    0    0  0.68150687063E+02  0.14173601929E+03  0.22463371112E+03  0.30219682243E+03  0.12700000000E+03 0.  0.
   -5000001    1    1    2    0    0 -0.68150687063E+02 -0.14173601929E+03 -0.27806672442E+02  0.20404858819E+03  0.12700000000E+03 0.  0.
<mgrwt>
<rscale>  0 0.46641562E+03</rscale>
<asrwt>0</asrwt>
<pdfrwt beam="1">  1        2 0.50219460E-01 0.46641562E+03</pdfrwt>
<pdfrwt beam="2">  1       -2 0.22101312E-01 0.46641562E+03</pdfrwt>
<totfact> 0.17762902E+03</totfact>
</mgrwt>
</event>
<event>
 4    1  0.1383574E-004  0.7237490E+03  0.7818608E-02  0.9677459E-01
          2   -1    0    0  501    0  0.00000000000E+00  0.00000000000E+00  0.14411348927E+04  0.14411348927E+04  0.25500000000E-02 0.  1.
         -2   -1    0    0    0  501 -0.00000000000E+00 -0.00000000000E+00 -0.90868081494E+02  0.90868081529E+02  0.25500000000E-02 0. -1.
    5000001    1    1    2    0    0  0.29936784775E+03 -0.12659600308E+03  0.47236032075E+03  0.58728266523E+03  0.12700000000E+03 0.  0.
   -5000001    1    1    2    0    0 -0.29936784775E+03  0.12659600308E+03  0.87790649047E+03  0.94472030902E+03  0.12700000000E+03 0.  0.
<mgrwt>
<rscale>  0 0.72374903E+03</rscale>
<asrwt>0</asrwt>
<pdfrwt beam="1">  1        2 0.20587639E+00 0.72374903E+03</pdfrwt>
<pdfrwt beam="2">  1       -2 0.12981156E-01 0.72374903E+03</pdfrwt>
<totfact> 0.70894742E+02</totfact>
</mgrwt>
</event>
<event>
 4    1  0.1383574E-004  0.4885349E+03  0.7818608E-02  0.1016816E+00
          2   -1    0    0  501    0  0.00000000000E+00  0.00000000000E+00  0.30255623536E+02  0.30255623644E+02  0.25500000000E-02 0.  1.
         -2   -1    0    0    0  501 -0.00000000000E+00 -0.00000000000E+00 -0.19720824678E+04  0.19720824678E+04  0.25500000000E-02 0. -1.
    5000001    1    1    2    0    0 -0.18257660614E+03  0.99307692989E+02 -0.10466388395E+04  0.10746060186E+04  0.12700000000E+03 0.  0.
   -5000001    1    1    2    0    0  0.18257660614E+03 -0.99307692989E+02 -0.89518800482E+03  0.92773207283E+03  0.12700000000E+03 0.  0.
<mgrwt>
<rscale>  0 0.48853489E+03</rscale>
<asrwt>0</asrwt>
<pdfrwt beam="1">  1        2 0.43222332E-02 0.48853489E+03</pdfrwt>
<pdfrwt beam="2">  1       -2 0.28172599E+00 0.48853489E+03</pdfrwt>
<totfact> 0.87671891E+01</totfact>
</mgrwt>
</event>
<event>
 4    1  0.1383574E-004  0.4043570E+03  0.7818608E-02  0.1042281E+00
         -2   -1    0    0    0  501 -0.00000000000E+00  0.00000000000E+00  0.52020862217E+02  0.52020862279E+02  0.25500000000E-02 0. -1.
          2   -1    0    0  501    0  0.00000000000E+00 -0.00000000000E+00 -0.78576461459E+03  0.78576461460E+03  0.25500000000E-02 0.  1.
    5000001    1    1    2    0    0 -0.12725716933E+03 -0.86510797847E+02 -0.29914125484E+03  0.35957335223E+03  0.12700000000E+03 0.  0.
   -5000001    1    1    2    0    0  0.12725716933E+03  0.86510797847E+02 -0.43460249754E+03  0.47821212464E+03  0.12700000000E+03 0.  0.
<mgrwt>
<rscale>  0 0.40435703E+03</rscale>
<asrwt>0</asrwt>
<pdfrwt beam="1">  1        2 0.11225208E+00 0.40435703E+03</pdfrwt>
<pdfrwt beam="2">  1       -2 0.74315523E-02 0.40435703E+03</pdfrwt>
<totfact> 0.42584626E+03</totfact>
</mgrwt>
</event>
<event>
 4    1  0.1383574E-004  0.4681459E+03  0.7818608E-02  0.1022445E+00
         -2   -1    0    0    0  501 -0.00000000000E+00  0.00000000000E+00  0.55793194663E+02  0.55793194721E+02  0.25500000000E-02 0. -1.
          2   -1    0    0  501    0  0.00000000000E+00 -0.00000000000E+00 -0.98202204724E+03  0.98202204724E+03  0.25500000000E-02 0.  1.
    5000001    1    1    2    0    0  0.16238427611E+03  0.10881383353E+03 -0.41598099415E+03  0.47684199793E+03  0.12700000000E+03 0.  0.
   -5000001    1    1    2    0    0 -0.16238427611E+03 -0.10881383353E+03 -0.51024785843E+03  0.56097324404E+03  0.12700000000E+03 0.  0.
<mgrwt>
<rscale>  0 0.46814591E+03</rscale>
<asrwt>0</asrwt>
<pdfrwt beam="1">  1        2 0.14028885E+00 0.46814591E+03</pdfrwt>
<pdfrwt beam="2">  1       -2 0.79704570E-02 0.46814591E+03</pdfrwt>
<totfact> 0.28510394E+03</totfact>
</mgrwt>
</event>
<event>
 4    1  0.1383574E-004  0.5942686E+03  0.7818608E-02  0.9917369E-01
          2   -1    0    0  501    0  0.00000000000E+00  0.00000000000E+00  0.72526263011E+02  0.72526263056E+02  0.25500000000E-02 0.  1.
         -2   -1    0    0    0  501 -0.00000000000E+00 -0.00000000000E+00 -0.12173354867E+04  0.12173354868E+04  0.25500000000E-02 0. -1.
    5000001    1    1    2    0    0  0.46101297639E+02 -0.24482212590E+03 -0.79050063840E+03  0.83850072289E+03  0.12700000000E+03 0.  0.
   -5000001    1    1    2    0    0 -0.46101297639E+02  0.24482212590E+03 -0.35430858534E+03  0.45136102692E+03  0.12700000000E+03 0.  0.
<mgrwt>
<rscale>  0 0.59426860E+03</rscale>
<asrwt>0</asrwt>
<pdfrwt beam="1">  1        2 0.10360895E-01 0.59426860E+03</pdfrwt>
<pdfrwt beam="2">  1       -2 0.17390506E+00 0.59426860E+03</pdfrwt>
<totfact> 0.12964103E+02</totfact>
</mgrwt>
</event>
<event>
 4    1  0.1383574E-004  0.4471463E+03  0.7818608E-02  0.1028576E+00
          2   -1    0    0  501    0  0.00000000000E+00  0.00000000000E+00  0.41873995559E+03  0.41873995560E+03  0.25500000000E-02 0.  1.
         -2   -1    0    0    0  501 -0.00000000000E+00 -0.00000000000E+00 -0.11936991165E+03  0.11936991168E+03  0.25500000000E-02 0. -1.
    5000001    1    1    2    0    0  0.11780232988E+03  0.12568454766E+03  0.22750858448E+03  0.31235100521E+03  0.12700000000E+03 0.  0.
   -5000001    1    1    2    0    0 -0.11780232988E+03 -0.12568454766E+03  0.71861459452E+02  0.22575886206E+03  0.12700000000E+03 0.  0.
<mgrwt>
<rscale>  0 0.44714629E+03</rscale>
<asrwt>0</asrwt>
<pdfrwt beam="1">  1        2 0.59819994E-01 0.44714629E+03</pdfrwt>
<pdfrwt beam="2">  1       -2 0.17052844E-01 0.44714629E+03</pdfrwt>
<totfact> 0.22909525E+03</totfact>
</mgrwt>
</event>
<event>
 4    1  0.1383574E-004  0.4017527E+03  0.7818608E-02  0.1043174E+00
          2   -1    0    0  501    0  0.00000000000E+00  0.00000000000E+00  0.20875276963E+03  0.20875276964E+03  0.25500000000E-02 0.  1.
         -2   -1    0    0    0  501 -0.00000000000E+00 -0.00000000000E+00 -0.19329715385E+03  0.19329715387E+03  0.25500000000E-02 0. -1.
    5000001    1    1    2    0    0  0.11278526662E+02 -0.15413787022E+03  0.26088805553E+02  0.20173079580E+03  0.12700000000E+03 0.  0.
   -5000001    1    1    2    0    0 -0.11278526662E+02  0.15413787022E+03 -0.10633189775E+02  0.20031912771E+03  0.12700000000E+03 0.  0.
<mgrwt>
<rscale>  0 0.40175274E+03</rscale>
<asrwt>0</asrwt>
<pdfrwt beam="1">  1        2 0.29821824E-01 0.40175274E+03</pdfrwt>
<pdfrwt beam="2">  1       -2 0.27613879E-01 0.40175274E+03</pdfrwt>
<totfact> 0.21153670E+03</totfact>
</mgrwt>
</event>
<event>
 4    1  0.1383574E-004  0.3844710E+03  0.7818608E-02  0.1049294E+00
         -2   -1    0    0    0  501 -0.00000000000E+00  0.00000000000E+00  0.28716235186E+02  0.28716235299E+02  0.25500000000E-02 0. -1.
          2   -1    0    0  501    0  0.00000000000E+00 -0.00000000000E+00 -0.12868846230E+04  0.12868846230E+04  0.25500000000E-02 0.  1.
    5000001    1    1    2    0    0 -0.14413081477E+03  0.67606590856E+01 -0.62064443801E+03  0.64972911026E+03  0.12700000000E+03 0.  0.
   -5000001    1    1    2    0    0  0.14413081477E+03 -0.67606590856E+01 -0.63752394983E+03  0.66587174808E+03  0.12700000000E+03 0.  0.
<mgrwt>
<rscale>  0 0.38447097E+03</rscale>
<asrwt>0</asrwt>
<pdfrwt beam="1">  1        2 0.18384062E+00 0.38447097E+03</pdfrwt>
<pdfrwt beam="2">  1       -2 0.41023201E-02 0.38447097E+03</pdfrwt>
<totfact> 0.53487873E+03</totfact>
</mgrwt>
</event>
<event>
 4    1  0.1383574E-004  0.6558088E+03  0.7818608E-02  0.9795940E-01
         -2   -1    0    0    0  501 -0.00000000000E+00  0.00000000000E+00  0.87358566317E+03  0.87358566317E+03  0.25500000000E-02 0. -1.
          2   -1    0    0  501    0  0.00000000000E+00 -0.00000000000E+00 -0.12308040794E+03  0.12308040796E+03  0.25500000000E-02 0.  1.
    5000001    1    1    2    0    0  0.77216220674E+02  0.12707806462E+03  0.77527092308E+03  0.79955311482E+03  0.12700000000E+03 0.  0.
   -5000001    1    1    2    0    0 -0.77216220674E+02 -0.12707806462E+03 -0.24765667846E+02  0.19711295632E+03  0.12700000000E+03 0.  0.
<mgrwt>
<rscale>  0 0.65580875E+03</rscale>
<asrwt>0</asrwt>
<pdfrwt beam="1">  1        2 0.17582915E-01 0.65580875E+03</pdfrwt>
<pdfrwt beam="2">  1       -2 0.12479796E+00 0.65580875E+03</pdfrwt>
<totfact> 0.16137201E+02</totfact>
</mgrwt>
</event>
<event>
 4    1  0.1383574E-004  0.2745450E+03  0.7818608E-02  0.1098706E+00
         -2   -1    0    0    0  501 -0.00000000000E+00  0.00000000000E+00  0.91881909277E+01  0.91881912815E+01  0.25500000000E-02 0. -1.
          2   -1    0    0  501    0  0.00000000000E+00 -0.00000000000E+00 -0.20508654701E+04  0.20508654701E+04  0.25500000000E-02 0.  1.
    5000001    1    1    2    0    0  0.41033933692E+02 -0.25304644948E+02 -0.11691418575E+04  0.11770071332E+04  0.12700000000E+03 0.  0.
   -5000001    1    1    2    0    0 -0.41033933692E+02  0.25304644948E+02 -0.87253542172E+03  0.88304652818E+03  0.12700000000E+03 0.  0.
<mgrwt>
<rscale>  0 0.27454503E+03</rscale>
<asrwt>0</asrwt>
<pdfrwt beam="1">  1        2 0.29298049E+00 0.27454503E+03</pdfrwt>
<pdfrwt beam="2">  1       -2 0.13126000E-02 0.27454503E+03</pdfrwt>
<totfact> 0.11964599E+04</totfact>
</mgrwt>
</event>
<event>
 4    1  0.1383574E-004  0.7844562E+03  0.7818608E-02  0.9582793E-01
         -2   -1    0    0    0  501 -0.00000000000E+00  0.00000000000E+00  0.12073270134E+03  0.12073270137E+03  0.25500000000E-02 0. -1.
          2   -1    0    0  501    0  0.00000000000E+00 -0.00000000000E+00 -0.12742436812E+04  0.12742436812E+04  0.25500000000E-02 0.  1.
    5000001    1    1    2    0    0  0.28044580231E+03  0.12291344651E+03 -0.20392724067E+03  0.38919517322E+03  0.12700000000E+03 0.  0.
   -5000001    1    1    2    0    0 -0.28044580231E+03 -0.12291344651E+03 -0.94958373921E+03  0.10057812094E+04  0.12700000000E+03 0.  0.
<mgrwt>
<rscale>  0 0.78445620E+03</rscale>
<asrwt>0</asrwt>
<pdfrwt beam="1">  1        2 0.18203480E+00 0.78445620E+03</pdfrwt>
<pdfrwt beam="2">  1       -2 0.17247530E-01 0.78445620E+03</pdfrwt>
<totfact> 0.53827419E+02</totfact>
</mgrwt>
</event>
<event>
 4    1  0.1383574E-004  0.4673950E+03  0.7818608E-02  0.1022658E+00
          2   -1    0    0  501    0  0.00000000000E+00  0.00000000000E+00  0.59753055865E+03  0.59753055866E+03  0.25500000000E-02 0.  1.
         -2   -1    0    0    0  501 -0.00000000000E+00 -0.00000000000E+00 -0.91400400598E+02  0.91400400634E+02  0.25500000000E-02 0. -1.
    5000001    1    1    2    0    0 -0.16868251680E+03  0.90260442991E+02  0.31705675314E+03  0.39147761591E+03  0.12700000000E+03 0.  0.
   -5000001    1    1    2    0    0  0.16868251680E+03 -0.90260442991E+02  0.18907340491E+03  0.29745334338E+03  0.12700000000E+03 0.  0.
<mgrwt>
<rscale>  0 0.46739505E+03</rscale>
<asrwt>0</asrwt>
<pdfrwt beam="1">  1        2 0.85361510E-01 0.46739505E+03</pdfrwt>
<pdfrwt beam="2">  1       -2 0.13057200E-01 0.46739505E+03</pdfrwt>
<totfact> 0.23967859E+03</totfact>
</mgrwt>
</event>
<event>
 4    1  0.1383574E-004  0.3480709E+03  0.7818608E-02  0.1063410E+00
          2   -1    0    0  501    0  0.00000000000E+00  0.00000000000E+00  0.21006386863E+04  0.21006386863E+04  0.25500000000E-02 0.  1.
         -2   -1    0    0    0  501 -0.00000000000E+00 -0.00000000000E+00 -0.14418632917E+02  0.14418633142E+02  0.25500000000E-02 0. -1.
    5000001    1    1    2    0    0 -0.63285693731E+02 -0.87461628322E+02  0.73899753186E+03  0.75756251726E+03  0.12700000000E+03 0.  0.
   -5000001    1    1    2    0    0  0.63285693731E+02  0.87461628322E+02  0.13472225215E+04  0.13574948022E+04  0.12700000000E+03 0.  0.
<mgrwt>
<rscale>  0 0.34807090E+03</rscale>
<asrwt>0</asrwt>
<pdfrwt beam="1">  1        2 0.30009146E+00 0.34807090E+03</pdfrwt>
<pdfrwt beam="2">  1       -2 0.20598032E-02 0.34807090E+03</pdfrwt>
<totfact> 0.58428345E+03</totfact>
</mgrwt>
</event>
<event>
 4    1  0.1383574E-004  0.3117143E+03  0.7818608E-02  0.1079527E+00
          2   -1    0    0  501    0  0.00000000000E+00  0.00000000000E+00  0.27730444481E+04  0.27730444481E+04  0.25500000000E-02 0.  1.
         -2   -1    0    0    0  501 -0.00000000000E+00 -0.00000000000E+00 -0.87598497827E+01  0.87598501539E+01  0.25500000000E-02 0. -1.
    5000001    1    1    2    0    0  0.83018697082E+02 -0.27542452614E+02  0.15840273144E+04  0.15915157000E+04  0.12700000000E+03 0.  0.
   -5000001    1    1    2    0    0 -0.83018697082E+02  0.27542452614E+02  0.11802572839E+04  0.11902885982E+04  0.12700000000E+03 0.  0.
<mgrwt>
<rscale>  0 0.31171431E+03</rscale>
<asrwt>0</asrwt>
<pdfrwt beam="1">  1        2 0.39614964E+00 0.31171431E+03</pdfrwt>
<pdfrwt beam="2">  1       -2 0.12514058E-02 0.31171431E+03</pdfrwt>
<totfact> 0.56036482E+03</totfact>
</mgrwt>
</event>
<event>
 4    1  0.1383574E-004  0.3996392E+03  0.7818608E-02  0.1043905E+00
         -2   -1    0    0    0  501 -0.00000000000E+00  0.00000000000E+00  0.32682695956E+02  0.32682696056E+02  0.25500000000E-02 0. -1.
          2   -1    0    0  501    0  0.00000000000E+00 -0.00000000000E+00 -0.12216824285E+04  0.12216824285E+04  0.25500000000E-02 0.  1.
    5000001    1    1    2    0    0 -0.62129561459E+02 -0.13047940113E+03 -0.76393154135E+03  0.78778509531E+03  0.12700000000E+03 0.  0.
   -5000001    1    1    2    0    0  0.62129561459E+02  0.13047940113E+03 -0.42506819116E+03  0.46658002922E+03  0.12700000000E+03 0.  0.
<mgrwt>
<rscale>  0 0.39963921E+03</rscale>
<asrwt>0</asrwt>
<pdfrwt beam="1">  1        2 0.17452603E+00 0.39963921E+03</pdfrwt>
<pdfrwt beam="2">  1       -2 0.46689573E-02 0.39963921E+03</pdfrwt>
<totfact> 0.47646138E+03</totfact>
</mgrwt>
</event>
<event>
 4    1  0.1383574E-004  0.1117958E+04  0.7818608E-02  0.9187864E-01
          2   -1    0    0  501    0  0.00000000000E+00  0.00000000000E+00  0.28017896210E+03  0.28017896211E+03  0.25500000000E-02 0.  1.
         -2   -1    0    0    0  501 -0.00000000000E+00 -0.00000000000E+00 -0.11152062458E+04  0.11152062458E+04  0.25500000000E-02 0. -1.
    5000001    1    1    2    0    0 -0.28482095747E+03 -0.46002324220E+03 -0.34279124725E+03  0.65297718212E+03  0.12700000000E+03 0.  0.
   -5000001    1    1    2    0    0  0.28482095747E+03  0.46002324220E+03 -0.49223603643E+03  0.74240802577E+03  0.12700000000E+03 0.  0.
<mgrwt>
<rscale>  0 0.11179577E+04</rscale>
<asrwt>0</asrwt>
<pdfrwt beam="1">  1        2 0.40025567E-01 0.11179577E+04</pdfrwt>
<pdfrwt beam="2">  1       -2 0.15931518E+00 0.11179577E+04</pdfrwt>
<totfact> 0.32528833E+01</totfact>
</mgrwt>
</event>
<event>
 4    1  0.1383574E-004  0.4213197E+03  0.7818608E-02  0.1036638E+00
          2   -1    0    0  501    0  0.00000000000E+00  0.00000000000E+00  0.37955031937E+04  0.37955031937E+04  0.25500000000E-02 0.  1.
         -2   -1    0    0    0  501 -0.00000000000E+00 -0.00000000000E+00 -0.11692141766E+02  0.11692142044E+02  0.25500000000E-02 0. -1.
    5000001    1    1    2    0    0  0.54357095362E+02  0.86268246343E+02  0.30992542327E+04  0.31035306834E+04  0.12700000000E+03 0.  0.
   -5000001    1    1    2    0    0 -0.54357095362E+02 -0.86268246343E+02  0.68455681922E+03  0.70366465229E+03  0.12700000000E+03 0.  0.
<mgrwt>
<rscale>  0 0.42131965E+03</rscale>
<asrwt>0</asrwt>
<pdfrwt beam="1">  1        2 0.54221439E+00 0.42131965E+03</pdfrwt>
<pdfrwt beam="2">  1       -2 0.16703071E-02 0.42131965E+03</pdfrwt>
<totfact> 0.95929780E+02</totfact>
</mgrwt>
</event>
<event>
 4    1  0.1383574E-004  0.3226094E+03  0.7818608E-02  0.1074455E+00
         -2   -1    0    0    0  501 -0.00000000000E+00  0.00000000000E+00  0.33467935253E+02  0.33467935350E+02  0.25500000000E-02 0. -1.
          2   -1    0    0  501    0  0.00000000000E+00 -0.00000000000E+00 -0.77743672272E+03  0.77743672272E+03  0.25500000000E-02 0.  1.
    5000001    1    1    2    0    0 -0.55031147920E+01  0.64889683238E+02 -0.56090880738E+03  0.57878203623E+03  0.12700000000E+03 0.  0.
   -5000001    1    1    2    0    0  0.55031147920E+01 -0.64889683238E+02 -0.18305998008E+03  0.23212262184E+03  0.12700000000E+03 0.  0.
<mgrwt>
<rscale>  0 0.32260937E+03</rscale>
<asrwt>0</asrwt>
<pdfrwt beam="1">  1        2 0.11106238E+00 0.32260937E+03</pdfrwt>
<pdfrwt beam="2">  1       -2 0.47811341E-02 0.32260937E+03</pdfrwt>
<totfact> 0.84903996E+03</totfact>
</mgrwt>
</event>
<event>
 4    1  0.1383574E-004  0.4818636E+03  0.7818608E-02  0.1018624E+00
          2   -1    0    0  501    0  0.00000000000E+00  0.00000000000E+00  0.14159926672E+04  0.14159926672E+04  0.25500000000E-02 0.  1.
         -2   -1    0    0    0  501 -0.00000000000E+00 -0.00000000000E+00 -0.40994661668E+02  0.40994661747E+02  0.25500000000E-02 0. -1.
    5000001    1    1    2    0    0 -0.12164660565E+03 -0.94960665410E+02  0.28066664803E+03  0.34455506375E+03  0.12700000000E+03 0.  0.
   -5000001    1    1    2    0    0  0.12164660565E+03  0.94960665410E+02  0.10943313575E+04  0.11124322652E+04  0.12700000000E+03 0.  0.
<mgrwt>
<rscale>  0 0.48186363E+03</rscale>
<asrwt>0</asrwt>
<pdfrwt beam="1">  1        2 0.20228469E+00 0.48186363E+03</pdfrwt>
<pdfrwt beam="2">  1       -2 0.58563796E-02 0.48186363E+03</pdfrwt>
<totfact> 0.26442324E+03</totfact>
</mgrwt>
</event>
<event>
 4    1  0.1383574E-004  0.2942515E+03  0.7818608E-02  0.1088150E+00
          2   -1    0    0  501    0  0.00000000000E+00  0.00000000000E+00  0.14191218807E+03  0.14191218809E+03  0.25500000000E-02 0.  1.
         -2   -1    0    0    0  501 -0.00000000000E+00 -0.00000000000E+00 -0.15253086556E+03  0.15253086558E+03  0.25500000000E-02 0. -1.
    5000001    1    1    2    0    0  0.14421572786E+02 -0.71368195219E+02  0.93831283929E+01  0.14669166353E+03  0.12700000000E+03 0.  0.
   -5000001    1    1    2    0    0 -0.14421572786E+02  0.71368195219E+02 -0.20001805882E+02  0.14775139014E+03  0.12700000000E+03 0.  0.
<mgrwt>
<rscale>  0 0.29425152E+03</rscale>
<asrwt>0</asrwt>
<pdfrwt beam="1">  1        2 0.20273170E-01 0.29425152E+03</pdfrwt>
<pdfrwt beam="2">  1       -2 0.21790124E-01 0.29425152E+03</pdfrwt>
<totfact> 0.49337592E+03</totfact>
</mgrwt>
</event>
<event>
 4    1  0.1383574E-004  0.3148846E+03  0.7818608E-02  0.1078028E+00
          2   -1    0    0  501    0  0.00000000000E+00  0.00000000000E+00  0.24472198320E+04  0.24472198320E+04  0.25500000000E-02 0.  1.
         -2   -1    0    0    0  501 -0.00000000000E+00 -0.00000000000E+00 -0.10129076691E+02  0.10129077012E+02  0.25500000000E-02 0. -1.
    5000001    1    1    2    0    0  0.71580060142E+02 -0.17082167193E+02  0.16629997634E+04  0.16694648000E+04  0.12700000000E+03 0.  0.
   -5000001    1    1    2    0    0 -0.71580060142E+02  0.17082167193E+02  0.77409099190E+03  0.78788410899E+03  0.12700000000E+03 0.  0.
<mgrwt>
<rscale>  0 0.31488460E+03</rscale>
<asrwt>0</asrwt>
<pdfrwt beam="1">  1        2 0.34960253E+00 0.31488460E+03</pdfrwt>
<pdfrwt beam="2">  1       -2 0.14470122E-02 0.31488460E+03</pdfrwt>
<totfact> 0.66264421E+03</totfact>
</mgrwt>
</event>
<event>
 4    1  0.1383574E-004  0.5233897E+03  0.7818608E-02  0.1007848E+00
         -2   -1    0    0    0  501 -0.00000000000E+00  0.00000000000E+00  0.72450820597E+02  0.72450820641E+02  0.25500000000E-02 0. -1.
          2   -1    0    0  501    0  0.00000000000E+00 -0.00000000000E+00 -0.94525091170E+03  0.94525091170E+03  0.25500000000E-02 0.  1.
    5000001    1    1    2    0    0 -0.90602804167E+02 -0.20211993699E+03 -0.32480411612E+03  0.41314410428E+03  0.12700000000E+03 0.  0.
   -5000001    1    1    2    0    0  0.90602804167E+02  0.20211993699E+03 -0.54799597498E+03  0.60455762806E+03  0.12700000000E+03 0.  0.
<mgrwt>
<rscale>  0 0.52338974E+03</rscale>
<asrwt>0</asrwt>
<pdfrwt beam="1">  1        2 0.13503584E+00 0.52338974E+03</pdfrwt>
<pdfrwt beam="2">  1       -2 0.10350118E-01 0.52338974E+03</pdfrwt>
<totfact> 0.19767679E+03</totfact>
</mgrwt>
</event>
<event>
 4    1  0.1383574E-004  0.1077436E+04  0.7818608E-02  0.9227468E-01
          2   -1    0    0  501    0  0.00000000000E+00  0.00000000000E+00  0.11772674105E+04  0.11772674105E+04  0.25500000000E-02 0.  1.
         -2   -1    0    0    0  501 -0.00000000000E+00 -0.00000000000E+00 -0.24651752357E+03  0.24651752358E+03  0.25500000000E-02 0. -1.
    5000001    1    1    2    0    0  0.52167550604E+00 -0.51511455751E+03  0.58894893144E+03  0.79267466425E+03  0.12700000000E+03 0.  0.
   -5000001    1    1    2    0    0 -0.52167550604E+00  0.51511455751E+03  0.34180095546E+03  0.63111026981E+03  0.12700000000E+03 0.  0.
<mgrwt>
<rscale>  0 0.10774359E+04</rscale>
<asrwt>0</asrwt>
<pdfrwt beam="1">  1        2 0.16818106E+00 0.10774359E+04</pdfrwt>
<pdfrwt beam="2">  1       -2 0.35216789E-01 0.10774359E+04</pdfrwt>
<totfact> 0.16544988E+02</totfact>
</mgrwt>
</event>
<event>
 4    1  0.1383574E-004  0.7295859E+03  0.7818608E-02  0.9667933E-01
         -2   -1    0    0    0  501 -0.00000000000E+00  0.00000000000E+00  0.23395214987E+03  0.23395214988E+03  0.25500000000E-02 0. -1.
          2   -1    0    0  501    0  0.00000000000E+00 -0.00000000000E+00 -0.56880819741E+03  0.56880819742E+03  0.25500000000E-02 0.  1.
    5000001    1    1    2    0    0  0.32310099223E+03 -0.10900494167E+03 -0.19587811213E+03  0.41324758112E+03  0.12700000000E+03 0.  0.
   -5000001    1    1    2    0    0 -0.32310099223E+03  0.10900494167E+03 -0.13897793541E+03  0.38951276618E+03  0.12700000000E+03 0.  0.
<mgrwt>
<rscale>  0 0.72958591E+03</rscale>
<asrwt>0</asrwt>
<pdfrwt beam="1">  1        2 0.81258313E-01 0.72958591E+03</pdfrwt>
<pdfrwt beam="2">  1       -2 0.33421736E-01 0.72958591E+03</pdfrwt>
<totfact> 0.48584065E+02</totfact>
</mgrwt>
</event>
<event>
 4    1  0.1383574E-004  0.3785001E+03  0.7818608E-02  0.1051490E+00
          2   -1    0    0  501    0  0.00000000000E+00  0.00000000000E+00  0.10198484240E+04  0.10198484240E+04  0.25500000000E-02 0.  1.
         -2   -1    0    0    0  501 -0.00000000000E+00 -0.00000000000E+00 -0.35118533898E+02  0.35118533990E+02  0.25500000000E-02 0. -1.
    5000001    1    1    2    0    0 -0.13728131226E+03  0.35460701711E+01  0.41216977544E+03  0.45262750369E+03  0.12700000000E+03 0.  0.
   -5000001    1    1    2    0    0  0.13728131226E+03 -0.35460701711E+01  0.57256011468E+03  0.60233945432E+03  0.12700000000E+03 0.  0.
<mgrwt>
<rscale>  0 0.37850010E+03</rscale>
<asrwt>0</asrwt>
<pdfrwt beam="1">  1        2 0.14569261E+00 0.37850010E+03</pdfrwt>
<pdfrwt beam="2">  1       -2 0.50169342E-02 0.37850010E+03</pdfrwt>
<totfact> 0.55532474E+03</totfact>
</mgrwt>
</event>
<event>
 4    1  0.1383574E-004  0.5242238E+03  0.7818608E-02  0.1007643E+00
          2   -1    0    0  501    0  0.00000000000E+00  0.00000000000E+00  0.14664846142E+04  0.14664846142E+04  0.25500000000E-02 0.  1.
         -2   -1    0    0    0  501 -0.00000000000E+00 -0.00000000000E+00 -0.46848523172E+02  0.46848523241E+02  0.25500000000E-02 0. -1.
    5000001    1    1    2    0    0 -0.71588733824E+02  0.18720232841E+03  0.10313309178E+04  0.10582731786E+04  0.12700000000E+03 0.  0.
   -5000001    1    1    2    0    0  0.71588733824E+02 -0.18720232841E+03  0.38830517326E+03  0.45505995886E+03  0.12700000000E+03 0.  0.
<mgrwt>
<rscale>  0 0.52422376E+03</rscale>
<asrwt>0</asrwt>
<pdfrwt beam="1">  1        2 0.20949778E+00 0.52422376E+03</pdfrwt>
<pdfrwt beam="2">  1       -2 0.66926470E-02 0.52422376E+03</pdfrwt>
<totfact> 0.20179557E+03</totfact>
</mgrwt>
</event>
<event>
 4    1  0.1383574E-004  0.3235358E+03  0.7818608E-02  0.1074033E+00
          2   -1    0    0  501    0  0.00000000000E+00  0.00000000000E+00  0.11276050463E+03  0.11276050466E+03  0.25500000000E-02 0.  1.
         -2   -1    0    0    0  501 -0.00000000000E+00 -0.00000000000E+00 -0.23207458264E+03  0.23207458265E+03  0.25500000000E-02 0. -1.
    5000001    1    1    2    0    0 -0.92855145055E+02 -0.52067968602E+01 -0.19910493856E+02  0.15866510789E+03  0.12700000000E+03 0.  0.
   -5000001    1    1    2    0    0  0.92855145055E+02  0.52067968602E+01 -0.99403584151E+02  0.18616997942E+03  0.12700000000E+03 0.  0.
<mgrwt>
<rscale>  0 0.32353576E+03</rscale>
<asrwt>0</asrwt>
<pdfrwt beam="1">  1        2 0.16108644E-01 0.32353576E+03</pdfrwt>
<pdfrwt beam="2">  1       -2 0.33153511E-01 0.32353576E+03</pdfrwt>
<totfact> 0.30494014E+03</totfact>
</mgrwt>
</event>
<event>
 4    1  0.1383574E-004  0.7896699E+03  0.7818608E-02  0.9575091E-01
          2   -1    0    0  501    0  0.00000000000E+00  0.00000000000E+00  0.55345404174E+03  0.55345404175E+03  0.25500000000E-02 0.  1.
         -2   -1    0    0    0  501 -0.00000000000E+00 -0.00000000000E+00 -0.28167584750E+03  0.28167584751E+03  0.25500000000E-02 0. -1.
    5000001    1    1    2    0    0  0.31012784248E+03  0.19091184028E+03  0.22524596800E+03  0.44664455167E+03  0.12700000000E+03 0.  0.
   -5000001    1    1    2    0    0 -0.31012784248E+03 -0.19091184028E+03  0.46532226248E+02  0.38848533759E+03  0.12700000000E+03 0.  0.
<mgrwt>
<rscale>  0 0.78966990E+03</rscale>
<asrwt>0</asrwt>
<pdfrwt beam="1">  1        2 0.79064862E-01 0.78966990E+03</pdfrwt>
<pdfrwt beam="2">  1       -2 0.40239407E-01 0.78966990E+03</pdfrwt>
<totfact> 0.35065449E+02</totfact>
</mgrwt>
</event>
<event>
 4    1  0.1383574E-004  0.3399955E+03  0.7818608E-02  0.1066798E+00
         -2   -1    0    0    0  501 -0.00000000000E+00  0.00000000000E+00  0.11700580063E+03  0.11700580066E+03  0.25500000000E-02 0. -1.
          2   -1    0    0  501    0  0.00000000000E+00 -0.00000000000E+00 -0.24698976191E+03  0.24698976192E+03  0.25500000000E-02 0.  1.
    5000001    1    1    2    0    0  0.10685094911E+03  0.29167462142E+02 -0.40996237922E+02  0.17342882603E+03  0.12700000000E+03 0.  0.
   -5000001    1    1    2    0    0 -0.10685094911E+03 -0.29167462142E+02 -0.88987723352E+02  0.19056673655E+03  0.12700000000E+03 0.  0.
<mgrwt>
<rscale>  0 0.33999550E+03</rscale>
<asrwt>0</asrwt>
<pdfrwt beam="1">  1        2 0.35284251E-01 0.33999550E+03</pdfrwt>
<pdfrwt beam="2">  1       -2 0.16715114E-01 0.33999550E+03</pdfrwt>
<totfact> 0.41968371E+03</totfact>
</mgrwt>
</event>
<event>
 4    1  0.1383574E-004  0.2848967E+03  0.7818608E-02  0.1093044E+00
         -2   -1    0    0    0  501 -0.00000000000E+00  0.00000000000E+00  0.11504336424E+03  0.11504336426E+03  0.25500000000E-02 0. -1.
          2   -1    0    0  501    0  0.00000000000E+00 -0.00000000000E+00 -0.17638161865E+03  0.17638161867E+03  0.25500000000E-02 0.  1.
    5000001    1    1    2    0    0 -0.51027354099E+02 -0.89895420150E+01  0.86556773117E+01  0.13743552482E+03  0.12700000000E+03 0.  0.
   -5000001    1    1    2    0    0  0.51027354099E+02  0.89895420150E+01 -0.69993931725E+02  0.15398945811E+03  0.12700000000E+03 0.  0.
<mgrwt>
<rscale>  0 0.28489672E+03</rscale>
<asrwt>0</asrwt>
<pdfrwt beam="1">  1        2 0.25197374E-01 0.28489672E+03</pdfrwt>
<pdfrwt beam="2">  1       -2 0.16434766E-01 0.28489672E+03</pdfrwt>
<totfact> 0.62257000E+03</totfact>
</mgrwt>
</event>
<event>
 4    1  0.1383574E-004  0.3332634E+03  0.7818608E-02  0.1069702E+00
         -2   -1    0    0    0  501 -0.00000000000E+00  0.00000000000E+00  0.26398812474E+02  0.26398812597E+02  0.25500000000E-02 0. -1.
          2   -1    0    0  501    0  0.00000000000E+00 -0.00000000000E+00 -0.10517943543E+04  0.10517943543E+04  0.25500000000E-02 0.  1.
    5000001    1    1    2    0    0 -0.22809952850E+02  0.10468209636E+03 -0.55342692916E+03  0.57783129126E+03  0.12700000000E+03 0.  0.
   -5000001    1    1    2    0    0  0.22809952850E+02 -0.10468209636E+03 -0.47196861272E+03  0.50036187568E+03  0.12700000000E+03 0.  0.
<mgrwt>
<rscale>  0 0.33326339E+03</rscale>
<asrwt>0</asrwt>
<pdfrwt beam="1">  1        2 0.15025631E+00 0.33326339E+03</pdfrwt>
<pdfrwt beam="2">  1       -2 0.37712596E-02 0.33326339E+03</pdfrwt>
<totfact> 0.81895615E+03</totfact>
</mgrwt>
</event>
<event>
 4    1  0.1383574E-004  0.4132820E+03  0.7818608E-02  0.1039275E+00
          2   -1    0    0  501    0  0.00000000000E+00  0.00000000000E+00  0.96567296940E+02  0.96567296974E+02  0.25500000000E-02 0.  1.
         -2   -1    0    0    0  501 -0.00000000000E+00 -0.00000000000E+00 -0.44218393899E+03  0.44218393899E+03  0.25500000000E-02 0. -1.
    5000001    1    1    2    0    0  0.68643201056E+02  0.14436772626E+02  0.19006752673E+02  0.14632349812E+03  0.12700000000E+03 0.  0.
   -5000001    1    1    2    0    0 -0.68643201056E+02 -0.14436772626E+02 -0.36462339472E+03  0.39242773785E+03  0.12700000000E+03 0.  0.
<mgrwt>
<rscale>  0 0.41328202E+03</rscale>
<asrwt>0</asrwt>
<pdfrwt beam="1">  1        2 0.13795328E-01 0.41328202E+03</pdfrwt>
<pdfrwt beam="2">  1       -2 0.63169133E-01 0.41328202E+03</pdfrwt>
<totfact> 0.10315103E+03</totfact>
</mgrwt>
</event>
<event>
 4    1  0.1383574E-004  0.3183917E+03  0.7818608E-02  0.1076392E+00
         -2   -1    0    0    0  501 -0.00000000000E+00  0.00000000000E+00  0.28236772095E+03  0.28236772096E+03  0.25500000000E-02 0. -1.
          2   -1    0    0  501    0  0.00000000000E+00 -0.00000000000E+00 -0.89752892789E+02  0.89752892825E+02  0.25500000000E-02 0.  1.
    5000001    1    1    2    0    0 -0.88732392979E+01  0.77159950912E+02  0.30379837199E+02  0.15193527210E+03  0.12700000000E+03 0.  0.
   -5000001    1    1    2    0    0  0.88732392979E+01 -0.77159950912E+02  0.16223499096E+03  0.22018534169E+03  0.12700000000E+03 0.  0.
<mgrwt>
<rscale>  0 0.31839171E+03</rscale>
<asrwt>0</asrwt>
<pdfrwt beam="1">  1        2 0.12821842E-01 0.31839171E+03</pdfrwt>
<pdfrwt beam="2">  1       -2 0.40338245E-01 0.31839171E+03</pdfrwt>
<totfact> 0.27672892E+03</totfact>
</mgrwt>
</event>
<event>
 4    1  0.1383574E-004  0.3553097E+03  0.7818608E-02  0.1060457E+00
         -2   -1    0    0    0  501 -0.00000000000E+00  0.00000000000E+00  0.99312251070E+01  0.99312254344E+01  0.25500000000E-02 0. -1.
          2   -1    0    0  501    0  0.00000000000E+00 -0.00000000000E+00 -0.31779804889E+04  0.31779804889E+04  0.25500000000E-02 0.  1.
    5000001    1    1    2    0    0  0.51586365997E+02  0.10742334422E+03 -0.12691893943E+04  0.12810822170E+04  0.12700000000E+03 0.  0.
   -5000001    1    1    2    0    0 -0.51586365997E+02 -0.10742334422E+03 -0.18988598695E+04  0.19068294973E+04  0.12700000000E+03 0.  0.
<mgrwt>
<rscale>  0 0.35530967E+03</rscale>
<asrwt>0</asrwt>
<pdfrwt beam="1">  1        2 0.45399656E+00 0.35530967E+03</pdfrwt>
<pdfrwt beam="2">  1       -2 0.14187485E-02 0.35530967E+03</pdfrwt>
<totfact> 0.28302392E+03</totfact>
</mgrwt>
</event>
<event>
 4    1  0.1383574E-004  0.4211545E+03  0.7818608E-02  0.1036691E+00
          2   -1    0    0  501    0  0.00000000000E+00  0.00000000000E+00  0.23063860508E+04  0.23063860508E+04  0.25500000000E-02 0.  1.
         -2   -1    0    0    0  501 -0.00000000000E+00 -0.00000000000E+00 -0.19226088676E+02  0.19226088846E+02  0.25500000000E-02 0. -1.
    5000001    1    1    2    0    0  0.44722547835E+02 -0.16106631866E+03  0.10526232521E+04  0.10733532392E+04  0.12700000000E+03 0.  0.
   -5000001    1    1    2    0    0 -0.44722547835E+02  0.16106631866E+03  0.12345367101E+04  0.12522589005E+04  0.12700000000E+03 0.  0.
<mgrwt>
<rscale>  0 0.42115452E+03</rscale>
<asrwt>0</asrwt>
<pdfrwt beam="1">  1        2 0.32948356E+00 0.42115452E+03</pdfrwt>
<pdfrwt beam="2">  1       -2 0.27465855E-02 0.42115452E+03</pdfrwt>
<totfact> 0.30013201E+03</totfact>
</mgrwt>
</event>
<event>
 4    1  0.1383574E-004  0.5170334E+03  0.7818608E-02  0.1009426E+00
          2   -1    0    0  501    0  0.00000000000E+00  0.00000000000E+00  0.10454915930E+04  0.10454915930E+04  0.25500000000E-02 0.  1.
         -2   -1    0    0    0  501 -0.00000000000E+00 -0.00000000000E+00 -0.63922923006E+02  0.63922923057E+02  0.25500000000E-02 0. -1.
    5000001    1    1    2    0    0  0.21519493298E+02 -0.20486110389E+03  0.29564407754E+03  0.38205442160E+03  0.12700000000E+03 0.  0.
   -5000001    1    1    2    0    0 -0.21519493298E+02  0.20486110389E+03  0.68592459244E+03  0.72736009445E+03  0.12700000000E+03 0.  0.
<mgrwt>
<rscale>  0 0.51703338E+03</rscale>
<asrwt>0</asrwt>
<pdfrwt beam="1">  1        2 0.14935593E+00 0.51703338E+03</pdfrwt>
<pdfrwt beam="2">  1       -2 0.91318470E-02 0.51703338E+03</pdfrwt>
<totfact> 0.21023660E+03</totfact>
</mgrwt>
</event>
<event>
 4    1  0.1383574E-004  0.3293591E+03  0.7818608E-02  0.1071421E+00
          2   -1    0    0  501    0  0.00000000000E+00  0.00000000000E+00  0.63425182486E+03  0.63425182486E+03  0.25500000000E-02 0.  1.
         -2   -1    0    0    0  501 -0.00000000000E+00 -0.00000000000E+00 -0.42758011198E+02  0.42758011275E+02  0.25500000000E-02 0. -1.
    5000001    1    1    2    0    0  0.10181573487E+03  0.22920293153E+02  0.27533976315E+03  0.32067548843E+03  0.12700000000E+03 0.  0.
   -5000001    1    1    2    0    0 -0.10181573487E+03 -0.22920293153E+02  0.31615405050E+03  0.35633434771E+03  0.12700000000E+03 0.  0.
<mgrwt>
<rscale>  0 0.32935905E+03</rscale>
<asrwt>0</asrwt>
<pdfrwt beam="1">  1        2 0.90607405E-01 0.32935905E+03</pdfrwt>
<pdfrwt beam="2">  1       -2 0.61082872E-02 0.32935905E+03</pdfrwt>
<totfact> 0.74468684E+03</totfact>
</mgrwt>
</event>
<event>
 4    1  0.1383574E-004  0.3255170E+03  0.7818608E-02  0.1073138E+00
          2   -1    0    0  501    0  0.00000000000E+00  0.00000000000E+00  0.91431745961E+02  0.91431745996E+02  0.25500000000E-02 0.  1.
         -2   -1    0    0    0  501 -0.00000000000E+00 -0.00000000000E+00 -0.28972798609E+03  0.28972798610E+03  0.25500000000E-02 0. -1.
    5000001    1    1    2    0    0  0.47253561955E+02 -0.23113963097E+02 -0.20118889903E+03  0.24366601631E+03  0.12700000000E+03 0.  0.
   -5000001    1    1    2    0    0 -0.47253561955E+02  0.23113963097E+02  0.28926589030E+01  0.13749371579E+03  0.12700000000E+03 0.  0.
<mgrwt>
<rscale>  0 0.32551704E+03</rscale>
<asrwt>0</asrwt>
<pdfrwt beam="1">  1        2 0.13061678E-01 0.32551704E+03</pdfrwt>
<pdfrwt beam="2">  1       -2 0.41389712E-01 0.32551704E+03</pdfrwt>
<totfact> 0.25765037E+03</totfact>
</mgrwt>
</event>
<event>
 4    1  0.1383574E-004  0.4864656E+03  0.7818608E-02  0.1017373E+00
          2   -1    0    0  501    0  0.00000000000E+00  0.00000000000E+00  0.82420833458E+03  0.82420833459E+03  0.25500000000E-02 0.  1.
         -2   -1    0    0    0  501 -0.00000000000E+00 -0.00000000000E+00 -0.71780618147E+02  0.71780618193E+02  0.25500000000E-02 0. -1.
    5000001    1    1    2    0    0 -0.14976382404E+03  0.10130112040E+03  0.56352092683E+03  0.60528997593E+03  0.12700000000E+03 0.  0.
   -5000001    1    1    2    0    0  0.14976382404E+03 -0.10130112040E+03  0.18890678960E+03  0.29069897685E+03  0.12700000000E+03 0.  0.
<mgrwt>
<rscale>  0 0.48646555E+03</rscale>
<asrwt>0</asrwt>
<pdfrwt beam="1">  1        2 0.11774406E+00 0.48646555E+03</pdfrwt>
<pdfrwt beam="2">  1       -2 0.10254373E-01 0.48646555E+03</pdfrwt>
<totfact> 0.24043757E+03</totfact>
</mgrwt>
</event>
<event>
 4    1  0.1383574E-004  0.2899805E+03  0.7818608E-02  0.1090359E+00
         -2   -1    0    0    0  501 -0.00000000000E+00  0.00000000000E+00  0.11405429772E+02  0.11405430057E+02  0.25500000000E-02 0. -1.
          2   -1    0    0  501    0  0.00000000000E+00 -0.00000000000E+00 -0.18431718080E+04  0.18431718080E+04  0.25500000000E-02 0.  1.
    5000001    1    1    2    0    0  0.36632115914E+02 -0.37159961104E+02 -0.61793187488E+03  0.63300203524E+03  0.12700000000E+03 0.  0.
   -5000001    1    1    2    0    0 -0.36632115914E+02  0.37159961104E+02 -0.12138345034E+04  0.12215752028E+04  0.12700000000E+03 0.  0.
<mgrwt>
<rscale>  0 0.28998046E+03</rscale>
<asrwt>0</asrwt>
<pdfrwt beam="1">  1        2 0.26331007E+00 0.28998046E+03</pdfrwt>
<pdfrwt beam="2">  1       -2 0.16293483E-02 0.28998046E+03</pdfrwt>
<totfact> 0.11025556E+04</totfact>
</mgrwt>
</event>
<event>
 4    1  0.1383574E-004  0.4759868E+03  0.7818608E-02  0.1020244E+00
         -2   -1    0    0    0  501 -0.00000000000E+00  0.00000000000E+00  0.13144238038E+04  0.13144238038E+04  0.25500000000E-02 0. -1.
          2   -1    0    0  501    0  0.00000000000E+00 -0.00000000000E+00 -0.43091778830E+02  0.43091778906E+02  0.25500000000E-02 0.  1.
    5000001    1    1    2    0    0  0.85455483799E+02 -0.18144557526E+03  0.58737331345E+03  0.63353101412E+03  0.12700000000E+03 0.  0.
   -5000001    1    1    2    0    0 -0.85455483799E+02  0.18144557526E+03  0.68395871149E+03  0.72398456856E+03  0.12700000000E+03 0.  0.
<mgrwt>
<rscale>  0 0.47598681E+03</rscale>
<asrwt>0</asrwt>
<pdfrwt beam="1">  1        2 0.61559683E-02 0.47598681E+03</pdfrwt>
<pdfrwt beam="2">  1       -2 0.18777483E+00 0.47598681E+03</pdfrwt>
<totfact> 0.20578649E+02</totfact>
</mgrwt>
</event>
<event>
 4    1  0.1383574E-004  0.6611991E+03  0.7818608E-02  0.9785989E-01
         -2   -1    0    0    0  501 -0.00000000000E+00  0.00000000000E+00  0.26921418159E+02  0.26921418280E+02  0.25500000000E-02 0. -1.
          2   -1    0    0  501    0  0.00000000000E+00 -0.00000000000E+00 -0.40598183170E+04  0.40598183170E+04  0.25500000000E-02 0.  1.
    5000001    1    1    2    0    0 -0.26269690821E+03 -0.13659134826E+02 -0.10595050584E+04  0.10990342153E+04  0.12700000000E+03 0.  0.
   -5000001    1    1    2    0    0  0.26269690821E+03  0.13659134826E+02 -0.29733918404E+04  0.29877055200E+04  0.12700000000E+03 0.  0.
<mgrwt>
<rscale>  0 0.66119911E+03</rscale>
<asrwt>0</asrwt>
<pdfrwt beam="1">  1        2 0.57997365E+00 0.66119911E+03</pdfrwt>
<pdfrwt beam="2">  1       -2 0.38459195E-02 0.66119911E+03</pdfrwt>
<totfact> 0.17699961E+02</totfact>
</mgrwt>
</event>
<event>
 4    1  0.1383574E-004  0.3008035E+03  0.7818608E-02  0.1084840E+00
         -2   -1    0    0    0  501 -0.00000000000E+00  0.00000000000E+00  0.21197321508E+02  0.21197321661E+02  0.25500000000E-02 0. -1.
          2   -1    0    0  501    0  0.00000000000E+00 -0.00000000000E+00 -0.10671484142E+04  0.10671484142E+04  0.25500000000E-02 0.  1.
    5000001    1    1    2    0    0  0.78343076187E+01  0.79343695751E+02 -0.48095387213E+03  0.50378807602E+03  0.12700000000E+03 0.  0.
   -5000001    1    1    2    0    0 -0.78343076187E+01 -0.79343695751E+02 -0.56499722060E+03  0.58455765988E+03  0.12700000000E+03 0.  0.
<mgrwt>
<rscale>  0 0.30080351E+03</rscale>
<asrwt>0</asrwt>
<pdfrwt beam="1">  1        2 0.15244974E+00 0.30080351E+03</pdfrwt>
<pdfrwt beam="2">  1       -2 0.30281895E-02 0.30080351E+03</pdfrwt>
<totfact> 0.11122856E+04</totfact>
</mgrwt>
</event>
<event>
 4    1  0.1383574E-004  0.4073135E+03  0.7818608E-02  0.1041276E+00
         -2   -1    0    0    0  501 -0.00000000000E+00  0.00000000000E+00  0.37684938552E+02  0.37684938638E+02  0.25500000000E-02 0. -1.
          2   -1    0    0  501    0  0.00000000000E+00 -0.00000000000E+00 -0.11006006055E+04  0.11006006055E+04  0.25500000000E-02 0.  1.
    5000001    1    1    2    0    0  0.28793792272E+02  0.15396976596E+03 -0.45185806065E+03  0.49481357932E+03  0.12700000000E+03 0.  0.
   -5000001    1    1    2    0    0 -0.28793792272E+02 -0.15396976596E+03 -0.61105760633E+03  0.64347196485E+03  0.12700000000E+03 0.  0.
<mgrwt>
<rscale>  0 0.40731347E+03</rscale>
<asrwt>0</asrwt>
<pdfrwt beam="1">  1        2 0.15722864E+00 0.40731347E+03</pdfrwt>
<pdfrwt beam="2">  1       -2 0.53835633E-02 0.40731347E+03</pdfrwt>
<totfact> 0.44755626E+03</totfact>
</mgrwt>
</event>
<event>
 4    1  0.1383574E-004  0.7958590E+03  0.7818608E-02  0.9566030E-01
         -2   -1    0    0    0  501 -0.00000000000E+00  0.00000000000E+00  0.33353302270E+03  0.33353302271E+03  0.25500000000E-02 0. -1.
          2   -1    0    0  501    0  0.00000000000E+00 -0.00000000000E+00 -0.47475925351E+03  0.47475925352E+03  0.25500000000E-02 0.  1.
    5000001    1    1    2    0    0  0.26200943778E+03 -0.11759778709E+03 -0.31885065720E+03  0.44751863270E+03  0.12700000000E+03 0.  0.
   -5000001    1    1    2    0    0 -0.26200943778E+03  0.11759778709E+03  0.17762442639E+03  0.36077364353E+03  0.12700000000E+03 0.  0.
<mgrwt>
<rscale>  0 0.79585900E+03</rscale>
<asrwt>0</asrwt>
<pdfrwt beam="1">  1        2 0.67822750E-01 0.79585900E+03</pdfrwt>
<pdfrwt beam="2">  1       -2 0.47647575E-01 0.79585900E+03</pdfrwt>
<totfact> 0.29919702E+02</totfact>
</mgrwt>
</event>
<event>
 4    1  0.1383574E-004  0.3375329E+03  0.7818608E-02  0.1067852E+00
          2   -1    0    0  501    0  0.00000000000E+00  0.00000000000E+00  0.28352635634E+03  0.28352635635E+03  0.25500000000E-02 0.  1.
         -2   -1    0    0    0  501 -0.00000000000E+00 -0.00000000000E+00 -0.10045665921E+03  0.10045665924E+03  0.25500000000E-02 0. -1.
    5000001    1    1    2    0    0 -0.70793432988E+02 -0.45465712277E+02  0.89163895061E+01  0.15260191070E+03  0.12700000000E+03 0.  0.
   -5000001    1    1    2    0    0  0.70793432988E+02  0.45465712277E+02  0.17415330762E+03  0.23138110490E+03  0.12700000000E+03 0.  0.
<mgrwt>
<rscale>  0 0.33753288E+03</rscale>
<asrwt>0</asrwt>
<pdfrwt beam="1">  1        2 0.40503765E-01 0.33753288E+03</pdfrwt>
<pdfrwt beam="2">  1       -2 0.14350951E-01 0.33753288E+03</pdfrwt>
<totfact> 0.46553788E+03</totfact>
</mgrwt>
</event>
<event>
 4    1  0.1383574E-004  0.3229906E+03  0.7818608E-02  0.1074281E+00
         -2   -1    0    0    0  501 -0.00000000000E+00  0.00000000000E+00  0.35610234143E+02  0.35610234234E+02  0.25500000000E-02 0. -1.
          2   -1    0    0  501    0  0.00000000000E+00 -0.00000000000E+00 -0.73239411969E+03  0.73239411970E+03  0.25500000000E-02 0.  1.
    5000001    1    1    2    0    0 -0.51112748017E+02  0.52093357984E+02 -0.51010793247E+03  0.53072152182E+03  0.12700000000E+03 0.  0.
   -5000001    1    1    2    0    0  0.51112748017E+02 -0.52093357984E+02 -0.18667595308E+03  0.23728283211E+03  0.12700000000E+03 0.  0.
<mgrwt>
<rscale>  0 0.32299056E+03</rscale>
<asrwt>0</asrwt>
<pdfrwt beam="1">  1        2 0.10462772E+00 0.32299056E+03</pdfrwt>
<pdfrwt beam="2">  1       -2 0.50871767E-02 0.32299056E+03</pdfrwt>
<totfact> 0.83085425E+03</totfact>
</mgrwt>
</event>
<event>
 4    1  0.1383574E-004  0.4356692E+03  0.7818608E-02  0.1032084E+00
         -2   -1    0    0    0  501 -0.00000000000E+00  0.00000000000E+00  0.10315704047E+03  0.10315704050E+03  0.25500000000E-02 0. -1.
          2   -1    0    0  501    0  0.00000000000E+00 -0.00000000000E+00 -0.45999679184E+03  0.45999679185E+03  0.25500000000E-02 0.  1.
    5000001    1    1    2    0    0  0.11007475703E+03 -0.83816394872E+02 -0.32108455023E+03  0.37197570967E+03  0.12700000000E+03 0.  0.
   -5000001    1    1    2    0    0 -0.11007475703E+03  0.83816394872E+02 -0.35755201141E+02  0.19117812268E+03  0.12700000000E+03 0.  0.
<mgrwt>
<rscale>  0 0.43566918E+03</rscale>
<asrwt>0</asrwt>
<pdfrwt beam="1">  1        2 0.65713827E-01 0.43566918E+03</pdfrwt>
<pdfrwt beam="2">  1       -2 0.14736720E-01 0.43566918E+03</pdfrwt>
<totfact> 0.26379730E+03</totfact>
</mgrwt>
</event>
<event>
 4    1  0.1383574E-004  0.5034559E+03  0.7818608E-02  0.1012881E+00
          2   -1    0    0  501    0  0.00000000000E+00  0.00000000000E+00  0.12843566009E+04  0.12843566009E+04  0.25500000000E-02 0.  1.
         -2   -1    0    0    0  501 -0.00000000000E+00 -0.00000000000E+00 -0.49337518740E+02  0.49337518806E+02  0.25500000000E-02 0. -1.
    5000001    1    1    2    0    0 -0.11291540965E+03 -0.17990302294E+03  0.49545111064E+03  0.55381927597E+03  0.12700000000E+03 0.  0.
   -5000001    1    1    2    0    0  0.11291540965E+03  0.17990302294E+03  0.73956797152E+03  0.77987484374E+03  0.12700000000E+03 0.  0.
<mgrwt>
<rscale>  0 0.50345593E+03</rscale>
<asrwt>0</asrwt>
<pdfrwt beam="1">  1        2 0.18347954E+00 0.50345593E+03</pdfrwt>
<pdfrwt beam="2">  1       -2 0.70482160E-02 0.50345593E+03</pdfrwt>
<totfact> 0.23252650E+03</totfact>
</mgrwt>
</event>
<event>
 4    1  0.1383574E-004  0.4083699E+03  0.7818608E-02  0.1040919E+00
          2   -1    0    0  501    0  0.00000000000E+00  0.00000000000E+00  0.26650034267E+04  0.26650034267E+04  0.25500000000E-02 0.  1.
         -2   -1    0    0    0  501 -0.00000000000E+00 -0.00000000000E+00 -0.15644068773E+02  0.15644068981E+02  0.25500000000E-02 0. -1.
    5000001    1    1    2    0    0 -0.18435179409E+01  0.15099981927E+03  0.16694224423E+04  0.16810427225E+04  0.12700000000E+03 0.  0.
   -5000001    1    1    2    0    0  0.18435179409E+01 -0.15099981927E+03  0.97993691554E+03  0.99960477310E+03  0.12700000000E+03 0.  0.
<mgrwt>
<rscale>  0 0.40836992E+03</rscale>
<asrwt>0</asrwt>
<pdfrwt beam="1">  1        2 0.38071504E+00 0.40836992E+03</pdfrwt>
<pdfrwt beam="2">  1       -2 0.22348654E-02 0.40836992E+03</pdfrwt>
<totfact> 0.26917561E+03</totfact>
</mgrwt>
</event>
<event>
 4    1  0.1383574E-004  0.4326099E+03  0.7818608E-02  0.1033039E+00
          2   -1    0    0  501    0  0.00000000000E+00  0.00000000000E+00  0.35952651729E+03  0.35952651730E+03  0.25500000000E-02 0.  1.
         -2   -1    0    0    0  501 -0.00000000000E+00 -0.00000000000E+00 -0.13013735842E+03  0.13013735845E+03  0.25500000000E-02 0. -1.
    5000001    1    1    2    0    0 -0.99222773577E+02 -0.94883695865E+02  0.23770459530E+03  0.30245751630E+03  0.12700000000E+03 0.  0.
   -5000001    1    1    2    0    0  0.99222773577E+02  0.94883695865E+02 -0.83154364291E+01  0.18720635945E+03  0.12700000000E+03 0.  0.
<mgrwt>
<rscale>  0 0.43260990E+03</rscale>
<asrwt>0</asrwt>
<pdfrwt beam="1">  1        2 0.51360931E-01 0.43260990E+03</pdfrwt>
<pdfrwt beam="2">  1       -2 0.18591051E-01 0.43260990E+03</pdfrwt>
<totfact> 0.23373613E+03</totfact>
</mgrwt>
</event>
<event>
 4    1  0.1383574E-004  0.4646412E+03  0.7818608E-02  0.1023444E+00
         -2   -1    0    0    0  501 -0.00000000000E+00  0.00000000000E+00  0.26900286610E+02  0.26900286731E+02  0.25500000000E-02 0. -1.
          2   -1    0    0  501    0  0.00000000000E+00 -0.00000000000E+00 -0.20064050382E+04  0.20064050382E+04  0.25500000000E-02 0.  1.
    5000001    1    1    2    0    0  0.16565216831E+03 -0.89311813490E+02 -0.12053215251E+04  0.12265179247E+04  0.12700000000E+03 0.  0.
   -5000001    1    1    2    0    0 -0.16565216831E+03  0.89311813490E+02 -0.77418322651E+03  0.80678740019E+03  0.12700000000E+03 0.  0.
<mgrwt>
<rscale>  0 0.46464124E+03</rscale>
<asrwt>0</asrwt>
<pdfrwt beam="1">  1        2 0.28662920E+00 0.46464124E+03</pdfrwt>
<pdfrwt beam="2">  1       -2 0.38428994E-02 0.46464124E+03</pdfrwt>
<totfact> 0.25425471E+03</totfact>
</mgrwt>
</event>
<event>
 4    1  0.1383574E-004  0.5360897E+03  0.7818608E-02  0.1004766E+00
         -2   -1    0    0    0  501 -0.00000000000E+00  0.00000000000E+00  0.65278287232E+02  0.65278287282E+02  0.25500000000E-02 0. -1.
          2   -1    0    0  501    0  0.00000000000E+00 -0.00000000000E+00 -0.11006422212E+04  0.11006422212E+04  0.25500000000E-02 0.  1.
    5000001    1    1    2    0    0  0.20223762740E+03  0.61710101086E+02 -0.28946821969E+03  0.38030125523E+03  0.12700000000E+03 0.  0.
   -5000001    1    1    2    0    0 -0.20223762740E+03 -0.61710101086E+02 -0.74589571425E+03  0.78561925323E+03  0.12700000000E+03 0.  0.
<mgrwt>
<rscale>  0 0.53608969E+03</rscale>
<asrwt>0</asrwt>
<pdfrwt beam="1">  1        2 0.15723459E+00 0.53608969E+03</pdfrwt>
<pdfrwt beam="2">  1       -2 0.93254703E-02 0.53608969E+03</pdfrwt>
<totfact> 0.18866135E+03</totfact>
</mgrwt>
</event>
<event>
 4    1  0.1383574E-004  0.3158766E+03  0.7818608E-02  0.1077563E+00
         -2   -1    0    0    0  501 -0.00000000000E+00  0.00000000000E+00  0.70735584027E+02  0.70735584073E+02  0.25500000000E-02 0. -1.
          2   -1    0    0  501    0  0.00000000000E+00 -0.00000000000E+00 -0.35264446591E+03  0.35264446592E+03  0.25500000000E-02 0.  1.
    5000001    1    1    2    0    0 -0.74053803181E+02  0.40505260036E+02 -0.85839664851E+02  0.17499168528E+03  0.12700000000E+03 0.  0.
   -5000001    1    1    2    0    0  0.74053803181E+02 -0.40505260036E+02 -0.19606921703E+03  0.24838836471E+03  0.12700000000E+03 0.  0.
<mgrwt>
<rscale>  0 0.31587664E+03</rscale>
<asrwt>0</asrwt>
<pdfrwt beam="1">  1        2 0.50377780E-01 0.31587664E+03</pdfrwt>
<pdfrwt beam="2">  1       -2 0.10105084E-01 0.31587664E+03</pdfrwt>
<totfact> 0.64833713E+03</totfact>
</mgrwt>
</event>
<event>
 4    1  0.1383574E-004  0.5974932E+03  0.7818608E-02  0.9910621E-01
          2   -1    0    0  501    0  0.00000000000E+00  0.00000000000E+00  0.16578742751E+04  0.16578742751E+04  0.25500000000E-02 0.  1.
         -2   -1    0    0    0  501 -0.00000000000E+00 -0.00000000000E+00 -0.53833707558E+02  0.53833707619E+02  0.25500000000E-02 0. -1.
    5000001    1    1    2    0    0  0.22743074615E+03 -0.14369273043E+03  0.72365963761E+03  0.78242227485E+03  0.12700000000E+03 0.  0.
   -5000001    1    1    2    0    0 -0.22743074615E+03  0.14369273043E+03  0.88038092991E+03  0.92928570785E+03  0.12700000000E+03 0.  0.
<mgrwt>
<rscale>  0 0.59749316E+03</rscale>
<asrwt>0</asrwt>
<pdfrwt beam="1">  1        2 0.23683917E+00 0.59749316E+03</pdfrwt>
<pdfrwt beam="2">  1       -2 0.76905300E-02 0.59749316E+03</pdfrwt>
<totfact> 0.12877243E+03</totfact>
</mgrwt>
</event>
<event>
 4    1  0.1383574E-004  0.6347529E+03  0.7818608E-02  0.9835817E-01
          2   -1    0    0  501    0  0.00000000000E+00  0.00000000000E+00  0.98598051835E+03  0.98598051835E+03  0.25500000000E-02 0.  1.
         -2   -1    0    0    0  501 -0.00000000000E+00 -0.00000000000E+00 -0.10216005192E+03  0.10216005195E+03  0.25500000000E-02 0. -1.
    5000001    1    1    2    0    0  0.22837889709E+03 -0.17810898354E+03  0.48787996886E+03  0.58140828569E+03  0.12700000000E+03 0.  0.
   -5000001    1    1    2    0    0 -0.22837889709E+03  0.17810898354E+03  0.39594049756E+03  0.50673228461E+03  0.12700000000E+03 0.  0.
<mgrwt>
<rscale>  0 0.63475293E+03</rscale>
<asrwt>0</asrwt>
<pdfrwt beam="1">  1        2 0.14085436E+00 0.63475293E+03</pdfrwt>
<pdfrwt beam="2">  1       -2 0.14594293E-01 0.63475293E+03</pdfrwt>
<totfact> 0.10563280E+03</totfact>
</mgrwt>
</event>
<event>
 4    1  0.1383574E-004  0.3577866E+03  0.7818608E-02  0.1059464E+00
          2   -1    0    0  501    0  0.00000000000E+00  0.00000000000E+00  0.34729026099E+04  0.34729026099E+04  0.25500000000E-02 0.  1.
         -2   -1    0    0    0  501 -0.00000000000E+00 -0.00000000000E+00 -0.92150031276E+01  0.92150034804E+01  0.25500000000E-02 0. -1.
    5000001    1    1    2    0    0  0.68530554743E+02 -0.99013074829E+02  0.20925706591E+04  0.20998764224E+04  0.12700000000E+03 0.  0.
   -5000001    1    1    2    0    0 -0.68530554743E+02  0.99013074829E+02  0.13711169477E+04  0.13822411910E+04  0.12700000000E+03 0.  0.
<mgrwt>
<rscale>  0 0.35778658E+03</rscale>
<asrwt>0</asrwt>
<pdfrwt beam="1">  1        2 0.49612922E+00 0.35778658E+03</pdfrwt>
<pdfrwt beam="2">  1       -2 0.13164283E-02 0.35778658E+03</pdfrwt>
<totfact> 0.21520031E+03</totfact>
</mgrwt>
</event>
<event>
 4    1  0.1383574E-004  0.5618127E+03  0.7818608E-02  0.9987962E-01
         -2   -1    0    0    0  501 -0.00000000000E+00  0.00000000000E+00  0.91990012911E+02  0.91990012946E+02  0.25500000000E-02 0. -1.
          2   -1    0    0  501    0  0.00000000000E+00 -0.00000000000E+00 -0.85779273234E+03  0.85779273234E+03  0.25500000000E-02 0.  1.
    5000001    1    1    2    0    0  0.48948253551E+02  0.18724475181E+03 -0.65192406109E+03  0.69180236342E+03  0.12700000000E+03 0.  0.
   -5000001    1    1    2    0    0 -0.48948253551E+02 -0.18724475181E+03 -0.11387865834E+03  0.25798038187E+03  0.12700000000E+03 0.  0.
<mgrwt>
<rscale>  0 0.56181265E+03</rscale>
<asrwt>0</asrwt>
<pdfrwt beam="1">  1        2 0.12254181E+00 0.56181265E+03</pdfrwt>
<pdfrwt beam="2">  1       -2 0.13141431E-01 0.56181265E+03</pdfrwt>
<totfact> 0.15209695E+03</totfact>
</mgrwt>
</event>
<event>
 4    1  0.1383574E-004  0.6524639E+03  0.7818608E-02  0.9802167E-01
         -2   -1    0    0    0  501 -0.00000000000E+00  0.00000000000E+00  0.15041502572E+03  0.15041502574E+03  0.25500000000E-02 0. -1.
          2   -1    0    0  501    0  0.00000000000E+00 -0.00000000000E+00 -0.70755754652E+03  0.70755754652E+03  0.25500000000E-02 0.  1.
    5000001    1    1    2    0    0  0.18031361468E+03  0.23517377964E+03 -0.34403765298E+03  0.47149826398E+03  0.12700000000E+03 0.  0.
   -5000001    1    1    2    0    0 -0.18031361468E+03 -0.23517377964E+03 -0.21310486782E+03  0.38647430828E+03  0.12700000000E+03 0.  0.
<mgrwt>
<rscale>  0 0.65246390E+03</rscale>
<asrwt>0</asrwt>
<pdfrwt beam="1">  1        2 0.10107965E+00 0.65246390E+03</pdfrwt>
<pdfrwt beam="2">  1       -2 0.21487861E-01 0.65246390E+03</pdfrwt>
<totfact> 0.83753433E+02</totfact>
</mgrwt>
</event>
<event>
 4    1  0.1383574E-004  0.5309013E+03  0.7818608E-02  0.1006014E+00
          2   -1    0    0  501    0  0.00000000000E+00  0.00000000000E+00  0.10621592354E+03  0.10621592357E+03  0.25500000000E-02 0.  1.
         -2   -1    0    0    0  501 -0.00000000000E+00 -0.00000000000E+00 -0.66340370046E+03  0.66340370047E+03  0.25500000000E-02 0. -1.
    5000001    1    1    2    0    0  0.44120406813E+02  0.17713208675E+03 -0.48873101722E+03  0.53694449773E+03  0.12700000000E+03 0.  0.
   -5000001    1    1    2    0    0 -0.44120406813E+02 -0.17713208675E+03 -0.68456759699E+02  0.23267512630E+03  0.12700000000E+03 0.  0.
<mgrwt>
<rscale>  0 0.53090126E+03</rscale>
<asrwt>0</asrwt>
<pdfrwt beam="1">  1        2 0.15173704E-01 0.53090126E+03</pdfrwt>
<pdfrwt beam="2">  1       -2 0.94771955E-01 0.53090126E+03</pdfrwt>
<totfact> 0.37459460E+02</totfact>
</mgrwt>
</event>
<event>
 4    1  0.1383574E-004  0.2902567E+03  0.7818608E-02  0.1090215E+00
         -2   -1    0    0    0  501 -0.00000000000E+00  0.00000000000E+00  0.72158223846E+02  0.72158223891E+02  0.25500000000E-02 0. -1.
          2   -1    0    0  501    0  0.00000000000E+00 -0.00000000000E+00 -0.29188957594E+03  0.29188957595E+03  0.25500000000E-02 0.  1.
    5000001    1    1    2    0    0  0.44418761417E+02  0.48049577475E+02 -0.14187784633E+03  0.20134575123E+03  0.12700000000E+03 0.  0.
   -5000001    1    1    2    0    0 -0.44418761417E+02 -0.48049577475E+02 -0.77853505767E+02  0.16270204861E+03  0.12700000000E+03 0.  0.
<mgrwt>
<rscale>  0 0.29025667E+03</rscale>
<asrwt>0</asrwt>
<pdfrwt beam="1">  1        2 0.41698510E-01 0.29025667E+03</pdfrwt>
<pdfrwt beam="2">  1       -2 0.10308318E-01 0.29025667E+03</pdfrwt>
<totfact> 0.76799192E+03</totfact>
</mgrwt>
</event>
<event>
 4    1  0.1383574E-004  0.4056916E+03  0.7818608E-02  0.1041827E+00
          2   -1    0    0  501    0  0.00000000000E+00  0.00000000000E+00  0.68528413236E+03  0.68528413237E+03  0.25500000000E-02 0. -1.
         -2   -1    0    0    0  501 -0.00000000000E+00 -0.00000000000E+00 -0.60042846425E+02  0.60042846479E+02  0.25500000000E-02 0.  1.
    5000001    1    1    2    0    0  0.22768488359E+02 -0.15045787466E+03  0.39188440353E+03  0.43915642070E+03  0.12700000000E+03 0.  0.
   -5000001    1    1    2    0    0 -0.22768488359E+02  0.15045787466E+03  0.23335688240E+03  0.30617055815E+03  0.12700000000E+03 0.  0.
<mgrwt>
<rscale>  0 0.40569156E+03</rscale>
<asrwt>0</asrwt>
<pdfrwt beam="1">  1        2 0.97897730E-01 0.40569156E+03</pdfrwt>
<pdfrwt beam="2">  1       -2 0.85775498E-02 0.40569156E+03</pdfrwt>
<totfact> 0.40148679E+03</totfact>
</mgrwt>
</event>
<event>
 4    1  0.1383574E-004  0.5261054E+03  0.7818608E-02  0.1007181E+00
         -2   -1    0    0    0  501 -0.00000000000E+00  0.00000000000E+00  0.54545635761E+02  0.54545635821E+02  0.25500000000E-02 0. -1.
          2   -1    0    0  501    0  0.00000000000E+00 -0.00000000000E+00 -0.12686024206E+04  0.12686024206E+04  0.25500000000E-02 0.  1.
    5000001    1    1    2    0    0  0.18647254104E+03 -0.55665710412E+02 -0.29699015405E+03  0.37709790702E+03  0.12700000000E+03 0.  0.
   -5000001    1    1    2    0    0 -0.18647254104E+03  0.55665710412E+02 -0.91706663076E+03  0.94605014938E+03  0.12700000000E+03 0.  0.
<mgrwt>
<rscale>  0 0.52610541E+03</rscale>
<asrwt>0</asrwt>
<pdfrwt beam="1">  1        2 0.18122890E+00 0.52610541E+03</pdfrwt>
<pdfrwt beam="2">  1       -2 0.77922344E-02 0.52610541E+03</pdfrwt>
<totfact> 0.20231183E+03</totfact>
</mgrwt>
</event>
<event>
 4    1  0.1383574E-004  0.6302344E+03  0.7818608E-02  0.9844592E-01
          2   -1    0    0  501    0  0.00000000000E+00  0.00000000000E+00  0.57599678709E+03  0.57599678709E+03  0.25500000000E-02 0.  1.
         -2   -1    0    0    0  501 -0.00000000000E+00 -0.00000000000E+00 -0.17239477473E+03  0.17239477474E+03  0.25500000000E-02 0. -1.
    5000001    1    1    2    0    0  0.51584093699E+02 -0.65691798854E+02  0.52958352147E+03  0.55096645757E+03  0.12700000000E+03 0.  0.
   -5000001    1    1    2    0    0 -0.51584093699E+02  0.65691798854E+02 -0.12598150910E+03  0.19742510427E+03  0.12700000000E+03 0.  0.
<mgrwt>
<rscale>  0 0.63023436E+03</rscale>
<asrwt>0</asrwt>
<pdfrwt beam="1">  1        2 0.82285256E-01 0.63023436E+03</pdfrwt>
<pdfrwt beam="2">  1       -2 0.24627825E-01 0.63023436E+03</pdfrwt>
<totfact> 0.84126162E+02</totfact>
</mgrwt>
</event>
<event>
 4    1  0.1383574E-004  0.7941924E+03  0.7818608E-02  0.9568462E-01
          2   -1    0    0  501    0  0.00000000000E+00  0.00000000000E+00  0.10446801973E+04  0.10446801973E+04  0.25500000000E-02 0.  1.
         -2   -1    0    0    0  501 -0.00000000000E+00 -0.00000000000E+00 -0.15094131393E+03  0.15094131395E+03  0.25500000000E-02 0. -1.
    5000001    1    1    2    0    0  0.34739753736E+03 -0.22045661035E+02  0.66181425788E+03  0.75848412776E+03  0.12700000000E+03 0.  0.
   -5000001    1    1    2    0    0 -0.34739753736E+03  0.22045661035E+02  0.23192462547E+03  0.43713738348E+03  0.12700000000E+03 0.  0.
<mgrwt>
<rscale>  0 0.79419242E+03</rscale>
<asrwt>0</asrwt>
<pdfrwt beam="1">  1        2 0.14924002E+00 0.79419242E+03</pdfrwt>
<pdfrwt beam="2">  1       -2 0.21563046E-01 0.79419242E+03</pdfrwt>
<totfact> 0.49411073E+02</totfact>
</mgrwt>
</event>
<event>
 4    1  0.1383574E-004  0.2961382E+03  0.7818608E-02  0.1087187E+00
          2   -1    0    0  501    0  0.00000000000E+00  0.00000000000E+00  0.30831263829E+04  0.30831263829E+04  0.25500000000E-02 0. -1.
         -2   -1    0    0    0  501 -0.00000000000E+00 -0.00000000000E+00 -0.71111128715E+01  0.71111133287E+01  0.25500000000E-02 0.  1.
    5000001    1    1    2    0    0 -0.14546670246E+02 -0.69182452554E+02  0.12432930018E+04  0.12517604825E+04  0.12700000000E+03 0.  0.
   -5000001    1    1    2    0    0  0.14546670246E+02  0.69182452554E+02  0.18327222682E+04  0.18384770137E+04  0.12700000000E+03 0.  0.
<mgrwt>
<rscale>  0 0.29613821E+03</rscale>
<asrwt>0</asrwt>
<pdfrwt beam="1">  1        2 0.44044513E+00 0.29613821E+03</pdfrwt>
<pdfrwt beam="2">  1       -2 0.10158767E-02 0.29613821E+03</pdfrwt>
<totfact> 0.52189523E+03</totfact>
</mgrwt>
</event>
<event>
 4    1  0.1383574E-004  0.5592646E+03  0.7818608E-02  0.9993720E-01
         -2   -1    0    0    0  501 -0.00000000000E+00  0.00000000000E+00  0.32894108583E+03  0.32894108584E+03  0.25500000000E-02 0. -1.
          2   -1    0    0  501    0  0.00000000000E+00 -0.00000000000E+00 -0.23771493720E+03  0.23771493722E+03  0.25500000000E-02 0.  1.
    5000001    1    1    2    0    0 -0.20007344862E+03 -0.53943655697E+02  0.18573730252E+03  0.30588665936E+03  0.12700000000E+03 0.  0.
   -5000001    1    1    2    0    0  0.20007344862E+03  0.53943655697E+02 -0.94511153891E+02  0.26076936369E+03  0.12700000000E+03 0.  0.
<mgrwt>
<rscale>  0 0.55926455E+03</rscale>
<asrwt>0</asrwt>
<pdfrwt beam="1">  1        2 0.33959276E-01 0.55926455E+03</pdfrwt>
<pdfrwt beam="2">  1       -2 0.46991584E-01 0.55926455E+03</pdfrwt>
<totfact> 0.66821292E+02</totfact>
</mgrwt>
</event>
<event>
 4    1  0.1383574E-004  0.4593078E+03  0.7818608E-02  0.1024982E+00
          2   -1    0    0  501    0  0.00000000000E+00  0.00000000000E+00  0.37477827860E+03  0.37477827861E+03  0.25500000000E-02 0.  1.
         -2   -1    0    0    0  501 -0.00000000000E+00 -0.00000000000E+00 -0.14072561251E+03  0.14072561254E+03  0.25500000000E-02 0. -1.
    5000001    1    1    2    0    0 -0.14367961321E+03  0.39425519059E+02  0.25177234234E+03  0.31893026695E+03  0.12700000000E+03 0.  0.
   -5000001    1    1    2    0    0  0.14367961321E+03 -0.39425519059E+02 -0.17719676253E+02  0.19657362420E+03  0.12700000000E+03 0.  0.
<mgrwt>
<rscale>  0 0.45930775E+03</rscale>
<asrwt>0</asrwt>
<pdfrwt beam="1">  1        2 0.53539754E-01 0.45930775E+03</pdfrwt>
<pdfrwt beam="2">  1       -2 0.20103659E-01 0.45930775E+03</pdfrwt>
<totfact> 0.19528857E+03</totfact>
</mgrwt>
</event>
<event>
 4    1  0.1383574E-004  0.3143791E+03  0.7818608E-02  0.1078266E+00
          2   -1    0    0  501    0  0.00000000000E+00  0.00000000000E+00  0.24903049456E+04  0.24903049456E+04  0.25500000000E-02 0.  1.
         -2   -1    0    0    0  501 -0.00000000000E+00 -0.00000000000E+00 -0.99218968139E+01  0.99218971416E+01  0.25500000000E-02 0. -1.
    5000001    1    1    2    0    0 -0.21108184938E+02  0.89897440039E+02  0.12977850109E+04  0.13072498000E+04  0.12700000000E+03 0.  0.
   -5000001    1    1    2    0    0  0.21108184938E+02 -0.89897440039E+02  0.11825980379E+04  0.11929770428E+04  0.12700000000E+03 0.  0.
<mgrwt>
<rscale>  0 0.31437906E+03</rscale>
<asrwt>0</asrwt>
<pdfrwt beam="1">  1        2 0.35575780E+00 0.31437906E+03</pdfrwt>
<pdfrwt beam="2">  1       -2 0.14174141E-02 0.31437906E+03</pdfrwt>
<totfact> 0.64997076E+03</totfact>
</mgrwt>
</event>
<event>
 4    1  0.1383574E-004  0.1029107E+04  0.7818608E-02  0.9277185E-01
         -2   -1    0    0    0  501 -0.00000000000E+00  0.00000000000E+00  0.33854442631E+03  0.33854442632E+03  0.25500000000E-02 0. -1.
          2   -1    0    0  501    0  0.00000000000E+00 -0.00000000000E+00 -0.78206903981E+03  0.78206903981E+03  0.25500000000E-02 0.  1.
    5000001    1    1    2    0    0  0.30741842517E+03  0.37075415560E+03 -0.36236099443E+03  0.61595391249E+03  0.12700000000E+03 0.  0.
   -5000001    1    1    2    0    0 -0.30741842517E+03 -0.37075415560E+03 -0.81163619070E+02  0.50465955364E+03  0.12700000000E+03 0.  0.
<mgrwt>
<rscale>  0 0.10291066E+04</rscale>
<asrwt>0</asrwt>
<pdfrwt beam="1">  1        2 0.11172415E+00 0.10291066E+04</pdfrwt>
<pdfrwt beam="2">  1       -2 0.48363490E-01 0.10291066E+04</pdfrwt>
<totfact> 0.15793129E+02</totfact>
</mgrwt>
</event>
<event>
 4    1  0.1383574E-004  0.3924187E+03  0.7818608E-02  0.1046437E+00
          2   -1    0    0  501    0  0.00000000000E+00  0.00000000000E+00  0.40508368364E+03  0.40508368365E+03  0.25500000000E-02 0.  1.
         -2   -1    0    0    0  501 -0.00000000000E+00 -0.00000000000E+00 -0.95037428444E+02  0.95037428478E+02  0.25500000000E-02 0. -1.
    5000001    1    1    2    0    0  0.87389932363E+02  0.12071412955E+03  0.17115447482E+03  0.26006106129E+03  0.12700000000E+03 0.  0.
   -5000001    1    1    2    0    0 -0.87389932363E+02 -0.12071412955E+03  0.13889178038E+03  0.24006005084E+03  0.12700000000E+03 0.  0.
<mgrwt>
<rscale>  0 0.39241871E+03</rscale>
<asrwt>0</asrwt>
<pdfrwt beam="1">  1        2 0.57869099E-01 0.39241871E+03</pdfrwt>
<pdfrwt beam="2">  1       -2 0.13576775E-01 0.39241871E+03</pdfrwt>
<totfact> 0.34721200E+03</totfact>
</mgrwt>
</event>
<event>
 4    1  0.1383574E-004  0.3640627E+03  0.7818608E-02  0.1056987E+00
         -2   -1    0    0    0  501 -0.00000000000E+00  0.00000000000E+00  0.13009121612E+02  0.13009121862E+02  0.25500000000E-02 0. -1.
          2   -1    0    0  501    0  0.00000000000E+00 -0.00000000000E+00 -0.25470902804E+04  0.25470902804E+04  0.25500000000E-02 0.  1.
    5000001    1    1    2    0    0  0.53820160612E+02  0.37684945394E+02 -0.47489432694E+03  0.49595401658E+03  0.12700000000E+03 0.  0.
   -5000001    1    1    2    0    0 -0.53820160612E+02 -0.37684945394E+02 -0.20591868319E+04  0.20641453857E+04  0.12700000000E+03 0.  0.
<mgrwt>
<rscale>  0 0.36406267E+03</rscale>
<asrwt>0</asrwt>
<pdfrwt beam="1">  1        2 0.36386972E+00 0.36406267E+03</pdfrwt>
<pdfrwt beam="2">  1       -2 0.18584476E-02 0.36406267E+03</pdfrwt>
<totfact> 0.40768690E+03</totfact>
</mgrwt>
</event>
<event>
 4    1  0.1383574E-004  0.5179431E+03  0.7818608E-02  0.1009199E+00
         -2   -1    0    0    0  501 -0.00000000000E+00  0.00000000000E+00  0.19137848280E+02  0.19137848449E+02  0.25500000000E-02 0.  1.
          2   -1    0    0  501    0  0.00000000000E+00 -0.00000000000E+00 -0.35043778679E+04  0.35043778679E+04  0.25500000000E-02 0. -1.
    5000001    1    1    2    0    0 -0.14335767581E+02 -0.14854019882E+03 -0.28944528789E+04  0.29010784500E+04  0.12700000000E+03 0.  0.
   -5000001    1    1    2    0    0  0.14335767581E+02  0.14854019882E+03 -0.59078714072E+03  0.62243726635E+03  0.12700000000E+03 0.  0.
<mgrwt>
<rscale>  0 0.51794306E+03</rscale>
<asrwt>0</asrwt>
<pdfrwt beam="1">  1        2 0.50062500E+00 0.51794306E+03</pdfrwt>
<pdfrwt beam="2">  1       -2 0.27339806E-02 0.51794306E+03</pdfrwt>
<totfact> 0.68154801E+02</totfact>
</mgrwt>
</event>
<event>
 4    1  0.1383574E-004  0.7064591E+03  0.7818608E-02  0.9706250E-01
         -2   -1    0    0    0  501 -0.00000000000E+00  0.00000000000E+00  0.86001221131E+02  0.86001221168E+02  0.25500000000E-02 0. -1.
          2   -1    0    0  501    0  0.00000000000E+00 -0.00000000000E+00 -0.14508063152E+04  0.14508063152E+04  0.25500000000E-02 0.  1.
    5000001    1    1    2    0    0 -0.63090896213E+02 -0.31392418789E+03 -0.51231645024E+03  0.61735403304E+03  0.12700000000E+03 0.  0.
   -5000001    1    1    2    0    0  0.63090896213E+02  0.31392418789E+03 -0.85248864385E+03  0.91945350335E+03  0.12700000000E+03 0.  0.
<mgrwt>
<rscale>  0 0.70645910E+03</rscale>
<asrwt>0</asrwt>
<pdfrwt beam="1">  1        2 0.20725803E+00 0.70645910E+03</pdfrwt>
<pdfrwt beam="2">  1       -2 0.12285890E-01 0.70645910E+03</pdfrwt>
<totfact> 0.76826173E+02</totfact>
</mgrwt>
</event>
<event>
 4    1  0.1383574E-004  0.3988687E+03  0.7818608E-02  0.1044172E+00
         -2   -1    0    0    0  501 -0.00000000000E+00  0.00000000000E+00  0.15298464935E+02  0.15298465147E+02  0.25500000000E-02 0. -1.
          2   -1    0    0  501    0  0.00000000000E+00 -0.00000000000E+00 -0.25998722174E+04  0.25998722174E+04  0.25500000000E-02 0.  1.
    5000001    1    1    2    0    0 -0.11651296705E+03 -0.95097311805E+02 -0.10822459632E+04  0.11000018614E+04  0.12700000000E+03 0.  0.
   -5000001    1    1    2    0    0  0.11651296705E+03  0.95097311805E+02 -0.15023277893E+04  0.15151688212E+04  0.12700000000E+03 0.  0.
<mgrwt>
<rscale>  0 0.39886867E+03</rscale>
<asrwt>0</asrwt>
<pdfrwt beam="1">  1        2 0.37141003E+00 0.39886867E+03</pdfrwt>
<pdfrwt beam="2">  1       -2 0.21854967E-02 0.39886867E+03</pdfrwt>
<totfact> 0.30071032E+03</totfact>
</mgrwt>
</event>
<event>
 4    1  0.1383574E-004  0.5922509E+03  0.7818608E-02  0.9921615E-01
         -2   -1    0    0    0  501 -0.00000000000E+00  0.00000000000E+00  0.11474031941E+03  0.11474031944E+03  0.25500000000E-02 0. -1.
          2   -1    0    0  501    0  0.00000000000E+00 -0.00000000000E+00 -0.76424981977E+03  0.76424981978E+03  0.25500000000E-02 0.  1.
    5000001    1    1    2    0    0  0.58303481878E+01  0.76268242441E+02  0.55693389155E+02  0.15837168737E+03  0.12700000000E+03 0.  0.
   -5000001    1    1    2    0    0 -0.58303481878E+01 -0.76268242441E+02 -0.70520288951E+03  0.72061845185E+03  0.12700000000E+03 0.  0.
<mgrwt>
<rscale>  0 0.59225085E+03</rscale>
<asrwt>0</asrwt>
<pdfrwt beam="1">  1        2 0.10917854E+00 0.59225085E+03</pdfrwt>
<pdfrwt beam="2">  1       -2 0.16391475E-01 0.59225085E+03</pdfrwt>
<totfact> 0.12166207E+03</totfact>
</mgrwt>
</event>
<event>
 4    1  0.1383574E-004  0.4613476E+03  0.7818608E-02  0.1024391E+00
         -2   -1    0    0    0  501 -0.00000000000E+00  0.00000000000E+00  0.20560457744E+02  0.20560457902E+02  0.25500000000E-02 0. -1.
          2   -1    0    0  501    0  0.00000000000E+00 -0.00000000000E+00 -0.25879974380E+04  0.25879974380E+04  0.25500000000E-02 0.  1.
    5000001    1    1    2    0    0 -0.16357270815E+03  0.10056144965E+03 -0.12012413372E+04  0.12231019525E+04  0.12700000000E+03 0.  0.
   -5000001    1    1    2    0    0  0.16357270815E+03 -0.10056144965E+03 -0.13661956431E+04  0.13854559434E+04  0.12700000000E+03 0.  0.
<mgrwt>
<rscale>  0 0.46134764E+03</rscale>
<asrwt>0</asrwt>
<pdfrwt beam="1">  1        2 0.36971371E+00 0.46134764E+03</pdfrwt>
<pdfrwt beam="2">  1       -2 0.29372099E-02 0.46134764E+03</pdfrwt>
<totfact> 0.19499737E+03</totfact>
</mgrwt>
</event>
<event>
 4    1  0.1383574E-004  0.6461271E+03  0.7818608E-02  0.9814074E-01
          2   -1    0    0  501    0  0.00000000000E+00  0.00000000000E+00  0.22151624224E+04  0.22151624224E+04  0.25500000000E-02 0.  1.
         -2   -1    0    0    0  501 -0.00000000000E+00 -0.00000000000E+00 -0.47116215295E+02  0.47116215364E+02  0.25500000000E-02 0. -1.
    5000001    1    1    2    0    0  0.24815888848E+03  0.16044249942E+03  0.97802937677E+03  0.10295606303E+04  0.12700000000E+03 0.  0.
   -5000001    1    1    2    0    0 -0.24815888848E+03 -0.16044249942E+03  0.11900168303E+04  0.12327180075E+04  0.12700000000E+03 0.  0.
<mgrwt>
<rscale>  0 0.64612714E+03</rscale>
<asrwt>0</asrwt>
<pdfrwt beam="1">  1        2 0.31645173E+00 0.64612714E+03</pdfrwt>
<pdfrwt beam="2">  1       -2 0.67308889E-02 0.64612714E+03</pdfrwt>
<totfact> 0.83006421E+02</totfact>
</mgrwt>
</event>
<event>
 4    1  0.1383574E-004  0.3465996E+03  0.7818608E-02  0.1064019E+00
          2   -1    0    0  501    0  0.00000000000E+00  0.00000000000E+00  0.47382887755E+03  0.47382887756E+03  0.25500000000E-02 0.  1.
         -2   -1    0    0    0  501 -0.00000000000E+00 -0.00000000000E+00 -0.63383272836E+02  0.63383272887E+02  0.25500000000E-02 0. -1.
    5000001    1    1    2    0    0  0.32015280811E+02  0.11242757986E+03  0.22917874128E+03  0.28690910472E+03  0.12700000000E+03 0.  0.
   -5000001    1    1    2    0    0 -0.32015280811E+02 -0.11242757986E+03  0.18126686344E+03  0.25030304573E+03  0.12700000000E+03 0.  0.
<mgrwt>
<rscale>  0 0.34659963E+03</rscale>
<asrwt>0</asrwt>
<pdfrwt beam="1">  1        2 0.67689840E-01 0.34659963E+03</pdfrwt>
<pdfrwt beam="2">  1       -2 0.90547532E-02 0.34659963E+03</pdfrwt>
<totfact> 0.56072650E+03</totfact>
</mgrwt>
</event>
<event>
 4    1  0.1383574E-004  0.3243867E+03  0.7818608E-02  0.1073648E+00
         -2   -1    0    0    0  501 -0.00000000000E+00  0.00000000000E+00  0.29326960475E+03  0.29326960476E+03  0.25500000000E-02 0. -1.
          2   -1    0    0  501    0  0.00000000000E+00 -0.00000000000E+00 -0.89701378172E+02  0.89701378208E+02  0.25500000000E-02 0.  1.
    5000001    1    1    2    0    0  0.25157040108E+01 -0.84765131244E+02  0.37268545407E+02  0.15719224128E+03  0.12700000000E+03 0.  0.
   -5000001    1    1    2    0    0 -0.25157040108E+01  0.84765131244E+02  0.16629968117E+03  0.22577874169E+03  0.12700000000E+03 0.  0.
<mgrwt>
<rscale>  0 0.32438673E+03</rscale>
<asrwt>0</asrwt>
<pdfrwt beam="1">  1        2 0.12814483E-01 0.32438673E+03</pdfrwt>
<pdfrwt beam="2">  1       -2 0.41895657E-01 0.32438673E+03</pdfrwt>
<totfact> 0.25755179E+03</totfact>
</mgrwt>
</event>
<event>
 4    1  0.1383574E-004  0.2829091E+03  0.7818608E-02  0.1094111E+00
          2   -1    0    0  501    0  0.00000000000E+00  0.00000000000E+00  0.19849536753E+03  0.19849536755E+03  0.25500000000E-02 0.  1.
         -2   -1    0    0    0  501 -0.00000000000E+00 -0.00000000000E+00 -0.10080534260E+03  0.10080534263E+03  0.25500000000E-02 0. -1.
    5000001    1    1    2    0    0  0.81919729643E+00  0.36711652217E+02 -0.43891800171E+01  0.13227502181E+03  0.12700000000E+03 0.  0.
   -5000001    1    1    2    0    0 -0.81919729643E+00 -0.36711652217E+02  0.10207920495E+03  0.16702568837E+03  0.12700000000E+03 0.  0.
<mgrwt>
<rscale>  0 0.28290913E+03</rscale>
<asrwt>0</asrwt>
<pdfrwt beam="1">  1        2 0.28356481E-01 0.28290913E+03</pdfrwt>
<pdfrwt beam="2">  1       -2 0.14400763E-01 0.28290913E+03</pdfrwt>
<totfact> 0.67956622E+03</totfact>
</mgrwt>
</event>
<event>
 4    1  0.1383574E-004  0.4700912E+03  0.7818608E-02  0.1021894E+00
          2   -1    0    0  501    0  0.00000000000E+00  0.00000000000E+00  0.32052170469E+03  0.32052170470E+03  0.25500000000E-02 0.  1.
         -2   -1    0    0    0  501 -0.00000000000E+00 -0.00000000000E+00 -0.17236412014E+03  0.17236412016E+03  0.25500000000E-02 0. -1.
    5000001    1    1    2    0    0 -0.59520782256E+02 -0.58111555386E+02 -0.11405943256E+03  0.18989004857E+03  0.12700000000E+03 0.  0.
   -5000001    1    1    2    0    0  0.59520782256E+02  0.58111555386E+02  0.26221701711E+03  0.30299577629E+03  0.12700000000E+03 0.  0.
<mgrwt>
<rscale>  0 0.47009123E+03</rscale>
<asrwt>0</asrwt>
<pdfrwt beam="1">  1        2 0.45788814E-01 0.47009123E+03</pdfrwt>
<pdfrwt beam="2">  1       -2 0.24623446E-01 0.47009123E+03</pdfrwt>
<totfact> 0.16236826E+03</totfact>
</mgrwt>
</event>
<event>
 4    1  0.1383574E-004  0.3849858E+03  0.7818608E-02  0.1049106E+00
         -2   -1    0    0    0  501 -0.00000000000E+00  0.00000000000E+00  0.56812214615E+02  0.56812214672E+02  0.25500000000E-02 0. -1.
          2   -1    0    0  501    0  0.00000000000E+00 -0.00000000000E+00 -0.65221035346E+03  0.65221035346E+03  0.25500000000E-02 0.  1.
    5000001    1    1    2    0    0  0.26874747883E+02  0.13564768825E+03 -0.37587783336E+03  0.42016150825E+03  0.12700000000E+03 0.  0.
   -5000001    1    1    2    0    0 -0.26874747883E+02 -0.13564768825E+03 -0.21952030548E+03  0.28886105989E+03  0.12700000000E+03 0.  0.
<mgrwt>
<rscale>  0 0.38498579E+03</rscale>
<asrwt>0</asrwt>
<pdfrwt beam="1">  1        2 0.93172903E-01 0.38498579E+03</pdfrwt>
<pdfrwt beam="2">  1       -2 0.81160310E-02 0.38498579E+03</pdfrwt>
<totfact> 0.46431791E+03</totfact>
</mgrwt>
</event>
<event>
 4    1  0.1383574E-004  0.4293817E+03  0.7818608E-02  0.1034055E+00
         -2   -1    0    0    0  501 -0.00000000000E+00  0.00000000000E+00  0.93208833200E+02  0.93208833235E+02  0.25500000000E-02 0. -1.
          2   -1    0    0  501    0  0.00000000000E+00 -0.00000000000E+00 -0.49450424164E+03  0.49450424165E+03  0.25500000000E-02 0.  1.
    5000001    1    1    2    0    0  0.19895908409E+01 -0.82078128327E+02  0.79335277141E+01  0.15143552583E+03  0.12700000000E+03 0.  0.
   -5000001    1    1    2    0    0 -0.19895908409E+01  0.82078128327E+02 -0.40922893616E+03  0.43627754906E+03  0.12700000000E+03 0.  0.
<mgrwt>
<rscale>  0 0.42938171E+03</rscale>
<asrwt>0</asrwt>
<pdfrwt beam="1">  1        2 0.70643462E-01 0.42938171E+03</pdfrwt>
<pdfrwt beam="2">  1       -2 0.13315548E-01 0.42938171E+03</pdfrwt>
<totfact> 0.28782642E+03</totfact>
</mgrwt>
</event>
<event>
 4    1  0.1383574E-004  0.5100509E+03  0.7818608E-02  0.1011188E+00
         -2   -1    0    0    0  501 -0.00000000000E+00  0.00000000000E+00  0.53398611910E+02  0.53398611971E+02  0.25500000000E-02 0. -1.
          2   -1    0    0  501    0  0.00000000000E+00 -0.00000000000E+00 -0.12179712629E+04  0.12179712629E+04  0.25500000000E-02 0.  1.
    5000001    1    1    2    0    0  0.14792780430E+02 -0.15626445614E+03 -0.97062204113E+03  0.99139979490E+03  0.12700000000E+03 0.  0.
   -5000001    1    1    2    0    0 -0.14792780430E+02  0.15626445614E+03 -0.19395060981E+03  0.27997007992E+03  0.12700000000E+03 0.  0.
<mgrwt>
<rscale>  0 0.51005088E+03</rscale>
<asrwt>0</asrwt>
<pdfrwt beam="1">  1        2 0.17399588E+00 0.51005088E+03</pdfrwt>
<pdfrwt beam="2">  1       -2 0.76283739E-02 0.51005088E+03</pdfrwt>
<totfact> 0.22314243E+03</totfact>
</mgrwt>
</event>
<event>
 4    1  0.1383574E-004  0.3939066E+03  0.7818608E-02  0.1045910E+00
         -2   -1    0    0    0  501 -0.00000000000E+00  0.00000000000E+00  0.33067496199E+03  0.33067496200E+03  0.25500000000E-02 0.  1.
          2   -1    0    0  501    0  0.00000000000E+00 -0.00000000000E+00 -0.11730736359E+03  0.11730736362E+03  0.25500000000E-02 0. -1.
    5000001    1    1    2    0    0  0.12008095699E+03  0.85298330950E+02  0.71329801749E+02  0.20715255758E+03  0.12700000000E+03 0.  0.
   -5000001    1    1    2    0    0 -0.12008095699E+03 -0.85298330950E+02  0.14203779665E+03  0.24082976803E+03  0.12700000000E+03 0.  0.
<mgrwt>
<rscale>  0 0.39390663E+03</rscale>
<asrwt>0</asrwt>
<pdfrwt beam="1">  1        2 0.16758195E-01 0.39390663E+03</pdfrwt>
<pdfrwt beam="2">  1       -2 0.47239280E-01 0.39390663E+03</pdfrwt>
<totfact> 0.14809589E+03</totfact>
</mgrwt>
</event>
<event>
 4    1  0.1383574E-004  0.5564870E+03  0.7818608E-02  0.1000003E+00
          2   -1    0    0  501    0  0.00000000000E+00  0.00000000000E+00  0.31128487715E+04  0.31128487715E+04  0.25500000000E-02 0.  1.
         -2   -1    0    0    0  501 -0.00000000000E+00 -0.00000000000E+00 -0.24870931742E+02  0.24870931873E+02  0.25500000000E-02 0. -1.
    5000001    1    1    2    0    0  0.98786040056E+02 -0.18156797910E+03  0.77573519007E+03  0.81278514865E+03  0.12700000000E+03 0.  0.
   -5000001    1    1    2    0    0 -0.98786040056E+02  0.18156797910E+03  0.23122426497E+04  0.23249345548E+04  0.12700000000E+03 0.  0.
<mgrwt>
<rscale>  0 0.55648702E+03</rscale>
<asrwt>0</asrwt>
<pdfrwt beam="1">  1        2 0.44469236E+00 0.55648702E+03</pdfrwt>
<pdfrwt beam="2">  1       -2 0.35529929E-02 0.55648702E+03</pdfrwt>
<totfact> 0.76283451E+02</totfact>
</mgrwt>
</event>
<event>
 4    1  0.1383574E-004  0.3554091E+03  0.7818608E-02  0.1060417E+00
         -2   -1    0    0    0  501 -0.00000000000E+00  0.00000000000E+00  0.54530430711E+02  0.54530430771E+02  0.25500000000E-02 0. -1.
          2   -1    0    0  501    0  0.00000000000E+00 -0.00000000000E+00 -0.57910616374E+03  0.57910616374E+03  0.25500000000E-02 0.  1.
    5000001    1    1    2    0    0 -0.79146702586E+02 -0.53922786615E+02 -0.12102637895E+03  0.19987058775E+03  0.12700000000E+03 0.  0.
   -5000001    1    1    2    0    0  0.79146702586E+02  0.53922786615E+02 -0.40354935408E+03  0.43376600676E+03  0.12700000000E+03 0.  0.
<mgrwt>
<rscale>  0 0.35540911E+03</rscale>
<asrwt>0</asrwt>
<pdfrwt beam="1">  1        2 0.82729448E-01 0.35540911E+03</pdfrwt>
<pdfrwt beam="2">  1       -2 0.77900619E-02 0.35540911E+03</pdfrwt>
<totfact> 0.56764267E+03</totfact>
</mgrwt>
</event>
<event>
 4    1  0.1383574E-004  0.3253889E+03  0.7818608E-02  0.1073196E+00
         -2   -1    0    0    0  501 -0.00000000000E+00  0.00000000000E+00  0.45111321212E+02  0.45111321284E+02  0.25500000000E-02 0. -1.
          2   -1    0    0  501    0  0.00000000000E+00 -0.00000000000E+00 -0.58675911959E+03  0.58675911960E+03  0.25500000000E-02 0.  1.
    5000001    1    1    2    0    0  0.80035033525E+02 -0.44313796509E+01 -0.39233173531E+03  0.42009336373E+03  0.12700000000E+03 0.  0.
   -5000001    1    1    2    0    0 -0.80035033525E+02  0.44313796509E+01 -0.14931606307E+03  0.21177707715E+03  0.12700000000E+03 0.  0.
<mgrwt>
<rscale>  0 0.32538887E+03</rscale>
<asrwt>0</asrwt>
<pdfrwt beam="1">  1        2 0.83822727E-01 0.32538887E+03</pdfrwt>
<pdfrwt beam="2">  1       -2 0.64444748E-02 0.32538887E+03</pdfrwt>
<totfact> 0.74965426E+03</totfact>
</mgrwt>
</event>
<event>
 4    1  0.1383574E-004  0.3532498E+03  0.7818608E-02  0.1061289E+00
         -2   -1    0    0    0  501 -0.00000000000E+00  0.00000000000E+00  0.18224766223E+02  0.18224766401E+02  0.25500000000E-02 0. -1.
          2   -1    0    0  501    0  0.00000000000E+00 -0.00000000000E+00 -0.17117565692E+04  0.17117565692E+04  0.25500000000E-02 0.  1.
    5000001    1    1    2    0    0 -0.12124307962E+03  0.55132283306E+01 -0.75685173336E+03  0.77697093018E+03  0.12700000000E+03 0.  0.
   -5000001    1    1    2    0    0  0.12124307962E+03 -0.55132283306E+01 -0.93668006961E+03  0.95301040543E+03  0.12700000000E+03 0.  0.
<mgrwt>
<rscale>  0 0.35324985E+03</rscale>
<asrwt>0</asrwt>
<pdfrwt beam="1">  1        2 0.24453655E+00 0.35324985E+03</pdfrwt>
<pdfrwt beam="2">  1       -2 0.26035391E-02 0.35324985E+03</pdfrwt>
<totfact> 0.64153089E+03</totfact>
</mgrwt>
</event>
<event>
 4    1  0.1383574E-004  0.4429418E+03  0.7818608E-02  0.1029848E+00
          2   -1    0    0  501    0  0.00000000000E+00  0.00000000000E+00  0.24747532931E+03  0.24747532932E+03  0.25500000000E-02 0.  1.
         -2   -1    0    0    0  501 -0.00000000000E+00 -0.00000000000E+00 -0.19819898859E+03  0.19819898861E+03  0.25500000000E-02 0. -1.
    5000001    1    1    2    0    0 -0.19731934975E+02  0.11210890446E+03 -0.11752252500E+03  0.20711904693E+03  0.12700000000E+03 0.  0.
   -5000001    1    1    2    0    0  0.19731934975E+02 -0.11210890446E+03  0.16679886572E+03  0.23855527100E+03  0.12700000000E+03 0.  0.
<mgrwt>
<rscale>  0 0.44294180E+03</rscale>
<asrwt>0</asrwt>
<pdfrwt beam="1">  1        2 0.35353618E-01 0.44294180E+03</pdfrwt>
<pdfrwt beam="2">  1       -2 0.28314141E-01 0.44294180E+03</pdfrwt>
<totfact> 0.16763941E+03</totfact>
</mgrwt>
</event>
<event>
 4    1  0.1383574E-004  0.5314608E+03  0.7818608E-02  0.1005878E+00
         -2   -1    0    0    0  501 -0.00000000000E+00  0.00000000000E+00  0.88053584772E+02  0.88053584809E+02  0.25500000000E-02 0. -1.
          2   -1    0    0  501    0  0.00000000000E+00 -0.00000000000E+00 -0.80192814967E+03  0.80192814967E+03  0.25500000000E-02 0.  1.
    5000001    1    1    2    0    0 -0.19910756419E+03 -0.10669835419E+03 -0.45537282460E+03  0.52394825153E+03  0.12700000000E+03 0.  0.
   -5000001    1    1    2    0    0  0.19910756419E+03  0.10669835419E+03 -0.25850174030E+03  0.36603348295E+03  0.12700000000E+03 0.  0.
<mgrwt>
<rscale>  0 0.53146081E+03</rscale>
<asrwt>0</asrwt>
<pdfrwt beam="1">  1        2 0.11456116E+00 0.53146081E+03</pdfrwt>
<pdfrwt beam="2">  1       -2 0.12579084E-01 0.53146081E+03</pdfrwt>
<totfact> 0.17839085E+03</totfact>
</mgrwt>
</event>
<event>
 4    1  0.1383574E-004  0.3530389E+03  0.7818608E-02  0.1061375E+00
         -2   -1    0    0    0  501 -0.00000000000E+00  0.00000000000E+00  0.26726032026E+02  0.26726032148E+02  0.25500000000E-02 0. -1.
          2   -1    0    0  501    0  0.00000000000E+00 -0.00000000000E+00 -0.11658715744E+04  0.11658715744E+04  0.25500000000E-02 0.  1.
    5000001    1    1    2    0    0  0.51969068427E+02  0.80321221640E+02 -0.82856107942E+03  0.84367929039E+03  0.12700000000E+03 0.  0.
   -5000001    1    1    2    0    0 -0.51969068427E+02 -0.80321221640E+02 -0.31058446297E+03  0.34891831617E+03  0.12700000000E+03 0.  0.
<mgrwt>
<rscale>  0 0.35303893E+03</rscale>
<asrwt>0</asrwt>
<pdfrwt beam="1">  1        2 0.16655305E+00 0.35303893E+03</pdfrwt>
<pdfrwt beam="2">  1       -2 0.38180053E-02 0.35303893E+03</pdfrwt>
<totfact> 0.69343400E+03</totfact>
</mgrwt>
</event>
<event>
 4    1  0.1383574E-004  0.3295149E+03  0.7818608E-02  0.1071352E+00
         -2   -1    0    0    0  501 -0.00000000000E+00  0.00000000000E+00  0.36718704600E+02  0.36718704689E+02  0.25500000000E-02 0.  1.
          2   -1    0    0  501    0  0.00000000000E+00 -0.00000000000E+00 -0.73926961119E+03  0.73926961120E+03  0.25500000000E-02 0. -1.
    5000001    1    1    2    0    0 -0.63886629713E+02  0.73091052481E+02 -0.25730712557E+03  0.30291873544E+03  0.12700000000E+03 0.  0.
   -5000001    1    1    2    0    0  0.63886629713E+02 -0.73091052481E+02 -0.44524378102E+03  0.47306958045E+03  0.12700000000E+03 0.  0.
<mgrwt>
<rscale>  0 0.32951493E+03</rscale>
<asrwt>0</asrwt>
<pdfrwt beam="1">  1        2 0.10560994E+00 0.32951493E+03</pdfrwt>
<pdfrwt beam="2">  1       -2 0.52455297E-02 0.32951493E+03</pdfrwt>
<totfact> 0.78433615E+03</totfact>
</mgrwt>
</event>
<event>
 4    1  0.1383574E-004  0.3423151E+03  0.7818608E-02  0.1065814E+00
          2   -1    0    0  501    0  0.00000000000E+00  0.00000000000E+00  0.35075427533E+03  0.35075427534E+03  0.25500000000E-02 0.  1.
         -2   -1    0    0    0  501 -0.00000000000E+00 -0.00000000000E+00 -0.83519759032E+02  0.83519759071E+02  0.25500000000E-02 0. -1.
    5000001    1    1    2    0    0  0.87028145209E+02  0.73015474947E+02  0.15410310986E+03  0.22974317424E+03  0.12700000000E+03 0.  0.
   -5000001    1    1    2    0    0 -0.87028145209E+02 -0.73015474947E+02  0.11313140643E+03  0.20453086017E+03  0.12700000000E+03 0.  0.
<mgrwt>
<rscale>  0 0.34231513E+03</rscale>
<asrwt>0</asrwt>
<pdfrwt beam="1">  1        2 0.50107754E-01 0.34231513E+03</pdfrwt>
<pdfrwt beam="2">  1       -2 0.11931394E-01 0.34231513E+03</pdfrwt>
<totfact> 0.50034468E+03</totfact>
</mgrwt>
</event>
<event>
 4    1  0.1383574E-004  0.4916858E+03  0.7818608E-02  0.1015972E+00
          2   -1    0    0  501    0  0.00000000000E+00  0.00000000000E+00  0.88523870233E+03  0.88523870234E+03  0.25500000000E-02 0.  1.
         -2   -1    0    0    0  501 -0.00000000000E+00 -0.00000000000E+00 -0.68273932666E+02  0.68273932714E+02  0.25500000000E-02 0. -1.
    5000001    1    1    2    0    0  0.15139265863E+03 -0.81968189855E+02  0.17358849870E+03  0.27550043216E+03  0.12700000000E+03 0.  0.
   -5000001    1    1    2    0    0 -0.15139265863E+03  0.81968189855E+02  0.64337627096E+03  0.67801220290E+03  0.12700000000E+03 0.  0.
<mgrwt>
<rscale>  0 0.49168578E+03</rscale>
<asrwt>0</asrwt>
<pdfrwt beam="1">  1        2 0.12646267E+00 0.49168578E+03</pdfrwt>
<pdfrwt beam="2">  1       -2 0.97534189E-02 0.49168578E+03</pdfrwt>
<totfact> 0.23756419E+03</totfact>
</mgrwt>
</event>
<event>
 4    1  0.1383574E-004  0.4792831E+03  0.7818608E-02  0.1019332E+00
         -2   -1    0    0    0  501 -0.00000000000E+00  0.00000000000E+00  0.19504914516E+02  0.19504914683E+02  0.25500000000E-02 0.  1.
          2   -1    0    0  501    0  0.00000000000E+00 -0.00000000000E+00 -0.29442870532E+04  0.29442870532E+04  0.25500000000E-02 0. -1.
    5000001    1    1    2    0    0  0.78240811008E+02 -0.86004717817E+02 -0.43170435726E+03  0.46477530923E+03  0.12700000000E+03 0.  0.
   -5000001    1    1    2    0    0 -0.78240811008E+02  0.86004717817E+02 -0.24930777814E+04  0.24990166586E+04  0.12700000000E+03 0.  0.
<mgrwt>
<rscale>  0 0.47928308E+03</rscale>
<asrwt>0</asrwt>
<pdfrwt beam="1">  1        2 0.42061215E+00 0.47928308E+03</pdfrwt>
<pdfrwt beam="2">  1       -2 0.27864182E-02 0.47928308E+03</pdfrwt>
<totfact> 0.13722190E+03</totfact>
</mgrwt>
</event>
<event>
 4    1  0.1383574E-004  0.3510009E+03  0.7818608E-02  0.1062205E+00
          2   -1    0    0  501    0  0.00000000000E+00  0.00000000000E+00  0.74826570725E+03  0.74826570725E+03  0.25500000000E-02 0.  1.
         -2   -1    0    0    0  501 -0.00000000000E+00 -0.00000000000E+00 -0.41162390317E+02  0.41162390396E+02  0.25500000000E-02 0. -1.
    5000001    1    1    2    0    0 -0.28307712055E+02 -0.83014628180E+02  0.16566753581E+03  0.22642324853E+03  0.12700000000E+03 0.  0.
   -5000001    1    1    2    0    0  0.28307712055E+02  0.83014628180E+02  0.54143578112E+03  0.56300484912E+03  0.12700000000E+03 0.  0.
<mgrwt>
<rscale>  0 0.35100088E+03</rscale>
<asrwt>0</asrwt>
<pdfrwt beam="1">  1        2 0.10689510E+00 0.35100088E+03</pdfrwt>
<pdfrwt beam="2">  1       -2 0.58803414E-02 0.35100088E+03</pdfrwt>
<totfact> 0.64949841E+03</totfact>
</mgrwt>
</event>
<event>
 4    1  0.1383574E-004  0.4302534E+03  0.7818608E-02  0.1033780E+00
         -2   -1    0    0    0  501 -0.00000000000E+00  0.00000000000E+00  0.15649145829E+03  0.15649145831E+03  0.25500000000E-02 0. -1.
          2   -1    0    0  501    0  0.00000000000E+00 -0.00000000000E+00 -0.29573174574E+03  0.29573174576E+03  0.25500000000E-02 0.  1.
    5000001    1    1    2    0    0  0.13307182775E+03  0.81531631523E+02  0.10391703320E+02  0.20147581934E+03  0.12700000000E+03 0.  0.
   -5000001    1    1    2    0    0 -0.13307182775E+03 -0.81531631523E+02 -0.14963199078E+03  0.25074738472E+03  0.12700000000E+03 0.  0.
<mgrwt>
<rscale>  0 0.43025338E+03</rscale>
<asrwt>0</asrwt>
<pdfrwt beam="1">  1        2 0.42247392E-01 0.43025338E+03</pdfrwt>
<pdfrwt beam="2">  1       -2 0.22355923E-01 0.43025338E+03</pdfrwt>
<totfact> 0.21017493E+03</totfact>
</mgrwt>
</event>
<event>
 4    1  0.1383574E-004  0.7614717E+03  0.7818608E-02  0.9617523E-01
         -2   -1    0    0    0  501 -0.00000000000E+00  0.00000000000E+00  0.15277440055E+03  0.15277440057E+03  0.25500000000E-02 0. -1.
          2   -1    0    0  501    0  0.00000000000E+00 -0.00000000000E+00 -0.94884855041E+03  0.94884855041E+03  0.25500000000E-02 0.  1.
    5000001    1    1    2    0    0  0.33849602608E+03  0.11713463449E+03 -0.43136422307E+03  0.57489492537E+03  0.12700000000E+03 0.  0.
   -5000001    1    1    2    0    0 -0.33849602608E+03 -0.11713463449E+03 -0.36470992679E+03  0.52672802562E+03  0.12700000000E+03 0.  0.
<mgrwt>
<rscale>  0 0.76147165E+03</rscale>
<asrwt>0</asrwt>
<pdfrwt beam="1">  1        2 0.13554979E+00 0.76147165E+03</pdfrwt>
<pdfrwt beam="2">  1       -2 0.21824915E-01 0.76147165E+03</pdfrwt>
<totfact> 0.55480349E+02</totfact>
</mgrwt>
</event>
<event>
 4    1  0.1383574E-004  0.2699857E+03  0.7818608E-02  0.1101288E+00
         -2   -1    0    0    0  501 -0.00000000000E+00  0.00000000000E+00  0.10555577552E+02  0.10555577860E+02  0.25500000000E-02 0. -1.
          2   -1    0    0  501    0  0.00000000000E+00 -0.00000000000E+00 -0.17263929625E+04  0.17263929625E+04  0.25500000000E-02 0.  1.
    5000001    1    1    2    0    0  0.45324266626E+02  0.57246974569E+01 -0.84088057102E+03  0.85164323283E+03  0.12700000000E+03 0.  0.
   -5000001    1    1    2    0    0 -0.45324266626E+02 -0.57246974569E+01 -0.87495681393E+03  0.88530530753E+03  0.12700000000E+03 0.  0.
<mgrwt>
<rscale>  0 0.26998574E+03</rscale>
<asrwt>0</asrwt>
<pdfrwt beam="1">  1        2 0.24662739E+00 0.26998574E+03</pdfrwt>
<pdfrwt beam="2">  1       -2 0.15079408E-02 0.26998574E+03</pdfrwt>
<totfact> 0.14069095E+04</totfact>
</mgrwt>
</event>
<event>
 4    1  0.1383574E-004  0.3353573E+03  0.7818608E-02  0.1068791E+00
         -2   -1    0    0    0  501 -0.00000000000E+00  0.00000000000E+00  0.27917123047E+02  0.27917123163E+02  0.25500000000E-02 0. -1.
          2   -1    0    0  501    0  0.00000000000E+00 -0.00000000000E+00 -0.10071285512E+04  0.10071285512E+04  0.25500000000E-02 0.  1.
    5000001    1    1    2    0    0 -0.28541627042E+02  0.73695316124E+02 -0.25574099530E+03  0.29627365859E+03  0.12700000000E+03 0.  0.
   -5000001    1    1    2    0    0  0.28541627042E+02 -0.73695316124E+02 -0.72347043284E+03  0.73877201578E+03  0.12700000000E+03 0.  0.
<mgrwt>
<rscale>  0 0.33535731E+03</rscale>
<asrwt>0</asrwt>
<pdfrwt beam="1">  1        2 0.14387548E+00 0.33535731E+03</pdfrwt>
<pdfrwt beam="2">  1       -2 0.39881611E-02 0.33535731E+03</pdfrwt>
<totfact> 0.79953268E+03</totfact>
</mgrwt>
</event>
<event>
 4    1  0.1383574E-004  0.3488857E+03  0.7818608E-02  0.1063073E+00
          2   -1    0    0  501    0  0.00000000000E+00  0.00000000000E+00  0.18223763788E+04  0.18223763788E+04  0.25500000000E-02 0.  1.
         -2   -1    0    0    0  501 -0.00000000000E+00 -0.00000000000E+00 -0.16698146256E+02  0.16698146451E+02  0.25500000000E-02 0. -1.
    5000001    1    1    2    0    0 -0.51664480759E+02  0.62046661795E+02  0.43782068620E+03  0.46296323836E+03  0.12700000000E+03 0.  0.
   -5000001    1    1    2    0    0  0.51664480759E+02 -0.62046661795E+02  0.13678575463E+04  0.13761112869E+04  0.12700000000E+03 0.  0.
<mgrwt>
<rscale>  0 0.34888570E+03</rscale>
<asrwt>0</asrwt>
<pdfrwt beam="1">  1        2 0.26033927E+00 0.34888570E+03</pdfrwt>
<pdfrwt beam="2">  1       -2 0.23854514E-02 0.34888570E+03</pdfrwt>
<totfact> 0.64412799E+03</totfact>
</mgrwt>
</event>
<event>
 4    1  0.1383574E-004  0.4267270E+03  0.7818608E-02  0.1034899E+00
          2   -1    0    0  501    0  0.00000000000E+00  0.00000000000E+00  0.97565618028E+03  0.97565618028E+03  0.25500000000E-02 0.  1.
         -2   -1    0    0    0  501 -0.00000000000E+00 -0.00000000000E+00 -0.46659864424E+02  0.46659864494E+02  0.25500000000E-02 0. -1.
    5000001    1    1    2    0    0 -0.10900234588E+03 -0.13230847422E+03  0.47124938835E+03  0.51729298253E+03  0.12700000000E+03 0.  0.
   -5000001    1    1    2    0    0  0.10900234588E+03  0.13230847422E+03  0.45774692750E+03  0.50502306224E+03  0.12700000000E+03 0.  0.
<mgrwt>
<rscale>  0 0.42672701E+03</rscale>
<asrwt>0</asrwt>
<pdfrwt beam="1">  1        2 0.13937946E+00 0.42672701E+03</pdfrwt>
<pdfrwt beam="2">  1       -2 0.66656946E-02 0.42672701E+03</pdfrwt>
<totfact> 0.38086605E+03</totfact>
</mgrwt>
</event>
<event>
 4    1  0.1383574E-004  0.2734616E+03  0.7818608E-02  0.1099315E+00
         -2   -1    0    0    0  501 -0.00000000000E+00  0.00000000000E+00  0.87438373579E+01  0.87438377297E+01  0.25500000000E-02 0. -1.
          2   -1    0    0  501    0  0.00000000000E+00 -0.00000000000E+00 -0.21381132311E+04  0.21381132311E+04  0.25500000000E-02 0.  1.
    5000001    1    1    2    0    0 -0.47955984472E+02 -0.81809317334E+01 -0.11756018224E+04  0.11834421612E+04  0.12700000000E+03 0.  0.
   -5000001    1    1    2    0    0  0.47955984472E+02  0.81809317334E+01 -0.95376757136E+03  0.96341490765E+03  0.12700000000E+03 0.  0.
<mgrwt>
<rscale>  0 0.27346162E+03</rscale>
<asrwt>0</asrwt>
<pdfrwt beam="1">  1        2 0.30544441E+00 0.27346162E+03</pdfrwt>
<pdfrwt beam="2">  1       -2 0.12491210E-02 0.27346162E+03</pdfrwt>
<totfact> 0.11659933E+04</totfact>
</mgrwt>
</event>
<event>
 4    1  0.1383574E-004  0.3224160E+03  0.7818608E-02  0.1074543E+00
          2   -1    0    0  501    0  0.00000000000E+00  0.00000000000E+00  0.28794339291E+04  0.28794339291E+04  0.25500000000E-02 0.  1.
         -2   -1    0    0    0  501 -0.00000000000E+00 -0.00000000000E+00 -0.90253934796E+01  0.90253938398E+01  0.25500000000E-02 0. -1.
    5000001    1    1    2    0    0  0.57469981215E+02 -0.52857556089E+02  0.88569298976E+03  0.89815243254E+03  0.12700000000E+03 0.  0.
   -5000001    1    1    2    0    0 -0.57469981215E+02  0.52857556089E+02  0.19847155458E+04  0.19903068904E+04  0.12700000000E+03 0.  0.
<mgrwt>
<rscale>  0 0.32241603E+03</rscale>
<asrwt>0</asrwt>
<pdfrwt beam="1">  1        2 0.41134764E+00 0.32241603E+03</pdfrwt>
<pdfrwt beam="2">  1       -2 0.12893422E-02 0.32241603E+03</pdfrwt>
<totfact> 0.47202921E+03</totfact>
</mgrwt>
</event>
<event>
 4    1  0.1383574E-004  0.5720201E+03  0.7818608E-02  0.9965218E-01
         -2   -1    0    0    0  501 -0.00000000000E+00  0.00000000000E+00  0.25767322265E+03  0.25767322266E+03  0.25500000000E-02 0. -1.
          2   -1    0    0  501    0  0.00000000000E+00 -0.00000000000E+00 -0.31746313654E+03  0.31746313655E+03  0.25500000000E-02 0.  1.
    5000001    1    1    2    0    0  0.24686904853E+03  0.42125052188E+02 -0.84540858772E+02  0.29324904765E+03  0.12700000000E+03 0.  0.
   -5000001    1    1    2    0    0 -0.24686904853E+03 -0.42125052188E+02  0.24750944881E+02  0.28188731156E+03  0.12700000000E+03 0.  0.
<mgrwt>
<rscale>  0 0.57202010E+03</rscale>
<asrwt>0</asrwt>
<pdfrwt beam="1">  1        2 0.45351876E-01 0.57202010E+03</pdfrwt>
<pdfrwt beam="2">  1       -2 0.36810461E-01 0.57202010E+03</pdfrwt>
<totfact> 0.78186849E+02</totfact>
</mgrwt>
</event>
<event>
 4    1  0.1383574E-004  0.7375878E+03  0.7818608E-02  0.9655027E-01
          2   -1    0    0  501    0  0.00000000000E+00  0.00000000000E+00  0.20277010010E+03  0.20277010012E+03  0.25500000000E-02 0.  1.
         -2   -1    0    0    0  501 -0.00000000000E+00 -0.00000000000E+00 -0.67075440158E+03  0.67075440159E+03  0.25500000000E-02 0. -1.
    5000001    1    1    2    0    0 -0.16081148005E+03  0.30245978587E+03 -0.29365171205E+03  0.46872442029E+03  0.12700000000E+03 0.  0.
   -5000001    1    1    2    0    0  0.16081148005E+03 -0.30245978587E+03 -0.17433258942E+03  0.40480008142E+03  0.12700000000E+03 0.  0.
<mgrwt>
<rscale>  0 0.73758779E+03</rscale>
<asrwt>0</asrwt>
<pdfrwt beam="1">  1        2 0.28967157E-01 0.73758779E+03</pdfrwt>
<pdfrwt beam="2">  1       -2 0.95822056E-01 0.73758779E+03</pdfrwt>
<totfact> 0.17067701E+02</totfact>
</mgrwt>
</event>
<event>
 4    1  0.1383574E-004  0.6374258E+03  0.7818608E-02  0.9830664E-01
         -2   -1    0    0    0  501 -0.00000000000E+00  0.00000000000E+00  0.42545272775E+02  0.42545272852E+02  0.25500000000E-02 0. -1.
          2   -1    0    0  501    0  0.00000000000E+00 -0.00000000000E+00 -0.23875255986E+04  0.23875255986E+04  0.25500000000E-02 0.  1.
    5000001    1    1    2    0    0 -0.19075580866E+03  0.14512688691E+03 -0.53457469015E+03  0.59945699695E+03  0.12700000000E+03 0.  0.
   -5000001    1    1    2    0    0  0.19075580866E+03 -0.14512688691E+03 -0.18104056356E+04  0.18306138745E+04  0.12700000000E+03 0.  0.
<mgrwt>
<rscale>  0 0.63742585E+03</rscale>
<asrwt>0</asrwt>
<pdfrwt beam="1">  1        2 0.34107500E+00 0.63742585E+03</pdfrwt>
<pdfrwt beam="2">  1       -2 0.60778976E-02 0.63742585E+03</pdfrwt>
<totfact> 0.79742237E+02</totfact>
</mgrwt>
</event>
<event>
 4    1  0.1383574E-004  0.4846586E+03  0.7818608E-02  0.1017863E+00
         -2   -1    0    0    0  501 -0.00000000000E+00  0.00000000000E+00  0.43300620152E+02  0.43300620228E+02  0.25500000000E-02 0. -1.
          2   -1    0    0  501    0  0.00000000000E+00 -0.00000000000E+00 -0.13561814366E+04  0.13561814366E+04  0.25500000000E-02 0.  1.
    5000001    1    1    2    0    0  0.18443684170E+03 -0.49645893066E+02 -0.43067745119E+03  0.48794849138E+03  0.12700000000E+03 0.  0.
   -5000001    1    1    2    0    0 -0.18443684170E+03  0.49645893066E+02 -0.88220336526E+03  0.91153356546E+03  0.12700000000E+03 0.  0.
<mgrwt>
<rscale>  0 0.48465863E+03</rscale>
<asrwt>0</asrwt>
<pdfrwt beam="1">  1        2 0.19374018E+00 0.48465863E+03</pdfrwt>
<pdfrwt beam="2">  1       -2 0.61858037E-02 0.48465863E+03</pdfrwt>
<totfact> 0.26112763E+03</totfact>
</mgrwt>
</event>
<event>
 4    1  0.1383574E-004  0.3435303E+03  0.7818608E-02  0.1065302E+00
         -2   -1    0    0    0  501 -0.00000000000E+00  0.00000000000E+00  0.32284451823E+02  0.32284451923E+02  0.25500000000E-02 0. -1.
          2   -1    0    0  501    0  0.00000000000E+00 -0.00000000000E+00 -0.91385357542E+03  0.91385357543E+03  0.25500000000E-02 0.  1.
    5000001    1    1    2    0    0 -0.69393429077E+02  0.78159062028E+02 -0.57710792592E+03  0.60008903101E+03  0.12700000000E+03 0.  0.
   -5000001    1    1    2    0    0  0.69393429077E+02 -0.78159062028E+02 -0.30446119768E+03  0.34604899634E+03  0.12700000000E+03 0.  0.
<mgrwt>
<rscale>  0 0.34353027E+03</rscale>
<asrwt>0</asrwt>
<pdfrwt beam="1">  1        2 0.13055049E+00 0.34353027E+03</pdfrwt>
<pdfrwt beam="2">  1       -2 0.46120651E-02 0.34353027E+03</pdfrwt>
<totfact> 0.73123416E+03</totfact>
</mgrwt>
</event>
<event>
 4    1  0.1383574E-004  0.5583402E+03  0.7818608E-02  0.9995817E-01
          2   -1    0    0  501    0  0.00000000000E+00  0.00000000000E+00  0.78891804270E+03  0.78891804271E+03  0.25500000000E-02 0.  1.
         -2   -1    0    0    0  501 -0.00000000000E+00 -0.00000000000E+00 -0.98788402940E+02  0.98788402973E+02  0.25500000000E-02 0. -1.
    5000001    1    1    2    0    0 -0.49959432731E+02  0.22899667731E+03  0.47685928934E+03  0.54631419986E+03  0.12700000000E+03 0.  0.
   -5000001    1    1    2    0    0  0.49959432731E+02 -0.22899667731E+03  0.21327035042E+03  0.34139224582E+03  0.12700000000E+03 0.  0.
<mgrwt>
<rscale>  0 0.55834023E+03</rscale>
<asrwt>0</asrwt>
<pdfrwt beam="1">  1        2 0.11270257E+00 0.55834023E+03</pdfrwt>
<pdfrwt beam="2">  1       -2 0.14112629E-01 0.55834023E+03</pdfrwt>
<totfact> 0.15045599E+03</totfact>
</mgrwt>
</event>
<event>
 4    1  0.1383574E-004  0.3261635E+03  0.7818608E-02  0.1072847E+00
         -2   -1    0    0    0  501 -0.00000000000E+00  0.00000000000E+00  0.37772091801E+02  0.37772091887E+02  0.25500000000E-02 0. -1.
          2   -1    0    0  501    0  0.00000000000E+00 -0.00000000000E+00 -0.70410850285E+03  0.70410850285E+03  0.25500000000E-02 0.  1.
    5000001    1    1    2    0    0  0.41060595319E+02 -0.93457579043E+02 -0.34865522864E+03  0.38485030859E+03  0.12700000000E+03 0.  0.
   -5000001    1    1    2    0    0 -0.41060595319E+02  0.93457579043E+02 -0.31768118241E+03  0.35703028615E+03  0.12700000000E+03 0.  0.
<mgrwt>
<rscale>  0 0.32616346E+03</rscale>
<asrwt>0</asrwt>
<pdfrwt beam="1">  1        2 0.10058692E+00 0.32616346E+03</pdfrwt>
<pdfrwt beam="2">  1       -2 0.53960135E-02 0.32616346E+03</pdfrwt>
<totfact> 0.79631099E+03</totfact>
</mgrwt>
</event>
<event>
 4    1  0.1383574E-004  0.3441841E+03  0.7818608E-02  0.1065028E+00
         -2   -1    0    0    0  501 -0.00000000000E+00  0.00000000000E+00  0.95269850670E+02  0.95269850704E+02  0.25500000000E-02 0. -1.
          2   -1    0    0  501    0  0.00000000000E+00 -0.00000000000E+00 -0.31086100863E+03  0.31086100864E+03  0.25500000000E-02 0.  1.
    5000001    1    1    2    0    0  0.44989210613E+02  0.42557717229E+02 -0.22371931994E+03  0.26460257460E+03  0.12700000000E+03 0.  0.
   -5000001    1    1    2    0    0 -0.44989210613E+02 -0.42557717229E+02  0.81281619800E+01  0.14152828475E+03  0.12700000000E+03 0.  0.
<mgrwt>
<rscale>  0 0.34418415E+03</rscale>
<asrwt>0</asrwt>
<pdfrwt beam="1">  1        2 0.44408715E-01 0.34418415E+03</pdfrwt>
<pdfrwt beam="2">  1       -2 0.13609979E-01 0.34418415E+03</pdfrwt>
<totfact> 0.46004331E+03</totfact>
</mgrwt>
</event>
<event>
 4    1  0.1383574E-004  0.3762143E+03  0.7818608E-02  0.1052342E+00
          2   -1    0    0  501    0  0.00000000000E+00  0.00000000000E+00  0.60186854424E+03  0.60186854425E+03  0.25500000000E-02 0.  1.
         -2   -1    0    0    0  501 -0.00000000000E+00 -0.00000000000E+00 -0.58790744870E+02  0.58790744925E+02  0.25500000000E-02 0. -1.
    5000001    1    1    2    0    0 -0.92737839154E+02 -0.10059264461E+03  0.31219918773E+03  0.36375337769E+03  0.12700000000E+03 0.  0.
   -5000001    1    1    2    0    0  0.92737839154E+02  0.10059264461E+03  0.23087861165E+03  0.29690591149E+03  0.12700000000E+03 0.  0.
<mgrwt>
<rscale>  0 0.37621430E+03</rscale>
<asrwt>0</asrwt>
<pdfrwt beam="1">  1        2 0.85981215E-01 0.37621430E+03</pdfrwt>
<pdfrwt beam="2">  1       -2 0.83986784E-02 0.37621430E+03</pdfrwt>
<totfact> 0.48294082E+03</totfact>
</mgrwt>
</event>
<event>
 4    1  0.1383574E-004  0.4292928E+03  0.7818608E-02  0.1034084E+00
         -2   -1    0    0    0  501 -0.00000000000E+00  0.00000000000E+00  0.84029353588E+03  0.84029353589E+03  0.25500000000E-02 0. -1.
          2   -1    0    0  501    0  0.00000000000E+00 -0.00000000000E+00 -0.54829737498E+02  0.54829737558E+02  0.25500000000E-02 0.  1.
    5000001    1    1    2    0    0 -0.13746102661E+03 -0.10478398671E+03  0.41003409185E+03  0.46274417791E+03  0.12700000000E+03 0.  0.
   -5000001    1    1    2    0    0  0.13746102661E+03  0.10478398671E+03  0.37542970653E+03  0.43237909554E+03  0.12700000000E+03 0.  0.
<mgrwt>
<rscale>  0 0.42929279E+03</rscale>
<asrwt>0</asrwt>
<pdfrwt beam="1">  1        2 0.78328200E-02 0.42929279E+03</pdfrwt>
<pdfrwt beam="2">  1       -2 0.12004193E+00 0.42929279E+03</pdfrwt>
<totfact> 0.48771872E+02</totfact>
</mgrwt>
</event>
<event>
 4    1  0.1383574E-004  0.3469981E+03  0.7818608E-02  0.1063854E+00
         -2   -1    0    0    0  501 -0.00000000000E+00  0.00000000000E+00  0.25822558845E+02  0.25822558971E+02  0.25500000000E-02 0. -1.
          2   -1    0    0  501    0  0.00000000000E+00 -0.00000000000E+00 -0.11657218082E+04  0.11657218082E+04  0.25500000000E-02 0.  1.
    5000001    1    1    2    0    0  0.83720517511E+02 -0.81835511569E+02 -0.51386671963E+03  0.54212008038E+03  0.12700000000E+03 0.  0.
   -5000001    1    1    2    0    0 -0.83720517511E+02  0.81835511569E+02 -0.62603252971E+03  0.64942428678E+03  0.12700000000E+03 0.  0.
<mgrwt>
<rscale>  0 0.34699810E+03</rscale>
<asrwt>0</asrwt>
<pdfrwt beam="1">  1        2 0.16653165E+00 0.34699810E+03</pdfrwt>
<pdfrwt beam="2">  1       -2 0.36889377E-02 0.34699810E+03</pdfrwt>
<totfact> 0.73032648E+03</totfact>
</mgrwt>
</event>
<event>
 4    1  0.1383574E-004  0.3993441E+03  0.7818608E-02  0.1044007E+00
         -2   -1    0    0    0  501 -0.00000000000E+00  0.00000000000E+00  0.16576883266E+02  0.16576883462E+02  0.25500000000E-02 0. -1.
          2   -1    0    0  501    0  0.00000000000E+00 -0.00000000000E+00 -0.24050924777E+04  0.24050924777E+04  0.25500000000E-02 0.  1.
    5000001    1    1    2    0    0 -0.72666040539E+02  0.13232191370E+03 -0.10073004734E+04  0.10264368884E+04  0.12700000000E+03 0.  0.
   -5000001    1    1    2    0    0  0.72666040539E+02 -0.13232191370E+03 -0.13812151211E+04  0.13952324728E+04  0.12700000000E+03 0.  0.
<mgrwt>
<rscale>  0 0.39934415E+03</rscale>
<asrwt>0</asrwt>
<pdfrwt beam="1">  1        2 0.34358442E+00 0.39934415E+03</pdfrwt>
<pdfrwt beam="2">  1       -2 0.23681277E-02 0.39934415E+03</pdfrwt>
<totfact> 0.33475154E+03</totfact>
</mgrwt>
</event>
<event>
 4    1  0.1383574E-004  0.3619240E+03  0.7818608E-02  0.1057825E+00
         -2   -1    0    0    0  501 -0.00000000000E+00  0.00000000000E+00  0.18992370867E+02  0.18992371038E+02  0.25500000000E-02 0. -1.
          2   -1    0    0  501    0  0.00000000000E+00 -0.00000000000E+00 -0.17242313446E+04  0.17242313446E+04  0.25500000000E-02 0.  1.
    5000001    1    1    2    0    0 -0.46359953073E+02  0.11718250699E+03 -0.98340057945E+03  0.99954323811E+03  0.12700000000E+03 0.  0.
   -5000001    1    1    2    0    0  0.46359953073E+02 -0.11718250699E+03 -0.72183839431E+03  0.74368047756E+03  0.12700000000E+03 0.  0.
<mgrwt>
<rscale>  0 0.36192398E+03</rscale>
<asrwt>0</asrwt>
<pdfrwt beam="1">  1        2 0.24631866E+00 0.36192398E+03</pdfrwt>
<pdfrwt beam="2">  1       -2 0.27131969E-02 0.36192398E+03</pdfrwt>
<totfact> 0.59470785E+03</totfact>
</mgrwt>
</event>
<event>
 4    1  0.1383574E-004  0.5309827E+03  0.7818608E-02  0.1005994E+00
          2   -1    0    0  501    0  0.00000000000E+00  0.00000000000E+00  0.78691632513E+03  0.78691632513E+03  0.25500000000E-02 0.  1.
         -2   -1    0    0    0  501 -0.00000000000E+00 -0.00000000000E+00 -0.89572000108E+02  0.89572000144E+02  0.25500000000E-02 0. -1.
    5000001    1    1    2    0    0  0.51925538105E+02  0.20097326140E+03  0.17343319416E+03  0.29882199742E+03  0.12700000000E+03 0.  0.
   -5000001    1    1    2    0    0 -0.51925538105E+02 -0.20097326140E+03  0.52391113086E+03  0.57766632786E+03  0.12700000000E+03 0.  0.
<mgrwt>
<rscale>  0 0.53098275E+03</rscale>
<asrwt>0</asrwt>
<pdfrwt beam="1">  1        2 0.11241661E+00 0.53098275E+03</pdfrwt>
<pdfrwt beam="2">  1       -2 0.12796001E-01 0.53098275E+03</pdfrwt>
<totfact> 0.17763681E+03</totfact>
</mgrwt>
</event>
<event>
 4    1  0.1383574E-004  0.7957007E+03  0.7818608E-02  0.9566261E-01
          2   -1    0    0  501    0  0.00000000000E+00  0.00000000000E+00  0.65296269462E+03  0.65296269462E+03  0.25500000000E-02 0.  1.
         -2   -1    0    0    0  501 -0.00000000000E+00 -0.00000000000E+00 -0.24241034149E+03  0.24241034151E+03  0.25500000000E-02 0. -1.
    5000001    1    1    2    0    0 -0.18367760783E+03  0.23183192454E+03  0.46838677870E+03  0.56832972763E+03  0.12700000000E+03 0.  0.
   -5000001    1    1    2    0    0  0.18367760783E+03 -0.23183192454E+03 -0.57834425571E+02  0.32704330850E+03  0.12700000000E+03 0.  0.
<mgrwt>
<rscale>  0 0.79570072E+03</rscale>
<asrwt>0</asrwt>
<pdfrwt beam="1">  1        2 0.93280385E-01 0.79570072E+03</pdfrwt>
<pdfrwt beam="2">  1       -2 0.34630049E-01 0.79570072E+03</pdfrwt>
<totfact> 0.38466133E+02</totfact>
</mgrwt>
</event>
<event>
 4    1  0.1383574E-004  0.1040228E+04  0.7818608E-02  0.9265491E-01
          2   -1    0    0  501    0  0.00000000000E+00  0.00000000000E+00  0.19066211108E+04  0.19066211108E+04  0.25500000000E-02 0.  1.
         -2   -1    0    0    0  501 -0.00000000000E+00 -0.00000000000E+00 -0.14188386397E+03  0.14188386399E+03  0.25500000000E-02 0. -1.
    5000001    1    1    2    0    0 -0.31255210926E+03  0.57163877675E+01  0.10289961569E+03  0.35275888225E+03  0.12700000000E+03 0.  0.
   -5000001    1    1    2    0    0  0.31255210926E+03 -0.57163877675E+01  0.16618376311E+04  0.16957460925E+04  0.12700000000E+03 0.  0.
<mgrwt>
<rscale>  0 0.10402284E+04</rscale>
<asrwt>0</asrwt>
<pdfrwt beam="1">  1        2 0.27237442E+00 0.10402284E+04</pdfrwt>
<pdfrwt beam="2">  1       -2 0.20269125E-01 0.10402284E+04</pdfrwt>
<totfact> 0.18650588E+02</totfact>
</mgrwt>
</event>
<event>
 4    1  0.1383574E-004  0.3246596E+03  0.7818608E-02  0.1073525E+00
          2   -1    0    0  501    0  0.00000000000E+00  0.00000000000E+00  0.13842612556E+04  0.13842612556E+04  0.25500000000E-02 0.  1.
         -2   -1    0    0    0  501 -0.00000000000E+00 -0.00000000000E+00 -0.19036124545E+02  0.19036124716E+02  0.25500000000E-02 0. -1.
    5000001    1    1    2    0    0  0.86453916722E+02 -0.13306290528E+02  0.46346258757E+03  0.48844437469E+03  0.12700000000E+03 0.  0.
   -5000001    1    1    2    0    0 -0.86453916722E+02  0.13306290528E+02  0.90176254346E+03  0.91485300561E+03  0.12700000000E+03 0.  0.
<mgrwt>
<rscale>  0 0.32465964E+03</rscale>
<asrwt>0</asrwt>
<pdfrwt beam="1">  1        2 0.19775162E+00 0.32465964E+03</pdfrwt>
<pdfrwt beam="2">  1       -2 0.27194461E-02 0.32465964E+03</pdfrwt>
<totfact> 0.88004109E+03</totfact>
</mgrwt>
</event>
<event>
 4    1  0.1383574E-004  0.5879999E+03  0.7818608E-02  0.9930620E-01
          2   -1    0    0  501    0  0.00000000000E+00  0.00000000000E+00  0.27210080818E+04  0.27210080818E+04  0.25500000000E-02 0.  1.
         -2   -1    0    0    0  501 -0.00000000000E+00 -0.00000000000E+00 -0.31766159245E+02  0.31766159348E+02  0.25500000000E-02 0. -1.
    5000001    1    1    2    0    0 -0.88465858391E+02 -0.23370453206E+03  0.17597530994E+04  0.17819382670E+04  0.12700000000E+03 0.  0.
   -5000001    1    1    2    0    0  0.88465858391E+02  0.23370453206E+03  0.92948882312E+03  0.97083597415E+03  0.12700000000E+03 0.  0.
<mgrwt>
<rscale>  0 0.58799992E+03</rscale>
<asrwt>0</asrwt>
<pdfrwt beam="1">  1        2 0.38871542E+00 0.58799992E+03</pdfrwt>
<pdfrwt beam="2">  1       -2 0.45380230E-02 0.58799992E+03</pdfrwt>
<totfact> 0.84837380E+02</totfact>
</mgrwt>
</event>
<event>
 4    1  0.1383574E-004  0.5578474E+03  0.7818608E-02  0.9996937E-01
          2   -1    0    0  501    0  0.00000000000E+00  0.00000000000E+00  0.23394068706E+04  0.23394068706E+04  0.25500000000E-02 0.  1.
         -2   -1    0    0    0  501 -0.00000000000E+00 -0.00000000000E+00 -0.33255623566E+02  0.33255623664E+02  0.25500000000E-02 0. -1.
    5000001    1    1    2    0    0 -0.22146280127E+03  0.10299730612E+03  0.13440088211E+04  0.13719121432E+04  0.12700000000E+03 0.  0.
   -5000001    1    1    2    0    0  0.22146280127E+03 -0.10299730612E+03  0.96214242595E+03  0.10007503511E+04  0.12700000000E+03 0.  0.
<mgrwt>
<rscale>  0 0.55784741E+03</rscale>
<asrwt>0</asrwt>
<pdfrwt beam="1">  1        2 0.33420100E+00 0.55784741E+03</pdfrwt>
<pdfrwt beam="2">  1       -2 0.47508031E-02 0.55784741E+03</pdfrwt>
<totfact> 0.12446255E+03</totfact>
</mgrwt>
</event>
<event>
 4    1  0.1383574E-004  0.4223830E+03  0.7818608E-02  0.1036294E+00
         -2   -1    0    0    0  501 -0.00000000000E+00  0.00000000000E+00  0.20833210641E+03  0.20833210643E+03  0.25500000000E-02 0. -1.
          2   -1    0    0  501    0  0.00000000000E+00 -0.00000000000E+00 -0.21409013913E+03  0.21409013915E+03  0.25500000000E-02 0.  1.
    5000001    1    1    2    0    0 -0.92706861625E+02 -0.14058401365E+03 -0.13576858784E+02  0.21135694495E+03  0.12700000000E+03 0.  0.
   -5000001    1    1    2    0    0  0.92706861625E+02  0.14058401365E+03  0.78188260660E+01  0.21106530062E+03  0.12700000000E+03 0.  0.
<mgrwt>
<rscale>  0 0.42238300E+03</rscale>
<asrwt>0</asrwt>
<pdfrwt beam="1">  1        2 0.30584306E-01 0.42238300E+03</pdfrwt>
<pdfrwt beam="2">  1       -2 0.29761729E-01 0.42238300E+03</pdfrwt>
<totfact> 0.17959111E+03</totfact>
</mgrwt>
</event>
<event>
 4    1  0.1383574E-004  0.3231865E+03  0.7818608E-02  0.1074192E+00
          2   -1    0    0  501    0  0.00000000000E+00  0.00000000000E+00  0.54439861132E+03  0.54439861133E+03  0.25500000000E-02 0.  1.
         -2   -1    0    0    0  501 -0.00000000000E+00 -0.00000000000E+00 -0.47965544365E+02  0.47965544433E+02  0.25500000000E-02 0. -1.
    5000001    1    1    2    0    0 -0.49667686149E+02 -0.70702110098E+02  0.34018486168E+03  0.37325649028E+03  0.12700000000E+03 0.  0.
   -5000001    1    1    2    0    0  0.49667686149E+02  0.70702110098E+02  0.15624820527E+03  0.21910766547E+03  0.12700000000E+03 0.  0.
<mgrwt>
<rscale>  0 0.32318648E+03</rscale>
<asrwt>0</asrwt>
<pdfrwt beam="1">  1        2 0.77771226E-01 0.32318648E+03</pdfrwt>
<pdfrwt beam="2">  1       -2 0.68522210E-02 0.32318648E+03</pdfrwt>
<totfact> 0.74203948E+03</totfact>
</mgrwt>
</event>
<event>
 4    1  0.1383574E-004  0.3102252E+03  0.7818608E-02  0.1080238E+00
          2   -1    0    0  501    0  0.00000000000E+00  0.00000000000E+00  0.28817420591E+04  0.28817420591E+04  0.25500000000E-02 0.  1.
         -2   -1    0    0    0  501 -0.00000000000E+00 -0.00000000000E+00 -0.83490894034E+01  0.83490897928E+01  0.25500000000E-02 0. -1.
    5000001    1    1    2    0    0  0.86958708523E+02  0.17133039721E+02  0.15176794487E+04  0.15255606403E+04  0.12700000000E+03 0.  0.
   -5000001    1    1    2    0    0 -0.86958708523E+02 -0.17133039721E+02  0.13557135209E+04  0.13645305086E+04  0.12700000000E+03 0.  0.
<mgrwt>
<rscale>  0 0.31022523E+03</rscale>
<asrwt>0</asrwt>
<pdfrwt beam="1">  1        2 0.41167779E+00 0.31022523E+03</pdfrwt>
<pdfrwt beam="2">  1       -2 0.11927261E-02 0.31022523E+03</pdfrwt>
<totfact> 0.52783657E+03</totfact>
</mgrwt>
</event>
<event>
 4    1  0.1383574E-004  0.4412877E+03  0.7818608E-02  0.1030352E+00
         -2   -1    0    0    0  501 -0.00000000000E+00  0.00000000000E+00  0.19508083282E+04  0.19508083282E+04  0.25500000000E-02 0. -1.
          2   -1    0    0  501    0  0.00000000000E+00 -0.00000000000E+00 -0.24955657672E+02  0.24955657802E+02  0.25500000000E-02 0.  1.
    5000001    1    1    2    0    0  0.15090643731E+03  0.80078542570E+02  0.70303715431E+03  0.73455807540E+03  0.12700000000E+03 0.  0.
   -5000001    1    1    2    0    0 -0.15090643731E+03 -0.80078542570E+02  0.12228155162E+04  0.12412059106E+04  0.12700000000E+03 0.  0.
<mgrwt>
<rscale>  0 0.44128768E+03</rscale>
<asrwt>0</asrwt>
<pdfrwt beam="1">  1        2 0.35650938E-02 0.44128768E+03</pdfrwt>
<pdfrwt beam="2">  1       -2 0.27868692E+00 0.44128768E+03</pdfrwt>
<totfact> 0.11924965E+02</totfact>
</mgrwt>
</event>
<event>
 4    1  0.1383574E-004  0.3747279E+03  0.7818608E-02  0.1052900E+00
         -2   -1    0    0    0  501 -0.00000000000E+00  0.00000000000E+00  0.50072231858E+02  0.50072231923E+02  0.25500000000E-02 0. -1.
          2   -1    0    0  501    0  0.00000000000E+00 -0.00000000000E+00 -0.70109212792E+03  0.70109212793E+03  0.25500000000E-02 0.  1.
    5000001    1    1    2    0    0  0.79141802585E+02  0.11270561981E+03 -0.31908723304E+03  0.37001573472E+03  0.12700000000E+03 0.  0.
   -5000001    1    1    2    0    0 -0.79141802585E+02 -0.11270561981E+03 -0.33193266303E+03  0.38114862513E+03  0.12700000000E+03 0.  0.
<mgrwt>
<rscale>  0 0.37472789E+03</rscale>
<asrwt>0</asrwt>
<pdfrwt beam="1">  1        2 0.10015601E+00 0.37472789E+03</pdfrwt>
<pdfrwt beam="2">  1       -2 0.71531764E-02 0.37472789E+03</pdfrwt>
<totfact> 0.51920270E+03</totfact>
</mgrwt>
</event>
<event>
 4    1  0.1383574E-004  0.3251878E+03  0.7818608E-02  0.1073286E+00
         -2   -1    0    0    0  501 -0.00000000000E+00  0.00000000000E+00  0.19160379010E+02  0.19160379180E+02  0.25500000000E-02 0. -1.
          2   -1    0    0  501    0  0.00000000000E+00 -0.00000000000E+00 -0.13797627999E+04  0.13797627999E+04  0.25500000000E-02 0.  1.
    5000001    1    1    2    0    0 -0.78681103689E+02  0.30410146331E+02 -0.92335950730E+03  0.93586178082E+03  0.12700000000E+03 0.  0.
   -5000001    1    1    2    0    0  0.78681103689E+02 -0.30410146331E+02 -0.43724291361E+03  0.46306139828E+03  0.12700000000E+03 0.  0.
<mgrwt>
<rscale>  0 0.32518781E+03</rscale>
<asrwt>0</asrwt>
<pdfrwt beam="1">  1        2 0.19710891E+00 0.32518781E+03</pdfrwt>
<pdfrwt beam="2">  1       -2 0.27371979E-02 0.32518781E+03</pdfrwt>
<totfact> 0.87628133E+03</totfact>
</mgrwt>
</event>
<event>
 4    1  0.1383574E-004  0.4209223E+03  0.7818608E-02  0.1036767E+00
         -2   -1    0    0    0  501 -0.00000000000E+00  0.00000000000E+00  0.12084954157E+03  0.12084954160E+03  0.25500000000E-02 0. -1.
          2   -1    0    0  501    0  0.00000000000E+00 -0.00000000000E+00 -0.36652100723E+03  0.36652100724E+03  0.25500000000E-02 0.  1.
    5000001    1    1    2    0    0 -0.10555663235E+03 -0.68326531436E+02  0.58600384918E+01  0.17881291223E+03  0.12700000000E+03 0.  0.
   -5000001    1    1    2    0    0  0.10555663235E+03  0.68326531436E+02 -0.25153150414E+03  0.30855763660E+03  0.12700000000E+03 0.  0.
<mgrwt>
<rscale>  0 0.42092230E+03</rscale>
<asrwt>0</asrwt>
<pdfrwt beam="1">  1        2 0.52360143E-01 0.42092230E+03</pdfrwt>
<pdfrwt beam="2">  1       -2 0.17264220E-01 0.42092230E+03</pdfrwt>
<totfact> 0.25954619E+03</totfact>
</mgrwt>
</event>
<event>
 4    1  0.1383574E-004  0.4549913E+03  0.7818608E-02  0.1026244E+00
          2   -1    0    0  501    0  0.00000000000E+00  0.00000000000E+00  0.14488010706E+04  0.14488010706E+04  0.25500000000E-02 0.  1.
         -2   -1    0    0    0  501 -0.00000000000E+00 -0.00000000000E+00 -0.35722144991E+02  0.35722145082E+02  0.25500000000E-02 0. -1.
    5000001    1    1    2    0    0 -0.18527850687E+03 -0.20425376292E+02  0.60975279568E+03  0.65013290406E+03  0.12700000000E+03 0.  0.
   -5000001    1    1    2    0    0  0.18527850687E+03  0.20425376292E+02  0.80332612995E+03  0.83439031164E+03  0.12700000000E+03 0.  0.
<mgrwt>
<rscale>  0 0.45499135E+03</rscale>
<asrwt>0</asrwt>
<pdfrwt beam="1">  1        2 0.20697152E+00 0.45499135E+03</pdfrwt>
<pdfrwt beam="2">  1       -2 0.51031652E-02 0.45499135E+03</pdfrwt>
<totfact> 0.31469007E+03</totfact>
</mgrwt>
</event>
<event>
 4    1  0.1383574E-004  0.4102804E+03  0.7818608E-02  0.1040277E+00
         -2   -1    0    0    0  501 -0.00000000000E+00  0.00000000000E+00  0.25111349088E+02  0.25111349217E+02  0.25500000000E-02 0.  1.
          2   -1    0    0  501    0  0.00000000000E+00 -0.00000000000E+00 -0.16758356689E+04  0.16758356689E+04  0.25500000000E-02 0. -1.
    5000001    1    1    2    0    0  0.76909692559E+02  0.13258458729E+03 -0.61974801982E+03  0.65093039694E+03  0.12700000000E+03 0.  0.
   -5000001    1    1    2    0    0 -0.76909692559E+02 -0.13258458729E+03 -0.10309763000E+04  0.10500166212E+04  0.12700000000E+03 0.  0.
<mgrwt>
<rscale>  0 0.41028037E+03</rscale>
<asrwt>0</asrwt>
<pdfrwt beam="1">  1        2 0.23940502E+00 0.41028037E+03</pdfrwt>
<pdfrwt beam="2">  1       -2 0.35873367E-02 0.41028037E+03</pdfrwt>
<totfact> 0.41308910E+03</totfact>
</mgrwt>
</event>
<event>
 4    1  0.1383574E-004  0.4276354E+03  0.7818608E-02  0.1034610E+00
          2   -1    0    0  501    0  0.00000000000E+00  0.00000000000E+00  0.45454022595E+02  0.45454022667E+02  0.25500000000E-02 0.  1.
         -2   -1    0    0    0  501 -0.00000000000E+00 -0.00000000000E+00 -0.10058077709E+04  0.10058077709E+04  0.25500000000E-02 0. -1.
    5000001    1    1    2    0    0  0.96640267250E+02 -0.14214856105E+03 -0.46397166234E+03  0.51082703346E+03  0.12700000000E+03 0.  0.
   -5000001    1    1    2    0    0 -0.96640267250E+02  0.14214856105E+03 -0.49638208594E+03  0.54043476009E+03  0.12700000000E+03 0.  0.
<mgrwt>
<rscale>  0 0.42763540E+03</rscale>
<asrwt>0</asrwt>
<pdfrwt beam="1">  1        2 0.64934324E-02 0.42763540E+03</pdfrwt>
<pdfrwt beam="2">  1       -2 0.14368681E+00 0.42763540E+03</pdfrwt>
<totfact> 0.39636014E+02</totfact>
</mgrwt>
</event>
<event>
 4    1  0.1383574E-004  0.3676919E+03  0.7818608E-02  0.1055579E+00
          2   -1    0    0  501    0  0.00000000000E+00  0.00000000000E+00  0.77098326774E+02  0.77098326816E+02  0.25500000000E-02 0.  1.
         -2   -1    0    0    0  501 -0.00000000000E+00 -0.00000000000E+00 -0.43839257462E+03  0.43839257463E+03  0.25500000000E-02 0. -1.
    5000001    1    1    2    0    0  0.56808572758E+02  0.11770451455E+03 -0.21466512404E+03  0.28158778767E+03  0.12700000000E+03 0.  0.
   -5000001    1    1    2    0    0 -0.56808572758E+02 -0.11770451455E+03 -0.14662912381E+03  0.23390311377E+03  0.12700000000E+03 0.  0.
<mgrwt>
<rscale>  0 0.36769190E+03</rscale>
<asrwt>0</asrwt>
<pdfrwt beam="1">  1        2 0.11014047E-01 0.36769190E+03</pdfrwt>
<pdfrwt beam="2">  1       -2 0.62627509E-01 0.36769190E+03</pdfrwt>
<totfact> 0.13825296E+03</totfact>
</mgrwt>
</event>
<event>
 4    1  0.1383574E-004  0.3112839E+03  0.7818608E-02  0.1079732E+00
         -2   -1    0    0    0  501 -0.00000000000E+00  0.00000000000E+00  0.51789025053E+02  0.51789025116E+02  0.25500000000E-02 0. -1.
          2   -1    0    0  501    0  0.00000000000E+00 -0.00000000000E+00 -0.46775196557E+03  0.46775196558E+03  0.25500000000E-02 0.  1.
    5000001    1    1    2    0    0 -0.79620646651E+02 -0.41832554377E+02 -0.20389038005E+03  0.25649502345E+03  0.12700000000E+03 0.  0.
   -5000001    1    1    2    0    0  0.79620646651E+02  0.41832554377E+02 -0.21207256046E+03  0.26304596724E+03  0.12700000000E+03 0.  0.
<mgrwt>
<rscale>  0 0.31128391E+03</rscale>
<asrwt>0</asrwt>
<pdfrwt beam="1">  1        2 0.66821707E-01 0.31128391E+03</pdfrwt>
<pdfrwt beam="2">  1       -2 0.73984324E-02 0.31128391E+03</pdfrwt>
<totfact> 0.77887507E+03</totfact>
</mgrwt>
</event>
<event>
 4    1  0.1383574E-004  0.3124503E+03  0.7818608E-02  0.1079177E+00
         -2   -1    0    0    0  501 -0.00000000000E+00  0.00000000000E+00  0.37840359987E+03  0.37840359987E+03  0.25500000000E-02 0. -1.
          2   -1    0    0  501    0  0.00000000000E+00 -0.00000000000E+00 -0.64498053668E+02  0.64498053719E+02  0.25500000000E-02 0.  1.
    5000001    1    1    2    0    0 -0.37703091791E+02  0.82734786097E+02  0.15230996665E+03  0.21816024821E+03  0.12700000000E+03 0.  0.
   -5000001    1    1    2    0    0  0.37703091791E+02 -0.82734786097E+02  0.16159557955E+03  0.22474140538E+03  0.12700000000E+03 0.  0.
<mgrwt>
<rscale>  0 0.31245029E+03</rscale>
<asrwt>0</asrwt>
<pdfrwt beam="1">  1        2 0.92140074E-02 0.31245029E+03</pdfrwt>
<pdfrwt beam="2">  1       -2 0.54057659E-01 0.31245029E+03</pdfrwt>
<totfact> 0.23345484E+03</totfact>
</mgrwt>
</event>
<event>
 4    1  0.1383574E-004  0.3131515E+03  0.7818608E-02  0.1078845E+00
          2   -1    0    0  501    0  0.00000000000E+00  0.00000000000E+00  0.12047173522E+03  0.12047173525E+03  0.25500000000E-02 0.  1.
         -2   -1    0    0    0  501 -0.00000000000E+00 -0.00000000000E+00 -0.20349971240E+03  0.20349971241E+03  0.25500000000E-02 0. -1.
    5000001    1    1    2    0    0  0.14402720969E+02 -0.64891836325E+02 -0.10668726234E+03  0.17868844601E+03  0.12700000000E+03 0.  0.
   -5000001    1    1    2    0    0 -0.14402720969E+02  0.64891836325E+02  0.23659285162E+02  0.14528300165E+03  0.12700000000E+03 0.  0.
<mgrwt>
<rscale>  0 0.31315149E+03</rscale>
<asrwt>0</asrwt>
<pdfrwt beam="1">  1        2 0.17210248E-01 0.31315149E+03</pdfrwt>
<pdfrwt beam="2">  1       -2 0.29071387E-01 0.31315149E+03</pdfrwt>
<totfact> 0.35861382E+03</totfact>
</mgrwt>
</event>
<event>
 4    1  0.1383574E-004  0.4548283E+03  0.7818608E-02  0.1026292E+00
          2   -1    0    0  501    0  0.00000000000E+00  0.00000000000E+00  0.34331587345E+04  0.34331587345E+04  0.25500000000E-02 0. -1.
         -2   -1    0    0    0  501 -0.00000000000E+00 -0.00000000000E+00 -0.15064026629E+02  0.15064026845E+02  0.25500000000E-02 0.  1.
    5000001    1    1    2    0    0  0.28295152015E+02  0.18608290916E+03  0.18051635701E+04  0.18193878035E+04  0.12700000000E+03 0.  0.
   -5000001    1    1    2    0    0 -0.28295152015E+02 -0.18608290916E+03  0.16129311377E+04  0.16288349578E+04  0.12700000000E+03 0.  0.
<mgrwt>
<rscale>  0 0.45482830E+03</rscale>
<asrwt>0</asrwt>
<pdfrwt beam="1">  1        2 0.49045021E+00 0.45482830E+03</pdfrwt>
<pdfrwt beam="2">  1       -2 0.21520084E-02 0.45482830E+03</pdfrwt>
<totfact> 0.10833097E+03</totfact>
</mgrwt>
</event>
<event>
 4    1  0.1383574E-004  0.3111736E+03  0.7818608E-02  0.1079785E+00
         -2   -1    0    0    0  501 -0.00000000000E+00  0.00000000000E+00  0.14545104209E+03  0.14545104211E+03  0.25500000000E-02 0. -1.
          2   -1    0    0  501    0  0.00000000000E+00 -0.00000000000E+00 -0.16642887372E+03  0.16642887374E+03  0.25500000000E-02 0.  1.
    5000001    1    1    2    0    0  0.73328943256E+02 -0.51951367571E+02 -0.90109124233E+01  0.15584054368E+03  0.12700000000E+03 0.  0.
   -5000001    1    1    2    0    0 -0.73328943256E+02  0.51951367571E+02 -0.11966919207E+02  0.15603937217E+03  0.12700000000E+03 0.  0.
<mgrwt>
<rscale>  0 0.31117361E+03</rscale>
<asrwt>0</asrwt>
<pdfrwt beam="1">  1        2 0.23775553E-01 0.31117361E+03</pdfrwt>
<pdfrwt beam="2">  1       -2 0.20778720E-01 0.31117361E+03</pdfrwt>
<totfact> 0.44767856E+03</totfact>
</mgrwt>
</event>
<event>
 4    1  0.1383574E-004  0.3212383E+03  0.7818608E-02  0.1075081E+00
          2   -1    0    0  501    0  0.00000000000E+00  0.00000000000E+00  0.50209102742E+02  0.50209102806E+02  0.25500000000E-02 0.  1.
         -2   -1    0    0    0  501 -0.00000000000E+00 -0.00000000000E+00 -0.51382143593E+03  0.51382143594E+03  0.25500000000E-02 0. -1.
    5000001    1    1    2    0    0 -0.68031339929E+02 -0.40602592801E+02 -0.33407580092E+03  0.36607714285E+03  0.12700000000E+03 0.  0.
   -5000001    1    1    2    0    0  0.68031339929E+02  0.40602592801E+02 -0.12953653227E+03  0.19795339590E+03  0.12700000000E+03 0.  0.
<mgrwt>
<rscale>  0 0.32123831E+03</rscale>
<asrwt>0</asrwt>
<pdfrwt beam="1">  1        2 0.71727293E-02 0.32123831E+03</pdfrwt>
<pdfrwt beam="2">  1       -2 0.73403059E-01 0.32123831E+03</pdfrwt>
<totfact> 0.16910177E+03</totfact>
</mgrwt>
</event>
<event>
 4    1  0.1383574E-004  0.3195665E+03  0.7818608E-02  0.1075849E+00
          2   -1    0    0  501    0  0.00000000000E+00  0.00000000000E+00  0.46755516237E+03  0.46755516237E+03  0.25500000000E-02 0.  1.
         -2   -1    0    0    0  501 -0.00000000000E+00 -0.00000000000E+00 -0.54604636963E+02  0.54604637023E+02  0.25500000000E-02 0. -1.
    5000001    1    1    2    0    0  0.49642154400E+02 -0.83091289580E+02  0.19706414282E+03  0.25363710746E+03  0.12700000000E+03 0.  0.
   -5000001    1    1    2    0    0 -0.49642154400E+02  0.83091289580E+02  0.21588638259E+03  0.26852269193E+03  0.12700000000E+03 0.  0.
<mgrwt>
<rscale>  0 0.31956646E+03</rscale>
<asrwt>0</asrwt>
<pdfrwt beam="1">  1        2 0.66793599E-01 0.31956646E+03</pdfrwt>
<pdfrwt beam="2">  1       -2 0.78006619E-02 0.31956646E+03</pdfrwt>
<totfact> 0.71800011E+03</totfact>
</mgrwt>
</event>
<event>
 4    1  0.1383574E-004  0.1094558E+04  0.7818608E-02  0.9210512E-01
         -2   -1    0    0    0  501 -0.00000000000E+00  0.00000000000E+00  0.39179669696E+03  0.39179669696E+03  0.25500000000E-02 0. -1.
          2   -1    0    0  501    0  0.00000000000E+00 -0.00000000000E+00 -0.76446380086E+03  0.76446380087E+03  0.25500000000E-02 0.  1.
    5000001    1    1    2    0    0 -0.12907484776E+03 -0.46250203758E+03  0.56441171268E+02  0.49988304323E+03  0.12700000000E+03 0.  0.
   -5000001    1    1    2    0    0  0.12907484776E+03  0.46250203758E+03 -0.42910827518E+03  0.65637745461E+03  0.12700000000E+03 0.  0.
<mgrwt>
<rscale>  0 0.10945582E+04</rscale>
<asrwt>0</asrwt>
<pdfrwt beam="1">  1        2 0.10920911E+00 0.10945582E+04</pdfrwt>
<pdfrwt beam="2">  1       -2 0.55970957E-01 0.10945582E+04</pdfrwt>
<totfact> 0.12000464E+02</totfact>
</mgrwt>
</event>
<event>
 4    1  0.1383574E-004  0.4001785E+03  0.7818608E-02  0.1043718E+00
         -2   -1    0    0    0  501 -0.00000000000E+00  0.00000000000E+00  0.78487330213E+02  0.78487330254E+02  0.25500000000E-02 0. -1.
          2   -1    0    0  501    0  0.00000000000E+00 -0.00000000000E+00 -0.51009133973E+03  0.51009133973E+03  0.25500000000E-02 0.  1.
    5000001    1    1    2    0    0 -0.14456043933E+03  0.53179348115E+02 -0.19601761950E+03  0.27978146979E+03  0.12700000000E+03 0.  0.
   -5000001    1    1    2    0    0  0.14456043933E+03 -0.53179348115E+02 -0.23558639002E+03  0.30879720019E+03  0.12700000000E+03 0.  0.
<mgrwt>
<rscale>  0 0.40017850E+03</rscale>
<asrwt>0</asrwt>
<pdfrwt beam="1">  1        2 0.72870189E-01 0.40017850E+03</pdfrwt>
<pdfrwt beam="2">  1       -2 0.11212476E-01 0.40017850E+03</pdfrwt>
<totfact> 0.36775806E+03</totfact>
</mgrwt>
</event>
<event>
 4    1  0.1383574E-004  0.3909318E+03  0.7818608E-02  0.1046966E+00
         -2   -1    0    0    0  501 -0.00000000000E+00  0.00000000000E+00  0.98803880436E+02  0.98803880469E+02  0.25500000000E-02 0. -1.
          2   -1    0    0  501    0  0.00000000000E+00 -0.00000000000E+00 -0.38669455115E+03  0.38669455116E+03  0.25500000000E-02 0.  1.
    5000001    1    1    2    0    0  0.41942623390E+02 -0.14218463430E+03 -0.15650440216E+03  0.25019648635E+03  0.12700000000E+03 0.  0.
   -5000001    1    1    2    0    0 -0.41942623390E+02  0.14218463430E+03 -0.13138626856E+03  0.23530194528E+03  0.12700000000E+03 0.  0.
<mgrwt>
<rscale>  0 0.39093182E+03</rscale>
<asrwt>0</asrwt>
<pdfrwt beam="1">  1        2 0.55242078E-01 0.39093182E+03</pdfrwt>
<pdfrwt beam="2">  1       -2 0.14114840E-01 0.39093182E+03</pdfrwt>
<totfact> 0.34259063E+03</totfact>
</mgrwt>
</event>
<event>
 4    1  0.1383574E-004  0.3304006E+03  0.7818608E-02  0.1070960E+00
          2   -1    0    0  501    0  0.00000000000E+00  0.00000000000E+00  0.21596896346E+03  0.21596896347E+03  0.25500000000E-02 0.  1.
         -2   -1    0    0    0  501 -0.00000000000E+00 -0.00000000000E+00 -0.12636605423E+03  0.12636605425E+03  0.25500000000E-02 0. -1.
    5000001    1    1    2    0    0  0.10501470275E+03 -0.58323799858E+01  0.55164803524E+02  0.17388001610E+03  0.12700000000E+03 0.  0.
   -5000001    1    1    2    0    0 -0.10501470275E+03  0.58323799858E+01  0.34438105703E+02  0.16845500163E+03  0.12700000000E+03 0.  0.
<mgrwt>
<rscale>  0 0.33040064E+03</rscale>
<asrwt>0</asrwt>
<pdfrwt beam="1">  1        2 0.30852709E-01 0.33040064E+03</pdfrwt>
<pdfrwt beam="2">  1       -2 0.18052294E-01 0.33040064E+03</pdfrwt>
<totfact> 0.42668636E+03</totfact>
</mgrwt>
</event>
<event>
 4    1  0.1383574E-004  0.3386762E+03  0.7818608E-02  0.1067361E+00
         -2   -1    0    0    0  501 -0.00000000000E+00  0.00000000000E+00  0.91833646016E+02  0.91833646052E+02  0.25500000000E-02 0. -1.
          2   -1    0    0  501    0  0.00000000000E+00 -0.00000000000E+00 -0.31225368279E+03  0.31225368280E+03  0.25500000000E-02 0.  1.
    5000001    1    1    2    0    0  0.38521688409E+00 -0.81142257857E+02 -0.18081715290E+02  0.15178986406E+03  0.12700000000E+03 0.  0.
   -5000001    1    1    2    0    0 -0.38521688409E+00  0.81142257857E+02 -0.20233832149E+03  0.25229746480E+03  0.12700000000E+03 0.  0.
<mgrwt>
<rscale>  0 0.33867621E+03</rscale>
<asrwt>0</asrwt>
<pdfrwt beam="1">  1        2 0.44607668E-01 0.33867621E+03</pdfrwt>
<pdfrwt beam="2">  1       -2 0.13119092E-01 0.33867621E+03</pdfrwt>
<totfact> 0.48606817E+03</totfact>
</mgrwt>
</event>
<event>
 4    1  0.1383574E-004  0.4185032E+03  0.7818608E-02  0.1037555E+00
         -2   -1    0    0    0  501 -0.00000000000E+00  0.00000000000E+00  0.28508452319E+02  0.28508452433E+02  0.25500000000E-02 0. -1.
          2   -1    0    0  501    0  0.00000000000E+00 -0.00000000000E+00 -0.15359034462E+04  0.15359034462E+04  0.25500000000E-02 0.  1.
    5000001    1    1    2    0    0 -0.87642694452E+02 -0.13910035680E+03 -0.66008938197E+03  0.69200949657E+03  0.12700000000E+03 0.  0.
   -5000001    1    1    2    0    0  0.87642694452E+02  0.13910035680E+03 -0.84730561192E+03  0.87240240207E+03  0.12700000000E+03 0.  0.
<mgrwt>
<rscale>  0 0.41850319E+03</rscale>
<asrwt>0</asrwt>
<pdfrwt beam="1">  1        2 0.21941473E+00 0.41850319E+03</pdfrwt>
<pdfrwt beam="2">  1       -2 0.40726370E-02 0.41850319E+03</pdfrwt>
<totfact> 0.40104826E+03</totfact>
</mgrwt>
</event>
<event>
 4    1  0.1383574E-004  0.4285654E+03  0.7818608E-02  0.1034314E+00
         -2   -1    0    0    0  501 -0.00000000000E+00  0.00000000000E+00  0.21323663041E+03  0.21323663043E+03  0.25500000000E-02 0. -1.
          2   -1    0    0  501    0  0.00000000000E+00 -0.00000000000E+00 -0.21533385249E+03  0.21533385250E+03  0.25500000000E-02 0.  1.
    5000001    1    1    2    0    0 -0.99103429026E+02 -0.14127101347E+03 -0.40613260426E+01  0.21429998428E+03  0.12700000000E+03 0.  0.
   -5000001    1    1    2    0    0  0.99103429026E+02  0.14127101347E+03  0.19641039684E+01  0.21427049866E+03  0.12700000000E+03 0.  0.
<mgrwt>
<rscale>  0 0.42856535E+03</rscale>
<asrwt>0</asrwt>
<pdfrwt beam="1">  1        2 0.30761979E-01 0.42856535E+03</pdfrwt>
<pdfrwt beam="2">  1       -2 0.30462376E-01 0.42856535E+03</pdfrwt>
<totfact> 0.17100488E+03</totfact>
</mgrwt>
</event>
<event>
 4    1  0.1383574E-004  0.4206212E+03  0.7818608E-02  0.1036864E+00
         -2   -1    0    0    0  501 -0.00000000000E+00  0.00000000000E+00  0.13966409321E+03  0.13966409324E+03  0.25500000000E-02 0. -1.
          2   -1    0    0  501    0  0.00000000000E+00 -0.00000000000E+00 -0.31669238617E+03  0.31669238618E+03  0.25500000000E-02 0.  1.
    5000001    1    1    2    0    0 -0.15180623084E+03 -0.70917078875E+02 -0.94171675929E+02  0.23037288978E+03  0.12700000000E+03 0.  0.
   -5000001    1    1    2    0    0  0.15180623084E+03  0.70917078875E+02 -0.82856617022E+02  0.22598358963E+03  0.12700000000E+03 0.  0.
<mgrwt>
<rscale>  0 0.42062123E+03</rscale>
<asrwt>0</asrwt>
<pdfrwt beam="1">  1        2 0.45241769E-01 0.42062123E+03</pdfrwt>
<pdfrwt beam="2">  1       -2 0.19952013E-01 0.42062123E+03</pdfrwt>
<totfact> 0.23768371E+03</totfact>
</mgrwt>
</event>
<event>
 4    1  0.1383574E-004  0.3799432E+03  0.7818608E-02  0.1050955E+00
          2   -1    0    0  501    0  0.00000000000E+00  0.00000000000E+00  0.42147742689E+03  0.42147742689E+03  0.25500000000E-02 0.  1.
         -2   -1    0    0    0  501 -0.00000000000E+00 -0.00000000000E+00 -0.85625490864E+02  0.85625490902E+02  0.25500000000E-02 0. -1.
    5000001    1    1    2    0    0  0.83510029414E+02  0.63076694756E+02  0.41253458057E+02  0.16965683669E+03  0.12700000000E+03 0.  0.
   -5000001    1    1    2    0    0 -0.83510029414E+02 -0.63076694756E+02  0.29459847797E+03  0.33744608111E+03  0.12700000000E+03 0.  0.
<mgrwt>
<rscale>  0 0.37994321E+03</rscale>
<asrwt>0</asrwt>
<pdfrwt beam="1">  1        2 0.60211060E-01 0.37994321E+03</pdfrwt>
<pdfrwt beam="2">  1       -2 0.12232213E-01 0.37994321E+03</pdfrwt>
<totfact> 0.39418094E+03</totfact>
</mgrwt>
</event>
<event>
 4    1  0.1383574E-004  0.3418122E+03  0.7818608E-02  0.1066027E+00
         -2   -1    0    0    0  501 -0.00000000000E+00  0.00000000000E+00  0.64328881971E+02  0.64328882021E+02  0.25500000000E-02 0. -1.
          2   -1    0    0  501    0  0.00000000000E+00 -0.00000000000E+00 -0.45405568298E+03  0.45405568299E+03  0.25500000000E-02 0.  1.
    5000001    1    1    2    0    0 -0.91795276961E+02 -0.68098269113E+02 -0.18876922718E+03  0.25461062087E+03  0.12700000000E+03 0.  0.
   -5000001    1    1    2    0    0  0.91795276961E+02  0.68098269113E+02 -0.20095757383E+03  0.26377394414E+03  0.12700000000E+03 0.  0.
<mgrwt>
<rscale>  0 0.34181220E+03</rscale>
<asrwt>0</asrwt>
<pdfrwt beam="1">  1        2 0.64865096E-01 0.34181220E+03</pdfrwt>
<pdfrwt beam="2">  1       -2 0.91898406E-02 0.34181220E+03</pdfrwt>
<totfact> 0.57390070E+03</totfact>
</mgrwt>
</event>
<event>
 4    1  0.1383574E-004  0.3828955E+03  0.7818608E-02  0.1049869E+00
         -2   -1    0    0    0  501 -0.00000000000E+00  0.00000000000E+00  0.15681830954E+02  0.15681831162E+02  0.25500000000E-02 0. -1.
          2   -1    0    0  501    0  0.00000000000E+00 -0.00000000000E+00 -0.23372428209E+04  0.23372428209E+04  0.25500000000E-02 0.  1.
    5000001    1    1    2    0    0 -0.34577660581E+02 -0.83989120536E+02 -0.47999353453E+03  0.50475001750E+03  0.12700000000E+03 0.  0.
   -5000001    1    1    2    0    0  0.34577660581E+02  0.83989120536E+02 -0.18415674554E+04  0.18481746345E+04  0.12700000000E+03 0.  0.
<mgrwt>
<rscale>  0 0.38289553E+03</rscale>
<asrwt>0</asrwt>
<pdfrwt beam="1">  1        2 0.33389161E+00 0.38289553E+03</pdfrwt>
<pdfrwt beam="2">  1       -2 0.22402631E-02 0.38289553E+03</pdfrwt>
<totfact> 0.39349006E+03</totfact>
</mgrwt>
</event>
<event>
 4    1  0.1383574E-004  0.4535143E+03  0.7818608E-02  0.1026679E+00
         -2   -1    0    0    0  501 -0.00000000000E+00  0.00000000000E+00  0.36287715512E+03  0.36287715513E+03  0.25500000000E-02 0. -1.
          2   -1    0    0  501    0  0.00000000000E+00 -0.00000000000E+00 -0.14169756548E+03  0.14169756551E+03  0.25500000000E-02 0.  1.
    5000001    1    1    2    0    0 -0.16833683907E+03 -0.74392079156E+02  0.68688818357E+02  0.23392012867E+03  0.12700000000E+03 0.  0.
   -5000001    1    1    2    0    0  0.16833683907E+03  0.74392079156E+02  0.15249077128E+03  0.27065459197E+03  0.12700000000E+03 0.  0.
<mgrwt>
<rscale>  0 0.45351432E+03</rscale>
<asrwt>0</asrwt>
<pdfrwt beam="1">  1        2 0.20242510E-01 0.45351432E+03</pdfrwt>
<pdfrwt beam="2">  1       -2 0.51839593E-01 0.45351432E+03</pdfrwt>
<totfact> 0.98593372E+02</totfact>
</mgrwt>
</event>
<event>
 4    1  0.1383574E-004  0.3510182E+03  0.7818608E-02  0.1062198E+00
         -2   -1    0    0    0  501 -0.00000000000E+00  0.00000000000E+00  0.29190478425E+02  0.29190478537E+02  0.25500000000E-02 0. -1.
          2   -1    0    0  501    0  0.00000000000E+00 -0.00000000000E+00 -0.10552563278E+04  0.10552563278E+04  0.25500000000E-02 0.  1.
    5000001    1    1    2    0    0  0.50006132633E+02 -0.10923470762E+03 -0.56105372178E+03  0.58765901114E+03  0.12700000000E+03 0.  0.
   -5000001    1    1    2    0    0 -0.50006132633E+02  0.10923470762E+03 -0.46501212757E+03  0.49678779517E+03  0.12700000000E+03 0.  0.
<mgrwt>
<rscale>  0 0.35101816E+03</rscale>
<asrwt>0</asrwt>
<pdfrwt beam="1">  1        2 0.15075088E+00 0.35101816E+03</pdfrwt>
<pdfrwt beam="2">  1       -2 0.41700690E-02 0.35101816E+03</pdfrwt>
<totfact> 0.70094508E+03</totfact>
</mgrwt>
</event>
<event>
 4    1  0.1383574E-004  0.4996368E+03  0.7818608E-02  0.1013874E+00
          2   -1    0    0  501    0  0.00000000000E+00  0.00000000000E+00  0.11940564017E+04  0.11940564017E+04  0.25500000000E-02 0. -1.
         -2   -1    0    0    0  501 -0.00000000000E+00 -0.00000000000E+00 -0.52266561553E+02  0.52266561616E+02  0.25500000000E-02 0.  1.
    5000001    1    1    2    0    0 -0.16079242822E+03 -0.11200922708E+03  0.34946415484E+03  0.42030282826E+03  0.12700000000E+03 0.  0.
   -5000001    1    1    2    0    0  0.16079242822E+03  0.11200922708E+03  0.79232568528E+03  0.82602013504E+03  0.12700000000E+03 0.  0.
<mgrwt>
<rscale>  0 0.49963676E+03</rscale>
<asrwt>0</asrwt>
<pdfrwt beam="1">  1        2 0.17057948E+00 0.49963676E+03</pdfrwt>
<pdfrwt beam="2">  1       -2 0.74666519E-02 0.49963676E+03</pdfrwt>
<totfact> 0.23803278E+03</totfact>
</mgrwt>
</event>
<event>
 4    1  0.1383574E-004  0.4046319E+03  0.7818608E-02  0.1042188E+00
          2   -1    0    0  501    0  0.00000000000E+00  0.00000000000E+00  0.81889421663E+02  0.81889421703E+02  0.25500000000E-02 0.  1.
         -2   -1    0    0    0  501 -0.00000000000E+00 -0.00000000000E+00 -0.49984170812E+03  0.49984170812E+03  0.25500000000E-02 0. -1.
    5000001    1    1    2    0    0  0.68995187842E+02 -0.83767658170E+02 -0.37305686605E+03  0.40875149151E+03  0.12700000000E+03 0.  0.
   -5000001    1    1    2    0    0 -0.68995187842E+02  0.83767658170E+02 -0.44895420404E+02  0.17297963832E+03  0.12700000000E+03 0.  0.
<mgrwt>
<rscale>  0 0.40463192E+03</rscale>
<asrwt>0</asrwt>
<pdfrwt beam="1">  1        2 0.11698489E-01 0.40463192E+03</pdfrwt>
<pdfrwt beam="2">  1       -2 0.71405957E-01 0.40463192E+03</pdfrwt>
<totfact> 0.97085647E+02</totfact>
</mgrwt>
</event>
<event>
 4    1  0.1383574E-004  0.4732815E+03  0.7818608E-02  0.1020998E+00
          2   -1    0    0  501    0  0.00000000000E+00  0.00000000000E+00  0.29139634035E+04  0.29139634035E+04  0.25500000000E-02 0.  1.
         -2   -1    0    0    0  501 -0.00000000000E+00 -0.00000000000E+00 -0.19217411318E+02  0.19217411487E+02  0.25500000000E-02 0. -1.
    5000001    1    1    2    0    0  0.16460689185E+03 -0.88949185720E+02  0.18795352108E+04  0.18930898011E+04  0.12700000000E+03 0.  0.
   -5000001    1    1    2    0    0 -0.16460689185E+03  0.88949185720E+02  0.10152107814E+04  0.10400910138E+04  0.12700000000E+03 0.  0.
<mgrwt>
<rscale>  0 0.47328145E+03</rscale>
<asrwt>0</asrwt>
<pdfrwt beam="1">  1        2 0.41628032E+00 0.47328145E+03</pdfrwt>
<pdfrwt beam="2">  1       -2 0.27453456E-02 0.47328145E+03</pdfrwt>
<totfact> 0.14574341E+03</totfact>
</mgrwt>
</event>
<event>
 4    1  0.1383574E-004  0.4013816E+03  0.7818608E-02  0.1043302E+00
          2   -1    0    0  501    0  0.00000000000E+00  0.00000000000E+00  0.14699094014E+04  0.14699094014E+04  0.25500000000E-02 0.  1.
         -2   -1    0    0    0  501 -0.00000000000E+00 -0.00000000000E+00 -0.27400873869E+02  0.27400873988E+02  0.25500000000E-02 0. -1.
    5000001    1    1    2    0    0  0.92868620916E+02  0.10522467192E+03  0.47237849133E+03  0.50888825041E+03  0.12700000000E+03 0.  0.
   -5000001    1    1    2    0    0 -0.92868620916E+02 -0.10522467192E+03  0.97013003617E+03  0.98842202495E+03  0.12700000000E+03 0.  0.
<mgrwt>
<rscale>  0 0.40138162E+03</rscale>
<asrwt>0</asrwt>
<pdfrwt beam="1">  1        2 0.20998708E+00 0.40138162E+03</pdfrwt>
<pdfrwt beam="2">  1       -2 0.39144101E-02 0.40138162E+03</pdfrwt>
<totfact> 0.46049070E+03</totfact>
</mgrwt>
</event>
<event>
 4    1  0.1383574E-004  0.4417828E+03  0.7818608E-02  0.1030201E+00
         -2   -1    0    0    0  501 -0.00000000000E+00  0.00000000000E+00  0.10597737015E+03  0.10597737018E+03  0.25500000000E-02 0. -1.
          2   -1    0    0  501    0  0.00000000000E+00 -0.00000000000E+00 -0.46040975774E+03  0.46040975774E+03  0.25500000000E-02 0.  1.
    5000001    1    1    2    0    0 -0.11865211439E+03  0.82738999040E+02 -0.31612751998E+03  0.37012116273E+03  0.12700000000E+03 0.  0.
   -5000001    1    1    2    0    0  0.11865211439E+03 -0.82738999040E+02 -0.38304867603E+02  0.19626596520E+03  0.12700000000E+03 0.  0.
<mgrwt>
<rscale>  0 0.44178282E+03</rscale>
<asrwt>0</asrwt>
<pdfrwt beam="1">  1        2 0.65772822E-01 0.44178282E+03</pdfrwt>
<pdfrwt beam="2">  1       -2 0.15139625E-01 0.44178282E+03</pdfrwt>
<totfact> 0.25196277E+03</totfact>
</mgrwt>
</event>
<event>
 4    1  0.1383574E-004  0.3230767E+03  0.7818608E-02  0.1074242E+00
         -2   -1    0    0    0  501 -0.00000000000E+00  0.00000000000E+00  0.74179935581E+02  0.74179935625E+02  0.25500000000E-02 0. -1.
          2   -1    0    0  501    0  0.00000000000E+00 -0.00000000000E+00 -0.35177484821E+03  0.35177484822E+03  0.25500000000E-02 0.  1.
    5000001    1    1    2    0    0  0.86106510972E+02 -0.22106814664E+02 -0.78919817397E+02  0.17395510934E+03  0.12700000000E+03 0.  0.
   -5000001    1    1    2    0    0 -0.86106510972E+02  0.22106814664E+02 -0.19867509523E+03  0.25199967451E+03  0.12700000000E+03 0.  0.
<mgrwt>
<rscale>  0 0.32307668E+03</rscale>
<asrwt>0</asrwt>
<pdfrwt beam="1">  1        2 0.50253549E-01 0.32307668E+03</pdfrwt>
<pdfrwt beam="2">  1       -2 0.10597134E-01 0.32307668E+03</pdfrwt>
<totfact> 0.60289121E+03</totfact>
</mgrwt>
</event>
<event>
 4    1  0.1383574E-004  0.3220772E+03  0.7818608E-02  0.1074697E+00
         -2   -1    0    0    0  501 -0.00000000000E+00  0.00000000000E+00  0.94069806496E+02  0.94069806530E+02  0.25500000000E-02 0. -1.
          2   -1    0    0  501    0  0.00000000000E+00 -0.00000000000E+00 -0.27568283669E+03  0.27568283670E+03  0.25500000000E-02 0.  1.
    5000001    1    1    2    0    0  0.13945363073E+02  0.73162589965E+02 -0.15901138594E+02  0.14808471876E+03  0.12700000000E+03 0.  0.
   -5000001    1    1    2    0    0 -0.13945363073E+02 -0.73162589965E+02 -0.16571189160E+03  0.22166792447E+03  0.12700000000E+03 0.  0.
<mgrwt>
<rscale>  0 0.32207720E+03</rscale>
<asrwt>0</asrwt>
<pdfrwt beam="1">  1        2 0.39383262E-01 0.32207720E+03</pdfrwt>
<pdfrwt beam="2">  1       -2 0.13438544E-01 0.32207720E+03</pdfrwt>
<totfact> 0.53398240E+03</totfact>
</mgrwt>
</event>
<event>
 4    1  0.1383574E-004  0.2204430E+04  0.7818608E-02  0.8516587E-01
         -2   -1    0    0    0  501 -0.00000000000E+00  0.00000000000E+00  0.99051799120E+03  0.99051799120E+03  0.25500000000E-02 0. -1.
          2   -1    0    0  501    0  0.00000000000E+00 -0.00000000000E+00 -0.12265075637E+04  0.12265075637E+04  0.25500000000E-02 0.  1.
    5000001    1    1    2    0    0 -0.72492411680E+03  0.12496602830E+03  0.69757480949E+03  0.10217001019E+04  0.12700000000E+03 0.  0.
   -5000001    1    1    2    0    0  0.72492411680E+03 -0.12496602830E+03 -0.93356438200E+03  0.11953254530E+04  0.12700000000E+03 0.  0.
<mgrwt>
<rscale>  0 0.22044299E+04</rscale>
<asrwt>0</asrwt>
<pdfrwt beam="1">  1        2 0.17521537E+00 0.22044299E+04</pdfrwt>
<pdfrwt beam="2">  1       -2 0.14150257E+00 0.22044299E+04</pdfrwt>
<totfact> 0.66202702E+00</totfact>
</mgrwt>
</event>
<event>
 4    1  0.1383574E-004  0.3877011E+03  0.7818608E-02  0.1048124E+00
          2   -1    0    0  501    0  0.00000000000E+00  0.00000000000E+00  0.11759146601E+04  0.11759146601E+04  0.25500000000E-02 0.  1.
         -2   -1    0    0    0  501 -0.00000000000E+00 -0.00000000000E+00 -0.31956426742E+02  0.31956426843E+02  0.25500000000E-02 0. -1.
    5000001    1    1    2    0    0 -0.10851924325E+03 -0.81350369871E+02  0.39978852364E+03  0.44085618116E+03  0.12700000000E+03 0.  0.
   -5000001    1    1    2    0    0  0.10851924325E+03  0.81350369871E+02  0.74416970971E+03  0.76701490577E+03  0.12700000000E+03 0.  0.
<mgrwt>
<rscale>  0 0.38770107E+03</rscale>
<asrwt>0</asrwt>
<pdfrwt beam="1">  1        2 0.16798779E+00 0.38770107E+03</pdfrwt>
<pdfrwt beam="2">  1       -2 0.45652045E-02 0.38770107E+03</pdfrwt>
<totfact> 0.52245650E+03</totfact>
</mgrwt>
</event>
<event>
 4    1  0.1383574E-004  0.3289414E+03  0.7818608E-02  0.1071606E+00
          2   -1    0    0  501    0  0.00000000000E+00  0.00000000000E+00  0.17400580440E+04  0.17400580440E+04  0.25500000000E-02 0.  1.
         -2   -1    0    0    0  501 -0.00000000000E+00 -0.00000000000E+00 -0.15545812259E+02  0.15545812468E+02  0.25500000000E-02 0. -1.
    5000001    1    1    2    0    0 -0.93548116382E+02  0.42443562416E+02  0.96476654256E+03  0.97849690225E+03  0.12700000000E+03 0.  0.
   -5000001    1    1    2    0    0  0.93548116382E+02 -0.42443562416E+02  0.75974568922E+03  0.77710695426E+03  0.12700000000E+03 0.  0.
<mgrwt>
<rscale>  0 0.32894143E+03</rscale>
<asrwt>0</asrwt>
<pdfrwt beam="1">  1        2 0.24857975E+00 0.32894143E+03</pdfrwt>
<pdfrwt beam="2">  1       -2 0.22208300E-02 0.32894143E+03</pdfrwt>
<totfact> 0.78634453E+03</totfact>
</mgrwt>
</event>
<event>
 4    1  0.1383574E-004  0.3666789E+03  0.7818608E-02  0.1055970E+00
         -2   -1    0    0    0  501 -0.00000000000E+00  0.00000000000E+00  0.13007128545E+03  0.13007128547E+03  0.25500000000E-02 0. -1.
          2   -1    0    0  501    0  0.00000000000E+00 -0.00000000000E+00 -0.25842254945E+03  0.25842254946E+03  0.25500000000E-02 0.  1.
    5000001    1    1    2    0    0  0.12837876315E+03 -0.31479909466E+02 -0.60465638869E+02  0.19302120353E+03  0.12700000000E+03 0.  0.
   -5000001    1    1    2    0    0 -0.12837876315E+03  0.31479909466E+02 -0.67885625132E+02  0.19547263140E+03  0.12700000000E+03 0.  0.
<mgrwt>
<rscale>  0 0.36667890E+03</rscale>
<asrwt>0</asrwt>
<pdfrwt beam="1">  1        2 0.36917507E-01 0.36667890E+03</pdfrwt>
<pdfrwt beam="2">  1       -2 0.18581612E-01 0.36667890E+03</pdfrwt>
<totfact> 0.33447003E+03</totfact>
</mgrwt>
</event>
<event>
 4    1  0.1383574E-004  0.3206391E+03  0.7818608E-02  0.1075356E+00
          2   -1    0    0  501    0  0.00000000000E+00  0.00000000000E+00  0.39803882850E+03  0.39803882851E+03  0.25500000000E-02 0.  1.
         -2   -1    0    0    0  501 -0.00000000000E+00 -0.00000000000E+00 -0.64572500902E+02  0.64572500952E+02  0.25500000000E-02 0. -1.
    5000001    1    1    2    0    0  0.75569557464E+02 -0.34581271163E+02  0.92227359519E+02  0.17759929103E+03  0.12700000000E+03 0.  0.
   -5000001    1    1    2    0    0 -0.75569557464E+02  0.34581271163E+02  0.24123896808E+03  0.28501203843E+03  0.12700000000E+03 0.  0.
<mgrwt>
<rscale>  0 0.32063913E+03</rscale>
<asrwt>0</asrwt>
<pdfrwt beam="1">  1        2 0.56862691E-01 0.32063913E+03</pdfrwt>
<pdfrwt beam="2">  1       -2 0.92246429E-02 0.32063913E+03</pdfrwt>
<totfact> 0.65756093E+03</totfact>
</mgrwt>
</event>
<event>
 4    1  0.1383574E-004  0.3900356E+03  0.7818608E-02  0.1047286E+00
          2   -1    0    0  501    0  0.00000000000E+00  0.00000000000E+00  0.83537456559E+03  0.83537456560E+03  0.25500000000E-02 0.  1.
         -2   -1    0    0    0  501 -0.00000000000E+00 -0.00000000000E+00 -0.45526812778E+02  0.45526812849E+02  0.25500000000E-02 0. -1.
    5000001    1    1    2    0    0  0.14425582838E+03 -0.22499403393E+02  0.44964217575E+03  0.48951307785E+03  0.12700000000E+03 0.  0.
   -5000001    1    1    2    0    0 -0.14425582838E+03  0.22499403393E+02  0.34020557706E+03  0.39138830059E+03  0.12700000000E+03 0.  0.
<mgrwt>
<rscale>  0 0.39003560E+03</rscale>
<asrwt>0</asrwt>
<pdfrwt beam="1">  1        2 0.11933922E+00 0.39003560E+03</pdfrwt>
<pdfrwt beam="2">  1       -2 0.65038308E-02 0.39003560E+03</pdfrwt>
<totfact> 0.48523559E+03</totfact>
</mgrwt>
</event>
<event>
 4    1  0.1383574E-004  0.4703638E+03  0.7818608E-02  0.1021818E+00
          2   -1    0    0  501    0  0.00000000000E+00  0.00000000000E+00  0.47507058724E+03  0.47507058725E+03  0.25500000000E-02 0.  1.
         -2   -1    0    0    0  501 -0.00000000000E+00 -0.00000000000E+00 -0.11642592012E+03  0.11642592015E+03  0.25500000000E-02 0. -1.
    5000001    1    1    2    0    0 -0.15639753908E+03 -0.18341180677E+02  0.28497684960E+02  0.20429808415E+03  0.12700000000E+03 0.  0.
   -5000001    1    1    2    0    0  0.15639753908E+03  0.18341180677E+02  0.33014698216E+03  0.38719842325E+03  0.12700000000E+03 0.  0.
<mgrwt>
<rscale>  0 0.47036382E+03</rscale>
<asrwt>0</asrwt>
<pdfrwt beam="1">  1        2 0.67867229E-01 0.47036382E+03</pdfrwt>
<pdfrwt beam="2">  1       -2 0.16632274E-01 0.47036382E+03</pdfrwt>
<totfact> 0.20780271E+03</totfact>
</mgrwt>
</event>
<event>
 4    1  0.1383574E-004  0.3801619E+03  0.7818608E-02  0.1050874E+00
          2   -1    0    0  501    0  0.00000000000E+00  0.00000000000E+00  0.90250804335E+03  0.90250804336E+03  0.25500000000E-02 0.  1.
         -2   -1    0    0    0  501 -0.00000000000E+00 -0.00000000000E+00 -0.40033729261E+02  0.40033729342E+02  0.25500000000E-02 0. -1.
    5000001    1    1    2    0    0 -0.12566782006E+03 -0.35182717525E+02  0.29608508837E+03  0.34759977584E+03  0.12700000000E+03 0.  0.
   -5000001    1    1    2    0    0  0.12566782006E+03  0.35182717525E+02  0.56638922573E+03  0.59494199686E+03  0.12700000000E+03 0.  0.
<mgrwt>
<rscale>  0 0.38016187E+03</rscale>
<asrwt>0</asrwt>
<pdfrwt beam="1">  1        2 0.12892971E+00 0.38016187E+03</pdfrwt>
<pdfrwt beam="2">  1       -2 0.57191045E-02 0.38016187E+03</pdfrwt>
<totfact> 0.53557198E+03</totfact>
</mgrwt>
</event>
<event>
 4    1  0.1383574E-004  0.4706048E+03  0.7818608E-02  0.1021750E+00
         -2   -1    0    0    0  501 -0.00000000000E+00  0.00000000000E+00  0.13532625535E+03  0.13532625537E+03  0.25500000000E-02 0. -1.
          2   -1    0    0  501    0  0.00000000000E+00 -0.00000000000E+00 -0.40913878646E+03  0.40913878647E+03  0.25500000000E-02 0.  1.
    5000001    1    1    2    0    0  0.19053243510E+03  0.53745233407E+02 -0.12896949148E+03  0.26824110176E+03  0.12700000000E+03 0.  0.
   -5000001    1    1    2    0    0 -0.19053243510E+03 -0.53745233407E+02 -0.14484303963E+03  0.27622394007E+03  0.12700000000E+03 0.  0.
<mgrwt>
<rscale>  0 0.47060480E+03</rscale>
<asrwt>0</asrwt>
<pdfrwt beam="1">  1        2 0.58448397E-01 0.47060480E+03</pdfrwt>
<pdfrwt beam="2">  1       -2 0.19332322E-01 0.47060480E+03</pdfrwt>
<totfact> 0.18974234E+03</totfact>
</mgrwt>
</event>
<event>
 4    1  0.1383574E-004  0.3433838E+03  0.7818608E-02  0.1065364E+00
         -2   -1    0    0    0  501 -0.00000000000E+00  0.00000000000E+00  0.25220927561E+02  0.25220927690E+02  0.25500000000E-02 0. -1.
          2   -1    0    0  501    0  0.00000000000E+00 -0.00000000000E+00 -0.11687953297E+04  0.11687953297E+04  0.25500000000E-02 0.  1.
    5000001    1    1    2    0    0  0.11260718712E+03 -0.23675744361E+02 -0.53562041539E+03  0.56236922822E+03  0.12700000000E+03 0.  0.
   -5000001    1    1    2    0    0 -0.11260718712E+03  0.23675744361E+02 -0.60795398673E+03  0.63164702916E+03  0.12700000000E+03 0.  0.
<mgrwt>
<rscale>  0 0.34338376E+03</rscale>
<asrwt>0</asrwt>
<pdfrwt beam="1">  1        2 0.16697073E+00 0.34338376E+03</pdfrwt>
<pdfrwt beam="2">  1       -2 0.36029904E-02 0.34338376E+03</pdfrwt>
<totfact> 0.75365456E+03</totfact>
</mgrwt>
</event>
<event>
 4    1  0.1383574E-004  0.3330033E+03  0.7818608E-02  0.1069816E+00
          2   -1    0    0  501    0  0.00000000000E+00  0.00000000000E+00  0.29423876642E+04  0.29423876642E+04  0.25500000000E-02 0.  1.
         -2   -1    0    0    0  501 -0.00000000000E+00 -0.00000000000E+00 -0.94218733193E+01  0.94218736644E+01  0.25500000000E-02 0. -1.
    5000001    1    1    2    0    0  0.81007505848E+02  0.44308694478E+02  0.97547254993E+03  0.98802893282E+03  0.12700000000E+03 0.  0.
   -5000001    1    1    2    0    0 -0.81007505848E+02 -0.44308694478E+02  0.19574932409E+04  0.19637806051E+04  0.12700000000E+03 0.  0.
<mgrwt>
<rscale>  0 0.33300333E+03</rscale>
<asrwt>0</asrwt>
<pdfrwt beam="1">  1        2 0.42034139E+00 0.33300333E+03</pdfrwt>
<pdfrwt beam="2">  1       -2 0.13459810E-02 0.33300333E+03</pdfrwt>
<totfact> 0.41037889E+03</totfact>
</mgrwt>
</event>
<event>
 4    1  0.1383574E-004  0.4698009E+03  0.7818608E-02  0.1021976E+00
          2   -1    0    0  501    0  0.00000000000E+00  0.00000000000E+00  0.30913645386E+04  0.30913645387E+04  0.25500000000E-02 0.  1.
         -2   -1    0    0    0  501 -0.00000000000E+00 -0.00000000000E+00 -0.17849149654E+02  0.17849149836E+02  0.25500000000E-02 0. -1.
    5000001    1    1    2    0    0 -0.12847710953E+03  0.14151588629E+03  0.18687300551E+04  0.18827676789E+04  0.12700000000E+03 0.  0.
   -5000001    1    1    2    0    0  0.12847710953E+03 -0.14151588629E+03  0.12047853339E+04  0.12264460096E+04  0.12700000000E+03 0.  0.
<mgrwt>
<rscale>  0 0.46980093E+03</rscale>
<asrwt>0</asrwt>
<pdfrwt beam="1">  1        2 0.44162397E+00 0.46980093E+03</pdfrwt>
<pdfrwt beam="2">  1       -2 0.25498759E-02 0.46980093E+03</pdfrwt>
<totfact> 0.13067056E+03</totfact>
</mgrwt>
</event>
<event>
 4    1  0.1383574E-004  0.3209885E+03  0.7818608E-02  0.1075195E+00
         -2   -1    0    0    0  501 -0.00000000000E+00  0.00000000000E+00  0.74259179303E+01  0.74259183681E+01  0.25500000000E-02 0. -1.
          2   -1    0    0  501    0  0.00000000000E+00 -0.00000000000E+00 -0.34687169578E+04  0.34687169578E+04  0.25500000000E-02 0.  1.
    5000001    1    1    2    0    0 -0.65282993499E+02 -0.64674481033E+02 -0.13578921673E+04  0.13669106759E+04  0.12700000000E+03 0.  0.
   -5000001    1    1    2    0    0  0.65282993499E+02  0.64674481033E+02 -0.21033988725E+04  0.21092322003E+04  0.12700000000E+03 0.  0.
<mgrwt>
<rscale>  0 0.32098852E+03</rscale>
<asrwt>0</asrwt>
<pdfrwt beam="1">  1        2 0.49552995E+00 0.32098852E+03</pdfrwt>
<pdfrwt beam="2">  1       -2 0.10608477E-02 0.32098852E+03</pdfrwt>
<totfact> 0.29806236E+03</totfact>
</mgrwt>
</event>
<event>
 4    1  0.1383574E-004  0.4636599E+03  0.7818608E-02  0.1023725E+00
         -2   -1    0    0    0  501 -0.00000000000E+00  0.00000000000E+00  0.28423587685E+02  0.28423587799E+02  0.25500000000E-02 0. -1.
          2   -1    0    0  501    0  0.00000000000E+00 -0.00000000000E+00 -0.18908637787E+04  0.18908637787E+04  0.25500000000E-02 0.  1.
    5000001    1    1    2    0    0 -0.15629926001E+03 -0.29725650888E+02 -0.13903620752E+04  0.14051863838E+04  0.12700000000E+03 0.  0.
   -5000001    1    1    2    0    0  0.15629926001E+03  0.29725650888E+02 -0.47207811578E+03  0.51410098269E+03  0.12700000000E+03 0.  0.
<mgrwt>
<rscale>  0 0.46365993E+03</rscale>
<asrwt>0</asrwt>
<pdfrwt beam="1">  1        2 0.27012332E+00 0.46365993E+03</pdfrwt>
<pdfrwt beam="2">  1       -2 0.40605137E-02 0.46365993E+03</pdfrwt>
<totfact> 0.26686991E+03</totfact>
</mgrwt>
</event>
<event>
 4    1  0.1383574E-004  0.4282526E+03  0.7818608E-02  0.1034413E+00
         -2   -1    0    0    0  501 -0.00000000000E+00  0.00000000000E+00  0.28764785527E+03  0.28764785528E+03  0.25500000000E-02 0. -1.
          2   -1    0    0  501    0  0.00000000000E+00 -0.00000000000E+00 -0.15939653290E+03  0.15939653292E+03  0.25500000000E-02 0.  1.
    5000001    1    1    2    0    0  0.16049767330E+03 -0.42956635133E+02  0.11214749819E+03  0.23729904549E+03  0.12700000000E+03 0.  0.
   -5000001    1    1    2    0    0 -0.16049767330E+03  0.42956635133E+02  0.16103824179E+02  0.20974534272E+03  0.12700000000E+03 0.  0.
<mgrwt>
<rscale>  0 0.42825259E+03</rscale>
<asrwt>0</asrwt>
<pdfrwt beam="1">  1        2 0.22770933E-01 0.42825259E+03</pdfrwt>
<pdfrwt beam="2">  1       -2 0.41092551E-01 0.42825259E+03</pdfrwt>
<totfact> 0.13642656E+03</totfact>
</mgrwt>
</event>
<event>
 4    1  0.1383574E-004  0.3887905E+03  0.7818608E-02  0.1047732E+00
          2   -1    0    0  501    0  0.00000000000E+00  0.00000000000E+00  0.11702600038E+04  0.11702600038E+04  0.25500000000E-02 0.  1.
         -2   -1    0    0    0  501 -0.00000000000E+00 -0.00000000000E+00 -0.32291560199E+02  0.32291560300E+02  0.25500000000E-02 0. -1.
    5000001    1    1    2    0    0  0.41297092127E+02 -0.10160463942E+03  0.26542982151E+03  0.31402379323E+03  0.12700000000E+03 0.  0.
   -5000001    1    1    2    0    0 -0.41297092127E+02  0.10160463942E+03  0.87253862208E+03  0.88852777086E+03  0.12700000000E+03 0.  0.
<mgrwt>
<rscale>  0 0.38879054E+03</rscale>
<asrwt>0</asrwt>
<pdfrwt beam="1">  1        2 0.16718002E+00 0.38879054E+03</pdfrwt>
<pdfrwt beam="2">  1       -2 0.46130794E-02 0.38879054E+03</pdfrwt>
<totfact> 0.51794535E+03</totfact>
</mgrwt>
</event>
<event>
 4    1  0.1383574E-004  0.4073393E+03  0.7818608E-02  0.1041268E+00
          2   -1    0    0  501    0  0.00000000000E+00  0.00000000000E+00  0.83514348059E+03  0.83514348059E+03  0.25500000000E-02 0.  1.
         -2   -1    0    0    0  501 -0.00000000000E+00 -0.00000000000E+00 -0.49669696027E+02  0.49669696093E+02  0.25500000000E-02 0. -1.
    5000001    1    1    2    0    0 -0.66959328931E+02  0.43516888594E+02  0.93519544582E+02  0.17678285138E+03  0.12700000000E+03 0.  0.
   -5000001    1    1    2    0    0  0.66959328931E+02 -0.43516888594E+02  0.69195423998E+03  0.70803032530E+03  0.12700000000E+03 0.  0.
<mgrwt>
<rscale>  0 0.40733928E+03</rscale>
<asrwt>0</asrwt>
<pdfrwt beam="1">  1        2 0.11930620E+00 0.40733928E+03</pdfrwt>
<pdfrwt beam="2">  1       -2 0.70956715E-02 0.40733928E+03</pdfrwt>
<totfact> 0.42397708E+03</totfact>
</mgrwt>
</event>
<event>
 4    1  0.1383574E-004  0.7086543E+03  0.7818608E-02  0.9702546E-01
         -2   -1    0    0    0  501 -0.00000000000E+00  0.00000000000E+00  0.10421485390E+03  0.10421485393E+03  0.25500000000E-02 0. -1.
          2   -1    0    0  501    0  0.00000000000E+00 -0.00000000000E+00 -0.12047010327E+04  0.12047010327E+04  0.25500000000E-02 0.  1.
    5000001    1    1    2    0    0  0.24942683854E+03 -0.21642750420E+03 -0.51499745055E+03  0.62482476458E+03  0.12700000000E+03 0.  0.
   -5000001    1    1    2    0    0 -0.24942683854E+03  0.21642750420E+03 -0.58548872821E+03  0.68409112202E+03  0.12700000000E+03 0.  0.
<mgrwt>
<rscale>  0 0.70865434E+03</rscale>
<asrwt>0</asrwt>
<pdfrwt beam="1">  1        2 0.17210014E+00 0.70865434E+03</pdfrwt>
<pdfrwt beam="2">  1       -2 0.14887837E-01 0.70865434E+03</pdfrwt>
<totfact> 0.75847558E+02</totfact>
</mgrwt>
</event>
<event>
 4    1  0.1383574E-004  0.5584129E+03  0.7818608E-02  0.9995652E-01
          2   -1    0    0  501    0  0.00000000000E+00  0.00000000000E+00  0.96333836538E+03  0.96333836538E+03  0.25500000000E-02 0.  1.
         -2   -1    0    0    0  501 -0.00000000000E+00 -0.00000000000E+00 -0.80923018831E+02  0.80923018871E+02  0.25500000000E-02 0. -1.
    5000001    1    1    2    0    0  0.18163283684E+03  0.15728479769E+03  0.56092394311E+03  0.62329259979E+03  0.12700000000E+03 0.  0.
   -5000001    1    1    2    0    0 -0.18163283684E+03 -0.15728479769E+03  0.32149140344E+03  0.42096878446E+03  0.12700000000E+03 0.  0.
<mgrwt>
<rscale>  0 0.55841293E+03</rscale>
<asrwt>0</asrwt>
<pdfrwt beam="1">  1        2 0.13761976E+00 0.55841293E+03</pdfrwt>
<pdfrwt beam="2">  1       -2 0.11560432E-01 0.55841293E+03</pdfrwt>
<totfact> 0.16080806E+03</totfact>
</mgrwt>
</event>
<event>
 4    1  0.1383574E-004  0.6112034E+03  0.7818608E-02  0.9882431E-01
          2   -1    0    0  501    0  0.00000000000E+00  0.00000000000E+00  0.57726846012E+02  0.57726846068E+02  0.25500000000E-02 0.  1.
         -2   -1    0    0    0  501 -0.00000000000E+00 -0.00000000000E+00 -0.16178328138E+04  0.16178328138E+04  0.25500000000E-02 0. -1.
    5000001    1    1    2    0    0 -0.96964578261E+02 -0.26013331300E+03 -0.81803075942E+03  0.87314076375E+03  0.12700000000E+03 0.  0.
   -5000001    1    1    2    0    0  0.96964578261E+02  0.26013331300E+03 -0.74207520838E+03  0.80241889613E+03  0.12700000000E+03 0.  0.
<mgrwt>
<rscale>  0 0.61120336E+03</rscale>
<asrwt>0</asrwt>
<pdfrwt beam="1">  1        2 0.82466933E-02 0.61120336E+03</pdfrwt>
<pdfrwt beam="2">  1       -2 0.23111894E+00 0.61120336E+03</pdfrwt>
<totfact> 0.74027011E+01</totfact>
</mgrwt>
</event>
<event>
 4    1  0.1383574E-004  0.5438842E+03  0.7818608E-02  0.1002919E+00
         -2   -1    0    0    0  501 -0.00000000000E+00  0.00000000000E+00  0.94057706144E+03  0.94057706144E+03  0.25500000000E-02 0. -1.
          2   -1    0    0  501    0  0.00000000000E+00 -0.00000000000E+00 -0.78624618513E+02  0.78624618554E+02  0.25500000000E-02 0.  1.
    5000001    1    1    2    0    0  0.23872304063E+03 -0.18800269136E+02  0.47209065087E+03  0.54437186085E+03  0.12700000000E+03 0.  0.
   -5000001    1    1    2    0    0 -0.23872304063E+03  0.18800269136E+02  0.38986179206E+03  0.47482981915E+03  0.12700000000E+03 0.  0.
<mgrwt>
<rscale>  0 0.54388423E+03</rscale>
<asrwt>0</asrwt>
<pdfrwt beam="1">  1        2 0.11232089E-01 0.54388423E+03</pdfrwt>
<pdfrwt beam="2">  1       -2 0.13436814E+00 0.54388423E+03</pdfrwt>
<totfact> 0.23246524E+02</totfact>
</mgrwt>
</event>
<event>
 4    1  0.1383574E-004  0.3565193E+03  0.7818608E-02  0.1059971E+00
         -2   -1    0    0    0  501 -0.00000000000E+00  0.00000000000E+00  0.30419995271E+02  0.30419995378E+02  0.25500000000E-02 0. -1.
          2   -1    0    0  501    0  0.00000000000E+00 -0.00000000000E+00 -0.10445926641E+04  0.10445926641E+04  0.25500000000E-02 0.  1.
    5000001    1    1    2    0    0 -0.34460962655E+02  0.11549226766E+03 -0.40610834860E+03  0.44224316008E+03  0.12700000000E+03 0.  0.
   -5000001    1    1    2    0    0  0.34460962655E+02 -0.11549226766E+03 -0.60806432025E+03  0.63276949942E+03  0.12700000000E+03 0.  0.
<mgrwt>
<rscale>  0 0.35651931E+03</rscale>
<asrwt>0</asrwt>
<pdfrwt beam="1">  1        2 0.14922750E+00 0.35651931E+03</pdfrwt>
<pdfrwt beam="2">  1       -2 0.43457143E-02 0.35651931E+03</pdfrwt>
<totfact> 0.66804011E+03</totfact>
</mgrwt>
</event>
<event>
 4    1  0.1383574E-004  0.5106672E+03  0.7818608E-02  0.1011032E+00
         -2   -1    0    0    0  501 -0.00000000000E+00  0.00000000000E+00  0.99612619309E+02  0.99612619341E+02  0.25500000000E-02 0. -1.
          2   -1    0    0  501    0  0.00000000000E+00 -0.00000000000E+00 -0.65448777707E+03  0.65448777708E+03  0.25500000000E-02 0.  1.
    5000001    1    1    2    0    0 -0.13402458214E+03  0.88260272862E+02 -0.50291213784E+03  0.54295679641E+03  0.12700000000E+03 0.  0.
   -5000001    1    1    2    0    0  0.13402458214E+03 -0.88260272862E+02 -0.51963019926E+02  0.21114360001E+03  0.12700000000E+03 0.  0.
<mgrwt>
<rscale>  0 0.51066718E+03</rscale>
<asrwt>0</asrwt>
<pdfrwt beam="1">  1        2 0.93498251E-01 0.51066718E+03</pdfrwt>
<pdfrwt beam="2">  1       -2 0.14230375E-01 0.51066718E+03</pdfrwt>
<totfact> 0.18671550E+03</totfact>
</mgrwt>
</event>
<event>
 4    1  0.1383574E-004  0.3246271E+03  0.7818608E-02  0.1073539E+00
          2   -1    0    0  501    0  0.00000000000E+00  0.00000000000E+00  0.11242787786E+03  0.11242787789E+03  0.25500000000E-02 0.  1.
         -2   -1    0    0    0  501 -0.00000000000E+00 -0.00000000000E+00 -0.23433409447E+03  0.23433409448E+03  0.25500000000E-02 0. -1.
    5000001    1    1    2    0    0  0.45182624372E+01 -0.10092167045E+03 -0.57396403625E+02  0.17213060568E+03  0.12700000000E+03 0.  0.
   -5000001    1    1    2    0    0 -0.45182624372E+01  0.10092167045E+03 -0.64509812979E+02  0.17463136669E+03  0.12700000000E+03 0.  0.
<mgrwt>
<rscale>  0 0.32462708E+03</rscale>
<asrwt>0</asrwt>
<pdfrwt beam="1">  1        2 0.16061126E-01 0.32462708E+03</pdfrwt>
<pdfrwt beam="2">  1       -2 0.33476299E-01 0.32462708E+03</pdfrwt>
<totfact> 0.30058111E+03</totfact>
</mgrwt>
</event>
<event>
 4    1  0.1383574E-004  0.3076234E+03  0.7818608E-02  0.1081491E+00
          2   -1    0    0  501    0  0.00000000000E+00  0.00000000000E+00  0.22604636313E+04  0.22604636313E+04  0.25500000000E-02 0.  1.
         -2   -1    0    0    0  501 -0.00000000000E+00 -0.00000000000E+00 -0.10466014140E+02  0.10466014450E+02  0.25500000000E-02 0. -1.
    5000001    1    1    2    0    0 -0.11578479677E+01  0.84907148735E+02  0.99325644400E+03  0.10049367781E+04  0.12700000000E+03 0.  0.
   -5000001    1    1    2    0    0  0.11578479677E+01 -0.84907148735E+02  0.12567411732E+04  0.12659928676E+04  0.12700000000E+03 0.  0.
<mgrwt>
<rscale>  0 0.30762344E+03</rscale>
<asrwt>0</asrwt>
<pdfrwt beam="1">  1        2 0.32292373E+00 0.30762344E+03</pdfrwt>
<pdfrwt beam="2">  1       -2 0.14951433E-02 0.30762344E+03</pdfrwt>
<totfact> 0.78168378E+03</totfact>
</mgrwt>
</event>
<event>
 4    1  0.1383574E-004  0.3623136E+03  0.7818608E-02  0.1057671E+00
         -2   -1    0    0    0  501 -0.00000000000E+00  0.00000000000E+00  0.30895498971E+02  0.30895499076E+02  0.25500000000E-02 0. -1.
          2   -1    0    0  501    0  0.00000000000E+00 -0.00000000000E+00 -0.10622192930E+04  0.10622192930E+04  0.25500000000E-02 0.  1.
    5000001    1    1    2    0    0  0.12698955235E+02 -0.12369121828E+03 -0.40993566168E+03  0.44680759579E+03  0.12700000000E+03 0.  0.
   -5000001    1    1    2    0    0 -0.12698955235E+02  0.12369121828E+03 -0.62138813235E+03  0.64630719628E+03  0.12700000000E+03 0.  0.
<mgrwt>
<rscale>  0 0.36231365E+03</rscale>
<asrwt>0</asrwt>
<pdfrwt beam="1">  1        2 0.15174559E+00 0.36231365E+03</pdfrwt>
<pdfrwt beam="2">  1       -2 0.44136434E-02 0.36231365E+03</pdfrwt>
<totfact> 0.63742097E+03</totfact>
</mgrwt>
</event>
<event>
 4    1  0.1383574E-004  0.4853362E+03  0.7818608E-02  0.1017679E+00
         -2   -1    0    0    0  501 -0.00000000000E+00  0.00000000000E+00  0.19009496197E+03  0.19009496198E+03  0.25500000000E-02 0. -1.
          2   -1    0    0  501    0  0.00000000000E+00 -0.00000000000E+00 -0.30978102646E+03  0.30978102648E+03  0.25500000000E-02 0.  1.
    5000001    1    1    2    0    0  0.82044251931E+02 -0.14749174786E+03 -0.18289496009E+03  0.27940050356E+03  0.12700000000E+03 0.  0.
   -5000001    1    1    2    0    0 -0.82044251931E+02  0.14749174786E+03  0.63208895589E+02  0.22047548490E+03  0.12700000000E+03 0.  0.
<mgrwt>
<rscale>  0 0.48533622E+03</rscale>
<asrwt>0</asrwt>
<pdfrwt beam="1">  1        2 0.44254433E-01 0.48533622E+03</pdfrwt>
<pdfrwt beam="2">  1       -2 0.27156423E-01 0.48533622E+03</pdfrwt>
<totfact> 0.14139824E+03</totfact>
</mgrwt>
</event>
<event>
 4    1  0.1383574E-004  0.6408238E+03  0.7818608E-02  0.9824152E-01
          2   -1    0    0  501    0  0.00000000000E+00  0.00000000000E+00  0.21626743713E+04  0.21626743713E+04  0.25500000000E-02 0. -1.
         -2   -1    0    0    0  501 -0.00000000000E+00 -0.00000000000E+00 -0.47470759437E+02  0.47470759506E+02  0.25500000000E-02 0.  1.
    5000001    1    1    2    0    0 -0.91016732685E+02 -0.27973330625E+03  0.10570388612E+04  0.11045338031E+04  0.12700000000E+03 0.  0.
   -5000001    1    1    2    0    0  0.91016732685E+02  0.27973330625E+03  0.10581647507E+04  0.11056113276E+04  0.12700000000E+03 0.  0.
<mgrwt>
<rscale>  0 0.64082383E+03</rscale>
<asrwt>0</asrwt>
<pdfrwt beam="1">  1        2 0.30895357E+00 0.64082383E+03</pdfrwt>
<pdfrwt beam="2">  1       -2 0.67815351E-02 0.64082383E+03</pdfrwt>
<totfact> 0.87219364E+02</totfact>
</mgrwt>
</event>
<event>
 4    1  0.1383574E-004  0.2977363E+03  0.7818608E-02  0.1086378E+00
         -2   -1    0    0    0  501 -0.00000000000E+00  0.00000000000E+00  0.89025802171E+03  0.89025802171E+03  0.25500000000E-02 0. -1.
          2   -1    0    0  501    0  0.00000000000E+00 -0.00000000000E+00 -0.24893602778E+02  0.24893602909E+02  0.25500000000E-02 0.  1.
    5000001    1    1    2    0    0 -0.81191461677E+01  0.40671946803E+02  0.63453321390E+03  0.64844546983E+03  0.12700000000E+03 0.  0.
   -5000001    1    1    2    0    0  0.81191461677E+01 -0.40671946803E+02  0.23083120502E+03  0.26670615479E+03  0.12700000000E+03 0.  0.
<mgrwt>
<rscale>  0 0.29773632E+03</rscale>
<asrwt>0</asrwt>
<pdfrwt beam="1">  1        2 0.35562291E-02 0.29773632E+03</pdfrwt>
<pdfrwt beam="2">  1       -2 0.12717971E+00 0.29773632E+03</pdfrwt>
<totfact> 0.11999855E+03</totfact>
</mgrwt>
</event>
<event>
 4    1  0.1383574E-004  0.3891431E+03  0.7818608E-02  0.1047605E+00
          2   -1    0    0  501    0  0.00000000000E+00  0.00000000000E+00  0.23075192720E+04  0.23075192720E+04  0.25500000000E-02 0.  1.
         -2   -1    0    0    0  501 -0.00000000000E+00 -0.00000000000E+00 -0.16406401269E+02  0.16406401467E+02  0.25500000000E-02 0. -1.
    5000001    1    1    2    0    0 -0.14530969992E+03 -0.22515485090E+02  0.12073970594E+04  0.12229302985E+04  0.12700000000E+03 0.  0.
   -5000001    1    1    2    0    0  0.14530969992E+03  0.22515485090E+02  0.10837158113E+04  0.11009953750E+04  0.12700000000E+03 0.  0.
<mgrwt>
<rscale>  0 0.38914310E+03</rscale>
<asrwt>0</asrwt>
<pdfrwt beam="1">  1        2 0.32964526E+00 0.38914310E+03</pdfrwt>
<pdfrwt beam="2">  1       -2 0.23437741E-02 0.38914310E+03</pdfrwt>
<totfact> 0.38055392E+03</totfact>
</mgrwt>
</event>
<event>
 4    1  0.1383574E-004  0.4212944E+03  0.7818608E-02  0.1036646E+00
          2   -1    0    0  501    0  0.00000000000E+00  0.00000000000E+00  0.18052286331E+04  0.18052286331E+04  0.25500000000E-02 0.  1.
         -2   -1    0    0    0  501 -0.00000000000E+00 -0.00000000000E+00 -0.24579842990E+02  0.24579843122E+02  0.25500000000E-02 0. -1.
    5000001    1    1    2    0    0 -0.99586169544E+02  0.13474762306E+03  0.94677217805E+03  0.96983549338E+03  0.12700000000E+03 0.  0.
   -5000001    1    1    2    0    0  0.99586169544E+02 -0.13474762306E+03  0.83387661205E+03  0.85997298284E+03  0.12700000000E+03 0.  0.
<mgrwt>
<rscale>  0 0.42129437E+03</rscale>
<asrwt>0</asrwt>
<pdfrwt beam="1">  1        2 0.25788988E+00 0.42129437E+03</pdfrwt>
<pdfrwt beam="2">  1       -2 0.35114051E-02 0.42129437E+03</pdfrwt>
<totfact> 0.36759160E+03</totfact>
</mgrwt>
</event>
<event>
 4    1  0.1383574E-004  0.3973699E+03  0.7818608E-02  0.1044694E+00
          2   -1    0    0  501    0  0.00000000000E+00  0.00000000000E+00  0.28622424015E+04  0.28622424015E+04  0.25500000000E-02 0.  1.
         -2   -1    0    0    0  501 -0.00000000000E+00 -0.00000000000E+00 -0.13791881272E+02  0.13791881508E+02  0.25500000000E-02 0. -1.
    5000001    1    1    2    0    0  0.40474552896E+02  0.11230976261E+03  0.73398339015E+03  0.75439531363E+03  0.12700000000E+03 0.  0.
   -5000001    1    1    2    0    0 -0.40474552896E+02 -0.11230976261E+03  0.21144671301E+04  0.21216389694E+04  0.12700000000E+03 0.  0.
<mgrwt>
<rscale>  0 0.39736989E+03</rscale>
<asrwt>0</asrwt>
<pdfrwt beam="1">  1        2 0.40889167E+00 0.39736989E+03</pdfrwt>
<pdfrwt beam="2">  1       -2 0.19702692E-02 0.39736989E+03</pdfrwt>
<totfact> 0.25659783E+03</totfact>
</mgrwt>
</event>
<event>
 4    1  0.1383574E-004  0.6545657E+03  0.7818608E-02  0.9798250E-01
          2   -1    0    0  501    0  0.00000000000E+00  0.00000000000E+00  0.12591984225E+03  0.12591984227E+03  0.25500000000E-02 0.  1.
         -2   -1    0    0    0  501 -0.00000000000E+00 -0.00000000000E+00 -0.85065268733E+03  0.85065268733E+03  0.25500000000E-02 0. -1.
    5000001    1    1    2    0    0 -0.14546273100E+03 -0.19943508097E+03 -0.10373405453E+03  0.29635031922E+03  0.12700000000E+03 0.  0.
   -5000001    1    1    2    0    0  0.14546273100E+03  0.19943508097E+03 -0.62099879055E+03  0.68022221038E+03  0.12700000000E+03 0.  0.
<mgrwt>
<rscale>  0 0.65456566E+03</rscale>
<asrwt>0</asrwt>
<pdfrwt beam="1">  1        2 0.17988549E-01 0.65456566E+03</pdfrwt>
<pdfrwt beam="2">  1       -2 0.12152181E+00 0.65456566E+03</pdfrwt>
<totfact> 0.16781543E+02</totfact>
</mgrwt>
</event>
<event>
 4    1  0.1383574E-004  0.2766428E+03  0.7818608E-02  0.1097537E+00
         -2   -1    0    0    0  501 -0.00000000000E+00  0.00000000000E+00  0.75992350347E+03  0.75992350347E+03  0.25500000000E-02 0. -1.
          2   -1    0    0  501    0  0.00000000000E+00 -0.00000000000E+00 -0.25177286447E+02  0.25177286576E+02  0.25500000000E-02 0.  1.
    5000001    1    1    2    0    0  0.53258212034E+02  0.12783937083E+02  0.36173593379E+03  0.38727477582E+03  0.12700000000E+03 0.  0.
   -5000001    1    1    2    0    0 -0.53258212034E+02 -0.12783937083E+02  0.37301028324E+03  0.39782601423E+03  0.12700000000E+03 0.  0.
<mgrwt>
<rscale>  0 0.27664282E+03</rscale>
<asrwt>0</asrwt>
<pdfrwt beam="1">  1        2 0.35967543E-02 0.27664282E+03</pdfrwt>
<pdfrwt beam="2">  1       -2 0.10856053E+00 0.27664282E+03</pdfrwt>
<totfact> 0.17288509E+03</totfact>
</mgrwt>
</event>
<event>
 4    1  0.1383574E-004  0.4618067E+03  0.7818608E-02  0.1024259E+00
          2   -1    0    0  501    0  0.00000000000E+00  0.00000000000E+00  0.40648608573E+03  0.40648608574E+03  0.25500000000E-02 0.  1.
         -2   -1    0    0    0  501 -0.00000000000E+00 -0.00000000000E+00 -0.13116401849E+03  0.13116401852E+03  0.25500000000E-02 0. -1.
    5000001    1    1    2    0    0  0.49457906244E+02  0.12801686859E+02 -0.78827842663E+02  0.15796454177E+03  0.12700000000E+03 0.  0.
   -5000001    1    1    2    0    0 -0.49457906244E+02 -0.12801686859E+02  0.35414990990E+03  0.37968556248E+03  0.12700000000E+03 0.  0.
<mgrwt>
<rscale>  0 0.46180666E+03</rscale>
<asrwt>0</asrwt>
<pdfrwt beam="1">  1        2 0.58069440E-01 0.46180666E+03</pdfrwt>
<pdfrwt beam="2">  1       -2 0.18737717E-01 0.46180666E+03</pdfrwt>
<totfact> 0.20163508E+03</totfact>
</mgrwt>
</event>
<event>
 4    1  0.1383574E-004  0.4580828E+03  0.7818608E-02  0.1025339E+00
          2   -1    0    0  501    0  0.00000000000E+00  0.00000000000E+00  0.12157960256E+03  0.12157960259E+03  0.25500000000E-02 0.  1.
         -2   -1    0    0    0  501 -0.00000000000E+00 -0.00000000000E+00 -0.43148664004E+03  0.43148664005E+03  0.25500000000E-02 0. -1.
    5000001    1    1    2    0    0  0.15485473391E+03  0.22144944804E+02 -0.28644154656E+03  0.35021157432E+03  0.12700000000E+03 0.  0.
   -5000001    1    1    2    0    0 -0.15485473391E+03 -0.22144944804E+02 -0.23465490913E+02  0.20285466832E+03  0.12700000000E+03 0.  0.
<mgrwt>
<rscale>  0 0.45808285E+03</rscale>
<asrwt>0</asrwt>
<pdfrwt beam="1">  1        2 0.17368515E-01 0.45808285E+03</pdfrwt>
<pdfrwt beam="2">  1       -2 0.61640948E-01 0.45808285E+03</pdfrwt>
<totfact> 0.82478077E+02</totfact>
</mgrwt>
</event>
<event>
 4    1  0.1383574E-004  0.3177704E+03  0.7818608E-02  0.1076680E+00
         -2   -1    0    0    0  501 -0.00000000000E+00  0.00000000000E+00  0.45175928230E+02  0.45175928302E+02  0.25500000000E-02 0. -1.
          2   -1    0    0  501    0  0.00000000000E+00 -0.00000000000E+00 -0.55880424279E+03  0.55880424279E+03  0.25500000000E-02 0.  1.
    5000001    1    1    2    0    0 -0.66863220487E+02 -0.26674214258E+02 -0.37601728040E+03  0.40336112743E+03  0.12700000000E+03 0.  0.
   -5000001    1    1    2    0    0  0.66863220487E+02  0.26674214258E+02 -0.13761103416E+03  0.20061904367E+03  0.12700000000E+03 0.  0.
<mgrwt>
<rscale>  0 0.31777036E+03</rscale>
<asrwt>0</asrwt>
<pdfrwt beam="1">  1        2 0.79829173E-01 0.31777036E+03</pdfrwt>
<pdfrwt beam="2">  1       -2 0.64537044E-02 0.31777036E+03</pdfrwt>
<totfact> 0.79014423E+03</totfact>
</mgrwt>
</event>
<event>
 4    1  0.1383574E-004  0.4102164E+03  0.7818608E-02  0.1040298E+00
         -2   -1    0    0    0  501 -0.00000000000E+00  0.00000000000E+00  0.30401665943E+03  0.30401665944E+03  0.25500000000E-02 0. -1.
          2   -1    0    0  501    0  0.00000000000E+00 -0.00000000000E+00 -0.13837851058E+03  0.13837851061E+03  0.25500000000E-02 0.  1.
    5000001    1    1    2    0    0 -0.13762037794E+03  0.81984543613E+02  0.10085001356E+03  0.22794858861E+03  0.12700000000E+03 0.  0.
   -5000001    1    1    2    0    0  0.13762037794E+03 -0.81984543613E+02  0.64788135293E+02  0.21444658144E+03  0.12700000000E+03 0.  0.
<mgrwt>
<rscale>  0 0.41021639E+03</rscale>
<asrwt>0</asrwt>
<pdfrwt beam="1">  1        2 0.19768359E-01 0.41021639E+03</pdfrwt>
<pdfrwt beam="2">  1       -2 0.43430951E-01 0.41021639E+03</pdfrwt>
<totfact> 0.14410554E+03</totfact>
</mgrwt>
</event>
<event>
 4    1  0.1383574E-004  0.4446321E+03  0.7818608E-02  0.1029335E+00
          2   -1    0    0  501    0  0.00000000000E+00  0.00000000000E+00  0.24048217849E+03  0.24048217850E+03  0.25500000000E-02 0.  1.
         -2   -1    0    0    0  501 -0.00000000000E+00 -0.00000000000E+00 -0.20552223940E+03  0.20552223941E+03  0.25500000000E-02 0. -1.
    5000001    1    1    2    0    0  0.96785426362E+02  0.13351064757E+03  0.95842290171E+02  0.22914461886E+03  0.12700000000E+03 0.  0.
   -5000001    1    1    2    0    0 -0.96785426362E+02 -0.13351064757E+03 -0.60882351082E+02  0.21685979905E+03  0.12700000000E+03 0.  0.
<mgrwt>
<rscale>  0 0.44463214E+03</rscale>
<asrwt>0</asrwt>
<pdfrwt beam="1">  1        2 0.34354597E-01 0.44463214E+03</pdfrwt>
<pdfrwt beam="2">  1       -2 0.29360320E-01 0.44463214E+03</pdfrwt>
<totfact> 0.16195042E+03</totfact>
</mgrwt>
</event>
<event>
 4    1  0.1383574E-004  0.2988968E+03  0.7818608E-02  0.1085793E+00
          2   -1    0    0  501    0  0.00000000000E+00  0.00000000000E+00  0.51644787219E+03  0.51644787220E+03  0.25500000000E-02 0.  1.
         -2   -1    0    0    0  501 -0.00000000000E+00 -0.00000000000E+00 -0.43247014134E+02  0.43247014209E+02  0.25500000000E-02 0. -1.
    5000001    1    1    2    0    0 -0.57461591321E+02 -0.10519353333E+02  0.33556772712E+03  0.36352055066E+03  0.12700000000E+03 0.  0.
   -5000001    1    1    2    0    0  0.57461591321E+02  0.10519353333E+02  0.13763313094E+03  0.19617433574E+03  0.12700000000E+03 0.  0.
<mgrwt>
<rscale>  0 0.29889683E+03</rscale>
<asrwt>0</asrwt>
<pdfrwt beam="1">  1        2 0.73778264E-01 0.29889683E+03</pdfrwt>
<pdfrwt beam="2">  1       -2 0.61781451E-02 0.29889683E+03</pdfrwt>
<totfact> 0.92152614E+03</totfact>
</mgrwt>
</event>
<event>
 4    1  0.1383574E-004  0.4673312E+03  0.7818608E-02  0.1022676E+00
         -2   -1    0    0    0  501 -0.00000000000E+00  0.00000000000E+00  0.45938679173E+02  0.45938679244E+02  0.25500000000E-02 0. -1.
          2   -1    0    0  501    0  0.00000000000E+00 -0.00000000000E+00 -0.11885326099E+04  0.11885326099E+04  0.25500000000E-02 0.  1.
    5000001    1    1    2    0    0 -0.97558780553E+02 -0.16481489937E+03 -0.68302328366E+03  0.72064656576E+03  0.12700000000E+03 0.  0.
   -5000001    1    1    2    0    0  0.97558780553E+02  0.16481489937E+03 -0.45957064706E+03  0.51382472338E+03  0.12700000000E+03 0.  0.
<mgrwt>
<rscale>  0 0.46733122E+03</rscale>
<asrwt>0</asrwt>
<pdfrwt beam="1">  1        2 0.16979035E+00 0.46733122E+03</pdfrwt>
<pdfrwt beam="2">  1       -2 0.65626692E-02 0.46733122E+03</pdfrwt>
<totfact> 0.29369280E+03</totfact>
</mgrwt>
</event>
<event>
 4    1  0.1383574E-004  0.4017132E+03  0.7818608E-02  0.1043188E+00
          2   -1    0    0  501    0  0.00000000000E+00  0.00000000000E+00  0.74428732866E+03  0.74428732867E+03  0.25500000000E-02 0.  1.
         -2   -1    0    0    0  501 -0.00000000000E+00 -0.00000000000E+00 -0.54204036117E+02  0.54204036177E+02  0.25500000000E-02 0. -1.
    5000001    1    1    2    0    0  0.12752613399E+02 -0.73925722901E+02  0.74050149841E+02  0.16504564928E+03  0.12700000000E+03 0.  0.
   -5000001    1    1    2    0    0 -0.12752613399E+02  0.73925722901E+02  0.61603314270E+03  0.63344571556E+03  0.12700000000E+03 0.  0.
<mgrwt>
<rscale>  0 0.40171322E+03</rscale>
<asrwt>0</asrwt>
<pdfrwt beam="1">  1        2 0.10632677E+00 0.40171322E+03</pdfrwt>
<pdfrwt beam="2">  1       -2 0.77434334E-02 0.40171322E+03</pdfrwt>
<totfact> 0.42688340E+03</totfact>
</mgrwt>
</event>
<event>
 4    1  0.1383574E-004  0.3091550E+03  0.7818608E-02  0.1080752E+00
          2   -1    0    0  501    0  0.00000000000E+00  0.00000000000E+00  0.21148195594E+04  0.21148195594E+04  0.25500000000E-02 0.  1.
         -2   -1    0    0    0  501 -0.00000000000E+00 -0.00000000000E+00 -0.11298459495E+02  0.11298459783E+02  0.25500000000E-02 0. -1.
    5000001    1    1    2    0    0  0.86892809675E+02  0.77559992975E+01  0.11372945456E+04  0.11476839283E+04  0.12700000000E+03 0.  0.
   -5000001    1    1    2    0    0 -0.86892809675E+02 -0.77559992975E+01  0.96622655431E+03  0.97843409086E+03  0.12700000000E+03 0.  0.
<mgrwt>
<rscale>  0 0.30915500E+03</rscale>
<asrwt>0</asrwt>
<pdfrwt beam="1">  1        2 0.30211734E+00 0.30915500E+03</pdfrwt>
<pdfrwt beam="2">  1       -2 0.16140643E-02 0.30915500E+03</pdfrwt>
<totfact> 0.82377694E+03</totfact>
</mgrwt>
</event>
<event>
 4    1  0.1383574E-004  0.6609261E+03  0.7818608E-02  0.9786490E-01
          2   -1    0    0  501    0  0.00000000000E+00  0.00000000000E+00  0.81691087379E+03  0.81691087380E+03  0.25500000000E-02 0.  1.
         -2   -1    0    0    0  501 -0.00000000000E+00 -0.00000000000E+00 -0.13368144166E+03  0.13368144169E+03  0.25500000000E-02 0. -1.
    5000001    1    1    2    0    0 -0.19449361458E+03 -0.79668372290E+02  0.23557868932E+02  0.24669574144E+03  0.12700000000E+03 0.  0.
   -5000001    1    1    2    0    0  0.19449361458E+03  0.79668372290E+02  0.65967156320E+03  0.70389657404E+03  0.12700000000E+03 0.  0.
<mgrwt>
<rscale>  0 0.66092609E+03</rscale>
<asrwt>0</asrwt>
<pdfrwt beam="1">  1        2 0.11670155E+00 0.66092609E+03</pdfrwt>
<pdfrwt beam="2">  1       -2 0.19097349E-01 0.66092609E+03</pdfrwt>
<totfact> 0.85861701E+02</totfact>
</mgrwt>
</event>
<event>
 4    1  0.1383574E-004  0.4957023E+03  0.7818608E-02  0.1014907E+00
         -2   -1    0    0    0  501 -0.00000000000E+00  0.00000000000E+00  0.40767089605E+03  0.40767089606E+03  0.25500000000E-02 0. -1.
          2   -1    0    0  501    0  0.00000000000E+00 -0.00000000000E+00 -0.15068574027E+03  0.15068574030E+03  0.25500000000E-02 0.  1.
    5000001    1    1    2    0    0  0.11999876464E+03 -0.16112145345E+03  0.49312814514E+02  0.24273561740E+03  0.12700000000E+03 0.  0.
   -5000001    1    1    2    0    0 -0.11999876464E+03  0.16112145345E+03  0.20767234126E+03  0.31562101895E+03  0.12700000000E+03 0.  0.
<mgrwt>
<rscale>  0 0.49570229E+03</rscale>
<asrwt>0</asrwt>
<pdfrwt beam="1">  1        2 0.21526534E-01 0.49570229E+03</pdfrwt>
<pdfrwt beam="2">  1       -2 0.58238700E-01 0.49570229E+03</pdfrwt>
<totfact> 0.72283372E+02</totfact>
</mgrwt>
</event>
<event>
 4    1  0.1383574E-004  0.4084445E+03  0.7818608E-02  0.1040894E+00
         -2   -1    0    0    0  501 -0.00000000000E+00  0.00000000000E+00  0.37762505131E+02  0.37762505217E+02  0.25500000000E-02 0. -1.
          2   -1    0    0  501    0  0.00000000000E+00 -0.00000000000E+00 -0.11044481600E+04  0.11044481600E+04  0.25500000000E-02 0.  1.
    5000001    1    1    2    0    0 -0.53617423485E+02  0.52769101009E+02 -0.92801775362E+03  0.93968364738E+03  0.12700000000E+03 0.  0.
   -5000001    1    1    2    0    0  0.53617423485E+02 -0.52769101009E+02 -0.13866790129E+03  0.20252701788E+03  0.12700000000E+03 0.  0.
<mgrwt>
<rscale>  0 0.40844451E+03</rscale>
<asrwt>0</asrwt>
<pdfrwt beam="1">  1        2 0.15777829E+00 0.40844451E+03</pdfrwt>
<pdfrwt beam="2">  1       -2 0.53946443E-02 0.40844451E+03</pdfrwt>
<totfact> 0.44389546E+03</totfact>
</mgrwt>
</event>
<event>
 4    1  0.1383574E-004  0.3628540E+03  0.7818608E-02  0.1057459E+00
         -2   -1    0    0    0  501 -0.00000000000E+00  0.00000000000E+00  0.35432969970E+02  0.35432970062E+02  0.25500000000E-02 0. -1.
          2   -1    0    0  501    0  0.00000000000E+00 -0.00000000000E+00 -0.92895867405E+03  0.92895867405E+03  0.25500000000E-02 0.  1.
    5000001    1    1    2    0    0  0.91123196677E+02  0.84171766586E+02 -0.54615306760E+03  0.57428259290E+03  0.12700000000E+03 0.  0.
   -5000001    1    1    2    0    0 -0.91123196677E+02 -0.84171766586E+02 -0.34737263648E+03  0.39010905121E+03  0.12700000000E+03 0.  0.
<mgrwt>
<rscale>  0 0.36285405E+03</rscale>
<asrwt>0</asrwt>
<pdfrwt beam="1">  1        2 0.13270837E+00 0.36285405E+03</pdfrwt>
<pdfrwt beam="2">  1       -2 0.50618534E-02 0.36285405E+03</pdfrwt>
<totfact> 0.62143539E+03</totfact>
</mgrwt>
</event>
<event>
 4    1  0.1383574E-004  0.5589341E+03  0.7818608E-02  0.9994469E-01
         -2   -1    0    0    0  501 -0.00000000000E+00  0.00000000000E+00  0.14066194976E+03  0.14066194978E+03  0.25500000000E-02 0. -1.
          2   -1    0    0  501    0  0.00000000000E+00 -0.00000000000E+00 -0.55524494660E+03  0.55524494661E+03  0.25500000000E-02 0.  1.
    5000001    1    1    2    0    0 -0.28640690865E+02 -0.24699229575E+03 -0.22240519467E+03  0.35695735593E+03  0.12700000000E+03 0.  0.
   -5000001    1    1    2    0    0  0.28640690865E+02  0.24699229575E+03 -0.19217780217E+03  0.33894954046E+03  0.12700000000E+03 0.  0.
<mgrwt>
<rscale>  0 0.55893412E+03</rscale>
<asrwt>0</asrwt>
<pdfrwt beam="1">  1        2 0.79320706E-01 0.55893412E+03</pdfrwt>
<pdfrwt beam="2">  1       -2 0.20094565E-01 0.55893412E+03</pdfrwt>
<totfact> 0.12584921E+03</totfact>
</mgrwt>
</event>
<event>
 4    1  0.1383574E-004  0.3278844E+03  0.7818608E-02  0.1072077E+00
         -2   -1    0    0    0  501 -0.00000000000E+00  0.00000000000E+00  0.17520401618E+02  0.17520401804E+02  0.25500000000E-02 0. -1.
          2   -1    0    0  501    0  0.00000000000E+00 -0.00000000000E+00 -0.15340428115E+04  0.15340428115E+04  0.25500000000E-02 0.  1.
    5000001    1    1    2    0    0  0.57990479845E+02 -0.51657755289E+02 -0.10832470677E+04  0.10934279259E+04  0.12700000000E+03 0.  0.
   -5000001    1    1    2    0    0 -0.57990479845E+02  0.51657755289E+02 -0.43327534219E+03  0.45813528743E+03  0.12700000000E+03 0.  0.
<mgrwt>
<rscale>  0 0.32788441E+03</rscale>
<asrwt>0</asrwt>
<pdfrwt beam="1">  1        2 0.21914889E+00 0.32788441E+03</pdfrwt>
<pdfrwt beam="2">  1       -2 0.25029155E-02 0.32788441E+03</pdfrwt>
<totfact> 0.83459860E+03</totfact>
</mgrwt>
</event>
<event>
 4    1  0.1383574E-004  0.4609469E+03  0.7818608E-02  0.1024507E+00
          2   -1    0    0  501    0  0.00000000000E+00  0.00000000000E+00  0.42401157936E+03  0.42401157937E+03  0.25500000000E-02 0.  1.
         -2   -1    0    0    0  501 -0.00000000000E+00 -0.00000000000E+00 -0.12527491694E+03  0.12527491696E+03  0.25500000000E-02 0. -1.
    5000001    1    1    2    0    0  0.15002615259E+03  0.11562503110E+03  0.10963046680E+03  0.25303128963E+03  0.12700000000E+03 0.  0.
   -5000001    1    1    2    0    0 -0.15002615259E+03 -0.11562503110E+03  0.18910619562E+03  0.29625520671E+03  0.12700000000E+03 0.  0.
<mgrwt>
<rscale>  0 0.46094692E+03</rscale>
<asrwt>0</asrwt>
<pdfrwt beam="1">  1        2 0.60573083E-01 0.46094692E+03</pdfrwt>
<pdfrwt beam="2">  1       -2 0.17896417E-01 0.46094692E+03</pdfrwt>
<totfact> 0.20819012E+03</totfact>
</mgrwt>
</event>
<event>
 4    1  0.1383574E-004  0.3700475E+03  0.7818608E-02  0.1054675E+00
          2   -1    0    0  501    0  0.00000000000E+00  0.00000000000E+00  0.90539113645E+03  0.90539113646E+03  0.25500000000E-02 0.  1.
         -2   -1    0    0    0  501 -0.00000000000E+00 -0.00000000000E+00 -0.37811038810E+02  0.37811038896E+02  0.25500000000E-02 0. -1.
    5000001    1    1    2    0    0  0.61049103356E+02 -0.11230875060E+03  0.32672147564E+03  0.37311683308E+03  0.12700000000E+03 0.  0.
   -5000001    1    1    2    0    0 -0.61049103356E+02  0.11230875060E+03  0.54085862200E+03  0.57008534227E+03  0.12700000000E+03 0.  0.
<mgrwt>
<rscale>  0 0.37004745E+03</rscale>
<asrwt>0</asrwt>
<pdfrwt beam="1">  1        2 0.12934158E+00 0.37004745E+03</pdfrwt>
<pdfrwt beam="2">  1       -2 0.54015775E-02 0.37004745E+03</pdfrwt>
<totfact> 0.58211663E+03</totfact>
</mgrwt>
</event>
<event>
 4    1  0.1383574E-004  0.2914315E+03  0.7818608E-02  0.1089604E+00
         -2   -1    0    0    0  501 -0.00000000000E+00  0.00000000000E+00  0.13802172378E+03  0.13802172380E+03  0.25500000000E-02 0. -1.
          2   -1    0    0  501    0  0.00000000000E+00 -0.00000000000E+00 -0.15383866754E+03  0.15383866756E+03  0.25500000000E-02 0.  1.
    5000001    1    1    2    0    0 -0.41733772927E+02  0.52961654977E+02 -0.31553246217E+02  0.14721158938E+03  0.12700000000E+03 0.  0.
   -5000001    1    1    2    0    0  0.41733772927E+02 -0.52961654977E+02  0.15736302459E+02  0.14464880199E+03  0.12700000000E+03 0.  0.
<mgrwt>
<rscale>  0 0.29143149E+03</rscale>
<asrwt>0</asrwt>
<pdfrwt beam="1">  1        2 0.21976952E-01 0.29143149E+03</pdfrwt>
<pdfrwt beam="2">  1       -2 0.19717389E-01 0.29143149E+03</pdfrwt>
<totfact> 0.53431958E+03</totfact>
</mgrwt>
</event>
<event>
 4    1  0.1383574E-004  0.3533902E+03  0.7818608E-02  0.1061232E+00
         -2   -1    0    0    0  501 -0.00000000000E+00  0.00000000000E+00  0.59192133805E+02  0.59192133859E+02  0.25500000000E-02 0. -1.
          2   -1    0    0  501    0  0.00000000000E+00 -0.00000000000E+00 -0.52745438699E+03  0.52745438699E+03  0.25500000000E-02 0.  1.
    5000001    1    1    2    0    0  0.77904778272E+02  0.86379728840E+02 -0.29973030773E+03  0.34568463866E+03  0.12700000000E+03 0.  0.
   -5000001    1    1    2    0    0 -0.77904778272E+02 -0.86379728840E+02 -0.16853194545E+03  0.24096188219E+03  0.12700000000E+03 0.  0.
<mgrwt>
<rscale>  0 0.35339016E+03</rscale>
<asrwt>0</asrwt>
<pdfrwt beam="1">  1        2 0.75350624E-01 0.35339016E+03</pdfrwt>
<pdfrwt beam="2">  1       -2 0.84560194E-02 0.35339016E+03</pdfrwt>
<totfact> 0.55461825E+03</totfact>
</mgrwt>
</event>
<event>
 4    1  0.1383574E-004  0.3098135E+03  0.7818608E-02  0.1080435E+00
         -2   -1    0    0    0  501 -0.00000000000E+00  0.00000000000E+00  0.11373696967E+02  0.11373697253E+02  0.25500000000E-02 0. -1.
          2   -1    0    0  501    0  0.00000000000E+00 -0.00000000000E+00 -0.21097894643E+04  0.21097894643E+04  0.25500000000E-02 0.  1.
    5000001    1    1    2    0    0 -0.21006518664E+02  0.74779368413E+02 -0.13424045170E+04  0.13506339679E+04  0.12700000000E+03 0.  0.
   -5000001    1    1    2    0    0  0.21006518664E+02 -0.74779368413E+02 -0.75601125026E+03  0.77052919366E+03  0.12700000000E+03 0.  0.
<mgrwt>
<rscale>  0 0.30981353E+03</rscale>
<asrwt>0</asrwt>
<pdfrwt beam="1">  1        2 0.30139824E+00 0.30981353E+03</pdfrwt>
<pdfrwt beam="2">  1       -2 0.16248152E-02 0.30981353E+03</pdfrwt>
<totfact> 0.82044001E+03</totfact>
</mgrwt>
</event>
<event>
 4    1  0.1383574E-004  0.4591623E+03  0.7818608E-02  0.1025024E+00
          2   -1    0    0  501    0  0.00000000000E+00  0.00000000000E+00  0.59487005423E+03  0.59487005423E+03  0.25500000000E-02 0.  1.
         -2   -1    0    0    0  501 -0.00000000000E+00 -0.00000000000E+00 -0.88603398536E+02  0.88603398573E+02  0.25500000000E-02 0. -1.
    5000001    1    1    2    0    0 -0.12482791256E+02  0.18303826941E+03  0.33356425323E+03  0.40131401568E+03  0.12700000000E+03 0.  0.
   -5000001    1    1    2    0    0  0.12482791256E+02 -0.18303826941E+03  0.17270240246E+03  0.28215943713E+03  0.12700000000E+03 0.  0.
<mgrwt>
<rscale>  0 0.45916232E+03</rscale>
<asrwt>0</asrwt>
<pdfrwt beam="1">  1        2 0.84981438E-01 0.45916232E+03</pdfrwt>
<pdfrwt beam="2">  1       -2 0.12657628E-01 0.45916232E+03</pdfrwt>
<totfact> 0.25354363E+03</totfact>
</mgrwt>
</event>
<event>
 4    1  0.1383574E-004  0.3921367E+03  0.7818608E-02  0.1046537E+00
         -2   -1    0    0    0  501 -0.00000000000E+00  0.00000000000E+00  0.12769219538E+03  0.12769219540E+03  0.25500000000E-02 0. -1.
          2   -1    0    0  501    0  0.00000000000E+00 -0.00000000000E+00 -0.30105839270E+03  0.30105839271E+03  0.25500000000E-02 0.  1.
    5000001    1    1    2    0    0 -0.95216861984E+01  0.13621960149E+03 -0.15289624741E+03  0.24114871928E+03  0.12700000000E+03 0.  0.
   -5000001    1    1    2    0    0  0.95216861984E+01 -0.13621960149E+03 -0.20469949908E+02  0.18760186883E+03  0.12700000000E+03 0.  0.
<mgrwt>
<rscale>  0 0.39213675E+03</rscale>
<asrwt>0</asrwt>
<pdfrwt beam="1">  1        2 0.43008342E-01 0.39213675E+03</pdfrwt>
<pdfrwt beam="2">  1       -2 0.18241742E-01 0.39213675E+03</pdfrwt>
<totfact> 0.29259852E+03</totfact>
</mgrwt>
</event>
<event>
 4    1  0.1383574E-004  0.6878456E+03  0.7818608E-02  0.9738247E-01
         -2   -1    0    0    0  501 -0.00000000000E+00  0.00000000000E+00  0.58645978925E+02  0.58645978980E+02  0.25500000000E-02 0. -1.
          2   -1    0    0  501    0  0.00000000000E+00 -0.00000000000E+00 -0.20168969343E+04  0.20168969343E+04  0.25500000000E-02 0.  1.
    5000001    1    1    2    0    0  0.16120582025E+03  0.11118823725E+03 -0.17413165656E+04  0.17568900142E+04  0.12700000000E+03 0.  0.
   -5000001    1    1    2    0    0 -0.16120582025E+03 -0.11118823725E+03 -0.21693438978E+03  0.31865289903E+03  0.12700000000E+03 0.  0.
<mgrwt>
<rscale>  0 0.68784561E+03</rscale>
<asrwt>0</asrwt>
<pdfrwt beam="1">  1        2 0.28812809E+00 0.68784561E+03</pdfrwt>
<pdfrwt beam="2">  1       -2 0.83779983E-02 0.68784561E+03</pdfrwt>
<totfact> 0.73579147E+02</totfact>
</mgrwt>
</event>
<event>
 4    1  0.1383574E-004  0.2822550E+03  0.7818608E-02  0.1094464E+00
         -2   -1    0    0    0  501 -0.00000000000E+00  0.00000000000E+00  0.37350989103E+02  0.37350989190E+02  0.25500000000E-02 0. -1.
          2   -1    0    0  501    0  0.00000000000E+00 -0.00000000000E+00 -0.53323807295E+03  0.53323807296E+03  0.25500000000E-02 0.  1.
    5000001    1    1    2    0    0 -0.18663424225E+01  0.57906035950E+02 -0.20595696837E+03  0.24880487346E+03  0.12700000000E+03 0.  0.
   -5000001    1    1    2    0    0  0.18663424225E+01 -0.57906035950E+02 -0.28993011548E+03  0.32178418869E+03  0.12700000000E+03 0.  0.
<mgrwt>
<rscale>  0 0.28225499E+03</rscale>
<asrwt>0</asrwt>
<pdfrwt beam="1">  1        2 0.76176863E-01 0.28225499E+03</pdfrwt>
<pdfrwt beam="2">  1       -2 0.53358559E-02 0.28225499E+03</pdfrwt>
<totfact> 0.11107456E+04</totfact>
</mgrwt>
</event>
<event>
 4    1  0.1383574E-004  0.3220171E+03  0.7818608E-02  0.1074725E+00
          2   -1    0    0  501    0  0.00000000000E+00  0.00000000000E+00  0.69880644003E+03  0.69880644004E+03  0.25500000000E-02 0.  1.
         -2   -1    0    0    0  501 -0.00000000000E+00 -0.00000000000E+00 -0.37097176497E+02  0.37097176584E+02  0.25500000000E-02 0. -1.
    5000001    1    1    2    0    0 -0.95629261898E+01  0.98494191178E+02  0.33423703950E+03  0.37099319916E+03  0.12700000000E+03 0.  0.
   -5000001    1    1    2    0    0  0.95629261898E+01 -0.98494191178E+02  0.32747222404E+03  0.36491041746E+03  0.12700000000E+03 0.  0.
<mgrwt>
<rscale>  0 0.32201705E+03</rscale>
<asrwt>0</asrwt>
<pdfrwt beam="1">  1        2 0.99829490E-01 0.32201705E+03</pdfrwt>
<pdfrwt beam="2">  1       -2 0.52995967E-02 0.32201705E+03</pdfrwt>
<totfact> 0.82571643E+03</totfact>
</mgrwt>
</event>
<event>
 4    1  0.1383574E-004  0.4914540E+03  0.7818608E-02  0.1016034E+00
         -2   -1    0    0    0  501 -0.00000000000E+00  0.00000000000E+00  0.11564884842E+03  0.11564884845E+03  0.25500000000E-02 0. -1.
          2   -1    0    0  501    0  0.00000000000E+00 -0.00000000000E+00 -0.52211296513E+03  0.52211296513E+03  0.25500000000E-02 0.  1.
    5000001    1    1    2    0    0 -0.19216324294E+03  0.74021677988E+02 -0.25900076104E+03  0.35442391986E+03  0.12700000000E+03 0.  0.
   -5000001    1    1    2    0    0  0.19216324294E+03 -0.74021677988E+02 -0.14746335567E+03  0.28333789372E+03  0.12700000000E+03 0.  0.
<mgrwt>
<rscale>  0 0.49145402E+03</rscale>
<asrwt>0</asrwt>
<pdfrwt beam="1">  1        2 0.74587565E-01 0.49145402E+03</pdfrwt>
<pdfrwt beam="2">  1       -2 0.16521264E-01 0.49145402E+03</pdfrwt>
<totfact> 0.18897527E+03</totfact>
</mgrwt>
</event>
<event>
 4    1  0.1383574E-004  0.6290266E+03  0.7818608E-02  0.9846950E-01
          2   -1    0    0  501    0  0.00000000000E+00  0.00000000000E+00  0.22677837708E+04  0.22677837708E+04  0.25500000000E-02 0.  1.
         -2   -1    0    0    0  501 -0.00000000000E+00 -0.00000000000E+00 -0.43619064270E+02  0.43619064344E+02  0.25500000000E-02 0. -1.
    5000001    1    1    2    0    0 -0.27220113271E+03 -0.13639712089E+02  0.14510624359E+04  0.14818875434E+04  0.12700000000E+03 0.  0.
   -5000001    1    1    2    0    0  0.27220113271E+03  0.13639712089E+02  0.77310227067E+03  0.82951529178E+03  0.12700000000E+03 0.  0.
<mgrwt>
<rscale>  0 0.62902657E+03</rscale>
<asrwt>0</asrwt>
<pdfrwt beam="1">  1        2 0.32396919E+00 0.62902657E+03</pdfrwt>
<pdfrwt beam="2">  1       -2 0.62312933E-02 0.62902657E+03</pdfrwt>
<totfact> 0.88256504E+02</totfact>
</mgrwt>
</event>
<event>
 4    1  0.1383574E-004  0.3270541E+03  0.7818608E-02  0.1072448E+00
         -2   -1    0    0    0  501 -0.00000000000E+00  0.00000000000E+00  0.10205408442E+02  0.10205408761E+02  0.25500000000E-02 0. -1.
          2   -1    0    0  501    0  0.00000000000E+00 -0.00000000000E+00 -0.26202862122E+04  0.26202862122E+04  0.25500000000E-02 0.  1.
    5000001    1    1    2    0    0 -0.16733569799E+02  0.94748419259E+02 -0.16010852744E+04  0.16089935771E+04  0.12700000000E+03 0.  0.
   -5000001    1    1    2    0    0  0.16733569799E+02 -0.94748419259E+02 -0.10089955293E+04  0.10214980438E+04  0.12700000000E+03 0.  0.
<mgrwt>
<rscale>  0 0.32705407E+03</rscale>
<asrwt>0</asrwt>
<pdfrwt beam="1">  1        2 0.37432617E+00 0.32705407E+03</pdfrwt>
<pdfrwt beam="2">  1       -2 0.14579172E-02 0.32705407E+03</pdfrwt>
<totfact> 0.53608622E+03</totfact>
</mgrwt>
</event>
<event>
 4    1  0.1383574E-004  0.4494071E+03  0.7818608E-02  0.1027899E+00
          2   -1    0    0  501    0  0.00000000000E+00  0.00000000000E+00  0.20197920177E+04  0.20197920177E+04  0.25500000000E-02 0.  1.
         -2   -1    0    0    0  501 -0.00000000000E+00 -0.00000000000E+00 -0.24998462417E+02  0.24998462547E+02  0.25500000000E-02 0. -1.
    5000001    1    1    2    0    0  0.13620520252E+03 -0.89612808276E+02  0.13987338836E+04  0.14139193010E+04  0.12700000000E+03 0.  0.
   -5000001    1    1    2    0    0 -0.13620520252E+03  0.89612808276E+02  0.59605967162E+03  0.63087117919E+03  0.12700000000E+03 0.  0.
<mgrwt>
<rscale>  0 0.44940714E+03</rscale>
<asrwt>0</asrwt>
<pdfrwt beam="1">  1        2 0.28854176E+00 0.44940714E+03</pdfrwt>
<pdfrwt beam="2">  1       -2 0.35712084E-02 0.44940714E+03</pdfrwt>
<totfact> 0.28008484E+03</totfact>
</mgrwt>
</event>
<event>
 4    1  0.1383574E-004  0.4060741E+03  0.7818608E-02  0.1041696E+00
         -2   -1    0    0    0  501 -0.00000000000E+00  0.00000000000E+00  0.29540502810E+02  0.29540502920E+02  0.25500000000E-02 0. -1.
          2   -1    0    0  501    0  0.00000000000E+00 -0.00000000000E+00 -0.13955094235E+04  0.13955094235E+04  0.25500000000E-02 0.  1.
    5000001    1    1    2    0    0 -0.14157757523E+02  0.13900243268E+03 -0.42100537750E+03  0.46140724558E+03  0.12700000000E+03 0.  0.
   -5000001    1    1    2    0    0  0.14157757523E+02 -0.13900243268E+03 -0.94496354323E+03  0.96364268088E+03  0.12700000000E+03 0.  0.
<mgrwt>
<rscale>  0 0.40607413E+03</rscale>
<asrwt>0</asrwt>
<pdfrwt beam="1">  1        2 0.19935845E+00 0.40607413E+03</pdfrwt>
<pdfrwt beam="2">  1       -2 0.42200727E-02 0.40607413E+03</pdfrwt>
<totfact> 0.44895875E+03</totfact>
</mgrwt>
</event>
<event>
 4    1  0.1383574E-004  0.5674297E+03  0.7818608E-02  0.9975382E-01
         -2   -1    0    0    0  501 -0.00000000000E+00  0.00000000000E+00  0.78204358150E+02  0.78204358191E+02  0.25500000000E-02 0. -1.
          2   -1    0    0  501    0  0.00000000000E+00 -0.00000000000E+00 -0.10292792359E+04  0.10292792359E+04  0.25500000000E-02 0.  1.
    5000001    1    1    2    0    0 -0.23742154150E+03  0.89370469723E+02 -0.46966502513E+03  0.54869873797E+03  0.12700000000E+03 0.  0.
   -5000001    1    1    2    0    0  0.23742154150E+03 -0.89370469723E+02 -0.48140985260E+03  0.55878485610E+03  0.12700000000E+03 0.  0.
<mgrwt>
<rscale>  0 0.56742972E+03</rscale>
<asrwt>0</asrwt>
<pdfrwt beam="1">  1        2 0.14703988E+00 0.56742972E+03</pdfrwt>
<pdfrwt beam="2">  1       -2 0.11172052E-01 0.56742972E+03</pdfrwt>
<totfact> 0.15500732E+03</totfact>
</mgrwt>
</event>
<event>
 4    1  0.1383574E-004  0.5700482E+03  0.7818608E-02  0.9969572E-01
         -2   -1    0    0    0  501 -0.00000000000E+00  0.00000000000E+00  0.58856384826E+02  0.58856384882E+02  0.25500000000E-02 0. -1.
          2   -1    0    0  501    0  0.00000000000E+00 -0.00000000000E+00 -0.13802878312E+04  0.13802878312E+04  0.25500000000E-02 0.  1.
    5000001    1    1    2    0    0  0.22843682640E+03  0.13517357571E+01 -0.94772786094E+03  0.98310849312E+03  0.12700000000E+03 0.  0.
   -5000001    1    1    2    0    0 -0.22843682640E+03 -0.13517357571E+01 -0.37370358541E+03  0.45603572294E+03  0.12700000000E+03 0.  0.
<mgrwt>
<rscale>  0 0.57004825E+03</rscale>
<asrwt>0</asrwt>
<pdfrwt beam="1">  1        2 0.19718396E+00 0.57004825E+03</pdfrwt>
<pdfrwt beam="2">  1       -2 0.84080558E-02 0.57004825E+03</pdfrwt>
<totfact> 0.15589479E+03</totfact>
</mgrwt>
</event>
<event>
 4    1  0.1383574E-004  0.3520304E+03  0.7818608E-02  0.1061785E+00
          2   -1    0    0  501    0  0.00000000000E+00  0.00000000000E+00  0.47780371743E+02  0.47780371811E+02  0.25500000000E-02 0.  1.
         -2   -1    0    0    0  501 -0.00000000000E+00 -0.00000000000E+00 -0.64841165745E+03  0.64841165745E+03  0.25500000000E-02 0. -1.
    5000001    1    1    2    0    0  0.12010980743E+03  0.52829453951E+01 -0.33977328900E+03  0.38213762347E+03  0.12700000000E+03 0.  0.
   -5000001    1    1    2    0    0 -0.12010980743E+03 -0.52829453951E+01 -0.26085799670E+03  0.31405440579E+03  0.12700000000E+03 0.  0.
<mgrwt>
<rscale>  0 0.35203040E+03</rscale>
<asrwt>0</asrwt>
<pdfrwt beam="1">  1        2 0.68257678E-02 0.35203040E+03</pdfrwt>
<pdfrwt beam="2">  1       -2 0.92630231E-01 0.35203040E+03</pdfrwt>
<totfact> 0.10752629E+03</totfact>
</mgrwt>
</event>
<event>
 4    1  0.1383574E-004  0.2792028E+03  0.7818608E-02  0.1096125E+00
         -2   -1    0    0    0  501 -0.00000000000E+00  0.00000000000E+00  0.45406787526E+02  0.45406787597E+02  0.25500000000E-02 0. -1.
          2   -1    0    0  501    0  0.00000000000E+00 -0.00000000000E+00 -0.42919914341E+03  0.42919914342E+03  0.25500000000E-02 0.  1.
    5000001    1    1    2    0    0 -0.10326000523E+02 -0.52151383153E+02 -0.23114644841E+03  0.26904288443E+03  0.12700000000E+03 0.  0.
   -5000001    1    1    2    0    0  0.10326000523E+02  0.52151383153E+02 -0.15264590748E+03  0.20556304659E+03  0.12700000000E+03 0.  0.
<mgrwt>
<rscale>  0 0.27920282E+03</rscale>
<asrwt>0</asrwt>
<pdfrwt beam="1">  1        2 0.61314161E-01 0.27920282E+03</pdfrwt>
<pdfrwt beam="2">  1       -2 0.64866842E-02 0.27920282E+03</pdfrwt>
<totfact> 0.10450629E+04</totfact>
</mgrwt>
</event>
<event>
 4    1  0.1383574E-004  0.5685597E+03  0.7818608E-02  0.9972871E-01
         -2   -1    0    0    0  501 -0.00000000000E+00  0.00000000000E+00  0.10558803215E+03  0.10558803218E+03  0.25500000000E-02 0. -1.
          2   -1    0    0  501    0  0.00000000000E+00 -0.00000000000E+00 -0.76538050812E+03  0.76538050812E+03  0.25500000000E-02 0.  1.
    5000001    1    1    2    0    0  0.23252230948E+03  0.54920099182E+02 -0.19632158263E+03  0.33429628401E+03  0.12700000000E+03 0.  0.
   -5000001    1    1    2    0    0 -0.23252230948E+03 -0.54920099182E+02 -0.46347089334E+03  0.53667225629E+03  0.12700000000E+03 0.  0.
<mgrwt>
<rscale>  0 0.56855966E+03</rscale>
<asrwt>0</asrwt>
<pdfrwt beam="1">  1        2 0.10934007E+00 0.56855966E+03</pdfrwt>
<pdfrwt beam="2">  1       -2 0.15084005E-01 0.56855966E+03</pdfrwt>
<totfact> 0.13980027E+03</totfact>
</mgrwt>
</event>
<event>
 4    1  0.1383574E-004  0.3795533E+03  0.7818608E-02  0.1051099E+00
         -2   -1    0    0    0  501 -0.00000000000E+00  0.00000000000E+00  0.47179992846E+03  0.47179992846E+03  0.25500000000E-02 0. -1.
          2   -1    0    0  501    0  0.00000000000E+00 -0.00000000000E+00 -0.76335692856E+02  0.76335692898E+02  0.25500000000E-02 0.  1.
    5000001    1    1    2    0    0 -0.42026886724E+02  0.13111737443E+03  0.15373500243E+03  0.24232514532E+03  0.12700000000E+03 0.  0.
   -5000001    1    1    2    0    0  0.42026886724E+02 -0.13111737443E+03  0.24172923317E+03  0.30581047604E+03  0.12700000000E+03 0.  0.
<mgrwt>
<rscale>  0 0.37955329E+03</rscale>
<asrwt>0</asrwt>
<pdfrwt beam="1">  1        2 0.10905099E-01 0.37955329E+03</pdfrwt>
<pdfrwt beam="2">  1       -2 0.67399989E-01 0.37955329E+03</pdfrwt>
<totfact> 0.11984174E+03</totfact>
</mgrwt>
</event>
<event>
 4    1  0.1383574E-004  0.5571167E+03  0.7818608E-02  0.9998600E-01
         -2   -1    0    0    0  501 -0.00000000000E+00  0.00000000000E+00  0.11905682689E+03  0.11905682691E+03  0.25500000000E-02 0. -1.
          2   -1    0    0  501    0  0.00000000000E+00 -0.00000000000E+00 -0.65174549191E+03  0.65174549192E+03  0.25500000000E-02 0.  1.
    5000001    1    1    2    0    0 -0.20549434587E+03  0.83317406986E+02 -0.41976341103E+03  0.49142653340E+03  0.12700000000E+03 0.  0.
   -5000001    1    1    2    0    0  0.20549434587E+03 -0.83317406986E+02 -0.11292525399E+03  0.27937578543E+03  0.12700000000E+03 0.  0.
<mgrwt>
<rscale>  0 0.55711669E+03</rscale>
<asrwt>0</asrwt>
<pdfrwt beam="1">  1        2 0.93106497E-01 0.55711669E+03</pdfrwt>
<pdfrwt beam="2">  1       -2 0.17008118E-01 0.55711669E+03</pdfrwt>
<totfact> 0.13892196E+03</totfact>
</mgrwt>
</event>
<event>
 4    1  0.1383574E-004  0.2968101E+03  0.7818608E-02  0.1086846E+00
         -2   -1    0    0    0  501 -0.00000000000E+00  0.00000000000E+00  0.18541383066E+02  0.18541383241E+02  0.25500000000E-02 0. -1.
          2   -1    0    0  501    0  0.00000000000E+00 -0.00000000000E+00 -0.11878328807E+04  0.11878328807E+04  0.25500000000E-02 0.  1.
    5000001    1    1    2    0    0  0.31201866315E+02  0.39753527193E+02 -0.81958322854E+03  0.83090286309E+03  0.12700000000E+03 0.  0.
   -5000001    1    1    2    0    0 -0.31201866315E+02 -0.39753527193E+02 -0.34970826907E+03  0.37547140083E+03  0.12700000000E+03 0.  0.
<mgrwt>
<rscale>  0 0.29681014E+03</rscale>
<asrwt>0</asrwt>
<pdfrwt beam="1">  1        2 0.16969036E+00 0.29681014E+03</pdfrwt>
<pdfrwt beam="2">  1       -2 0.26487698E-02 0.29681014E+03</pdfrwt>
<totfact> 0.11617011E+04</totfact>
</mgrwt>
</event>
<event>
 4    1  0.1383574E-004  0.5935672E+03  0.7818608E-02  0.9918843E-01
          2   -1    0    0  501    0  0.00000000000E+00  0.00000000000E+00  0.64194896089E+03  0.64194896089E+03  0.25500000000E-02 0.  1.
         -2   -1    0    0    0  501 -0.00000000000E+00 -0.00000000000E+00 -0.13720797763E+03  0.13720797765E+03  0.25500000000E-02 0. -1.
    5000001    1    1    2    0    0  0.26704144818E+03  0.22862788414E+02  0.23813082091E+03  0.38035395358E+03  0.12700000000E+03 0.  0.
   -5000001    1    1    2    0    0 -0.26704144818E+03 -0.22862788414E+02  0.26661016236E+03  0.39880298496E+03  0.12700000000E+03 0.  0.
<mgrwt>
<rscale>  0 0.59356725E+03</rscale>
<asrwt>0</asrwt>
<pdfrwt beam="1">  1        2 0.91706993E-01 0.59356725E+03</pdfrwt>
<pdfrwt beam="2">  1       -2 0.19601140E-01 0.59356725E+03</pdfrwt>
<totfact> 0.11078964E+03</totfact>
</mgrwt>
</event>
<event>
 4    1  0.1383574E-004  0.3533412E+03  0.7818608E-02  0.1061252E+00
          2   -1    0    0  501    0  0.00000000000E+00  0.00000000000E+00  0.81140775334E+03  0.81140775334E+03  0.25500000000E-02 0.  1.
         -2   -1    0    0    0  501 -0.00000000000E+00 -0.00000000000E+00 -0.38467094687E+02  0.38467094772E+02  0.25500000000E-02 0. -1.
    5000001    1    1    2    0    0 -0.29136958885E+02  0.55628316450E+02  0.13260474356E+03  0.19405280204E+03  0.12700000000E+03 0.  0.
   -5000001    1    1    2    0    0  0.29136958885E+02 -0.55628316450E+02  0.64033591509E+03  0.65582204608E+03  0.12700000000E+03 0.  0.
<mgrwt>
<rscale>  0 0.35334119E+03</rscale>
<asrwt>0</asrwt>
<pdfrwt beam="1">  1        2 0.11591539E+00 0.35334119E+03</pdfrwt>
<pdfrwt beam="2">  1       -2 0.54952995E-02 0.35334119E+03</pdfrwt>
<totfact> 0.65209549E+03</totfact>
</mgrwt>
</event>
<event>
 4    1  0.1383574E-004  0.5590062E+03  0.7818608E-02  0.9994306E-01
         -2   -1    0    0    0  501 -0.00000000000E+00  0.00000000000E+00  0.22454071775E+02  0.22454071920E+02  0.25500000000E-02 0. -1.
          2   -1    0    0  501    0  0.00000000000E+00 -0.00000000000E+00 -0.34791896804E+04  0.34791896804E+04  0.25500000000E-02 0.  1.
    5000001    1    1    2    0    0  0.18765084309E+03  0.15892473036E+03 -0.14839038958E+04  0.15094931867E+04  0.12700000000E+03 0.  0.
   -5000001    1    1    2    0    0 -0.18765084309E+03 -0.15892473036E+03 -0.19728317129E+04  0.19921505656E+04  0.12700000000E+03 0.  0.
<mgrwt>
<rscale>  0 0.55900617E+03</rscale>
<asrwt>0</asrwt>
<pdfrwt beam="1">  1        2 0.49702675E+00 0.55900617E+03</pdfrwt>
<pdfrwt beam="2">  1       -2 0.32077268E-02 0.55900617E+03</pdfrwt>
<totfact> 0.55087694E+02</totfact>
</mgrwt>
</event>
<event>
 4    1  0.1383574E-004  0.4481794E+03  0.7818608E-02  0.1028266E+00
         -2   -1    0    0    0  501 -0.00000000000E+00  0.00000000000E+00  0.28640507989E+03  0.28640507990E+03  0.25500000000E-02 0. -1.
          2   -1    0    0  501    0  0.00000000000E+00 -0.00000000000E+00 -0.17533275214E+03  0.17533275216E+03  0.25500000000E-02 0.  1.
    5000001    1    1    2    0    0 -0.55995222943E+02 -0.22352298588E+02  0.23532064824E+03  0.27411657690E+03  0.12700000000E+03 0.  0.
   -5000001    1    1    2    0    0  0.55995222943E+02  0.22352298588E+02 -0.12424832049E+03  0.18762125516E+03  0.12700000000E+03 0.  0.
<mgrwt>
<rscale>  0 0.44817939E+03</rscale>
<asrwt>0</asrwt>
<pdfrwt beam="1">  1        2 0.25047536E-01 0.44817939E+03</pdfrwt>
<pdfrwt beam="2">  1       -2 0.40915012E-01 0.44817939E+03</pdfrwt>
<totfact> 0.12346627E+03</totfact>
</mgrwt>
</event>
<event>
 4    1  0.1383574E-004  0.4538695E+03  0.7818608E-02  0.1026574E+00
         -2   -1    0    0    0  501 -0.00000000000E+00  0.00000000000E+00  0.99096448021E+02  0.99096448054E+02  0.25500000000E-02 0. -1.
          2   -1    0    0  501    0  0.00000000000E+00 -0.00000000000E+00 -0.51968953685E+03  0.51968953685E+03  0.25500000000E-02 0.  1.
    5000001    1    1    2    0    0 -0.14799670682E+03  0.11481565408E+03 -0.23330164721E+03  0.32502971901E+03  0.12700000000E+03 0.  0.
   -5000001    1    1    2    0    0  0.14799670682E+03 -0.11481565408E+03 -0.18729144162E+03  0.29375626590E+03  0.12700000000E+03 0.  0.
<mgrwt>
<rscale>  0 0.45386953E+03</rscale>
<asrwt>0</asrwt>
<pdfrwt beam="1">  1        2 0.74241361E-01 0.45386953E+03</pdfrwt>
<pdfrwt beam="2">  1       -2 0.14156636E-01 0.45386953E+03</pdfrwt>
<totfact> 0.24603318E+03</totfact>
</mgrwt>
</event>
<event>
 4    1  0.1383574E-004  0.3759029E+03  0.7818608E-02  0.1052459E+00
         -2   -1    0    0    0  501 -0.00000000000E+00  0.00000000000E+00  0.62299118833E+02  0.62299118885E+02  0.25500000000E-02 0.  1.
          2   -1    0    0  501    0  0.00000000000E+00 -0.00000000000E+00 -0.56703436847E+03  0.56703436848E+03  0.25500000000E-02 0. -1.
    5000001    1    1    2    0    0  0.85309821804E+02  0.10681660817E+03 -0.21458916038E+03  0.28436782734E+03  0.12700000000E+03 0.  0.
   -5000001    1    1    2    0    0 -0.85309821804E+02 -0.10681660817E+03 -0.29014608926E+03  0.34496566002E+03  0.12700000000E+03 0.  0.
<mgrwt>
<rscale>  0 0.37590287E+03</rscale>
<asrwt>0</asrwt>
<pdfrwt beam="1">  1        2 0.81004907E-01 0.37590287E+03</pdfrwt>
<pdfrwt beam="2">  1       -2 0.88998745E-02 0.37590287E+03</pdfrwt>
<totfact> 0.47183269E+03</totfact>
</mgrwt>
</event>
<event>
 4    1  0.1383574E-004  0.3485214E+03  0.7818608E-02  0.1063224E+00
         -2   -1    0    0    0  501 -0.00000000000E+00  0.00000000000E+00  0.35529052433E+02  0.35529052524E+02  0.25500000000E-02 0. -1.
          2   -1    0    0  501    0  0.00000000000E+00 -0.00000000000E+00 -0.85470292315E+03  0.85470292316E+03  0.25500000000E-02 0.  1.
    5000001    1    1    2    0    0 -0.99838494866E+02  0.95852806617E+01 -0.24447917688E+03  0.29318709144E+03  0.12700000000E+03 0.  0.
   -5000001    1    1    2    0    0  0.99838494866E+02 -0.95852806617E+01 -0.57469469385E+03  0.59704488424E+03  0.12700000000E+03 0.  0.
<mgrwt>
<rscale>  0 0.34852136E+03</rscale>
<asrwt>0</asrwt>
<pdfrwt beam="1">  1        2 0.12210040E+00 0.34852136E+03</pdfrwt>
<pdfrwt beam="2">  1       -2 0.50755795E-02 0.34852136E+03</pdfrwt>
<totfact> 0.68935929E+03</totfact>
</mgrwt>
</event>
<event>
 4    1  0.1383574E-004  0.5955663E+03  0.7818608E-02  0.9914648E-01
         -2   -1    0    0    0  501 -0.00000000000E+00  0.00000000000E+00  0.30722800190E+03  0.30722800191E+03  0.25500000000E-02 0.  1.
          2   -1    0    0  501    0  0.00000000000E+00 -0.00000000000E+00 -0.28862863057E+03  0.28862863058E+03  0.25500000000E-02 0. -1.
    5000001    1    1    2    0    0  0.20008019040E+03  0.17190006835E+03 -0.45170234810E+02  0.29622806451E+03  0.12700000000E+03 0.  0.
   -5000001    1    1    2    0    0 -0.20008019040E+03 -0.17190006835E+03  0.63769606140E+02  0.29962856799E+03  0.12700000000E+03 0.  0.
<mgrwt>
<rscale>  0 0.59556628E+03</rscale>
<asrwt>0</asrwt>
<pdfrwt beam="1">  1        2 0.41232661E-01 0.59556628E+03</pdfrwt>
<pdfrwt beam="2">  1       -2 0.43889715E-01 0.59556628E+03</pdfrwt>
<totfact> 0.61697591E+02</totfact>
</mgrwt>
</event>
<event>
 4    1  0.1383574E-004  0.9001625E+03  0.7818608E-02  0.9425378E-01
         -2   -1    0    0    0  501 -0.00000000000E+00  0.00000000000E+00  0.16376297163E+03  0.16376297165E+03  0.25500000000E-02 0. -1.
          2   -1    0    0  501    0  0.00000000000E+00 -0.00000000000E+00 -0.12369898228E+04  0.12369898228E+04  0.25500000000E-02 0.  1.
    5000001    1    1    2    0    0 -0.28229775635E+03 -0.32659682147E+03 -0.55109631689E+03  0.71147287898E+03  0.12700000000E+03 0.  0.
   -5000001    1    1    2    0    0  0.28229775635E+03  0.32659682147E+03 -0.52213053431E+03  0.68927991549E+03  0.12700000000E+03 0.  0.
<mgrwt>
<rscale>  0 0.90016249E+03</rscale>
<asrwt>0</asrwt>
<pdfrwt beam="1">  1        2 0.17671283E+00 0.90016249E+03</pdfrwt>
<pdfrwt beam="2">  1       -2 0.23394711E-01 0.90016249E+03</pdfrwt>
<totfact> 0.32903634E+02</totfact>
</mgrwt>
</event>
<event>
 4    1  0.1383574E-004  0.4559690E+03  0.7818608E-02  0.1025957E+00
         -2   -1    0    0    0  501 -0.00000000000E+00  0.00000000000E+00  0.22061543391E+04  0.22061543391E+04  0.25500000000E-02 0. -1.
          2   -1    0    0  501    0  0.00000000000E+00 -0.00000000000E+00 -0.23559971672E+02  0.23559971810E+02  0.25500000000E-02 0.  1.
    5000001    1    1    2    0    0  0.16208260107E+03 -0.65850830834E+02  0.14453059632E+04  0.14613847641E+04  0.12700000000E+03 0.  0.
   -5000001    1    1    2    0    0 -0.16208260107E+03  0.65850830834E+02  0.73728840423E+03  0.76832954681E+03  0.12700000000E+03 0.  0.
<mgrwt>
<rscale>  0 0.45596901E+03</rscale>
<asrwt>0</asrwt>
<pdfrwt beam="1">  1        2 0.33657093E-02 0.45596901E+03</pdfrwt>
<pdfrwt beam="2">  1       -2 0.31516499E+00 0.45596901E+03</pdfrwt>
<totfact> 0.78308879E+01</totfact>
</mgrwt>
</event>
<event>
 4    1  0.1383574E-004  0.3273411E+03  0.7818608E-02  0.1072319E+00
         -2   -1    0    0    0  501 -0.00000000000E+00  0.00000000000E+00  0.10166955681E+03  0.10166955684E+03  0.25500000000E-02 0. -1.
          2   -1    0    0  501    0  0.00000000000E+00 -0.00000000000E+00 -0.26348150166E+03  0.26348150167E+03  0.25500000000E-02 0.  1.
    5000001    1    1    2    0    0  0.73820122165E+02  0.67882563340E+02 -0.10826647224E+03  0.19469997908E+03  0.12700000000E+03 0.  0.
   -5000001    1    1    2    0    0 -0.73820122165E+02 -0.67882563340E+02 -0.53545472617E+02  0.17045107943E+03  0.12700000000E+03 0.  0.
<mgrwt>
<rscale>  0 0.32734109E+03</rscale>
<asrwt>0</asrwt>
<pdfrwt beam="1">  1        2 0.37640214E-01 0.32734109E+03</pdfrwt>
<pdfrwt beam="2">  1       -2 0.14524223E-01 0.32734109E+03</pdfrwt>
<totfact> 0.49380226E+03</totfact>
</mgrwt>
</event>
<event>
 4    1  0.1383574E-004  0.3439074E+03  0.7818608E-02  0.1065144E+00
         -2   -1    0    0    0  501 -0.00000000000E+00  0.00000000000E+00  0.22780316725E+02  0.22780316868E+02  0.25500000000E-02 0. -1.
          2   -1    0    0  501    0  0.00000000000E+00 -0.00000000000E+00 -0.12979656539E+04  0.12979656539E+04  0.25500000000E-02 0.  1.
    5000001    1    1    2    0    0 -0.81120906779E+02 -0.34171753640E+01 -0.31981649701E+03  0.35355886407E+03  0.12700000000E+03 0.  0.
   -5000001    1    1    2    0    0  0.81120906779E+02  0.34171753640E+01 -0.95536884015E+03  0.96718710668E+03  0.12700000000E+03 0.  0.
<mgrwt>
<rscale>  0 0.34390736E+03</rscale>
<asrwt>0</asrwt>
<pdfrwt beam="1">  1        2 0.18542362E+00 0.34390736E+03</pdfrwt>
<pdfrwt beam="2">  1       -2 0.32543318E-02 0.34390736E+03</pdfrwt>
<totfact> 0.74754883E+03</totfact>
</mgrwt>
</event>
<event>
 4    1  0.1383574E-004  0.4456003E+03  0.7818608E-02  0.1029042E+00
          2   -1    0    0  501    0  0.00000000000E+00  0.00000000000E+00  0.18257576231E+03  0.18257576233E+03  0.25500000000E-02 0. -1.
         -2   -1    0    0    0  501 -0.00000000000E+00 -0.00000000000E+00 -0.27188658496E+03  0.27188658497E+03  0.25500000000E-02 0.  1.
    5000001    1    1    2    0    0  0.41845508698E+02 -0.17246518153E+03 -0.90443894780E+02  0.23622951454E+03  0.12700000000E+03 0.  0.
   -5000001    1    1    2    0    0 -0.41845508698E+02  0.17246518153E+03  0.11330721347E+01  0.21823283275E+03  0.12700000000E+03 0.  0.
<mgrwt>
<rscale>  0 0.44560027E+03</rscale>
<asrwt>0</asrwt>
<pdfrwt beam="1">  1        2 0.26082252E-01 0.44560027E+03</pdfrwt>
<pdfrwt beam="2">  1       -2 0.38840941E-01 0.44560027E+03</pdfrwt>
<totfact> 0.13037955E+03</totfact>
</mgrwt>
</event>
<event>
 4    1  0.1383574E-004  0.6149780E+03  0.7818608E-02  0.9874810E-01
          2   -1    0    0  501    0  0.00000000000E+00  0.00000000000E+00  0.48645217142E+03  0.48645217143E+03  0.25500000000E-02 0.  1.
         -2   -1    0    0    0  501 -0.00000000000E+00 -0.00000000000E+00 -0.19436545612E+03  0.19436545614E+03  0.25500000000E-02 0. -1.
    5000001    1    1    2    0    0  0.26447710487E+03 -0.90753967882E+02  0.16305309331E+03  0.34770638896E+03  0.12700000000E+03 0.  0.
   -5000001    1    1    2    0    0 -0.26447710487E+03  0.90753967882E+02  0.12903362199E+03  0.33311123861E+03  0.12700000000E+03 0.  0.
<mgrwt>
<rscale>  0 0.61497804E+03</rscale>
<asrwt>0</asrwt>
<pdfrwt beam="1">  1        2 0.69493167E-01 0.61497804E+03</pdfrwt>
<pdfrwt beam="2">  1       -2 0.27766494E-01 0.61497804E+03</pdfrwt>
<totfact> 0.82265846E+02</totfact>
</mgrwt>
</event>
<event>
 4    1  0.1383574E-004  0.3605474E+03  0.7818608E-02  0.1058367E+00
          2   -1    0    0  501    0  0.00000000000E+00  0.00000000000E+00  0.26676345384E+04  0.26676345384E+04  0.25500000000E-02 0.  1.
         -2   -1    0    0    0  501 -0.00000000000E+00 -0.00000000000E+00 -0.12182553184E+02  0.12182553451E+02  0.25500000000E-02 0. -1.
    5000001    1    1    2    0    0 -0.33578443185E+02 -0.10080071961E+03  0.79790351329E+03  0.81490325404E+03  0.12700000000E+03 0.  0.
   -5000001    1    1    2    0    0  0.33578443185E+02  0.10080071961E+03  0.18575484720E+04  0.18649138378E+04  0.12700000000E+03 0.  0.
<mgrwt>
<rscale>  0 0.36054736E+03</rscale>
<asrwt>0</asrwt>
<pdfrwt beam="1">  1        2 0.38109108E+00 0.36054736E+03</pdfrwt>
<pdfrwt beam="2">  1       -2 0.17403628E-02 0.36054736E+03</pdfrwt>
<totfact> 0.39009652E+03</totfact>
</mgrwt>
</event>
<event>
 4    1  0.1383574E-004  0.4244726E+03  0.7818608E-02  0.1035620E+00
         -2   -1    0    0    0  501 -0.00000000000E+00  0.00000000000E+00  0.93287470623E+03  0.93287470624E+03  0.25500000000E-02 0. -1.
          2   -1    0    0  501    0  0.00000000000E+00 -0.00000000000E+00 -0.48285416493E+02  0.48285416560E+02  0.25500000000E-02 0.  1.
    5000001    1    1    2    0    0 -0.13462637801E+03 -0.10193428867E+03  0.48854637699E+03  0.53227945981E+03  0.12700000000E+03 0.  0.
   -5000001    1    1    2    0    0  0.13462637801E+03  0.10193428867E+03  0.39604291275E+03  0.44888066299E+03  0.12700000000E+03 0.  0.
<mgrwt>
<rscale>  0 0.42447258E+03</rscale>
<asrwt>0</asrwt>
<pdfrwt beam="1">  1        2 0.68979160E-02 0.42447258E+03</pdfrwt>
<pdfrwt beam="2">  1       -2 0.13326783E+00 0.42447258E+03</pdfrwt>
<totfact> 0.44365191E+02</totfact>
</mgrwt>
</event>
<event>
 4    1  0.1383574E-004  0.4315400E+03  0.7818608E-02  0.1033375E+00
          2   -1    0    0  501    0  0.00000000000E+00  0.00000000000E+00  0.64650829061E+03  0.64650829062E+03  0.25500000000E-02 0.  1.
         -2   -1    0    0    0  501 -0.00000000000E+00 -0.00000000000E+00 -0.72012516632E+02  0.72012516678E+02  0.25500000000E-02 0. -1.
    5000001    1    1    2    0    0 -0.13621601853E+03  0.26792659409E+02  0.11139323906E+03  0.21865521720E+03  0.12700000000E+03 0.  0.
   -5000001    1    1    2    0    0  0.13621601853E+03 -0.26792659409E+02  0.46310253492E+03  0.49986559009E+03  0.12700000000E+03 0.  0.
<mgrwt>
<rscale>  0 0.43153998E+03</rscale>
<asrwt>0</asrwt>
<pdfrwt beam="1">  1        2 0.92358332E-01 0.43153998E+03</pdfrwt>
<pdfrwt beam="2">  1       -2 0.10287502E-01 0.43153998E+03</pdfrwt>
<totfact> 0.32204845E+03</totfact>
</mgrwt>
</event>
<event>
 4    1  0.1383574E-004  0.3291042E+03  0.7818608E-02  0.1071534E+00
         -2   -1    0    0    0  501 -0.00000000000E+00  0.00000000000E+00  0.11000055843E+02  0.11000056138E+02  0.25500000000E-02 0. -1.
          2   -1    0    0  501    0  0.00000000000E+00 -0.00000000000E+00 -0.24615686003E+04  0.24615686003E+04  0.25500000000E-02 0.  1.
    5000001    1    1    2    0    0  0.31608199862E+02  0.97855337019E+02 -0.13705107421E+04  0.13802186202E+04  0.12700000000E+03 0.  0.
   -5000001    1    1    2    0    0 -0.31608199862E+02 -0.97855337019E+02 -0.10800578023E+04  0.10923500362E+04  0.12700000000E+03 0.  0.
<mgrwt>
<rscale>  0 0.32910419E+03</rscale>
<asrwt>0</asrwt>
<pdfrwt beam="1">  1        2 0.35165230E+00 0.32910419E+03</pdfrwt>
<pdfrwt beam="2">  1       -2 0.15714381E-02 0.32910419E+03</pdfrwt>
<totfact> 0.57726899E+03</totfact>
</mgrwt>
</event>
<event>
 4    1  0.1383574E-004  0.3250505E+03  0.7818608E-02  0.1073348E+00
          2   -1    0    0  501    0  0.00000000000E+00  0.00000000000E+00  0.29919545505E+03  0.29919545506E+03  0.25500000000E-02 0.  1.
         -2   -1    0    0    0  501 -0.00000000000E+00 -0.00000000000E+00 -0.88284967683E+02  0.88284967720E+02  0.25500000000E-02 0. -1.
    5000001    1    1    2    0    0 -0.44416024195E+02 -0.79026352668E+02  0.51252275970E+02  0.16423685157E+03  0.12700000000E+03 0.  0.
   -5000001    1    1    2    0    0  0.44416024195E+02  0.79026352668E+02  0.15965821140E+03  0.22324357121E+03  0.12700000000E+03 0.  0.
<mgrwt>
<rscale>  0 0.32505053E+03</rscale>
<asrwt>0</asrwt>
<pdfrwt beam="1">  1        2 0.42742207E-01 0.32505053E+03</pdfrwt>
<pdfrwt beam="2">  1       -2 0.12612138E-01 0.32505053E+03</pdfrwt>
<totfact> 0.54226244E+03</totfact>
</mgrwt>
</event>
<event>
 4    1  0.1383574E-004  0.4342323E+03  0.7818608E-02  0.1032531E+00
         -2   -1    0    0    0  501 -0.00000000000E+00  0.00000000000E+00  0.28528407286E+02  0.28528407400E+02  0.25500000000E-02 0. -1.
          2   -1    0    0  501    0  0.00000000000E+00 -0.00000000000E+00 -0.16523681372E+04  0.16523681372E+04  0.25500000000E-02 0.  1.
    5000001    1    1    2    0    0 -0.13484909679E+03 -0.23019765297E+02 -0.12411646568E+04  0.12551226609E+04  0.12700000000E+03 0.  0.
   -5000001    1    1    2    0    0  0.13484909679E+03  0.23019765297E+02 -0.38267507310E+03  0.42577388374E+03  0.12700000000E+03 0.  0.
<mgrwt>
<rscale>  0 0.43423234E+03</rscale>
<asrwt>0</asrwt>
<pdfrwt beam="1">  1        2 0.23605253E+00 0.43423234E+03</pdfrwt>
<pdfrwt beam="2">  1       -2 0.40754878E-02 0.43423234E+03</pdfrwt>
<totfact> 0.34959456E+03</totfact>
</mgrwt>
</event>
<event>
 4    1  0.1383574E-004  0.3118180E+03  0.7818608E-02  0.1079478E+00
          2   -1    0    0  501    0  0.00000000000E+00  0.00000000000E+00  0.49624738397E+03  0.49624738398E+03  0.25500000000E-02 0.  1.
         -2   -1    0    0    0  501 -0.00000000000E+00 -0.00000000000E+00 -0.48982846350E+02  0.48982846416E+02  0.25500000000E-02 0. -1.
    5000001    1    1    2    0    0  0.31391573080E+02  0.50673832585E+02  0.10471342026E+03  0.17506332726E+03  0.12700000000E+03 0.  0.
   -5000001    1    1    2    0    0 -0.31391573080E+02 -0.50673832585E+02  0.34255111736E+03  0.37016690313E+03  0.12700000000E+03 0.  0.
<mgrwt>
<rscale>  0 0.31181796E+03</rscale>
<asrwt>0</asrwt>
<pdfrwt beam="1">  1        2 0.70892479E-01 0.31181796E+03</pdfrwt>
<pdfrwt beam="2">  1       -2 0.69975500E-02 0.31181796E+03</pdfrwt>
<totfact> 0.79570631E+03</totfact>
</mgrwt>
</event>
<event>
 4    1  0.1383574E-004  0.2746790E+03  0.7818608E-02  0.1098631E+00
          2   -1    0    0  501    0  0.00000000000E+00  0.00000000000E+00  0.42637119031E+03  0.42637119032E+03  0.25500000000E-02 0. -1.
         -2   -1    0    0    0  501 -0.00000000000E+00 -0.00000000000E+00 -0.44238762362E+02  0.44238762436E+02  0.25500000000E-02 0.  1.
    5000001    1    1    2    0    0 -0.45103841507E+02  0.26044849512E+02  0.19881277367E+03  0.24159513588E+03  0.12700000000E+03 0.  0.
   -5000001    1    1    2    0    0  0.45103841507E+02 -0.26044849512E+02  0.18331965428E+03  0.22901481688E+03  0.12700000000E+03 0.  0.
<mgrwt>
<rscale>  0 0.27467897E+03</rscale>
<asrwt>0</asrwt>
<pdfrwt beam="1">  1        2 0.60910162E-01 0.27467897E+03</pdfrwt>
<pdfrwt beam="2">  1       -2 0.63198240E-02 0.27467897E+03</pdfrwt>
<totfact> 0.10949368E+04</totfact>
</mgrwt>
</event>
<event>
 4    1  0.1383574E-004  0.3425161E+03  0.7818608E-02  0.1065729E+00
          2   -1    0    0  501    0  0.00000000000E+00  0.00000000000E+00  0.35132369514E+03  0.35132369514E+03  0.25500000000E-02 0.  1.
         -2   -1    0    0    0  501 -0.00000000000E+00 -0.00000000000E+00 -0.83482321533E+02  0.83482321572E+02  0.25500000000E-02 0. -1.
    5000001    1    1    2    0    0  0.84458322226E+02  0.74826140070E+02  0.16138766699E+03  0.23432272294E+03  0.12700000000E+03 0.  0.
   -5000001    1    1    2    0    0 -0.84458322226E+02 -0.74826140070E+02  0.10645370661E+03  0.20048329377E+03  0.12700000000E+03 0.  0.
<mgrwt>
<rscale>  0 0.34251609E+03</rscale>
<asrwt>0</asrwt>
<pdfrwt beam="1">  1        2 0.50189099E-01 0.34251609E+03</pdfrwt>
<pdfrwt beam="2">  1       -2 0.11926046E-01 0.34251609E+03</pdfrwt>
<totfact> 0.49983586E+03</totfact>
</mgrwt>
</event>
<event>
 4    1  0.1383574E-004  0.3758795E+03  0.7818608E-02  0.1052467E+00
         -2   -1    0    0    0  501 -0.00000000000E+00  0.00000000000E+00  0.20124638909E+02  0.20124639071E+02  0.25500000000E-02 0. -1.
          2   -1    0    0  501    0  0.00000000000E+00 -0.00000000000E+00 -0.17551296970E+04  0.17551296970E+04  0.25500000000E-02 0.  1.
    5000001    1    1    2    0    0 -0.77069168694E+02  0.10658064589E+03 -0.66200001498E+03  0.68678388935E+03  0.12700000000E+03 0.  0.
   -5000001    1    1    2    0    0  0.77069168694E+02 -0.10658064589E+03 -0.10730050431E+04  0.10884704467E+04  0.12700000000E+03 0.  0.
<mgrwt>
<rscale>  0 0.37587951E+03</rscale>
<asrwt>0</asrwt>
<pdfrwt beam="1">  1        2 0.25073272E+00 0.37587951E+03</pdfrwt>
<pdfrwt beam="2">  1       -2 0.28749495E-02 0.37587951E+03</pdfrwt>
<totfact> 0.52641314E+03</totfact>
</mgrwt>
</event>
<event>
 4    1  0.1383574E-004  0.5740819E+03  0.7818608E-02  0.9960686E-01
          2   -1    0    0  501    0  0.00000000000E+00  0.00000000000E+00  0.92115082773E+03  0.92115082774E+03  0.25500000000E-02 0.  1.
         -2   -1    0    0    0  501 -0.00000000000E+00 -0.00000000000E+00 -0.89445192477E+02  0.89445192514E+02  0.25500000000E-02 0. -1.
    5000001    1    1    2    0    0 -0.22349222261E+03 -0.10649582585E+03  0.53999788671E+03  0.60746757291E+03  0.12700000000E+03 0.  0.
   -5000001    1    1    2    0    0  0.22349222261E+03  0.10649582585E+03  0.29170774855E+03  0.40312844734E+03  0.12700000000E+03 0.  0.
<mgrwt>
<rscale>  0 0.57408192E+03</rscale>
<asrwt>0</asrwt>
<pdfrwt beam="1">  1        2 0.13159298E+00 0.57408192E+03</pdfrwt>
<pdfrwt beam="2">  1       -2 0.12777884E-01 0.57408192E+03</pdfrwt>
<totfact> 0.14491813E+03</totfact>
</mgrwt>
</event>
<event>
 4    1  0.1383574E-004  0.3155724E+03  0.7818608E-02  0.1077705E+00
         -2   -1    0    0    0  501 -0.00000000000E+00  0.00000000000E+00  0.10083586188E+02  0.10083586510E+02  0.25500000000E-02 0. -1.
          2   -1    0    0  501    0  0.00000000000E+00 -0.00000000000E+00 -0.24690110130E+04  0.24690110130E+04  0.25500000000E-02 0.  1.
    5000001    1    1    2    0    0  0.64655044529E+01  0.76321770278E+02 -0.80636347547E+03  0.81988893757E+03  0.12700000000E+03 0.  0.
   -5000001    1    1    2    0    0 -0.64655044529E+01 -0.76321770278E+02 -0.16525639514E+04  0.16592056620E+04  0.12700000000E+03 0.  0.
<mgrwt>
<rscale>  0 0.31557241E+03</rscale>
<asrwt>0</asrwt>
<pdfrwt beam="1">  1        2 0.35271547E+00 0.31557241E+03</pdfrwt>
<pdfrwt beam="2">  1       -2 0.14405139E-02 0.31557241E+03</pdfrwt>
<totfact> 0.65050919E+03</totfact>
</mgrwt>
</event>
<event>
 4    1  0.1383574E-004  0.3723103E+03  0.7818608E-02  0.1053813E+00
          2   -1    0    0  501    0  0.00000000000E+00  0.00000000000E+00  0.29558221710E+04  0.29558221710E+04  0.25500000000E-02 0.  1.
         -2   -1    0    0    0  501 -0.00000000000E+00 -0.00000000000E+00 -0.11723892070E+02  0.11723892347E+02  0.25500000000E-02 0. -1.
    5000001    1    1    2    0    0  0.68323804489E+02 -0.11220601108E+03  0.11884013089E+04  0.12023664176E+04  0.12700000000E+03 0.  0.
   -5000001    1    1    2    0    0 -0.68323804489E+02  0.11220601108E+03  0.17556969701E+04  0.17651796458E+04  0.12700000000E+03 0.  0.
<mgrwt>
<rscale>  0 0.37231030E+03</rscale>
<asrwt>0</asrwt>
<pdfrwt beam="1">  1        2 0.42226025E+00 0.37231030E+03</pdfrwt>
<pdfrwt beam="2">  1       -2 0.16748420E-02 0.37231030E+03</pdfrwt>
<totfact> 0.29181745E+03</totfact>
</mgrwt>
</event>
<event>
 4    1  0.1383574E-004  0.4298573E+03  0.7818608E-02  0.1033905E+00
         -2   -1    0    0    0  501 -0.00000000000E+00  0.00000000000E+00  0.49393751082E+02  0.49393751148E+02  0.25500000000E-02 0. -1.
          2   -1    0    0  501    0  0.00000000000E+00 -0.00000000000E+00 -0.93522588336E+03  0.93522588336E+03  0.25500000000E-02 0.  1.
    5000001    1    1    2    0    0  0.14249856783E+03 -0.87269362480E+02 -0.33686644452E+03  0.39690022034E+03  0.12700000000E+03 0.  0.
   -5000001    1    1    2    0    0 -0.14249856783E+03  0.87269362480E+02 -0.54896568776E+03  0.58771941417E+03  0.12700000000E+03 0.  0.
<mgrwt>
<rscale>  0 0.42985725E+03</rscale>
<asrwt>0</asrwt>
<pdfrwt beam="1">  1        2 0.13360369E+00 0.42985725E+03</pdfrwt>
<pdfrwt beam="2">  1       -2 0.70562507E-02 0.42985725E+03</pdfrwt>
<totfact> 0.36898245E+03</totfact>
</mgrwt>
</event>
<event>
 4    1  0.1383574E-004  0.3101158E+03  0.7818608E-02  0.1080290E+00
         -2   -1    0    0    0  501 -0.00000000000E+00  0.00000000000E+00  0.12307609763E+03  0.12307609765E+03  0.25500000000E-02 0. -1.
          2   -1    0    0  501    0  0.00000000000E+00 -0.00000000000E+00 -0.19535029362E+03  0.19535029363E+03  0.25500000000E-02 0.  1.
    5000001    1    1    2    0    0  0.51421898740E+02  0.67665386540E+02 -0.91431254768E+01  0.15308629249E+03  0.12700000000E+03 0.  0.
   -5000001    1    1    2    0    0 -0.51421898740E+02 -0.67665386540E+02 -0.63131070512E+02  0.16534009880E+03  0.12700000000E+03 0.  0.
<mgrwt>
<rscale>  0 0.31011580E+03</rscale>
<asrwt>0</asrwt>
<pdfrwt beam="1">  1        2 0.27907185E-01 0.31011580E+03</pdfrwt>
<pdfrwt beam="2">  1       -2 0.17582300E-01 0.31011580E+03</pdfrwt>
<totfact> 0.49752710E+03</totfact>
</mgrwt>
</event>
<event>
 4    1  0.1383574E-004  0.4691089E+03  0.7818608E-02  0.1022172E+00
          2   -1    0    0  501    0  0.00000000000E+00  0.00000000000E+00  0.69299964985E+03  0.69299964986E+03  0.25500000000E-02 0.  1.
         -2   -1    0    0    0  501 -0.00000000000E+00 -0.00000000000E+00 -0.79387919139E+02  0.79387919180E+02  0.25500000000E-02 0. -1.
    5000001    1    1    2    0    0 -0.18706067930E+03 -0.61760629897E+02  0.29201236081E+03  0.37444130650E+03  0.12700000000E+03 0.  0.
   -5000001    1    1    2    0    0  0.18706067930E+03  0.61760629897E+02  0.32159936990E+03  0.39794626254E+03  0.12700000000E+03 0.  0.
<mgrwt>
<rscale>  0 0.46910894E+03</rscale>
<asrwt>0</asrwt>
<pdfrwt beam="1">  1        2 0.98999954E-01 0.46910894E+03</pdfrwt>
<pdfrwt beam="2">  1       -2 0.11341131E-01 0.46910894E+03</pdfrwt>
<totfact> 0.25327112E+03</totfact>
</mgrwt>
</event>
<event>
 4    1  0.1383574E-004  0.6578516E+03  0.7818608E-02  0.9792157E-01
         -2   -1    0    0    0  501 -0.00000000000E+00  0.00000000000E+00  0.35072025973E+03  0.35072025974E+03  0.25500000000E-02 0. -1.
          2   -1    0    0  501    0  0.00000000000E+00 -0.00000000000E+00 -0.30848573573E+03  0.30848573574E+03  0.25500000000E-02 0.  1.
    5000001    1    1    2    0    0 -0.25142717057E+03 -0.15710238923E+03 -0.43563394989E+02  0.32545898695E+03  0.12700000000E+03 0.  0.
   -5000001    1    1    2    0    0  0.25142717057E+03  0.15710238923E+03  0.85797918991E+02  0.33374700853E+03  0.12700000000E+03 0.  0.
<mgrwt>
<rscale>  0 0.65785165E+03</rscale>
<asrwt>0</asrwt>
<pdfrwt beam="1">  1        2 0.44069391E-01 0.65785165E+03</pdfrwt>
<pdfrwt beam="2">  1       -2 0.50102895E-01 0.65785165E+03</pdfrwt>
<totfact> 0.43923191E+02</totfact>
</mgrwt>
</event>
<event>
 4    1  0.1383574E-004  0.3951369E+03  0.7818608E-02  0.1045477E+00
         -2   -1    0    0    0  501 -0.00000000000E+00  0.00000000000E+00  0.31435820608E+02  0.31435820711E+02  0.25500000000E-02 0. -1.
          2   -1    0    0  501    0  0.00000000000E+00 -0.00000000000E+00 -0.12416822355E+04  0.12416822355E+04  0.25500000000E-02 0.  1.
    5000001    1    1    2    0    0 -0.11922940182E+03  0.81552148552E+02 -0.75057267957E+03  0.77482562587E+03  0.12700000000E+03 0.  0.
   -5000001    1    1    2    0    0  0.11922940182E+03 -0.81552148552E+02 -0.45967373534E+03  0.49829243036E+03  0.12700000000E+03 0.  0.
<mgrwt>
<rscale>  0 0.39513694E+03</rscale>
<asrwt>0</asrwt>
<pdfrwt beam="1">  1        2 0.17738315E+00 0.39513694E+03</pdfrwt>
<pdfrwt beam="2">  1       -2 0.44908323E-02 0.39513694E+03</pdfrwt>
<totfact> 0.49305847E+03</totfact>
</mgrwt>
</event>
<event>
 4    1  0.1383574E-004  0.4130005E+03  0.7818608E-02  0.1039369E+00
         -2   -1    0    0    0  501 -0.00000000000E+00  0.00000000000E+00  0.47784990365E+03  0.47784990365E+03  0.25500000000E-02 0. -1.
          2   -1    0    0  501    0  0.00000000000E+00 -0.00000000000E+00 -0.89237960932E+02  0.89237960968E+02  0.25500000000E-02 0.  1.
    5000001    1    1    2    0    0 -0.16116262359E+03  0.22830125280E+02  0.18836107065E+03  0.27947003202E+03  0.12700000000E+03 0.  0.
   -5000001    1    1    2    0    0  0.16116262359E+03 -0.22830125280E+02  0.20025087207E+03  0.28761783260E+03  0.12700000000E+03 0.  0.
<mgrwt>
<rscale>  0 0.41300049E+03</rscale>
<asrwt>0</asrwt>
<pdfrwt beam="1">  1        2 0.12748280E-01 0.41300049E+03</pdfrwt>
<pdfrwt beam="2">  1       -2 0.68264273E-01 0.41300049E+03</pdfrwt>
<totfact> 0.96271286E+02</totfact>
</mgrwt>
</event>
<event>
 4    1  0.1383574E-004  0.5358754E+03  0.7818608E-02  0.1004817E+00
          2   -1    0    0  501    0  0.00000000000E+00  0.00000000000E+00  0.90348635038E+03  0.90348635038E+03  0.25500000000E-02 0.  1.
         -2   -1    0    0    0  501 -0.00000000000E+00 -0.00000000000E+00 -0.79459551939E+02  0.79459551980E+02  0.25500000000E-02 0. -1.
    5000001    1    1    2    0    0  0.98876199558E+02 -0.78002861575E+02  0.46072487351E+02  0.18469602958E+03  0.12700000000E+03 0.  0.
   -5000001    1    1    2    0    0 -0.98876199558E+02  0.78002861575E+02  0.77795431109E+03  0.79824987278E+03  0.12700000000E+03 0.  0.
<mgrwt>
<rscale>  0 0.53587544E+03</rscale>
<asrwt>0</asrwt>
<pdfrwt beam="1">  1        2 0.12906949E+00 0.53587544E+03</pdfrwt>
<pdfrwt beam="2">  1       -2 0.11351364E-01 0.53587544E+03</pdfrwt>
<totfact> 0.18076005E+03</totfact>
</mgrwt>
</event>
<event>
 4    1  0.1383574E-004  0.3084246E+03  0.7818608E-02  0.1081103E+00
          2   -1    0    0  501    0  0.00000000000E+00  0.00000000000E+00  0.13772497256E+04  0.13772497256E+04  0.25500000000E-02 0.  1.
         -2   -1    0    0    0  501 -0.00000000000E+00 -0.00000000000E+00 -0.17267333297E+02  0.17267333485E+02  0.25500000000E-02 0. -1.
    5000001    1    1    2    0    0 -0.46443093216E+02 -0.25788793542E+02  0.99423500608E+03  0.10037202150E+04  0.12700000000E+03 0.  0.
   -5000001    1    1    2    0    0  0.46443093216E+02  0.25788793542E+02  0.36574738618E+03  0.39079684399E+03  0.12700000000E+03 0.  0.
<mgrwt>
<rscale>  0 0.30842458E+03</rscale>
<asrwt>0</asrwt>
<pdfrwt beam="1">  1        2 0.19674996E+00 0.30842458E+03</pdfrwt>
<pdfrwt beam="2">  1       -2 0.24667619E-02 0.30842458E+03</pdfrwt>
<totfact> 0.10248823E+04</totfact>
</mgrwt>
</event>
<event>
 4    1  0.1383574E-004  0.4156335E+03  0.7818608E-02  0.1038497E+00
         -2   -1    0    0    0  501 -0.00000000000E+00  0.00000000000E+00  0.12808518055E+03  0.12808518058E+03  0.25500000000E-02 0. -1.
          2   -1    0    0  501    0  0.00000000000E+00 -0.00000000000E+00 -0.33718028126E+03  0.33718028127E+03  0.25500000000E-02 0.  1.
    5000001    1    1    2    0    0 -0.19480723475E+02  0.15237232732E+03 -0.38682944311E+02  0.20303249716E+03  0.12700000000E+03 0.  0.
   -5000001    1    1    2    0    0  0.19480723475E+02 -0.15237232732E+03 -0.17041215640E+03  0.26223296469E+03  0.12700000000E+03 0.  0.
<mgrwt>
<rscale>  0 0.41563348E+03</rscale>
<asrwt>0</asrwt>
<pdfrwt beam="1">  1        2 0.48168611E-01 0.41563348E+03</pdfrwt>
<pdfrwt beam="2">  1       -2 0.18297883E-01 0.41563348E+03</pdfrwt>
<totfact> 0.25749760E+03</totfact>
</mgrwt>
</event>
<event>
 4    1  0.1383574E-004  0.4143353E+03  0.7818608E-02  0.1038926E+00
          2   -1    0    0  501    0  0.00000000000E+00  0.00000000000E+00  0.11996850339E+03  0.11996850342E+03  0.25500000000E-02 0.  1.
         -2   -1    0    0    0  501 -0.00000000000E+00 -0.00000000000E+00 -0.35774755599E+03  0.35774755600E+03  0.25500000000E-02 0. -1.
    5000001    1    1    2    0    0 -0.94189611848E+02 -0.13365518550E+03 -0.11041325408E+03  0.23463903824E+03  0.12700000000E+03 0.  0.
   -5000001    1    1    2    0    0  0.94189611848E+02  0.13365518550E+03 -0.12736579852E+03  0.24307702118E+03  0.12700000000E+03 0.  0.
<mgrwt>
<rscale>  0 0.41433532E+03</rscale>
<asrwt>0</asrwt>
<pdfrwt beam="1">  1        2 0.17138358E-01 0.41433532E+03</pdfrwt>
<pdfrwt beam="2">  1       -2 0.51106793E-01 0.41433532E+03</pdfrwt>
<totfact> 0.12324865E+03</totfact>
</mgrwt>
</event>
<event>
 4    1  0.1383574E-004  0.4334261E+03  0.7818608E-02  0.1032783E+00
         -2   -1    0    0    0  501 -0.00000000000E+00  0.00000000000E+00  0.13676223980E+02  0.13676224217E+02  0.25500000000E-02 0. -1.
          2   -1    0    0  501    0  0.00000000000E+00 -0.00000000000E+00 -0.34340279987E+04  0.34340279987E+04  0.25500000000E-02 0.  1.
    5000001    1    1    2    0    0  0.54205935909E+02 -0.16007758670E+03 -0.20893679275E+04  0.21000358220E+04  0.12700000000E+03 0.  0.
   -5000001    1    1    2    0    0 -0.54205935909E+02  0.16007758670E+03 -0.13309838472E+04  0.13476684009E+04  0.12700000000E+03 0.  0.
<mgrwt>
<rscale>  0 0.43342606E+03</rscale>
<asrwt>0</asrwt>
<pdfrwt beam="1">  1        2 0.49057488E+00 0.43342606E+03</pdfrwt>
<pdfrwt beam="2">  1       -2 0.19537485E-02 0.43342606E+03</pdfrwt>
<totfact> 0.12530618E+03</totfact>
</mgrwt>
</event>
<event>
 4    1  0.1383574E-004  0.3776392E+03  0.7818608E-02  0.1051810E+00
          2   -1    0    0  501    0  0.00000000000E+00  0.00000000000E+00  0.45587535267E+03  0.45587535268E+03  0.25500000000E-02 0.  1.
         -2   -1    0    0    0  501 -0.00000000000E+00 -0.00000000000E+00 -0.78207453896E+02  0.78207453938E+02  0.25500000000E-02 0. -1.
    5000001    1    1    2    0    0  0.65219938850E+02  0.10111445887E+03  0.88370431051E+02  0.19600027372E+03  0.12700000000E+03 0.  0.
   -5000001    1    1    2    0    0 -0.65219938850E+02 -0.10111445887E+03  0.28929746772E+03  0.33808253289E+03  0.12700000000E+03 0.  0.
<mgrwt>
<rscale>  0 0.37763925E+03</rscale>
<asrwt>0</asrwt>
<pdfrwt beam="1">  1        2 0.65125052E-01 0.37763925E+03</pdfrwt>
<pdfrwt beam="2">  1       -2 0.11172493E-01 0.37763925E+03</pdfrwt>
<totfact> 0.41880218E+03</totfact>
</mgrwt>
</event>
<event>
 4    1  0.1383574E-004  0.3502765E+03  0.7818608E-02  0.1062502E+00
         -2   -1    0    0    0  501 -0.00000000000E+00  0.00000000000E+00  0.10685454972E+02  0.10685455277E+02  0.25500000000E-02 0. -1.
          2   -1    0    0  501    0  0.00000000000E+00 -0.00000000000E+00 -0.28705758086E+04  0.28705758086E+04  0.25500000000E-02 0.  1.
    5000001    1    1    2    0    0 -0.63010107913E+02  0.91547812508E+02 -0.18151610178E+04  0.18229892475E+04  0.12700000000E+03 0.  0.
   -5000001    1    1    2    0    0  0.63010107913E+02 -0.91547812508E+02 -0.10447293358E+04  0.10582720164E+04  0.12700000000E+03 0.  0.
<mgrwt>
<rscale>  0 0.35027651E+03</rscale>
<asrwt>0</asrwt>
<pdfrwt beam="1">  1        2 0.41008177E+00 0.35027651E+03</pdfrwt>
<pdfrwt beam="2">  1       -2 0.15264954E-02 0.35027651E+03</pdfrwt>
<totfact> 0.37173256E+03</totfact>
</mgrwt>
</event>
<event>
 4    1  0.1383574E-004  0.3304645E+03  0.7818608E-02  0.1070932E+00
          2   -1    0    0  501    0  0.00000000000E+00  0.00000000000E+00  0.80954564615E+03  0.80954564615E+03  0.25500000000E-02 0.  1.
         -2   -1    0    0    0  501 -0.00000000000E+00 -0.00000000000E+00 -0.33724708487E+02  0.33724708583E+02  0.25500000000E-02 0. -1.
    5000001    1    1    2    0    0  0.77248744662E+02 -0.71966877079E+02  0.40094476450E+03  0.43362691813E+03  0.12700000000E+03 0.  0.
   -5000001    1    1    2    0    0 -0.77248744662E+02  0.71966877079E+02  0.37487617316E+03  0.40964343660E+03  0.12700000000E+03 0.  0.
<mgrwt>
<rscale>  0 0.33046447E+03</rscale>
<asrwt>0</asrwt>
<pdfrwt beam="1">  1        2 0.11564938E+00 0.33046447E+03</pdfrwt>
<pdfrwt beam="2">  1       -2 0.48178153E-02 0.33046447E+03</pdfrwt>
<totfact> 0.79857510E+03</totfact>
</mgrwt>
</event>
<event>
 4    1  0.1383574E-004  0.3816585E+03  0.7818608E-02  0.1050322E+00
         -2   -1    0    0    0  501 -0.00000000000E+00  0.00000000000E+00  0.74692587260E+01  0.74692591612E+01  0.25500000000E-02 0. -1.
          2   -1    0    0  501    0  0.00000000000E+00 -0.00000000000E+00 -0.48754242711E+04  0.48754242711E+04  0.25500000000E-02 0.  1.
    5000001    1    1    2    0    0 -0.11569981261E+03  0.74534574431E+02 -0.19647791512E+04  0.19736838557E+04  0.12700000000E+03 0.  0.
   -5000001    1    1    2    0    0  0.11569981261E+03 -0.74534574431E+02 -0.29031758612E+04  0.29092096746E+04  0.12700000000E+03 0.  0.
<mgrwt>
<rscale>  0 0.38165852E+03</rscale>
<asrwt>0</asrwt>
<pdfrwt beam="1">  1        2 0.69648715E+00 0.38165852E+03</pdfrwt>
<pdfrwt beam="2">  1       -2 0.10670401E-02 0.38165852E+03</pdfrwt>
<totfact> 0.30090263E+02</totfact>
</mgrwt>
</event>
<event>
 4    1  0.1383574E-004  0.3088059E+03  0.7818608E-02  0.1080920E+00
          2   -1    0    0  501    0  0.00000000000E+00  0.00000000000E+00  0.46149021970E+03  0.46149021971E+03  0.25500000000E-02 0.  1.
         -2   -1    0    0    0  501 -0.00000000000E+00 -0.00000000000E+00 -0.51659336177E+02  0.51659336240E+02  0.25500000000E-02 0. -1.
    5000001    1    1    2    0    0 -0.46650269597E+02  0.44815033048E+02  0.10623318219E+03  0.17776142393E+03  0.12700000000E+03 0.  0.
   -5000001    1    1    2    0    0  0.46650269597E+02 -0.44815033048E+02  0.30359770133E+03  0.33538813201E+03  0.12700000000E+03 0.  0.
<mgrwt>
<rscale>  0 0.30880595E+03</rscale>
<asrwt>0</asrwt>
<pdfrwt beam="1">  1        2 0.65927177E-01 0.30880595E+03</pdfrwt>
<pdfrwt beam="2">  1       -2 0.73799048E-02 0.30880595E+03</pdfrwt>
<totfact> 0.79339200E+03</totfact>
</mgrwt>
</event>
<event>
 4    1  0.1383574E-004  0.2906683E+03  0.7818608E-02  0.1090001E+00
          2   -1    0    0  501    0  0.00000000000E+00  0.00000000000E+00  0.30978645684E+03  0.30978645685E+03  0.25500000000E-02 0.  1.
         -2   -1    0    0    0  501 -0.00000000000E+00 -0.00000000000E+00 -0.68182514845E+02  0.68182514892E+02  0.25500000000E-02 0. -1.
    5000001    1    1    2    0    0 -0.37610367112E+02 -0.29825074313E+01  0.19849235603E+03  0.23864544929E+03  0.12700000000E+03 0.  0.
   -5000001    1    1    2    0    0  0.37610367112E+02  0.29825074313E+01  0.43111585971E+02  0.13932352246E+03  0.12700000000E+03 0.  0.
<mgrwt>
<rscale>  0 0.29066833E+03</rscale>
<asrwt>0</asrwt>
<pdfrwt beam="1">  1        2 0.44255209E-01 0.29066833E+03</pdfrwt>
<pdfrwt beam="2">  1       -2 0.97403590E-02 0.29066833E+03</pdfrwt>
<totfact> 0.78832239E+03</totfact>
</mgrwt>
</event>
<event>
 4    1  0.1383574E-004  0.4676549E+03  0.7818608E-02  0.1022584E+00
          2   -1    0    0  501    0  0.00000000000E+00  0.00000000000E+00  0.29500450904E+03  0.29500450905E+03  0.25500000000E-02 0.  1.
         -2   -1    0    0    0  501 -0.00000000000E+00 -0.00000000000E+00 -0.18533705791E+03  0.18533705793E+03  0.25500000000E-02 0. -1.
    5000001    1    1    2    0    0 -0.14580892993E+03  0.13114439783E+03  0.45243918533E+02  0.23798132131E+03  0.12700000000E+03 0.  0.
   -5000001    1    1    2    0    0  0.14580892993E+03 -0.13114439783E+03  0.64423532590E+02  0.24236024567E+03  0.12700000000E+03 0.  0.
<mgrwt>
<rscale>  0 0.46765486E+03</rscale>
<asrwt>0</asrwt>
<pdfrwt beam="1">  1        2 0.42143501E-01 0.46765486E+03</pdfrwt>
<pdfrwt beam="2">  1       -2 0.26476723E-01 0.46765486E+03</pdfrwt>
<totfact> 0.15612924E+03</totfact>
</mgrwt>
</event>
<event>
 4    1  0.1383574E-004  0.5424991E+03  0.7818608E-02  0.1003245E+00
          2   -1    0    0  501    0  0.00000000000E+00  0.00000000000E+00  0.24631533870E+03  0.24631533872E+03  0.25500000000E-02 0.  1.
         -2   -1    0    0    0  501 -0.00000000000E+00 -0.00000000000E+00 -0.29870785960E+03  0.29870785961E+03  0.25500000000E-02 0. -1.
    5000001    1    1    2    0    0  0.60785900962E+02 -0.19561195962E+03  0.98835025977E+02  0.26049246988E+03  0.12700000000E+03 0.  0.
   -5000001    1    1    2    0    0 -0.60785900962E+02  0.19561195962E+03 -0.15122754688E+03  0.28453072846E+03  0.12700000000E+03 0.  0.
<mgrwt>
<rscale>  0 0.54249913E+03</rscale>
<asrwt>0</asrwt>
<pdfrwt beam="1">  1        2 0.35187906E-01 0.54249913E+03</pdfrwt>
<pdfrwt beam="2">  1       -2 0.42672551E-01 0.54249913E+03</pdfrwt>
<totfact> 0.77754059E+02</totfact>
</mgrwt>
</event>
<event>
 4    1  0.1383574E-004  0.3389843E+03  0.7818608E-02  0.1067229E+00
          2   -1    0    0  501    0  0.00000000000E+00  0.00000000000E+00  0.15306868421E+03  0.15306868423E+03  0.25500000000E-02 0.  1.
         -2   -1    0    0    0  501 -0.00000000000E+00 -0.00000000000E+00 -0.18767774910E+03  0.18767774912E+03  0.25500000000E-02 0. -1.
    5000001    1    1    2    0    0 -0.37645712481E+02  0.92677414348E+02  0.33874608042E+02  0.16517503403E+03  0.12700000000E+03 0.  0.
   -5000001    1    1    2    0    0  0.37645712481E+02 -0.92677414348E+02 -0.68483672932E+02  0.17557139931E+03  0.12700000000E+03 0.  0.
<mgrwt>
<rscale>  0 0.33898428E+03</rscale>
<asrwt>0</asrwt>
<pdfrwt beam="1">  1        2 0.21866955E-01 0.33898428E+03</pdfrwt>
<pdfrwt beam="2">  1       -2 0.26811107E-01 0.33898428E+03</pdfrwt>
<totfact> 0.31529688E+03</totfact>
</mgrwt>
</event>
<event>
 4    1  0.1383574E-004  0.3568356E+03  0.7818608E-02  0.1059844E+00
          2   -1    0    0  501    0  0.00000000000E+00  0.00000000000E+00  0.50480334872E+03  0.50480334872E+03  0.25500000000E-02 0.  1.
         -2   -1    0    0    0  501 -0.00000000000E+00 -0.00000000000E+00 -0.63060013787E+02  0.63060013839E+02  0.25500000000E-02 0. -1.
    5000001    1    1    2    0    0  0.88689598012E+02  0.69996979448E+02  0.13460611837E+03  0.21682534222E+03  0.12700000000E+03 0.  0.
   -5000001    1    1    2    0    0 -0.88689598012E+02 -0.69996979448E+02  0.30713721656E+03  0.35103802034E+03  0.12700000000E+03 0.  0.
<mgrwt>
<rscale>  0 0.35683557E+03</rscale>
<asrwt>0</asrwt>
<pdfrwt beam="1">  1        2 0.72114762E-01 0.35683557E+03</pdfrwt>
<pdfrwt beam="2">  1       -2 0.90085737E-02 0.35683557E+03</pdfrwt>
<totfact> 0.52720492E+03</totfact>
</mgrwt>
</event>
<event>
 4    1  0.1383574E-004  0.4254585E+03  0.7818608E-02  0.1035304E+00
          2   -1    0    0  501    0  0.00000000000E+00  0.00000000000E+00  0.59945424735E+03  0.59945424735E+03  0.25500000000E-02 0.  1.
         -2   -1    0    0    0  501 -0.00000000000E+00 -0.00000000000E+00 -0.75491548942E+02  0.75491548986E+02  0.25500000000E-02 0. -1.
    5000001    1    1    2    0    0 -0.77489572912E+00  0.11224129887E+03  0.58044432237E+02  0.17915598162E+03  0.12700000000E+03 0.  0.
   -5000001    1    1    2    0    0  0.77489572912E+00 -0.11224129887E+03  0.46591826617E+03  0.49578981473E+03  0.12700000000E+03 0.  0.
<mgrwt>
<rscale>  0 0.42545848E+03</rscale>
<asrwt>0</asrwt>
<pdfrwt beam="1">  1        2 0.85636319E-01 0.42545848E+03</pdfrwt>
<pdfrwt beam="2">  1       -2 0.10784507E-01 0.42545848E+03</pdfrwt>
<totfact> 0.32600763E+03</totfact>
</mgrwt>
</event>
<event>
 4    1  0.1383574E-004  0.3185492E+03  0.7818608E-02  0.1076319E+00
          2   -1    0    0  501    0  0.00000000000E+00  0.00000000000E+00  0.23302333360E+03  0.23302333361E+03  0.25500000000E-02 0.  1.
         -2   -1    0    0    0  501 -0.00000000000E+00 -0.00000000000E+00 -0.10886632974E+03  0.10886632977E+03  0.25500000000E-02 0. -1.
    5000001    1    1    2    0    0 -0.80578285538E+02  0.48539154725E+02  0.40869906850E+02  0.16324294450E+03  0.12700000000E+03 0.  0.
   -5000001    1    1    2    0    0  0.80578285538E+02 -0.48539154725E+02  0.83287097009E+02  0.17864671889E+03  0.12700000000E+03 0.  0.
<mgrwt>
<rscale>  0 0.31854918E+03</rscale>
<asrwt>0</asrwt>
<pdfrwt beam="1">  1        2 0.33289048E-01 0.31854918E+03</pdfrwt>
<pdfrwt beam="2">  1       -2 0.15552333E-01 0.31854918E+03</pdfrwt>
<totfact> 0.50365116E+03</totfact>
</mgrwt>
</event>
<event>
 4    1  0.1383574E-004  0.5100271E+03  0.7818608E-02  0.1011194E+00
          2   -1    0    0  501    0  0.00000000000E+00  0.00000000000E+00  0.43256273049E+03  0.43256273050E+03  0.25500000000E-02 0.  1.
         -2   -1    0    0    0  501 -0.00000000000E+00 -0.00000000000E+00 -0.15034098506E+03  0.15034098508E+03  0.25500000000E-02 0. -1.
    5000001    1    1    2    0    0 -0.17988272985E+03  0.10199046202E+03  0.23068773098E+03  0.33482186318E+03  0.12700000000E+03 0.  0.
   -5000001    1    1    2    0    0  0.17988272985E+03 -0.10199046202E+03  0.51534014448E+02  0.24808185239E+03  0.12700000000E+03 0.  0.
<mgrwt>
<rscale>  0 0.51002709E+03</rscale>
<asrwt>0</asrwt>
<pdfrwt beam="1">  1        2 0.61794677E-01 0.51002709E+03</pdfrwt>
<pdfrwt beam="2">  1       -2 0.21477283E-01 0.51002709E+03</pdfrwt>
<totfact> 0.14863331E+03</totfact>
</mgrwt>
</event>
<event>
 4    1  0.1383574E-004  0.2699353E+03  0.7818608E-02  0.1101317E+00
         -2   -1    0    0    0  501 -0.00000000000E+00  0.00000000000E+00  0.12346832848E+02  0.12346833111E+02  0.25500000000E-02 0. -1.
          2   -1    0    0  501    0  0.00000000000E+00 -0.00000000000E+00 -0.14753796360E+04  0.14753796360E+04  0.25500000000E-02 0.  1.
    5000001    1    1    2    0    0 -0.21032497432E+02  0.28353758642E+02 -0.57168864124E+03  0.58668833643E+03  0.12700000000E+03 0.  0.
   -5000001    1    1    2    0    0  0.21032497432E+02 -0.28353758642E+02 -0.89134416187E+03  0.90103813264E+03  0.12700000000E+03 0.  0.
<mgrwt>
<rscale>  0 0.26993530E+03</rscale>
<asrwt>0</asrwt>
<pdfrwt beam="1">  1        2 0.21076841E+00 0.26993530E+03</pdfrwt>
<pdfrwt beam="2">  1       -2 0.17638342E-02 0.26993530E+03</pdfrwt>
<totfact> 0.14916192E+04</totfact>
</mgrwt>
</event>
<event>
 4    1  0.1383574E-004  0.1405897E+04  0.7818608E-02  0.8949561E-01
          2   -1    0    0  501    0  0.00000000000E+00  0.00000000000E+00  0.97919596069E+03  0.97919596069E+03  0.25500000000E-02 0.  1.
         -2   -1    0    0    0  501 -0.00000000000E+00 -0.00000000000E+00 -0.50463525905E+03  0.50463525906E+03  0.25500000000E-02 0. -1.
    5000001    1    1    2    0    0  0.28908847601E+03  0.60948263115E+03  0.39722845454E+03  0.79307040654E+03  0.12700000000E+03 0.  0.
   -5000001    1    1    2    0    0 -0.28908847601E+03 -0.60948263115E+03  0.77332247101E+02  0.69076081321E+03  0.12700000000E+03 0.  0.
<mgrwt>
<rscale>  0 0.14058973E+04</rscale>
<asrwt>0</asrwt>
<pdfrwt beam="1">  1        2 0.13988513E+00 0.14058973E+04</pdfrwt>
<pdfrwt beam="2">  1       -2 0.72090753E-01 0.14058973E+04</pdfrwt>
<totfact> 0.49140366E+01</totfact>
</mgrwt>
</event>
<event>
 4    1  0.1383574E-004  0.6841963E+03  0.7818608E-02  0.9744647E-01
          2   -1    0    0  501    0  0.00000000000E+00  0.00000000000E+00  0.17949365630E+03  0.17949365632E+03  0.25500000000E-02 0. -1.
         -2   -1    0    0    0  501 -0.00000000000E+00 -0.00000000000E+00 -0.65200712791E+03  0.65200712791E+03  0.25500000000E-02 0.  1.
    5000001    1    1    2    0    0 -0.72852145722E+02  0.21339414965E+03 -0.50816170899E+03  0.57026469356E+03  0.12700000000E+03 0.  0.
   -5000001    1    1    2    0    0  0.72852145722E+02 -0.21339414965E+03  0.35648237385E+02  0.26123609067E+03  0.12700000000E+03 0.  0.
<mgrwt>
<rscale>  0 0.68419630E+03</rscale>
<asrwt>0</asrwt>
<pdfrwt beam="1">  1        2 0.25641951E-01 0.68419630E+03</pdfrwt>
<pdfrwt beam="2">  1       -2 0.93143874E-01 0.68419630E+03</pdfrwt>
<totfact> 0.20984245E+02</totfact>
</mgrwt>
</event>
<event>
 4    1  0.1383574E-004  0.5555777E+03  0.7818608E-02  0.1000211E+00
          2   -1    0    0  501    0  0.00000000000E+00  0.00000000000E+00  0.16190112467E+03  0.16190112469E+03  0.25500000000E-02 0.  1.
         -2   -1    0    0    0  501 -0.00000000000E+00 -0.00000000000E+00 -0.47662822388E+03  0.47662822389E+03  0.25500000000E-02 0. -1.
    5000001    1    1    2    0    0  0.12361122388E+03  0.20632541947E+03 -0.92473670364E+02  0.28728086100E+03  0.12700000000E+03 0.  0.
   -5000001    1    1    2    0    0 -0.12361122388E+03 -0.20632541947E+03 -0.22225342885E+03  0.35124848758E+03  0.12700000000E+03 0.  0.
<mgrwt>
<rscale>  0 0.55557770E+03</rscale>
<asrwt>0</asrwt>
<pdfrwt beam="1">  1        2 0.23128732E-01 0.55557770E+03</pdfrwt>
<pdfrwt beam="2">  1       -2 0.68089746E-01 0.55557770E+03</pdfrwt>
<totfact> 0.47755756E+02</totfact>
</mgrwt>
</event>
<event>
 4    1  0.1383574E-004  0.3230535E+03  0.7818608E-02  0.1074253E+00
          2   -1    0    0  501    0  0.00000000000E+00  0.00000000000E+00  0.16685942741E+04  0.16685942741E+04  0.25500000000E-02 0.  1.
         -2   -1    0    0    0  501 -0.00000000000E+00 -0.00000000000E+00 -0.15636449799E+02  0.15636450007E+02  0.25500000000E-02 0. -1.
    5000001    1    1    2    0    0  0.22746522233E+02 -0.63974376853E+02  0.12078745125E+04  0.12164291854E+04  0.12700000000E+03 0.  0.
   -5000001    1    1    2    0    0 -0.22746522233E+02  0.63974376853E+02  0.44508331182E+03  0.46780153872E+03  0.12700000000E+03 0.  0.
<mgrwt>
<rscale>  0 0.32305350E+03</rscale>
<asrwt>0</asrwt>
<pdfrwt beam="1">  1        2 0.23837038E+00 0.32305350E+03</pdfrwt>
<pdfrwt beam="2">  1       -2 0.22337807E-02 0.32305350E+03</pdfrwt>
<totfact> 0.84576608E+03</totfact>
</mgrwt>
</event>
<event>
 4    1  0.1383574E-004  0.4501428E+03  0.7818608E-02  0.1027679E+00
          2   -1    0    0  501    0  0.00000000000E+00  0.00000000000E+00  0.19063171196E+03  0.19063171198E+03  0.25500000000E-02 0.  1.
         -2   -1    0    0    0  501 -0.00000000000E+00 -0.00000000000E+00 -0.26573301268E+03  0.26573301269E+03  0.25500000000E-02 0. -1.
    5000001    1    1    2    0    0  0.93313569337E+02 -0.15459551671E+03  0.68837164963E+01  0.22087005583E+03  0.12700000000E+03 0.  0.
   -5000001    1    1    2    0    0 -0.93313569337E+02  0.15459551671E+03 -0.81985017215E+02  0.23549466885E+03  0.12700000000E+03 0.  0.
<mgrwt>
<rscale>  0 0.45014282E+03</rscale>
<asrwt>0</asrwt>
<pdfrwt beam="1">  1        2 0.27233102E-01 0.45014282E+03</pdfrwt>
<pdfrwt beam="2">  1       -2 0.37961859E-01 0.45014282E+03</pdfrwt>
<totfact> 0.12976047E+03</totfact>
</mgrwt>
</event>
<event>
 4    1  0.1383574E-004  0.4031745E+03  0.7818608E-02  0.1042686E+00
          2   -1    0    0  501    0  0.00000000000E+00  0.00000000000E+00  0.16255276478E+04  0.16255276478E+04  0.25500000000E-02 0.  1.
         -2   -1    0    0    0  501 -0.00000000000E+00 -0.00000000000E+00 -0.24999526225E+02  0.24999526355E+02  0.25500000000E-02 0. -1.
    5000001    1    1    2    0    0  0.39134201236E+02 -0.13601075463E+03  0.52631352942E+03  0.55961177823E+03  0.12700000000E+03 0.  0.
   -5000001    1    1    2    0    0 -0.39134201236E+02  0.13601075463E+03  0.10742145922E+04  0.10909153960E+04  0.12700000000E+03 0.  0.
<mgrwt>
<rscale>  0 0.40317451E+03</rscale>
<asrwt>0</asrwt>
<pdfrwt beam="1">  1        2 0.23221830E+00 0.40317451E+03</pdfrwt>
<pdfrwt beam="2">  1       -2 0.35713599E-02 0.40317451E+03</pdfrwt>
<totfact> 0.44087113E+03</totfact>
</mgrwt>
</event>
<event>
 4    1  0.1383574E-004  0.5575570E+03  0.7818608E-02  0.9997598E-01
         -2   -1    0    0    0  501 -0.00000000000E+00  0.00000000000E+00  0.65879512421E+02  0.65879512470E+02  0.25500000000E-02 0. -1.
          2   -1    0    0  501    0  0.00000000000E+00 -0.00000000000E+00 -0.11796906783E+04  0.11796906783E+04  0.25500000000E-02 0.  1.
    5000001    1    1    2    0    0  0.43727837829E+02 -0.20936521066E+03 -0.83808999283E+03  0.87422522917E+03  0.12700000000E+03 0.  0.
   -5000001    1    1    2    0    0 -0.43727837829E+02  0.20936521066E+03 -0.27572117304E+03  0.37134496159E+03  0.12700000000E+03 0.  0.
<mgrwt>
<rscale>  0 0.55755698E+03</rscale>
<asrwt>0</asrwt>
<pdfrwt beam="1">  1        2 0.16852723E+00 0.55755698E+03</pdfrwt>
<pdfrwt beam="2">  1       -2 0.94113596E-02 0.55755698E+03</pdfrwt>
<totfact> 0.16749842E+03</totfact>
</mgrwt>
</event>
<event>
 4    1  0.1383574E-004  0.4159449E+03  0.7818608E-02  0.1038394E+00
          2   -1    0    0  501    0  0.00000000000E+00  0.00000000000E+00  0.67421201694E+03  0.67421201694E+03  0.25500000000E-02 0.  1.
         -2   -1    0    0    0  501 -0.00000000000E+00 -0.00000000000E+00 -0.64152723213E+02  0.64152723263E+02  0.25500000000E-02 0. -1.
    5000001    1    1    2    0    0  0.35732979868E+02 -0.15029669687E+03  0.20371233975E+03  0.28547094477E+03  0.12700000000E+03 0.  0.
   -5000001    1    1    2    0    0 -0.35732979868E+02  0.15029669687E+03  0.40634695398E+03  0.45289379544E+03  0.12700000000E+03 0.  0.
<mgrwt>
<rscale>  0 0.41594489E+03</rscale>
<asrwt>0</asrwt>
<pdfrwt beam="1">  1        2 0.96316006E-01 0.41594489E+03</pdfrwt>
<pdfrwt beam="2">  1       -2 0.91646744E-02 0.41594489E+03</pdfrwt>
<totfact> 0.36859576E+03</totfact>
</mgrwt>
</event>
<event>
 4    1  0.1383574E-004  0.3850781E+03  0.7818608E-02  0.1049073E+00
         -2   -1    0    0    0  501 -0.00000000000E+00  0.00000000000E+00  0.69615016806E+02  0.69615016853E+02  0.25500000000E-02 0. -1.
          2   -1    0    0  501    0  0.00000000000E+00 -0.00000000000E+00 -0.53251857399E+03  0.53251857399E+03  0.25500000000E-02 0.  1.
    5000001    1    1    2    0    0  0.11865660993E+03 -0.19759260460E+02 -0.35725131421E+03  0.39777797948E+03  0.12700000000E+03 0.  0.
   -5000001    1    1    2    0    0 -0.11865660993E+03  0.19759260460E+02 -0.10565224297E+03  0.20435561137E+03  0.12700000000E+03 0.  0.
<mgrwt>
<rscale>  0 0.38507812E+03</rscale>
<asrwt>0</asrwt>
<pdfrwt beam="1">  1        2 0.76074080E-01 0.38507812E+03</pdfrwt>
<pdfrwt beam="2">  1       -2 0.99450027E-02 0.38507812E+03</pdfrwt>
<totfact> 0.42472103E+03</totfact>
</mgrwt>
</event>
<event>
 4    1  0.1383574E-004  0.3427145E+03  0.7818608E-02  0.1065646E+00
          2   -1    0    0  501    0  0.00000000000E+00  0.00000000000E+00  0.31732992956E+04  0.31732992956E+04  0.25500000000E-02 0.  1.
         -2   -1    0    0    0  501 -0.00000000000E+00 -0.00000000000E+00 -0.92532399988E+01  0.92532403502E+01  0.25500000000E-02 0. -1.
    5000001    1    1    2    0    0  0.96452227758E+02  0.19608181625E+02  0.21350683657E+04  0.21411056581E+04  0.12700000000E+03 0.  0.
   -5000001    1    1    2    0    0 -0.96452227758E+02 -0.19608181625E+02  0.10289776898E+04  0.10414468778E+04  0.12700000000E+03 0.  0.
<mgrwt>
<rscale>  0 0.34271446E+03</rscale>
<asrwt>0</asrwt>
<pdfrwt beam="1">  1        2 0.45332868E+00 0.34271446E+03</pdfrwt>
<pdfrwt beam="2">  1       -2 0.13218909E-02 0.34271446E+03</pdfrwt>
<totfact> 0.31620489E+03</totfact>
</mgrwt>
</event>
<event>
 4    1  0.1383574E-004  0.5395772E+03  0.7818608E-02  0.1003936E+00
          2   -1    0    0  501    0  0.00000000000E+00  0.00000000000E+00  0.17475889280E+03  0.17475889282E+03  0.25500000000E-02 0.  1.
         -2   -1    0    0    0  501 -0.00000000000E+00 -0.00000000000E+00 -0.41649325867E+03  0.41649325867E+03  0.25500000000E-02 0. -1.
    5000001    1    1    2    0    0  0.11503895987E+03  0.20831568618E+03 -0.12661484067E+03  0.29797601459E+03  0.12700000000E+03 0.  0.
   -5000001    1    1    2    0    0 -0.11503895987E+03 -0.20831568618E+03 -0.11511952519E+03  0.29327613690E+03  0.12700000000E+03 0.  0.
<mgrwt>
<rscale>  0 0.53957724E+03</rscale>
<asrwt>0</asrwt>
<pdfrwt beam="1">  1        2 0.24965556E-01 0.53957724E+03</pdfrwt>
<pdfrwt beam="2">  1       -2 0.59499037E-01 0.53957724E+03</pdfrwt>
<totfact> 0.58290191E+02</totfact>
</mgrwt>
</event>
<event>
 4    1  0.1383574E-004  0.4333812E+03  0.7818608E-02  0.1032797E+00
         -2   -1    0    0    0  501 -0.00000000000E+00  0.00000000000E+00  0.15682258479E+02  0.15682258687E+02  0.25500000000E-02 0. -1.
          2   -1    0    0  501    0  0.00000000000E+00 -0.00000000000E+00 -0.29941363476E+04  0.29941363476E+04  0.25500000000E-02 0.  1.
    5000001    1    1    2    0    0  0.16880323719E+03 -0.39675244705E+02 -0.16803288483E+04  0.16940196859E+04  0.12700000000E+03 0.  0.
   -5000001    1    1    2    0    0 -0.16880323719E+03  0.39675244705E+02 -0.12981252409E+04  0.13157989204E+04  0.12700000000E+03 0.  0.
<mgrwt>
<rscale>  0 0.43338122E+03</rscale>
<asrwt>0</asrwt>
<pdfrwt beam="1">  1        2 0.42773340E+00 0.43338122E+03</pdfrwt>
<pdfrwt beam="2">  1       -2 0.22403246E-02 0.43338122E+03</pdfrwt>
<totfact> 0.17974662E+03</totfact>
</mgrwt>
</event>
<event>
 4    1  0.1383574E-004  0.3695904E+03  0.7818608E-02  0.1054850E+00
          2   -1    0    0  501    0  0.00000000000E+00  0.00000000000E+00  0.86762422432E+03  0.86762422433E+03  0.25500000000E-02 0.  1.
         -2   -1    0    0    0  501 -0.00000000000E+00 -0.00000000000E+00 -0.39359520498E+02  0.39359520581E+02  0.25500000000E-02 0. -1.
    5000001    1    1    2    0    0  0.93431407784E+02 -0.89737802419E+02  0.50047676543E+03  0.53234227136E+03  0.12700000000E+03 0.  0.
   -5000001    1    1    2    0    0 -0.93431407784E+02  0.89737802419E+02  0.32778793840E+03  0.37464147355E+03  0.12700000000E+03 0.  0.
<mgrwt>
<rscale>  0 0.36959044E+03</rscale>
<asrwt>0</asrwt>
<pdfrwt beam="1">  1        2 0.12394631E+00 0.36959044E+03</pdfrwt>
<pdfrwt beam="2">  1       -2 0.56227890E-02 0.36959044E+03</pdfrwt>
<totfact> 0.57848974E+03</totfact>
</mgrwt>
</event>
<event>
 4    1  0.1383574E-004  0.5921752E+03  0.7818608E-02  0.9921774E-01
         -2   -1    0    0    0  501 -0.00000000000E+00  0.00000000000E+00  0.25875079236E+03  0.25875079237E+03  0.25500000000E-02 0. -1.
          2   -1    0    0  501    0  0.00000000000E+00 -0.00000000000E+00 -0.33881193310E+03  0.33881193311E+03  0.25500000000E-02 0.  1.
    5000001    1    1    2    0    0 -0.21194059740E+03  0.14612077896E+03 -0.11327715969E+03  0.30859490238E+03  0.12700000000E+03 0.  0.
   -5000001    1    1    2    0    0  0.21194059740E+03 -0.14612077896E+03  0.33216018942E+02  0.28896782310E+03  0.12700000000E+03 0.  0.
<mgrwt>
<rscale>  0 0.59217516E+03</rscale>
<asrwt>0</asrwt>
<pdfrwt beam="1">  1        2 0.48401704E-01 0.59217516E+03</pdfrwt>
<pdfrwt beam="2">  1       -2 0.36964399E-01 0.59217516E+03</pdfrwt>
<totfact> 0.72178134E+02</totfact>
</mgrwt>
</event>
<event>
 4    1  0.1383574E-004  0.6936802E+03  0.7818608E-02  0.9728101E-01
         -2   -1    0    0    0  501 -0.00000000000E+00  0.00000000000E+00  0.16759579851E+03  0.16759579852E+03  0.25500000000E-02 0. -1.
          2   -1    0    0  501    0  0.00000000000E+00 -0.00000000000E+00 -0.71778675998E+03  0.71778675999E+03  0.25500000000E-02 0.  1.
    5000001    1    1    2    0    0 -0.80160561443E+01  0.31838476460E+03 -0.34185668318E+03  0.48417776417E+03  0.12700000000E+03 0.  0.
   -5000001    1    1    2    0    0  0.80160561443E+01 -0.31838476460E+03 -0.20833427830E+03  0.40120479434E+03  0.12700000000E+03 0.  0.
<mgrwt>
<rscale>  0 0.69368017E+03</rscale>
<asrwt>0</asrwt>
<pdfrwt beam="1">  1        2 0.10254096E+00 0.69368017E+03</pdfrwt>
<pdfrwt beam="2">  1       -2 0.23942257E-01 0.69368017E+03</pdfrwt>
<totfact> 0.67842881E+02</totfact>
</mgrwt>
</event>
<event>
 4    1  0.1383574E-004  0.3768509E+03  0.7818608E-02  0.1052104E+00
         -2   -1    0    0    0  501 -0.00000000000E+00  0.00000000000E+00  0.46144788046E+02  0.46144788117E+02  0.25500000000E-02 0. -1.
          2   -1    0    0  501    0  0.00000000000E+00 -0.00000000000E+00 -0.76940746162E+03  0.76940746163E+03  0.25500000000E-02 0.  1.
    5000001    1    1    2    0    0  0.28428613241E+02 -0.11338782992E+03 -0.19809798371E+03  0.26274854362E+03  0.12700000000E+03 0.  0.
   -5000001    1    1    2    0    0 -0.28428613241E+02  0.11338782992E+03 -0.52516468986E+03  0.55280370612E+03  0.12700000000E+03 0.  0.
<mgrwt>
<rscale>  0 0.37685087E+03</rscale>
<asrwt>0</asrwt>
<pdfrwt beam="1">  1        2 0.10991534E+00 0.37685087E+03</pdfrwt>
<pdfrwt beam="2">  1       -2 0.65921131E-02 0.37685087E+03</pdfrwt>
<totfact> 0.52658289E+03</totfact>
</mgrwt>
</event>
<event>
 4    1  0.1383574E-004  0.5999949E+03  0.7818608E-02  0.9905417E-01
          2   -1    0    0  501    0  0.00000000000E+00  0.00000000000E+00  0.10103380627E+04  0.10103380627E+04  0.25500000000E-02 0.  1.
         -2   -1    0    0    0  501 -0.00000000000E+00 -0.00000000000E+00 -0.89077586426E+02  0.89077586462E+02  0.25500000000E-02 0. -1.
    5000001    1    1    2    0    0 -0.13970121178E+03 -0.55588367219E+02  0.87550428668E+03  0.89735347057E+03  0.12700000000E+03 0.  0.
   -5000001    1    1    2    0    0  0.13970121178E+03  0.55588367219E+02  0.45756189627E+02  0.20206217863E+03  0.12700000000E+03 0.  0.
<mgrwt>
<rscale>  0 0.59999492E+03</rscale>
<asrwt>0</asrwt>
<pdfrwt beam="1">  1        2 0.14433400E+00 0.59999492E+03</pdfrwt>
<pdfrwt beam="2">  1       -2 0.12725370E-01 0.59999492E+03</pdfrwt>
<totfact> 0.12839379E+03</totfact>
</mgrwt>
</event>
<event>
 4    1  0.1383574E-004  0.3622249E+03  0.7818608E-02  0.1057706E+00
          2   -1    0    0  501    0  0.00000000000E+00  0.00000000000E+00  0.16187885609E+03  0.16187885611E+03  0.25500000000E-02 0.  1.
         -2   -1    0    0    0  501 -0.00000000000E+00 -0.00000000000E+00 -0.20263125093E+03  0.20263125095E+03  0.25500000000E-02 0. -1.
    5000001    1    1    2    0    0  0.65896065676E+01 -0.99884139524E+02 -0.10245332344E+03  0.19143131334E+03  0.12700000000E+03 0.  0.
   -5000001    1    1    2    0    0 -0.65896065676E+01  0.99884139524E+02  0.61700928598E+02  0.17307879371E+03  0.12700000000E+03 0.  0.
<mgrwt>
<rscale>  0 0.36222488E+03</rscale>
<asrwt>0</asrwt>
<pdfrwt beam="1">  1        2 0.23125551E-01 0.36222488E+03</pdfrwt>
<pdfrwt beam="2">  1       -2 0.28947321E-01 0.36222488E+03</pdfrwt>
<totfact> 0.25796766E+03</totfact>
</mgrwt>
</event>
<event>
 4    1  0.1383574E-004  0.3795803E+03  0.7818608E-02  0.1051089E+00
          2   -1    0    0  501    0  0.00000000000E+00  0.00000000000E+00  0.33372498541E+03  0.33372498542E+03  0.25500000000E-02 0.  1.
         -2   -1    0    0    0  501 -0.00000000000E+00 -0.00000000000E+00 -0.10793411233E+03  0.10793411236E+03  0.25500000000E-02 0. -1.
    5000001    1    1    2    0    0  0.11180572448E+03 -0.71882643452E+02  0.16776344266E+03  0.24887990507E+03  0.12700000000E+03 0.  0.
   -5000001    1    1    2    0    0 -0.11180572448E+03  0.71882643452E+02  0.58027430418E+02  0.19277919270E+03  0.12700000000E+03 0.  0.
<mgrwt>
<rscale>  0 0.37958035E+03</rscale>
<asrwt>0</asrwt>
<pdfrwt beam="1">  1        2 0.47674998E-01 0.37958035E+03</pdfrwt>
<pdfrwt beam="2">  1       -2 0.15419159E-01 0.37958035E+03</pdfrwt>
<totfact> 0.34711284E+03</totfact>
</mgrwt>
</event>
<event>
 4    1  0.1383574E-004  0.2831440E+03  0.7818608E-02  0.1093984E+00
         -2   -1    0    0    0  501 -0.00000000000E+00  0.00000000000E+00  0.42197731931E+02  0.42197732008E+02  0.25500000000E-02 0. -1.
          2   -1    0    0  501    0  0.00000000000E+00 -0.00000000000E+00 -0.47496927512E+03  0.47496927513E+03  0.25500000000E-02 0.  1.
    5000001    1    1    2    0    0 -0.42322782285E+02 -0.42068179618E+02 -0.25068716663E+03  0.28728732160E+03  0.12700000000E+03 0.  0.
   -5000001    1    1    2    0    0  0.42322782285E+02  0.42068179618E+02 -0.18208437656E+03  0.22987968554E+03  0.12700000000E+03 0.  0.
<mgrwt>
<rscale>  0 0.28314396E+03</rscale>
<asrwt>0</asrwt>
<pdfrwt beam="1">  1        2 0.67852750E-01 0.28314396E+03</pdfrwt>
<pdfrwt beam="2">  1       -2 0.60282477E-02 0.28314396E+03</pdfrwt>
<totfact> 0.10477912E+04</totfact>
</mgrwt>
</event>
<event>
 4    1  0.1383574E-004  0.3219495E+03  0.7818608E-02  0.1074756E+00
         -2   -1    0    0    0  501 -0.00000000000E+00  0.00000000000E+00  0.10697425009E+02  0.10697425313E+02  0.25500000000E-02 0. -1.
          2   -1    0    0  501    0  0.00000000000E+00 -0.00000000000E+00 -0.24223460651E+04  0.24223460651E+04  0.25500000000E-02 0.  1.
    5000001    1    1    2    0    0  0.95612828237E+02  0.23683383705E+02 -0.11377463112E+04  0.11490423770E+04  0.12700000000E+03 0.  0.
   -5000001    1    1    2    0    0 -0.95612828237E+02 -0.23683383705E+02 -0.12739023289E+04  0.12840011134E+04  0.12700000000E+03 0.  0.
<mgrwt>
<rscale>  0 0.32194947E+03</rscale>
<asrwt>0</asrwt>
<pdfrwt beam="1">  1        2 0.34604909E+00 0.32194947E+03</pdfrwt>
<pdfrwt beam="2">  1       -2 0.15282051E-02 0.32194947E+03</pdfrwt>
<totfact> 0.62928569E+03</totfact>
</mgrwt>
</event>
<event>
 4    1  0.1383574E-004  0.3823237E+03  0.7818608E-02  0.1050078E+00
         -2   -1    0    0    0  501 -0.00000000000E+00  0.00000000000E+00  0.17423546959E+03  0.17423546961E+03  0.25500000000E-02 0. -1.
          2   -1    0    0  501    0  0.00000000000E+00 -0.00000000000E+00 -0.20973255286E+03  0.20973255288E+03  0.25500000000E-02 0.  1.
    5000001    1    1    2    0    0  0.40641924854E+02 -0.12221167873E+03  0.44375318793E+02  0.18624078338E+03  0.12700000000E+03 0.  0.
   -5000001    1    1    2    0    0 -0.40641924854E+02  0.12221167873E+03 -0.79872402063E+02  0.19772723911E+03  0.12700000000E+03 0.  0.
<mgrwt>
<rscale>  0 0.38232368E+03</rscale>
<asrwt>0</asrwt>
<pdfrwt beam="1">  1        2 0.29961793E-01 0.38232368E+03</pdfrwt>
<pdfrwt beam="2">  1       -2 0.24890782E-01 0.38232368E+03</pdfrwt>
<totfact> 0.25325581E+03</totfact>
</mgrwt>
</event>
<event>
 4    1  0.1383574E-004  0.6145860E+03  0.7818608E-02  0.9875598E-01
         -2   -1    0    0    0  501 -0.00000000000E+00  0.00000000000E+00  0.37906733082E+02  0.37906733168E+02  0.25500000000E-02 0. -1.
          2   -1    0    0  501    0  0.00000000000E+00 -0.00000000000E+00 -0.24910877202E+04  0.24910877202E+04  0.25500000000E-02 0.  1.
    5000001    1    1    2    0    0 -0.13949267093E+03 -0.20845251481E+03 -0.71611463696E+03  0.76932426807E+03  0.12700000000E+03 0.  0.
   -5000001    1    1    2    0    0  0.13949267093E+03  0.20845251481E+03 -0.17370663501E+04  0.17596701853E+04  0.12700000000E+03 0.  0.
<mgrwt>
<rscale>  0 0.61458603E+03</rscale>
<asrwt>0</asrwt>
<pdfrwt beam="1">  1        2 0.35586957E+00 0.61458603E+03</pdfrwt>
<pdfrwt beam="2">  1       -2 0.54152492E-02 0.61458603E+03</pdfrwt>
<totfact> 0.84689775E+02</totfact>
</mgrwt>
</event>
<event>
 4    1  0.1383574E-004  0.3751980E+03  0.7818608E-02  0.1052723E+00
          2   -1    0    0  501    0  0.00000000000E+00  0.00000000000E+00  0.91010478291E+03  0.91010478291E+03  0.25500000000E-02 0.  1.
         -2   -1    0    0    0  501 -0.00000000000E+00 -0.00000000000E+00 -0.38669593165E+02  0.38669593249E+02  0.25500000000E-02 0. -1.
    5000001    1    1    2    0    0  0.95416423578E+02 -0.68770153384E+00  0.18335573196E+03  0.24259656070E+03  0.12700000000E+03 0.  0.
   -5000001    1    1    2    0    0 -0.95416423578E+02  0.68770153384E+00  0.68807945778E+03  0.70617781546E+03  0.12700000000E+03 0.  0.
<mgrwt>
<rscale>  0 0.37519798E+03</rscale>
<asrwt>0</asrwt>
<pdfrwt beam="1">  1        2 0.13001498E+00 0.37519798E+03</pdfrwt>
<pdfrwt beam="2">  1       -2 0.55242273E-02 0.37519798E+03</pdfrwt>
<totfact> 0.55864976E+03</totfact>
</mgrwt>
</event>
<event>
 4    1  0.1383574E-004  0.2978135E+03  0.7818608E-02  0.1086339E+00
         -2   -1    0    0    0  501 -0.00000000000E+00  0.00000000000E+00  0.11962211718E+02  0.11962211990E+02  0.25500000000E-02 0. -1.
          2   -1    0    0  501    0  0.00000000000E+00 -0.00000000000E+00 -0.18536053034E+04  0.18536053035E+04  0.25500000000E-02 0.  1.
    5000001    1    1    2    0    0  0.49795069558E+02 -0.59337840569E+02 -0.96222750937E+03  0.97365872258E+03  0.12700000000E+03 0.  0.
   -5000001    1    1    2    0    0 -0.49795069558E+02  0.59337840569E+02 -0.87941558236E+03  0.89190879286E+03  0.12700000000E+03 0.  0.
<mgrwt>
<rscale>  0 0.29781349E+03</rscale>
<asrwt>0</asrwt>
<pdfrwt beam="1">  1        2 0.26480057E+00 0.29781349E+03</pdfrwt>
<pdfrwt beam="2">  1       -2 0.17088886E-02 0.29781349E+03</pdfrwt>
<totfact> 0.10164582E+04</totfact>
</mgrwt>
</event>
<event>
 4    1  0.1383574E-004  0.3386685E+03  0.7818608E-02  0.1067364E+00
         -2   -1    0    0    0  501 -0.00000000000E+00  0.00000000000E+00  0.12739925803E+02  0.12739926059E+02  0.25500000000E-02 0. -1.
          2   -1    0    0  501    0  0.00000000000E+00 -0.00000000000E+00 -0.22507263055E+04  0.22507263055E+04  0.25500000000E-02 0.  1.
    5000001    1    1    2    0    0 -0.78195068758E+02  0.80164945527E+02 -0.11052976141E+04  0.11181917112E+04  0.12700000000E+03 0.  0.
   -5000001    1    1    2    0    0  0.78195068758E+02 -0.80164945527E+02 -0.11326887656E+04  0.11452745204E+04  0.12700000000E+03 0.  0.
<mgrwt>
<rscale>  0 0.33866849E+03</rscale>
<asrwt>0</asrwt>
<pdfrwt beam="1">  1        2 0.32153208E+00 0.33866849E+03</pdfrwt>
<pdfrwt beam="2">  1       -2 0.18199908E-02 0.33866849E+03</pdfrwt>
<totfact> 0.59177702E+03</totfact>
</mgrwt>
</event>
<event>
 4    1  0.1383574E-004  0.3920969E+03  0.7818608E-02  0.1046551E+00
         -2   -1    0    0    0  501 -0.00000000000E+00  0.00000000000E+00  0.13543173076E+02  0.13543173316E+02  0.25500000000E-02 0. -1.
          2   -1    0    0  501    0  0.00000000000E+00 -0.00000000000E+00 -0.28379604696E+04  0.28379604696E+04  0.25500000000E-02 0.  1.
    5000001    1    1    2    0    0  0.48652194628E+02  0.13817653607E+03 -0.12006568104E+04  0.12162095081E+04  0.12700000000E+03 0.  0.
   -5000001    1    1    2    0    0 -0.48652194628E+02 -0.13817653607E+03 -0.16237604861E+04  0.16352941348E+04  0.12700000000E+03 0.  0.
<mgrwt>
<rscale>  0 0.39209688E+03</rscale>
<asrwt>0</asrwt>
<pdfrwt beam="1">  1        2 0.40542254E+00 0.39209688E+03</pdfrwt>
<pdfrwt beam="2">  1       -2 0.19347408E-02 0.39209688E+03</pdfrwt>
<totfact> 0.27159789E+03</totfact>
</mgrwt>
</event>
<event>
 4    1  0.1383574E-004  0.3107515E+03  0.7818608E-02  0.1079986E+00
          2   -1    0    0  501    0  0.00000000000E+00  0.00000000000E+00  0.16619608043E+03  0.16619608045E+03  0.25500000000E-02 0.  1.
         -2   -1    0    0    0  501 -0.00000000000E+00 -0.00000000000E+00 -0.14525985911E+03  0.14525985913E+03  0.25500000000E-02 0. -1.
    5000001    1    1    2    0    0 -0.40133742334E+02 -0.79756316346E+02  0.40636353600E+01  0.15529745781E+03  0.12700000000E+03 0.  0.
   -5000001    1    1    2    0    0  0.40133742334E+02  0.79756316346E+02  0.16872585963E+02  0.15615848177E+03  0.12700000000E+03 0.  0.
<mgrwt>
<rscale>  0 0.31075147E+03</rscale>
<asrwt>0</asrwt>
<pdfrwt beam="1">  1        2 0.23742297E-01 0.31075147E+03</pdfrwt>
<pdfrwt beam="2">  1       -2 0.20751408E-01 0.31075147E+03</pdfrwt>
<totfact> 0.44938523E+03</totfact>
</mgrwt>
</event>
<event>
 4    1  0.1383574E-004  0.9738973E+03  0.7818608E-02  0.9337646E-01
         -2   -1    0    0    0  501 -0.00000000000E+00  0.00000000000E+00  0.18651283697E+03  0.18651283699E+03  0.25500000000E-02 0. -1.
          2   -1    0    0  501    0  0.00000000000E+00 -0.00000000000E+00 -0.12713278527E+04  0.12713278527E+04  0.25500000000E-02 0.  1.
    5000001    1    1    2    0    0 -0.46466123103E+03 -0.16157712375E+02 -0.43849498802E+03  0.65159649002E+03  0.12700000000E+03 0.  0.
   -5000001    1    1    2    0    0  0.46466123103E+03  0.16157712375E+02 -0.64632002772E+03  0.80624419969E+03  0.12700000000E+03 0.  0.
<mgrwt>
<rscale>  0 0.97389725E+03</rscale>
<asrwt>0</asrwt>
<pdfrwt beam="1">  1        2 0.18161826E+00 0.97389725E+03</pdfrwt>
<pdfrwt beam="2">  1       -2 0.26644692E-01 0.97389725E+03</pdfrwt>
<totfact> 0.24789044E+02</totfact>
</mgrwt>
</event>
<event>
 4    1  0.1383574E-004  0.2806410E+03  0.7818608E-02  0.1095339E+00
         -2   -1    0    0    0  501 -0.00000000000E+00  0.00000000000E+00  0.68597627806E+01  0.68597632545E+01  0.25500000000E-02 0. -1.
          2   -1    0    0  501    0  0.00000000000E+00 -0.00000000000E+00 -0.28703379667E+04  0.28703379667E+04  0.25500000000E-02 0.  1.
    5000001    1    1    2    0    0 -0.24614579129E+02 -0.46444635883E+02 -0.17213274213E+04  0.17268063218E+04  0.12700000000E+03 0.  0.
   -5000001    1    1    2    0    0  0.24614579129E+02  0.46444635883E+02 -0.11421507827E+04  0.11503914082E+04  0.12700000000E+03 0.  0.
<mgrwt>
<rscale>  0 0.28064097E+03</rscale>
<asrwt>0</asrwt>
<pdfrwt beam="1">  1        2 0.41004751E+00 0.28064097E+03</pdfrwt>
<pdfrwt beam="2">  1       -2 0.97996798E-03 0.28064097E+03</pdfrwt>
<totfact> 0.71311689E+03</totfact>
</mgrwt>
</event>
<event>
 4    1  0.1383574E-004  0.1164304E+04  0.7818608E-02  0.9144688E-01
          2   -1    0    0  501    0  0.00000000000E+00  0.00000000000E+00  0.12726540632E+04  0.12726540632E+04  0.25500000000E-02 0.  1.
         -2   -1    0    0    0  501 -0.00000000000E+00 -0.00000000000E+00 -0.26629452314E+03  0.26629452315E+03  0.25500000000E-02 0. -1.
    5000001    1    1    2    0    0 -0.50078266345E+03  0.16442386657E+03  0.78342531301E+03  0.95273433074E+03  0.12700000000E+03 0.  0.
   -5000001    1    1    2    0    0  0.50078266345E+03 -0.16442386657E+03  0.22293422706E+03  0.58621425563E+03  0.12700000000E+03 0.  0.
<mgrwt>
<rscale>  0 0.11643038E+04</rscale>
<asrwt>0</asrwt>
<pdfrwt beam="1">  1        2 0.18180772E+00 0.11643038E+04</pdfrwt>
<pdfrwt beam="2">  1       -2 0.38042075E-01 0.11643038E+04</pdfrwt>
<totfact> 0.12529849E+02</totfact>
</mgrwt>
</event>
<event>
 4    1  0.1383574E-004  0.3544447E+03  0.7818608E-02  0.1060805E+00
          2   -1    0    0  501    0  0.00000000000E+00  0.00000000000E+00  0.70744642791E+03  0.70744642791E+03  0.25500000000E-02 0.  1.
         -2   -1    0    0    0  501 -0.00000000000E+00 -0.00000000000E+00 -0.44395950926E+02  0.44395951000E+02  0.25500000000E-02 0. -1.
    5000001    1    1    2    0    0  0.54134195695E+02 -0.10365764048E+03  0.41646109517E+03  0.45082619863E+03  0.12700000000E+03 0.  0.
   -5000001    1    1    2    0    0 -0.54134195695E+02  0.10365764048E+03  0.24658938181E+03  0.30101618028E+03  0.12700000000E+03 0.  0.
<mgrwt>
<rscale>  0 0.35444468E+03</rscale>
<asrwt>0</asrwt>
<pdfrwt beam="1">  1        2 0.10106377E+00 0.35444468E+03</pdfrwt>
<pdfrwt beam="2">  1       -2 0.63422789E-02 0.35444468E+03</pdfrwt>
<totfact> 0.61864687E+03</totfact>
</mgrwt>
</event>
<event>
 4    1  0.1383574E-004  0.3473427E+03  0.7818608E-02  0.1063711E+00
          2   -1    0    0  501    0  0.00000000000E+00  0.00000000000E+00  0.76653922216E+03  0.76653922216E+03  0.25500000000E-02 0.  1.
         -2   -1    0    0    0  501 -0.00000000000E+00 -0.00000000000E+00 -0.39347933157E+02  0.39347933239E+02  0.25500000000E-02 0. -1.
    5000001    1    1    2    0    0  0.11106677221E+03 -0.30918233884E+02  0.30043942663E+03  0.34595464175E+03  0.12700000000E+03 0.  0.
   -5000001    1    1    2    0    0 -0.11106677221E+03  0.30918233884E+02  0.42675186237E+03  0.45993251365E+03  0.12700000000E+03 0.  0.
<mgrwt>
<rscale>  0 0.34734268E+03</rscale>
<asrwt>0</asrwt>
<pdfrwt beam="1">  1        2 0.10950560E+00 0.34734268E+03</pdfrwt>
<pdfrwt beam="2">  1       -2 0.56211337E-02 0.34734268E+03</pdfrwt>
<totfact> 0.67572134E+03</totfact>
</mgrwt>
</event>
<event>
 4    1  0.1383574E-004  0.7455048E+03  0.7818608E-02  0.9642429E-01
         -2   -1    0    0    0  501 -0.00000000000E+00  0.00000000000E+00  0.16503019009E+03  0.16503019011E+03  0.25500000000E-02 0. -1.
          2   -1    0    0  501    0  0.00000000000E+00 -0.00000000000E+00 -0.84193294339E+03  0.84193294339E+03  0.25500000000E-02 0.  1.
    5000001    1    1    2    0    0  0.37990466923E+02  0.34801678419E+03 -0.36007949747E+03  0.51802046500E+03  0.12700000000E+03 0.  0.
   -5000001    1    1    2    0    0 -0.37990466923E+02 -0.34801678419E+03 -0.31682325582E+03  0.48894266850E+03  0.12700000000E+03 0.  0.
<mgrwt>
<rscale>  0 0.74550481E+03</rscale>
<asrwt>0</asrwt>
<pdfrwt beam="1">  1        2 0.12027613E+00 0.74550481E+03</pdfrwt>
<pdfrwt beam="2">  1       -2 0.23575742E-01 0.74550481E+03</pdfrwt>
<totfact> 0.56832455E+02</totfact>
</mgrwt>
</event>
<event>
 4    1  0.1383574E-004  0.4440551E+03  0.7818608E-02  0.1029510E+00
          2   -1    0    0  501    0  0.00000000000E+00  0.00000000000E+00  0.70092938935E+02  0.70092938981E+02  0.25500000000E-02 0.  1.
         -2   -1    0    0    0  501 -0.00000000000E+00 -0.00000000000E+00 -0.70329809563E+03  0.70329809563E+03  0.25500000000E-02 0. -1.
    5000001    1    1    2    0    0  0.10302287799E+03  0.14609515699E+03 -0.25602594856E+03  0.33709908724E+03  0.12700000000E+03 0.  0.
   -5000001    1    1    2    0    0 -0.10302287799E+03 -0.14609515699E+03 -0.37717920814E+03  0.43629194737E+03  0.12700000000E+03 0.  0.
<mgrwt>
<rscale>  0 0.44405509E+03</rscale>
<asrwt>0</asrwt>
<pdfrwt beam="1">  1        2 0.10013277E-01 0.44405509E+03</pdfrwt>
<pdfrwt beam="2">  1       -2 0.10047115E+00 0.44405509E+03</pdfrwt>
<totfact> 0.54621758E+02</totfact>
</mgrwt>
</event>
<event>
 4    1  0.1383574E-004  0.4400708E+03  0.7818608E-02  0.1030725E+00
         -2   -1    0    0    0  501 -0.00000000000E+00  0.00000000000E+00  0.60246742908E+02  0.60246742962E+02  0.25500000000E-02 0. -1.
          2   -1    0    0  501    0  0.00000000000E+00 -0.00000000000E+00 -0.80362134889E+03  0.80362134889E+03  0.25500000000E-02 0.  1.
    5000001    1    1    2    0    0 -0.10767591711E+03  0.13365427291E+03 -0.47609715282E+03  0.52178066916E+03  0.12700000000E+03 0.  0.
   -5000001    1    1    2    0    0  0.10767591711E+03 -0.13365427291E+03 -0.26727745316E+03  0.34208742269E+03  0.12700000000E+03 0.  0.
<mgrwt>
<rscale>  0 0.44007076E+03</rscale>
<asrwt>0</asrwt>
<pdfrwt beam="1">  1        2 0.11480304E+00 0.44007076E+03</pdfrwt>
<pdfrwt beam="2">  1       -2 0.86066780E-02 0.44007076E+03</pdfrwt>
<totfact> 0.32859571E+03</totfact>
</mgrwt>
</event>
<event>
 4    1  0.1383574E-004  0.4406876E+03  0.7818608E-02  0.1030536E+00
          2   -1    0    0  501    0  0.00000000000E+00  0.00000000000E+00  0.30212680239E+04  0.30212680239E+04  0.25500000000E-02 0.  1.
         -2   -1    0    0    0  501 -0.00000000000E+00 -0.00000000000E+00 -0.16069870697E+02  0.16069870899E+02  0.25500000000E-02 0. -1.
    5000001    1    1    2    0    0  0.68701348397E+02  0.86721217051E+02  0.52346138148E+03  0.54989204637E+03  0.12700000000E+03 0.  0.
   -5000001    1    1    2    0    0 -0.68701348397E+02 -0.86721217051E+02  0.24817367718E+04  0.24874458485E+04  0.12700000000E+03 0.  0.
<mgrwt>
<rscale>  0 0.44068758E+03</rscale>
<asrwt>0</asrwt>
<pdfrwt beam="1">  1        2 0.43160921E+00 0.44068758E+03</pdfrwt>
<pdfrwt beam="2">  1       -2 0.22956985E-02 0.44068758E+03</pdfrwt>
<totfact> 0.16745365E+03</totfact>
</mgrwt>
</event>
<event>
 4    1  0.1383574E-004  0.4983978E+03  0.7818608E-02  0.1014198E+00
         -2   -1    0    0    0  501 -0.00000000000E+00  0.00000000000E+00  0.24053573976E+02  0.24053574112E+02  0.25500000000E-02 0. -1.
          2   -1    0    0  501    0  0.00000000000E+00 -0.00000000000E+00 -0.25817410530E+04  0.25817410530E+04  0.25500000000E-02 0.  1.
    5000001    1    1    2    0    0  0.62156999379E+02  0.18260369086E+03 -0.78939995983E+03  0.82248945103E+03  0.12700000000E+03 0.  0.
   -5000001    1    1    2    0    0 -0.62156999379E+02 -0.18260369086E+03 -0.17682875192E+04  0.17833051761E+04  0.12700000000E+03 0.  0.
<mgrwt>
<rscale>  0 0.49839783E+03</rscale>
<asrwt>0</asrwt>
<pdfrwt beam="1">  1        2 0.36881997E+00 0.49839783E+03</pdfrwt>
<pdfrwt beam="2">  1       -2 0.34362265E-02 0.49839783E+03</pdfrwt>
<totfact> 0.15448338E+03</totfact>
</mgrwt>
</event>
<event>
 4    1  0.1383574E-004  0.3463490E+03  0.7818608E-02  0.1064124E+00
         -2   -1    0    0    0  501 -0.00000000000E+00  0.00000000000E+00  0.78841953574E+01  0.78841957697E+01  0.25500000000E-02 0. -1.
          2   -1    0    0  501    0  0.00000000000E+00 -0.00000000000E+00 -0.38037372894E+04  0.38037372894E+04  0.25500000000E-02 0.  1.
    5000001    1    1    2    0    0 -0.22361275693E+02  0.11141161828E+03 -0.15591121887E+04  0.15683980337E+04  0.12700000000E+03 0.  0.
   -5000001    1    1    2    0    0  0.22361275693E+02 -0.11141161828E+03 -0.22367409053E+04  0.22432234514E+04  0.12700000000E+03 0.  0.
<mgrwt>
<rscale>  0 0.34634901E+03</rscale>
<asrwt>0</asrwt>
<pdfrwt beam="1">  1        2 0.54338987E+00 0.34634901E+03</pdfrwt>
<pdfrwt beam="2">  1       -2 0.11263161E-02 0.34634901E+03</pdfrwt>
<totfact> 0.17124407E+03</totfact>
</mgrwt>
</event>
<event>
 4    1  0.1383574E-004  0.5328056E+03  0.7818608E-02  0.1005554E+00
          2   -1    0    0  501    0  0.00000000000E+00  0.00000000000E+00  0.42167065417E+03  0.42167065417E+03  0.25500000000E-02 0.  1.
         -2   -1    0    0    0  501 -0.00000000000E+00 -0.00000000000E+00 -0.16830780030E+03  0.16830780032E+03  0.25500000000E-02 0. -1.
    5000001    1    1    2    0    0 -0.19323100795E+03  0.13156581922E+03  0.14209140192E+03  0.30160695237E+03  0.12700000000E+03 0.  0.
   -5000001    1    1    2    0    0  0.19323100795E+03 -0.13156581922E+03  0.11127145194E+03  0.28837150212E+03  0.12700000000E+03 0.  0.
<mgrwt>
<rscale>  0 0.53280563E+03</rscale>
<asrwt>0</asrwt>
<pdfrwt beam="1">  1        2 0.60238665E-01 0.53280563E+03</pdfrwt>
<pdfrwt beam="2">  1       -2 0.24043971E-01 0.53280563E+03</pdfrwt>
<totfact> 0.12527052E+03</totfact>
</mgrwt>
</event>
<event>
 4    1  0.1383574E-004  0.5610978E+03  0.7818608E-02  0.9989574E-01
         -2   -1    0    0    0  501 -0.00000000000E+00  0.00000000000E+00  0.19445742600E+03  0.19445742602E+03  0.25500000000E-02 0. -1.
          2   -1    0    0  501    0  0.00000000000E+00 -0.00000000000E+00 -0.40475542387E+03  0.40475542388E+03  0.25500000000E-02 0.  1.
    5000001    1    1    2    0    0 -0.10623713373E+03  0.20609086358E+03 -0.48606807537E+01  0.26440952867E+03  0.12700000000E+03 0.  0.
   -5000001    1    1    2    0    0  0.10623713373E+03 -0.20609086358E+03 -0.20543731711E+03  0.33480332122E+03  0.12700000000E+03 0.  0.
<mgrwt>
<rscale>  0 0.56109784E+03</rscale>
<asrwt>0</asrwt>
<pdfrwt beam="1">  1        2 0.57822203E-01 0.56109784E+03</pdfrwt>
<pdfrwt beam="2">  1       -2 0.27779632E-01 0.56109784E+03</pdfrwt>
<totfact> 0.10106165E+03</totfact>
</mgrwt>
</event>
<event>
 4    1  0.1383574E-004  0.4402119E+03  0.7818608E-02  0.1030682E+00
         -2   -1    0    0    0  501 -0.00000000000E+00  0.00000000000E+00  0.15878248811E+02  0.15878249015E+02  0.25500000000E-02 0. -1.
          2   -1    0    0  501    0  0.00000000000E+00 -0.00000000000E+00 -0.30511324104E+04  0.30511324104E+04  0.25500000000E-02 0.  1.
    5000001    1    1    2    0    0  0.17154493443E+03  0.13417995419E+02 -0.18803146880E+04  0.18924375903E+04  0.12700000000E+03 0.  0.
   -5000001    1    1    2    0    0 -0.17154493443E+03 -0.13417995419E+02 -0.11549394736E+04  0.11745730692E+04  0.12700000000E+03 0.  0.
<mgrwt>
<rscale>  0 0.44021195E+03</rscale>
<asrwt>0</asrwt>
<pdfrwt beam="1">  1        2 0.43587568E+00 0.44021195E+03</pdfrwt>
<pdfrwt beam="2">  1       -2 0.22683232E-02 0.44021195E+03</pdfrwt>
<totfact> 0.16426064E+03</totfact>
</mgrwt>
</event>
<event>
 4    1  0.1383574E-004  0.4345608E+03  0.7818608E-02  0.1032429E+00
          2   -1    0    0  501    0  0.00000000000E+00  0.00000000000E+00  0.12249801209E+04  0.12249801209E+04  0.25500000000E-02 0.  1.
         -2   -1    0    0    0  501 -0.00000000000E+00 -0.00000000000E+00 -0.38540025151E+02  0.38540025235E+02  0.25500000000E-02 0. -1.
    5000001    1    1    2    0    0  0.10723175729E+03 -0.58369177917E+02  0.96302208080E+03  0.97900262451E+03  0.12700000000E+03 0.  0.
   -5000001    1    1    2    0    0 -0.10723175729E+03  0.58369177917E+02  0.22341801493E+03  0.28451752160E+03  0.12700000000E+03 0.  0.
<mgrwt>
<rscale>  0 0.43456077E+03</rscale>
<asrwt>0</asrwt>
<pdfrwt beam="1">  1        2 0.17499717E+00 0.43456077E+03</pdfrwt>
<pdfrwt beam="2">  1       -2 0.55057175E-02 0.43456077E+03</pdfrwt>
<totfact> 0.36838595E+03</totfact>
</mgrwt>
</event>
<event>
 4    1  0.1383574E-004  0.8224929E+03  0.7818608E-02  0.9528018E-01
         -2   -1    0    0    0  501 -0.00000000000E+00  0.00000000000E+00  0.37910847375E+03  0.37910847376E+03  0.25500000000E-02 0. -1.
          2   -1    0    0  501    0  0.00000000000E+00 -0.00000000000E+00 -0.44610886965E+03  0.44610886966E+03  0.25500000000E-02 0.  1.
    5000001    1    1    2    0    0  0.34349329251E+03  0.15141584265E+03  0.76774073358E+02  0.40365537002E+03  0.12700000000E+03 0.  0.
   -5000001    1    1    2    0    0 -0.34349329251E+03 -0.15141584265E+03 -0.14377446926E+03  0.42156197340E+03  0.12700000000E+03 0.  0.
<mgrwt>
<rscale>  0 0.82249292E+03</rscale>
<asrwt>0</asrwt>
<pdfrwt beam="1">  1        2 0.63729838E-01 0.82249292E+03</pdfrwt>
<pdfrwt beam="2">  1       -2 0.54158354E-01 0.82249292E+03</pdfrwt>
<totfact> 0.24696835E+02</totfact>
</mgrwt>
</event>
<event>
 4    1  0.1383574E-004  0.5138972E+03  0.7818608E-02  0.1010214E+00
          2   -1    0    0  501    0  0.00000000000E+00  0.00000000000E+00  0.13188433806E+04  0.13188433806E+04  0.25500000000E-02 0.  1.
         -2   -1    0    0    0  501 -0.00000000000E+00 -0.00000000000E+00 -0.50060973895E+02  0.50060973960E+02  0.25500000000E-02 0. -1.
    5000001    1    1    2    0    0  0.17304069835E+03  0.14025507429E+03  0.58989626788E+03  0.64321161060E+03  0.12700000000E+03 0.  0.
   -5000001    1    1    2    0    0 -0.17304069835E+03 -0.14025507429E+03  0.67888613883E+03  0.72569274396E+03  0.12700000000E+03 0.  0.
<mgrwt>
<rscale>  0 0.51389720E+03</rscale>
<asrwt>0</asrwt>
<pdfrwt beam="1">  1        2 0.18840620E+00 0.51389720E+03</pdfrwt>
<pdfrwt beam="2">  1       -2 0.71515677E-02 0.51389720E+03</pdfrwt>
<totfact> 0.21767636E+03</totfact>
</mgrwt>
</event>
<event>
 4    1  0.1383574E-004  0.2961693E+03  0.7818608E-02  0.1087171E+00
         -2   -1    0    0    0  501 -0.00000000000E+00  0.00000000000E+00  0.21265522543E+02  0.21265522696E+02  0.25500000000E-02 0. -1.
          2   -1    0    0  501    0  0.00000000000E+00 -0.00000000000E+00 -0.10312028221E+04  0.10312028221E+04  0.25500000000E-02 0.  1.
    5000001    1    1    2    0    0 -0.53906971623E+02 -0.50926682311E+02 -0.44335912764E+03  0.46711433784E+03  0.12700000000E+03 0.  0.
   -5000001    1    1    2    0    0  0.53906971623E+02  0.50926682311E+02 -0.56657817190E+03  0.58535400693E+03  0.12700000000E+03 0.  0.
<mgrwt>
<rscale>  0 0.29616932E+03</rscale>
<asrwt>0</asrwt>
<pdfrwt beam="1">  1        2 0.14731466E+00 0.29616932E+03</pdfrwt>
<pdfrwt beam="2">  1       -2 0.30379325E-02 0.29616932E+03</pdfrwt>
<totfact> 0.11606742E+04</totfact>
</mgrwt>
</event>
<event>
 4    1  0.1383574E-004  0.6961459E+03  0.7818608E-02  0.9723846E-01
          2   -1    0    0  501    0  0.00000000000E+00  0.00000000000E+00  0.11903407867E+04  0.11903407867E+04  0.25500000000E-02 0.  1.
         -2   -1    0    0    0  501 -0.00000000000E+00 -0.00000000000E+00 -0.10178159077E+03  0.10178159080E+03  0.25500000000E-02 0. -1.
    5000001    1    1    2    0    0  0.15685186420E+03 -0.28224654955E+03  0.59545425886E+03  0.68917370556E+03  0.12700000000E+03 0.  0.
   -5000001    1    1    2    0    0 -0.15685186420E+03  0.28224654955E+03  0.49310493705E+03  0.60294867192E+03  0.12700000000E+03 0.  0.
<mgrwt>
<rscale>  0 0.69614590E+03</rscale>
<asrwt>0</asrwt>
<pdfrwt beam="1">  1        2 0.17004867E+00 0.69614590E+03</pdfrwt>
<pdfrwt beam="2">  1       -2 0.14540228E-01 0.69614590E+03</pdfrwt>
<totfact> 0.80451363E+02</totfact>
</mgrwt>
</event>
<event>
 4    1  0.1383574E-004  0.4697928E+03  0.7818608E-02  0.1021979E+00
          2   -1    0    0  501    0  0.00000000000E+00  0.00000000000E+00  0.91037860442E+03  0.91037860442E+03  0.25500000000E-02 0.  1.
         -2   -1    0    0    0  501 -0.00000000000E+00 -0.00000000000E+00 -0.60608101887E+02  0.60608101940E+02  0.25500000000E-02 0. -1.
    5000001    1    1    2    0    0  0.17351544722E+03 -0.81398662717E+02  0.52430793033E+03  0.57250428690E+03  0.12700000000E+03 0.  0.
   -5000001    1    1    2    0    0 -0.17351544722E+03  0.81398662717E+02  0.32546257221E+03  0.39848241946E+03  0.12700000000E+03 0.  0.
<mgrwt>
<rscale>  0 0.46979280E+03</rscale>
<asrwt>0</asrwt>
<pdfrwt beam="1">  1        2 0.13005407E+00 0.46979280E+03</pdfrwt>
<pdfrwt beam="2">  1       -2 0.86583013E-02 0.46979280E+03</pdfrwt>
<totfact> 0.27698376E+03</totfact>
</mgrwt>
</event>
<event>
 4    1  0.1383574E-004  0.5481042E+03  0.7818608E-02  0.1001934E+00
          2   -1    0    0  501    0  0.00000000000E+00  0.00000000000E+00  0.53283270070E+03  0.53283270071E+03  0.25500000000E-02 0.  1.
         -2   -1    0    0    0  501 -0.00000000000E+00 -0.00000000000E+00 -0.14095337395E+03  0.14095337398E+03  0.25500000000E-02 0. -1.
    5000001    1    1    2    0    0  0.22132311762E+03 -0.70700739851E+02  0.28280406178E+03  0.38741406062E+03  0.12700000000E+03 0.  0.
   -5000001    1    1    2    0    0 -0.22132311762E+03  0.70700739851E+02  0.10907526497E+03  0.28637201406E+03  0.12700000000E+03 0.  0.
<mgrwt>
<rscale>  0 0.54810425E+03</rscale>
<asrwt>0</asrwt>
<pdfrwt beam="1">  1        2 0.76118958E-01 0.54810425E+03</pdfrwt>
<pdfrwt beam="2">  1       -2 0.20136196E-01 0.54810425E+03</pdfrwt>
<totfact> 0.13149258E+03</totfact>
</mgrwt>
</event>
<event>
 4    1  0.1383574E-004  0.1007410E+04  0.7818608E-02  0.9300454E-01
         -2   -1    0    0    0  501 -0.00000000000E+00  0.00000000000E+00  0.85054797639E+02  0.85054797677E+02  0.25500000000E-02 0. -1.
          2   -1    0    0  501    0  0.00000000000E+00 -0.00000000000E+00 -0.29830053460E+04  0.29830053460E+04  0.25500000000E-02 0.  1.
    5000001    1    1    2    0    0  0.78279393814E+02 -0.25068710083E+03 -0.26995501884E+04  0.27152664520E+04  0.12700000000E+03 0.  0.
   -5000001    1    1    2    0    0 -0.78279393814E+02  0.25068710083E+03 -0.19840035998E+03  0.35279369163E+03  0.12700000000E+03 0.  0.
<mgrwt>
<rscale>  0 0.10074104E+04</rscale>
<asrwt>0</asrwt>
<pdfrwt beam="1">  1        2 0.42614356E+00 0.10074104E+04</pdfrwt>
<pdfrwt beam="2">  1       -2 0.12150687E-01 0.10074104E+04</pdfrwt>
<totfact> 0.12258205E+02</totfact>
</mgrwt>
</event>
<event>
 4    1  0.1383574E-004  0.3282726E+03  0.7818608E-02  0.1071904E+00
          2   -1    0    0  501    0  0.00000000000E+00  0.00000000000E+00  0.69597126323E+03  0.69597126323E+03  0.25500000000E-02 0.  1.
         -2   -1    0    0    0  501 -0.00000000000E+00 -0.00000000000E+00 -0.38709546892E+02  0.38709546976E+02  0.25500000000E-02 0. -1.
    5000001    1    1    2    0    0 -0.10175681433E+03 -0.21300986171E+02  0.33284820925E+03  0.37111334074E+03  0.12700000000E+03 0.  0.
   -5000001    1    1    2    0    0  0.10175681433E+03  0.21300986171E+02  0.32441350708E+03  0.36356746947E+03  0.12700000000E+03 0.  0.
<mgrwt>
<rscale>  0 0.32827264E+03</rscale>
<asrwt>0</asrwt>
<pdfrwt beam="1">  1        2 0.99424463E-01 0.32827264E+03</pdfrwt>
<pdfrwt beam="2">  1       -2 0.55299355E-02 0.32827264E+03</pdfrwt>
<totfact> 0.77780749E+03</totfact>
</mgrwt>
</event>
<event>
 4    1  0.1383574E-004  0.5661083E+03  0.7818608E-02  0.9978328E-01
         -2   -1    0    0    0  501 -0.00000000000E+00  0.00000000000E+00  0.58591828172E+02  0.58591828227E+02  0.25500000000E-02 0. -1.
          2   -1    0    0  501    0  0.00000000000E+00 -0.00000000000E+00 -0.13674200530E+04  0.13674200530E+04  0.25500000000E-02 0.  1.
    5000001    1    1    2    0    0  0.20433781297E+03  0.43586669580E+01 -0.10298823557E+04  0.10576197835E+04  0.12700000000E+03 0.  0.
   -5000001    1    1    2    0    0 -0.20433781297E+03 -0.43586669580E+01 -0.27894586909E+03  0.36839209773E+03  0.12700000000E+03 0.  0.
<mgrwt>
<rscale>  0 0.56610826E+03</rscale>
<asrwt>0</asrwt>
<pdfrwt beam="1">  1        2 0.19534570E+00 0.56610826E+03</pdfrwt>
<pdfrwt beam="2">  1       -2 0.83702620E-02 0.56610826E+03</pdfrwt>
<totfact> 0.15953716E+03</totfact>
</mgrwt>
</event>
<event>
 4    1  0.1383574E-004  0.4813922E+03  0.7818608E-02  0.1018753E+00
         -2   -1    0    0    0  501 -0.00000000000E+00  0.00000000000E+00  0.74148769929E+02  0.74148769973E+02  0.25500000000E-02 0. -1.
          2   -1    0    0  501    0  0.00000000000E+00 -0.00000000000E+00 -0.78132952455E+03  0.78132952455E+03  0.25500000000E-02 0.  1.
    5000001    1    1    2    0    0  0.18197139353E+03  0.38109032242E+02 -0.20238358719E+03  0.30274412095E+03  0.12700000000E+03 0.  0.
   -5000001    1    1    2    0    0 -0.18197139353E+03 -0.38109032242E+02 -0.50479716742E+03  0.55273417358E+03  0.12700000000E+03 0.  0.
<mgrwt>
<rscale>  0 0.48139224E+03</rscale>
<asrwt>0</asrwt>
<pdfrwt beam="1">  1        2 0.11161850E+00 0.48139224E+03</pdfrwt>
<pdfrwt beam="2">  1       -2 0.10592682E-01 0.48139224E+03</pdfrwt>
<totfact> 0.24412592E+03</totfact>
</mgrwt>
</event>
<event>
 4    1  0.1383574E-004  0.3636067E+03  0.7818608E-02  0.1057165E+00
         -2   -1    0    0    0  501 -0.00000000000E+00  0.00000000000E+00  0.31820422919E+03  0.31820422920E+03  0.25500000000E-02 0. -1.
          2   -1    0    0  501    0  0.00000000000E+00 -0.00000000000E+00 -0.10387183533E+03  0.10387183536E+03  0.25500000000E-02 0.  1.
    5000001    1    1    2    0    0  0.12851328538E+03 -0.50254517691E+01  0.84462534120E+02  0.19950899567E+03  0.12700000000E+03 0.  0.
   -5000001    1    1    2    0    0 -0.12851328538E+03  0.50254517691E+01  0.12986985974E+03  0.22256706889E+03  0.12700000000E+03 0.  0.
<mgrwt>
<rscale>  0 0.36360670E+03</rscale>
<asrwt>0</asrwt>
<pdfrwt beam="1">  1        2 0.14838833E-01 0.36360670E+03</pdfrwt>
<pdfrwt beam="2">  1       -2 0.45457748E-01 0.36360670E+03</pdfrwt>
<totfact> 0.18446688E+03</totfact>
</mgrwt>
</event>
<event>
 4    1  0.1383574E-004  0.4113204E+03  0.7818608E-02  0.1039929E+00
          2   -1    0    0  501    0  0.00000000000E+00  0.00000000000E+00  0.18024465221E+03  0.18024465223E+03  0.25500000000E-02 0.  1.
         -2   -1    0    0    0  501 -0.00000000000E+00 -0.00000000000E+00 -0.23465945406E+03  0.23465945408E+03  0.25500000000E-02 0. -1.
    5000001    1    1    2    0    0  0.60225552847E+02  0.47090397900E+01  0.12415941704E+03  0.18760024817E+03  0.12700000000E+03 0.  0.
   -5000001    1    1    2    0    0 -0.60225552847E+02 -0.47090397900E+01 -0.17857421889E+03  0.22730385814E+03  0.12700000000E+03 0.  0.
<mgrwt>
<rscale>  0 0.41132037E+03</rscale>
<asrwt>0</asrwt>
<pdfrwt beam="1">  1        2 0.25749236E-01 0.41132037E+03</pdfrwt>
<pdfrwt beam="2">  1       -2 0.33522779E-01 0.41132037E+03</pdfrwt>
<totfact> 0.17467849E+03</totfact>
</mgrwt>
</event>
<event>
 4    1  0.1383574E-004  0.2901730E+03  0.7818608E-02  0.1090259E+00
         -2   -1    0    0    0  501 -0.00000000000E+00  0.00000000000E+00  0.13551821564E+03  0.13551821566E+03  0.25500000000E-02 0. -1.
          2   -1    0    0  501    0  0.00000000000E+00 -0.00000000000E+00 -0.15533038879E+03  0.15533038881E+03  0.25500000000E-02 0.  1.
    5000001    1    1    2    0    0 -0.29433398683E+02  0.61482881559E+02 -0.26516556032E+02  0.14655578264E+03  0.12700000000E+03 0.  0.
   -5000001    1    1    2    0    0  0.29433398683E+02 -0.61482881559E+02  0.67043828798E+01  0.14429282183E+03  0.12700000000E+03 0.  0.
<mgrwt>
<rscale>  0 0.29017303E+03</rscale>
<asrwt>0</asrwt>
<pdfrwt beam="1">  1        2 0.22190055E-01 0.29017303E+03</pdfrwt>
<pdfrwt beam="2">  1       -2 0.19359745E-01 0.29017303E+03</pdfrwt>
<totfact> 0.54520526E+03</totfact>
</mgrwt>
</event>
<event>
 4    1  0.1383574E-004  0.4002201E+03  0.7818608E-02  0.1043703E+00
          2   -1    0    0  501    0  0.00000000000E+00  0.00000000000E+00  0.72997791827E+03  0.72997791828E+03  0.25500000000E-02 0. -1.
         -2   -1    0    0    0  501 -0.00000000000E+00 -0.00000000000E+00 -0.54856491457E+02  0.54856491516E+02  0.25500000000E-02 0.  1.
    5000001    1    1    2    0    0 -0.12410585471E+03 -0.15732829991E+01  0.51846602600E+03  0.54803353776E+03  0.12700000000E+03 0.  0.
   -5000001    1    1    2    0    0  0.12410585471E+03  0.15732829991E+01  0.15665540082E+03  0.23680087203E+03  0.12700000000E+03 0.  0.
<mgrwt>
<rscale>  0 0.40022008E+03</rscale>
<asrwt>0</asrwt>
<pdfrwt beam="1">  1        2 0.10428255E+00 0.40022008E+03</pdfrwt>
<pdfrwt beam="2">  1       -2 0.78366422E-02 0.40022008E+03</pdfrwt>
<totfact> 0.42896079E+03</totfact>
</mgrwt>
</event>
<event>
 4    1  0.1383574E-004  0.3871359E+03  0.7818608E-02  0.1048327E+00
          2   -1    0    0  501    0  0.00000000000E+00  0.00000000000E+00  0.43531940451E+04  0.43531940451E+04  0.25500000000E-02 0.  1.
         -2   -1    0    0    0  501 -0.00000000000E+00 -0.00000000000E+00 -0.86071391032E+01  0.86071394810E+01  0.25500000000E-02 0. -1.
    5000001    1    1    2    0    0 -0.31256345956E+02  0.12154507019E+03  0.30146276366E+04  0.30199104210E+04  0.12700000000E+03 0.  0.
   -5000001    1    1    2    0    0  0.31256345956E+02 -0.12154507019E+03  0.13299592694E+04  0.13418907636E+04  0.12700000000E+03 0.  0.
<mgrwt>
<rscale>  0 0.38713588E+03</rscale>
<asrwt>0</asrwt>
<pdfrwt beam="1">  1        2 0.62188353E+00 0.38713588E+03</pdfrwt>
<pdfrwt beam="2">  1       -2 0.12295940E-02 0.38713588E+03</pdfrwt>
<totfact> 0.63783249E+02</totfact>
</mgrwt>
</event>
<event>
 4    1  0.1383574E-004  0.3643005E+03  0.7818608E-02  0.1056894E+00
         -2   -1    0    0    0  501 -0.00000000000E+00  0.00000000000E+00  0.26522396347E+02  0.26522396469E+02  0.25500000000E-02 0. -1.
          2   -1    0    0  501    0  0.00000000000E+00 -0.00000000000E+00 -0.12509696964E+04  0.12509696964E+04  0.25500000000E-02 0.  1.
    5000001    1    1    2    0    0  0.80446255997E+02  0.74720655309E+02 -0.86005913553E+03  0.87629075828E+03  0.12700000000E+03 0.  0.
   -5000001    1    1    2    0    0 -0.80446255997E+02 -0.74720655309E+02 -0.36438816450E+03  0.40120133457E+03  0.12700000000E+03 0.  0.
<mgrwt>
<rscale>  0 0.36430050E+03</rscale>
<asrwt>0</asrwt>
<pdfrwt beam="1">  1        2 0.17870992E+00 0.36430050E+03</pdfrwt>
<pdfrwt beam="2">  1       -2 0.37889146E-02 0.36430050E+03</pdfrwt>
<totfact> 0.63044669E+03</totfact>
</mgrwt>
</event>
<event>
 4    1  0.1383574E-004  0.4005675E+03  0.7818608E-02  0.1043583E+00
          2   -1    0    0  501    0  0.00000000000E+00  0.00000000000E+00  0.22908970518E+04  0.22908970518E+04  0.25500000000E-02 0.  1.
         -2   -1    0    0    0  501 -0.00000000000E+00 -0.00000000000E+00 -0.17509989318E+02  0.17509989504E+02  0.25500000000E-02 0. -1.
    5000001    1    1    2    0    0 -0.15232052385E+03 -0.27747191963E+02  0.11575789413E+04  0.11747720860E+04  0.12700000000E+03 0.  0.
   -5000001    1    1    2    0    0  0.15232052385E+03  0.27747191963E+02  0.11158081211E+04  0.11336349553E+04  0.12700000000E+03 0.  0.
<mgrwt>
<rscale>  0 0.40056751E+03</rscale>
<asrwt>0</asrwt>
<pdfrwt beam="1">  1        2 0.32727077E+00 0.40056751E+03</pdfrwt>
<pdfrwt beam="2">  1       -2 0.25014289E-02 0.40056751E+03</pdfrwt>
<totfact> 0.35178447E+03</totfact>
</mgrwt>
</event>
<event>
 4    1  0.1383574E-004  0.1075055E+04  0.7818608E-02  0.9229852E-01
          2   -1    0    0  501    0  0.00000000000E+00  0.00000000000E+00  0.15561741072E+04  0.15561741072E+04  0.25500000000E-02 0.  1.
         -2   -1    0    0    0  501 -0.00000000000E+00 -0.00000000000E+00 -0.18567051479E+03  0.18567051480E+03  0.25500000000E-02 0. -1.
    5000001    1    1    2    0    0 -0.48956877790E+03 -0.17976323704E+03  0.73148505548E+03  0.90729917672E+03  0.12700000000E+03 0.  0.
   -5000001    1    1    2    0    0  0.48956877790E+03  0.17976323704E+03  0.63901853690E+03  0.83454544525E+03  0.12700000000E+03 0.  0.
<mgrwt>
<rscale>  0 0.10750547E+04</rscale>
<asrwt>0</asrwt>
<pdfrwt beam="1">  1        2 0.22231060E+00 0.10750547E+04</pdfrwt>
<pdfrwt beam="2">  1       -2 0.26524358E-01 0.10750547E+04</pdfrwt>
<totfact> 0.17444307E+02</totfact>
</mgrwt>
</event>
<event>
 4    1  0.1383574E-004  0.1638834E+04  0.7818608E-02  0.8797039E-01
          2   -1    0    0  501    0  0.00000000000E+00  0.00000000000E+00  0.19533332943E+04  0.19533332943E+04  0.25500000000E-02 0.  1.
         -2   -1    0    0    0  501 -0.00000000000E+00 -0.00000000000E+00 -0.34374296593E+03  0.34374296594E+03  0.25500000000E-02 0. -1.
    5000001    1    1    2    0    0 -0.33575140403E+03  0.71381639532E+03  0.10596213125E+04  0.13270980285E+04  0.12700000000E+03 0.  0.
   -5000001    1    1    2    0    0  0.33575140403E+03 -0.71381639532E+03  0.54996901593E+03  0.96997823173E+03  0.12700000000E+03 0.  0.
<mgrwt>
<rscale>  0 0.16388344E+04</rscale>
<asrwt>0</asrwt>
<pdfrwt beam="1">  1        2 0.27904761E+00 0.16388344E+04</pdfrwt>
<pdfrwt beam="2">  1       -2 0.49106139E-01 0.16388344E+04</pdfrwt>
<totfact> 0.31895525E+01</totfact>
</mgrwt>
</event>
<event>
 4    1  0.1383574E-004  0.4426193E+03  0.7818608E-02  0.1029946E+00
          2   -1    0    0  501    0  0.00000000000E+00  0.00000000000E+00  0.39906895323E+03  0.39906895324E+03  0.25500000000E-02 0.  1.
         -2   -1    0    0    0  501 -0.00000000000E+00 -0.00000000000E+00 -0.12273054710E+03  0.12273054713E+03  0.25500000000E-02 0. -1.
    5000001    1    1    2    0    0 -0.48774449669E+02 -0.15364018549E+03  0.40494059718E+02  0.20917223145E+03  0.12700000000E+03 0.  0.
   -5000001    1    1    2    0    0  0.48774449669E+02  0.15364018549E+03  0.23584434641E+03  0.31262726892E+03  0.12700000000E+03 0.  0.
<mgrwt>
<rscale>  0 0.44261925E+03</rscale>
<asrwt>0</asrwt>
<pdfrwt beam="1">  1        2 0.57009851E-01 0.44261925E+03</pdfrwt>
<pdfrwt beam="2">  1       -2 0.17532935E-01 0.44261925E+03</pdfrwt>
<totfact> 0.23041758E+03</totfact>
</mgrwt>
</event>
<event>
 4    1  0.1383574E-004  0.4669093E+03  0.7818608E-02  0.1022796E+00
         -2   -1    0    0    0  501 -0.00000000000E+00  0.00000000000E+00  0.43185589837E+02  0.43185589913E+02  0.25500000000E-02 0. -1.
          2   -1    0    0  501    0  0.00000000000E+00 -0.00000000000E+00 -0.12620199139E+04  0.12620199139E+04  0.25500000000E-02 0.  1.
    5000001    1    1    2    0    0  0.61969979073E+02  0.17339863127E+03 -0.42263171568E+03  0.47817771878E+03  0.12700000000E+03 0.  0.
   -5000001    1    1    2    0    0 -0.61969979073E+02 -0.17339863127E+03 -0.79620260840E+03  0.82702778506E+03  0.12700000000E+03 0.  0.
<mgrwt>
<rscale>  0 0.46690930E+03</rscale>
<asrwt>0</asrwt>
<pdfrwt beam="1">  1        2 0.18028854E+00 0.46690930E+03</pdfrwt>
<pdfrwt beam="2">  1       -2 0.61693707E-02 0.46690930E+03</pdfrwt>
<totfact> 0.29468356E+03</totfact>
</mgrwt>
</event>
<event>
 4    1  0.1383574E-004  0.2743276E+03  0.7818608E-02  0.1098828E+00
          2   -1    0    0  501    0  0.00000000000E+00  0.00000000000E+00  0.67052733365E+03  0.67052733365E+03  0.25500000000E-02 0.  1.
         -2   -1    0    0    0  501 -0.00000000000E+00 -0.00000000000E+00 -0.28058369489E+02  0.28058369605E+02  0.25500000000E-02 0. -1.
    5000001    1    1    2    0    0  0.40122149556E+02  0.12494863959E+02  0.39843262684E+03  0.42028974130E+03  0.12700000000E+03 0.  0.
   -5000001    1    1    2    0    0 -0.40122149556E+02 -0.12494863959E+02  0.24403633731E+03  0.27829596196E+03  0.12700000000E+03 0.  0.
<mgrwt>
<rscale>  0 0.27432757E+03</rscale>
<asrwt>0</asrwt>
<pdfrwt beam="1">  1        2 0.95789621E-01 0.27432757E+03</pdfrwt>
<pdfrwt beam="2">  1       -2 0.40083384E-02 0.27432757E+03</pdfrwt>
<totfact> 0.13168844E+04</totfact>
</mgrwt>
</event>
<event>
 4    1  0.1383574E-004  0.4003760E+03  0.7818608E-02  0.1043650E+00
          2   -1    0    0  501    0  0.00000000000E+00  0.00000000000E+00  0.60943655224E+03  0.60943655224E+03  0.25500000000E-02 0.  1.
         -2   -1    0    0    0  501 -0.00000000000E+00 -0.00000000000E+00 -0.65757835032E+02  0.65757835082E+02  0.25500000000E-02 0. -1.
    5000001    1    1    2    0    0  0.13259220411E+03 -0.78603042116E+02  0.24877216426E+03  0.31902307210E+03  0.12700000000E+03 0.  0.
   -5000001    1    1    2    0    0 -0.13259220411E+03  0.78603042116E+02  0.29490655294E+03  0.35617131522E+03  0.12700000000E+03 0.  0.
<mgrwt>
<rscale>  0 0.40037596E+03</rscale>
<asrwt>0</asrwt>
<pdfrwt beam="1">  1        2 0.87062365E-01 0.40037596E+03</pdfrwt>
<pdfrwt beam="2">  1       -2 0.93939764E-02 0.40037596E+03</pdfrwt>
<totfact> 0.39888391E+03</totfact>
</mgrwt>
</event>
<event>
 4    1  0.1383574E-004  0.2870642E+03  0.7818608E-02  0.1091892E+00
          2   -1    0    0  501    0  0.00000000000E+00  0.00000000000E+00  0.68497280445E+03  0.68497280446E+03  0.25500000000E-02 0.  1.
         -2   -1    0    0    0  501 -0.00000000000E+00 -0.00000000000E+00 -0.30076321052E+02  0.30076321160E+02  0.25500000000E-02 0. -1.
    5000001    1    1    2    0    0 -0.23072774164E+02 -0.62720508663E+02  0.33367395749E+03  0.36322654779E+03  0.12700000000E+03 0.  0.
   -5000001    1    1    2    0    0  0.23072774164E+02  0.62720508663E+02  0.32122252591E+03  0.35182257782E+03  0.12700000000E+03 0.  0.
<mgrwt>
<rscale>  0 0.28706419E+03</rscale>
<asrwt>0</asrwt>
<pdfrwt beam="1">  1        2 0.97853273E-01 0.28706419E+03</pdfrwt>
<pdfrwt beam="2">  1       -2 0.42966167E-02 0.28706419E+03</pdfrwt>
<totfact> 0.11587266E+04</totfact>
</mgrwt>
</event>
<event>
 4    1  0.1383574E-004  0.3190942E+03  0.7818608E-02  0.1076067E+00
         -2   -1    0    0    0  501 -0.00000000000E+00  0.00000000000E+00  0.26397904944E+03  0.26397904945E+03  0.25500000000E-02 0. -1.
          2   -1    0    0  501    0  0.00000000000E+00 -0.00000000000E+00 -0.96429150484E+02  0.96429150517E+02  0.25500000000E-02 0.  1.
    5000001    1    1    2    0    0  0.28411966895E+02 -0.69908898313E+02  0.15184179542E+03  0.21184764517E+03  0.12700000000E+03 0.  0.
   -5000001    1    1    2    0    0 -0.28411966895E+02  0.69908898313E+02  0.15708103534E+02  0.14856055480E+03  0.12700000000E+03 0.  0.
<mgrwt>
<rscale>  0 0.31909419E+03</rscale>
<asrwt>0</asrwt>
<pdfrwt beam="1">  1        2 0.13775593E-01 0.31909419E+03</pdfrwt>
<pdfrwt beam="2">  1       -2 0.37711293E-01 0.31909419E+03</pdfrwt>
<totfact> 0.28854507E+03</totfact>
</mgrwt>
</event>
<event>
 4    1  0.1383574E-004  0.6744130E+03  0.7818608E-02  0.9762018E-01
         -2   -1    0    0    0  501 -0.00000000000E+00  0.00000000000E+00  0.44803749375E+02  0.44803749448E+02  0.25500000000E-02 0. -1.
          2   -1    0    0  501    0  0.00000000000E+00 -0.00000000000E+00 -0.25379179183E+04  0.25379179183E+04  0.25500000000E-02 0.  1.
    5000001    1    1    2    0    0 -0.60996047123E+02 -0.30426307013E+03 -0.13837131476E+04  0.14237582689E+04  0.12700000000E+03 0.  0.
   -5000001    1    1    2    0    0  0.60996047123E+02  0.30426307013E+03 -0.11094010214E+04  0.11589633988E+04  0.12700000000E+03 0.  0.
<mgrwt>
<rscale>  0 0.67441304E+03</rscale>
<asrwt>0</asrwt>
<pdfrwt beam="1">  1        2 0.36255961E+00 0.67441304E+03</pdfrwt>
<pdfrwt beam="2">  1       -2 0.64005372E-02 0.67441304E+03</pdfrwt>
<totfact> 0.61374866E+02</totfact>
</mgrwt>
</event>
<event>
 4    1  0.1383574E-004  0.4346673E+03  0.7818608E-02  0.1032396E+00
          2   -1    0    0  501    0  0.00000000000E+00  0.00000000000E+00  0.91529187102E+03  0.91529187102E+03  0.25500000000E-02 0.  1.
         -2   -1    0    0    0  501 -0.00000000000E+00 -0.00000000000E+00 -0.51605307603E+02  0.51605307666E+02  0.25500000000E-02 0. -1.
    5000001    1    1    2    0    0 -0.10252302863E+03  0.13737537033E+03  0.33953637789E+03  0.40099490730E+03  0.12700000000E+03 0.  0.
   -5000001    1    1    2    0    0  0.10252302863E+03 -0.13737537033E+03  0.52415018553E+03  0.56590227139E+03  0.12700000000E+03 0.  0.
<mgrwt>
<rscale>  0 0.43466731E+03</rscale>
<asrwt>0</asrwt>
<pdfrwt beam="1">  1        2 0.13075599E+00 0.43466731E+03</pdfrwt>
<pdfrwt beam="2">  1       -2 0.73721864E-02 0.43466731E+03</pdfrwt>
<totfact> 0.35455106E+03</totfact>
</mgrwt>
</event>
<event>
 4    1  0.1383574E-004  0.6709718E+03  0.7818608E-02  0.9768204E-01
          2   -1    0    0  501    0  0.00000000000E+00  0.00000000000E+00  0.10132168833E+04  0.10132168833E+04  0.25500000000E-02 0.  1.
         -2   -1    0    0    0  501 -0.00000000000E+00 -0.00000000000E+00 -0.11108262370E+03  0.11108262373E+03  0.25500000000E-02 0. -1.
    5000001    1    1    2    0    0  0.12814377722E+03 -0.26496832808E+03  0.28524975920E+03  0.42909843585E+03  0.12700000000E+03 0.  0.
   -5000001    1    1    2    0    0 -0.12814377722E+03  0.26496832808E+03  0.61688450035E+03  0.69520107113E+03  0.12700000000E+03 0.  0.
<mgrwt>
<rscale>  0 0.67097180E+03</rscale>
<asrwt>0</asrwt>
<pdfrwt beam="1">  1        2 0.14474527E+00 0.67097180E+03</pdfrwt>
<pdfrwt beam="2">  1       -2 0.15868946E-01 0.67097180E+03</pdfrwt>
<totfact> 0.88165384E+02</totfact>
</mgrwt>
</event>
<event>
 4    1  0.1383574E-004  0.4933952E+03  0.7818608E-02  0.1015517E+00
          2   -1    0    0  501    0  0.00000000000E+00  0.00000000000E+00  0.12343804678E+03  0.12343804681E+03  0.25500000000E-02 0.  1.
         -2   -1    0    0    0  501 -0.00000000000E+00 -0.00000000000E+00 -0.49303847491E+03  0.49303847492E+03  0.25500000000E-02 0. -1.
    5000001    1    1    2    0    0 -0.11565644708E+03  0.20461042469E+02  0.34961058000E+02  0.17648326716E+03  0.12700000000E+03 0.  0.
   -5000001    1    1    2    0    0  0.11565644708E+03 -0.20461042469E+02 -0.40456148613E+03  0.43999325457E+03  0.12700000000E+03 0.  0.
<mgrwt>
<rscale>  0 0.49339520E+03</rscale>
<asrwt>0</asrwt>
<pdfrwt beam="1">  1        2 0.17634007E-01 0.49339520E+03</pdfrwt>
<pdfrwt beam="2">  1       -2 0.70434066E-01 0.49339520E+03</pdfrwt>
<totfact> 0.60934214E+02</totfact>
</mgrwt>
</event>
<event>
 4    1  0.1383574E-004  0.6104211E+03  0.7818608E-02  0.9884018E-01
          2   -1    0    0  501    0  0.00000000000E+00  0.00000000000E+00  0.47245374078E+04  0.47245374078E+04  0.25500000000E-02 0.  1.
         -2   -1    0    0    0  501 -0.00000000000E+00 -0.00000000000E+00 -0.19716955340E+02  0.19716955504E+02  0.25500000000E-02 0. -1.
    5000001    1    1    2    0    0  0.12818217768E+03  0.52885708285E+02  0.42209001576E+04  0.42250863552E+04  0.12700000000E+03 0.  0.
   -5000001    1    1    2    0    0 -0.12818217768E+03 -0.52885708285E+02  0.48392029482E+03  0.51916800802E+03  0.12700000000E+03 0.  0.
<mgrwt>
<rscale>  0 0.61042114E+03</rscale>
<asrwt>0</asrwt>
<pdfrwt beam="1">  1        2 0.67493451E+00 0.61042114E+03</pdfrwt>
<pdfrwt beam="2">  1       -2 0.28167054E-02 0.61042114E+03</pdfrwt>
<totfact> 0.90802296E+01</totfact>
</mgrwt>
</event>
<event>
 4    1  0.1383574E-004  0.3516969E+03  0.7818608E-02  0.1061921E+00
          2   -1    0    0  501    0  0.00000000000E+00  0.00000000000E+00  0.24241020295E+03  0.24241020296E+03  0.25500000000E-02 0.  1.
         -2   -1    0    0    0  501 -0.00000000000E+00 -0.00000000000E+00 -0.12756340649E+03  0.12756340652E+03  0.25500000000E-02 0. -1.
    5000001    1    1    2    0    0 -0.92632299065E+02  0.69063241013E+02  0.97387042463E+02  0.19739227474E+03  0.12700000000E+03 0.  0.
   -5000001    1    1    2    0    0  0.92632299065E+02 -0.69063241013E+02  0.17459753991E+02  0.17258133473E+03  0.12700000000E+03 0.  0.
<mgrwt>
<rscale>  0 0.35169687E+03</rscale>
<asrwt>0</asrwt>
<pdfrwt beam="1">  1        2 0.34630029E-01 0.35169687E+03</pdfrwt>
<pdfrwt beam="2">  1       -2 0.18223344E-01 0.35169687E+03</pdfrwt>
<totfact> 0.37047043E+03</totfact>
</mgrwt>
</event>
<event>
 4    1  0.1383574E-004  0.5267968E+03  0.7818608E-02  0.1007012E+00
         -2   -1    0    0    0  501 -0.00000000000E+00  0.00000000000E+00  0.11233343378E+03  0.11233343381E+03  0.25500000000E-02 0. -1.
          2   -1    0    0  501    0  0.00000000000E+00 -0.00000000000E+00 -0.61761422466E+03  0.61761422466E+03  0.25500000000E-02 0.  1.
    5000001    1    1    2    0    0  0.14561821370E+03 -0.16629710093E+03 -0.16082881256E+03  0.30142046528E+03  0.12700000000E+03 0.  0.
   -5000001    1    1    2    0    0 -0.14561821370E+03  0.16629710093E+03 -0.34445197832E+03  0.42852719320E+03  0.12700000000E+03 0.  0.
<mgrwt>
<rscale>  0 0.52679684E+03</rscale>
<asrwt>0</asrwt>
<pdfrwt beam="1">  1        2 0.88230602E-01 0.52679684E+03</pdfrwt>
<pdfrwt beam="2">  1       -2 0.16047634E-01 0.52679684E+03</pdfrwt>
<totfact> 0.16346129E+03</totfact>
</mgrwt>
</event>
<event>
 4    1  0.1383574E-004  0.4169925E+03  0.7818608E-02  0.1038050E+00
         -2   -1    0    0    0  501 -0.00000000000E+00  0.00000000000E+00  0.17490482235E+02  0.17490482420E+02  0.25500000000E-02 0. -1.
          2   -1    0    0  501    0  0.00000000000E+00 -0.00000000000E+00 -0.24853913266E+04  0.24853913266E+04  0.25500000000E-02 0.  1.
    5000001    1    1    2    0    0  0.50085747196E+02 -0.60083880327E+02 -0.35953895742E+03  0.38925045491E+03  0.12700000000E+03 0.  0.
   -5000001    1    1    2    0    0 -0.50085747196E+02  0.60083880327E+02 -0.21083618870E+04  0.21136313541E+04  0.12700000000E+03 0.  0.
<mgrwt>
<rscale>  0 0.41699253E+03</rscale>
<asrwt>0</asrwt>
<pdfrwt beam="1">  1        2 0.35505568E+00 0.41699253E+03</pdfrwt>
<pdfrwt beam="2">  1       -2 0.24986419E-02 0.41699253E+03</pdfrwt>
<totfact> 0.28120404E+03</totfact>
</mgrwt>
</event>
<event>
 4    1  0.1383574E-004  0.3851937E+03  0.7818608E-02  0.1049031E+00
         -2   -1    0    0    0  501 -0.00000000000E+00  0.00000000000E+00  0.73600444476E+02  0.73600444520E+02  0.25500000000E-02 0. -1.
          2   -1    0    0  501    0  0.00000000000E+00 -0.00000000000E+00 -0.50398531606E+03  0.50398531607E+03  0.25500000000E-02 0.  1.
    5000001    1    1    2    0    0 -0.12703852526E+03  0.82060226128E+01 -0.11175717884E+03  0.21171866410E+03  0.12700000000E+03 0.  0.
   -5000001    1    1    2    0    0  0.12703852526E+03 -0.82060226128E+01 -0.31862769274E+03  0.36586709648E+03  0.12700000000E+03 0.  0.
<mgrwt>
<rscale>  0 0.38519368E+03</rscale>
<asrwt>0</asrwt>
<pdfrwt beam="1">  1        2 0.71997901E-01 0.38519368E+03</pdfrwt>
<pdfrwt beam="2">  1       -2 0.10514349E-01 0.38519368E+03</pdfrwt>
<totfact> 0.41325008E+03</totfact>
</mgrwt>
</event>
<event>
 4    1  0.1383574E-004  0.2877348E+03  0.7818608E-02  0.1091538E+00
         -2   -1    0    0    0  501 -0.00000000000E+00  0.00000000000E+00  0.10978880425E+02  0.10978880721E+02  0.25500000000E-02 0. -1.
          2   -1    0    0  501    0  0.00000000000E+00 -0.00000000000E+00 -0.18852400763E+04  0.18852400763E+04  0.25500000000E-02 0.  1.
    5000001    1    1    2    0    0  0.66470053801E+02 -0.43701368124E+01 -0.86157056780E+03  0.87342441542E+03  0.12700000000E+03 0.  0.
   -5000001    1    1    2    0    0 -0.66470053801E+02  0.43701368124E+01 -0.10126906281E+04  0.10227945416E+04  0.12700000000E+03 0.  0.
<mgrwt>
<rscale>  0 0.28773478E+03</rscale>
<asrwt>0</asrwt>
<pdfrwt beam="1">  1        2 0.26931980E+00 0.28773478E+03</pdfrwt>
<pdfrwt beam="2">  1       -2 0.15684127E-02 0.28773478E+03</pdfrwt>
<totfact> 0.11117857E+04</totfact>
</mgrwt>
</event>
<event>
 4    1  0.1383574E-004  0.3536060E+03  0.7818608E-02  0.1061145E+00
         -2   -1    0    0    0  501 -0.00000000000E+00  0.00000000000E+00  0.18229087272E+02  0.18229087451E+02  0.25500000000E-02 0. -1.
          2   -1    0    0  501    0  0.00000000000E+00 -0.00000000000E+00 -0.17148037960E+04  0.17148037960E+04  0.25500000000E-02 0.  1.
    5000001    1    1    2    0    0 -0.77126115864E+02  0.54663741690E+02 -0.12339999447E+04  0.12441147158E+04  0.12700000000E+03 0.  0.
   -5000001    1    1    2    0    0  0.77126115864E+02 -0.54663741690E+02 -0.46257476404E+03  0.48891816772E+03  0.12700000000E+03 0.  0.
<mgrwt>
<rscale>  0 0.35360604E+03</rscale>
<asrwt>0</asrwt>
<pdfrwt beam="1">  1        2 0.24497187E+00 0.35360604E+03</pdfrwt>
<pdfrwt beam="2">  1       -2 0.26041564E-02 0.35360604E+03</pdfrwt>
<totfact> 0.63907264E+03</totfact>
</mgrwt>
</event>
<event>
 4    1  0.1383574E-004  0.7973353E+03  0.7818608E-02  0.9563882E-01
          2   -1    0    0  501    0  0.00000000000E+00  0.00000000000E+00  0.36520988900E+04  0.36520988900E+04  0.25500000000E-02 0.  1.
         -2   -1    0    0    0  501 -0.00000000000E+00 -0.00000000000E+00 -0.43519060940E+02  0.43519061015E+02  0.25500000000E-02 0. -1.
    5000001    1    1    2    0    0 -0.11162976857E+03 -0.35437562401E+03  0.14843894385E+04  0.15354427027E+04  0.12700000000E+03 0.  0.
   -5000001    1    1    2    0    0  0.11162976857E+03  0.35437562401E+03  0.21241903906E+04  0.21601752484E+04  0.12700000000E+03 0.  0.
<mgrwt>
<rscale>  0 0.79733535E+03</rscale>
<asrwt>0</asrwt>
<pdfrwt beam="1">  1        2 0.52172857E+00 0.79733535E+03</pdfrwt>
<pdfrwt beam="2">  1       -2 0.62170069E-02 0.79733535E+03</pdfrwt>
<totfact> 0.15118954E+02</totfact>
</mgrwt>
</event>
<event>
 4    1  0.1383574E-004  0.3785327E+03  0.7818608E-02  0.1051477E+00
         -2   -1    0    0    0  501 -0.00000000000E+00  0.00000000000E+00  0.59282417345E+02  0.59282417399E+02  0.25500000000E-02 0. -1.
          2   -1    0    0  501    0  0.00000000000E+00 -0.00000000000E+00 -0.60425602207E+03  0.60425602208E+03  0.25500000000E-02 0.  1.
    5000001    1    1    2    0    0  0.12770901041E+03 -0.93741538939E+01 -0.37311265449E+03  0.41441467040E+03  0.12700000000E+03 0.  0.
   -5000001    1    1    2    0    0 -0.12770901041E+03  0.93741538939E+01 -0.17186095024E+03  0.24912376907E+03  0.12700000000E+03 0.  0.
<mgrwt>
<rscale>  0 0.37853273E+03</rscale>
<asrwt>0</asrwt>
<pdfrwt beam="1">  1        2 0.86322286E-01 0.37853273E+03</pdfrwt>
<pdfrwt beam="2">  1       -2 0.84689171E-02 0.37853273E+03</pdfrwt>
<totfact> 0.47450378E+03</totfact>
</mgrwt>
</event>
<event>
 4    1  0.1383574E-004  0.4130995E+03  0.7818608E-02  0.1039336E+00
          2   -1    0    0  501    0  0.00000000000E+00  0.00000000000E+00  0.10838882272E+04  0.10838882272E+04  0.25500000000E-02 0.  1.
         -2   -1    0    0    0  501 -0.00000000000E+00 -0.00000000000E+00 -0.39360892554E+02  0.39360892636E+02  0.25500000000E-02 0. -1.
    5000001    1    1    2    0    0 -0.28187248911E+02  0.15599869067E+03  0.62413637349E+03  0.65635761990E+03  0.12700000000E+03 0.  0.
   -5000001    1    1    2    0    0  0.28187248911E+02 -0.15599869067E+03  0.42039096119E+03  0.46689149997E+03  0.12700000000E+03 0.  0.
<mgrwt>
<rscale>  0 0.41309954E+03</rscale>
<asrwt>0</asrwt>
<pdfrwt beam="1">  1        2 0.15484118E+00 0.41309954E+03</pdfrwt>
<pdfrwt beam="2">  1       -2 0.56229846E-02 0.41309954E+03</pdfrwt>
<totfact> 0.42789676E+03</totfact>
</mgrwt>
</event>
<event>
 4    1  0.1383574E-004  0.3416913E+03  0.7818608E-02  0.1066078E+00
          2   -1    0    0  501    0  0.00000000000E+00  0.00000000000E+00  0.27983293040E+03  0.27983293041E+03  0.25500000000E-02 0.  1.
         -2   -1    0    0    0  501 -0.00000000000E+00 -0.00000000000E+00 -0.10430594615E+03  0.10430594618E+03  0.25500000000E-02 0. -1.
    5000001    1    1    2    0    0 -0.99420537505E+02  0.55582449488E+02  0.77375079130E+02  0.18732259565E+03  0.12700000000E+03 0.  0.
   -5000001    1    1    2    0    0  0.99420537505E+02 -0.55582449488E+02  0.98151905119E+02  0.19681628095E+03  0.12700000000E+03 0.  0.
<mgrwt>
<rscale>  0 0.34169131E+03</rscale>
<asrwt>0</asrwt>
<pdfrwt beam="1">  1        2 0.39976133E-01 0.34169131E+03</pdfrwt>
<pdfrwt beam="2">  1       -2 0.14900849E-01 0.34169131E+03</pdfrwt>
<totfact> 0.44384256E+03</totfact>
</mgrwt>
</event>
<event>
 4    1  0.1383574E-004  0.3880418E+03  0.7818608E-02  0.1048001E+00
          2   -1    0    0  501    0  0.00000000000E+00  0.00000000000E+00  0.12189495680E+04  0.12189495680E+04  0.25500000000E-02 0.  1.
         -2   -1    0    0    0  501 -0.00000000000E+00 -0.00000000000E+00 -0.30882421881E+02  0.30882421987E+02  0.25500000000E-02 0. -1.
    5000001    1    1    2    0    0  0.26413182378E+02  0.53931075157E+02  0.16300354682E+03  0.21518683358E+03  0.12700000000E+03 0.  0.
   -5000001    1    1    2    0    0 -0.26413182378E+02 -0.53931075157E+02  0.10250635993E+04  0.10346451564E+04  0.12700000000E+03 0.  0.
<mgrwt>
<rscale>  0 0.38804183E+03</rscale>
<asrwt>0</asrwt>
<pdfrwt beam="1">  1        2 0.17413566E+00 0.38804183E+03</pdfrwt>
<pdfrwt beam="2">  1       -2 0.44117745E-02 0.38804183E+03</pdfrwt>
<totfact> 0.52118996E+03</totfact>
</mgrwt>
</event>
<event>
 4    1  0.1383574E-004  0.3849153E+03  0.7818608E-02  0.1049132E+00
         -2   -1    0    0    0  501 -0.00000000000E+00  0.00000000000E+00  0.45537600069E+03  0.45537600070E+03  0.25500000000E-02 0. -1.
          2   -1    0    0  501    0  0.00000000000E+00 -0.00000000000E+00 -0.81339265585E+02  0.81339265625E+02  0.25500000000E-02 0.  1.
    5000001    1    1    2    0    0  0.10726429421E+03 -0.61854953721E+02  0.29117047149E+03  0.34094120839E+03  0.12700000000E+03 0.  0.
   -5000001    1    1    2    0    0 -0.10726429421E+03  0.61854953721E+02  0.82866263621E+02  0.19577405793E+03  0.12700000000E+03 0.  0.
<mgrwt>
<rscale>  0 0.38491531E+03</rscale>
<asrwt>0</asrwt>
<pdfrwt beam="1">  1        2 0.11619895E-01 0.38491531E+03</pdfrwt>
<pdfrwt beam="2">  1       -2 0.65053713E-01 0.38491531E+03</pdfrwt>
<totfact> 0.11948224E+03</totfact>
</mgrwt>
</event>
<event>
 4    1  0.1383574E-004  0.7245884E+03  0.7818608E-02  0.9676083E-01
         -2   -1    0    0    0  501 -0.00000000000E+00  0.00000000000E+00  0.76419351277E+02  0.76419351320E+02  0.25500000000E-02 0. -1.
          2   -1    0    0  501    0  0.00000000000E+00 -0.00000000000E+00 -0.17175898195E+04  0.17175898195E+04  0.25500000000E-02 0.  1.
    5000001    1    1    2    0    0  0.14175182603E+03  0.28330855105E+03 -0.11214941405E+04  0.11722778777E+04  0.12700000000E+03 0.  0.
   -5000001    1    1    2    0    0 -0.14175182603E+03 -0.28330855105E+03 -0.51967632764E+03  0.62173129308E+03  0.12700000000E+03 0.  0.
<mgrwt>
<rscale>  0 0.72458843E+03</rscale>
<asrwt>0</asrwt>
<pdfrwt beam="1">  1        2 0.24536995E+00 0.72458843E+03</pdfrwt>
<pdfrwt beam="2">  1       -2 0.10917051E-01 0.72458843E+03</pdfrwt>
<totfact> 0.67797221E+02</totfact>
</mgrwt>
</event>
<event>
 4    1  0.1383574E-004  0.6050248E+03  0.7818608E-02  0.9895036E-01
          2   -1    0    0  501    0  0.00000000000E+00  0.00000000000E+00  0.50125128314E+03  0.50125128315E+03  0.25500000000E-02 0.  1.
         -2   -1    0    0    0  501 -0.00000000000E+00 -0.00000000000E+00 -0.18257062543E+03  0.18257062544E+03  0.25500000000E-02 0. -1.
    5000001    1    1    2    0    0  0.14783793539E+03  0.21073352773E+03  0.51403596132E+02  0.29160933549E+03  0.12700000000E+03 0.  0.
   -5000001    1    1    2    0    0 -0.14783793539E+03 -0.21073352773E+03  0.26727706158E+03  0.39221257310E+03  0.12700000000E+03 0.  0.
<mgrwt>
<rscale>  0 0.60502483E+03</rscale>
<asrwt>0</asrwt>
<pdfrwt beam="1">  1        2 0.71607327E-01 0.60502483E+03</pdfrwt>
<pdfrwt beam="2">  1       -2 0.26081518E-01 0.60502483E+03</pdfrwt>
<totfact> 0.89097853E+02</totfact>
</mgrwt>
</event>
<event>
 4    1  0.1383574E-004  0.3800390E+03  0.7818608E-02  0.1050919E+00
          2   -1    0    0  501    0  0.00000000000E+00  0.00000000000E+00  0.20785625221E+04  0.20785625221E+04  0.25500000000E-02 0.  1.
         -2   -1    0    0    0  501 -0.00000000000E+00 -0.00000000000E+00 -0.17371334563E+02  0.17371334750E+02  0.25500000000E-02 0. -1.
    5000001    1    1    2    0    0 -0.10892379952E+03  0.54657936145E+02  0.14254716605E+04  0.14362974410E+04  0.12700000000E+03 0.  0.
   -5000001    1    1    2    0    0  0.10892379952E+03 -0.54657936145E+02  0.63571952707E+03  0.65963641590E+03  0.12700000000E+03 0.  0.
<mgrwt>
<rscale>  0 0.38003897E+03</rscale>
<asrwt>0</asrwt>
<pdfrwt beam="1">  1        2 0.29693753E+00 0.38003897E+03</pdfrwt>
<pdfrwt beam="2">  1       -2 0.24816190E-02 0.38003897E+03</pdfrwt>
<totfact> 0.45391914E+03</totfact>
</mgrwt>
</event>
<event>
 4    1  0.1383574E-004  0.1085934E+04  0.7818608E-02  0.9219011E-01
         -2   -1    0    0    0  501 -0.00000000000E+00  0.00000000000E+00  0.19073460061E+03  0.19073460063E+03  0.25500000000E-02 0. -1.
          2   -1    0    0  501    0  0.00000000000E+00 -0.00000000000E+00 -0.15456712838E+04  0.15456712838E+04  0.25500000000E-02 0.  1.
    5000001    1    1    2    0    0 -0.80053460320E+02  0.52169885050E+03 -0.69391144545E+03  0.88103367771E+03  0.12700000000E+03 0.  0.
   -5000001    1    1    2    0    0  0.80053460320E+02 -0.52169885050E+03 -0.66102523777E+03  0.85537220676E+03  0.12700000000E+03 0.  0.
<mgrwt>
<rscale>  0 0.10859337E+04</rscale>
<asrwt>0</asrwt>
<pdfrwt beam="1">  1        2 0.22081018E+00 0.10859337E+04</pdfrwt>
<pdfrwt beam="2">  1       -2 0.27247801E-01 0.10859337E+04</pdfrwt>
<totfact> 0.16807667E+02</totfact>
</mgrwt>
</event>
<event>
 4    1  0.1383574E-004  0.5781931E+03  0.7818608E-02  0.9951711E-01
          2   -1    0    0  501    0  0.00000000000E+00  0.00000000000E+00  0.20372384292E+04  0.20372384292E+04  0.25500000000E-02 0.  1.
         -2   -1    0    0    0  501 -0.00000000000E+00 -0.00000000000E+00 -0.41024559352E+02  0.41024559431E+02  0.25500000000E-02 0. -1.
    5000001    1    1    2    0    0 -0.19884637331E+03 -0.16242394848E+03  0.11385370757E+04  0.11740175007E+04  0.12700000000E+03 0.  0.
   -5000001    1    1    2    0    0  0.19884637331E+03  0.16242394848E+03  0.85767679417E+03  0.90424548794E+03  0.12700000000E+03 0.  0.
<mgrwt>
<rscale>  0 0.57819308E+03</rscale>
<asrwt>0</asrwt>
<pdfrwt beam="1">  1        2 0.29103406E+00 0.57819308E+03</pdfrwt>
<pdfrwt beam="2">  1       -2 0.58606514E-02 0.57819308E+03</pdfrwt>
<totfact> 0.12730485E+03</totfact>
</mgrwt>
</event>
<event>
 4    1  0.1383574E-004  0.2712238E+03  0.7818608E-02  0.1100581E+00
         -2   -1    0    0    0  501 -0.00000000000E+00  0.00000000000E+00  0.77439794411E+01  0.77439798610E+01  0.25500000000E-02 0. -1.
          2   -1    0    0  501    0  0.00000000000E+00 -0.00000000000E+00 -0.23748231694E+04  0.23748231694E+04  0.25500000000E-02 0.  1.
    5000001    1    1    2    0    0  0.21379891599E+02 -0.40242029158E+02 -0.10640374775E+04  0.10725582848E+04  0.12700000000E+03 0.  0.
   -5000001    1    1    2    0    0 -0.21379891599E+02  0.40242029158E+02 -0.13030417125E+04  0.13100088645E+04  0.12700000000E+03 0.  0.
<mgrwt>
<rscale>  0 0.27122376E+03</rscale>
<asrwt>0</asrwt>
<pdfrwt beam="1">  1        2 0.33925999E+00 0.27122376E+03</pdfrwt>
<pdfrwt beam="2">  1       -2 0.11062843E-02 0.27122376E+03</pdfrwt>
<totfact> 0.10648091E+04</totfact>
</mgrwt>
</event>
<event>
 4    1  0.1383574E-004  0.4186259E+03  0.7818608E-02  0.1037514E+00
          2   -1    0    0  501    0  0.00000000000E+00  0.00000000000E+00  0.76472584598E+03  0.76472584598E+03  0.25500000000E-02 0.  1.
         -2   -1    0    0    0  501 -0.00000000000E+00 -0.00000000000E+00 -0.57290993685E+02  0.57290993742E+02  0.25500000000E-02 0. -1.
    5000001    1    1    2    0    0 -0.10239936926E+03  0.12941841122E+03  0.31214884325E+03  0.37523413534E+03  0.12700000000E+03 0.  0.
   -5000001    1    1    2    0    0  0.10239936926E+03 -0.12941841122E+03  0.39528600904E+03  0.44678270438E+03  0.12700000000E+03 0.  0.
<mgrwt>
<rscale>  0 0.41862586E+03</rscale>
<asrwt>0</asrwt>
<pdfrwt beam="1">  1        2 0.10924655E+00 0.41862586E+03</pdfrwt>
<pdfrwt beam="2">  1       -2 0.81844276E-02 0.41862586E+03</pdfrwt>
<totfact> 0.37850430E+03</totfact>
</mgrwt>
</event>
<event>
 4    1  0.1383574E-004  0.4606002E+03  0.7818608E-02  0.1024607E+00
         -2   -1    0    0    0  501 -0.00000000000E+00  0.00000000000E+00  0.35885475324E+02  0.35885475415E+02  0.25500000000E-02 0.  1.
          2   -1    0    0  501    0  0.00000000000E+00 -0.00000000000E+00 -0.14779831355E+04  0.14779831355E+04  0.25500000000E-02 0. -1.
    5000001    1    1    2    0    0  0.16305697915E+03  0.84768644982E+02 -0.90510062668E+03  0.93226039605E+03  0.12700000000E+03 0.  0.
   -5000001    1    1    2    0    0 -0.16305697915E+03 -0.84768644982E+02 -0.53699703352E+03  0.58160821490E+03  0.12700000000E+03 0.  0.
<mgrwt>
<rscale>  0 0.46060016E+03</rscale>
<asrwt>0</asrwt>
<pdfrwt beam="1">  1        2 0.21114041E+00 0.46060016E+03</pdfrwt>
<pdfrwt beam="2">  1       -2 0.51264974E-02 0.46060016E+03</pdfrwt>
<totfact> 0.30175553E+03</totfact>
</mgrwt>
</event>
<event>
 4    1  0.1383574E-004  0.3261472E+03  0.7818608E-02  0.1072854E+00
         -2   -1    0    0    0  501 -0.00000000000E+00  0.00000000000E+00  0.87537057362E+01  0.87537061076E+01  0.25500000000E-02 0. -1.
          2   -1    0    0  501    0  0.00000000000E+00 -0.00000000000E+00 -0.30379126439E+04  0.30379126439E+04  0.25500000000E-02 0.  1.
    5000001    1    1    2    0    0 -0.31732069854E+02 -0.84998208804E+02 -0.19559413029E+04  0.19621587602E+04  0.12700000000E+03 0.  0.
   -5000001    1    1    2    0    0  0.31732069854E+02  0.84998208804E+02 -0.10732176353E+04  0.10845075898E+04  0.12700000000E+03 0.  0.
<mgrwt>
<rscale>  0 0.32614717E+03</rscale>
<asrwt>0</asrwt>
<pdfrwt beam="1">  1        2 0.43398685E+00 0.32614717E+03</pdfrwt>
<pdfrwt beam="2">  1       -2 0.12505314E-02 0.32614717E+03</pdfrwt>
<totfact> 0.40674640E+03</totfact>
</mgrwt>
</event>
<event>
 4    1  0.1383574E-004  0.3890832E+03  0.7818608E-02  0.1047627E+00
          2   -1    0    0  501    0  0.00000000000E+00  0.00000000000E+00  0.29093002992E+02  0.29093003103E+02  0.25500000000E-02 0.  1.
         -2   -1    0    0    0  501 -0.00000000000E+00 -0.00000000000E+00 -0.13008778060E+04  0.13008778060E+04  0.25500000000E-02 0. -1.
    5000001    1    1    2    0    0  0.52351421256E+02 -0.13100381378E+03 -0.49027591319E+03  0.52573961387E+03  0.12700000000E+03 0.  0.
   -5000001    1    1    2    0    0 -0.52351421256E+02  0.13100381378E+03 -0.78150888984E+03  0.80423119526E+03  0.12700000000E+03 0.  0.
<mgrwt>
<rscale>  0 0.38908324E+03</rscale>
<asrwt>0</asrwt>
<pdfrwt beam="1">  1        2 0.41561441E-02 0.38908324E+03</pdfrwt>
<pdfrwt beam="2">  1       -2 0.18583965E+00 0.38908324E+03</pdfrwt>
<totfact> 0.35924313E+02</totfact>
</mgrwt>
</event>
<event>
 4    1  0.1383574E-004  0.3504471E+03  0.7818608E-02  0.1062432E+00
         -2   -1    0    0    0  501 -0.00000000000E+00  0.00000000000E+00  0.17995963392E+02  0.17995963573E+02  0.25500000000E-02 0. -1.
          2   -1    0    0  501    0  0.00000000000E+00 -0.00000000000E+00 -0.17061213519E+04  0.17061213519E+04  0.25500000000E-02 0.  1.
    5000001    1    1    2    0    0  0.46227142220E+02  0.95115276362E+02 -0.11305279101E+04  0.11425437497E+04  0.12700000000E+03 0.  0.
   -5000001    1    1    2    0    0 -0.46227142220E+02 -0.95115276362E+02 -0.55759747841E+03  0.58157356577E+03  0.12700000000E+03 0.  0.
<mgrwt>
<rscale>  0 0.35044713E+03</rscale>
<asrwt>0</asrwt>
<pdfrwt beam="1">  1        2 0.24373152E+00 0.35044713E+03</pdfrwt>
<pdfrwt beam="2">  1       -2 0.25708530E-02 0.35044713E+03</pdfrwt>
<totfact> 0.65793750E+03</totfact>
</mgrwt>
</event>
<event>
 4    1  0.1383574E-004  0.2734751E+03  0.7818608E-02  0.1099307E+00
          2   -1    0    0  501    0  0.00000000000E+00  0.00000000000E+00  0.12358300178E+03  0.12358300181E+03  0.25500000000E-02 0.  1.
         -2   -1    0    0    0  501 -0.00000000000E+00 -0.00000000000E+00 -0.15129235311E+03  0.15129235313E+03  0.25500000000E-02 0. -1.
    5000001    1    1    2    0    0  0.74867947414E+01 -0.39173592212E+02  0.17571054656E+02  0.13426974486E+03  0.12700000000E+03 0.  0.
   -5000001    1    1    2    0    0 -0.74867947414E+01  0.39173592212E+02 -0.45280405985E+02  0.14060561009E+03  0.12700000000E+03 0.  0.
<mgrwt>
<rscale>  0 0.27347514E+03</rscale>
<asrwt>0</asrwt>
<pdfrwt beam="1">  1        2 0.17654715E-01 0.27347514E+03</pdfrwt>
<pdfrwt beam="2">  1       -2 0.21613193E-01 0.27347514E+03</pdfrwt>
<totfact> 0.58544705E+03</totfact>
</mgrwt>
</event>
<event>
 4    1  0.1383574E-004  0.3998453E+03  0.7818608E-02  0.1043833E+00
          2   -1    0    0  501    0  0.00000000000E+00  0.00000000000E+00  0.11928439188E+04  0.11928439188E+04  0.25500000000E-02 0.  1.
         -2   -1    0    0    0  501 -0.00000000000E+00 -0.00000000000E+00 -0.33507370676E+02  0.33507370773E+02  0.25500000000E-02 0. -1.
    5000001    1    1    2    0    0 -0.10037537151E+03 -0.10961512898E+03  0.45138679492E+03  0.49190418817E+03  0.12700000000E+03 0.  0.
   -5000001    1    1    2    0    0  0.10037537151E+03  0.10961512898E+03  0.70794975321E+03  0.73444710142E+03  0.12700000000E+03 0.  0.
<mgrwt>
<rscale>  0 0.39984529E+03</rscale>
<asrwt>0</asrwt>
<pdfrwt beam="1">  1        2 0.17040626E+00 0.39984529E+03</pdfrwt>
<pdfrwt beam="2">  1       -2 0.47867676E-02 0.39984529E+03</pdfrwt>
<totfact> 0.47568673E+03</totfact>
</mgrwt>
</event>
<event>
 4    1  0.1383574E-004  0.3354151E+03  0.7818608E-02  0.1068766E+00
         -2   -1    0    0    0  501 -0.00000000000E+00  0.00000000000E+00  0.92486064960E+01  0.92486068475E+01  0.25500000000E-02 0. -1.
          2   -1    0    0  501    0  0.00000000000E+00 -0.00000000000E+00 -0.30410882744E+04  0.30410882744E+04  0.25500000000E-02 0.  1.
    5000001    1    1    2    0    0  0.10182530384E+03  0.12010640407E+02 -0.11655645896E+04  0.11769377471E+04  0.12700000000E+03 0.  0.
   -5000001    1    1    2    0    0 -0.10182530384E+03 -0.12010640407E+02 -0.18662750783E+04  0.18733991342E+04  0.12700000000E+03 0.  0.
<mgrwt>
<rscale>  0 0.33541514E+03</rscale>
<asrwt>0</asrwt>
<pdfrwt beam="1">  1        2 0.43444054E+00 0.33541514E+03</pdfrwt>
<pdfrwt beam="2">  1       -2 0.13212315E-02 0.33541514E+03</pdfrwt>
<totfact> 0.37352975E+03</totfact>
</mgrwt>
</event>
<event>
 4    1  0.1383574E-004  0.3331648E+03  0.7818608E-02  0.1069745E+00
         -2   -1    0    0    0  501 -0.00000000000E+00  0.00000000000E+00  0.22442169263E+02  0.22442169407E+02  0.25500000000E-02 0.  1.
          2   -1    0    0  501    0  0.00000000000E+00 -0.00000000000E+00 -0.12364976240E+04  0.12364976240E+04  0.25500000000E-02 0. -1.
    5000001    1    1    2    0    0  0.61031480984E+02 -0.69329883762E+02 -0.39700323438E+03  0.42693329990E+03  0.12700000000E+03 0.  0.
   -5000001    1    1    2    0    0 -0.61031480984E+02  0.69329883762E+02 -0.81705222031E+03  0.83200649346E+03  0.12700000000E+03 0.  0.
<mgrwt>
<rscale>  0 0.33316476E+03</rscale>
<asrwt>0</asrwt>
<pdfrwt beam="1">  1        2 0.17664247E+00 0.33316476E+03</pdfrwt>
<pdfrwt beam="2">  1       -2 0.32060250E-02 0.33316476E+03</pdfrwt>
<totfact> 0.82432608E+03</totfact>
</mgrwt>
</event>
<event>
 4    1  0.1383574E-004  0.4053899E+03  0.7818608E-02  0.1041929E+00
          2   -1    0    0  501    0  0.00000000000E+00  0.00000000000E+00  0.10334599562E+04  0.10334599562E+04  0.25500000000E-02 0.  1.
         -2   -1    0    0    0  501 -0.00000000000E+00 -0.00000000000E+00 -0.39755041417E+02  0.39755041499E+02  0.25500000000E-02 0. -1.
    5000001    1    1    2    0    0 -0.14011685262E+03 -0.35508546289E+02  0.66559272450E+03  0.69284649393E+03  0.12700000000E+03 0.  0.
   -5000001    1    1    2    0    0  0.14011685262E+03  0.35508546289E+02  0.32811219027E+03  0.38036850376E+03  0.12700000000E+03 0.  0.
<mgrwt>
<rscale>  0 0.40538990E+03</rscale>
<asrwt>0</asrwt>
<pdfrwt beam="1">  1        2 0.14763713E+00 0.40538990E+03</pdfrwt>
<pdfrwt beam="2">  1       -2 0.56792920E-02 0.40538990E+03</pdfrwt>
<totfact> 0.45080900E+03</totfact>
</mgrwt>
</event>
<event>
 4    1  0.1383574E-004  0.4946354E+03  0.7818608E-02  0.1015189E+00
          2   -1    0    0  501    0  0.00000000000E+00  0.00000000000E+00  0.11612706430E+04  0.11612706430E+04  0.25500000000E-02 0.  1.
         -2   -1    0    0    0  501 -0.00000000000E+00 -0.00000000000E+00 -0.52671653498E+02  0.52671653559E+02  0.25500000000E-02 0. -1.
    5000001    1    1    2    0    0 -0.12273259790E+01 -0.20968423334E+03  0.63450623416E+03  0.68021771899E+03  0.12700000000E+03 0.  0.
   -5000001    1    1    2    0    0  0.12273259790E+01  0.20968423334E+03  0.47409275538E+03  0.53372457761E+03  0.12700000000E+03 0.  0.
<mgrwt>
<rscale>  0 0.49463540E+03</rscale>
<asrwt>0</asrwt>
<pdfrwt beam="1">  1        2 0.16589580E+00 0.49463540E+03</pdfrwt>
<pdfrwt beam="2">  1       -2 0.75245222E-02 0.49463540E+03</pdfrwt>
<totfact> 0.24532462E+03</totfact>
</mgrwt>
</event>
<event>
 4    1  0.1383574E-004  0.5700828E+03  0.7818608E-02  0.9969495E-01
         -2   -1    0    0    0  501 -0.00000000000E+00  0.00000000000E+00  0.19075090105E+03  0.19075090106E+03  0.25500000000E-02 0. -1.
          2   -1    0    0  501    0  0.00000000000E+00 -0.00000000000E+00 -0.42594091185E+03  0.42594091186E+03  0.25500000000E-02 0.  1.
    5000001    1    1    2    0    0 -0.12919301720E+03 -0.20865319427E+03 -0.19326104834E+03  0.33720294183E+03  0.12700000000E+03 0.  0.
   -5000001    1    1    2    0    0  0.12919301720E+03  0.20865319427E+03 -0.41928962464E+02  0.27948887109E+03  0.12700000000E+03 0.  0.
<mgrwt>
<rscale>  0 0.57008285E+03</rscale>
<asrwt>0</asrwt>
<pdfrwt beam="1">  1        2 0.60848701E-01 0.57008285E+03</pdfrwt>
<pdfrwt beam="2">  1       -2 0.27250129E-01 0.57008285E+03</pdfrwt>
<totfact> 0.98885632E+02</totfact>
</mgrwt>
</event>
<event>
 4    1  0.1383574E-004  0.3787970E+03  0.7818608E-02  0.1051379E+00
          2   -1    0    0  501    0  0.00000000000E+00  0.00000000000E+00  0.17092354185E+04  0.17092354185E+04  0.25500000000E-02 0.  1.
         -2   -1    0    0    0  501 -0.00000000000E+00 -0.00000000000E+00 -0.20987037376E+02  0.20987037531E+02  0.25500000000E-02 0. -1.
    5000001    1    1    2    0    0  0.13963478648E+03 -0.10386577003E+02  0.89759395739E+03  0.91728385297E+03  0.12700000000E+03 0.  0.
   -5000001    1    1    2    0    0 -0.13963478648E+03  0.10386577003E+02  0.79065442375E+03  0.81293860308E+03  0.12700000000E+03 0.  0.
<mgrwt>
<rscale>  0 0.37879698E+03</rscale>
<asrwt>0</asrwt>
<pdfrwt beam="1">  1        2 0.24417649E+00 0.37879698E+03</pdfrwt>
<pdfrwt beam="2">  1       -2 0.29981482E-02 0.37879698E+03</pdfrwt>
<totfact> 0.52101587E+03</totfact>
</mgrwt>
</event>
<event>
 4    1  0.1383574E-004  0.4988469E+03  0.7818608E-02  0.1014080E+00
          2   -1    0    0  501    0  0.00000000000E+00  0.00000000000E+00  0.28908248448E+04  0.28908248448E+04  0.25500000000E-02 0.  1.
         -2   -1    0    0    0  501 -0.00000000000E+00 -0.00000000000E+00 -0.21520520589E+02  0.21520520740E+02  0.25500000000E-02 0. -1.
    5000001    1    1    2    0    0 -0.11785720479E+03 -0.37399278494E+02  0.24591448446E+04  0.24655245676E+04  0.12700000000E+03 0.  0.
   -5000001    1    1    2    0    0  0.11785720479E+03  0.37399278494E+02  0.41015947964E+03  0.44682079796E+03  0.12700000000E+03 0.  0.
<mgrwt>
<rscale>  0 0.49884689E+03</rscale>
<asrwt>0</asrwt>
<pdfrwt beam="1">  1        2 0.41297513E+00 0.49884689E+03</pdfrwt>
<pdfrwt beam="2">  1       -2 0.30743590E-02 0.49884689E+03</pdfrwt>
<totfact> 0.12608834E+03</totfact>
</mgrwt>
</event>
<event>
 4    1  0.1383574E-004  0.3860619E+03  0.7818608E-02  0.1048716E+00
          2   -1    0    0  501    0  0.00000000000E+00  0.00000000000E+00  0.92186128546E+03  0.92186128546E+03  0.25500000000E-02 0.  1.
         -2   -1    0    0    0  501 -0.00000000000E+00 -0.00000000000E+00 -0.40419246586E+02  0.40419246666E+02  0.25500000000E-02 0. -1.
    5000001    1    1    2    0    0 -0.89798403534E+02  0.10101546961E+03  0.57411489343E+03  0.60332809419E+03  0.12700000000E+03 0.  0.
   -5000001    1    1    2    0    0  0.89798403534E+02 -0.10101546961E+03  0.30732714544E+03  0.35895243794E+03  0.12700000000E+03 0.  0.
<mgrwt>
<rscale>  0 0.38606185E+03</rscale>
<asrwt>0</asrwt>
<pdfrwt beam="1">  1        2 0.13169446E+00 0.38606185E+03</pdfrwt>
<pdfrwt beam="2">  1       -2 0.57741787E-02 0.38606185E+03</pdfrwt>
<totfact> 0.51324056E+03</totfact>
</mgrwt>
</event>
<event>
 4    1  0.1383574E-004  0.3622736E+03  0.7818608E-02  0.1057687E+00
         -2   -1    0    0    0  501 -0.00000000000E+00  0.00000000000E+00  0.68554272178E+02  0.68554272225E+02  0.25500000000E-02 0. -1.
          2   -1    0    0  501    0  0.00000000000E+00 -0.00000000000E+00 -0.47860690217E+03  0.47860690218E+03  0.25500000000E-02 0.  1.
    5000001    1    1    2    0    0 -0.61126909151E+02 -0.10741406659E+03 -0.26168504142E+03  0.31604167704E+03  0.12700000000E+03 0.  0.
   -5000001    1    1    2    0    0  0.61126909151E+02  0.10741406659E+03 -0.14836758858E+03  0.23111949737E+03  0.12700000000E+03 0.  0.
<mgrwt>
<rscale>  0 0.36227364E+03</rscale>
<asrwt>0</asrwt>
<pdfrwt beam="1">  1        2 0.68372412E-01 0.36227364E+03</pdfrwt>
<pdfrwt beam="2">  1       -2 0.97934678E-02 0.36227364E+03</pdfrwt>
<totfact> 0.48995494E+03</totfact>
</mgrwt>
</event>
<event>
 4    1  0.1383574E-004  0.2914895E+03  0.7818608E-02  0.1089574E+00
          2   -1    0    0  501    0  0.00000000000E+00  0.00000000000E+00  0.42007330764E+03  0.42007330764E+03  0.25500000000E-02 0.  1.
         -2   -1    0    0    0  501 -0.00000000000E+00 -0.00000000000E+00 -0.50566248226E+02  0.50566248291E+02  0.25500000000E-02 0. -1.
    5000001    1    1    2    0    0  0.32801076925E+02 -0.55601681240E+02  0.13511735242E+03  0.19634957736E+03  0.12700000000E+03 0.  0.
   -5000001    1    1    2    0    0 -0.32801076925E+02  0.55601681240E+02  0.23438970699E+03  0.27428997857E+03  0.12700000000E+03 0.  0.
<mgrwt>
<rscale>  0 0.29148949E+03</rscale>
<asrwt>0</asrwt>
<pdfrwt beam="1">  1        2 0.60010468E-01 0.29148949E+03</pdfrwt>
<pdfrwt beam="2">  1       -2 0.72237503E-02 0.29148949E+03</pdfrwt>
<totfact> 0.90713904E+03</totfact>
</mgrwt>
</event>
<event>
 4    1  0.1383574E-004  0.5964958E+03  0.7818608E-02  0.9912703E-01
         -2   -1    0    0    0  501 -0.00000000000E+00  0.00000000000E+00  0.17086005967E+03  0.17086005969E+03  0.25500000000E-02 0. -1.
          2   -1    0    0  501    0  0.00000000000E+00 -0.00000000000E+00 -0.52061202612E+03  0.52061202612E+03  0.25500000000E-02 0.  1.
    5000001    1    1    2    0    0 -0.17882341840E+03 -0.92665797639E+01 -0.40891036701E+03  0.46411245698E+03  0.12700000000E+03 0.  0.
   -5000001    1    1    2    0    0  0.17882341840E+03  0.92665797639E+01  0.59158400568E+02  0.22735962884E+03  0.12700000000E+03 0.  0.
<mgrwt>
<rscale>  0 0.59649577E+03</rscale>
<asrwt>0</asrwt>
<pdfrwt beam="1">  1        2 0.74373146E-01 0.59649577E+03</pdfrwt>
<pdfrwt beam="2">  1       -2 0.24408580E-01 0.59649577E+03</pdfrwt>
<totfact> 0.96136258E+02</totfact>
</mgrwt>
</event>
<event>
 4    1  0.1383574E-004  0.2932034E+03  0.7818608E-02  0.1088688E+00
          2   -1    0    0  501    0  0.00000000000E+00  0.00000000000E+00  0.67192513831E+03  0.67192513832E+03  0.25500000000E-02 0.  1.
         -2   -1    0    0    0  501 -0.00000000000E+00 -0.00000000000E+00 -0.31985792357E+02  0.31985792458E+02  0.25500000000E-02 0. -1.
    5000001    1    1    2    0    0  0.65758161099E+02 -0.61446711200E+01  0.39593258354E+03  0.42101484944E+03  0.12700000000E+03 0.  0.
   -5000001    1    1    2    0    0 -0.65758161099E+02  0.61446711200E+01  0.24400676241E+03  0.28289608134E+03  0.12700000000E+03 0.  0.
<mgrwt>
<rscale>  0 0.29320340E+03</rscale>
<asrwt>0</asrwt>
<pdfrwt beam="1">  1        2 0.95989300E-01 0.29320340E+03</pdfrwt>
<pdfrwt beam="2">  1       -2 0.45693992E-02 0.29320340E+03</pdfrwt>
<totfact> 0.10807250E+04</totfact>
</mgrwt>
</event>
<event>
 4    1  0.1383574E-004  0.5614334E+03  0.7818608E-02  0.9988816E-01
          2   -1    0    0  501    0  0.00000000000E+00  0.00000000000E+00  0.20131651202E+03  0.20131651204E+03  0.25500000000E-02 0.  1.
         -2   -1    0    0    0  501 -0.00000000000E+00 -0.00000000000E+00 -0.39143276541E+03  0.39143276542E+03  0.25500000000E-02 0. -1.
    5000001    1    1    2    0    0 -0.22339078088E+03 -0.97455964986E+01 -0.21391861427E+03  0.33449752041E+03  0.12700000000E+03 0.  0.
   -5000001    1    1    2    0    0  0.22339078088E+03  0.97455964986E+01  0.23802360880E+02  0.25825175704E+03  0.12700000000E+03 0.  0.
<mgrwt>
<rscale>  0 0.56143345E+03</rscale>
<asrwt>0</asrwt>
<pdfrwt beam="1">  1        2 0.28759502E-01 0.56143345E+03</pdfrwt>
<pdfrwt beam="2">  1       -2 0.55918966E-01 0.56143345E+03</pdfrwt>
<totfact> 0.56493141E+02</totfact>
</mgrwt>
</event>
<event>
 4    1  0.1383574E-004  0.4390103E+03  0.7818608E-02  0.1031051E+00
          2   -1    0    0  501    0  0.00000000000E+00  0.00000000000E+00  0.19856202898E+04  0.19856202898E+04  0.25500000000E-02 0.  1.
         -2   -1    0    0    0  501 -0.00000000000E+00 -0.00000000000E+00 -0.24265722092E+02  0.24265722226E+02  0.25500000000E-02 0. -1.
    5000001    1    1    2    0    0  0.10311919921E+03 -0.14622702877E+03  0.10087493108E+04  0.10323371955E+04  0.12700000000E+03 0.  0.
   -5000001    1    1    2    0    0 -0.10311919921E+03  0.14622702877E+03  0.95260525690E+03  0.97754881651E+03  0.12700000000E+03 0.  0.
<mgrwt>
<rscale>  0 0.43901030E+03</rscale>
<asrwt>0</asrwt>
<pdfrwt beam="1">  1        2 0.28366006E+00 0.43901030E+03</pdfrwt>
<pdfrwt beam="2">  1       -2 0.34665315E-02 0.43901030E+03</pdfrwt>
<totfact> 0.30479315E+03</totfact>
</mgrwt>
</event>
<event>
 4    1  0.1383574E-004  0.3546204E+03  0.7818608E-02  0.1060734E+00
         -2   -1    0    0    0  501 -0.00000000000E+00  0.00000000000E+00  0.14368258273E+03  0.14368258276E+03  0.25500000000E-02 0. -1.
          2   -1    0    0  501    0  0.00000000000E+00 -0.00000000000E+00 -0.21880808099E+03  0.21880808101E+03  0.25500000000E-02 0.  1.
    5000001    1    1    2    0    0 -0.10561701315E+03 -0.28568138165E+02  0.21502151222E+02  0.16900424401E+03  0.12700000000E+03 0.  0.
   -5000001    1    1    2    0    0  0.10561701315E+03  0.28568138165E+02 -0.96627649482E+02  0.19348641976E+03  0.12700000000E+03 0.  0.
<mgrwt>
<rscale>  0 0.35462042E+03</rscale>
<asrwt>0</asrwt>
<pdfrwt beam="1">  1        2 0.31258297E-01 0.35462042E+03</pdfrwt>
<pdfrwt beam="2">  1       -2 0.20526083E-01 0.35462042E+03</pdfrwt>
<totfact> 0.33821538E+03</totfact>
</mgrwt>
</event>
<event>
 4    1  0.1383574E-004  0.4422041E+03  0.7818608E-02  0.1030073E+00
         -2   -1    0    0    0  501 -0.00000000000E+00  0.00000000000E+00  0.19545247036E+03  0.19545247038E+03  0.25500000000E-02 0. -1.
          2   -1    0    0  501    0  0.00000000000E+00 -0.00000000000E+00 -0.25011761640E+03  0.25011761641E+03  0.25500000000E-02 0.  1.
    5000001    1    1    2    0    0 -0.39707873579E+02  0.10205204082E+03  0.11786767116E+03  0.20497102762E+03  0.12700000000E+03 0.  0.
   -5000001    1    1    2    0    0  0.39707873579E+02 -0.10205204082E+03 -0.17253281720E+03  0.24059905916E+03  0.12700000000E+03 0.  0.
<mgrwt>
<rscale>  0 0.44220405E+03</rscale>
<asrwt>0</asrwt>
<pdfrwt beam="1">  1        2 0.35731088E-01 0.44220405E+03</pdfrwt>
<pdfrwt beam="2">  1       -2 0.27921781E-01 0.44220405E+03</pdfrwt>
<totfact> 0.16994046E+03</totfact>
</mgrwt>
</event>
<event>
 4    1  0.1383574E-004  0.3047346E+03  0.7818608E-02  0.1082898E+00
         -2   -1    0    0    0  501 -0.00000000000E+00  0.00000000000E+00  0.42463438385E+02  0.42463438462E+02  0.25500000000E-02 0. -1.
          2   -1    0    0  501    0  0.00000000000E+00 -0.00000000000E+00 -0.54672417871E+03  0.54672417872E+03  0.25500000000E-02 0.  1.
    5000001    1    1    2    0    0  0.61682216220E+02  0.56658503815E+02 -0.26852555884E+03  0.30862575654E+03  0.12700000000E+03 0.  0.
   -5000001    1    1    2    0    0 -0.61682216220E+02 -0.56658503815E+02 -0.23573518149E+03  0.28056186064E+03  0.12700000000E+03 0.  0.
<mgrwt>
<rscale>  0 0.30473456E+03</rscale>
<asrwt>0</asrwt>
<pdfrwt beam="1">  1        2 0.78103450E-01 0.30473456E+03</pdfrwt>
<pdfrwt beam="2">  1       -2 0.60662058E-02 0.30473456E+03</pdfrwt>
<totfact> 0.88983997E+03</totfact>
</mgrwt>
</event>
<event>
 4    1  0.1383574E-004  0.3722426E+03  0.7818608E-02  0.1053839E+00
         -2   -1    0    0    0  501 -0.00000000000E+00  0.00000000000E+00  0.59241918155E+02  0.59241918210E+02  0.25500000000E-02 0. -1.
          2   -1    0    0  501    0  0.00000000000E+00 -0.00000000000E+00 -0.58474041566E+03  0.58474041567E+03  0.25500000000E-02 0.  1.
    5000001    1    1    2    0    0 -0.38494888709E+02  0.11044379831E+03 -0.14248632795E+03  0.22385495906E+03  0.12700000000E+03 0.  0.
   -5000001    1    1    2    0    0  0.38494888709E+02 -0.11044379831E+03 -0.38301216956E+03  0.42012737482E+03  0.12700000000E+03 0.  0.
<mgrwt>
<rscale>  0 0.37224263E+03</rscale>
<asrwt>0</asrwt>
<pdfrwt beam="1">  1        2 0.83534342E-01 0.37224263E+03</pdfrwt>
<pdfrwt beam="2">  1       -2 0.84631315E-02 0.37224263E+03</pdfrwt>
<totfact> 0.49318035E+03</totfact>
</mgrwt>
</event>
<event>
 4    1  0.1383574E-004  0.9274135E+03  0.7818608E-02  0.9391947E-01
          2   -1    0    0  501    0  0.00000000000E+00  0.00000000000E+00  0.91590201007E+02  0.91590201042E+02  0.25500000000E-02 0.  1.
         -2   -1    0    0    0  501 -0.00000000000E+00 -0.00000000000E+00 -0.23476742142E+04  0.23476742142E+04  0.25500000000E-02 0. -1.
    5000001    1    1    2    0    0 -0.25278937554E+03 -0.36741268710E+03 -0.11263739798E+04  0.12180894439E+04  0.12700000000E+03 0.  0.
   -5000001    1    1    2    0    0  0.25278937554E+03  0.36741268710E+03 -0.11297100335E+04  0.12211749714E+04  0.12700000000E+03 0.  0.
<mgrwt>
<rscale>  0 0.92741351E+03</rscale>
<asrwt>0</asrwt>
<pdfrwt beam="1">  1        2 0.13084316E-01 0.92741351E+03</pdfrwt>
<pdfrwt beam="2">  1       -2 0.33538200E+00 0.92741351E+03</pdfrwt>
<totfact> 0.93951093E+00</totfact>
</mgrwt>
</event>
<event>
 4    1  0.1383574E-004  0.8180048E+03  0.7818608E-02  0.9534315E-01
          2   -1    0    0  501    0  0.00000000000E+00  0.00000000000E+00  0.26117323788E+03  0.26117323790E+03  0.25500000000E-02 0.  1.
         -2   -1    0    0    0  501 -0.00000000000E+00 -0.00000000000E+00 -0.64050573118E+03  0.64050573118E+03  0.25500000000E-02 0. -1.
    5000001    1    1    2    0    0  0.32929585614E+03 -0.93428711544E+01  0.37926479032E+02  0.35509219637E+03  0.12700000000E+03 0.  0.
   -5000001    1    1    2    0    0 -0.32929585614E+03  0.93428711544E+01 -0.41725897233E+03  0.54658677271E+03  0.12700000000E+03 0.  0.
<mgrwt>
<rscale>  0 0.81800478E+03</rscale>
<asrwt>0</asrwt>
<pdfrwt beam="1">  1        2 0.37310463E-01 0.81800478E+03</pdfrwt>
<pdfrwt beam="2">  1       -2 0.91500818E-01 0.81800478E+03</pdfrwt>
<totfact> 0.14255789E+02</totfact>
</mgrwt>
</event>
<event>
 4    1  0.1383574E-004  0.2899497E+03  0.7818608E-02  0.1090375E+00
         -2   -1    0    0    0  501 -0.00000000000E+00  0.00000000000E+00  0.20679543902E+02  0.20679544059E+02  0.25500000000E-02 0. -1.
          2   -1    0    0  501    0  0.00000000000E+00 -0.00000000000E+00 -0.10163522129E+04  0.10163522129E+04  0.25500000000E-02 0.  1.
    5000001    1    1    2    0    0 -0.21167056249E+02 -0.53970569969E+02 -0.35803623167E+03  0.38429130862E+03  0.12700000000E+03 0.  0.
   -5000001    1    1    2    0    0  0.21167056249E+02  0.53970569969E+02 -0.63763643736E+03  0.65274044837E+03  0.12700000000E+03 0.  0.
<mgrwt>
<rscale>  0 0.28994965E+03</rscale>
<asrwt>0</asrwt>
<pdfrwt beam="1">  1        2 0.14519314E+00 0.28994965E+03</pdfrwt>
<pdfrwt beam="2">  1       -2 0.29542212E-02 0.28994965E+03</pdfrwt>
<totfact> 0.12336452E+04</totfact>
</mgrwt>
</event>
<event>
 4    1  0.1383574E-004  0.3637848E+03  0.7818608E-02  0.1057095E+00
          2   -1    0    0  501    0  0.00000000000E+00  0.00000000000E+00  0.42532483305E+03  0.42532483306E+03  0.25500000000E-02 0.  1.
         -2   -1    0    0    0  501 -0.00000000000E+00 -0.00000000000E+00 -0.77787249588E+02  0.77787249630E+02  0.25500000000E-02 0. -1.
    5000001    1    1    2    0    0  0.82794414048E+02 -0.82100492881E+02  0.25394000242E+03  0.30693636272E+03  0.12700000000E+03 0.  0.
   -5000001    1    1    2    0    0 -0.82794414048E+02  0.82100492881E+02  0.93597581041E+02  0.19617571997E+03  0.12700000000E+03 0.  0.
<mgrwt>
<rscale>  0 0.36378482E+03</rscale>
<asrwt>0</asrwt>
<pdfrwt beam="1">  1        2 0.60760691E-01 0.36378482E+03</pdfrwt>
<pdfrwt beam="2">  1       -2 0.11112464E-01 0.36378482E+03</pdfrwt>
<totfact> 0.45563529E+03</totfact>
</mgrwt>
</event>
<event>
 4    1  0.1383574E-004  0.5941275E+03  0.7818608E-02  0.9917665E-01
         -2   -1    0    0    0  501 -0.00000000000E+00  0.00000000000E+00  0.41491888163E+03  0.41491888164E+03  0.25500000000E-02 0. -1.
          2   -1    0    0  501    0  0.00000000000E+00 -0.00000000000E+00 -0.21268460376E+03  0.21268460378E+03  0.25500000000E-02 0.  1.
    5000001    1    1    2    0    0 -0.69288948982E+02  0.25846518490E+03  0.77199669583E+02  0.30609475533E+03  0.12700000000E+03 0.  0.
   -5000001    1    1    2    0    0  0.69288948982E+02 -0.25846518490E+03  0.12503460829E+03  0.32150873009E+03  0.12700000000E+03 0.  0.
<mgrwt>
<rscale>  0 0.59412745E+03</rscale>
<asrwt>0</asrwt>
<pdfrwt beam="1">  1        2 0.30383515E-01 0.59412745E+03</pdfrwt>
<pdfrwt beam="2">  1       -2 0.59274126E-01 0.59412745E+03</pdfrwt>
<totfact> 0.47017330E+02</totfact>
</mgrwt>
</event>
<event>
 4    1  0.1383574E-004  0.4477043E+03  0.7818608E-02  0.1028409E+00
         -2   -1    0    0    0  501 -0.00000000000E+00  0.00000000000E+00  0.25734025936E+02  0.25734026063E+02  0.25500000000E-02 0. -1.
          2   -1    0    0  501    0  0.00000000000E+00 -0.00000000000E+00 -0.19472193849E+04  0.19472193850E+04  0.25500000000E-02 0.  1.
    5000001    1    1    2    0    0 -0.14833872548E+03 -0.10772177285E+03 -0.87569712468E+03  0.90364971754E+03  0.12700000000E+03 0.  0.
   -5000001    1    1    2    0    0  0.14833872548E+03  0.10772177285E+03 -0.10457882343E+04  0.10693036935E+04  0.12700000000E+03 0.  0.
<mgrwt>
<rscale>  0 0.44770434E+03</rscale>
<asrwt>0</asrwt>
<pdfrwt beam="1">  1        2 0.27817410E+00 0.44770434E+03</pdfrwt>
<pdfrwt beam="2">  1       -2 0.36762907E-02 0.44770434E+03</pdfrwt>
<totfact> 0.29123231E+03</totfact>
</mgrwt>
</event>
<event>
 4    1  0.1383574E-004  0.3525043E+03  0.7818608E-02  0.1061592E+00
         -2   -1    0    0    0  501 -0.00000000000E+00  0.00000000000E+00  0.44947106857E+02  0.44947106929E+02  0.25500000000E-02 0. -1.
          2   -1    0    0  501    0  0.00000000000E+00 -0.00000000000E+00 -0.69114167393E+03  0.69114167394E+03  0.25500000000E-02 0.  1.
    5000001    1    1    2    0    0  0.76985977629E+02 -0.92964038931E+02 -0.28311194619E+03  0.33294222826E+03  0.12700000000E+03 0.  0.
   -5000001    1    1    2    0    0 -0.76985977629E+02  0.92964038931E+02 -0.36308262089E+03  0.40314655260E+03  0.12700000000E+03 0.  0.
<mgrwt>
<rscale>  0 0.35250429E+03</rscale>
<asrwt>0</asrwt>
<pdfrwt beam="1">  1        2 0.98734518E-01 0.35250429E+03</pdfrwt>
<pdfrwt beam="2">  1       -2 0.64210157E-02 0.35250429E+03</pdfrwt>
<totfact> 0.62404808E+03</totfact>
</mgrwt>
</event>
<event>
 4    1  0.1383574E-004  0.4770539E+03  0.7818608E-02  0.1019948E+00
          2   -1    0    0  501    0  0.00000000000E+00  0.00000000000E+00  0.89946062875E+03  0.89946062876E+03  0.25500000000E-02 0.  1.
         -2   -1    0    0    0  501 -0.00000000000E+00 -0.00000000000E+00 -0.63254680344E+02  0.63254680395E+02  0.25500000000E-02 0. -1.
    5000001    1    1    2    0    0 -0.54778197108E+02  0.93968265126E+02  0.76138042951E+03  0.77952539675E+03  0.12700000000E+03 0.  0.
   -5000001    1    1    2    0    0  0.54778197108E+02 -0.93968265126E+02  0.74825518899E+02  0.18318991241E+03  0.12700000000E+03 0.  0.
<mgrwt>
<rscale>  0 0.47705385E+03</rscale>
<asrwt>0</asrwt>
<pdfrwt beam="1">  1        2 0.12849438E+00 0.47705385E+03</pdfrwt>
<pdfrwt beam="2">  1       -2 0.90363826E-02 0.47705385E+03</pdfrwt>
<totfact> 0.26291265E+03</totfact>
</mgrwt>
</event>
<event>
 4    1  0.1383574E-004  0.5413522E+03  0.7818608E-02  0.1003516E+00
          2   -1    0    0  501    0  0.00000000000E+00  0.00000000000E+00  0.40739196987E+04  0.40739196987E+04  0.25500000000E-02 0.  1.
         -2   -1    0    0    0  501 -0.00000000000E+00 -0.00000000000E+00 -0.17984042467E+02  0.17984042648E+02  0.25500000000E-02 0. -1.
    5000001    1    1    2    0    0  0.16342605465E+03 -0.14474062096E+03  0.27638666959E+04  0.27753821422E+04  0.12700000000E+03 0.  0.
   -5000001    1    1    2    0    0 -0.16342605465E+03  0.14474062096E+03  0.12920689604E+04  0.13165215991E+04  0.12700000000E+03 0.  0.
<mgrwt>
<rscale>  0 0.54135218E+03</rscale>
<asrwt>0</asrwt>
<pdfrwt beam="1">  1        2 0.58198937E+00 0.54135218E+03</pdfrwt>
<pdfrwt beam="2">  1       -2 0.25691452E-02 0.54135218E+03</pdfrwt>
<totfact> 0.32577350E+02</totfact>
</mgrwt>
</event>
<event>
 4    1  0.1383574E-004  0.4862193E+03  0.7818608E-02  0.1017440E+00
          2   -1    0    0  501    0  0.00000000000E+00  0.00000000000E+00  0.16918804639E+04  0.16918804639E+04  0.25500000000E-02 0.  1.
         -2   -1    0    0    0  501 -0.00000000000E+00 -0.00000000000E+00 -0.34932903407E+02  0.34932903500E+02  0.25500000000E-02 0. -1.
    5000001    1    1    2    0    0 -0.58316688165E+01  0.19457520172E+03  0.10815991376E+04  0.11062907447E+04  0.12700000000E+03 0.  0.
   -5000001    1    1    2    0    0  0.58316688165E+01 -0.19457520172E+03  0.57534842294E+03  0.62052262268E+03  0.12700000000E+03 0.  0.
<mgrwt>
<rscale>  0 0.48621928E+03</rscale>
<asrwt>0</asrwt>
<pdfrwt beam="1">  1        2 0.24169721E+00 0.48621928E+03</pdfrwt>
<pdfrwt beam="2">  1       -2 0.49904148E-02 0.48621928E+03</pdfrwt>
<totfact> 0.24448455E+03</totfact>
</mgrwt>
</event>
<event>
 4    1  0.1383574E-004  0.3887413E+03  0.7818608E-02  0.1047749E+00
          2   -1    0    0  501    0  0.00000000000E+00  0.00000000000E+00  0.39034045922E+03  0.39034045922E+03  0.25500000000E-02 0.  1.
         -2   -1    0    0    0  501 -0.00000000000E+00 -0.00000000000E+00 -0.96787156144E+02  0.96787156178E+02  0.25500000000E-02 0. -1.
    5000001    1    1    2    0    0 -0.10364716621E+03 -0.50687060144E+02  0.32346658849E+02  0.17460589757E+03  0.12700000000E+03 0.  0.
   -5000001    1    1    2    0    0  0.10364716621E+03  0.50687060144E+02  0.26120664422E+03  0.31252171783E+03  0.12700000000E+03 0.  0.
<mgrwt>
<rscale>  0 0.38874127E+03</rscale>
<asrwt>0</asrwt>
<pdfrwt beam="1">  1        2 0.55762924E-01 0.38874127E+03</pdfrwt>
<pdfrwt beam="2">  1       -2 0.13826736E-01 0.38874127E+03</pdfrwt>
<totfact> 0.35081706E+03</totfact>
</mgrwt>
</event>
<event>
 4    1  0.1383574E-004  0.3250551E+03  0.7818608E-02  0.1073346E+00
          2   -1    0    0  501    0  0.00000000000E+00  0.00000000000E+00  0.19267838416E+03  0.19267838418E+03  0.25500000000E-02 0.  1.
         -2   -1    0    0    0  501 -0.00000000000E+00 -0.00000000000E+00 -0.13709482223E+03  0.13709482225E+03  0.25500000000E-02 0. -1.
    5000001    1    1    2    0    0  0.67290374629E+02  0.72132076879E+02  0.51695990779E+02  0.16891567865E+03  0.12700000000E+03 0.  0.
   -5000001    1    1    2    0    0 -0.67290374629E+02 -0.72132076879E+02  0.38875711511E+01  0.16085752778E+03  0.12700000000E+03 0.  0.
<mgrwt>
<rscale>  0 0.32505513E+03</rscale>
<asrwt>0</asrwt>
<pdfrwt beam="1">  1        2 0.27525483E-01 0.32505513E+03</pdfrwt>
<pdfrwt beam="2">  1       -2 0.19584975E-01 0.32505513E+03</pdfrwt>
<totfact> 0.42115629E+03</totfact>
</mgrwt>
</event>
<event>
 4    1  0.1383574E-004  0.6983863E+03  0.7818608E-02  0.9719996E-01
          2   -1    0    0  501    0  0.00000000000E+00  0.00000000000E+00  0.23375330559E+04  0.23375330559E+04  0.25500000000E-02 0.  1.
         -2   -1    0    0    0  501 -0.00000000000E+00 -0.00000000000E+00 -0.52164327513E+02  0.52164327576E+02  0.25500000000E-02 0. -1.
    5000001    1    1    2    0    0 -0.61258877089E+02 -0.31513856425E+03  0.13218567483E+04  0.13661988244E+04  0.12700000000E+03 0.  0.
   -5000001    1    1    2    0    0  0.61258877089E+02  0.31513856425E+03  0.96351198000E+03  0.10234985590E+04  0.12700000000E+03 0.  0.
<mgrwt>
<rscale>  0 0.69838625E+03</rscale>
<asrwt>0</asrwt>
<pdfrwt beam="1">  1        2 0.33393338E+00 0.69838625E+03</pdfrwt>
<pdfrwt beam="2">  1       -2 0.74520450E-02 0.69838625E+03</pdfrwt>
<totfact> 0.61007260E+02</totfact>
</mgrwt>
</event>
<event>
 4    1  0.1383574E-004  0.3360483E+03  0.7818608E-02  0.1068492E+00
         -2   -1    0    0    0  501 -0.00000000000E+00  0.00000000000E+00  0.91697637078E+02  0.91697637113E+02  0.25500000000E-02 0. -1.
          2   -1    0    0  501    0  0.00000000000E+00 -0.00000000000E+00 -0.30788266061E+03  0.30788266062E+03  0.25500000000E-02 0.  1.
    5000001    1    1    2    0    0  0.22601478535E+02 -0.10703094481E+03 -0.94192119038E+02  0.19226961608E+03  0.12700000000E+03 0.  0.
   -5000001    1    1    2    0    0 -0.22601478535E+02  0.10703094481E+03 -0.12199290450E+03  0.20731068165E+03  0.12700000000E+03 0.  0.
<mgrwt>
<rscale>  0 0.33604829E+03</rscale>
<asrwt>0</asrwt>
<pdfrwt beam="1">  1        2 0.43983237E-01 0.33604829E+03</pdfrwt>
<pdfrwt beam="2">  1       -2 0.13099663E-01 0.33604829E+03</pdfrwt>
<totfact> 0.49463501E+03</totfact>
</mgrwt>
</event>
<event>
 4    1  0.1383574E-004  0.7671496E+03  0.7818608E-02  0.9608823E-01
         -2   -1    0    0    0  501 -0.00000000000E+00  0.00000000000E+00  0.24085656733E+03  0.24085656734E+03  0.25500000000E-02 0. -1.
          2   -1    0    0  501    0  0.00000000000E+00 -0.00000000000E+00 -0.61085999440E+03  0.61085999440E+03  0.25500000000E-02 0.  1.
    5000001    1    1    2    0    0 -0.45560030612E+02 -0.35180913210E+03 -0.26471675501E+03  0.46048815642E+03  0.12700000000E+03 0.  0.
   -5000001    1    1    2    0    0  0.45560030612E+02  0.35180913210E+03 -0.10528667206E+03  0.39122840533E+03  0.12700000000E+03 0.  0.
<mgrwt>
<rscale>  0 0.76714964E+03</rscale>
<asrwt>0</asrwt>
<pdfrwt beam="1">  1        2 0.87265713E-01 0.76714964E+03</pdfrwt>
<pdfrwt beam="2">  1       -2 0.34408081E-01 0.76714964E+03</pdfrwt>
<totfact> 0.42222119E+02</totfact>
</mgrwt>
</event>
<event>
 4    1  0.1383574E-004  0.2842628E+03  0.7818608E-02  0.1093383E+00
         -2   -1    0    0    0  501 -0.00000000000E+00  0.00000000000E+00  0.24961859470E+02  0.24961859600E+02  0.25500000000E-02 0. -1.
          2   -1    0    0  501    0  0.00000000000E+00 -0.00000000000E+00 -0.80928779146E+03  0.80928779147E+03  0.25500000000E-02 0.  1.
    5000001    1    1    2    0    0  0.15033165481E+02  0.59804315718E+02 -0.44036636671E+03  0.46244360648E+03  0.12700000000E+03 0.  0.
   -5000001    1    1    2    0    0 -0.15033165481E+02 -0.59804315718E+02 -0.34395956528E+03  0.37180604459E+03  0.12700000000E+03 0.  0.
<mgrwt>
<rscale>  0 0.28426275E+03</rscale>
<asrwt>0</asrwt>
<pdfrwt beam="1">  1        2 0.11561253E+00 0.28426275E+03</pdfrwt>
<pdfrwt beam="2">  1       -2 0.35659804E-02 0.28426275E+03</pdfrwt>
<totfact> 0.12527001E+04</totfact>
</mgrwt>
</event>
<event>
 4    1  0.1383574E-004  0.3420259E+03  0.7818608E-02  0.1065936E+00
          2   -1    0    0  501    0  0.00000000000E+00  0.00000000000E+00  0.16698767012E+04  0.16698767012E+04  0.25500000000E-02 0.  1.
         -2   -1    0    0    0  501 -0.00000000000E+00 -0.00000000000E+00 -0.17513531047E+02  0.17513531233E+02  0.25500000000E-02 0. -1.
    5000001    1    1    2    0    0 -0.87055037726E+02  0.63556682592E+02  0.63520890571E+03  0.65668667216E+03  0.12700000000E+03 0.  0.
   -5000001    1    1    2    0    0  0.87055037726E+02 -0.63556682592E+02  0.10171542645E+04  0.10307035603E+04  0.12700000000E+03 0.  0.
<mgrwt>
<rscale>  0 0.34202595E+03</rscale>
<asrwt>0</asrwt>
<pdfrwt beam="1">  1        2 0.23855380E+00 0.34202595E+03</pdfrwt>
<pdfrwt beam="2">  1       -2 0.25019332E-02 0.34202595E+03</pdfrwt>
<totfact> 0.71407812E+03</totfact>
</mgrwt>
</event>
<event>
 4    1  0.1383574E-004  0.4769983E+03  0.7818608E-02  0.1019963E+00
          2   -1    0    0  501    0  0.00000000000E+00  0.00000000000E+00  0.18413049384E+03  0.18413049386E+03  0.25500000000E-02 0.  1.
         -2   -1    0    0    0  501 -0.00000000000E+00 -0.00000000000E+00 -0.30892131004E+03  0.30892131006E+03  0.25500000000E-02 0. -1.
    5000001    1    1    2    0    0  0.17702609332E+03 -0.81859624504E+02 -0.85500236451E+01  0.23289770017E+03  0.12700000000E+03 0.  0.
   -5000001    1    1    2    0    0 -0.17702609332E+03  0.81859624504E+02 -0.11624079256E+03  0.26015410374E+03  0.12700000000E+03 0.  0.
<mgrwt>
<rscale>  0 0.47699825E+03</rscale>
<asrwt>0</asrwt>
<pdfrwt beam="1">  1        2 0.26304356E-01 0.47699825E+03</pdfrwt>
<pdfrwt beam="2">  1       -2 0.44131615E-01 0.47699825E+03</pdfrwt>
<totfact> 0.10078500E+03</totfact>
</mgrwt>
</event>
<event>
 4    1  0.1383574E-004  0.6420454E+03  0.7818608E-02  0.9821821E-01
         -2   -1    0    0    0  501 -0.00000000000E+00  0.00000000000E+00  0.15420988706E+03  0.15420988708E+03  0.25500000000E-02 0. -1.
          2   -1    0    0  501    0  0.00000000000E+00 -0.00000000000E+00 -0.66828126736E+03  0.66828126736E+03  0.25500000000E-02 0.  1.
    5000001    1    1    2    0    0 -0.24875229940E+03  0.15400156565E+03 -0.21027497064E+03  0.38201930836E+03  0.12700000000E+03 0.  0.
   -5000001    1    1    2    0    0  0.24875229940E+03 -0.15400156565E+03 -0.30379640965E+03  0.44047184609E+03  0.12700000000E+03 0.  0.
<mgrwt>
<rscale>  0 0.64204542E+03</rscale>
<asrwt>0</asrwt>
<pdfrwt beam="1">  1        2 0.95468751E-01 0.64204542E+03</pdfrwt>
<pdfrwt beam="2">  1       -2 0.22029984E-01 0.64204542E+03</pdfrwt>
<totfact> 0.85958785E+02</totfact>
</mgrwt>
</event>
<event>
 4    1  0.1383574E-004  0.3569960E+03  0.7818608E-02  0.1059780E+00
         -2   -1    0    0    0  501 -0.00000000000E+00  0.00000000000E+00  0.22612505466E+03  0.22612505467E+03  0.25500000000E-02 0.  1.
          2   -1    0    0  501    0  0.00000000000E+00 -0.00000000000E+00 -0.14090226193E+03  0.14090226195E+03  0.25500000000E-02 0. -1.
    5000001    1    1    2    0    0  0.11626232355E+03 -0.27819302529E+00  0.91003392237E+02  0.19475015447E+03  0.12700000000E+03 0.  0.
   -5000001    1    1    2    0    0 -0.11626232355E+03  0.27819302529E+00 -0.57805995075E+01  0.17227716215E+03  0.12700000000E+03 0.  0.
<mgrwt>
<rscale>  0 0.35699598E+03</rscale>
<asrwt>0</asrwt>
<pdfrwt beam="1">  1        2 0.20128895E-01 0.35699598E+03</pdfrwt>
<pdfrwt beam="2">  1       -2 0.32303579E-01 0.35699598E+03</pdfrwt>
<totfact> 0.24723236E+03</totfact>
</mgrwt>
</event>
<event>
 4    1  0.1383574E-004  0.4328977E+03  0.7818608E-02  0.1032948E+00
          2   -1    0    0  501    0  0.00000000000E+00  0.00000000000E+00  0.27901204143E+04  0.27901204143E+04  0.25500000000E-02 0.  1.
         -2   -1    0    0    0  501 -0.00000000000E+00 -0.00000000000E+00 -0.16791430151E+02  0.16791430345E+02  0.25500000000E-02 0. -1.
    5000001    1    1    2    0    0 -0.12148431526E+03 -0.25369158432E+02  0.21891917478E+04  0.21963814655E+04  0.12700000000E+03 0.  0.
   -5000001    1    1    2    0    0  0.12148431526E+03  0.25369158432E+02  0.58413723631E+03  0.61053037917E+03  0.12700000000E+03 0.  0.
<mgrwt>
<rscale>  0 0.43289774E+03</rscale>
<asrwt>0</asrwt>
<pdfrwt beam="1">  1        2 0.39858852E+00 0.43289774E+03</pdfrwt>
<pdfrwt beam="2">  1       -2 0.23987764E-02 0.43289774E+03</pdfrwt>
<totfact> 0.20819058E+03</totfact>
</mgrwt>
</event>
<event>
 4    1  0.1383574E-004  0.7498340E+03  0.7818608E-02  0.9635611E-01
          2   -1    0    0  501    0  0.00000000000E+00  0.00000000000E+00  0.64356189656E+03  0.64356189657E+03  0.25500000000E-02 0.  1.
         -2   -1    0    0    0  501 -0.00000000000E+00 -0.00000000000E+00 -0.21841371469E+03  0.21841371470E+03  0.25500000000E-02 0. -1.
    5000001    1    1    2    0    0 -0.50869234312E+02 -0.34453024200E+03  0.14810691270E+03  0.39919096213E+03  0.12700000000E+03 0.  0.
   -5000001    1    1    2    0    0  0.50869234312E+02  0.34453024200E+03  0.27704126918E+03  0.46278464914E+03  0.12700000000E+03 0.  0.
<mgrwt>
<rscale>  0 0.74983397E+03</rscale>
<asrwt>0</asrwt>
<pdfrwt beam="1">  1        2 0.91937415E-01 0.74983397E+03</pdfrwt>
<pdfrwt beam="2">  1       -2 0.31201959E-01 0.74983397E+03</pdfrwt>
<totfact> 0.47708819E+02</totfact>
</mgrwt>
</event>
<event>
 4    1  0.1383574E-004  0.3719454E+03  0.7818608E-02  0.1053952E+00
         -2   -1    0    0    0  501 -0.00000000000E+00  0.00000000000E+00  0.10693333566E+03  0.10693333569E+03  0.25500000000E-02 0. -1.
          2   -1    0    0  501    0  0.00000000000E+00 -0.00000000000E+00 -0.32343365459E+03  0.32343365460E+03  0.25500000000E-02 0.  1.
    5000001    1    1    2    0    0 -0.10723582543E+03  0.55823349786E+02 -0.17996118924E+03  0.25125842925E+03  0.12700000000E+03 0.  0.
   -5000001    1    1    2    0    0  0.10723582543E+03 -0.55823349786E+02 -0.36539129698E+02  0.17910856104E+03  0.12700000000E+03 0.  0.
<mgrwt>
<rscale>  0 0.37194537E+03</rscale>
<asrwt>0</asrwt>
<pdfrwt beam="1">  1        2 0.46204807E-01 0.37194537E+03</pdfrwt>
<pdfrwt beam="2">  1       -2 0.15276191E-01 0.37194537E+03</pdfrwt>
<totfact> 0.36461179E+03</totfact>
</mgrwt>
</event>
<event>
 4    1  0.1383574E-004  0.4036935E+03  0.7818608E-02  0.1042508E+00
          2   -1    0    0  501    0  0.00000000000E+00  0.00000000000E+00  0.57754311840E+02  0.57754311897E+02  0.25500000000E-02 0.  1.
         -2   -1    0    0    0  501 -0.00000000000E+00 -0.00000000000E+00 -0.70543858504E+03  0.70543858504E+03  0.25500000000E-02 0. -1.
    5000001    1    1    2    0    0  0.14175717613E+03  0.14804494261E+02 -0.19988867535E+03  0.27640324269E+03  0.12700000000E+03 0.  0.
   -5000001    1    1    2    0    0 -0.14175717613E+03 -0.14804494261E+02 -0.44779559785E+03  0.48678965425E+03  0.12700000000E+03 0.  0.
<mgrwt>
<rscale>  0 0.40369355E+03</rscale>
<asrwt>0</asrwt>
<pdfrwt beam="1">  1        2 0.82506164E-02 0.40369355E+03</pdfrwt>
<pdfrwt beam="2">  1       -2 0.10077694E+00 0.40369355E+03</pdfrwt>
<totfact> 0.69346232E+02</totfact>
</mgrwt>
</event>
<event>
 4    1  0.1383574E-004  0.2954316E+03  0.7818608E-02  0.1087547E+00
         -2   -1    0    0    0  501 -0.00000000000E+00  0.00000000000E+00  0.41212119179E+02  0.41212119258E+02  0.25500000000E-02 0. -1.
          2   -1    0    0  501    0  0.00000000000E+00 -0.00000000000E+00 -0.52945491495E+03  0.52945491496E+03  0.25500000000E-02 0.  1.
    5000001    1    1    2    0    0 -0.27800831020E+02  0.17406458860E+02 -0.11289662795E+03  0.17306218425E+03  0.12700000000E+03 0.  0.
   -5000001    1    1    2    0    0  0.27800831020E+02 -0.17406458860E+02 -0.37534616783E+03  0.39760484997E+03  0.12700000000E+03 0.  0.
<mgrwt>
<rscale>  0 0.29543161E+03</rscale>
<asrwt>0</asrwt>
<pdfrwt beam="1">  1        2 0.75636413E-01 0.29543161E+03</pdfrwt>
<pdfrwt beam="2">  1       -2 0.58874459E-02 0.29543161E+03</pdfrwt>
<totfact> 0.96481854E+03</totfact>
</mgrwt>
</event>
<event>
 4    1  0.1383574E-004  0.7199229E+03  0.7818608E-02  0.9683755E-01
          2   -1    0    0  501    0  0.00000000000E+00  0.00000000000E+00  0.20500491409E+03  0.20500491410E+03  0.25500000000E-02 0.  1.
         -2   -1    0    0    0  501 -0.00000000000E+00 -0.00000000000E+00 -0.63204451065E+03  0.63204451066E+03  0.25500000000E-02 0. -1.
    5000001    1    1    2    0    0  0.16705607219E+03  0.42092443527E+02 -0.55002604571E+03  0.59020094546E+03  0.12700000000E+03 0.  0.
   -5000001    1    1    2    0    0 -0.16705607219E+03 -0.42092443527E+02  0.12298644915E+03  0.24684847930E+03  0.12700000000E+03 0.  0.
<mgrwt>
<rscale>  0 0.71992286E+03</rscale>
<asrwt>0</asrwt>
<pdfrwt beam="1">  1        2 0.29286417E-01 0.71992286E+03</pdfrwt>
<pdfrwt beam="2">  1       -2 0.90292072E-01 0.71992286E+03</pdfrwt>
<totfact> 0.19364149E+02</totfact>
</mgrwt>
</event>
<event>
 4    1  0.1383574E-004  0.3518789E+03  0.7818608E-02  0.1061846E+00
          2   -1    0    0  501    0  0.00000000000E+00  0.00000000000E+00  0.75578235731E+03  0.75578235732E+03  0.25500000000E-02 0.  1.
         -2   -1    0    0    0  501 -0.00000000000E+00 -0.00000000000E+00 -0.40957152066E+02  0.40957152145E+02  0.25500000000E-02 0. -1.
    5000001    1    1    2    0    0 -0.21629189823E+02  0.27242746869E+02  0.93206310398E+02  0.16132701388E+03  0.12700000000E+03 0.  0.
   -5000001    1    1    2    0    0  0.21629189823E+02 -0.27242746869E+02  0.62161889485E+03  0.63541249558E+03  0.12700000000E+03 0.  0.
<mgrwt>
<rscale>  0 0.35187892E+03</rscale>
<asrwt>0</asrwt>
<pdfrwt beam="1">  1        2 0.10796891E+00 0.35187892E+03</pdfrwt>
<pdfrwt beam="2">  1       -2 0.58510217E-02 0.35187892E+03</pdfrwt>
<totfact> 0.64659651E+03</totfact>
</mgrwt>
</event>
<event>
 4    1  0.1383574E-004  0.5402142E+03  0.7818608E-02  0.1003785E+00
          2   -1    0    0  501    0  0.00000000000E+00  0.00000000000E+00  0.49801505552E+02  0.49801505618E+02  0.25500000000E-02 0.  1.
         -2   -1    0    0    0  501 -0.00000000000E+00 -0.00000000000E+00 -0.14649727969E+04  0.14649727969E+04  0.25500000000E-02 0. -1.
    5000001    1    1    2    0    0 -0.19663391266E+03 -0.27753013843E+02 -0.10773952818E+04  0.11028801923E+04  0.12700000000E+03 0.  0.
   -5000001    1    1    2    0    0  0.19663391266E+03  0.27753013843E+02 -0.33777600954E+03  0.41189411019E+03  0.12700000000E+03 0.  0.
<mgrwt>
<rscale>  0 0.54021422E+03</rscale>
<asrwt>0</asrwt>
<pdfrwt beam="1">  1        2 0.71145018E-02 0.54021422E+03</pdfrwt>
<pdfrwt beam="2">  1       -2 0.20928180E+00 0.54021422E+03</pdfrwt>
<totfact> 0.12316707E+02</totfact>
</mgrwt>
</event>
<event>
 4    1  0.1383574E-004  0.3254950E+03  0.7818608E-02  0.1073148E+00
         -2   -1    0    0    0  501 -0.00000000000E+00  0.00000000000E+00  0.26205885491E+02  0.26205885615E+02  0.25500000000E-02 0. -1.
          2   -1    0    0  501    0  0.00000000000E+00 -0.00000000000E+00 -0.10107173196E+04  0.10107173196E+04  0.25500000000E-02 0.  1.
    5000001    1    1    2    0    0 -0.96240663225E+02 -0.53063115517E+01 -0.38817993339E+03  0.41964637838E+03  0.12700000000E+03 0.  0.
   -5000001    1    1    2    0    0  0.96240663225E+02  0.53063115517E+01 -0.59633150068E+03  0.61727682680E+03  0.12700000000E+03 0.  0.
<mgrwt>
<rscale>  0 0.32549496E+03</rscale>
<asrwt>0</asrwt>
<pdfrwt beam="1">  1        2 0.14438816E+00 0.32549496E+03</pdfrwt>
<pdfrwt beam="2">  1       -2 0.37436986E-02 0.32549496E+03</pdfrwt>
<totfact> 0.87471053E+03</totfact>
</mgrwt>
</event>
<event>
 4    1  0.1383574E-004  0.6112192E+03  0.7818608E-02  0.9882399E-01
          2   -1    0    0  501    0  0.00000000000E+00  0.00000000000E+00  0.13764146067E+03  0.13764146069E+03  0.25500000000E-02 0.  1.
         -2   -1    0    0    0  501 -0.00000000000E+00 -0.00000000000E+00 -0.67855452431E+03  0.67855452431E+03  0.25500000000E-02 0. -1.
    5000001    1    1    2    0    0  0.27597514798E+03 -0.30330038537E+01 -0.22623312946E+03  0.37879006096E+03  0.12700000000E+03 0.  0.
   -5000001    1    1    2    0    0 -0.27597514798E+03  0.30330038537E+01 -0.31467993417E+03  0.43740592404E+03  0.12700000000E+03 0.  0.
<mgrwt>
<rscale>  0 0.61121923E+03</rscale>
<asrwt>0</asrwt>
<pdfrwt beam="1">  1        2 0.19663066E-01 0.61121923E+03</pdfrwt>
<pdfrwt beam="2">  1       -2 0.96936359E-01 0.61121923E+03</pdfrwt>
<totfact> 0.26061989E+02</totfact>
</mgrwt>
</event>
<event>
 4    1  0.1383574E-004  0.9230529E+03  0.7818608E-02  0.9397214E-01
         -2   -1    0    0    0  501 -0.00000000000E+00  0.00000000000E+00  0.82588866934E+02  0.82588866973E+02  0.25500000000E-02 0. -1.
          2   -1    0    0  501    0  0.00000000000E+00 -0.00000000000E+00 -0.25791207625E+04  0.25791207625E+04  0.25500000000E-02 0.  1.
    5000001    1    1    2    0    0 -0.31597125462E+03 -0.28420487544E+03 -0.88048148280E+03  0.98589395298E+03  0.12700000000E+03 0.  0.
   -5000001    1    1    2    0    0  0.31597125462E+03  0.28420487544E+03 -0.16160504127E+04  0.16758156765E+04  0.12700000000E+03 0.  0.
<mgrwt>
<rscale>  0 0.92305289E+03</rscale>
<asrwt>0</asrwt>
<pdfrwt beam="1">  1        2 0.36844577E+00 0.92305289E+03</pdfrwt>
<pdfrwt beam="2">  1       -2 0.11798411E-01 0.92305289E+03</pdfrwt>
<totfact> 0.21347012E+02</totfact>
</mgrwt>
</event>
<event>
 4    1  0.1383574E-004  0.3274951E+03  0.7818608E-02  0.1072251E+00
         -2   -1    0    0    0  501 -0.00000000000E+00  0.00000000000E+00  0.15738762083E+04  0.15738762083E+04  0.25500000000E-02 0. -1.
          2   -1    0    0  501    0  0.00000000000E+00 -0.00000000000E+00 -0.17036448045E+02  0.17036448235E+02  0.25500000000E-02 0.  1.
    5000001    1    1    2    0    0 -0.79539792762E+02 -0.49182496093E+02  0.56452322906E+03  0.58614074479E+03  0.12700000000E+03 0.  0.
   -5000001    1    1    2    0    0  0.79539792762E+02  0.49182496093E+02  0.99231653124E+03  0.10047719118E+04  0.12700000000E+03 0.  0.
<mgrwt>
<rscale>  0 0.32749510E+03</rscale>
<asrwt>0</asrwt>
<pdfrwt beam="1">  1        2 0.24337797E-02 0.32749510E+03</pdfrwt>
<pdfrwt beam="2">  1       -2 0.22483933E+00 0.32749510E+03</pdfrwt>
<totfact> 0.42368163E+02</totfact>
</mgrwt>
</event>
<event>
 4    1  0.1383574E-004  0.2840597E+03  0.7818608E-02  0.1093492E+00
          2   -1    0    0  501    0  0.00000000000E+00  0.00000000000E+00  0.13282694438E+03  0.13282694441E+03  0.25500000000E-02 0.  1.
         -2   -1    0    0    0  501 -0.00000000000E+00 -0.00000000000E+00 -0.15187040429E+03  0.15187040431E+03  0.25500000000E-02 0. -1.
    5000001    1    1    2    0    0 -0.17553639160E+02 -0.52893046388E+02 -0.40211980015E+02  0.14440155103E+03  0.12700000000E+03 0.  0.
   -5000001    1    1    2    0    0  0.17553639160E+02  0.52893046388E+02  0.21168520113E+02  0.14029579768E+03  0.12700000000E+03 0.  0.
<mgrwt>
<rscale>  0 0.28405972E+03</rscale>
<asrwt>0</asrwt>
<pdfrwt beam="1">  1        2 0.18975278E-01 0.28405972E+03</pdfrwt>
<pdfrwt beam="2">  1       -2 0.21695772E-01 0.28405972E+03</pdfrwt>
<totfact> 0.53574550E+03</totfact>
</mgrwt>
</event>
<event>
 4    1  0.1383574E-004  0.3479024E+03  0.7818608E-02  0.1063479E+00
          2   -1    0    0  501    0  0.00000000000E+00  0.00000000000E+00  0.55162954016E+03  0.55162954017E+03  0.25500000000E-02 0.  1.
         -2   -1    0    0    0  501 -0.00000000000E+00 -0.00000000000E+00 -0.54853863811E+02  0.54853863870E+02  0.25500000000E-02 0. -1.
    5000001    1    1    2    0    0  0.11596349253E+03  0.26006839580E+02  0.25270196393E+03  0.30677543884E+03  0.12700000000E+03 0.  0.
   -5000001    1    1    2    0    0 -0.11596349253E+03 -0.26006839580E+02  0.24407371242E+03  0.29970796520E+03  0.12700000000E+03 0.  0.
<mgrwt>
<rscale>  0 0.34790235E+03</rscale>
<asrwt>0</asrwt>
<pdfrwt beam="1">  1        2 0.78804217E-01 0.34790235E+03</pdfrwt>
<pdfrwt beam="2">  1       -2 0.78362666E-02 0.34790235E+03</pdfrwt>
<totfact> 0.59411930E+03</totfact>
</mgrwt>
</event>
<event>
 4    1  0.1383574E-004  0.4696828E+03  0.7818608E-02  0.1022010E+00
          2   -1    0    0  501    0  0.00000000000E+00  0.00000000000E+00  0.30746432379E+04  0.30746432379E+04  0.25500000000E-02 0.  1.
         -2   -1    0    0    0  501 -0.00000000000E+00 -0.00000000000E+00 -0.17937194826E+02  0.17937195007E+02  0.25500000000E-02 0. -1.
    5000001    1    1    2    0    0 -0.58584039627E+02  0.11910724253E+03  0.56507381761E+03  0.59418519358E+03  0.12700000000E+03 0.  0.
   -5000001    1    1    2    0    0  0.58584039627E+02 -0.11910724253E+03  0.24916322255E+04  0.24983952394E+04  0.12700000000E+03 0.  0.
<mgrwt>
<rscale>  0 0.46968277E+03</rscale>
<asrwt>0</asrwt>
<pdfrwt beam="1">  1        2 0.43923426E+00 0.46968277E+03</pdfrwt>
<pdfrwt beam="2">  1       -2 0.25624593E-02 0.46968277E+03</pdfrwt>
<totfact> 0.13246886E+03</totfact>
</mgrwt>
</event>
<event>
 4    1  0.1383574E-004  0.4341422E+03  0.7818608E-02  0.1032559E+00
         -2   -1    0    0    0  501 -0.00000000000E+00  0.00000000000E+00  0.40906581298E+02  0.40906581377E+02  0.25500000000E-02 0. -1.
          2   -1    0    0  501    0  0.00000000000E+00 -0.00000000000E+00 -0.11518892867E+04  0.11518892867E+04  0.25500000000E-02 0.  1.
    5000001    1    1    2    0    0  0.65755151133E+02  0.14996147246E+03 -0.73309553499E+03  0.76182035058E+03  0.12700000000E+03 0.  0.
   -5000001    1    1    2    0    0 -0.65755151133E+02 -0.14996147246E+03 -0.37788717036E+03  0.43097551746E+03  0.12700000000E+03 0.  0.
<mgrwt>
<rscale>  0 0.43414216E+03</rscale>
<asrwt>0</asrwt>
<pdfrwt beam="1">  1        2 0.16455559E+00 0.43414216E+03</pdfrwt>
<pdfrwt beam="2">  1       -2 0.58437981E-02 0.43414216E+03</pdfrwt>
<totfact> 0.36883532E+03</totfact>
</mgrwt>
</event>
<event>
 4    1  0.1383574E-004  0.2718443E+03  0.7818608E-02  0.1100229E+00
          2   -1    0    0  501    0  0.00000000000E+00  0.00000000000E+00  0.17862347784E+03  0.17862347786E+03  0.25500000000E-02 0.  1.
         -2   -1    0    0    0  501 -0.00000000000E+00 -0.00000000000E+00 -0.10342887102E+03  0.10342887105E+03  0.25500000000E-02 0. -1.
    5000001    1    1    2    0    0 -0.47585384794E+02  0.19730595046E+01  0.46734993728E+02  0.14346226489E+03  0.12700000000E+03 0.  0.
   -5000001    1    1    2    0    0  0.47585384794E+02 -0.19730595046E+01  0.28459613099E+02  0.13859008402E+03  0.12700000000E+03 0.  0.
<mgrwt>
<rscale>  0 0.27184425E+03</rscale>
<asrwt>0</asrwt>
<pdfrwt beam="1">  1        2 0.25517640E-01 0.27184425E+03</pdfrwt>
<pdfrwt beam="2">  1       -2 0.14775553E-01 0.27184425E+03</pdfrwt>
<totfact> 0.73109456E+03</totfact>
</mgrwt>
</event>
<event>
 4    1  0.1383574E-004  0.6509446E+03  0.7818608E-02  0.9805008E-01
         -2   -1    0    0    0  501 -0.00000000000E+00  0.00000000000E+00  0.52284409173E+02  0.52284409235E+02  0.25500000000E-02 0. -1.
          2   -1    0    0  501    0  0.00000000000E+00 -0.00000000000E+00 -0.20260764705E+04  0.20260764705E+04  0.25500000000E-02 0.  1.
    5000001    1    1    2    0    0  0.14420261542E+01 -0.26793717927E+03 -0.14153887468E+04  0.14461143510E+04  0.12700000000E+03 0.  0.
   -5000001    1    1    2    0    0 -0.14420261542E+01  0.26793717927E+03 -0.55840331448E+03  0.63224652873E+03  0.12700000000E+03 0.  0.
<mgrwt>
<rscale>  0 0.65094458E+03</rscale>
<asrwt>0</asrwt>
<pdfrwt beam="1">  1        2 0.28943945E+00 0.65094458E+03</pdfrwt>
<pdfrwt beam="2">  1       -2 0.74692026E-02 0.65094458E+03</pdfrwt>
<totfact> 0.87638422E+02</totfact>
</mgrwt>
</event>
<event>
 4    1  0.1383574E-004  0.4073237E+03  0.7818608E-02  0.1041273E+00
          2   -1    0    0  501    0  0.00000000000E+00  0.00000000000E+00  0.43791600632E+04  0.43791600632E+04  0.25500000000E-02 0.  1.
         -2   -1    0    0    0  501 -0.00000000000E+00 -0.00000000000E+00 -0.94717109720E+01  0.94717113153E+01  0.25500000000E-02 0. -1.
    5000001    1    1    2    0    0 -0.10164938528E+03 -0.71920910890E+02  0.11158541672E+04  0.11299401477E+04  0.12700000000E+03 0.  0.
   -5000001    1    1    2    0    0  0.10164938528E+03  0.71920910890E+02  0.32538341850E+04  0.32586916268E+04  0.12700000000E+03 0.  0.
<mgrwt>
<rscale>  0 0.40732365E+03</rscale>
<asrwt>0</asrwt>
<pdfrwt beam="1">  1        2 0.62559422E+00 0.40732365E+03</pdfrwt>
<pdfrwt beam="2">  1       -2 0.13531017E-02 0.40732365E+03</pdfrwt>
<totfact> 0.52803394E+02</totfact>
</mgrwt>
</event>
<event>
 4    1  0.1383574E-004  0.6643616E+03  0.7818608E-02  0.9780198E-01
          2   -1    0    0  501    0  0.00000000000E+00  0.00000000000E+00  0.79409828673E+03  0.79409828673E+03  0.25500000000E-02 0.  1.
         -2   -1    0    0    0  501 -0.00000000000E+00 -0.00000000000E+00 -0.13895519120E+03  0.13895519123E+03  0.25500000000E-02 0. -1.
    5000001    1    1    2    0    0  0.24388645356E+03  0.64285992006E+01  0.65979889627E+02  0.28285026949E+03  0.12700000000E+03 0.  0.
   -5000001    1    1    2    0    0 -0.24388645356E+03 -0.64285992006E+01  0.58916320590E+03  0.65020320846E+03  0.12700000000E+03 0.  0.
<mgrwt>
<rscale>  0 0.66436159E+03</rscale>
<asrwt>0</asrwt>
<pdfrwt beam="1">  1        2 0.11344261E+00 0.66436159E+03</pdfrwt>
<pdfrwt beam="2">  1       -2 0.19850742E-01 0.66436159E+03</pdfrwt>
<totfact> 0.83242332E+02</totfact>
</mgrwt>
</event>
<event>
 4    1  0.1383574E-004  0.6710734E+03  0.7818608E-02  0.9768021E-01
          2   -1    0    0  501    0  0.00000000000E+00  0.00000000000E+00  0.16095625206E+04  0.16095625206E+04  0.25500000000E-02 0.  1.
         -2   -1    0    0    0  501 -0.00000000000E+00 -0.00000000000E+00 -0.69947495702E+02  0.69947495748E+02  0.25500000000E-02 0. -1.
    5000001    1    1    2    0    0 -0.82720346689E+02  0.25723734460E+03  0.11529950781E+04  0.11910249188E+04  0.12700000000E+03 0.  0.
   -5000001    1    1    2    0    0  0.82720346689E+02 -0.25723734460E+03  0.38661994682E+03  0.48848509751E+03  0.12700000000E+03 0.  0.
<mgrwt>
<rscale>  0 0.67107337E+03</rscale>
<asrwt>0</asrwt>
<pdfrwt beam="1">  1        2 0.22993752E+00 0.67107337E+03</pdfrwt>
<pdfrwt beam="2">  1       -2 0.99924986E-02 0.67107337E+03</pdfrwt>
<totfact> 0.89230015E+02</totfact>
</mgrwt>
</event>
<event>
 4    1  0.1383574E-004  0.5444411E+03  0.7818608E-02  0.1002789E+00
          2   -1    0    0  501    0  0.00000000000E+00  0.00000000000E+00  0.76075805248E+03  0.76075805248E+03  0.25500000000E-02 0.  1.
         -2   -1    0    0    0  501 -0.00000000000E+00 -0.00000000000E+00 -0.97408127135E+02  0.97408127168E+02  0.25500000000E-02 0. -1.
    5000001    1    1    2    0    0  0.61057925230E+02 -0.18649365678E+03  0.55159800728E+03  0.59908039184E+03  0.12700000000E+03 0.  0.
   -5000001    1    1    2    0    0 -0.61057925230E+02  0.18649365678E+03  0.11175191806E+03  0.25908578781E+03  0.12700000000E+03 0.  0.
<mgrwt>
<rscale>  0 0.54444106E+03</rscale>
<asrwt>0</asrwt>
<pdfrwt beam="1">  1        2 0.10867972E+00 0.54444106E+03</pdfrwt>
<pdfrwt beam="2">  1       -2 0.13915447E-01 0.54444106E+03</pdfrwt>
<totfact> 0.16126211E+03</totfact>
</mgrwt>
</event>
<event>
 4    1  0.1383574E-004  0.4295030E+03  0.7818608E-02  0.1034017E+00
          2   -1    0    0  501    0  0.00000000000E+00  0.00000000000E+00  0.18557910905E+03  0.18557910907E+03  0.25500000000E-02 0.  1.
         -2   -1    0    0    0  501 -0.00000000000E+00 -0.00000000000E+00 -0.24850968055E+03  0.24850968057E+03  0.25500000000E-02 0. -1.
    5000001    1    1    2    0    0 -0.37625909954E+02 -0.12146953721E+03 -0.15027313837E+03  0.23426816618E+03  0.12700000000E+03 0.  0.
   -5000001    1    1    2    0    0  0.37625909954E+02  0.12146953721E+03  0.87342566873E+02  0.19982062346E+03  0.12700000000E+03 0.  0.
<mgrwt>
<rscale>  0 0.42950299E+03</rscale>
<asrwt>0</asrwt>
<pdfrwt beam="1">  1        2 0.26511301E-01 0.42950299E+03</pdfrwt>
<pdfrwt beam="2">  1       -2 0.35501383E-01 0.42950299E+03</pdfrwt>
<totfact> 0.15184351E+03</totfact>
</mgrwt>
</event>
<event>
 4    1  0.1383574E-004  0.1005481E+04  0.7818608E-02  0.9302554E-01
         -2   -1    0    0    0  501 -0.00000000000E+00  0.00000000000E+00  0.31588019181E+03  0.31588019182E+03  0.25500000000E-02 0. -1.
          2   -1    0    0  501    0  0.00000000000E+00 -0.00000000000E+00 -0.80013888968E+03  0.80013888968E+03  0.25500000000E-02 0.  1.
    5000001    1    1    2    0    0 -0.19936283029E+03  0.43551199700E+03 -0.14792996465E+03  0.51713490704E+03  0.12700000000E+03 0.  0.
   -5000001    1    1    2    0    0  0.19936283029E+03 -0.43551199700E+03 -0.33632873322E+03  0.59888417447E+03  0.12700000000E+03 0.  0.
<mgrwt>
<rscale>  0 0.10054810E+04</rscale>
<asrwt>0</asrwt>
<pdfrwt beam="1">  1        2 0.11430556E+00 0.10054810E+04</pdfrwt>
<pdfrwt beam="2">  1       -2 0.45125742E-01 0.10054810E+04</pdfrwt>
<totfact> 0.17649728E+02</totfact>
</mgrwt>
</event>
<event>
 4    1  0.1383574E-004  0.1084876E+04  0.7818608E-02  0.9220059E-01
         -2   -1    0    0    0  501 -0.00000000000E+00  0.00000000000E+00  0.13603798462E+03  0.13603798464E+03  0.25500000000E-02 0. -1.
          2   -1    0    0  501    0  0.00000000000E+00 -0.00000000000E+00 -0.21629190259E+04  0.21629190259E+04  0.25500000000E-02 0.  1.
    5000001    1    1    2    0    0  0.38178536238E+03  0.31177893666E+03 -0.61617938291E+03  0.79923225673E+03  0.12700000000E+03 0.  0.
   -5000001    1    1    2    0    0 -0.38178536238E+03 -0.31177893666E+03 -0.14107016584E+04  0.14997247538E+04  0.12700000000E+03 0.  0.
<mgrwt>
<rscale>  0 0.10848763E+04</rscale>
<asrwt>0</asrwt>
<pdfrwt beam="1">  1        2 0.30898841E+00 0.10848763E+04</pdfrwt>
<pdfrwt beam="2">  1       -2 0.19433999E-01 0.10848763E+04</pdfrwt>
<totfact> 0.14803925E+02</totfact>
</mgrwt>
</event>
<event>
 4    1  0.1383574E-004  0.2940695E+03  0.7818608E-02  0.1088243E+00
          2   -1    0    0  501    0  0.00000000000E+00  0.00000000000E+00  0.19552112833E+04  0.19552112833E+04  0.25500000000E-02 0.  1.
         -2   -1    0    0    0  501 -0.00000000000E+00 -0.00000000000E+00 -0.11057228207E+02  0.11057228501E+02  0.25500000000E-02 0. -1.
    5000001    1    1    2    0    0  0.11012450397E+02 -0.60344814674E+02  0.12499812836E+04  0.12579129461E+04  0.12700000000E+03 0.  0.
   -5000001    1    1    2    0    0 -0.11012450397E+02  0.60344814674E+02  0.69417277154E+03  0.70835556571E+03  0.12700000000E+03 0.  0.
<mgrwt>
<rscale>  0 0.29406950E+03</rscale>
<asrwt>0</asrwt>
<pdfrwt beam="1">  1        2 0.27931544E+00 0.29406950E+03</pdfrwt>
<pdfrwt beam="2">  1       -2 0.15796067E-02 0.29406950E+03</pdfrwt>
<totfact> 0.10172740E+04</totfact>
</mgrwt>
</event>
<event>
 4    1  0.1383574E-004  0.4980626E+03  0.7818608E-02  0.1014286E+00
         -2   -1    0    0    0  501 -0.00000000000E+00  0.00000000000E+00  0.71955934426E+03  0.71955934427E+03  0.25500000000E-02 0. -1.
          2   -1    0    0  501    0  0.00000000000E+00 -0.00000000000E+00 -0.86186913470E+02  0.86186913508E+02  0.25500000000E-02 0.  1.
    5000001    1    1    2    0    0  0.16239778793E+03 -0.24161873932E+02  0.94099947238E+02  0.22790488750E+03  0.12700000000E+03 0.  0.
   -5000001    1    1    2    0    0 -0.16239778793E+03  0.24161873932E+02  0.53927248355E+03  0.57784137027E+03  0.12700000000E+03 0.  0.
<mgrwt>
<rscale>  0 0.49806264E+03</rscale>
<asrwt>0</asrwt>
<pdfrwt beam="1">  1        2 0.12312416E-01 0.49806264E+03</pdfrwt>
<pdfrwt beam="2">  1       -2 0.10279420E+00 0.49806264E+03</pdfrwt>
<totfact> 0.39977346E+02</totfact>
</mgrwt>
</event>
<event>
 4    1  0.1383574E-004  0.2861114E+03  0.7818608E-02  0.1092397E+00
         -2   -1    0    0    0  501 -0.00000000000E+00  0.00000000000E+00  0.12731815346E+02  0.12731815601E+02  0.25500000000E-02 0. -1.
          2   -1    0    0  501    0  0.00000000000E+00 -0.00000000000E+00 -0.16073850201E+04  0.16073850201E+04  0.25500000000E-02 0.  1.
    5000001    1    1    2    0    0  0.21890752196E+02  0.52042281966E+02 -0.98921277728E+03  0.99892868759E+03  0.12700000000E+03 0.  0.
   -5000001    1    1    2    0    0 -0.21890752196E+02 -0.52042281966E+02 -0.60544042747E+03  0.62118814812E+03  0.12700000000E+03 0.  0.
<mgrwt>
<rscale>  0 0.28611137E+03</rscale>
<asrwt>0</asrwt>
<pdfrwt beam="1">  1        2 0.22962630E+00 0.28611137E+03</pdfrwt>
<pdfrwt beam="2">  1       -2 0.18188318E-02 0.28611137E+03</pdfrwt>
<totfact> 0.12259527E+04</totfact>
</mgrwt>
</event>
<event>
 4    1  0.1383574E-004  0.4403348E+03  0.7818608E-02  0.1030644E+00
          2   -1    0    0  501    0  0.00000000000E+00  0.00000000000E+00  0.21465791699E+04  0.21465791699E+04  0.25500000000E-02 0.  1.
         -2   -1    0    0    0  501 -0.00000000000E+00 -0.00000000000E+00 -0.22581824656E+02  0.22581824800E+02  0.25500000000E-02 0. -1.
    5000001    1    1    2    0    0  0.60287210753E+02 -0.15515094769E+03  0.72650161489E+03  0.75606875401E+03  0.12700000000E+03 0.  0.
   -5000001    1    1    2    0    0 -0.60287210753E+02  0.15515094769E+03  0.13974957304E+04  0.14130922407E+04  0.12700000000E+03 0.  0.
<mgrwt>
<rscale>  0 0.44033476E+03</rscale>
<asrwt>0</asrwt>
<pdfrwt beam="1">  1        2 0.30665415E+00 0.44033476E+03</pdfrwt>
<pdfrwt beam="2">  1       -2 0.32259751E-02 0.44033476E+03</pdfrwt>
<totfact> 0.28270283E+03</totfact>
</mgrwt>
</event>
<event>
 4    1  0.1383574E-004  0.7132066E+03  0.7818608E-02  0.9694910E-01
          2   -1    0    0  501    0  0.00000000000E+00  0.00000000000E+00  0.50444335597E+03  0.50444335598E+03  0.25500000000E-02 0.  1.
         -2   -1    0    0    0  501 -0.00000000000E+00 -0.00000000000E+00 -0.25209155127E+03  0.25209155129E+03  0.25500000000E-02 0. -1.
    5000001    1    1    2    0    0 -0.23489034852E+03 -0.15064505440E+03 -0.67013406705E+02  0.31382671161E+03  0.12700000000E+03 0.  0.
   -5000001    1    1    2    0    0  0.23489034852E+03  0.15064505440E+03  0.31936521140E+03  0.44270819565E+03  0.12700000000E+03 0.  0.
<mgrwt>
<rscale>  0 0.71320658E+03</rscale>
<asrwt>0</asrwt>
<pdfrwt beam="1">  1        2 0.72063335E-01 0.71320658E+03</pdfrwt>
<pdfrwt beam="2">  1       -2 0.36013080E-01 0.71320658E+03</pdfrwt>
<totfact> 0.48471202E+02</totfact>
</mgrwt>
</event>
<event>
 4    1  0.1383574E-004  0.3699943E+03  0.7818608E-02  0.1054695E+00
         -2   -1    0    0    0  501 -0.00000000000E+00  0.00000000000E+00  0.19329597529E+03  0.19329597530E+03  0.25500000000E-02 0. -1.
          2   -1    0    0  501    0  0.00000000000E+00 -0.00000000000E+00 -0.17705462304E+03  0.17705462306E+03  0.25500000000E-02 0.  1.
    5000001    1    1    2    0    0  0.72331327685E+01  0.13314700541E+03  0.25871980216E+02  0.18595376473E+03  0.12700000000E+03 0.  0.
   -5000001    1    1    2    0    0 -0.72331327685E+01 -0.13314700541E+03 -0.96306279711E+01  0.18439683363E+03  0.12700000000E+03 0.  0.
<mgrwt>
<rscale>  0 0.36999430E+03</rscale>
<asrwt>0</asrwt>
<pdfrwt beam="1">  1        2 0.25293518E-01 0.36999430E+03</pdfrwt>
<pdfrwt beam="2">  1       -2 0.27613711E-01 0.36999430E+03</pdfrwt>
<totfact> 0.25397958E+03</totfact>
</mgrwt>
</event>
<event>
 4    1  0.1383574E-004  0.4419228E+03  0.7818608E-02  0.1030158E+00
         -2   -1    0    0    0  501 -0.00000000000E+00  0.00000000000E+00  0.10892344494E+03  0.10892344497E+03  0.25500000000E-02 0. -1.
          2   -1    0    0  501    0  0.00000000000E+00 -0.00000000000E+00 -0.44824090245E+03  0.44824090245E+03  0.25500000000E-02 0.  1.
    5000001    1    1    2    0    0  0.25703011542E+02 -0.16756692976E+03 -0.90364000200E+02  0.23029106210E+03  0.12700000000E+03 0.  0.
   -5000001    1    1    2    0    0 -0.25703011542E+02  0.16756692976E+03 -0.24895345731E+03  0.32687328532E+03  0.12700000000E+03 0.  0.
<mgrwt>
<rscale>  0 0.44192281E+03</rscale>
<asrwt>0</asrwt>
<pdfrwt beam="1">  1        2 0.64034414E-01 0.44192281E+03</pdfrwt>
<pdfrwt beam="2">  1       -2 0.15560492E-01 0.44192281E+03</pdfrwt>
<totfact> 0.24792637E+03</totfact>
</mgrwt>
</event>
<event>
 4    1  0.1383574E-004  0.3555092E+03  0.7818608E-02  0.1060376E+00
          2   -1    0    0  501    0  0.00000000000E+00  0.00000000000E+00  0.74998190564E+03  0.74998190565E+03  0.25500000000E-02 0.  1.
         -2   -1    0    0    0  501 -0.00000000000E+00 -0.00000000000E+00 -0.42129949839E+02  0.42129949916E+02  0.25500000000E-02 0. -1.
    5000001    1    1    2    0    0 -0.99857335006E+02  0.67026272246E+02  0.28333717899E+03  0.33297592334E+03  0.12700000000E+03 0.  0.
   -5000001    1    1    2    0    0  0.99857335006E+02 -0.67026272246E+02  0.42451477681E+03  0.45913593222E+03  0.12700000000E+03 0.  0.
<mgrwt>
<rscale>  0 0.35550921E+03</rscale>
<asrwt>0</asrwt>
<pdfrwt beam="1">  1        2 0.10714027E+00 0.35550921E+03</pdfrwt>
<pdfrwt beam="2">  1       -2 0.60185642E-02 0.35550921E+03</pdfrwt>
<totfact> 0.62504334E+03</totfact>
</mgrwt>
</event>
<event>
 4    1  0.1383574E-004  0.8964615E+03  0.7818608E-02  0.9430016E-01
         -2   -1    0    0    0  501 -0.00000000000E+00  0.00000000000E+00  0.10844113739E+04  0.10844113739E+04  0.25500000000E-02 0. -1.
          2   -1    0    0  501    0  0.00000000000E+00 -0.00000000000E+00 -0.18527174601E+03  0.18527174603E+03  0.25500000000E-02 0.  1.
    5000001    1    1    2    0    0  0.36737712359E+03 -0.18128022594E+03  0.26515701164E+03  0.50424766938E+03  0.12700000000E+03 0.  0.
   -5000001    1    1    2    0    0 -0.36737712359E+03  0.18128022594E+03  0.63398261627E+03  0.76543545057E+03  0.12700000000E+03 0.  0.
<mgrwt>
<rscale>  0 0.89646146E+03</rscale>
<asrwt>0</asrwt>
<pdfrwt beam="1">  1        2 0.26467393E-01 0.89646146E+03</pdfrwt>
<pdfrwt beam="2">  1       -2 0.15491591E+00 0.89646146E+03</pdfrwt>
<totfact> 0.56663382E+01</totfact>
</mgrwt>
</event>
<event>
 4    1  0.1383574E-004  0.3466397E+03  0.7818608E-02  0.1064003E+00
          2   -1    0    0  501    0  0.00000000000E+00  0.00000000000E+00  0.21641561542E+04  0.21641561542E+04  0.25500000000E-02 0.  1.
         -2   -1    0    0    0  501 -0.00000000000E+00 -0.00000000000E+00 -0.13880590280E+02  0.13880590514E+02  0.25500000000E-02 0. -1.
    5000001    1    1    2    0    0  0.37016989952E+02  0.11175524174E+03  0.10301459612E+04  0.10446000158E+04  0.12700000000E+03 0.  0.
   -5000001    1    1    2    0    0 -0.37016989952E+02 -0.11175524174E+03  0.11201296028E+04  0.11334367290E+04  0.12700000000E+03 0.  0.
<mgrwt>
<rscale>  0 0.34663967E+03</rscale>
<asrwt>0</asrwt>
<pdfrwt beam="1">  1        2 0.30916505E+00 0.34663967E+03</pdfrwt>
<pdfrwt beam="2">  1       -2 0.19829422E-02 0.34663967E+03</pdfrwt>
<totfact> 0.57517899E+03</totfact>
</mgrwt>
</event>
<event>
 4    1  0.1383574E-004  0.4771131E+03  0.7818608E-02  0.1019932E+00
          2   -1    0    0  501    0  0.00000000000E+00  0.00000000000E+00  0.42311921131E+04  0.42311921131E+04  0.25500000000E-02 0.  1.
         -2   -1    0    0    0  501 -0.00000000000E+00 -0.00000000000E+00 -0.13449926358E+02  0.13449926599E+02  0.25500000000E-02 0. -1.
    5000001    1    1    2    0    0 -0.12269045147E+03  0.12989510122E+03  0.12717221822E+04  0.12904774283E+04  0.12700000000E+03 0.  0.
   -5000001    1    1    2    0    0  0.12269045147E+03 -0.12989510122E+03  0.29460200046E+04  0.29541646115E+04  0.12700000000E+03 0.  0.
<mgrwt>
<rscale>  0 0.47711308E+03</rscale>
<asrwt>0</asrwt>
<pdfrwt beam="1">  1        2 0.60445553E+00 0.47711308E+03</pdfrwt>
<pdfrwt beam="2">  1       -2 0.19214196E-02 0.47711308E+03</pdfrwt>
<totfact> 0.39620061E+02</totfact>
</mgrwt>
</event>
<event>
 4    1  0.1383574E-004  0.4620324E+03  0.7818608E-02  0.1024193E+00
          2   -1    0    0  501    0  0.00000000000E+00  0.00000000000E+00  0.35643454271E+04  0.35643454271E+04  0.25500000000E-02 0.  1.
         -2   -1    0    0    0  501 -0.00000000000E+00 -0.00000000000E+00 -0.14972870496E+02  0.14972870713E+02  0.25500000000E-02 0. -1.
    5000001    1    1    2    0    0 -0.31847851153E+02  0.11566329040E+03  0.60371998779E+03  0.62848954329E+03  0.12700000000E+03 0.  0.
   -5000001    1    1    2    0    0  0.31847851153E+02 -0.11566329040E+03  0.29456525688E+04  0.29508287545E+04  0.12700000000E+03 0.  0.
<mgrwt>
<rscale>  0 0.46203239E+03</rscale>
<asrwt>0</asrwt>
<pdfrwt beam="1">  1        2 0.50919252E+00 0.46203239E+03</pdfrwt>
<pdfrwt beam="2">  1       -2 0.21389802E-02 0.46203239E+03</pdfrwt>
<totfact> 0.91420747E+02</totfact>
</mgrwt>
</event>
<event>
 4    1  0.1383574E-004  0.6797006E+03  0.7818608E-02  0.9752591E-01
         -2   -1    0    0    0  501 -0.00000000000E+00  0.00000000000E+00  0.17959795557E+03  0.17959795559E+03  0.25500000000E-02 0. -1.
          2   -1    0    0  501    0  0.00000000000E+00 -0.00000000000E+00 -0.64309322430E+03  0.64309322431E+03  0.25500000000E-02 0.  1.
    5000001    1    1    2    0    0  0.96306370858E+02 -0.28363225651E+03 -0.11286551286E+03  0.34436869485E+03  0.12700000000E+03 0.  0.
   -5000001    1    1    2    0    0 -0.96306370858E+02  0.28363225651E+03 -0.35062975587E+03  0.47832248505E+03  0.12700000000E+03 0.  0.
<mgrwt>
<rscale>  0 0.67970061E+03</rscale>
<asrwt>0</asrwt>
<pdfrwt beam="1">  1        2 0.91870459E-01 0.67970061E+03</pdfrwt>
<pdfrwt beam="2">  1       -2 0.25656851E-01 0.67970061E+03</pdfrwt>
<totfact> 0.68522465E+02</totfact>
</mgrwt>
</event>
<event>
 4    1  0.1383574E-004  0.3430747E+03  0.7818608E-02  0.1065494E+00
         -2   -1    0    0    0  501 -0.00000000000E+00  0.00000000000E+00  0.79875619423E+02  0.79875619463E+02  0.25500000000E-02 0. -1.
          2   -1    0    0  501    0  0.00000000000E+00 -0.00000000000E+00 -0.36838594098E+03  0.36838594099E+03  0.25500000000E-02 0.  1.
    5000001    1    1    2    0    0 -0.64815056677E+02  0.45771801726E+02 -0.25357325714E+03  0.29449014609E+03  0.12700000000E+03 0.  0.
   -5000001    1    1    2    0    0  0.64815056677E+02 -0.45771801726E+02 -0.34937064413E+02  0.15377141436E+03  0.12700000000E+03 0.  0.
<mgrwt>
<rscale>  0 0.34307466E+03</rscale>
<asrwt>0</asrwt>
<pdfrwt beam="1">  1        2 0.52626562E-01 0.34307466E+03</pdfrwt>
<pdfrwt beam="2">  1       -2 0.11410803E-01 0.34307466E+03</pdfrwt>
<totfact> 0.50996812E+03</totfact>
</mgrwt>
</event>
<event>
 4    1  0.1383574E-004  0.2993178E+03  0.7818608E-02  0.1085582E+00
         -2   -1    0    0    0  501 -0.00000000000E+00  0.00000000000E+00  0.63313857765E+02  0.63313857816E+02  0.25500000000E-02 0. -1.
          2   -1    0    0  501    0  0.00000000000E+00 -0.00000000000E+00 -0.35375808077E+03  0.35375808078E+03  0.25500000000E-02 0.  1.
    5000001    1    1    2    0    0  0.48317973672E+02 -0.33146502844E+01 -0.23249859937E+03  0.26931433715E+03  0.12700000000E+03 0.  0.
   -5000001    1    1    2    0    0 -0.48317973672E+02  0.33146502844E+01 -0.57945623638E+02  0.14775760145E+03  0.12700000000E+03 0.  0.
<mgrwt>
<rscale>  0 0.29931782E+03</rscale>
<asrwt>0</asrwt>
<pdfrwt beam="1">  1        2 0.50536867E-01 0.29931782E+03</pdfrwt>
<pdfrwt beam="2">  1       -2 0.90448370E-02 0.29931782E+03</pdfrwt>
<totfact> 0.76908633E+03</totfact>
</mgrwt>
</event>
<event>
 4    1  0.1383574E-004  0.4116810E+03  0.7818608E-02  0.1039808E+00
          2   -1    0    0  501    0  0.00000000000E+00  0.00000000000E+00  0.11417106792E+04  0.11417106792E+04  0.25500000000E-02 0.  1.
         -2   -1    0    0    0  501 -0.00000000000E+00 -0.00000000000E+00 -0.37111245977E+02  0.37111246064E+02  0.25500000000E-02 0. -1.
    5000001    1    1    2    0    0  0.52528888035E+01  0.16026814350E+03  0.48651324393E+03  0.52776662189E+03  0.12700000000E+03 0.  0.
   -5000001    1    1    2    0    0 -0.52528888035E+01 -0.16026814350E+03  0.61808618931E+03  0.65105530340E+03  0.12700000000E+03 0.  0.
<mgrwt>
<rscale>  0 0.41168097E+03</rscale>
<asrwt>0</asrwt>
<pdfrwt beam="1">  1        2 0.16310155E+00 0.41168097E+03</pdfrwt>
<pdfrwt beam="2">  1       -2 0.53016059E-02 0.41168097E+03</pdfrwt>
<totfact> 0.43431125E+03</totfact>
</mgrwt>
</event>
<event>
 4    1  0.1383574E-004  0.6077510E+03  0.7818608E-02  0.9889454E-01
         -2   -1    0    0    0  501 -0.00000000000E+00  0.00000000000E+00  0.49312350447E+02  0.49312350513E+02  0.25500000000E-02 0. -1.
          2   -1    0    0  501    0  0.00000000000E+00 -0.00000000000E+00 -0.18725594390E+04  0.18725594390E+04  0.25500000000E-02 0.  1.
    5000001    1    1    2    0    0 -0.21688495042E+03  0.16277228826E+03 -0.10752509411E+04  0.11161664239E+04  0.12700000000E+03 0.  0.
   -5000001    1    1    2    0    0  0.21688495042E+03 -0.16277228826E+03 -0.74799614746E+03  0.80570536560E+03  0.12700000000E+03 0.  0.
<mgrwt>
<rscale>  0 0.60775096E+03</rscale>
<asrwt>0</asrwt>
<pdfrwt beam="1">  1        2 0.26750845E+00 0.60775096E+03</pdfrwt>
<pdfrwt beam="2">  1       -2 0.70446227E-02 0.60775096E+03</pdfrwt>
<totfact> 0.11515478E+03</totfact>
</mgrwt>
</event>
<event>
 4    1  0.1383574E-004  0.3741794E+03  0.7818608E-02  0.1053106E+00
         -2   -1    0    0    0  501 -0.00000000000E+00  0.00000000000E+00  0.66426553201E+02  0.66426553250E+02  0.25500000000E-02 0. -1.
          2   -1    0    0  501    0  0.00000000000E+00 -0.00000000000E+00 -0.52693632263E+03  0.52693632264E+03  0.25500000000E-02 0.  1.
    5000001    1    1    2    0    0  0.11021128190E+03  0.78826066720E+02 -0.26618889565E+03  0.32456987479E+03  0.12700000000E+03 0.  0.
   -5000001    1    1    2    0    0 -0.11021128190E+03 -0.78826066720E+02 -0.19432087378E+03  0.26879300110E+03  0.12700000000E+03 0.  0.
<mgrwt>
<rscale>  0 0.37417944E+03</rscale>
<asrwt>0</asrwt>
<pdfrwt beam="1">  1        2 0.75276616E-01 0.37417944E+03</pdfrwt>
<pdfrwt beam="2">  1       -2 0.94895079E-02 0.37417944E+03</pdfrwt>
<totfact> 0.46299106E+03</totfact>
</mgrwt>
</event>
<event>
 4    1  0.1383574E-004  0.5115804E+03  0.7818608E-02  0.1010800E+00
         -2   -1    0    0    0  501 -0.00000000000E+00  0.00000000000E+00  0.37299456697E+02  0.37299456784E+02  0.25500000000E-02 0. -1.
          2   -1    0    0  501    0  0.00000000000E+00 -0.00000000000E+00 -0.17541443837E+04  0.17541443837E+04  0.25500000000E-02 0.  1.
    5000001    1    1    2    0    0  0.21119976927E+03 -0.57606677920E+02 -0.72853694664E+03  0.77124506773E+03  0.12700000000E+03 0.  0.
   -5000001    1    1    2    0    0 -0.21119976927E+03  0.57606677920E+02 -0.98830798033E+03  0.10201987727E+04  0.12700000000E+03 0.  0.
<mgrwt>
<rscale>  0 0.51158042E+03</rscale>
<asrwt>0</asrwt>
<pdfrwt beam="1">  1        2 0.25059200E+00 0.51158042E+03</pdfrwt>
<pdfrwt beam="2">  1       -2 0.53284949E-02 0.51158042E+03</pdfrwt>
<totfact> 0.20534830E+03</totfact>
</mgrwt>
</event>
<event>
 4    1  0.1383574E-004  0.7233771E+03  0.7818608E-02  0.9678069E-01
          2   -1    0    0  501    0  0.00000000000E+00  0.00000000000E+00  0.14023894241E+03  0.14023894243E+03  0.25500000000E-02 0.  1.
         -2   -1    0    0    0  501 -0.00000000000E+00 -0.00000000000E+00 -0.93282662644E+03  0.93282662645E+03  0.25500000000E-02 0. -1.
    5000001    1    1    2    0    0 -0.29139000530E+03 -0.14028639359E+03 -0.24720393996E+03  0.42641200187E+03  0.12700000000E+03 0.  0.
   -5000001    1    1    2    0    0  0.29139000530E+03  0.14028639359E+03 -0.54538374408E+03  0.64665356700E+03  0.12700000000E+03 0.  0.
<mgrwt>
<rscale>  0 0.72337713E+03</rscale>
<asrwt>0</asrwt>
<pdfrwt beam="1">  1        2 0.20034135E-01 0.72337713E+03</pdfrwt>
<pdfrwt beam="2">  1       -2 0.13326094E+00 0.72337713E+03</pdfrwt>
<totfact> 0.11691090E+02</totfact>
</mgrwt>
</event>
<event>
 4    1  0.1383574E-004  0.4023876E+03  0.7818608E-02  0.1042956E+00
          2   -1    0    0  501    0  0.00000000000E+00  0.00000000000E+00  0.43197434320E+03  0.43197434321E+03  0.25500000000E-02 0.  1.
         -2   -1    0    0    0  501 -0.00000000000E+00 -0.00000000000E+00 -0.93706804665E+02  0.93706804699E+02  0.25500000000E-02 0. -1.
    5000001    1    1    2    0    0  0.11663261361E+03  0.10136823307E+03  0.14077393887E+03  0.24459146980E+03  0.12700000000E+03 0.  0.
   -5000001    1    1    2    0    0 -0.11663261361E+03 -0.10136823307E+03  0.19749359967E+03  0.28108967811E+03  0.12700000000E+03 0.  0.
<mgrwt>
<rscale>  0 0.40238755E+03</rscale>
<asrwt>0</asrwt>
<pdfrwt beam="1">  1        2 0.61710620E-01 0.40238755E+03</pdfrwt>
<pdfrwt beam="2">  1       -2 0.13386686E-01 0.40238755E+03</pdfrwt>
<totfact> 0.33128902E+03</totfact>
</mgrwt>
</event>
<event>
 4    1  0.1383574E-004  0.4608610E+03  0.7818608E-02  0.1024532E+00
         -2   -1    0    0    0  501 -0.00000000000E+00  0.00000000000E+00  0.94460852176E+02  0.94460852211E+02  0.25500000000E-02 0. -1.
          2   -1    0    0  501    0  0.00000000000E+00 -0.00000000000E+00 -0.56211881491E+03  0.56211881491E+03  0.25500000000E-02 0.  1.
    5000001    1    1    2    0    0  0.11683356066E+03  0.14844159148E+03 -0.28488415384E+03  0.36465458736E+03  0.12700000000E+03 0.  0.
   -5000001    1    1    2    0    0 -0.11683356066E+03 -0.14844159148E+03 -0.18277380889E+03  0.29192507976E+03  0.12700000000E+03 0.  0.
<mgrwt>
<rscale>  0 0.46086103E+03</rscale>
<asrwt>0</asrwt>
<pdfrwt beam="1">  1        2 0.80302686E-01 0.46086103E+03</pdfrwt>
<pdfrwt beam="2">  1       -2 0.13494408E-01 0.46086103E+03</pdfrwt>
<totfact> 0.24358387E+03</totfact>
</mgrwt>
</event>
<event>
 4    1  0.1383574E-004  0.3953512E+03  0.7818608E-02  0.1045401E+00
          2   -1    0    0  501    0  0.00000000000E+00  0.00000000000E+00  0.10504266693E+03  0.10504266696E+03  0.25500000000E-02 0.  1.
         -2   -1    0    0    0  501 -0.00000000000E+00 -0.00000000000E+00 -0.37199783675E+03  0.37199783676E+03  0.25500000000E-02 0. -1.
    5000001    1    1    2    0    0  0.12614322524E+03  0.64049184788E+02 -0.68138738875E+02  0.20195618109E+03  0.12700000000E+03 0.  0.
   -5000001    1    1    2    0    0 -0.12614322524E+03 -0.64049184788E+02 -0.19881643095E+03  0.27508432263E+03  0.12700000000E+03 0.  0.
<mgrwt>
<rscale>  0 0.39535121E+03</rscale>
<asrwt>0</asrwt>
<pdfrwt beam="1">  1        2 0.15006095E-01 0.39535121E+03</pdfrwt>
<pdfrwt beam="2">  1       -2 0.53142547E-01 0.39535121E+03</pdfrwt>
<totfact> 0.13329604E+03</totfact>
</mgrwt>
</event>
<event>
 4    1  0.1383574E-004  0.5989621E+03  0.7818608E-02  0.9907562E-01
         -2   -1    0    0    0  501 -0.00000000000E+00  0.00000000000E+00  0.28326137695E+02  0.28326137809E+02  0.25500000000E-02 0. -1.
          2   -1    0    0  501    0  0.00000000000E+00 -0.00000000000E+00 -0.31662943813E+04  0.31662943813E+04  0.25500000000E-02 0.  1.
    5000001    1    1    2    0    0 -0.27569188448E+02  0.90498026461E+02 -0.21326532878E+03  0.26563330628E+03  0.12700000000E+03 0.  0.
   -5000001    1    1    2    0    0  0.27569188448E+02 -0.90498026461E+02 -0.29247029148E+04  0.29289872128E+04  0.12700000000E+03 0.  0.
<mgrwt>
<rscale>  0 0.59896207E+03</rscale>
<asrwt>0</asrwt>
<pdfrwt beam="1">  1        2 0.45232754E+00 0.59896207E+03</pdfrwt>
<pdfrwt beam="2">  1       -2 0.40465931E-02 0.59896207E+03</pdfrwt>
<totfact> 0.58119426E+02</totfact>
</mgrwt>
</event>
<event>
 4    1  0.1383574E-004  0.3313086E+03  0.7818608E-02  0.1070559E+00
         -2   -1    0    0    0  501 -0.00000000000E+00  0.00000000000E+00  0.19428711393E+02  0.19428711560E+02  0.25500000000E-02 0. -1.
          2   -1    0    0  501    0  0.00000000000E+00 -0.00000000000E+00 -0.14124117968E+04  0.14124117968E+04  0.25500000000E-02 0.  1.
    5000001    1    1    2    0    0 -0.10551618604E+03 -0.11863631883E+02 -0.72310819671E+03  0.74181458292E+03  0.12700000000E+03 0.  0.
   -5000001    1    1    2    0    0  0.10551618604E+03  0.11863631883E+02 -0.66987488867E+03  0.69002592542E+03  0.12700000000E+03 0.  0.
<mgrwt>
<rscale>  0 0.33130856E+03</rscale>
<asrwt>0</asrwt>
<pdfrwt beam="1">  1        2 0.20177305E+00 0.33130856E+03</pdfrwt>
<pdfrwt beam="2">  1       -2 0.27755311E-02 0.33130856E+03</pdfrwt>
<totfact> 0.82574689E+03</totfact>
</mgrwt>
</event>
<event>
 4    1  0.1383574E-004  0.4410492E+03  0.7818608E-02  0.1030425E+00
         -2   -1    0    0    0  501 -0.00000000000E+00  0.00000000000E+00  0.43198082839E+02  0.43198082915E+02  0.25500000000E-02 0. -1.
          2   -1    0    0  501    0  0.00000000000E+00 -0.00000000000E+00 -0.11257698356E+04  0.11257698356E+04  0.25500000000E-02 0.  1.
    5000001    1    1    2    0    0 -0.10212742126E+03 -0.45827399260E+02 -0.16672219879E+03  0.23760356114E+03  0.12700000000E+03 0.  0.
   -5000001    1    1    2    0    0  0.10212742126E+03  0.45827399260E+02 -0.91584955400E+03  0.93136435741E+03  0.12700000000E+03 0.  0.
<mgrwt>
<rscale>  0 0.44104920E+03</rscale>
<asrwt>0</asrwt>
<pdfrwt beam="1">  1        2 0.16082424E+00 0.44104920E+03</pdfrwt>
<pdfrwt beam="2">  1       -2 0.61711554E-02 0.44104920E+03</pdfrwt>
<totfact> 0.35064008E+03</totfact>
</mgrwt>
</event>
<event>
 4    1  0.1383574E-004  0.2848613E+03  0.7818608E-02  0.1093063E+00
         -2   -1    0    0    0  501 -0.00000000000E+00  0.00000000000E+00  0.16500127599E+02  0.16500127796E+02  0.25500000000E-02 0. -1.
          2   -1    0    0  501    0  0.00000000000E+00 -0.00000000000E+00 -0.12294748529E+04  0.12294748529E+04  0.25500000000E-02 0.  1.
    5000001    1    1    2    0    0 -0.53144906642E+02 -0.17282243291E+02 -0.74716577568E+03  0.75993996696E+03  0.12700000000E+03 0.  0.
   -5000001    1    1    2    0    0  0.53144906642E+02  0.17282243291E+02 -0.46580894966E+03  0.48603501377E+03  0.12700000000E+03 0.  0.
<mgrwt>
<rscale>  0 0.28486131E+03</rscale>
<asrwt>0</asrwt>
<pdfrwt beam="1">  1        2 0.17563921E+00 0.28486131E+03</pdfrwt>
<pdfrwt beam="2">  1       -2 0.23571619E-02 0.28486131E+03</pdfrwt>
<totfact> 0.13093456E+04</totfact>
</mgrwt>
</event>
<event>
 4    1  0.1383574E-004  0.4049452E+03  0.7818608E-02  0.1042081E+00
         -2   -1    0    0    0  501 -0.00000000000E+00  0.00000000000E+00  0.15844151476E+03  0.15844151478E+03  0.25500000000E-02 0. -1.
          2   -1    0    0  501    0  0.00000000000E+00 -0.00000000000E+00 -0.25874002322E+03  0.25874002324E+03  0.25500000000E-02 0.  1.
    5000001    1    1    2    0    0  0.14904207912E+03 -0.65557106594E+00  0.29063311082E+01  0.19583518040E+03  0.12700000000E+03 0.  0.
   -5000001    1    1    2    0    0 -0.14904207912E+03  0.65557106594E+00 -0.10320483957E+03  0.22134635762E+03  0.12700000000E+03 0.  0.
<mgrwt>
<rscale>  0 0.40494524E+03</rscale>
<asrwt>0</asrwt>
<pdfrwt beam="1">  1        2 0.36962860E-01 0.40494524E+03</pdfrwt>
<pdfrwt beam="2">  1       -2 0.22634502E-01 0.40494524E+03</pdfrwt>
<totfact> 0.23785630E+03</totfact>
</mgrwt>
</event>
<event>
 4    1  0.1383574E-004  0.3092103E+03  0.7818608E-02  0.1080725E+00
         -2   -1    0    0    0  501 -0.00000000000E+00  0.00000000000E+00  0.68887157699E+01  0.68887162419E+01  0.25500000000E-02 0. -1.
          2   -1    0    0  501    0  0.00000000000E+00 -0.00000000000E+00 -0.34698421922E+04  0.34698421922E+04  0.25500000000E-02 0.  1.
    5000001    1    1    2    0    0 -0.33989475547E+02 -0.76480966319E+02 -0.14196464403E+04  0.14277708633E+04  0.12700000000E+03 0.  0.
   -5000001    1    1    2    0    0  0.33989475547E+02  0.76480966319E+02 -0.20433070362E+04  0.20489600452E+04  0.12700000000E+03 0.  0.
<mgrwt>
<rscale>  0 0.30921033E+03</rscale>
<asrwt>0</asrwt>
<pdfrwt beam="1">  1        2 0.49569062E+00 0.30921033E+03</pdfrwt>
<pdfrwt beam="2">  1       -2 0.98410451E-03 0.30921033E+03</pdfrwt>
<totfact> 0.33245936E+03</totfact>
</mgrwt>
</event>
<event>
 4    1  0.1383574E-004  0.3068287E+03  0.7818608E-02  0.1081876E+00
          2   -1    0    0  501    0  0.00000000000E+00  0.00000000000E+00  0.47532031587E+02  0.47532031656E+02  0.25500000000E-02 0.  1.
         -2   -1    0    0    0  501 -0.00000000000E+00 -0.00000000000E+00 -0.49516007469E+03  0.49516007469E+03  0.25500000000E-02 0. -1.
    5000001    1    1    2    0    0  0.35873401762E+02 -0.43039985492E+02 -0.10826918695E+03  0.17604135352E+03  0.12700000000E+03 0.  0.
   -5000001    1    1    2    0    0 -0.35873401762E+02  0.43039985492E+02 -0.33935885615E+03  0.36665075283E+03  0.12700000000E+03 0.  0.
<mgrwt>
<rscale>  0 0.30682871E+03</rscale>
<asrwt>0</asrwt>
<pdfrwt beam="1">  1        2 0.67902905E-02 0.30682871E+03</pdfrwt>
<pdfrwt beam="2">  1       -2 0.70737151E-01 0.30682871E+03</pdfrwt>
<totfact> 0.19640910E+03</totfact>
</mgrwt>
</event>
<event>
 4    1  0.1383574E-004  0.3771014E+03  0.7818608E-02  0.1052010E+00
         -2   -1    0    0    0  501 -0.00000000000E+00  0.00000000000E+00  0.87047545828E+02  0.87047545865E+02  0.25500000000E-02 0. -1.
          2   -1    0    0  501    0  0.00000000000E+00 -0.00000000000E+00 -0.40841318299E+03  0.40841318300E+03  0.25500000000E-02 0.  1.
    5000001    1    1    2    0    0  0.76549486522E+02  0.62979218822E+02 -0.28938912466E+03  0.33121182250E+03  0.12700000000E+03 0.  0.
   -5000001    1    1    2    0    0 -0.76549486522E+02 -0.62979218822E+02 -0.31976512499E+02  0.16424890636E+03  0.12700000000E+03 0.  0.
<mgrwt>
<rscale>  0 0.37710139E+03</rscale>
<asrwt>0</asrwt>
<pdfrwt beam="1">  1        2 0.58344740E-01 0.37710139E+03</pdfrwt>
<pdfrwt beam="2">  1       -2 0.12435364E-01 0.37710139E+03</pdfrwt>
<totfact> 0.39714439E+03</totfact>
</mgrwt>
</event>
<event>
 4    1  0.1383574E-004  0.3573337E+03  0.7818608E-02  0.1059645E+00
         -2   -1    0    0    0  501 -0.00000000000E+00  0.00000000000E+00  0.80437699825E+02  0.80437699865E+02  0.25500000000E-02 0. -1.
          2   -1    0    0  501    0  0.00000000000E+00 -0.00000000000E+00 -0.39685182157E+03  0.39685182157E+03  0.25500000000E-02 0.  1.
    5000001    1    1    2    0    0 -0.79803141107E+02  0.78494513431E+02 -0.23450467474E+03  0.28922546991E+03  0.12700000000E+03 0.  0.
   -5000001    1    1    2    0    0  0.79803141107E+02 -0.78494513431E+02 -0.81909446998E+02  0.18806405153E+03  0.12700000000E+03 0.  0.
<mgrwt>
<rscale>  0 0.35733372E+03</rscale>
<asrwt>0</asrwt>
<pdfrwt beam="1">  1        2 0.56693117E-01 0.35733372E+03</pdfrwt>
<pdfrwt beam="2">  1       -2 0.11491100E-01 0.35733372E+03</pdfrwt>
<totfact> 0.46540391E+03</totfact>
</mgrwt>
</event>
<event>
 4    1  0.1383574E-004  0.3010092E+03  0.7818608E-02  0.1084737E+00
          2   -1    0    0  501    0  0.00000000000E+00  0.00000000000E+00  0.16067755964E+04  0.16067755964E+04  0.25500000000E-02 0. -1.
         -2   -1    0    0    0  501 -0.00000000000E+00 -0.00000000000E+00 -0.14097572924E+02  0.14097573155E+02  0.25500000000E-02 0.  1.
    5000001    1    1    2    0    0  0.54298851992E+02 -0.23080716078E+02  0.49936609929E+03  0.51862952664E+03  0.12700000000E+03 0.  0.
   -5000001    1    1    2    0    0 -0.54298851992E+02  0.23080716078E+02  0.10933119241E+04  0.11022436429E+04  0.12700000000E+03 0.  0.
<mgrwt>
<rscale>  0 0.30100921E+03</rscale>
<asrwt>0</asrwt>
<pdfrwt beam="1">  1        2 0.22953936E+00 0.30100921E+03</pdfrwt>
<pdfrwt beam="2">  1       -2 0.20139391E-02 0.30100921E+03</pdfrwt>
<totfact> 0.10570550E+04</totfact>
</mgrwt>
</event>
<event>
 4    1  0.1383574E-004  0.1117087E+04  0.7818608E-02  0.9188696E-01
          2   -1    0    0  501    0  0.00000000000E+00  0.00000000000E+00  0.16375631762E+04  0.16375631762E+04  0.25500000000E-02 0.  1.
         -2   -1    0    0    0  501 -0.00000000000E+00 -0.00000000000E+00 -0.19050902935E+03  0.19050902937E+03  0.25500000000E-02 0. -1.
    5000001    1    1    2    0    0  0.22428367108E+03 -0.48031983353E+03  0.52423243593E+03  0.75627968006E+03  0.12700000000E+03 0.  0.
   -5000001    1    1    2    0    0 -0.22428367108E+03  0.48031983353E+03  0.92282171094E+03  0.10717925255E+04  0.12700000000E+03 0.  0.
<mgrwt>
<rscale>  0 0.11170865E+04</rscale>
<asrwt>0</asrwt>
<pdfrwt beam="1">  1        2 0.23393760E+00 0.11170865E+04</pdfrwt>
<pdfrwt beam="2">  1       -2 0.27215575E-01 0.11170865E+04</pdfrwt>
<totfact> 0.15046647E+02</totfact>
</mgrwt>
</event>
<event>
 4    1  0.1383574E-004  0.3956551E+03  0.7818608E-02  0.1045295E+00
         -2   -1    0    0    0  501 -0.00000000000E+00  0.00000000000E+00  0.11596341661E+04  0.11596341661E+04  0.25500000000E-02 0.  1.
          2   -1    0    0  501    0  0.00000000000E+00 -0.00000000000E+00 -0.33748341770E+02  0.33748341866E+02  0.25500000000E-02 0. -1.
    5000001    1    1    2    0    0  0.53850795008E+02 -0.92435054755E+02  0.88727534395E+03  0.90267972362E+03  0.12700000000E+03 0.  0.
   -5000001    1    1    2    0    0 -0.53850795008E+02  0.92435054755E+02  0.23861048034E+03  0.29070278430E+03  0.12700000000E+03 0.  0.
<mgrwt>
<rscale>  0 0.39565505E+03</rscale>
<asrwt>0</asrwt>
<pdfrwt beam="1">  1        2 0.48211921E-02 0.39565505E+03</pdfrwt>
<pdfrwt beam="2">  1       -2 0.16566201E+00 0.39565505E+03</pdfrwt>
<totfact> 0.40431002E+02</totfact>
</mgrwt>
</event>
<event>
 4    1  0.1383574E-004  0.3197312E+03  0.7818608E-02  0.1075773E+00
         -2   -1    0    0    0  501 -0.00000000000E+00  0.00000000000E+00  0.60646270630E+02  0.60646270684E+02  0.25500000000E-02 0. -1.
          2   -1    0    0  501    0  0.00000000000E+00 -0.00000000000E+00 -0.42141098975E+03  0.42141098976E+03  0.25500000000E-02 0.  1.
    5000001    1    1    2    0    0 -0.51049885500E+02 -0.56258520663E+02 -0.27155610163E+03  0.30926174722E+03  0.12700000000E+03 0.  0.
   -5000001    1    1    2    0    0  0.51049885500E+02  0.56258520663E+02 -0.89208617483E+02  0.17279551322E+03  0.12700000000E+03 0.  0.
<mgrwt>
<rscale>  0 0.31973117E+03</rscale>
<asrwt>0</asrwt>
<pdfrwt beam="1">  1        2 0.60201568E-01 0.31973117E+03</pdfrwt>
<pdfrwt beam="2">  1       -2 0.86637532E-02 0.31973117E+03</pdfrwt>
<totfact> 0.68232712E+03</totfact>
</mgrwt>
</event>
<event>
 4    1  0.1383574E-004  0.2687309E+03  0.7818608E-02  0.1102008E+00
          2   -1    0    0  501    0  0.00000000000E+00  0.00000000000E+00  0.14347095982E+04  0.14347095982E+04  0.25500000000E-02 0.  1.
         -2   -1    0    0    0  501 -0.00000000000E+00 -0.00000000000E+00 -0.12583779817E+02  0.12583780075E+02  0.25500000000E-02 0. -1.
    5000001    1    1    2    0    0  0.24023125261E+02 -0.36708739202E+02  0.71458544712E+03  0.72710797225E+03  0.12700000000E+03 0.  0.
   -5000001    1    1    2    0    0 -0.24023125261E+02  0.36708739202E+02  0.70754037128E+03  0.72018540604E+03  0.12700000000E+03 0.  0.
<mgrwt>
<rscale>  0 0.26873087E+03</rscale>
<asrwt>0</asrwt>
<pdfrwt beam="1">  1        2 0.20495851E+00 0.26873087E+03</pdfrwt>
<pdfrwt beam="2">  1       -2 0.17976829E-02 0.26873087E+03</pdfrwt>
<totfact> 0.15211489E+04</totfact>
</mgrwt>
</event>
<event>
 4    1  0.1383574E-004  0.4142268E+03  0.7818608E-02  0.1038962E+00
          2   -1    0    0  501    0  0.00000000000E+00  0.00000000000E+00  0.13173933476E+04  0.13173933476E+04  0.25500000000E-02 0.  1.
         -2   -1    0    0    0  501 -0.00000000000E+00 -0.00000000000E+00 -0.32561237449E+02  0.32561237549E+02  0.25500000000E-02 0. -1.
    5000001    1    1    2    0    0 -0.10242170625E+03 -0.11911687411E+03  0.79133094358E+03  0.81670845342E+03  0.12700000000E+03 0.  0.
   -5000001    1    1    2    0    0  0.10242170625E+03  0.11911687411E+03  0.49350116657E+03  0.53324613174E+03  0.12700000000E+03 0.  0.
<mgrwt>
<rscale>  0 0.41422679E+03</rscale>
<asrwt>0</asrwt>
<pdfrwt beam="1">  1        2 0.18819903E+00 0.41422679E+03</pdfrwt>
<pdfrwt beam="2">  1       -2 0.46516058E-02 0.41422679E+03</pdfrwt>
<totfact> 0.42550235E+03</totfact>
</mgrwt>
</event>
<event>
 4    1  0.1383574E-004  0.5210290E+03  0.7818608E-02  0.1008431E+00
          2   -1    0    0  501    0  0.00000000000E+00  0.00000000000E+00  0.78801414790E+03  0.78801414791E+03  0.25500000000E-02 0.  1.
         -2   -1    0    0    0  501 -0.00000000000E+00 -0.00000000000E+00 -0.86125109593E+02  0.86125109631E+02  0.25500000000E-02 0. -1.
    5000001    1    1    2    0    0 -0.14441501689E+03 -0.52805178665E+02  0.69734306570E+02  0.21127223554E+03  0.12700000000E+03 0.  0.
   -5000001    1    1    2    0    0  0.14441501689E+03  0.52805178665E+02  0.63215473174E+03  0.66286702200E+03  0.12700000000E+03 0.  0.
<mgrwt>
<rscale>  0 0.52102900E+03</rscale>
<asrwt>0</asrwt>
<pdfrwt beam="1">  1        2 0.11257345E+00 0.52102900E+03</pdfrwt>
<pdfrwt beam="2">  1       -2 0.12303587E-01 0.52102900E+03</pdfrwt>
<totfact> 0.18917671E+03</totfact>
</mgrwt>
</event>
<event>
 4    1  0.1383574E-004  0.2775832E+03  0.7818608E-02  0.1097016E+00
          2   -1    0    0  501    0  0.00000000000E+00  0.00000000000E+00  0.40627555502E+04  0.40627555502E+04  0.25500000000E-02 0.  1.
         -2   -1    0    0    0  501 -0.00000000000E+00 -0.00000000000E+00 -0.47413888524E+01  0.47413895381E+01  0.25500000000E-02 0. -1.
    5000001    1    1    2    0    0  0.54228267887E+01 -0.55692471902E+02  0.20545844396E+04  0.20592661989E+04  0.12700000000E+03 0.  0.
   -5000001    1    1    2    0    0 -0.54228267887E+01  0.55692471902E+02  0.20034297217E+04  0.20082307408E+04  0.12700000000E+03 0.  0.
<mgrwt>
<rscale>  0 0.27758318E+03</rscale>
<asrwt>0</asrwt>
<pdfrwt beam="1">  1        2 0.58039401E+00 0.27758318E+03</pdfrwt>
<pdfrwt beam="2">  1       -2 0.67734089E-03 0.27758318E+03</pdfrwt>
<totfact> 0.24694167E+03</totfact>
</mgrwt>
</event>
<event>
 4    1  0.1383574E-004  0.3585886E+03  0.7818608E-02  0.1059144E+00
          2   -1    0    0  501    0  0.00000000000E+00  0.00000000000E+00  0.78302194170E+02  0.78302194212E+02  0.25500000000E-02 0.  1.
         -2   -1    0    0    0  501 -0.00000000000E+00 -0.00000000000E+00 -0.41054339755E+03  0.41054339756E+03  0.25500000000E-02 0. -1.
    5000001    1    1    2    0    0  0.56574002460E+02  0.10299046347E+03 -0.23020484343E+03  0.28797729643E+03  0.12700000000E+03 0.  0.
   -5000001    1    1    2    0    0 -0.56574002460E+02 -0.10299046347E+03 -0.10203635995E+03  0.20086829534E+03  0.12700000000E+03 0.  0.
<mgrwt>
<rscale>  0 0.35858862E+03</rscale>
<asrwt>0</asrwt>
<pdfrwt beam="1">  1        2 0.11186028E-01 0.35858862E+03</pdfrwt>
<pdfrwt beam="2">  1       -2 0.58649056E-01 0.35858862E+03</pdfrwt>
<totfact> 0.15547855E+03</totfact>
</mgrwt>
</event>
<event>
 4    1  0.1383574E-004  0.3281065E+03  0.7818608E-02  0.1071978E+00
          2   -1    0    0  501    0  0.00000000000E+00  0.00000000000E+00  0.15758430825E+03  0.15758430827E+03  0.25500000000E-02 0.  1.
         -2   -1    0    0    0  501 -0.00000000000E+00 -0.00000000000E+00 -0.17078775229E+03  0.17078775231E+03  0.25500000000E-02 0. -1.
    5000001    1    1    2    0    0  0.49544821809E+02  0.54263154734E+02 -0.80045654585E+02  0.16713912213E+03  0.12700000000E+03 0.  0.
   -5000001    1    1    2    0    0 -0.49544821809E+02 -0.54263154734E+02  0.66842210540E+02  0.16123293844E+03  0.12700000000E+03 0.  0.
<mgrwt>
<rscale>  0 0.32810651E+03</rscale>
<asrwt>0</asrwt>
<pdfrwt beam="1">  1        2 0.22512044E-01 0.32810651E+03</pdfrwt>
<pdfrwt beam="2">  1       -2 0.24398250E-01 0.32810651E+03</pdfrwt>
<totfact> 0.36042222E+03</totfact>
</mgrwt>
</event>
<event>
 4    1  0.1383574E-004  0.5739954E+03  0.7818608E-02  0.9960876E-01
         -2   -1    0    0    0  501 -0.00000000000E+00  0.00000000000E+00  0.79176647050E+02  0.79176647091E+02  0.25500000000E-02 0. -1.
          2   -1    0    0  501    0  0.00000000000E+00 -0.00000000000E+00 -0.10403026179E+04  0.10403026180E+04  0.25500000000E-02 0.  1.
    5000001    1    1    2    0    0 -0.14392999066E+03 -0.21149872583E+03 -0.53541957938E+03  0.60683661659E+03  0.12700000000E+03 0.  0.
   -5000001    1    1    2    0    0  0.14392999066E+03  0.21149872583E+03 -0.42570639152E+03  0.51264264846E+03  0.12700000000E+03 0.  0.
<mgrwt>
<rscale>  0 0.57399538E+03</rscale>
<asrwt>0</asrwt>
<pdfrwt beam="1">  1        2 0.14861465E+00 0.57399538E+03</pdfrwt>
<pdfrwt beam="2">  1       -2 0.11310950E-01 0.57399538E+03</pdfrwt>
<totfact> 0.14960314E+03</totfact>
</mgrwt>
</event>
<event>
 4    1  0.1383574E-004  0.2687857E+03  0.7818608E-02  0.1101977E+00
         -2   -1    0    0    0  501 -0.00000000000E+00  0.00000000000E+00  0.74388028338E+01  0.74388032709E+01  0.25500000000E-02 0. -1.
          2   -1    0    0  501    0  0.00000000000E+00 -0.00000000000E+00 -0.24280033750E+04  0.24280033750E+04  0.25500000000E-02 0.  1.
    5000001    1    1    2    0    0 -0.37307283566E+02 -0.23136522510E+02 -0.12311555151E+04  0.12384668080E+04  0.12700000000E+03 0.  0.
   -5000001    1    1    2    0    0  0.37307283566E+02  0.23136522510E+02 -0.11894090571E+04  0.11969753704E+04  0.12700000000E+03 0.  0.
<mgrwt>
<rscale>  0 0.26878571E+03</rscale>
<asrwt>0</asrwt>
<pdfrwt beam="1">  1        2 0.34685712E+00 0.26878571E+03</pdfrwt>
<pdfrwt beam="2">  1       -2 0.10626877E-02 0.26878571E+03</pdfrwt>
<totfact> 0.10624342E+04</totfact>
</mgrwt>
</event>
<event>
 4    1  0.1383574E-004  0.7276633E+03  0.7818608E-02  0.9671060E-01
          2   -1    0    0  501    0  0.00000000000E+00  0.00000000000E+00  0.30235477019E+03  0.30235477020E+03  0.25500000000E-02 0.  1.
         -2   -1    0    0    0  501 -0.00000000000E+00 -0.00000000000E+00 -0.43780837971E+03  0.43780837972E+03  0.25500000000E-02 0. -1.
    5000001    1    1    2    0    0  0.11210775239E+03  0.27037742515E+03 -0.24557990544E+03  0.40262959421E+03  0.12700000000E+03 0.  0.
   -5000001    1    1    2    0    0 -0.11210775239E+03 -0.27037742515E+03  0.11012629592E+03  0.33753355571E+03  0.12700000000E+03 0.  0.
<mgrwt>
<rscale>  0 0.72766325E+03</rscale>
<asrwt>0</asrwt>
<pdfrwt beam="1">  1        2 0.43193539E-01 0.72766325E+03</pdfrwt>
<pdfrwt beam="2">  1       -2 0.62544054E-01 0.72766325E+03</pdfrwt>
<totfact> 0.28275038E+02</totfact>
</mgrwt>
</event>
<event>
 4    1  0.1383574E-004  0.4894868E+03  0.7818608E-02  0.1016560E+00
          2   -1    0    0  501    0  0.00000000000E+00  0.00000000000E+00  0.86336666053E+02  0.86336666091E+02  0.25500000000E-02 0.  1.
         -2   -1    0    0    0  501 -0.00000000000E+00 -0.00000000000E+00 -0.69378779903E+03  0.69378779904E+03  0.25500000000E-02 0. -1.
    5000001    1    1    2    0    0 -0.91450120079E+00  0.18662347857E+03 -0.45442791711E+03  0.50740801227E+03  0.12700000000E+03 0.  0.
   -5000001    1    1    2    0    0  0.91450120079E+00 -0.18662347857E+03 -0.15302321587E+03  0.27271645286E+03  0.12700000000E+03 0.  0.
<mgrwt>
<rscale>  0 0.48948677E+03</rscale>
<asrwt>0</asrwt>
<pdfrwt beam="1">  1        2 0.12333810E-01 0.48948677E+03</pdfrwt>
<pdfrwt beam="2">  1       -2 0.99112539E-01 0.48948677E+03</pdfrwt>
<totfact> 0.43479247E+02</totfact>
</mgrwt>
</event>
<event>
 4    1  0.1383574E-004  0.3923397E+03  0.7818608E-02  0.1046465E+00
         -2   -1    0    0    0  501 -0.00000000000E+00  0.00000000000E+00  0.24291470769E+02  0.24291470903E+02  0.25500000000E-02 0. -1.
          2   -1    0    0  501    0  0.00000000000E+00 -0.00000000000E+00 -0.15842029258E+04  0.15842029258E+04  0.25500000000E-02 0.  1.
    5000001    1    1    2    0    0 -0.14181408589E+03 -0.43364713318E+02 -0.85794646897E+03  0.87988230857E+03  0.12700000000E+03 0.  0.
   -5000001    1    1    2    0    0  0.14181408589E+03  0.43364713318E+02 -0.70196498605E+03  0.72861208812E+03  0.12700000000E+03 0.  0.
<mgrwt>
<rscale>  0 0.39233975E+03</rscale>
<asrwt>0</asrwt>
<pdfrwt beam="1">  1        2 0.22631464E+00 0.39233975E+03</pdfrwt>
<pdfrwt beam="2">  1       -2 0.34702111E-02 0.39233975E+03</pdfrwt>
<totfact> 0.48312188E+03</totfact>
</mgrwt>
</event>
<event>
 4    1  0.1383574E-004  0.3063900E+03  0.7818608E-02  0.1082089E+00
         -2   -1    0    0    0  501 -0.00000000000E+00  0.00000000000E+00  0.79345251376E+02  0.79345251417E+02  0.25500000000E-02 0.  1.
          2   -1    0    0  501    0  0.00000000000E+00 -0.00000000000E+00 -0.29577966362E+03  0.29577966364E+03  0.25500000000E-02 0. -1.
    5000001    1    1    2    0    0 -0.77852058886E+02 -0.24763770046E+02 -0.13980238040E+03  0.20578603681E+03  0.12700000000E+03 0.  0.
   -5000001    1    1    2    0    0  0.77852058886E+02  0.24763770046E+02 -0.76632031850E+02  0.16933887824E+03  0.12700000000E+03 0.  0.
<mgrwt>
<rscale>  0 0.30639002E+03</rscale>
<asrwt>0</asrwt>
<pdfrwt beam="1">  1        2 0.42254237E-01 0.30639002E+03</pdfrwt>
<pdfrwt beam="2">  1       -2 0.11335036E-01 0.30639002E+03</pdfrwt>
<totfact> 0.65144656E+03</totfact>
</mgrwt>
</event>
<event>
 4    1  0.1383574E-004  0.4193074E+03  0.7818608E-02  0.1037292E+00
          2   -1    0    0  501    0  0.00000000000E+00  0.00000000000E+00  0.35823862813E+03  0.35823862814E+03  0.25500000000E-02 0.  1.
         -2   -1    0    0    0  501 -0.00000000000E+00 -0.00000000000E+00 -0.12269665730E+03  0.12269665732E+03  0.25500000000E-02 0. -1.
    5000001    1    1    2    0    0 -0.30986186253E+02 -0.12283622586E+03 -0.66998845861E+01  0.17950702097E+03  0.12700000000E+03 0.  0.
   -5000001    1    1    2    0    0  0.30986186253E+02  0.12283622586E+03  0.24224185542E+03  0.30142826450E+03  0.12700000000E+03 0.  0.
<mgrwt>
<rscale>  0 0.41930744E+03</rscale>
<asrwt>0</asrwt>
<pdfrwt beam="1">  1        2 0.51176947E-01 0.41930744E+03</pdfrwt>
<pdfrwt beam="2">  1       -2 0.17528094E-01 0.41930744E+03</pdfrwt>
<totfact> 0.25934095E+03</totfact>
</mgrwt>
</event>
<event>
 4    1  0.1383574E-004  0.6228110E+03  0.7818608E-02  0.9859179E-01
          2   -1    0    0  501    0  0.00000000000E+00  0.00000000000E+00  0.22375649511E+04  0.22375649511E+04  0.25500000000E-02 0.  1.
         -2   -1    0    0    0  501 -0.00000000000E+00 -0.00000000000E+00 -0.43338798253E+02  0.43338798328E+02  0.25500000000E-02 0. -1.
    5000001    1    1    2    0    0  0.99923573663E+02  0.25952134082E+03  0.88019243863E+03  0.93177453063E+03  0.12700000000E+03 0.  0.
   -5000001    1    1    2    0    0 -0.99923573663E+02 -0.25952134082E+03  0.13140337142E+04  0.13491292188E+04  0.12700000000E+03 0.  0.
<mgrwt>
<rscale>  0 0.62281097E+03</rscale>
<asrwt>0</asrwt>
<pdfrwt beam="1">  1        2 0.31965210E+00 0.62281097E+03</pdfrwt>
<pdfrwt beam="2">  1       -2 0.61912576E-02 0.62281097E+03</pdfrwt>
<totfact> 0.92384302E+02</totfact>
</mgrwt>
</event>
<event>
 4    1  0.1383574E-004  0.3429141E+03  0.7818608E-02  0.1065562E+00
         -2   -1    0    0    0  501 -0.00000000000E+00  0.00000000000E+00  0.36936409387E+02  0.36936409475E+02  0.25500000000E-02 0. -1.
          2   -1    0    0  501    0  0.00000000000E+00 -0.00000000000E+00 -0.79589549870E+03  0.79589549870E+03  0.25500000000E-02 0.  1.
    5000001    1    1    2    0    0 -0.86810151301E+02 -0.63428570947E+02 -0.47989156864E+03  0.50792135575E+03  0.12700000000E+03 0.  0.
   -5000001    1    1    2    0    0  0.86810151301E+02  0.63428570947E+02 -0.27906752067E+03  0.32491055242E+03  0.12700000000E+03 0.  0.
<mgrwt>
<rscale>  0 0.34291411E+03</rscale>
<asrwt>0</asrwt>
<pdfrwt beam="1">  1        2 0.11369935E+00 0.34291411E+03</pdfrwt>
<pdfrwt beam="2">  1       -2 0.52766304E-02 0.34291411E+03</pdfrwt>
<totfact> 0.71052560E+03</totfact>
</mgrwt>
</event>
<event>
 4    1  0.1383574E-004  0.3520828E+03  0.7818608E-02  0.1061763E+00
         -2   -1    0    0    0  501 -0.00000000000E+00  0.00000000000E+00  0.45579926742E+02  0.45579926813E+02  0.25500000000E-02 0. -1.
          2   -1    0    0  501    0  0.00000000000E+00 -0.00000000000E+00 -0.67991731124E+03  0.67991731124E+03  0.25500000000E-02 0.  1.
    5000001    1    1    2    0    0  0.84201458923E+02 -0.69957620516E+01 -0.13608596262E+03  0.20441921532E+03  0.12700000000E+03 0.  0.
   -5000001    1    1    2    0    0 -0.84201458923E+02  0.69957620516E+01 -0.49825142188E+03  0.52107802273E+03  0.12700000000E+03 0.  0.
<mgrwt>
<rscale>  0 0.35208284E+03</rscale>
<asrwt>0</asrwt>
<pdfrwt beam="1">  1        2 0.97131038E-01 0.35208284E+03</pdfrwt>
<pdfrwt beam="2">  1       -2 0.65114185E-02 0.35208284E+03</pdfrwt>
<totfact> 0.62267363E+03</totfact>
</mgrwt>
</event>
<event>
 4    1  0.1383574E-004  0.6862579E+03  0.7818608E-02  0.9741026E-01
         -2   -1    0    0    0  501 -0.00000000000E+00  0.00000000000E+00  0.76329734592E+03  0.76329734592E+03  0.25500000000E-02 0. -1.
          2   -1    0    0  501    0  0.00000000000E+00 -0.00000000000E+00 -0.15424852891E+03  0.15424852893E+03  0.25500000000E-02 0.  1.
    5000001    1    1    2    0    0  0.14562917799E+03  0.17336421245E+03  0.60452400094E+03  0.65790673758E+03  0.12700000000E+03 0.  0.
   -5000001    1    1    2    0    0 -0.14562917799E+03 -0.17336421245E+03  0.45248160624E+01  0.25963913727E+03  0.12700000000E+03 0.  0.
<mgrwt>
<rscale>  0 0.68625795E+03</rscale>
<asrwt>0</asrwt>
<pdfrwt beam="1">  1        2 0.22035504E-01 0.68625795E+03</pdfrwt>
<pdfrwt beam="2">  1       -2 0.10904248E+00 0.68625795E+03</pdfrwt>
<totfact> 0.17205814E+02</totfact>
</mgrwt>
</event>
<event>
 4    1  0.1383574E-004  0.4349908E+03  0.7818608E-02  0.1032295E+00
          2   -1    0    0  501    0  0.00000000000E+00  0.00000000000E+00  0.16634695236E+04  0.16634695236E+04  0.25500000000E-02 0.  1.
         -2   -1    0    0    0  501 -0.00000000000E+00 -0.00000000000E+00 -0.28437093632E+02  0.28437093747E+02  0.25500000000E-02 0. -1.
    5000001    1    1    2    0    0  0.13233518278E+03  0.33158924219E+02  0.38155767944E+03  0.42464971164E+03  0.12700000000E+03 0.  0.
   -5000001    1    1    2    0    0 -0.13233518278E+03 -0.33158924219E+02  0.12534747505E+04  0.12672569057E+04  0.12700000000E+03 0.  0.
<mgrwt>
<rscale>  0 0.43499075E+03</rscale>
<asrwt>0</asrwt>
<pdfrwt beam="1">  1        2 0.23763859E+00 0.43499075E+03</pdfrwt>
<pdfrwt beam="2">  1       -2 0.40624405E-02 0.43499075E+03</pdfrwt>
<totfact> 0.34680423E+03</totfact>
</mgrwt>
</event>
<event>
 4    1  0.1383574E-004  0.3398105E+03  0.7818608E-02  0.1066877E+00
          2   -1    0    0  501    0  0.00000000000E+00  0.00000000000E+00  0.11535654215E+04  0.11535654215E+04  0.25500000000E-02 0.  1.
         -2   -1    0    0    0  501 -0.00000000000E+00 -0.00000000000E+00 -0.25024846641E+02  0.25024846771E+02  0.25500000000E-02 0. -1.
    5000001    1    1    2    0    0  0.59135920296E+02  0.81694432712E+02  0.38851707213E+03  0.42100540702E+03  0.12700000000E+03 0.  0.
   -5000001    1    1    2    0    0 -0.59135920296E+02 -0.81694432712E+02  0.74002350269E+03  0.75758486122E+03  0.12700000000E+03 0.  0.
<mgrwt>
<rscale>  0 0.33981052E+03</rscale>
<asrwt>0</asrwt>
<pdfrwt beam="1">  1        2 0.16479511E+00 0.33981052E+03</pdfrwt>
<pdfrwt beam="2">  1       -2 0.35749770E-02 0.33981052E+03</pdfrwt>
<totfact> 0.77740950E+03</totfact>
</mgrwt>
</event>
<event>
 4    1  0.1383574E-004  0.5918308E+03  0.7818608E-02  0.9922501E-01
         -2   -1    0    0    0  501 -0.00000000000E+00  0.00000000000E+00  0.73252240986E+02  0.73252241030E+02  0.25500000000E-02 0. -1.
          2   -1    0    0  501    0  0.00000000000E+00 -0.00000000000E+00 -0.11954027693E+04  0.11954027693E+04  0.25500000000E-02 0.  1.
    5000001    1    1    2    0    0  0.22334003898E+03  0.14206753424E+03 -0.64050391521E+03  0.70458372298E+03  0.12700000000E+03 0.  0.
   -5000001    1    1    2    0    0 -0.22334003898E+03 -0.14206753424E+03 -0.48164661310E+03  0.56407128734E+03  0.12700000000E+03 0.  0.
<mgrwt>
<rscale>  0 0.59183083E+03</rscale>
<asrwt>0</asrwt>
<pdfrwt beam="1">  1        2 0.17077181E+00 0.59183083E+03</pdfrwt>
<pdfrwt beam="2">  1       -2 0.10464607E-01 0.59183083E+03</pdfrwt>
<totfact> 0.13813177E+03</totfact>
</mgrwt>
</event>
<event>
 4    1  0.1383574E-004  0.6202732E+03  0.7818608E-02  0.9864216E-01
         -2   -1    0    0    0  501 -0.00000000000E+00  0.00000000000E+00  0.48416581143E+02  0.48416581210E+02  0.25500000000E-02 0. -1.
          2   -1    0    0  501    0  0.00000000000E+00 -0.00000000000E+00 -0.19866070258E+04  0.19866070258E+04  0.25500000000E-02 0.  1.
    5000001    1    1    2    0    0  0.79868748246E+02  0.24389469068E+03 -0.13599446566E+04  0.13897633273E+04  0.12700000000E+03 0.  0.
   -5000001    1    1    2    0    0 -0.79868748246E+02 -0.24389469068E+03 -0.57824578814E+03  0.64526027973E+03  0.12700000000E+03 0.  0.
<mgrwt>
<rscale>  0 0.62027323E+03</rscale>
<asrwt>0</asrwt>
<pdfrwt beam="1">  1        2 0.28380095E+00 0.62027323E+03</pdfrwt>
<pdfrwt beam="2">  1       -2 0.69166557E-02 0.62027323E+03</pdfrwt>
<totfact> 0.10380296E+03</totfact>
</mgrwt>
</event>
<event>
 4    1  0.1383574E-004  0.4010822E+03  0.7818608E-02  0.1043406E+00
          2   -1    0    0  501    0  0.00000000000E+00  0.00000000000E+00  0.14214672985E+04  0.14214672985E+04  0.25500000000E-02 0.  1.
         -2   -1    0    0    0  501 -0.00000000000E+00 -0.00000000000E+00 -0.28292409895E+02  0.28292410010E+02  0.25500000000E-02 0. -1.
    5000001    1    1    2    0    0 -0.13067874315E+03 -0.18466252614E+02  0.40138564490E+03  0.44119992331E+03  0.12700000000E+03 0.  0.
   -5000001    1    1    2    0    0  0.13067874315E+03  0.18466252614E+02  0.99178924370E+03  0.10085597852E+04  0.12700000000E+03 0.  0.
<mgrwt>
<rscale>  0 0.40108221E+03</rscale>
<asrwt>0</asrwt>
<pdfrwt beam="1">  1        2 0.20306675E+00 0.40108221E+03</pdfrwt>
<pdfrwt beam="2">  1       -2 0.40417729E-02 0.40108221E+03</pdfrwt>
<totfact> 0.46470518E+03</totfact>
</mgrwt>
</event>
<event>
 4    1  0.1383574E-004  0.3263687E+03  0.7818608E-02  0.1072755E+00
         -2   -1    0    0    0  501 -0.00000000000E+00  0.00000000000E+00  0.11078605245E+03  0.11078605248E+03  0.25500000000E-02 0. -1.
          2   -1    0    0  501    0  0.00000000000E+00 -0.00000000000E+00 -0.24036533203E+03  0.24036533205E+03  0.25500000000E-02 0.  1.
    5000001    1    1    2    0    0  0.46494103615E+02 -0.71660757759E+02 -0.38955315049E+01  0.15310500005E+03  0.12700000000E+03 0.  0.
   -5000001    1    1    2    0    0 -0.46494103615E+02  0.71660757759E+02 -0.12568374808E+03  0.19804638448E+03  0.12700000000E+03 0.  0.
<mgrwt>
<rscale>  0 0.32636866E+03</rscale>
<asrwt>0</asrwt>
<pdfrwt beam="1">  1        2 0.34337904E-01 0.32636866E+03</pdfrwt>
<pdfrwt beam="2">  1       -2 0.15826579E-01 0.32636866E+03</pdfrwt>
<totfact> 0.47321317E+03</totfact>
</mgrwt>
</event>
<event>
 4    1  0.1383574E-004  0.3466687E+03  0.7818608E-02  0.1063991E+00
          2   -1    0    0  501    0  0.00000000000E+00  0.00000000000E+00  0.29524018476E+04  0.29524018476E+04  0.25500000000E-02 0.  1.
         -2   -1    0    0    0  501 -0.00000000000E+00 -0.00000000000E+00 -0.10176391648E+02  0.10176391967E+02  0.25500000000E-02 0. -1.
    5000001    1    1    2    0    0 -0.68324137972E+02 -0.95587942764E+02  0.13812571457E+04  0.13920508415E+04  0.12700000000E+03 0.  0.
   -5000001    1    1    2    0    0  0.68324137972E+02  0.95587942764E+02  0.15609683103E+04  0.15705273981E+04  0.12700000000E+03 0.  0.
<mgrwt>
<rscale>  0 0.34666871E+03</rscale>
<asrwt>0</asrwt>
<pdfrwt beam="1">  1        2 0.42177167E+00 0.34666871E+03</pdfrwt>
<pdfrwt beam="2">  1       -2 0.14537704E-02 0.34666871E+03</pdfrwt>
<totfact> 0.36170297E+03</totfact>
</mgrwt>
</event>
<event>
 4    1  0.1383574E-004  0.8050682E+03  0.7818608E-02  0.9552710E-01
         -2   -1    0    0    0  501 -0.00000000000E+00  0.00000000000E+00  0.19359656957E+03  0.19359656959E+03  0.25500000000E-02 0. -1.
          2   -1    0    0  501    0  0.00000000000E+00 -0.00000000000E+00 -0.83696578481E+03  0.83696578482E+03  0.25500000000E-02 0.  1.
    5000001    1    1    2    0    0  0.34438328805E+02 -0.34132853469E+03 -0.53670040567E+03  0.64951327356E+03  0.12700000000E+03 0.  0.
   -5000001    1    1    2    0    0 -0.34438328805E+02  0.34132853469E+03 -0.10666880957E+03  0.38104908085E+03  0.12700000000E+03 0.  0.
<mgrwt>
<rscale>  0 0.80506821E+03</rscale>
<asrwt>0</asrwt>
<pdfrwt beam="1">  1        2 0.11956654E+00 0.80506821E+03</pdfrwt>
<pdfrwt beam="2">  1       -2 0.27656653E-01 0.80506821E+03</pdfrwt>
<totfact> 0.42814691E+02</totfact>
</mgrwt>
</event>
<event>
 4    1  0.1383574E-004  0.3729227E+03  0.7818608E-02  0.1053581E+00
          2   -1    0    0  501    0  0.00000000000E+00  0.00000000000E+00  0.19405582050E+03  0.19405582052E+03  0.25500000000E-02 0.  1.
         -2   -1    0    0    0  501 -0.00000000000E+00 -0.00000000000E+00 -0.17916413170E+03  0.17916413171E+03  0.25500000000E-02 0. -1.
    5000001    1    1    2    0    0  0.89562694250E+02 -0.10295397508E+03  0.11673592860E+02  0.18677866569E+03  0.12700000000E+03 0.  0.
   -5000001    1    1    2    0    0 -0.89562694250E+02  0.10295397508E+03  0.32180959460E+01  0.18644128654E+03  0.12700000000E+03 0.  0.
<mgrwt>
<rscale>  0 0.37292274E+03</rscale>
<asrwt>0</asrwt>
<pdfrwt beam="1">  1        2 0.27722260E-01 0.37292274E+03</pdfrwt>
<pdfrwt beam="2">  1       -2 0.25594876E-01 0.37292274E+03</pdfrwt>
<totfact> 0.26262462E+03</totfact>
</mgrwt>
</event>
<event>
 4    1  0.1383574E-004  0.4894257E+03  0.7818608E-02  0.1016576E+00
         -2   -1    0    0    0  501 -0.00000000000E+00  0.00000000000E+00  0.13964249108E+02  0.13964249340E+02  0.25500000000E-02 0. -1.
          2   -1    0    0  501    0  0.00000000000E+00 -0.00000000000E+00 -0.42884073449E+04  0.42884073449E+04  0.25500000000E-02 0.  1.
    5000001    1    1    2    0    0  0.18732943698E+03  0.72818315893E+01 -0.29529091180E+04  0.29615783971E+04  0.12700000000E+03 0.  0.
   -5000001    1    1    2    0    0 -0.18732943698E+03 -0.72818315893E+01 -0.13215339778E+04  0.13407931972E+04  0.12700000000E+03 0.  0.
<mgrwt>
<rscale>  0 0.48942574E+03</rscale>
<asrwt>0</asrwt>
<pdfrwt beam="1">  1        2 0.61262878E+00 0.48942574E+03</pdfrwt>
<pdfrwt beam="2">  1       -2 0.19948955E-02 0.48942574E+03</pdfrwt>
<totfact> 0.34025019E+02</totfact>
</mgrwt>
</event>
<event>
 4    1  0.1383574E-004  0.4102167E+03  0.7818608E-02  0.1040298E+00
         -2   -1    0    0    0  501 -0.00000000000E+00  0.00000000000E+00  0.31533576464E+02  0.31533576567E+02  0.25500000000E-02 0.  1.
          2   -1    0    0  501    0  0.00000000000E+00 -0.00000000000E+00 -0.13341155976E+04  0.13341155976E+04  0.25500000000E-02 0. -1.
    5000001    1    1    2    0    0  0.94457832419E+01 -0.10920599837E+03 -0.25844032672E+03  0.30811617188E+03  0.12700000000E+03 0.  0.
   -5000001    1    1    2    0    0 -0.94457832419E+01  0.10920599837E+03 -0.10441416944E+04  0.10575330022E+04  0.12700000000E+03 0.  0.
<mgrwt>
<rscale>  0 0.41021671E+03</rscale>
<asrwt>0</asrwt>
<pdfrwt beam="1">  1        2 0.19058791E+00 0.41021671E+03</pdfrwt>
<pdfrwt beam="2">  1       -2 0.45047975E-02 0.41021671E+03</pdfrwt>
<totfact> 0.43782254E+03</totfact>
</mgrwt>
</event>
<event>
 4    1  0.1383574E-004  0.3807050E+03  0.7818608E-02  0.1050673E+00
          2   -1    0    0  501    0  0.00000000000E+00  0.00000000000E+00  0.33781237166E+04  0.33781237166E+04  0.25500000000E-02 0.  1.
         -2   -1    0    0    0  501 -0.00000000000E+00 -0.00000000000E+00 -0.10726096225E+02  0.10726096529E+02  0.25500000000E-02 0. -1.
    5000001    1    1    2    0    0  0.12524332732E+03  0.32010902649E+02  0.11650766437E+04  0.11790857368E+04  0.12700000000E+03 0.  0.
   -5000001    1    1    2    0    0 -0.12524332732E+03 -0.32010902649E+02  0.22023209766E+04  0.22097640763E+04  0.12700000000E+03 0.  0.
<mgrwt>
<rscale>  0 0.38070503E+03</rscale>
<asrwt>0</asrwt>
<pdfrwt beam="1">  1        2 0.48258891E+00 0.38070503E+03</pdfrwt>
<pdfrwt beam="2">  1       -2 0.15323001E-02 0.38070503E+03</pdfrwt>
<totfact> 0.19464636E+03</totfact>
</mgrwt>
</event>
<event>
 4    1  0.1383574E-004  0.2941718E+03  0.7818608E-02  0.1088191E+00
          2   -1    0    0  501    0  0.00000000000E+00  0.00000000000E+00  0.91903895770E+03  0.91903895770E+03  0.25500000000E-02 0. -1.
         -2   -1    0    0    0  501 -0.00000000000E+00 -0.00000000000E+00 -0.23540097727E+02  0.23540097865E+02  0.25500000000E-02 0.  1.
    5000001    1    1    2    0    0  0.24065773573E+02 -0.63386659108E+02  0.35118520099E+03  0.37954851522E+03  0.12700000000E+03 0.  0.
   -5000001    1    1    2    0    0 -0.24065773573E+02  0.63386659108E+02  0.54431365898E+03  0.56303054034E+03  0.12700000000E+03 0.  0.
<mgrwt>
<rscale>  0 0.29417183E+03</rscale>
<asrwt>0</asrwt>
<pdfrwt beam="1">  1        2 0.13129124E+00 0.29417183E+03</pdfrwt>
<pdfrwt beam="2">  1       -2 0.33628720E-02 0.29417183E+03</pdfrwt>
<totfact> 0.11641069E+04</totfact>
</mgrwt>
</event>
<event>
 4    1  0.1383574E-004  0.5614014E+03  0.7818608E-02  0.9988889E-01
         -2   -1    0    0    0  501 -0.00000000000E+00  0.00000000000E+00  0.25770642295E+03  0.25770642296E+03  0.25500000000E-02 0. -1.
          2   -1    0    0  501    0  0.00000000000E+00 -0.00000000000E+00 -0.30574663028E+03  0.30574663029E+03  0.25500000000E-02 0.  1.
    5000001    1    1    2    0    0 -0.47616076367E+02 -0.19084293250E+03  0.13138619352E+03  0.26847653056E+03  0.12700000000E+03 0.  0.
   -5000001    1    1    2    0    0  0.47616076367E+02  0.19084293250E+03 -0.17942640086E+03  0.29497652269E+03  0.12700000000E+03 0.  0.
<mgrwt>
<rscale>  0 0.56140136E+03</rscale>
<asrwt>0</asrwt>
<pdfrwt beam="1">  1        2 0.43678090E-01 0.56140136E+03</pdfrwt>
<pdfrwt beam="2">  1       -2 0.36815203E-01 0.56140136E+03</pdfrwt>
<totfact> 0.81481123E+02</totfact>
</mgrwt>
</event>
<event>
 4    1  0.1383574E-004  0.4213446E+03  0.7818608E-02  0.1036630E+00
          2   -1    0    0  501    0  0.00000000000E+00  0.00000000000E+00  0.32547624832E+04  0.32547624832E+04  0.25500000000E-02 0.  1.
         -2   -1    0    0    0  501 -0.00000000000E+00 -0.00000000000E+00 -0.13636271591E+02  0.13636271829E+02  0.25500000000E-02 0. -1.
    5000001    1    1    2    0    0 -0.15322036749E+03  0.66451655831E+02  0.14730723056E+04  0.14879392868E+04  0.12700000000E+03 0.  0.
   -5000001    1    1    2    0    0  0.15322036749E+03 -0.66451655831E+02  0.17680539060E+04  0.17804594682E+04  0.12700000000E+03 0.  0.
<mgrwt>
<rscale>  0 0.42134464E+03</rscale>
<asrwt>0</asrwt>
<pdfrwt beam="1">  1        2 0.46496669E+00 0.42134464E+03</pdfrwt>
<pdfrwt beam="2">  1       -2 0.19480362E-02 0.42134464E+03</pdfrwt>
<totfact> 0.15946098E+03</totfact>
</mgrwt>
</event>
<event>
 4    1  0.1383574E-004  0.3834001E+03  0.7818608E-02  0.1049684E+00
          2   -1    0    0  501    0  0.00000000000E+00  0.00000000000E+00  0.17303769370E+03  0.17303769372E+03  0.25500000000E-02 0.  1.
         -2   -1    0    0    0  501 -0.00000000000E+00 -0.00000000000E+00 -0.21237513883E+03  0.21237513885E+03  0.25500000000E-02 0. -1.
    5000001    1    1    2    0    0  0.10493652976E+02  0.14073725646E+03 -0.46318500785E+02  0.19542644556E+03  0.12700000000E+03 0.  0.
   -5000001    1    1    2    0    0 -0.10493652976E+02 -0.14073725646E+03  0.69810556536E+01  0.18998638701E+03  0.12700000000E+03 0.  0.
<mgrwt>
<rscale>  0 0.38340007E+03</rscale>
<asrwt>0</asrwt>
<pdfrwt beam="1">  1        2 0.24719671E-01 0.38340007E+03</pdfrwt>
<pdfrwt beam="2">  1       -2 0.30339305E-01 0.38340007E+03</pdfrwt>
<totfact> 0.21976998E+03</totfact>
</mgrwt>
</event>
<event>
 4    1  0.1383574E-004  0.7000686E+03  0.7818608E-02  0.9717115E-01
          2   -1    0    0  501    0  0.00000000000E+00  0.00000000000E+00  0.19668136827E+04  0.19668136827E+04  0.25500000000E-02 0.  1.
         -2   -1    0    0    0  501 -0.00000000000E+00 -0.00000000000E+00 -0.62295695737E+02  0.62295695789E+02  0.25500000000E-02 0. -1.
    5000001    1    1    2    0    0  0.21845372824E+03  0.18450651697E+03  0.14071423433E+04  0.14415072877E+04  0.12700000000E+03 0.  0.
   -5000001    1    1    2    0    0 -0.21845372824E+03 -0.18450651697E+03  0.49737564365E+03  0.58760209078E+03  0.12700000000E+03 0.  0.
<mgrwt>
<rscale>  0 0.70006864E+03</rscale>
<asrwt>0</asrwt>
<pdfrwt beam="1">  1        2 0.28097337E+00 0.70006864E+03</pdfrwt>
<pdfrwt beam="2">  1       -2 0.88993856E-02 0.70006864E+03</pdfrwt>
<totfact> 0.70724236E+02</totfact>
</mgrwt>
</event>
<event>
 4    1  0.1383574E-004  0.3868300E+03  0.7818608E-02  0.1048438E+00
         -2   -1    0    0    0  501 -0.00000000000E+00  0.00000000000E+00  0.20525091582E+03  0.20525091584E+03  0.25500000000E-02 0. -1.
          2   -1    0    0  501    0  0.00000000000E+00 -0.00000000000E+00 -0.18226156599E+03  0.18226156601E+03  0.25500000000E-02 0.  1.
    5000001    1    1    2    0    0 -0.80828668601E+02 -0.30358586097E+02  0.12928375133E+03  0.20074413011E+03  0.12700000000E+03 0.  0.
   -5000001    1    1    2    0    0  0.80828668601E+02  0.30358586097E+02 -0.10629440150E+03  0.18676835173E+03  0.12700000000E+03 0.  0.
<mgrwt>
<rscale>  0 0.38682995E+03</rscale>
<asrwt>0</asrwt>
<pdfrwt beam="1">  1        2 0.26037366E-01 0.38682995E+03</pdfrwt>
<pdfrwt beam="2">  1       -2 0.29321560E-01 0.38682995E+03</pdfrwt>
<totfact> 0.22064374E+03</totfact>
</mgrwt>
</event>
<event>
 4    1  0.1383574E-004  0.3574255E+03  0.7818608E-02  0.1059608E+00
         -2   -1    0    0    0  501 -0.00000000000E+00  0.00000000000E+00  0.35790339745E+02  0.35790339836E+02  0.25500000000E-02 0. -1.
          2   -1    0    0  501    0  0.00000000000E+00 -0.00000000000E+00 -0.89237052515E+03  0.89237052516E+03  0.25500000000E-02 0.  1.
    5000001    1    1    2    0    0 -0.57251999543E+01  0.75180055212E+02 -0.68958018159E+03  0.70521957252E+03  0.12700000000E+03 0.  0.
   -5000001    1    1    2    0    0  0.57251999543E+01 -0.75180055212E+02 -0.16700000382E+03  0.22294129248E+03  0.12700000000E+03 0.  0.
<mgrwt>
<rscale>  0 0.35742548E+03</rscale>
<asrwt>0</asrwt>
<pdfrwt beam="1">  1        2 0.12748149E+00 0.35742548E+03</pdfrwt>
<pdfrwt beam="2">  1       -2 0.51129062E-02 0.35742548E+03</pdfrwt>
<totfact> 0.64502568E+03</totfact>
</mgrwt>
</event>
<event>
 4    1  0.1383574E-004  0.5830749E+03  0.7818608E-02  0.9941156E-01
         -2   -1    0    0    0  501 -0.00000000000E+00  0.00000000000E+00  0.54391344323E+03  0.54391344324E+03  0.25500000000E-02 0. -1.
          2   -1    0    0  501    0  0.00000000000E+00 -0.00000000000E+00 -0.15626401252E+03  0.15626401254E+03  0.25500000000E-02 0.  1.
    5000001    1    1    2    0    0  0.23749487195E+03  0.85748609908E+02  0.27965265621E+03  0.39760689937E+03  0.12700000000E+03 0.  0.
   -5000001    1    1    2    0    0 -0.23749487195E+03 -0.85748609908E+02  0.10799677449E+03  0.30257055641E+03  0.12700000000E+03 0.  0.
<mgrwt>
<rscale>  0 0.58307494E+03</rscale>
<asrwt>0</asrwt>
<pdfrwt beam="1">  1        2 0.22323430E-01 0.58307494E+03</pdfrwt>
<pdfrwt beam="2">  1       -2 0.77701920E-01 0.58307494E+03</pdfrwt>
<totfact> 0.37238531E+02</totfact>
</mgrwt>
</event>
<event>
 4    1  0.1383574E-004  0.4270655E+03  0.7818608E-02  0.1034791E+00
         -2   -1    0    0    0  501 -0.00000000000E+00  0.00000000000E+00  0.52480232782E+02  0.52480232844E+02  0.25500000000E-02 0.  1.
          2   -1    0    0  501    0  0.00000000000E+00 -0.00000000000E+00 -0.86882698699E+03  0.86882698700E+03  0.25500000000E-02 0. -1.
    5000001    1    1    2    0    0 -0.13501816928E+03  0.90069188022E+02 -0.28757916158E+03  0.35379816116E+03  0.12700000000E+03 0.  0.
   -5000001    1    1    2    0    0  0.13501816928E+03 -0.90069188022E+02 -0.52876759263E+03  0.56750905868E+03  0.12700000000E+03 0.  0.
<mgrwt>
<rscale>  0 0.42706553E+03</rscale>
<asrwt>0</asrwt>
<pdfrwt beam="1">  1        2 0.12411813E+00 0.42706553E+03</pdfrwt>
<pdfrwt beam="2">  1       -2 0.74971767E-02 0.42706553E+03</pdfrwt>
<totfact> 0.36973699E+03</totfact>
</mgrwt>
</event>
<event>
 4    1  0.1383574E-004  0.3638233E+03  0.7818608E-02  0.1057080E+00
         -2   -1    0    0    0  501 -0.00000000000E+00  0.00000000000E+00  0.27346817257E+02  0.27346817376E+02  0.25500000000E-02 0. -1.
          2   -1    0    0  501    0  0.00000000000E+00 -0.00000000000E+00 -0.12100806972E+04  0.12100806972E+04  0.25500000000E-02 0.  1.
    5000001    1    1    2    0    0  0.65549272906E+02  0.29093156986E+02 -0.22159571292E+03  0.26528622080E+03  0.12700000000E+03 0.  0.
   -5000001    1    1    2    0    0 -0.65549272906E+02 -0.29093156986E+02 -0.96113816706E+03  0.97214129382E+03  0.12700000000E+03 0.  0.
<mgrwt>
<rscale>  0 0.36382334E+03</rscale>
<asrwt>0</asrwt>
<pdfrwt beam="1">  1        2 0.17286864E+00 0.36382334E+03</pdfrwt>
<pdfrwt beam="2">  1       -2 0.39066890E-02 0.36382334E+03</pdfrwt>
<totfact> 0.63351167E+03</totfact>
</mgrwt>
</event>
<event>
 4    1  0.1383574E-004  0.3935233E+03  0.7818608E-02  0.1046046E+00
          2   -1    0    0  501    0  0.00000000000E+00  0.00000000000E+00  0.34520167875E+03  0.34520167876E+03  0.25500000000E-02 0.  1.
         -2   -1    0    0    0  501 -0.00000000000E+00 -0.00000000000E+00 -0.11215225542E+03  0.11215225545E+03  0.25500000000E-02 0. -1.
    5000001    1    1    2    0    0  0.13274127701E+03  0.70287871886E+02  0.11065411431E+03  0.22568554356E+03  0.12700000000E+03 0.  0.
   -5000001    1    1    2    0    0 -0.13274127701E+03 -0.70287871886E+02  0.12239530902E+03  0.23166839065E+03  0.12700000000E+03 0.  0.
<mgrwt>
<rscale>  0 0.39352330E+03</rscale>
<asrwt>0</asrwt>
<pdfrwt beam="1">  1        2 0.49314525E-01 0.39352330E+03</pdfrwt>
<pdfrwt beam="2">  1       -2 0.16021751E-01 0.39352330E+03</pdfrwt>
<totfact> 0.31398254E+03</totfact>
</mgrwt>
</event>
<event>
 4    1  0.1383574E-004  0.1053438E+04  0.7818608E-02  0.9251802E-01
          2   -1    0    0  501    0  0.00000000000E+00  0.00000000000E+00  0.25931166944E+03  0.25931166946E+03  0.25500000000E-02 0.  1.
         -2   -1    0    0    0  501 -0.00000000000E+00 -0.00000000000E+00 -0.10698822094E+04  0.10698822094E+04  0.25500000000E-02 0. -1.
    5000001    1    1    2    0    0 -0.41133797130E+03 -0.30345737397E+03 -0.39983809026E+03  0.66127513402E+03  0.12700000000E+03 0.  0.
   -5000001    1    1    2    0    0  0.41133797130E+03  0.30345737397E+03 -0.41073244967E+03  0.66791874481E+03  0.12700000000E+03 0.  0.
<mgrwt>
<rscale>  0 0.10534381E+04</rscale>
<asrwt>0</asrwt>
<pdfrwt beam="1">  1        2 0.37044525E-01 0.10534381E+04</pdfrwt>
<pdfrwt beam="2">  1       -2 0.15284031E+00 0.10534381E+04</pdfrwt>
<totfact> 0.39817733E+01</totfact>
</mgrwt>
</event>
<event>
 4    1  0.1383574E-004  0.4818590E+03  0.7818608E-02  0.1018626E+00
         -2   -1    0    0    0  501 -0.00000000000E+00  0.00000000000E+00  0.32383344024E+02  0.32383344124E+02  0.25500000000E-02 0. -1.
          2   -1    0    0  501    0  0.00000000000E+00 -0.00000000000E+00 -0.17924959359E+04  0.17924959359E+04  0.25500000000E-02 0.  1.
    5000001    1    1    2    0    0 -0.16181421661E+03 -0.93178247859E+02 -0.11980876443E+04  0.12191837556E+04  0.12700000000E+03 0.  0.
   -5000001    1    1    2    0    0  0.16181421661E+03  0.93178247859E+02 -0.56202494755E+03  0.60569552437E+03  0.12700000000E+03 0.  0.
<mgrwt>
<rscale>  0 0.48185895E+03</rscale>
<asrwt>0</asrwt>
<pdfrwt beam="1">  1        2 0.25607078E+00 0.48185895E+03</pdfrwt>
<pdfrwt beam="2">  1       -2 0.46261931E-02 0.48185895E+03</pdfrwt>
<totfact> 0.24457013E+03</totfact>
</mgrwt>
</event>
<event>
 4    1  0.1383574E-004  0.3449862E+03  0.7818608E-02  0.1064692E+00
         -2   -1    0    0    0  501 -0.00000000000E+00  0.00000000000E+00  0.66256899307E+02  0.66256899356E+02  0.25500000000E-02 0. -1.
          2   -1    0    0  501    0  0.00000000000E+00 -0.00000000000E+00 -0.44906820411E+03  0.44906820412E+03  0.25500000000E-02 0.  1.
    5000001    1    1    2    0    0 -0.96895095558E+02 -0.62085936792E+02 -0.22058339866E+03  0.27933735671E+03  0.12700000000E+03 0.  0.
   -5000001    1    1    2    0    0  0.96895095558E+02  0.62085936792E+02 -0.16222790615E+03  0.23598774677E+03  0.12700000000E+03 0.  0.
<mgrwt>
<rscale>  0 0.34498618E+03</rscale>
<asrwt>0</asrwt>
<pdfrwt beam="1">  1        2 0.64152599E-01 0.34498618E+03</pdfrwt>
<pdfrwt beam="2">  1       -2 0.94652716E-02 0.34498618E+03</pdfrwt>
<totfact> 0.55441601E+03</totfact>
</mgrwt>
</event>
<event>
 4    1  0.1383574E-004  0.5583628E+03  0.7818608E-02  0.9995766E-01
          2   -1    0    0  501    0  0.00000000000E+00  0.00000000000E+00  0.14455408530E+04  0.14455408530E+04  0.25500000000E-02 0.  1.
         -2   -1    0    0    0  501 -0.00000000000E+00 -0.00000000000E+00 -0.53919101129E+02  0.53919101189E+02  0.25500000000E-02 0. -1.
    5000001    1    1    2    0    0  0.26533816584E+02 -0.24680258937E+03  0.65805158460E+03  0.71468625952E+03  0.12700000000E+03 0.  0.
   -5000001    1    1    2    0    0 -0.26533816584E+02  0.24680258937E+03  0.73357016722E+03  0.78477369463E+03  0.12700000000E+03 0.  0.
<mgrwt>
<rscale>  0 0.55836283E+03</rscale>
<asrwt>0</asrwt>
<pdfrwt beam="1">  1        2 0.20650582E+00 0.55836283E+03</pdfrwt>
<pdfrwt beam="2">  1       -2 0.77027293E-02 0.55836283E+03</pdfrwt>
<totfact> 0.16560771E+03</totfact>
</mgrwt>
</event>
<event>
 4    1  0.1383574E-004  0.2976006E+03  0.7818608E-02  0.1086446E+00
          2   -1    0    0  501    0  0.00000000000E+00  0.00000000000E+00  0.56488203479E+03  0.56488203479E+03  0.25500000000E-02 0.  1.
         -2   -1    0    0    0  501 -0.00000000000E+00 -0.00000000000E+00 -0.39196732348E+02  0.39196732431E+02  0.25500000000E-02 0. -1.
    5000001    1    1    2    0    0 -0.79313017117E+01 -0.76554811613E+02  0.24369485873E+03  0.28537646872E+03  0.12700000000E+03 0.  0.
   -5000001    1    1    2    0    0  0.79313017117E+01  0.76554811613E+02  0.28199044371E+03  0.31870229851E+03  0.12700000000E+03 0.  0.
<mgrwt>
<rscale>  0 0.29760060E+03</rscale>
<asrwt>0</asrwt>
<pdfrwt beam="1">  1        2 0.80697429E-01 0.29760060E+03</pdfrwt>
<pdfrwt beam="2">  1       -2 0.55995335E-02 0.29760060E+03</pdfrwt>
<totfact> 0.96894930E+03</totfact>
</mgrwt>
</event>
<event>
 4    1  0.1383574E-004  0.4768927E+03  0.7818608E-02  0.1019993E+00
          2   -1    0    0  501    0  0.00000000000E+00  0.00000000000E+00  0.13102094126E+04  0.13102094126E+04  0.25500000000E-02 0.  1.
         -2   -1    0    0    0  501 -0.00000000000E+00 -0.00000000000E+00 -0.43395089567E+02  0.43395089642E+02  0.25500000000E-02 0. -1.
    5000001    1    1    2    0    0 -0.46503440494E+02  0.18199731069E+03  0.42401859865E+03  0.48083922789E+03  0.12700000000E+03 0.  0.
   -5000001    1    1    2    0    0  0.46503440494E+02 -0.18199731069E+03  0.84279572437E+03  0.87276527434E+03  0.12700000000E+03 0.  0.
<mgrwt>
<rscale>  0 0.47689267E+03</rscale>
<asrwt>0</asrwt>
<pdfrwt beam="1">  1        2 0.18717278E+00 0.47689267E+03</pdfrwt>
<pdfrwt beam="2">  1       -2 0.61992983E-02 0.47689267E+03</pdfrwt>
<totfact> 0.27541556E+03</totfact>
</mgrwt>
</event>
<event>
 4    1  0.1383574E-004  0.5632512E+03  0.7818608E-02  0.9984725E-01
         -2   -1    0    0    0  501 -0.00000000000E+00  0.00000000000E+00  0.97497192352E+02  0.97497192385E+02  0.25500000000E-02 0. -1.
          2   -1    0    0  501    0  0.00000000000E+00 -0.00000000000E+00 -0.81348987559E+03  0.81348987560E+03  0.25500000000E-02 0.  1.
    5000001    1    1    2    0    0  0.21831469214E+03 -0.12392747125E+03 -0.33724248503E+03  0.43918198579E+03  0.12700000000E+03 0.  0.
   -5000001    1    1    2    0    0 -0.21831469214E+03  0.12392747125E+03 -0.37875019821E+03  0.47180508219E+03  0.12700000000E+03 0.  0.
<mgrwt>
<rscale>  0 0.56325120E+03</rscale>
<asrwt>0</asrwt>
<pdfrwt beam="1">  1        2 0.11621284E+00 0.56325120E+03</pdfrwt>
<pdfrwt beam="2">  1       -2 0.13928171E-01 0.56325120E+03</pdfrwt>
<totfact> 0.14789133E+03</totfact>
</mgrwt>
</event>
<event>
 4    1  0.1383574E-004  0.3535238E+03  0.7818608E-02  0.1061178E+00
          2   -1    0    0  501    0  0.00000000000E+00  0.00000000000E+00  0.71851757685E+03  0.71851757685E+03  0.25500000000E-02 0.  1.
         -2   -1    0    0    0  501 -0.00000000000E+00 -0.00000000000E+00 -0.43485053844E+02  0.43485053919E+02  0.25500000000E-02 0. -1.
    5000001    1    1    2    0    0 -0.64984678103E+02  0.79005038999E+02  0.19051888463E+03  0.25078127916E+03  0.12700000000E+03 0.  0.
   -5000001    1    1    2    0    0  0.64984678103E+02 -0.79005038999E+02  0.48451363837E+03  0.51122135161E+03  0.12700000000E+03 0.  0.
<mgrwt>
<rscale>  0 0.35352384E+03</rscale>
<asrwt>0</asrwt>
<pdfrwt beam="1">  1        2 0.10264536E+00 0.35352384E+03</pdfrwt>
<pdfrwt beam="2">  1       -2 0.62121512E-02 0.35352384E+03</pdfrwt>
<totfact> 0.62694918E+03</totfact>
</mgrwt>
</event>
<event>
 4    1  0.1383574E-004  0.3529156E+03  0.7818608E-02  0.1061425E+00
          2   -1    0    0  501    0  0.00000000000E+00  0.00000000000E+00  0.65603890879E+02  0.65603890928E+02  0.25500000000E-02 0.  1.
         -2   -1    0    0    0  501 -0.00000000000E+00 -0.00000000000E+00 -0.47462654518E+03  0.47462654519E+03  0.25500000000E-02 0. -1.
    5000001    1    1    2    0    0  0.10241983991E+03  0.60748710837E+02 -0.24856219978E+03  0.30346729088E+03  0.12700000000E+03 0.  0.
   -5000001    1    1    2    0    0 -0.10241983991E+03 -0.60748710837E+02 -0.16046045453E+03  0.23676314524E+03  0.12700000000E+03 0.  0.
<mgrwt>
<rscale>  0 0.35291556E+03</rscale>
<asrwt>0</asrwt>
<pdfrwt beam="1">  1        2 0.93719847E-02 0.35291556E+03</pdfrwt>
<pdfrwt beam="2">  1       -2 0.67803790E-01 0.35291556E+03</pdfrwt>
<totfact> 0.14288042E+03</totfact>
</mgrwt>
</event>
<event>
 4    1  0.1383574E-004  0.4756397E+03  0.7818608E-02  0.1020340E+00
         -2   -1    0    0    0  501 -0.00000000000E+00  0.00000000000E+00  0.20263425595E+02  0.20263425755E+02  0.25500000000E-02 0. -1.
          2   -1    0    0  501    0  0.00000000000E+00 -0.00000000000E+00 -0.27911511411E+04  0.27911511411E+04  0.25500000000E-02 0.  1.
    5000001    1    1    2    0    0 -0.17877881669E+03 -0.88002940259E+02 -0.15443666433E+04  0.15623391795E+04  0.12700000000E+03 0.  0.
   -5000001    1    1    2    0    0  0.17877881669E+03  0.88002940259E+02 -0.12265210722E+04  0.12490753874E+04  0.12700000000E+03 0.  0.
<mgrwt>
<rscale>  0 0.47563971E+03</rscale>
<asrwt>0</asrwt>
<pdfrwt beam="1">  1        2 0.39873563E+00 0.47563971E+03</pdfrwt>
<pdfrwt beam="2">  1       -2 0.28947769E-02 0.47563971E+03</pdfrwt>
<totfact> 0.15622801E+03</totfact>
</mgrwt>
</event>
<event>
 4    1  0.1383574E-004  0.3349190E+03  0.7818608E-02  0.1068981E+00
          2   -1    0    0  501    0  0.00000000000E+00  0.00000000000E+00  0.64573134993E+03  0.64573134993E+03  0.25500000000E-02 0.  1.
         -2   -1    0    0    0  501 -0.00000000000E+00 -0.00000000000E+00 -0.43427795854E+02  0.43427795929E+02  0.25500000000E-02 0. -1.
    5000001    1    1    2    0    0 -0.86010566479E+02  0.47291713999E+02  0.39939139949E+03  0.43043793251E+03  0.12700000000E+03 0.  0.
   -5000001    1    1    2    0    0  0.86010566479E+02 -0.47291713999E+02  0.20291215459E+03  0.25872121335E+03  0.12700000000E+03 0.  0.
<mgrwt>
<rscale>  0 0.33491903E+03</rscale>
<asrwt>0</asrwt>
<pdfrwt beam="1">  1        2 0.92247329E-01 0.33491903E+03</pdfrwt>
<pdfrwt beam="2">  1       -2 0.62039713E-02 0.33491903E+03</pdfrwt>
<totfact> 0.71230437E+03</totfact>
</mgrwt>
</event>
<event>
 4    1  0.1383574E-004  0.3792510E+03  0.7818608E-02  0.1051211E+00
         -2   -1    0    0    0  501 -0.00000000000E+00  0.00000000000E+00  0.21464644146E+03  0.21464644147E+03  0.25500000000E-02 0. -1.
          2   -1    0    0  501    0  0.00000000000E+00 -0.00000000000E+00 -0.16752122010E+03  0.16752122012E+03  0.25500000000E-02 0.  1.
    5000001    1    1    2    0    0 -0.12822034133E+03 -0.58161045113E+02  0.21162980010E+02  0.19078793154E+03  0.12700000000E+03 0.  0.
   -5000001    1    1    2    0    0  0.12822034133E+03  0.58161045113E+02  0.25962241344E+02  0.19137973005E+03  0.12700000000E+03 0.  0.
<mgrwt>
<rscale>  0 0.37925102E+03</rscale>
<asrwt>0</asrwt>
<pdfrwt beam="1">  1        2 0.23931603E-01 0.37925102E+03</pdfrwt>
<pdfrwt beam="2">  1       -2 0.30663777E-01 0.37925102E+03</pdfrwt>
<totfact> 0.22353375E+03</totfact>
</mgrwt>
</event>
<event>
 4    1  0.1383574E-004  0.4202038E+03  0.7818608E-02  0.1037000E+00
         -2   -1    0    0    0  501 -0.00000000000E+00  0.00000000000E+00  0.29191698363E+03  0.29191698364E+03  0.25500000000E-02 0. -1.
          2   -1    0    0  501    0  0.00000000000E+00 -0.00000000000E+00 -0.15121698411E+03  0.15121698413E+03  0.25500000000E-02 0.  1.
    5000001    1    1    2    0    0  0.10026398681E+03  0.92553342360E+02  0.17256608779E+03  0.25402173704E+03  0.12700000000E+03 0.  0.
   -5000001    1    1    2    0    0 -0.10026398681E+03 -0.92553342360E+02 -0.31866088266E+02  0.18911223074E+03  0.12700000000E+03 0.  0.
<mgrwt>
<rscale>  0 0.42020379E+03</rscale>
<asrwt>0</asrwt>
<pdfrwt beam="1">  1        2 0.21602426E-01 0.42020379E+03</pdfrwt>
<pdfrwt beam="2">  1       -2 0.41702426E-01 0.42020379E+03</pdfrwt>
<totfact> 0.14081640E+03</totfact>
</mgrwt>
</event>
<event>
 4    1  0.1383574E-004  0.5577186E+03  0.7818608E-02  0.9997230E-01
          2   -1    0    0  501    0  0.00000000000E+00  0.00000000000E+00  0.92687356082E+03  0.92687356083E+03  0.25500000000E-02 0.  1.
         -2   -1    0    0    0  501 -0.00000000000E+00 -0.00000000000E+00 -0.83897650992E+02  0.83897651031E+02  0.25500000000E-02 0. -1.
    5000001    1    1    2    0    0 -0.51652976185E+02  0.22184338600E+03  0.24252537787E+03  0.35613210579E+03  0.12700000000E+03 0.  0.
   -5000001    1    1    2    0    0  0.51652976185E+02 -0.22184338600E+03  0.60045053196E+03  0.65463910607E+03  0.12700000000E+03 0.  0.
<mgrwt>
<rscale>  0 0.55771862E+03</rscale>
<asrwt>0</asrwt>
<pdfrwt beam="1">  1        2 0.13241050E+00 0.55771862E+03</pdfrwt>
<pdfrwt beam="2">  1       -2 0.11985379E-01 0.55771862E+03</pdfrwt>
<totfact> 0.15974606E+03</totfact>
</mgrwt>
</event>
<event>
 4    1  0.1383574E-004  0.3270021E+03  0.7818608E-02  0.1072471E+00
          2   -1    0    0  501    0  0.00000000000E+00  0.00000000000E+00  0.73412556474E+03  0.73412556474E+03  0.25500000000E-02 0.  1.
         -2   -1    0    0    0  501 -0.00000000000E+00 -0.00000000000E+00 -0.36414196017E+02  0.36414196106E+02  0.25500000000E-02 0. -1.
    5000001    1    1    2    0    0  0.98748398910E+02 -0.25413047688E+02  0.38271893955E+03  0.41593251372E+03  0.12700000000E+03 0.  0.
   -5000001    1    1    2    0    0 -0.98748398910E+02  0.25413047688E+02  0.31499242917E+03  0.35460724713E+03  0.12700000000E+03 0.  0.
<mgrwt>
<rscale>  0 0.32700209E+03</rscale>
<asrwt>0</asrwt>
<pdfrwt beam="1">  1        2 0.10487509E+00 0.32700209E+03</pdfrwt>
<pdfrwt beam="2">  1       -2 0.52020276E-02 0.32700209E+03</pdfrwt>
<totfact> 0.80097759E+03</totfact>
</mgrwt>
</event>
<event>
 4    1  0.1383574E-004  0.3839432E+03  0.7818608E-02  0.1049486E+00
          2   -1    0    0  501    0  0.00000000000E+00  0.00000000000E+00  0.44720876698E+03  0.44720876699E+03  0.25500000000E-02 0.  1.
         -2   -1    0    0    0  501 -0.00000000000E+00 -0.00000000000E+00 -0.82406920695E+02  0.82406920735E+02  0.25500000000E-02 0. -1.
    5000001    1    1    2    0    0  0.11023558837E+03 -0.35756332054E+02  0.30020700497E+03  0.34595324259E+03  0.12700000000E+03 0.  0.
   -5000001    1    1    2    0    0 -0.11023558837E+03  0.35756332054E+02  0.64594841310E+02  0.18366244513E+03  0.12700000000E+03 0.  0.
<mgrwt>
<rscale>  0 0.38394321E+03</rscale>
<asrwt>0</asrwt>
<pdfrwt beam="1">  1        2 0.63886967E-01 0.38394321E+03</pdfrwt>
<pdfrwt beam="2">  1       -2 0.11772417E-01 0.38394321E+03</pdfrwt>
<totfact> 0.39313314E+03</totfact>
</mgrwt>
</event>
<event>
 4    1  0.1383574E-004  0.2700824E+03  0.7818608E-02  0.1101232E+00
         -2   -1    0    0    0  501 -0.00000000000E+00  0.00000000000E+00  0.10951198162E+03  0.10951198165E+03  0.25500000000E-02 0. -1.
          2   -1    0    0  501    0  0.00000000000E+00 -0.00000000000E+00 -0.16652180114E+03  0.16652180116E+03  0.25500000000E-02 0.  1.
    5000001    1    1    2    0    0 -0.38835114902E+02 -0.22597337823E+02 -0.38110225468E+02  0.14000069682E+03  0.12700000000E+03 0.  0.
   -5000001    1    1    2    0    0  0.38835114902E+02  0.22597337823E+02 -0.18899594053E+02  0.13603308598E+03  0.12700000000E+03 0.  0.
<mgrwt>
<rscale>  0 0.27008245E+03</rscale>
<asrwt>0</asrwt>
<pdfrwt beam="1">  1        2 0.23788829E-01 0.27008245E+03</pdfrwt>
<pdfrwt beam="2">  1       -2 0.15644569E-01 0.27008245E+03</pdfrwt>
<totfact> 0.71926252E+03</totfact>
</mgrwt>
</event>
<event>
 4    1  0.1383574E-004  0.4867938E+03  0.7818608E-02  0.1017285E+00
          2   -1    0    0  501    0  0.00000000000E+00  0.00000000000E+00  0.16253660722E+04  0.16253660722E+04  0.25500000000E-02 0.  1.
         -2   -1    0    0    0  501 -0.00000000000E+00 -0.00000000000E+00 -0.36448433903E+02  0.36448433993E+02  0.25500000000E-02 0. -1.
    5000001    1    1    2    0    0 -0.12224278936E+03  0.15257045931E+03  0.55568819752E+03  0.60261050229E+03  0.12700000000E+03 0.  0.
   -5000001    1    1    2    0    0  0.12224278936E+03 -0.15257045931E+03  0.10332294408E+04  0.10592040039E+04  0.12700000000E+03 0.  0.
<mgrwt>
<rscale>  0 0.48679379E+03</rscale>
<asrwt>0</asrwt>
<pdfrwt beam="1">  1        2 0.23219511E+00 0.48679379E+03</pdfrwt>
<pdfrwt beam="2">  1       -2 0.52069201E-02 0.48679379E+03</pdfrwt>
<totfact> 0.24742680E+03</totfact>
</mgrwt>
</event>
<event>
 4    1  0.1383574E-004  0.4679007E+03  0.7818608E-02  0.1022514E+00
          2   -1    0    0  501    0  0.00000000000E+00  0.00000000000E+00  0.20547064672E+04  0.20547064672E+04  0.25500000000E-02 0.  1.
         -2   -1    0    0    0  501 -0.00000000000E+00 -0.00000000000E+00 -0.26637751547E+02  0.26637751669E+02  0.25500000000E-02 0. -1.
    5000001    1    1    2    0    0  0.13630427946E+03  0.12044493914E+03  0.13444632087E+04  0.13626430785E+04  0.12700000000E+03 0.  0.
   -5000001    1    1    2    0    0 -0.13630427946E+03 -0.12044493914E+03  0.68360550693E+03  0.71870114030E+03  0.12700000000E+03 0.  0.
<mgrwt>
<rscale>  0 0.46790068E+03</rscale>
<asrwt>0</asrwt>
<pdfrwt beam="1">  1        2 0.29352952E+00 0.46790068E+03</pdfrwt>
<pdfrwt beam="2">  1       -2 0.38053927E-02 0.46790068E+03</pdfrwt>
<totfact> 0.24415911E+03</totfact>
</mgrwt>
</event>
<event>
 4    1  0.1383574E-004  0.3540368E+03  0.7818608E-02  0.1060970E+00
         -2   -1    0    0    0  501 -0.00000000000E+00  0.00000000000E+00  0.91902498758E+02  0.91902498793E+02  0.25500000000E-02 0. -1.
          2   -1    0    0  501    0  0.00000000000E+00 -0.00000000000E+00 -0.34096481572E+03  0.34096481573E+03  0.25500000000E-02 0.  1.
    5000001    1    1    2    0    0  0.22517167497E+02 -0.97376331149E+02 -0.36216830448E+02  0.16561953842E+03  0.12700000000E+03 0.  0.
   -5000001    1    1    2    0    0 -0.22517167497E+02  0.97376331149E+02 -0.21284548651E+03  0.26724777610E+03  0.12700000000E+03 0.  0.
<mgrwt>
<rscale>  0 0.35403683E+03</rscale>
<asrwt>0</asrwt>
<pdfrwt beam="1">  1        2 0.48709259E-01 0.35403683E+03</pdfrwt>
<pdfrwt beam="2">  1       -2 0.13128929E-01 0.35403683E+03</pdfrwt>
<totfact> 0.44180147E+03</totfact>
</mgrwt>
</event>
<event>
 4    1  0.1383574E-004  0.5210845E+03  0.7818608E-02  0.1008417E+00
          2   -1    0    0  501    0  0.00000000000E+00  0.00000000000E+00  0.13654161101E+04  0.13654161101E+04  0.25500000000E-02 0.  1.
         -2   -1    0    0    0  501 -0.00000000000E+00 -0.00000000000E+00 -0.49715448092E+02  0.49715448157E+02  0.25500000000E-02 0. -1.
    5000001    1    1    2    0    0 -0.16622446885E+03  0.31872485495E+02  0.10706686395E+04  0.10913783784E+04  0.12700000000E+03 0.  0.
   -5000001    1    1    2    0    0  0.16622446885E+03 -0.31872485495E+02  0.24503202255E+03  0.32375317983E+03  0.12700000000E+03 0.  0.
<mgrwt>
<rscale>  0 0.52108454E+03</rscale>
<asrwt>0</asrwt>
<pdfrwt beam="1">  1        2 0.19505945E+00 0.52108454E+03</pdfrwt>
<pdfrwt beam="2">  1       -2 0.71022068E-02 0.52108454E+03</pdfrwt>
<totfact> 0.20776684E+03</totfact>
</mgrwt>
</event>
<event>
 4    1  0.1383574E-004  0.3300011E+03  0.7818608E-02  0.1071136E+00
         -2   -1    0    0    0  501 -0.00000000000E+00  0.00000000000E+00  0.44011113326E+02  0.44011113399E+02  0.25500000000E-02 0. -1.
          2   -1    0    0  501    0  0.00000000000E+00 -0.00000000000E+00 -0.61859774366E+03  0.61859774367E+03  0.25500000000E-02 0.  1.
    5000001    1    1    2    0    0  0.10208814448E+03  0.14930711184E+02 -0.32994688050E+03  0.36829181274E+03  0.12700000000E+03 0.  0.
   -5000001    1    1    2    0    0 -0.10208814448E+03 -0.14930711184E+02 -0.24463974984E+03  0.29431704433E+03  0.12700000000E+03 0.  0.
<mgrwt>
<rscale>  0 0.33000106E+03</rscale>
<asrwt>0</asrwt>
<pdfrwt beam="1">  1        2 0.88371101E-01 0.33000106E+03</pdfrwt>
<pdfrwt beam="2">  1       -2 0.62873023E-02 0.33000106E+03</pdfrwt>
<totfact> 0.73320437E+03</totfact>
</mgrwt>
</event>
<event>
 4    1  0.1383574E-004  0.2904116E+03  0.7818608E-02  0.1090134E+00
         -2   -1    0    0    0  501 -0.00000000000E+00  0.00000000000E+00  0.19632180404E+03  0.19632180406E+03  0.25500000000E-02 0. -1.
          2   -1    0    0  501    0  0.00000000000E+00 -0.00000000000E+00 -0.10739876743E+03  0.10739876746E+03  0.25500000000E-02 0.  1.
    5000001    1    1    2    0    0 -0.39887953863E+02 -0.57697440135E+02  0.38214823074E+02  0.15003138393E+03  0.12700000000E+03 0.  0.
   -5000001    1    1    2    0    0  0.39887953863E+02  0.57697440135E+02  0.50708213537E+02  0.15368918759E+03  0.12700000000E+03 0.  0.
<mgrwt>
<rscale>  0 0.29041157E+03</rscale>
<asrwt>0</asrwt>
<pdfrwt beam="1">  1        2 0.15342681E-01 0.29041157E+03</pdfrwt>
<pdfrwt beam="2">  1       -2 0.28045972E-01 0.29041157E+03</pdfrwt>
<totfact> 0.43707244E+03</totfact>
</mgrwt>
</event>
<event>
 4    1  0.1383574E-004  0.4072732E+03  0.7818608E-02  0.1041290E+00
         -2   -1    0    0    0  501 -0.00000000000E+00  0.00000000000E+00  0.72918314748E+02  0.72918314792E+02  0.25500000000E-02 0. -1.
          2   -1    0    0  501    0  0.00000000000E+00 -0.00000000000E+00 -0.56868943227E+03  0.56868943228E+03  0.25500000000E-02 0.  1.
    5000001    1    1    2    0    0  0.11884477682E+02  0.12020951384E+03 -0.84567751459E+02  0.19460799730E+03  0.12700000000E+03 0.  0.
   -5000001    1    1    2    0    0 -0.11884477682E+02 -0.12020951384E+03 -0.41120336607E+03  0.44699974977E+03  0.12700000000E+03 0.  0.
<mgrwt>
<rscale>  0 0.40727325E+03</rscale>
<asrwt>0</asrwt>
<pdfrwt beam="1">  1        2 0.81241345E-01 0.40727325E+03</pdfrwt>
<pdfrwt beam="2">  1       -2 0.10416902E-01 0.40727325E+03</pdfrwt>
<totfact> 0.36617406E+03</totfact>
</mgrwt>
</event>
<event>
 4    1  0.1383574E-004  0.4077735E+03  0.7818608E-02  0.1041121E+00
          2   -1    0    0  501    0  0.00000000000E+00  0.00000000000E+00  0.40195332918E+03  0.40195332919E+03  0.25500000000E-02 0.  1.
         -2   -1    0    0    0  501 -0.00000000000E+00 -0.00000000000E+00 -0.10341948874E+03  0.10341948877E+03  0.25500000000E-02 0. -1.
    5000001    1    1    2    0    0 -0.12948611207E+03 -0.84878875226E+02  0.10175398927E+03  0.22461956952E+03  0.12700000000E+03 0.  0.
   -5000001    1    1    2    0    0  0.12948611207E+03  0.84878875226E+02  0.19677985117E+03  0.28075324844E+03  0.12700000000E+03 0.  0.
<mgrwt>
<rscale>  0 0.40777350E+03</rscale>
<asrwt>0</asrwt>
<pdfrwt beam="1">  1        2 0.57421904E-01 0.40777350E+03</pdfrwt>
<pdfrwt beam="2">  1       -2 0.14774213E-01 0.40777350E+03</pdfrwt>
<totfact> 0.30461250E+03</totfact>
</mgrwt>
</event>
<event>
 4    1  0.1383574E-004  0.4455475E+03  0.7818608E-02  0.1029058E+00
         -2   -1    0    0    0  501 -0.00000000000E+00  0.00000000000E+00  0.25290233913E+02  0.25290234041E+02  0.25500000000E-02 0. -1.
          2   -1    0    0  501    0  0.00000000000E+00 -0.00000000000E+00 -0.19623445752E+04  0.19623445752E+04  0.25500000000E-02 0.  1.
    5000001    1    1    2    0    0  0.10811767657E+03  0.10110812420E+03 -0.14487309598E+04  0.14618011762E+04  0.12700000000E+03 0.  0.
   -5000001    1    1    2    0    0 -0.10811767657E+03 -0.10110812420E+03 -0.48832338149E+03  0.52583363308E+03  0.12700000000E+03 0.  0.
<mgrwt>
<rscale>  0 0.44554754E+03</rscale>
<asrwt>0</asrwt>
<pdfrwt beam="1">  1        2 0.28033484E+00 0.44554754E+03</pdfrwt>
<pdfrwt beam="2">  1       -2 0.36128918E-02 0.44554754E+03</pdfrwt>
<totfact> 0.29392057E+03</totfact>
</mgrwt>
</event>
<event>
 4    1  0.1383574E-004  0.5503721E+03  0.7818608E-02  0.1001408E+00
         -2   -1    0    0    0  501 -0.00000000000E+00  0.00000000000E+00  0.92003920299E+02  0.92003920335E+02  0.25500000000E-02 0. -1.
          2   -1    0    0  501    0  0.00000000000E+00 -0.00000000000E+00 -0.82308829007E+03  0.82308829008E+03  0.25500000000E-02 0.  1.
    5000001    1    1    2    0    0 -0.22248612401E+03  0.16732540742E+02 -0.20079175793E+03  0.32592389196E+03  0.12700000000E+03 0.  0.
   -5000001    1    1    2    0    0  0.22248612401E+03 -0.16732540742E+02 -0.53029261184E+03  0.58916831845E+03  0.12700000000E+03 0.  0.
<mgrwt>
<rscale>  0 0.55037205E+03</rscale>
<asrwt>0</asrwt>
<pdfrwt beam="1">  1        2 0.11758404E+00 0.55037205E+03</pdfrwt>
<pdfrwt beam="2">  1       -2 0.13143418E-01 0.55037205E+03</pdfrwt>
<totfact> 0.16044823E+03</totfact>
</mgrwt>
</event>
<event>
 4    1  0.1383574E-004  0.3805041E+03  0.7818608E-02  0.1050748E+00
         -2   -1    0    0    0  501 -0.00000000000E+00  0.00000000000E+00  0.14525036224E+03  0.14525036227E+03  0.25500000000E-02 0. -1.
          2   -1    0    0  501    0  0.00000000000E+00 -0.00000000000E+00 -0.24919616524E+03  0.24919616525E+03  0.25500000000E-02 0.  1.
    5000001    1    1    2    0    0 -0.50060301563E+02 -0.13147565319E+03 -0.69162169135E+02  0.20175303421E+03  0.12700000000E+03 0.  0.
   -5000001    1    1    2    0    0  0.50060301563E+02  0.13147565319E+03 -0.34783633858E+02  0.19269349330E+03  0.12700000000E+03 0.  0.
<mgrwt>
<rscale>  0 0.38050405E+03</rscale>
<asrwt>0</asrwt>
<pdfrwt beam="1">  1        2 0.35599452E-01 0.38050405E+03</pdfrwt>
<pdfrwt beam="2">  1       -2 0.20750052E-01 0.38050405E+03</pdfrwt>
<totfact> 0.28811475E+03</totfact>
</mgrwt>
</event>
<event>
 4    1  0.1383574E-004  0.1439275E+04  0.7818608E-02  0.8925870E-01
          2   -1    0    0  501    0  0.00000000000E+00  0.00000000000E+00  0.24129297363E+04  0.24129297363E+04  0.25500000000E-02 0.  1.
         -2   -1    0    0    0  501 -0.00000000000E+00 -0.00000000000E+00 -0.21462635951E+03  0.21462635952E+03  0.25500000000E-02 0. -1.
    5000001    1    1    2    0    0 -0.45879383334E+03 -0.41210053712E+03  0.17353204892E+04  0.18460186441E+04  0.12700000000E+03 0.  0.
   -5000001    1    1    2    0    0  0.45879383334E+03  0.41210053712E+03  0.46298288758E+03  0.78153745169E+03  0.12700000000E+03 0.  0.
<mgrwt>
<rscale>  0 0.14392753E+04</rscale>
<asrwt>0</asrwt>
<pdfrwt beam="1">  1        2 0.34470422E+00 0.14392753E+04</pdfrwt>
<pdfrwt beam="2">  1       -2 0.30660911E-01 0.14392753E+04</pdfrwt>
<totfact> 0.46930164E+01</totfact>
</mgrwt>
</event>
<event>
 4    1  0.1383574E-004  0.3036892E+03  0.7818608E-02  0.1083411E+00
         -2   -1    0    0    0  501 -0.00000000000E+00  0.00000000000E+00  0.13194786466E+02  0.13194786713E+02  0.25500000000E-02 0. -1.
          2   -1    0    0  501    0  0.00000000000E+00 -0.00000000000E+00 -0.17474163373E+04  0.17474163373E+04  0.25500000000E-02 0.  1.
    5000001    1    1    2    0    0 -0.45612120586E+02 -0.53609937760E+02 -0.11246420860E+04  0.11339767690E+04  0.12700000000E+03 0.  0.
   -5000001    1    1    2    0    0  0.45612120586E+02  0.53609937760E+02 -0.60957946487E+03  0.62663435507E+03  0.12700000000E+03 0.  0.
<mgrwt>
<rscale>  0 0.30368922E+03</rscale>
<asrwt>0</asrwt>
<pdfrwt beam="1">  1        2 0.24963076E+00 0.30368922E+03</pdfrwt>
<pdfrwt beam="2">  1       -2 0.18849706E-02 0.30368922E+03</pdfrwt>
<totfact> 0.99257636E+03</totfact>
</mgrwt>
</event>
<event>
 4    1  0.1383574E-004  0.4503252E+03  0.7818608E-02  0.1027625E+00
         -2   -1    0    0    0  501 -0.00000000000E+00  0.00000000000E+00  0.27780290628E+02  0.27780290745E+02  0.25500000000E-02 0. -1.
          2   -1    0    0  501    0  0.00000000000E+00 -0.00000000000E+00 -0.18249698603E+04  0.18249698603E+04  0.25500000000E-02 0.  1.
    5000001    1    1    2    0    0 -0.60507950417E+02 -0.13791152546E+03 -0.45000210298E+03  0.49123486604E+03  0.12700000000E+03 0.  0.
   -5000001    1    1    2    0    0  0.60507950417E+02  0.13791152546E+03 -0.13471874667E+04  0.13615152850E+04  0.12700000000E+03 0.  0.
<mgrwt>
<rscale>  0 0.45032519E+03</rscale>
<asrwt>0</asrwt>
<pdfrwt beam="1">  1        2 0.26070990E+00 0.45032519E+03</pdfrwt>
<pdfrwt beam="2">  1       -2 0.39686141E-02 0.45032519E+03</pdfrwt>
<totfact> 0.29818584E+03</totfact>
</mgrwt>
</event>
<event>
 4    1  0.1383574E-004  0.6166602E+03  0.7818608E-02  0.9871432E-01
          2   -1    0    0  501    0  0.00000000000E+00  0.00000000000E+00  0.16440790746E+04  0.16440790746E+04  0.25500000000E-02 0.  1.
         -2   -1    0    0    0  501 -0.00000000000E+00 -0.00000000000E+00 -0.57824134327E+02  0.57824134383E+02  0.25500000000E-02 0. -1.
    5000001    1    1    2    0    0 -0.19421215789E+03  0.20209327162E+03  0.84681365624E+03  0.90098968978E+03  0.12700000000E+03 0.  0.
   -5000001    1    1    2    0    0  0.19421215789E+03 -0.20209327162E+03  0.73944128401E+03  0.80091351918E+03  0.12700000000E+03 0.  0.
<mgrwt>
<rscale>  0 0.61666020E+03</rscale>
<asrwt>0</asrwt>
<pdfrwt beam="1">  1        2 0.23486844E+00 0.61666020E+03</pdfrwt>
<pdfrwt beam="2">  1       -2 0.82605905E-02 0.61666020E+03</pdfrwt>
<totfact> 0.11668824E+03</totfact>
</mgrwt>
</event>
<event>
 4    1  0.1383574E-004  0.4267133E+03  0.7818608E-02  0.1034903E+00
         -2   -1    0    0    0  501 -0.00000000000E+00  0.00000000000E+00  0.11861017067E+03  0.11861017070E+03  0.25500000000E-02 0. -1.
          2   -1    0    0  501    0  0.00000000000E+00 -0.00000000000E+00 -0.38378712511E+03  0.38378712512E+03  0.25500000000E-02 0.  1.
    5000001    1    1    2    0    0 -0.14160959974E+03  0.89189195971E+02 -0.17639001674E+03  0.27431811719E+03  0.12700000000E+03 0.  0.
   -5000001    1    1    2    0    0  0.14160959974E+03 -0.89189195971E+02 -0.88786937698E+02  0.22807917862E+03  0.12700000000E+03 0.  0.
<mgrwt>
<rscale>  0 0.42671328E+03</rscale>
<asrwt>0</asrwt>
<pdfrwt beam="1">  1        2 0.54826731E-01 0.42671328E+03</pdfrwt>
<pdfrwt beam="2">  1       -2 0.16944310E-01 0.42671328E+03</pdfrwt>
<totfact> 0.25476669E+03</totfact>
</mgrwt>
</event>
<event>
 4    1  0.1383574E-004  0.3118684E+03  0.7818608E-02  0.1079454E+00
         -2   -1    0    0    0  501 -0.00000000000E+00  0.00000000000E+00  0.46913299868E+02  0.46913299937E+02  0.25500000000E-02 0. -1.
          2   -1    0    0  501    0  0.00000000000E+00 -0.00000000000E+00 -0.51830672227E+03  0.51830672228E+03  0.25500000000E-02 0.  1.
    5000001    1    1    2    0    0  0.29884543898E+02  0.13663230896E+02 -0.82911825980E+02  0.15518743741E+03  0.12700000000E+03 0.  0.
   -5000001    1    1    2    0    0 -0.29884543898E+02 -0.13663230896E+02 -0.38848159642E+03  0.41003258480E+03  0.12700000000E+03 0.  0.
<mgrwt>
<rscale>  0 0.31186843E+03</rscale>
<asrwt>0</asrwt>
<pdfrwt beam="1">  1        2 0.74043814E-01 0.31186843E+03</pdfrwt>
<pdfrwt beam="2">  1       -2 0.67019003E-02 0.31186843E+03</pdfrwt>
<totfact> 0.81060850E+03</totfact>
</mgrwt>
</event>
<event>
 4    1  0.1383574E-004  0.5897209E+03  0.7818608E-02  0.9926964E-01
         -2   -1    0    0    0  501 -0.00000000000E+00  0.00000000000E+00  0.38239194424E+02  0.38239194509E+02  0.25500000000E-02 0. -1.
          2   -1    0    0  501    0  0.00000000000E+00 -0.00000000000E+00 -0.22736535282E+04  0.22736535282E+04  0.25500000000E-02 0.  1.
    5000001    1    1    2    0    0 -0.22493432324E+03  0.87635000306E+02 -0.15566835243E+04  0.15804011952E+04  0.12700000000E+03 0.  0.
   -5000001    1    1    2    0    0  0.22493432324E+03 -0.87635000306E+02 -0.67873080947E+03  0.73149152747E+03  0.12700000000E+03 0.  0.
<mgrwt>
<rscale>  0 0.58972088E+03</rscale>
<asrwt>0</asrwt>
<pdfrwt beam="1">  1        2 0.32480756E+00 0.58972088E+03</pdfrwt>
<pdfrwt beam="2">  1       -2 0.54627435E-02 0.58972088E+03</pdfrwt>
<totfact> 0.10796957E+03</totfact>
</mgrwt>
</event>
<event>
 4    1  0.1383574E-004  0.5795978E+03  0.7818608E-02  0.9948662E-01
          2   -1    0    0  501    0  0.00000000000E+00  0.00000000000E+00  0.26025822456E+04  0.26025822456E+04  0.25500000000E-02 0.  1.
         -2   -1    0    0    0  501 -0.00000000000E+00 -0.00000000000E+00 -0.32269263074E+02  0.32269263175E+02  0.25500000000E-02 0. -1.
    5000001    1    1    2    0    0 -0.20902532522E+03  0.15013206272E+03  0.14683094192E+04  0.14960925016E+04  0.12700000000E+03 0.  0.
   -5000001    1    1    2    0    0  0.20902532522E+03 -0.15013206272E+03  0.11020035633E+04  0.11387590071E+04  0.12700000000E+03 0.  0.
<mgrwt>
<rscale>  0 0.57959783E+03</rscale>
<asrwt>0</asrwt>
<pdfrwt beam="1">  1        2 0.37179741E+00 0.57959783E+03</pdfrwt>
<pdfrwt beam="2">  1       -2 0.46098954E-02 0.57959783E+03</pdfrwt>
<totfact> 0.95502636E+02</totfact>
</mgrwt>
</event>
<event>
 4    1  0.1383574E-004  0.6583266E+03  0.7818608E-02  0.9791279E-01
         -2   -1    0    0    0  501 -0.00000000000E+00  0.00000000000E+00  0.16886219346E+03  0.16886219348E+03  0.25500000000E-02 0. -1.
          2   -1    0    0  501    0  0.00000000000E+00 -0.00000000000E+00 -0.64163845191E+03  0.64163845192E+03  0.25500000000E-02 0.  1.
    5000001    1    1    2    0    0  0.22294125296E+03  0.18403885387E+03 -0.35086796128E+03  0.47202799520E+03  0.12700000000E+03 0.  0.
   -5000001    1    1    2    0    0 -0.22294125296E+03 -0.18403885387E+03 -0.12190829718E+03  0.33847265019E+03  0.12700000000E+03 0.  0.
<mgrwt>
<rscale>  0 0.65832659E+03</rscale>
<asrwt>0</asrwt>
<pdfrwt beam="1">  1        2 0.91662635E-01 0.65832659E+03</pdfrwt>
<pdfrwt beam="2">  1       -2 0.24123171E-01 0.65832659E+03</pdfrwt>
<totfact> 0.76798158E+02</totfact>
</mgrwt>
</event>
<event>
 4    1  0.1383574E-004  0.6327200E+03  0.7818608E-02  0.9839755E-01
          2   -1    0    0  501    0  0.00000000000E+00  0.00000000000E+00  0.20094905616E+04  0.20094905616E+04  0.25500000000E-02 0.  1.
         -2   -1    0    0    0  501 -0.00000000000E+00 -0.00000000000E+00 -0.49805476304E+02  0.49805476370E+02  0.25500000000E-02 0. -1.
    5000001    1    1    2    0    0  0.22598242159E+03 -0.13050195572E+03  0.57001456986E+03  0.63964398314E+03  0.12700000000E+03 0.  0.
   -5000001    1    1    2    0    0 -0.22598242159E+03  0.13050195572E+03  0.13896705154E+04  0.14196520548E+04  0.12700000000E+03 0.  0.
<mgrwt>
<rscale>  0 0.63271995E+03</rscale>
<asrwt>0</asrwt>
<pdfrwt beam="1">  1        2 0.28706998E+00 0.63271995E+03</pdfrwt>
<pdfrwt beam="2">  1       -2 0.71150706E-02 0.63271995E+03</pdfrwt>
<totfact> 0.96598069E+02</totfact>
</mgrwt>
</event>
<event>
 4    1  0.1383574E-004  0.3259600E+03  0.7818608E-02  0.1072939E+00
         -2   -1    0    0    0  501 -0.00000000000E+00  0.00000000000E+00  0.10088532443E+02  0.10088532765E+02  0.25500000000E-02 0. -1.
          2   -1    0    0  501    0  0.00000000000E+00 -0.00000000000E+00 -0.26329382759E+04  0.26329382759E+04  0.25500000000E-02 0.  1.
    5000001    1    1    2    0    0 -0.98779614601E+02  0.89102181769E+00 -0.11007181644E+04  0.11124152478E+04  0.12700000000E+03 0.  0.
   -5000001    1    1    2    0    0  0.98779614601E+02 -0.89102181769E+00 -0.15221315791E+04  0.15306115609E+04  0.12700000000E+03 0.  0.
<mgrwt>
<rscale>  0 0.32596002E+03</rscale>
<asrwt>0</asrwt>
<pdfrwt beam="1">  1        2 0.37613360E+00 0.32596002E+03</pdfrwt>
<pdfrwt beam="2">  1       -2 0.14412206E-02 0.32596002E+03</pdfrwt>
<totfact> 0.53723499E+03</totfact>
</mgrwt>
</event>
<event>
 4    1  0.1383574E-004  0.4429346E+03  0.7818608E-02  0.1029850E+00
         -2   -1    0    0    0  501 -0.00000000000E+00  0.00000000000E+00  0.70911458544E+02  0.70911458589E+02  0.25500000000E-02 0. -1.
          2   -1    0    0  501    0  0.00000000000E+00 -0.00000000000E+00 -0.69167602287E+03  0.69167602287E+03  0.25500000000E-02 0.  1.
    5000001    1    1    2    0    0  0.37936689926E+02 -0.17741582306E+03 -0.31345676634E+03  0.38379644485E+03  0.12700000000E+03 0.  0.
   -5000001    1    1    2    0    0 -0.37936689926E+02  0.17741582306E+03 -0.30730779798E+03  0.37879103661E+03  0.12700000000E+03 0.  0.
<mgrwt>
<rscale>  0 0.44293456E+03</rscale>
<asrwt>0</asrwt>
<pdfrwt beam="1">  1        2 0.98810856E-01 0.44293456E+03</pdfrwt>
<pdfrwt beam="2">  1       -2 0.10130209E-01 0.44293456E+03</pdfrwt>
<totfact> 0.30464820E+03</totfact>
</mgrwt>
</event>
<event>
 4    1  0.1383574E-004  0.4143798E+03  0.7818608E-02  0.1038911E+00
         -2   -1    0    0    0  501 -0.00000000000E+00  0.00000000000E+00  0.30198316292E+03  0.30198316293E+03  0.25500000000E-02 0. -1.
          2   -1    0    0  501    0  0.00000000000E+00 -0.00000000000E+00 -0.14215250603E+03  0.14215250606E+03  0.25500000000E-02 0.  1.
    5000001    1    1    2    0    0  0.54426080420E+02  0.14907059556E+03  0.12298044837E+03  0.23756563592E+03  0.12700000000E+03 0.  0.
   -5000001    1    1    2    0    0 -0.54426080420E+02 -0.14907059556E+03  0.36850208516E+02  0.20657003306E+03  0.12700000000E+03 0.  0.
<mgrwt>
<rscale>  0 0.41437984E+03</rscale>
<asrwt>0</asrwt>
<pdfrwt beam="1">  1        2 0.20307501E-01 0.41437984E+03</pdfrwt>
<pdfrwt beam="2">  1       -2 0.43140451E-01 0.41437984E+03</pdfrwt>
<totfact> 0.14153958E+03</totfact>
</mgrwt>
</event>
<event>
 4    1  0.1383574E-004  0.3441391E+03  0.7818608E-02  0.1065047E+00
         -2   -1    0    0    0  501 -0.00000000000E+00  0.00000000000E+00  0.48372450937E+02  0.48372451004E+02  0.25500000000E-02 0. -1.
          2   -1    0    0  501    0  0.00000000000E+00 -0.00000000000E+00 -0.61208256501E+03  0.61208256501E+03  0.25500000000E-02 0.  1.
    5000001    1    1    2    0    0 -0.12097897598E+02 -0.11407849307E+03 -0.31611457587E+03  0.35946861724E+03  0.12700000000E+03 0.  0.
   -5000001    1    1    2    0    0  0.12097897598E+02  0.11407849307E+03 -0.24759553820E+03  0.30098639877E+03  0.12700000000E+03 0.  0.
<mgrwt>
<rscale>  0 0.34413912E+03</rscale>
<asrwt>0</asrwt>
<pdfrwt beam="1">  1        2 0.87440362E-01 0.34413912E+03</pdfrwt>
<pdfrwt beam="2">  1       -2 0.69103505E-02 0.34413912E+03</pdfrwt>
<totfact> 0.64179939E+03</totfact>
</mgrwt>
</event>
<event>
 4    1  0.1383574E-004  0.2840238E+03  0.7818608E-02  0.1093511E+00
         -2   -1    0    0    0  501 -0.00000000000E+00  0.00000000000E+00  0.24222864013E+02  0.24222864147E+02  0.25500000000E-02 0. -1.
          2   -1    0    0  501    0  0.00000000000E+00 -0.00000000000E+00 -0.83257601343E+03  0.83257601344E+03  0.25500000000E-02 0.  1.
    5000001    1    1    2    0    0 -0.63416633819E+02  0.20326205504E+01 -0.39347933668E+03  0.41830705157E+03  0.12700000000E+03 0.  0.
   -5000001    1    1    2    0    0  0.63416633819E+02 -0.20326205504E+01 -0.41487381273E+03  0.43849182602E+03  0.12700000000E+03 0.  0.
<mgrwt>
<rscale>  0 0.28402377E+03</rscale>
<asrwt>0</asrwt>
<pdfrwt beam="1">  1        2 0.11893941E+00 0.28402377E+03</pdfrwt>
<pdfrwt beam="2">  1       -2 0.34604097E-02 0.28402377E+03</pdfrwt>
<totfact> 0.12646324E+04</totfact>
</mgrwt>
</event>
<event>
 4    1  0.1383574E-004  0.3272754E+03  0.7818608E-02  0.1072349E+00
          2   -1    0    0  501    0  0.00000000000E+00  0.00000000000E+00  0.23108889051E+03  0.23108889052E+03  0.25500000000E-02 0.  1.
         -2   -1    0    0    0  501 -0.00000000000E+00 -0.00000000000E+00 -0.11587444585E+03  0.11587444588E+03  0.25500000000E-02 0. -1.
    5000001    1    1    2    0    0 -0.94321610851E+02 -0.15492119131E+02  0.98827093873E+02  0.18716935249E+03  0.12700000000E+03 0.  0.
   -5000001    1    1    2    0    0  0.94321610851E+02  0.15492119131E+02  0.16387350780E+02  0.15979398391E+03  0.12700000000E+03 0.  0.
<mgrwt>
<rscale>  0 0.32727540E+03</rscale>
<asrwt>0</asrwt>
<pdfrwt beam="1">  1        2 0.33012699E-01 0.32727540E+03</pdfrwt>
<pdfrwt beam="2">  1       -2 0.16553492E-01 0.32727540E+03</pdfrwt>
<totfact> 0.45832335E+03</totfact>
</mgrwt>
</event>
<event>
 4    1  0.1383574E-004  0.4877741E+03  0.7818608E-02  0.1017020E+00
         -2   -1    0    0    0  501 -0.00000000000E+00  0.00000000000E+00  0.16503704977E+02  0.16503705174E+02  0.25500000000E-02 0. -1.
          2   -1    0    0  501    0  0.00000000000E+00 -0.00000000000E+00 -0.36040935911E+04  0.36040935911E+04  0.25500000000E-02 0.  1.
    5000001    1    1    2    0    0  0.20699749096E+03  0.32716714682E+01 -0.16289455485E+04  0.16469521138E+04  0.12700000000E+03 0.  0.
   -5000001    1    1    2    0    0 -0.20699749096E+03 -0.32716714682E+01 -0.19586443376E+04  0.19736451825E+04  0.12700000000E+03 0.  0.
<mgrwt>
<rscale>  0 0.48777412E+03</rscale>
<asrwt>0</asrwt>
<pdfrwt beam="1">  1        2 0.51487001E+00 0.48777412E+03</pdfrwt>
<pdfrwt beam="2">  1       -2 0.23576745E-02 0.48777412E+03</pdfrwt>
<totfact> 0.74538700E+02</totfact>
</mgrwt>
</event>
<event>
 4    1  0.1383574E-004  0.7200663E+03  0.7818608E-02  0.9683518E-01
         -2   -1    0    0    0  501 -0.00000000000E+00  0.00000000000E+00  0.11291338913E+03  0.11291338916E+03  0.25500000000E-02 0. -1.
          2   -1    0    0  501    0  0.00000000000E+00 -0.00000000000E+00 -0.11479937295E+04  0.11479937295E+04  0.25500000000E-02 0.  1.
    5000001    1    1    2    0    0  0.31709492388E+03 -0.51235137116E+02 -0.33964515352E+03  0.48441930219E+03  0.12700000000E+03 0.  0.
   -5000001    1    1    2    0    0 -0.31709492388E+03  0.51235137116E+02 -0.69543518686E+03  0.77648781648E+03  0.12700000000E+03 0.  0.
<mgrwt>
<rscale>  0 0.72006628E+03</rscale>
<asrwt>0</asrwt>
<pdfrwt beam="1">  1        2 0.16399910E+00 0.72006628E+03</pdfrwt>
<pdfrwt beam="2">  1       -2 0.16130485E-01 0.72006628E+03</pdfrwt>
<totfact> 0.71282287E+02</totfact>
</mgrwt>
</event>
<event>
 4    1  0.1383574E-004  0.4192324E+03  0.7818608E-02  0.1037316E+00
         -2   -1    0    0    0  501 -0.00000000000E+00  0.00000000000E+00  0.24488354215E+02  0.24488354348E+02  0.25500000000E-02 0. -1.
          2   -1    0    0  501    0  0.00000000000E+00 -0.00000000000E+00 -0.17942796072E+04  0.17942796072E+04  0.25500000000E-02 0.  1.
    5000001    1    1    2    0    0 -0.12970387776E+03 -0.72534348926E+02 -0.12131677210E+04  0.12288161973E+04  0.12700000000E+03 0.  0.
   -5000001    1    1    2    0    0  0.12970387776E+03  0.72534348926E+02 -0.55662353198E+03  0.58995176416E+03  0.12700000000E+03 0.  0.
<mgrwt>
<rscale>  0 0.41923242E+03</rscale>
<asrwt>0</asrwt>
<pdfrwt beam="1">  1        2 0.25632557E+00 0.41923242E+03</pdfrwt>
<pdfrwt beam="2">  1       -2 0.34983375E-02 0.41923242E+03</pdfrwt>
<totfact> 0.37435855E+03</totfact>
</mgrwt>
</event>
<event>
 4    1  0.1383574E-004  0.3964083E+03  0.7818608E-02  0.1045031E+00
         -2   -1    0    0    0  501 -0.00000000000E+00  0.00000000000E+00  0.17573247187E+02  0.17573247372E+02  0.25500000000E-02 0. -1.
          2   -1    0    0  501    0  0.00000000000E+00 -0.00000000000E+00 -0.22354934961E+04  0.22354934961E+04  0.25500000000E-02 0.  1.
    5000001    1    1    2    0    0  0.75097342060E+02 -0.76862664301E+02 -0.17213352328E+04  0.17293557944E+04  0.12700000000E+03 0.  0.
   -5000001    1    1    2    0    0 -0.75097342060E+02  0.76862664301E+02 -0.49658501607E+03  0.52371094903E+03  0.12700000000E+03 0.  0.
<mgrwt>
<rscale>  0 0.39640827E+03</rscale>
<asrwt>0</asrwt>
<pdfrwt beam="1">  1        2 0.31935603E+00 0.39640827E+03</pdfrwt>
<pdfrwt beam="2">  1       -2 0.25104653E-02 0.39640827E+03</pdfrwt>
<totfact> 0.37288634E+03</totfact>
</mgrwt>
</event>
<event>
 4    1  0.1383574E-004  0.4479371E+03  0.7818608E-02  0.1028339E+00
         -2   -1    0    0    0  501 -0.00000000000E+00  0.00000000000E+00  0.82509115737E+02  0.82509115777E+02  0.25500000000E-02 0. -1.
          2   -1    0    0  501    0  0.00000000000E+00 -0.00000000000E+00 -0.60795589651E+03  0.60795589651E+03  0.25500000000E-02 0.  1.
    5000001    1    1    2    0    0 -0.12882405715E+03 -0.15542745190E+02 -0.60591673147E+02  0.19140941848E+03  0.12700000000E+03 0.  0.
   -5000001    1    1    2    0    0  0.12882405715E+03  0.15542745190E+02 -0.46485510762E+03  0.49905559381E+03  0.12700000000E+03 0.  0.
<mgrwt>
<rscale>  0 0.44793706E+03</rscale>
<asrwt>0</asrwt>
<pdfrwt beam="1">  1        2 0.86850840E-01 0.44793706E+03</pdfrwt>
<pdfrwt beam="2">  1       -2 0.11787017E-01 0.44793706E+03</pdfrwt>
<totfact> 0.27773812E+03</totfact>
</mgrwt>
</event>
<event>
 4    1  0.1383574E-004  0.4970153E+03  0.7818608E-02  0.1014561E+00
         -2   -1    0    0    0  501 -0.00000000000E+00  0.00000000000E+00  0.27221340107E+02  0.27221340226E+02  0.25500000000E-02 0. -1.
          2   -1    0    0  501    0  0.00000000000E+00 -0.00000000000E+00 -0.22686634718E+04  0.22686634718E+04  0.25500000000E-02 0.  1.
    5000001    1    1    2    0    0 -0.45519302521E+02  0.74452358818E+02 -0.22010416052E+03  0.26868197206E+03  0.12700000000E+03 0.  0.
   -5000001    1    1    2    0    0  0.45519302521E+02 -0.74452358818E+02 -0.20213379712E+04  0.20272028399E+04  0.12700000000E+03 0.  0.
<mgrwt>
<rscale>  0 0.49701533E+03</rscale>
<asrwt>0</asrwt>
<pdfrwt beam="1">  1        2 0.32409466E+00 0.49701533E+03</pdfrwt>
<pdfrwt beam="2">  1       -2 0.38887643E-02 0.49701533E+03</pdfrwt>
<totfact> 0.18443374E+03</totfact>
</mgrwt>
</event>
<event>
 4    1  0.1383574E-004  0.6647575E+03  0.7818608E-02  0.9779475E-01
          2   -1    0    0  501    0  0.00000000000E+00  0.00000000000E+00  0.97595689657E+03  0.97595689658E+03  0.25500000000E-02 0.  1.
         -2   -1    0    0    0  501 -0.00000000000E+00 -0.00000000000E+00 -0.11319725881E+03  0.11319725884E+03  0.25500000000E-02 0. -1.
    5000001    1    1    2    0    0  0.11635765142E+03  0.28104846953E+03  0.36149573736E+03  0.48921928968E+03  0.12700000000E+03 0.  0.
   -5000001    1    1    2    0    0 -0.11635765142E+03 -0.28104846953E+03  0.50126390041E+03  0.59993486573E+03  0.12700000000E+03 0.  0.
<mgrwt>
<rscale>  0 0.66475754E+03</rscale>
<asrwt>0</asrwt>
<pdfrwt beam="1">  1        2 0.13942241E+00 0.66475754E+03</pdfrwt>
<pdfrwt beam="2">  1       -2 0.16171038E-01 0.66475754E+03</pdfrwt>
<totfact> 0.90015931E+02</totfact>
</mgrwt>
</event>
<event>
 4    1  0.1383574E-004  0.2980568E+03  0.7818608E-02  0.1086216E+00
         -2   -1    0    0    0  501 -0.00000000000E+00  0.00000000000E+00  0.31517325492E+02  0.31517325595E+02  0.25500000000E-02 0. -1.
          2   -1    0    0  501    0  0.00000000000E+00 -0.00000000000E+00 -0.70467470344E+03  0.70467470344E+03  0.25500000000E-02 0.  1.
    5000001    1    1    2    0    0  0.35596580277E+02  0.68986282885E+02 -0.35476920632E+03  0.38472901308E+03  0.12700000000E+03 0.  0.
   -5000001    1    1    2    0    0 -0.35596580277E+02 -0.68986282885E+02 -0.31838817163E+03  0.35146301596E+03  0.12700000000E+03 0.  0.
<mgrwt>
<rscale>  0 0.29805679E+03</rscale>
<asrwt>0</asrwt>
<pdfrwt beam="1">  1        2 0.10066781E+00 0.29805679E+03</pdfrwt>
<pdfrwt beam="2">  1       -2 0.45024755E-02 0.29805679E+03</pdfrwt>
<totfact> 0.10452000E+04</totfact>
</mgrwt>
</event>
<event>
 4    1  0.1383574E-004  0.1009341E+04  0.7818608E-02  0.9298359E-01
          2   -1    0    0  501    0  0.00000000000E+00  0.00000000000E+00  0.23102547963E+04  0.23102547963E+04  0.25500000000E-02 0.  1.
         -2   -1    0    0    0  501 -0.00000000000E+00 -0.00000000000E+00 -0.11024418793E+03  0.11024418796E+03  0.25500000000E-02 0. -1.
    5000001    1    1    2    0    0  0.48660321188E+03 -0.15225269258E+02  0.10056325854E+04  0.11244733840E+04  0.12700000000E+03 0.  0.
   -5000001    1    1    2    0    0 -0.48660321188E+03  0.15225269258E+02  0.11943780230E+04  0.12960256003E+04  0.12700000000E+03 0.  0.
<mgrwt>
<rscale>  0 0.10093407E+04</rscale>
<asrwt>0</asrwt>
<pdfrwt beam="1">  1        2 0.33003640E+00 0.10093407E+04</pdfrwt>
<pdfrwt beam="2">  1       -2 0.15749169E-01 0.10093407E+04</pdfrwt>
<totfact> 0.17987586E+02</totfact>
</mgrwt>
</event>
<event>
 4    1  0.1383574E-004  0.3438565E+03  0.7818608E-02  0.1065165E+00
         -2   -1    0    0    0  501 -0.00000000000E+00  0.00000000000E+00  0.18389227076E+02  0.18389227253E+02  0.25500000000E-02 0. -1.
          2   -1    0    0  501    0  0.00000000000E+00 -0.00000000000E+00 -0.16074259172E+04  0.16074259172E+04  0.25500000000E-02 0.  1.
    5000001    1    1    2    0    0  0.61180215024E+02 -0.88297276554E+02 -0.10001203648E+04  0.10138585561E+04  0.12700000000E+03 0.  0.
   -5000001    1    1    2    0    0 -0.61180215024E+02  0.88297276554E+02 -0.58891632532E+03  0.61195658832E+03  0.12700000000E+03 0.  0.
<mgrwt>
<rscale>  0 0.34385648E+03</rscale>
<asrwt>0</asrwt>
<pdfrwt beam="1">  1        2 0.22963219E+00 0.34385648E+03</pdfrwt>
<pdfrwt beam="2">  1       -2 0.26270335E-02 0.34385648E+03</pdfrwt>
<totfact> 0.71358259E+03</totfact>
</mgrwt>
</event>
<event>
 4    1  0.1383574E-004  0.5700763E+03  0.7818608E-02  0.9969510E-01
         -2   -1    0    0    0  501 -0.00000000000E+00  0.00000000000E+00  0.21596332242E+03  0.21596332244E+03  0.25500000000E-02 0. -1.
          2   -1    0    0  501    0  0.00000000000E+00 -0.00000000000E+00 -0.37620617364E+03  0.37620617365E+03  0.25500000000E-02 0.  1.
    5000001    1    1    2    0    0  0.58884167284E+02 -0.16621543797E+03  0.11147977216E+03  0.24423688619E+03  0.12700000000E+03 0.  0.
   -5000001    1    1    2    0    0 -0.58884167284E+02  0.16621543797E+03 -0.27172262337E+03  0.34793260989E+03  0.12700000000E+03 0.  0.
<mgrwt>
<rscale>  0 0.57007626E+03</rscale>
<asrwt>0</asrwt>
<pdfrwt beam="1">  1        2 0.53743739E-01 0.57007626E+03</pdfrwt>
<pdfrwt beam="2">  1       -2 0.30851903E-01 0.57007626E+03</pdfrwt>
<totfact> 0.90375764E+02</totfact>
</mgrwt>
</event>
<event>
 4    1  0.1383574E-004  0.3002858E+03  0.7818608E-02  0.1085098E+00
          2   -1    0    0  501    0  0.00000000000E+00  0.00000000000E+00  0.57020092020E+03  0.57020092020E+03  0.25500000000E-02 0.  1.
         -2   -1    0    0    0  501 -0.00000000000E+00 -0.00000000000E+00 -0.39534998338E+02  0.39534998420E+02  0.25500000000E-02 0. -1.
    5000001    1    1    2    0    0 -0.73323000618E+02 -0.26572756602E+02  0.30230393936E+03  0.33704457504E+03  0.12700000000E+03 0.  0.
   -5000001    1    1    2    0    0  0.73323000618E+02  0.26572756602E+02  0.22836198250E+03  0.27269134358E+03  0.12700000000E+03 0.  0.
<mgrwt>
<rscale>  0 0.30028581E+03</rscale>
<asrwt>0</asrwt>
<pdfrwt beam="1">  1        2 0.81457273E-01 0.30028581E+03</pdfrwt>
<pdfrwt beam="2">  1       -2 0.56478570E-02 0.30028581E+03</pdfrwt>
<totfact> 0.94647997E+03</totfact>
</mgrwt>
</event>
<event>
 4    1  0.1383574E-004  0.3790745E+03  0.7818608E-02  0.1051276E+00
          2   -1    0    0  501    0  0.00000000000E+00  0.00000000000E+00  0.35398709805E+02  0.35398709896E+02  0.25500000000E-02 0. -1.
         -2   -1    0    0    0  501 -0.00000000000E+00 -0.00000000000E+00 -0.10148495414E+04  0.10148495414E+04  0.25500000000E-02 0.  1.
    5000001    1    1    2    0    0  0.22951608240E+02  0.13523059318E+03 -0.40293680247E+03  0.44418594804E+03  0.12700000000E+03 0.  0.
   -5000001    1    1    2    0    0 -0.22951608240E+02 -0.13523059318E+03 -0.57651402911E+03  0.60606230324E+03  0.12700000000E+03 0.  0.
<mgrwt>
<rscale>  0 0.37907448E+03</rscale>
<asrwt>0</asrwt>
<pdfrwt beam="1">  1        2 0.50569592E-02 0.37907448E+03</pdfrwt>
<pdfrwt beam="2">  1       -2 0.14497849E+00 0.37907448E+03</pdfrwt>
<totfact> 0.53915438E+02</totfact>
</mgrwt>
</event>
<event>
 4    1  0.1383574E-004  0.3162062E+03  0.7818608E-02  0.1077409E+00
          2   -1    0    0  501    0  0.00000000000E+00  0.00000000000E+00  0.79654524589E+03  0.79654524589E+03  0.25500000000E-02 0.  1.
         -2   -1    0    0    0  501 -0.00000000000E+00 -0.00000000000E+00 -0.31381263880E+02  0.31381263984E+02  0.25500000000E-02 0. -1.
    5000001    1    1    2    0    0 -0.77877703862E+02 -0.72927120338E+01  0.51987433947E+03  0.54084789844E+03  0.12700000000E+03 0.  0.
   -5000001    1    1    2    0    0  0.77877703862E+02  0.72927120338E+01  0.24528964254E+03  0.28707861144E+03  0.12700000000E+03 0.  0.
<mgrwt>
<rscale>  0 0.31620624E+03</rscale>
<asrwt>0</asrwt>
<pdfrwt beam="1">  1        2 0.11379219E+00 0.31620624E+03</pdfrwt>
<pdfrwt beam="2">  1       -2 0.44830372E-02 0.31620624E+03</pdfrwt>
<totfact> 0.90804653E+03</totfact>
</mgrwt>
</event>
<event>
 4    1  0.1383574E-004  0.4663515E+03  0.7818608E-02  0.1022955E+00
         -2   -1    0    0    0  501 -0.00000000000E+00  0.00000000000E+00  0.96700752500E+02  0.96700752534E+02  0.25500000000E-02 0. -1.
          2   -1    0    0  501    0  0.00000000000E+00 -0.00000000000E+00 -0.56225956117E+03  0.56225956118E+03  0.25500000000E-02 0.  1.
    5000001    1    1    2    0    0 -0.15819961217E+03  0.14286537823E+02 -0.71604935442E+02  0.21560957593E+03  0.12700000000E+03 0.  0.
   -5000001    1    1    2    0    0  0.15819961217E+03 -0.14286537823E+02 -0.39395387323E+03  0.44335073778E+03  0.12700000000E+03 0.  0.
<mgrwt>
<rscale>  0 0.46635147E+03</rscale>
<asrwt>0</asrwt>
<pdfrwt beam="1">  1        2 0.80322792E-01 0.46635147E+03</pdfrwt>
<pdfrwt beam="2">  1       -2 0.13814394E-01 0.46635147E+03</pdfrwt>
<totfact> 0.23426008E+03</totfact>
</mgrwt>
</event>
<event>
 4    1  0.1383574E-004  0.1569301E+04  0.7818608E-02  0.8839633E-01
         -2   -1    0    0    0  501 -0.00000000000E+00  0.00000000000E+00  0.29591775345E+03  0.29591775346E+03  0.25500000000E-02 0. -1.
          2   -1    0    0  501    0  0.00000000000E+00 -0.00000000000E+00 -0.20805659627E+04  0.20805659627E+04  0.25500000000E-02 0.  1.
    5000001    1    1    2    0    0  0.41503900344E+03  0.65277502548E+03 -0.94422920858E+03  0.12272206023E+04  0.12700000000E+03 0.  0.
   -5000001    1    1    2    0    0 -0.41503900344E+03 -0.65277502548E+03 -0.84041900063E+03  0.11492631139E+04  0.12700000000E+03 0.  0.
<mgrwt>
<rscale>  0 0.15693010E+04</rscale>
<asrwt>0</asrwt>
<pdfrwt beam="1">  1        2 0.29722370E+00 0.15693010E+04</pdfrwt>
<pdfrwt beam="2">  1       -2 0.42273966E-01 0.15693010E+04</pdfrwt>
<totfact> 0.37234752E+01</totfact>
</mgrwt>
</event>
<event>
 4    1  0.1383574E-004  0.4719747E+03  0.7818608E-02  0.1021364E+00
          2   -1    0    0  501    0  0.00000000000E+00  0.00000000000E+00  0.26096986155E+04  0.26096986155E+04  0.25500000000E-02 0.  1.
         -2   -1    0    0    0  501 -0.00000000000E+00 -0.00000000000E+00 -0.21339643357E+02  0.21339643509E+02  0.25500000000E-02 0. -1.
    5000001    1    1    2    0    0 -0.77284484299E+02  0.15217466307E+03  0.18635195756E+04  0.18756236904E+04  0.12700000000E+03 0.  0.
   -5000001    1    1    2    0    0  0.77284484299E+02 -0.15217466307E+03  0.72483939662E+03  0.75541456862E+03  0.12700000000E+03 0.  0.
<mgrwt>
<rscale>  0 0.47197474E+03</rscale>
<asrwt>0</asrwt>
<pdfrwt beam="1">  1        2 0.37281411E+00 0.47197474E+03</pdfrwt>
<pdfrwt beam="2">  1       -2 0.30485203E-02 0.47197474E+03</pdfrwt>
<totfact> 0.17954030E+03</totfact>
</mgrwt>
</event>
<event>
 4    1  0.1383574E-004  0.5813724E+03  0.7818608E-02  0.9944824E-01
         -2   -1    0    0    0  501 -0.00000000000E+00  0.00000000000E+00  0.34200219014E+03  0.34200219015E+03  0.25500000000E-02 0. -1.
          2   -1    0    0  501    0  0.00000000000E+00 -0.00000000000E+00 -0.24706992837E+03  0.24706992838E+03  0.25500000000E-02 0.  1.
    5000001    1    1    2    0    0  0.17714234996E+03 -0.15220136760E+03 -0.71669954694E+02  0.27533661372E+03  0.12700000000E+03 0.  0.
   -5000001    1    1    2    0    0 -0.17714234996E+03  0.15220136760E+03  0.16660221647E+03  0.31373550481E+03  0.12700000000E+03 0.  0.
<mgrwt>
<rscale>  0 0.58137236E+03</rscale>
<asrwt>0</asrwt>
<pdfrwt beam="1">  1        2 0.35295704E-01 0.58137236E+03</pdfrwt>
<pdfrwt beam="2">  1       -2 0.48857456E-01 0.58137236E+03</pdfrwt>
<totfact> 0.59186817E+02</totfact>
</mgrwt>
</event>
<event>
 4    1  0.1383574E-004  0.2905252E+03  0.7818608E-02  0.1090075E+00
          2   -1    0    0  501    0  0.00000000000E+00  0.00000000000E+00  0.35367563259E+04  0.35367563259E+04  0.25500000000E-02 0.  1.
         -2   -1    0    0    0  501 -0.00000000000E+00 -0.00000000000E+00 -0.59662648879E+01  0.59662654329E+01  0.25500000000E-02 0. -1.
    5000001    1    1    2    0    0  0.34109913958E+02 -0.48476125284E+02  0.12996460184E+04  0.13071810105E+04  0.12700000000E+03 0.  0.
   -5000001    1    1    2    0    0 -0.34109913958E+02  0.48476125284E+02  0.22311440426E+04  0.22355415808E+04  0.12700000000E+03 0.  0.
<mgrwt>
<rscale>  0 0.29052522E+03</rscale>
<asrwt>0</asrwt>
<pdfrwt beam="1">  1        2 0.50524970E+00 0.29052522E+03</pdfrwt>
<pdfrwt beam="2">  1       -2 0.85232563E-03 0.29052522E+03</pdfrwt>
<totfact> 0.37528672E+03</totfact>
</mgrwt>
</event>
<event>
 4    1  0.1383574E-004  0.4060413E+03  0.7818608E-02  0.1041708E+00
         -2   -1    0    0    0  501 -0.00000000000E+00  0.00000000000E+00  0.45451342889E+02  0.45451342960E+02  0.25500000000E-02 0. -1.
          2   -1    0    0  501    0  0.00000000000E+00 -0.00000000000E+00 -0.90684638824E+03  0.90684638824E+03  0.25500000000E-02 0.  1.
    5000001    1    1    2    0    0 -0.11868469907E+03 -0.10433958639E+03 -0.40548349800E+03  0.45334167493E+03  0.12700000000E+03 0.  0.
   -5000001    1    1    2    0    0  0.11868469907E+03  0.10433958639E+03 -0.45591154735E+03  0.49895605627E+03  0.12700000000E+03 0.  0.
<mgrwt>
<rscale>  0 0.40604131E+03</rscale>
<asrwt>0</asrwt>
<pdfrwt beam="1">  1        2 0.12954947E+00 0.40604131E+03</pdfrwt>
<pdfrwt beam="2">  1       -2 0.64930495E-02 0.40604131E+03</pdfrwt>
<totfact> 0.43755840E+03</totfact>
</mgrwt>
</event>
<event>
 4    1  0.1383574E-004  0.3184484E+03  0.7818608E-02  0.1076366E+00
          2   -1    0    0  501    0  0.00000000000E+00  0.00000000000E+00  0.58704073274E+03  0.58704073275E+03  0.25500000000E-02 0.  1.
         -2   -1    0    0    0  501 -0.00000000000E+00 -0.00000000000E+00 -0.43186688985E+02  0.43186689061E+02  0.25500000000E-02 0. -1.
    5000001    1    1    2    0    0  0.62948319193E+02  0.45130838069E+02  0.38429949238E+03  0.41208540775E+03  0.12700000000E+03 0.  0.
   -5000001    1    1    2    0    0 -0.62948319193E+02 -0.45130838069E+02  0.15955455138E+03  0.21814201406E+03  0.12700000000E+03 0.  0.
<mgrwt>
<rscale>  0 0.31844840E+03</rscale>
<asrwt>0</asrwt>
<pdfrwt beam="1">  1        2 0.83862961E-01 0.31844840E+03</pdfrwt>
<pdfrwt beam="2">  1       -2 0.61695271E-02 0.31844840E+03</pdfrwt>
<totfact> 0.80091972E+03</totfact>
</mgrwt>
</event>
<event>
 4    1  0.1383574E-004  0.2917336E+03  0.7818608E-02  0.1089447E+00
         -2   -1    0    0    0  501 -0.00000000000E+00  0.00000000000E+00  0.39633096882E+02  0.39633096964E+02  0.25500000000E-02 0. -1.
          2   -1    0    0  501    0  0.00000000000E+00 -0.00000000000E+00 -0.53685235042E+03  0.53685235043E+03  0.25500000000E-02 0.  1.
    5000001    1    1    2    0    0 -0.10058173057E+02  0.53116449198E+02 -0.34183308378E+03  0.36864804515E+03  0.12700000000E+03 0.  0.
   -5000001    1    1    2    0    0  0.10058173057E+02 -0.53116449198E+02 -0.15538616976E+03  0.20783740225E+03  0.12700000000E+03 0.  0.
<mgrwt>
<rscale>  0 0.29173359E+03</rscale>
<asrwt>0</asrwt>
<pdfrwt beam="1">  1        2 0.76693189E-01 0.29173359E+03</pdfrwt>
<pdfrwt beam="2">  1       -2 0.56618713E-02 0.29173359E+03</pdfrwt>
<totfact> 0.10081223E+04</totfact>
</mgrwt>
</event>
<event>
 4    1  0.1383574E-004  0.3371798E+03  0.7818608E-02  0.1068003E+00
         -2   -1    0    0    0  501 -0.00000000000E+00  0.00000000000E+00  0.31477706088E+02  0.31477706191E+02  0.25500000000E-02 0. -1.
          2   -1    0    0  501    0  0.00000000000E+00 -0.00000000000E+00 -0.90294229315E+03  0.90294229316E+03  0.25500000000E-02 0.  1.
    5000001    1    1    2    0    0  0.18929022539E+02 -0.58762976862E+02 -0.18050110543E+03  0.22917470280E+03  0.12700000000E+03 0.  0.
   -5000001    1    1    2    0    0 -0.18929022539E+02  0.58762976862E+02 -0.69096348163E+03  0.70524529654E+03  0.12700000000E+03 0.  0.
<mgrwt>
<rscale>  0 0.33717979E+03</rscale>
<asrwt>0</asrwt>
<pdfrwt beam="1">  1        2 0.12899174E+00 0.33717979E+03</pdfrwt>
<pdfrwt beam="2">  1       -2 0.44968157E-02 0.33717979E+03</pdfrwt>
<totfact> 0.77168377E+03</totfact>
</mgrwt>
</event>
<event>
 4    1  0.1383574E-004  0.1116721E+04  0.7818608E-02  0.9189046E-01
         -2   -1    0    0    0  501 -0.00000000000E+00  0.00000000000E+00  0.37152104177E+03  0.37152104178E+03  0.25500000000E-02 0. -1.
          2   -1    0    0  501    0  0.00000000000E+00 -0.00000000000E+00 -0.83916196211E+03  0.83916196211E+03  0.25500000000E-02 0.  1.
    5000001    1    1    2    0    0 -0.15418272520E+03  0.51892698709E+03 -0.17875509747E+03  0.58407184109E+03  0.12700000000E+03 0.  0.
   -5000001    1    1    2    0    0  0.15418272520E+03 -0.51892698709E+03 -0.28888582287E+03  0.62661116280E+03  0.12700000000E+03 0.  0.
<mgrwt>
<rscale>  0 0.11167208E+04</rscale>
<asrwt>0</asrwt>
<pdfrwt beam="1">  1        2 0.11988028E+00 0.11167208E+04</pdfrwt>
<pdfrwt beam="2">  1       -2 0.53074435E-01 0.11167208E+04</pdfrwt>
<totfact> 0.11858626E+02</totfact>
</mgrwt>
</event>
<event>
 4    1  0.1383574E-004  0.4674046E+03  0.7818608E-02  0.1022655E+00
          2   -1    0    0  501    0  0.00000000000E+00  0.00000000000E+00  0.23388009428E+03  0.23388009429E+03  0.25500000000E-02 0. -1.
         -2   -1    0    0    0  501 -0.00000000000E+00 -0.00000000000E+00 -0.23352462498E+03  0.23352462499E+03  0.25500000000E-02 0.  1.
    5000001    1    1    2    0    0 -0.44254340053E+02 -0.16447971691E+03  0.97521162300E+02  0.23377639099E+03  0.12700000000E+03 0.  0.
   -5000001    1    1    2    0    0  0.44254340053E+02  0.16447971691E+03 -0.97165692999E+02  0.23362832830E+03  0.12700000000E+03 0.  0.
<mgrwt>
<rscale>  0 0.46740458E+03</rscale>
<asrwt>0</asrwt>
<pdfrwt beam="1">  1        2 0.33411442E-01 0.46740458E+03</pdfrwt>
<pdfrwt beam="2">  1       -2 0.33360661E-01 0.46740458E+03</pdfrwt>
<totfact> 0.13191685E+03</totfact>
</mgrwt>
</event>
<event>
 4    1  0.1383574E-004  0.3658498E+03  0.7818608E-02  0.1056291E+00
         -2   -1    0    0    0  501 -0.00000000000E+00  0.00000000000E+00  0.35606666858E+02  0.35606666949E+02  0.25500000000E-02 0. -1.
          2   -1    0    0  501    0  0.00000000000E+00 -0.00000000000E+00 -0.93975419642E+03  0.93975419642E+03  0.25500000000E-02 0.  1.
    5000001    1    1    2    0    0  0.34063171971E+02  0.99032873502E+02 -0.66476601653E+03  0.68484353429E+03  0.12700000000E+03 0.  0.
   -5000001    1    1    2    0    0 -0.34063171971E+02 -0.99032873502E+02 -0.23938151303E+03  0.29051732909E+03  0.12700000000E+03 0.  0.
<mgrwt>
<rscale>  0 0.36584978E+03</rscale>
<asrwt>0</asrwt>
<pdfrwt beam="1">  1        2 0.13425058E+00 0.36584978E+03</pdfrwt>
<pdfrwt beam="2">  1       -2 0.50866673E-02 0.36584978E+03</pdfrwt>
<totfact> 0.60746468E+03</totfact>
</mgrwt>
</event>
<event>
 4    1  0.1383574E-004  0.3814572E+03  0.7818608E-02  0.1050396E+00
         -2   -1    0    0    0  501 -0.00000000000E+00  0.00000000000E+00  0.74862814683E+02  0.74862814726E+02  0.25500000000E-02 0. -1.
          2   -1    0    0  501    0  0.00000000000E+00 -0.00000000000E+00 -0.48592068286E+03  0.48592068287E+03  0.25500000000E-02 0.  1.
    5000001    1    1    2    0    0 -0.11687333250E+03  0.56167870251E+02 -0.29168012312E+03  0.34354111795E+03  0.12700000000E+03 0.  0.
   -5000001    1    1    2    0    0  0.11687333250E+03 -0.56167870251E+02 -0.11937774506E+03  0.21724237965E+03  0.12700000000E+03 0.  0.
<mgrwt>
<rscale>  0 0.38145715E+03</rscale>
<asrwt>0</asrwt>
<pdfrwt beam="1">  1        2 0.69417239E-01 0.38145715E+03</pdfrwt>
<pdfrwt beam="2">  1       -2 0.10694688E-01 0.38145715E+03</pdfrwt>
<totfact> 0.41875517E+03</totfact>
</mgrwt>
</event>
<event>
 4    1  0.1383574E-004  0.8973738E+03  0.7818608E-02  0.9428870E-01
         -2   -1    0    0    0  501 -0.00000000000E+00  0.00000000000E+00  0.31605842953E+03  0.31605842954E+03  0.25500000000E-02 0. -1.
          2   -1    0    0  501    0  0.00000000000E+00 -0.00000000000E+00 -0.63697067518E+03  0.63697067519E+03  0.25500000000E-02 0.  1.
    5000001    1    1    2    0    0 -0.34824144668E+03  0.38654893141E+02  0.10488881188E+03  0.38716529908E+03  0.12700000000E+03 0.  0.
   -5000001    1    1    2    0    0  0.34824144668E+03 -0.38654893141E+02 -0.42580105753E+03  0.56586380565E+03  0.12700000000E+03 0.  0.
<mgrwt>
<rscale>  0 0.89737384E+03</rscale>
<asrwt>0</asrwt>
<pdfrwt beam="1">  1        2 0.90995810E-01 0.89737384E+03</pdfrwt>
<pdfrwt beam="2">  1       -2 0.45151205E-01 0.89737384E+03</pdfrwt>
<totfact> 0.23549940E+02</totfact>
</mgrwt>
</event>
<event>
 4    1  0.1383574E-004  0.3738789E+03  0.7818608E-02  0.1053220E+00
          2   -1    0    0  501    0  0.00000000000E+00  0.00000000000E+00  0.10004795725E+04  0.10004795725E+04  0.25500000000E-02 0.  1.
         -2   -1    0    0    0  501 -0.00000000000E+00 -0.00000000000E+00 -0.34929601291E+02  0.34929601384E+02  0.25500000000E-02 0. -1.
    5000001    1    1    2    0    0 -0.11224965092E+03  0.65245438976E+02  0.36015717337E+03  0.40335981576E+03  0.12700000000E+03 0.  0.
   -5000001    1    1    2    0    0  0.11224965092E+03 -0.65245438976E+02  0.60539279786E+03  0.63204935815E+03  0.12700000000E+03 0.  0.
<mgrwt>
<rscale>  0 0.37387887E+03</rscale>
<asrwt>0</asrwt>
<pdfrwt beam="1">  1        2 0.14292565E+00 0.37387887E+03</pdfrwt>
<pdfrwt beam="2">  1       -2 0.49899431E-02 0.37387887E+03</pdfrwt>
<totfact> 0.57488080E+03</totfact>
</mgrwt>
</event>
<event>
 4    1  0.1383574E-004  0.5028204E+03  0.7818608E-02  0.1013045E+00
          2   -1    0    0  501    0  0.00000000000E+00  0.00000000000E+00  0.43237358655E+02  0.43237358730E+02  0.25500000000E-02 0.  1.
         -2   -1    0    0    0  501 -0.00000000000E+00 -0.00000000000E+00 -0.14618626598E+04  0.14618626598E+04  0.25500000000E-02 0. -1.
    5000001    1    1    2    0    0  0.15995851793E+03 -0.14497594965E+03 -0.77443544443E+03  0.81393120780E+03  0.12700000000E+03 0.  0.
   -5000001    1    1    2    0    0 -0.15995851793E+03  0.14497594965E+03 -0.64418985669E+03  0.69116881071E+03  0.12700000000E+03 0.  0.
<mgrwt>
<rscale>  0 0.50282037E+03</rscale>
<asrwt>0</asrwt>
<pdfrwt beam="1">  1        2 0.61767665E-02 0.50282037E+03</pdfrwt>
<pdfrwt beam="2">  1       -2 0.20883749E+00 0.50282037E+03</pdfrwt>
<totfact> 0.14960842E+02</totfact>
</mgrwt>
</event>
<event>
 4    1  0.1383574E-004  0.4421241E+03  0.7818608E-02  0.1030097E+00
         -2   -1    0    0    0  501 -0.00000000000E+00  0.00000000000E+00  0.87414141638E+03  0.87414141638E+03  0.25500000000E-02 0. -1.
          2   -1    0    0  501    0  0.00000000000E+00 -0.00000000000E+00 -0.55904484606E+02  0.55904484664E+02  0.25500000000E-02 0.  1.
    5000001    1    1    2    0    0 -0.10614613788E+03  0.14596145825E+03  0.43635770806E+03  0.48898752465E+03  0.12700000000E+03 0.  0.
   -5000001    1    1    2    0    0  0.10614613788E+03 -0.14596145825E+03  0.38187922371E+03  0.44105837639E+03  0.12700000000E+03 0.  0.
<mgrwt>
<rscale>  0 0.44212408E+03</rscale>
<asrwt>0</asrwt>
<pdfrwt beam="1">  1        2 0.79863550E-02 0.44212408E+03</pdfrwt>
<pdfrwt beam="2">  1       -2 0.12487734E+00 0.44212408E+03</pdfrwt>
<totfact> 0.43147572E+02</totfact>
</mgrwt>
</event>
<event>
 4    1  0.1383574E-004  0.4312360E+03  0.7818608E-02  0.1033470E+00
         -2   -1    0    0    0  501 -0.00000000000E+00  0.00000000000E+00  0.44482966956E+03  0.44482966957E+03  0.25500000000E-02 0. -1.
          2   -1    0    0  501    0  0.00000000000E+00 -0.00000000000E+00 -0.10451443237E+03  0.10451443240E+03  0.25500000000E-02 0.  1.
    5000001    1    1    2    0    0 -0.75433866572E+02  0.15678562464E+03  0.18225079305E+03  0.28216369697E+03  0.12700000000E+03 0.  0.
   -5000001    1    1    2    0    0  0.75433866572E+02 -0.15678562464E+03  0.15806444414E+03  0.26718040501E+03  0.12700000000E+03 0.  0.
<mgrwt>
<rscale>  0 0.43123599E+03</rscale>
<asrwt>0</asrwt>
<pdfrwt beam="1">  1        2 0.14930633E-01 0.43123599E+03</pdfrwt>
<pdfrwt beam="2">  1       -2 0.63547096E-01 0.43123599E+03</pdfrwt>
<totfact> 0.92608779E+02</totfact>
</mgrwt>
</event>
<event>
 4    1  0.1383574E-004  0.3376821E+03  0.7818608E-02  0.1067787E+00
         -2   -1    0    0    0  501 -0.00000000000E+00  0.00000000000E+00  0.47855242602E+02  0.47855242670E+02  0.25500000000E-02 0. -1.
          2   -1    0    0  501    0  0.00000000000E+00 -0.00000000000E+00 -0.59569853876E+03  0.59569853876E+03  0.25500000000E-02 0.  1.
    5000001    1    1    2    0    0  0.87584524572E+02  0.63332532981E+02 -0.22363460133E+03  0.27896862474E+03  0.12700000000E+03 0.  0.
   -5000001    1    1    2    0    0 -0.87584524572E+02 -0.63332532981E+02 -0.32420869483E+03  0.36458515669E+03  0.12700000000E+03 0.  0.
<mgrwt>
<rscale>  0 0.33768209E+03</rscale>
<asrwt>0</asrwt>
<pdfrwt beam="1">  1        2 0.85099787E-01 0.33768209E+03</pdfrwt>
<pdfrwt beam="2">  1       -2 0.68364636E-02 0.33768209E+03</pdfrwt>
<totfact> 0.67302683E+03</totfact>
</mgrwt>
</event>
<event>
 4    1  0.1383574E-004  0.3501825E+03  0.7818608E-02  0.1062540E+00
          2   -1    0    0  501    0  0.00000000000E+00  0.00000000000E+00  0.22936488614E+04  0.22936488614E+04  0.25500000000E-02 0.  1.
         -2   -1    0    0    0  501 -0.00000000000E+00 -0.00000000000E+00 -0.13366015667E+02  0.13366015911E+02  0.25500000000E-02 0. -1.
    5000001    1    1    2    0    0  0.11568679132E+03  0.30915928363E+01  0.13620864002E+04  0.13728806770E+04  0.12700000000E+03 0.  0.
   -5000001    1    1    2    0    0 -0.11568679132E+03 -0.30915928363E+01  0.91819644558E+03  0.93413420037E+03  0.12700000000E+03 0.  0.
<mgrwt>
<rscale>  0 0.35018251E+03</rscale>
<asrwt>0</asrwt>
<pdfrwt beam="1">  1        2 0.32766407E+00 0.35018251E+03</pdfrwt>
<pdfrwt beam="2">  1       -2 0.19094311E-02 0.35018251E+03</pdfrwt>
<totfact> 0.52485264E+03</totfact>
</mgrwt>
</event>
<event>
 4    1  0.1383574E-004  0.6968216E+03  0.7818608E-02  0.9722683E-01
         -2   -1    0    0    0  501 -0.00000000000E+00  0.00000000000E+00  0.12485666736E+03  0.12485666738E+03  0.25500000000E-02 0. -1.
          2   -1    0    0  501    0  0.00000000000E+00 -0.00000000000E+00 -0.97223545700E+03  0.97223545701E+03  0.25500000000E-02 0.  1.
    5000001    1    1    2    0    0  0.10668563297E+03 -0.70932763205E+02  0.45604429036E+02  0.18607000060E+03  0.12700000000E+03 0.  0.
   -5000001    1    1    2    0    0 -0.10668563297E+03  0.70932763205E+02 -0.89298321868E+03  0.91102212379E+03  0.12700000000E+03 0.  0.
<mgrwt>
<rscale>  0 0.69682158E+03</rscale>
<asrwt>0</asrwt>
<pdfrwt beam="1">  1        2 0.13889077E+00 0.69682158E+03</pdfrwt>
<pdfrwt beam="2">  1       -2 0.17836667E-01 0.69682158E+03</pdfrwt>
<totfact> 0.76449591E+02</totfact>
</mgrwt>
</event>
<event>
 4    1  0.1383574E-004  0.5587665E+03  0.7818608E-02  0.9994850E-01
          2   -1    0    0  501    0  0.00000000000E+00  0.00000000000E+00  0.17794204604E+04  0.17794204604E+04  0.25500000000E-02 0.  1.
         -2   -1    0    0    0  501 -0.00000000000E+00 -0.00000000000E+00 -0.43865400513E+02  0.43865400587E+02  0.25500000000E-02 0. -1.
    5000001    1    1    2    0    0 -0.52145641906E+02  0.22716577266E+03  0.58326352884E+03  0.64081885140E+03  0.12700000000E+03 0.  0.
   -5000001    1    1    2    0    0  0.52145641906E+02 -0.22716577266E+03  0.11522915311E+04  0.11824670096E+04  0.12700000000E+03 0.  0.
<mgrwt>
<rscale>  0 0.55876647E+03</rscale>
<asrwt>0</asrwt>
<pdfrwt beam="1">  1        2 0.25420290E+00 0.55876647E+03</pdfrwt>
<pdfrwt beam="2">  1       -2 0.62664864E-02 0.55876647E+03</pdfrwt>
<totfact> 0.15460616E+03</totfact>
</mgrwt>
</event>
<event>
 4    1  0.1383574E-004  0.3625113E+03  0.7818608E-02  0.1057594E+00
          2   -1    0    0  501    0  0.00000000000E+00  0.00000000000E+00  0.10577718735E+04  0.10577718735E+04  0.25500000000E-02 0.  1.
         -2   -1    0    0    0  501 -0.00000000000E+00 -0.00000000000E+00 -0.31059259066E+02  0.31059259170E+02  0.25500000000E-02 0. -1.
    5000001    1    1    2    0    0  0.11036440594E+03  0.55256720099E+02  0.39737758711E+03  0.43505350700E+03  0.12700000000E+03 0.  0.
   -5000001    1    1    2    0    0 -0.11036440594E+03 -0.55256720099E+02  0.62933502729E+03  0.65377762564E+03  0.12700000000E+03 0.  0.
<mgrwt>
<rscale>  0 0.36251130E+03</rscale>
<asrwt>0</asrwt>
<pdfrwt beam="1">  1        2 0.15111025E+00 0.36251130E+03</pdfrwt>
<pdfrwt beam="2">  1       -2 0.44370375E-02 0.36251130E+03</pdfrwt>
<totfact> 0.63608379E+03</totfact>
</mgrwt>
</event>
<event>
 4    1  0.1383574E-004  0.4533731E+03  0.7818608E-02  0.1026721E+00
          2   -1    0    0  501    0  0.00000000000E+00  0.00000000000E+00  0.10409879109E+04  0.10409879109E+04  0.25500000000E-02 0.  1.
         -2   -1    0    0    0  501 -0.00000000000E+00 -0.00000000000E+00 -0.49363493890E+02  0.49363493956E+02  0.25500000000E-02 0. -1.
    5000001    1    1    2    0    0  0.11775850509E+03  0.13827275880E+03  0.38119349940E+03  0.44093526206E+03  0.12700000000E+03 0.  0.
   -5000001    1    1    2    0    0 -0.11775850509E+03 -0.13827275880E+03  0.61043091759E+03  0.64941614277E+03  0.12700000000E+03 0.  0.
<mgrwt>
<rscale>  0 0.45337314E+03</rscale>
<asrwt>0</asrwt>
<pdfrwt beam="1">  1        2 0.14871255E+00 0.45337314E+03</pdfrwt>
<pdfrwt beam="2">  1       -2 0.70519280E-02 0.45337314E+03</pdfrwt>
<totfact> 0.31874554E+03</totfact>
</mgrwt>
</event>
<event>
 4    1  0.1383574E-004  0.4284443E+03  0.7818608E-02  0.1034353E+00
          2   -1    0    0  501    0  0.00000000000E+00  0.00000000000E+00  0.12852572136E+04  0.12852572136E+04  0.25500000000E-02 0.  1.
         -2   -1    0    0    0  501 -0.00000000000E+00 -0.00000000000E+00 -0.35705800636E+02  0.35705800727E+02  0.25500000000E-02 0. -1.
    5000001    1    1    2    0    0 -0.30960862250E+02 -0.16951996305E+03  0.64992663811E+03  0.68427277295E+03  0.12700000000E+03 0.  0.
   -5000001    1    1    2    0    0  0.30960862250E+02  0.16951996305E+03  0.59962477488E+03  0.63669024142E+03  0.12700000000E+03 0.  0.
<mgrwt>
<rscale>  0 0.42844434E+03</rscale>
<asrwt>0</asrwt>
<pdfrwt beam="1">  1        2 0.18360816E+00 0.42844434E+03</pdfrwt>
<pdfrwt beam="2">  1       -2 0.51008291E-02 0.42844434E+03</pdfrwt>
<totfact> 0.38432279E+03</totfact>
</mgrwt>
</event>
<event>
 4    1  0.1383574E-004  0.4291987E+03  0.7818608E-02  0.1034113E+00
         -2   -1    0    0    0  501 -0.00000000000E+00  0.00000000000E+00  0.69614794889E+03  0.69614794889E+03  0.25500000000E-02 0.  1.
          2   -1    0    0  501    0  0.00000000000E+00 -0.00000000000E+00 -0.66153875565E+02  0.66153875614E+02  0.25500000000E-02 0. -1.
    5000001    1    1    2    0    0  0.90064332790E+02  0.11741754481E+03  0.47410886046E+03  0.51264673552E+03  0.12700000000E+03 0.  0.
   -5000001    1    1    2    0    0 -0.90064332790E+02 -0.11741754481E+03  0.15588521286E+03  0.24965508899E+03  0.12700000000E+03 0.  0.
<mgrwt>
<rscale>  0 0.42919872E+03</rscale>
<asrwt>0</asrwt>
<pdfrwt beam="1">  1        2 0.94505538E-02 0.42919872E+03</pdfrwt>
<pdfrwt beam="2">  1       -2 0.99449705E-01 0.42919872E+03</pdfrwt>
<totfact> 0.60184447E+02</totfact>
</mgrwt>
</event>
<event>
 4    1  0.1383574E-004  0.6094975E+03  0.7818608E-02  0.9885895E-01
         -2   -1    0    0    0  501 -0.00000000000E+00  0.00000000000E+00  0.24310250179E+02  0.24310250313E+02  0.25500000000E-02 0. -1.
          2   -1    0    0  501    0  0.00000000000E+00 -0.00000000000E+00 -0.38202728104E+04  0.38202728104E+04  0.25500000000E-02 0.  1.
    5000001    1    1    2    0    0 -0.12371752513E+03 -0.24744221733E+03 -0.19891962008E+04  0.20123529020E+04  0.12700000000E+03 0.  0.
   -5000001    1    1    2    0    0  0.12371752513E+03  0.24744221733E+03 -0.18067663594E+04  0.18322301587E+04  0.12700000000E+03 0.  0.
<mgrwt>
<rscale>  0 0.60949746E+03</rscale>
<asrwt>0</asrwt>
<pdfrwt beam="1">  1        2 0.54575288E+00 0.60949746E+03</pdfrwt>
<pdfrwt beam="2">  1       -2 0.34728953E-02 0.60949746E+03</pdfrwt>
<totfact> 0.29963037E+02</totfact>
</mgrwt>
</event>
<event>
 4    1  0.1383574E-004  0.3358667E+03  0.7818608E-02  0.1068570E+00
          2   -1    0    0  501    0  0.00000000000E+00  0.00000000000E+00  0.14639528623E+04  0.14639528623E+04  0.25500000000E-02 0.  1.
         -2   -1    0    0    0  501 -0.00000000000E+00 -0.00000000000E+00 -0.19264017430E+02  0.19264017599E+02  0.25500000000E-02 0. -1.
    5000001    1    1    2    0    0  0.96821113209E+02 -0.51518958687E+02  0.69302395625E+03  0.71304960206E+03  0.12700000000E+03 0.  0.
   -5000001    1    1    2    0    0 -0.96821113209E+02  0.51518958687E+02  0.75166488863E+03  0.77016727785E+03  0.12700000000E+03 0.  0.
<mgrwt>
<rscale>  0 0.33586672E+03</rscale>
<asrwt>0</asrwt>
<pdfrwt beam="1">  1        2 0.20913612E+00 0.33586672E+03</pdfrwt>
<pdfrwt beam="2">  1       -2 0.27520026E-02 0.33586672E+03</pdfrwt>
<totfact> 0.78692300E+03</totfact>
</mgrwt>
</event>
<event>
 4    1  0.1383574E-004  0.3359524E+03  0.7818608E-02  0.1068533E+00
          2   -1    0    0  501    0  0.00000000000E+00  0.00000000000E+00  0.17034579535E+04  0.17034579535E+04  0.25500000000E-02 0.  1.
         -2   -1    0    0    0  501 -0.00000000000E+00 -0.00000000000E+00 -0.16563955978E+02  0.16563956174E+02  0.25500000000E-02 0. -1.
    5000001    1    1    2    0    0 -0.83520425641E+02 -0.25032743369E+02  0.50058205595E+03  0.52374964866E+03  0.12700000000E+03 0.  0.
   -5000001    1    1    2    0    0  0.83520425641E+02  0.25032743369E+02  0.11863119415E+04  0.11962722610E+04  0.12700000000E+03 0.  0.
<mgrwt>
<rscale>  0 0.33595239E+03</rscale>
<asrwt>0</asrwt>
<pdfrwt beam="1">  1        2 0.24335122E+00 0.33595239E+03</pdfrwt>
<pdfrwt beam="2">  1       -2 0.23662786E-02 0.33595239E+03</pdfrwt>
<totfact> 0.74638910E+03</totfact>
</mgrwt>
</event>
<event>
 4    1  0.1383574E-004  0.3469310E+03  0.7818608E-02  0.1063882E+00
         -2   -1    0    0    0  501 -0.00000000000E+00  0.00000000000E+00  0.95575943570E+03  0.95575943570E+03  0.25500000000E-02 0. -1.
          2   -1    0    0  501    0  0.00000000000E+00 -0.00000000000E+00 -0.31483107121E+02  0.31483107224E+02  0.25500000000E-02 0.  1.
    5000001    1    1    2    0    0 -0.19279347338E+02 -0.74307465702E+02  0.71773960118E+03  0.73292047849E+03  0.12700000000E+03 0.  0.
   -5000001    1    1    2    0    0  0.19279347338E+02  0.74307465702E+02  0.20653672739E+03  0.25432206443E+03  0.12700000000E+03 0.  0.
<mgrwt>
<rscale>  0 0.34693098E+03</rscale>
<asrwt>0</asrwt>
<pdfrwt beam="1">  1        2 0.44975852E-02 0.34693098E+03</pdfrwt>
<pdfrwt beam="2">  1       -2 0.13653711E+00 0.34693098E+03</pdfrwt>
<totfact> 0.73462229E+02</totfact>
</mgrwt>
</event>
<event>
 4    1  0.1383574E-004  0.2910555E+03  0.7818608E-02  0.1089799E+00
          2   -1    0    0  501    0  0.00000000000E+00  0.00000000000E+00  0.81916802727E+03  0.81916802727E+03  0.25500000000E-02 0.  1.
         -2   -1    0    0    0  501 -0.00000000000E+00 -0.00000000000E+00 -0.25853463144E+02  0.25853463270E+02  0.25500000000E-02 0. -1.
    5000001    1    1    2    0    0 -0.23935125207E+02 -0.27875199046E+02  0.22007044101E+03  0.25672926586E+03  0.12700000000E+03 0.  0.
   -5000001    1    1    2    0    0  0.23935125207E+02  0.27875199046E+02  0.57324412311E+03  0.58829222469E+03  0.12700000000E+03 0.  0.
<mgrwt>
<rscale>  0 0.29105553E+03</rscale>
<asrwt>0</asrwt>
<pdfrwt beam="1">  1        2 0.11702400E+00 0.29105553E+03</pdfrwt>
<pdfrwt beam="2">  1       -2 0.36933519E-02 0.29105553E+03</pdfrwt>
<totfact> 0.11715828E+04</totfact>
</mgrwt>
</event>
<event>
 4    1  0.1383574E-004  0.3514443E+03  0.7818608E-02  0.1062024E+00
          2   -1    0    0  501    0  0.00000000000E+00  0.00000000000E+00  0.34043932250E+04  0.34043932250E+04  0.25500000000E-02 0.  1.
         -2   -1    0    0    0  501 -0.00000000000E+00 -0.00000000000E+00 -0.90701260107E+01  0.90701263691E+01  0.25500000000E-02 0. -1.
    5000001    1    1    2    0    0  0.30526853002E+02 -0.11493344282E+03  0.19370924344E+04  0.19448901472E+04  0.12700000000E+03 0.  0.
   -5000001    1    1    2    0    0 -0.30526853002E+02  0.11493344282E+03  0.14582306645E+04  0.14685732042E+04  0.12700000000E+03 0.  0.
<mgrwt>
<rscale>  0 0.35144431E+03</rscale>
<asrwt>0</asrwt>
<pdfrwt beam="1">  1        2 0.48634235E+00 0.35144431E+03</pdfrwt>
<pdfrwt beam="2">  1       -2 0.12957311E-02 0.35144431E+03</pdfrwt>
<totfact> 0.24142506E+03</totfact>
</mgrwt>
</event>
<event>
 4    1  0.1383574E-004  0.3794687E+03  0.7818608E-02  0.1051130E+00
         -2   -1    0    0    0  501 -0.00000000000E+00  0.00000000000E+00  0.10714123322E+03  0.10714123326E+03  0.25500000000E-02 0. -1.
          2   -1    0    0  501    0  0.00000000000E+00 -0.00000000000E+00 -0.33599696528E+03  0.33599696529E+03  0.25500000000E-02 0.  1.
    5000001    1    1    2    0    0 -0.95144683039E+02  0.93547662733E+02 -0.16751337594E+03  0.24898475261E+03  0.12700000000E+03 0.  0.
   -5000001    1    1    2    0    0  0.95144683039E+02 -0.93547662733E+02 -0.61342356109E+02  0.19415344593E+03  0.12700000000E+03 0.  0.
<mgrwt>
<rscale>  0 0.37946873E+03</rscale>
<asrwt>0</asrwt>
<pdfrwt beam="1">  1        2 0.47999566E-01 0.37946873E+03</pdfrwt>
<pdfrwt beam="2">  1       -2 0.15305891E-01 0.37946873E+03</pdfrwt>
<totfact> 0.34882574E+03</totfact>
</mgrwt>
</event>
<event>
 4    1  0.1383574E-004  0.4677538E+03  0.7818608E-02  0.1022556E+00
         -2   -1    0    0    0  501 -0.00000000000E+00  0.00000000000E+00  0.52330008366E+02  0.52330008428E+02  0.25500000000E-02 0. -1.
          2   -1    0    0  501    0  0.00000000000E+00 -0.00000000000E+00 -0.10452587547E+04  0.10452587547E+04  0.25500000000E-02 0.  1.
    5000001    1    1    2    0    0  0.10971013665E+03 -0.16288437328E+03 -0.49958290879E+03  0.55161555081E+03  0.12700000000E+03 0.  0.
   -5000001    1    1    2    0    0 -0.10971013665E+03  0.16288437328E+03 -0.49334583750E+03  0.54597321228E+03  0.12700000000E+03 0.  0.
<mgrwt>
<rscale>  0 0.46775378E+03</rscale>
<asrwt>0</asrwt>
<pdfrwt beam="1">  1        2 0.14932267E+00 0.46775378E+03</pdfrwt>
<pdfrwt beam="2">  1       -2 0.74757161E-02 0.46775378E+03</pdfrwt>
<totfact> 0.28912034E+03</totfact>
</mgrwt>
</event>
<event>
 4    1  0.1383574E-004  0.4726593E+03  0.7818608E-02  0.1021172E+00
         -2   -1    0    0    0  501 -0.00000000000E+00  0.00000000000E+00  0.56699972549E+02  0.56699972607E+02  0.25500000000E-02 0. -1.
          2   -1    0    0  501    0  0.00000000000E+00 -0.00000000000E+00 -0.98503932541E+03  0.98503932541E+03  0.25500000000E-02 0.  1.
    5000001    1    1    2    0    0 -0.30341098992E+02 -0.18254008432E+03 -0.62734338182E+03  0.66628085924E+03  0.12700000000E+03 0.  0.
   -5000001    1    1    2    0    0  0.30341098992E+02  0.18254008432E+03 -0.30099597104E+03  0.37545843878E+03  0.12700000000E+03 0.  0.
<mgrwt>
<rscale>  0 0.47265930E+03</rscale>
<asrwt>0</asrwt>
<pdfrwt beam="1">  1        2 0.14071989E+00 0.47265930E+03</pdfrwt>
<pdfrwt beam="2">  1       -2 0.80999967E-02 0.47265930E+03</pdfrwt>
<totfact> 0.27674521E+03</totfact>
</mgrwt>
</event>
<event>
 4    1  0.1383574E-004  0.4328321E+03  0.7818608E-02  0.1032969E+00
         -2   -1    0    0    0  501 -0.00000000000E+00  0.00000000000E+00  0.13896646033E+03  0.13896646035E+03  0.25500000000E-02 0. -1.
          2   -1    0    0  501    0  0.00000000000E+00 -0.00000000000E+00 -0.33703024435E+03  0.33703024435E+03  0.25500000000E-02 0.  1.
    5000001    1    1    2    0    0 -0.17518594565E+03 -0.21093849405E+01 -0.10289426854E+03  0.23960549985E+03  0.12700000000E+03 0.  0.
   -5000001    1    1    2    0    0  0.17518594565E+03  0.21093849405E+01 -0.95169515476E+02  0.23639120486E+03  0.12700000000E+03 0.  0.
<mgrwt>
<rscale>  0 0.43283207E+03</rscale>
<asrwt>0</asrwt>
<pdfrwt beam="1">  1        2 0.48147178E-01 0.43283207E+03</pdfrwt>
<pdfrwt beam="2">  1       -2 0.19852352E-01 0.43283207E+03</pdfrwt>
<totfact> 0.22407138E+03</totfact>
</mgrwt>
</event>
<event>
 4    1  0.1383574E-004  0.4241870E+03  0.7818608E-02  0.1035712E+00
          2   -1    0    0  501    0  0.00000000000E+00  0.00000000000E+00  0.79985296637E+03  0.79985296637E+03  0.25500000000E-02 0.  1.
         -2   -1    0    0    0  501 -0.00000000000E+00 -0.00000000000E+00 -0.56239911990E+02  0.56239912048E+02  0.25500000000E-02 0. -1.
    5000001    1    1    2    0    0  0.15750046404E+03  0.56228958555E+02  0.31171411433E+03  0.37584941270E+03  0.12700000000E+03 0.  0.
   -5000001    1    1    2    0    0 -0.15750046404E+03 -0.56228958555E+02  0.43189894005E+03  0.48024346572E+03  0.12700000000E+03 0.  0.
<mgrwt>
<rscale>  0 0.42418704E+03</rscale>
<asrwt>0</asrwt>
<pdfrwt beam="1">  1        2 0.11426471E+00 0.42418704E+03</pdfrwt>
<pdfrwt beam="2">  1       -2 0.80342735E-02 0.42418704E+03</pdfrwt>
<totfact> 0.36852273E+03</totfact>
</mgrwt>
</event>
<event>
 4    1  0.1383574E-004  0.3807565E+03  0.7818608E-02  0.1050655E+00
         -2   -1    0    0    0  501 -0.00000000000E+00  0.00000000000E+00  0.12423830363E+03  0.12423830365E+03  0.25500000000E-02 0. -1.
          2   -1    0    0  501    0  0.00000000000E+00 -0.00000000000E+00 -0.29172865604E+03  0.29172865605E+03  0.25500000000E-02 0.  1.
    5000001    1    1    2    0    0  0.10259360641E+03 -0.75156722574E+02 -0.15232696729E+03  0.23559814513E+03  0.12700000000E+03 0.  0.
   -5000001    1    1    2    0    0 -0.10259360641E+03  0.75156722574E+02 -0.15163385120E+02  0.18036881458E+03  0.12700000000E+03 0.  0.
<mgrwt>
<rscale>  0 0.38075648E+03</rscale>
<asrwt>0</asrwt>
<pdfrwt beam="1">  1        2 0.41675522E-01 0.38075648E+03</pdfrwt>
<pdfrwt beam="2">  1       -2 0.17748329E-01 0.38075648E+03</pdfrwt>
<totfact> 0.31708015E+03</totfact>
</mgrwt>
</event>
<event>
 4    1  0.1383574E-004  0.2990376E+03  0.7818608E-02  0.1085723E+00
         -2   -1    0    0    0  501 -0.00000000000E+00  0.00000000000E+00  0.88851669307E+01  0.88851672966E+01  0.25500000000E-02 0. -1.
          2   -1    0    0  501    0  0.00000000000E+00 -0.00000000000E+00 -0.25160886704E+04  0.25160886704E+04  0.25500000000E-02 0.  1.
    5000001    1    1    2    0    0  0.28902515343E+02  0.55149530701E+02 -0.84427611652E+03  0.85604204748E+03  0.12700000000E+03 0.  0.
   -5000001    1    1    2    0    0 -0.28902515343E+02 -0.55149530701E+02 -0.16629273869E+04  0.16689317902E+04  0.12700000000E+03 0.  0.
<mgrwt>
<rscale>  0 0.29903758E+03</rscale>
<asrwt>0</asrwt>
<pdfrwt beam="1">  1        2 0.35944078E+00 0.29903758E+03</pdfrwt>
<pdfrwt beam="2">  1       -2 0.12693112E-02 0.29903758E+03</pdfrwt>
<totfact> 0.74160982E+03</totfact>
</mgrwt>
</event>
<event>
 4    1  0.1383574E-004  0.3830186E+03  0.7818608E-02  0.1049824E+00
         -2   -1    0    0    0  501 -0.00000000000E+00  0.00000000000E+00  0.36185045653E+02  0.36185045743E+02  0.25500000000E-02 0. -1.
          2   -1    0    0  501    0  0.00000000000E+00 -0.00000000000E+00 -0.10135626317E+04  0.10135626317E+04  0.25500000000E-02 0.  1.
    5000001    1    1    2    0    0 -0.38524107861E+02 -0.12555865166E+03 -0.64607711371E+03  0.67141173564E+03  0.12700000000E+03 0.  0.
   -5000001    1    1    2    0    0  0.38524107861E+02  0.12555865166E+03 -0.33130047233E+03  0.37833594180E+03  0.12700000000E+03 0.  0.
<mgrwt>
<rscale>  0 0.38301859E+03</rscale>
<asrwt>0</asrwt>
<pdfrwt beam="1">  1        2 0.14479464E+00 0.38301859E+03</pdfrwt>
<pdfrwt beam="2">  1       -2 0.51692929E-02 0.38301859E+03</pdfrwt>
<totfact> 0.53507639E+03</totfact>
</mgrwt>
</event>
<event>
 4    1  0.1383574E-004  0.5205392E+03  0.7818608E-02  0.1008553E+00
          2   -1    0    0  501    0  0.00000000000E+00  0.00000000000E+00  0.24270722652E+04  0.24270722653E+04  0.25500000000E-02 0.  1.
         -2   -1    0    0    0  501 -0.00000000000E+00 -0.00000000000E+00 -0.27910280302E+02  0.27910280418E+02  0.25500000000E-02 0. -1.
    5000001    1    1    2    0    0 -0.83706091752E+02  0.17338479993E+03  0.63084456870E+03  0.67168658503E+03  0.12700000000E+03 0.  0.
   -5000001    1    1    2    0    0  0.83706091752E+02 -0.17338479993E+03  0.17683174162E+04  0.17832959606E+04  0.12700000000E+03 0.  0.
<mgrwt>
<rscale>  0 0.52053921E+03</rscale>
<asrwt>0</asrwt>
<pdfrwt beam="1">  1        2 0.34672465E+00 0.52053921E+03</pdfrwt>
<pdfrwt beam="2">  1       -2 0.39871824E-02 0.52053921E+03</pdfrwt>
<totfact> 0.14746594E+03</totfact>
</mgrwt>
</event>
<event>
 4    1  0.1383574E-004  0.5030645E+03  0.7818608E-02  0.1012982E+00
         -2   -1    0    0    0  501 -0.00000000000E+00  0.00000000000E+00  0.35359934264E+02  0.35359934356E+02  0.25500000000E-02 0. -1.
          2   -1    0    0  501    0  0.00000000000E+00 -0.00000000000E+00 -0.17892700046E+04  0.17892700046E+04  0.25500000000E-02 0.  1.
    5000001    1    1    2    0    0 -0.18233054022E+03  0.58975550817E+02 -0.50676819686E+03  0.55647600742E+03  0.12700000000E+03 0.  0.
   -5000001    1    1    2    0    0  0.18233054022E+03 -0.58975550817E+02 -0.12471418735E+04  0.12681539316E+04  0.12700000000E+03 0.  0.
<mgrwt>
<rscale>  0 0.50306449E+03</rscale>
<asrwt>0</asrwt>
<pdfrwt beam="1">  1        2 0.25560994E+00 0.50306449E+03</pdfrwt>
<pdfrwt beam="2">  1       -2 0.50514203E-02 0.50306449E+03</pdfrwt>
<totfact> 0.21421665E+03</totfact>
</mgrwt>
</event>
<event>
 4    1  0.1383574E-004  0.4229822E+03  0.7818608E-02  0.1036100E+00
          2   -1    0    0  501    0  0.00000000000E+00  0.00000000000E+00  0.25414749210E+04  0.25414749210E+04  0.25500000000E-02 0.  1.
         -2   -1    0    0    0  501 -0.00000000000E+00 -0.00000000000E+00 -0.17599417263E+02  0.17599417448E+02  0.25500000000E-02 0. -1.
    5000001    1    1    2    0    0  0.60920541510E+02  0.10500625756E+03  0.19742517273E+04  0.19820536091E+04  0.12700000000E+03 0.  0.
   -5000001    1    1    2    0    0 -0.60920541510E+02 -0.10500625756E+03  0.54962377647E+03  0.57702072941E+03  0.12700000000E+03 0.  0.
<mgrwt>
<rscale>  0 0.42298216E+03</rscale>
<asrwt>0</asrwt>
<pdfrwt beam="1">  1        2 0.36306744E+00 0.42298216E+03</pdfrwt>
<pdfrwt beam="2">  1       -2 0.25142053E-02 0.42298216E+03</pdfrwt>
<totfact> 0.26084431E+03</totfact>
</mgrwt>
</event>
<event>
 4    1  0.1383574E-004  0.3505113E+03  0.7818608E-02  0.1062405E+00
         -2   -1    0    0    0  501 -0.00000000000E+00  0.00000000000E+00  0.24532879762E+02  0.24532879894E+02  0.25500000000E-02 0. -1.
          2   -1    0    0  501    0  0.00000000000E+00 -0.00000000000E+00 -0.12519748362E+04  0.12519748362E+04  0.25500000000E-02 0.  1.
    5000001    1    1    2    0    0 -0.11344351464E+03 -0.19268663876E+02 -0.48016725146E+03  0.50983360207E+03  0.12700000000E+03 0.  0.
   -5000001    1    1    2    0    0  0.11344351464E+03  0.19268663876E+02 -0.74727470497E+03  0.76667411402E+03  0.12700000000E+03 0.  0.
<mgrwt>
<rscale>  0 0.35051133E+03</rscale>
<asrwt>0</asrwt>
<pdfrwt beam="1">  1        2 0.17885351E+00 0.35051133E+03</pdfrwt>
<pdfrwt beam="2">  1       -2 0.35046979E-02 0.35051133E+03</pdfrwt>
<totfact> 0.70792057E+03</totfact>
</mgrwt>
</event>
<event>
 4    1  0.1383574E-004  0.6524683E+03  0.7818608E-02  0.9802159E-01
         -2   -1    0    0    0  501 -0.00000000000E+00  0.00000000000E+00  0.29463649333E+03  0.29463649334E+03  0.25500000000E-02 0. -1.
          2   -1    0    0  501    0  0.00000000000E+00 -0.00000000000E+00 -0.36122039316E+03  0.36122039317E+03  0.25500000000E-02 0.  1.
    5000001    1    1    2    0    0 -0.48501019184E+01 -0.28754247536E+03 -0.12089680925E+03  0.33682226338E+03  0.12700000000E+03 0.  0.
   -5000001    1    1    2    0    0  0.48501019184E+01  0.28754247536E+03  0.54312909418E+02  0.31903462313E+03  0.12700000000E+03 0.  0.
<mgrwt>
<rscale>  0 0.65246827E+03</rscale>
<asrwt>0</asrwt>
<pdfrwt beam="1">  1        2 0.51602913E-01 0.65246827E+03</pdfrwt>
<pdfrwt beam="2">  1       -2 0.42090928E-01 0.65246827E+03</pdfrwt>
<totfact> 0.52226993E+02</totfact>
</mgrwt>
</event>
<event>
 4    1  0.1383574E-004  0.3977856E+03  0.7818608E-02  0.1044549E+00
          2   -1    0    0  501    0  0.00000000000E+00  0.00000000000E+00  0.28097358667E+03  0.28097358668E+03  0.25500000000E-02 0.  1.
         -2   -1    0    0    0  501 -0.00000000000E+00 -0.00000000000E+00 -0.14079029981E+03  0.14079029983E+03  0.25500000000E-02 0. -1.
    5000001    1    1    2    0    0 -0.70749005772E+02 -0.38457894282E+02 -0.67927743443E+02  0.16500790823E+03  0.12700000000E+03 0.  0.
   -5000001    1    1    2    0    0  0.70749005772E+02  0.38457894282E+02  0.20811103030E+03  0.25675597828E+03  0.12700000000E+03 0.  0.
<mgrwt>
<rscale>  0 0.39778565E+03</rscale>
<asrwt>0</asrwt>
<pdfrwt beam="1">  1        2 0.40139085E-01 0.39778565E+03</pdfrwt>
<pdfrwt beam="2">  1       -2 0.20112900E-01 0.39778565E+03</pdfrwt>
<totfact> 0.26687387E+03</totfact>
</mgrwt>
</event>
<event>
 4    1  0.1383574E-004  0.3779652E+03  0.7818608E-02  0.1051688E+00
         -2   -1    0    0    0  501 -0.00000000000E+00  0.00000000000E+00  0.37263093862E+02  0.37263093949E+02  0.25500000000E-02 0. -1.
          2   -1    0    0  501    0  0.00000000000E+00 -0.00000000000E+00 -0.95843957501E+03  0.95843957501E+03  0.25500000000E-02 0.  1.
    5000001    1    1    2    0    0 -0.10492822960E+03 -0.83342918445E+02 -0.35424787076E+03  0.39947031099E+03  0.12700000000E+03 0.  0.
   -5000001    1    1    2    0    0  0.10492822960E+03  0.83342918445E+02 -0.56692861038E+03  0.59623235797E+03  0.12700000000E+03 0.  0.
<mgrwt>
<rscale>  0 0.37796520E+03</rscale>
<asrwt>0</asrwt>
<pdfrwt beam="1">  1        2 0.13691992E+00 0.37796520E+03</pdfrwt>
<pdfrwt beam="2">  1       -2 0.53232997E-02 0.37796520E+03</pdfrwt>
<totfact> 0.55203419E+03</totfact>
</mgrwt>
</event>
<event>
 4    1  0.1383574E-004  0.3716892E+03  0.7818608E-02  0.1054049E+00
         -2   -1    0    0    0  501 -0.00000000000E+00  0.00000000000E+00  0.23786323953E+02  0.23786324089E+02  0.25500000000E-02 0. -1.
          2   -1    0    0  501    0  0.00000000000E+00 -0.00000000000E+00 -0.14520195165E+04  0.14520195165E+04  0.25500000000E-02 0.  1.
    5000001    1    1    2    0    0  0.63415819555E+02 -0.89284799672E+02 -0.10321530838E+04  0.10456874916E+04  0.12700000000E+03 0.  0.
   -5000001    1    1    2    0    0 -0.63415819555E+02  0.89284799672E+02 -0.39608010874E+03  0.43011834902E+03  0.12700000000E+03 0.  0.
<mgrwt>
<rscale>  0 0.37168915E+03</rscale>
<asrwt>0</asrwt>
<pdfrwt beam="1">  1        2 0.20743130E+00 0.37168915E+03</pdfrwt>
<pdfrwt beam="2">  1       -2 0.33980472E-02 0.37168915E+03</pdfrwt>
<totfact> 0.58238352E+03</totfact>
</mgrwt>
</event>
<event>
 4    1  0.1383574E-004  0.3585199E+03  0.7818608E-02  0.1059171E+00
         -2   -1    0    0    0  501 -0.00000000000E+00  0.00000000000E+00  0.94377889800E+01  0.94377893245E+01  0.25500000000E-02 0. -1.
          2   -1    0    0  501    0  0.00000000000E+00 -0.00000000000E+00 -0.34048368059E+04  0.34048368059E+04  0.25500000000E-02 0.  1.
    5000001    1    1    2    0    0  0.86153684120E+02 -0.57795859132E+02 -0.10081798550E+04  0.10214296053E+04  0.12700000000E+03 0.  0.
   -5000001    1    1    2    0    0 -0.86153684120E+02  0.57795859132E+02 -0.23872191619E+04  0.23928449899E+04  0.12700000000E+03 0.  0.
<mgrwt>
<rscale>  0 0.35851991E+03</rscale>
<asrwt>0</asrwt>
<pdfrwt beam="1">  1        2 0.48640447E+00 0.35851991E+03</pdfrwt>
<pdfrwt beam="2">  1       -2 0.13482578E-02 0.35851991E+03</pdfrwt>
<totfact> 0.22743685E+03</totfact>
</mgrwt>
</event>
<event>
 4    1  0.1383574E-004  0.7257668E+03  0.7818608E-02  0.9674155E-01
          2   -1    0    0  501    0  0.00000000000E+00  0.00000000000E+00  0.98348690793E+03  0.98348690793E+03  0.25500000000E-02 0.  1.
         -2   -1    0    0    0  501 -0.00000000000E+00 -0.00000000000E+00 -0.13389539472E+03  0.13389539474E+03  0.25500000000E-02 0. -1.
    5000001    1    1    2    0    0  0.98904590659E+02  0.32183152262E+03  0.35262006810E+03  0.50381302031E+03  0.12700000000E+03 0.  0.
   -5000001    1    1    2    0    0 -0.98904590659E+02 -0.32183152262E+03  0.49697144511E+03  0.61356928236E+03  0.12700000000E+03 0.  0.
<mgrwt>
<rscale>  0 0.72576682E+03</rscale>
<asrwt>0</asrwt>
<pdfrwt beam="1">  1        2 0.14049813E+00 0.72576682E+03</pdfrwt>
<pdfrwt beam="2">  1       -2 0.19127913E-01 0.72576682E+03</pdfrwt>
<totfact> 0.66602564E+02</totfact>
</mgrwt>
</event>
<event>
 4    1  0.1383574E-004  0.5460911E+03  0.7818608E-02  0.1002403E+00
          2   -1    0    0  501    0  0.00000000000E+00  0.00000000000E+00  0.22991498483E+03  0.22991498485E+03  0.25500000000E-02 0.  1.
         -2   -1    0    0    0  501 -0.00000000000E+00 -0.00000000000E+00 -0.32426711475E+03  0.32426711476E+03  0.25500000000E-02 0. -1.
    5000001    1    1    2    0    0  0.24081190530E+03 -0.52778138132E+01 -0.26711981121E+02  0.27360694251E+03  0.12700000000E+03 0.  0.
   -5000001    1    1    2    0    0 -0.24081190530E+03  0.52778138132E+01 -0.67640148791E+02  0.28057515710E+03  0.12700000000E+03 0.  0.
<mgrwt>
<rscale>  0 0.54609109E+03</rscale>
<asrwt>0</asrwt>
<pdfrwt beam="1">  1        2 0.32844998E-01 0.54609109E+03</pdfrwt>
<pdfrwt beam="2">  1       -2 0.46323873E-01 0.54609109E+03</pdfrwt>
<totfact> 0.71367044E+02</totfact>
</mgrwt>
</event>
<event>
 4    1  0.1383574E-004  0.3450297E+03  0.7818608E-02  0.1064674E+00
          2   -1    0    0  501    0  0.00000000000E+00  0.00000000000E+00  0.10623594345E+04  0.10623594345E+04  0.25500000000E-02 0.  1.
         -2   -1    0    0    0  501 -0.00000000000E+00 -0.00000000000E+00 -0.28014414873E+02  0.28014414990E+02  0.25500000000E-02 0. -1.
    5000001    1    1    2    0    0  0.32044305680E+02 -0.56414361643E+02  0.82394230321E+03  0.83619336086E+03  0.12700000000E+03 0.  0.
   -5000001    1    1    2    0    0 -0.32044305680E+02  0.56414361643E+02  0.21040271641E+03  0.25418048863E+03  0.12700000000E+03 0.  0.
<mgrwt>
<rscale>  0 0.34502973E+03</rscale>
<asrwt>0</asrwt>
<pdfrwt beam="1">  1        2 0.15176567E+00 0.34502973E+03</pdfrwt>
<pdfrwt beam="2">  1       -2 0.40020583E-02 0.34502973E+03</pdfrwt>
<totfact> 0.73873125E+03</totfact>
</mgrwt>
</event>
<event>
 4    1  0.1383574E-004  0.3474238E+03  0.7818608E-02  0.1063677E+00
         -2   -1    0    0    0  501 -0.00000000000E+00  0.00000000000E+00  0.61040486892E+02  0.61040486945E+02  0.25500000000E-02 0. -1.
          2   -1    0    0  501    0  0.00000000000E+00 -0.00000000000E+00 -0.49435764406E+03  0.49435764407E+03  0.25500000000E-02 0.  1.
    5000001    1    1    2    0    0  0.10586622583E+03  0.15423382062E+02 -0.13512445300E+03  0.21408679615E+03  0.12700000000E+03 0.  0.
   -5000001    1    1    2    0    0 -0.10586622583E+03 -0.15423382062E+02 -0.29819270417E+03  0.34131133486E+03  0.12700000000E+03 0.  0.
<mgrwt>
<rscale>  0 0.34742384E+03</rscale>
<asrwt>0</asrwt>
<pdfrwt beam="1">  1        2 0.70622518E-01 0.34742384E+03</pdfrwt>
<pdfrwt beam="2">  1       -2 0.87200698E-02 0.34742384E+03</pdfrwt>
<totfact> 0.56783790E+03</totfact>
</mgrwt>
</event>
<event>
 4    1  0.1383574E-004  0.3814339E+03  0.7818608E-02  0.1050405E+00
         -2   -1    0    0    0  501 -0.00000000000E+00  0.00000000000E+00  0.38213489219E+02  0.38213489304E+02  0.25500000000E-02 0. -1.
          2   -1    0    0  501    0  0.00000000000E+00 -0.00000000000E+00 -0.95183529247E+03  0.95183529248E+03  0.25500000000E-02 0.  1.
    5000001    1    1    2    0    0  0.73113279769E+02 -0.11942450108E+03 -0.52227887891E+03  0.55543855690E+03  0.12700000000E+03 0.  0.
   -5000001    1    1    2    0    0 -0.73113279769E+02  0.11942450108E+03 -0.39134292434E+03  0.43461022488E+03  0.12700000000E+03 0.  0.
<mgrwt>
<rscale>  0 0.38143386E+03</rscale>
<asrwt>0</asrwt>
<pdfrwt beam="1">  1        2 0.13597645E+00 0.38143386E+03</pdfrwt>
<pdfrwt beam="2">  1       -2 0.54590705E-02 0.38143386E+03</pdfrwt>
<totfact> 0.53610280E+03</totfact>
</mgrwt>
</event>
<event>
 4    1  0.1383574E-004  0.4168510E+03  0.7818608E-02  0.1038096E+00
         -2   -1    0    0    0  501 -0.00000000000E+00  0.00000000000E+00  0.11574712112E+03  0.11574712115E+03  0.25500000000E-02 0. -1.
          2   -1    0    0  501    0  0.00000000000E+00 -0.00000000000E+00 -0.37531116031E+03  0.37531116032E+03  0.25500000000E-02 0.  1.
    5000001    1    1    2    0    0  0.82954828311E+02 -0.11250634486E+03 -0.23364162867E+03  0.30042734866E+03  0.12700000000E+03 0.  0.
   -5000001    1    1    2    0    0 -0.82954828311E+02  0.11250634486E+03 -0.25922410517E+02  0.19063093280E+03  0.12700000000E+03 0.  0.
<mgrwt>
<rscale>  0 0.41685099E+03</rscale>
<asrwt>0</asrwt>
<pdfrwt beam="1">  1        2 0.53615880E-01 0.41685099E+03</pdfrwt>
<pdfrwt beam="2">  1       -2 0.16535303E-01 0.41685099E+03</pdfrwt>
<totfact> 0.27200608E+03</totfact>
</mgrwt>
</event>
<event>
 4    1  0.1383574E-004  0.4219446E+03  0.7818608E-02  0.1036435E+00
         -2   -1    0    0    0  501 -0.00000000000E+00  0.00000000000E+00  0.93471554710E+02  0.93471554745E+02  0.25500000000E-02 0.  1.
          2   -1    0    0  501    0  0.00000000000E+00 -0.00000000000E+00 -0.47618028419E+03  0.47618028419E+03  0.25500000000E-02 0. -1.
    5000001    1    1    2    0    0  0.11847933173E+03  0.11962135704E+03 -0.19919059316E+03  0.29009052641E+03  0.12700000000E+03 0.  0.
   -5000001    1    1    2    0    0 -0.11847933173E+03 -0.11962135704E+03 -0.18351813632E+03  0.27956131253E+03  0.12700000000E+03 0.  0.
<mgrwt>
<rscale>  0 0.42194460E+03</rscale>
<asrwt>0</asrwt>
<pdfrwt beam="1">  1        2 0.68025753E-01 0.42194460E+03</pdfrwt>
<pdfrwt beam="2">  1       -2 0.13353080E-01 0.42194460E+03</pdfrwt>
<totfact> 0.29879929E+03</totfact>
</mgrwt>
</event>
<event>
 4    1  0.1383574E-004  0.4264252E+03  0.7818608E-02  0.1034995E+00
          2   -1    0    0  501    0  0.00000000000E+00  0.00000000000E+00  0.47206064411E+03  0.47206064412E+03  0.25500000000E-02 0.  1.
         -2   -1    0    0    0  501 -0.00000000000E+00 -0.00000000000E+00 -0.96300379211E+02  0.96300379245E+02  0.25500000000E-02 0. -1.
    5000001    1    1    2    0    0 -0.16956883305E+03  0.15778523553E+02  0.21202158507E+03  0.30014113927E+03  0.12700000000E+03 0.  0.
   -5000001    1    1    2    0    0  0.16956883305E+03 -0.15778523553E+02  0.16373867983E+03  0.26821988409E+03  0.12700000000E+03 0.  0.
<mgrwt>
<rscale>  0 0.42642523E+03</rscale>
<asrwt>0</asrwt>
<pdfrwt beam="1">  1        2 0.67437236E-01 0.42642523E+03</pdfrwt>
<pdfrwt beam="2">  1       -2 0.13757197E-01 0.42642523E+03</pdfrwt>
<totfact> 0.28724640E+03</totfact>
</mgrwt>
</event>
<event>
 4    1  0.1383574E-004  0.1131330E+04  0.7818608E-02  0.9175183E-01
         -2   -1    0    0    0  501 -0.00000000000E+00  0.00000000000E+00  0.24824385539E+03  0.24824385540E+03  0.25500000000E-02 0. -1.
          2   -1    0    0  501    0  0.00000000000E+00 -0.00000000000E+00 -0.12889608752E+04  0.12889608752E+04  0.25500000000E-02 0.  1.
    5000001    1    1    2    0    0  0.49909084690E+03  0.22023465436E+03 -0.41291644883E+03  0.69586203385E+03  0.12700000000E+03 0.  0.
   -5000001    1    1    2    0    0 -0.49909084690E+03 -0.22023465436E+03 -0.62780057095E+03  0.84134269672E+03  0.12700000000E+03 0.  0.
<mgrwt>
<rscale>  0 0.11313295E+04</rscale>
<asrwt>0</asrwt>
<pdfrwt beam="1">  1        2 0.18413726E+00 0.11313295E+04</pdfrwt>
<pdfrwt beam="2">  1       -2 0.35463409E-01 0.11313295E+04</pdfrwt>
<totfact> 0.14074956E+02</totfact>
</mgrwt>
</event>
<event>
 4    1  0.1383574E-004  0.2878367E+03  0.7818608E-02  0.1091484E+00
          2   -1    0    0  501    0  0.00000000000E+00  0.00000000000E+00  0.89235436120E+02  0.89235436156E+02  0.25500000000E-02 0.  1.
         -2   -1    0    0    0  501 -0.00000000000E+00 -0.00000000000E+00 -0.23211063673E+03  0.23211063675E+03  0.25500000000E-02 0. -1.
    5000001    1    1    2    0    0  0.52594092354E+02  0.37127879017E+02 -0.48049351903E+02  0.15027427647E+03  0.12700000000E+03 0.  0.
   -5000001    1    1    2    0    0 -0.52594092354E+02 -0.37127879017E+02 -0.94825848712E+02  0.17107179643E+03  0.12700000000E+03 0.  0.
<mgrwt>
<rscale>  0 0.28783672E+03</rscale>
<asrwt>0</asrwt>
<pdfrwt beam="1">  1        2 0.12747920E-01 0.28783672E+03</pdfrwt>
<pdfrwt beam="2">  1       -2 0.33158662E-01 0.28783672E+03</pdfrwt>
<totfact> 0.40193896E+03</totfact>
</mgrwt>
</event>
<event>
 4    1  0.1383574E-004  0.3696600E+03  0.7818608E-02  0.1054823E+00
         -2   -1    0    0    0  501 -0.00000000000E+00  0.00000000000E+00  0.11359256179E+02  0.11359256465E+02  0.25500000000E-02 0. -1.
          2   -1    0    0  501    0  0.00000000000E+00 -0.00000000000E+00 -0.30074272004E+04  0.30074272004E+04  0.25500000000E-02 0.  1.
    5000001    1    1    2    0    0 -0.11929216513E+03 -0.13327081348E+02 -0.19897090344E+04  0.19973680866E+04  0.12700000000E+03 0.  0.
   -5000001    1    1    2    0    0  0.11929216513E+03  0.13327081348E+02 -0.10063589098E+04  0.10214183702E+04  0.12700000000E+03 0.  0.
<mgrwt>
<rscale>  0 0.36966004E+03</rscale>
<asrwt>0</asrwt>
<pdfrwt beam="1">  1        2 0.42963195E+00 0.36966004E+03</pdfrwt>
<pdfrwt beam="2">  1       -2 0.16227528E-02 0.36966004E+03</pdfrwt>
<totfact> 0.28701883E+03</totfact>
</mgrwt>
</event>
<event>
 4    1  0.1383574E-004  0.1018647E+04  0.7818608E-02  0.9288326E-01
          2   -1    0    0  501    0  0.00000000000E+00  0.00000000000E+00  0.12277745902E+04  0.12277745902E+04  0.25500000000E-02 0.  1.
         -2   -1    0    0    0  501 -0.00000000000E+00 -0.00000000000E+00 -0.21128501711E+03  0.21128501713E+03  0.25500000000E-02 0. -1.
    5000001    1    1    2    0    0 -0.13221078793E+03 -0.34010861562E+03  0.39427493583E+02  0.38837750980E+03  0.12700000000E+03 0.  0.
   -5000001    1    1    2    0    0  0.13221078793E+03  0.34010861562E+03  0.97706207949E+03  0.10506820975E+04  0.12700000000E+03 0.  0.
<mgrwt>
<rscale>  0 0.10186469E+04</rscale>
<asrwt>0</asrwt>
<pdfrwt beam="1">  1        2 0.17539637E+00 0.10186469E+04</pdfrwt>
<pdfrwt beam="2">  1       -2 0.30183574E-01 0.10186469E+04</pdfrwt>
<totfact> 0.20783421E+02</totfact>
</mgrwt>
</event>
<event>
 4    1  0.1383574E-004  0.5052276E+03  0.7818608E-02  0.1012423E+00
          2   -1    0    0  501    0  0.00000000000E+00  0.00000000000E+00  0.16077368664E+04  0.16077368664E+04  0.25500000000E-02 0.  1.
         -2   -1    0    0    0  501 -0.00000000000E+00 -0.00000000000E+00 -0.39691648968E+02  0.39691649050E+02  0.25500000000E-02 0. -1.
    5000001    1    1    2    0    0  0.10498558987E+03 -0.16622308460E+03  0.10939263826E+04  0.11186849505E+04  0.12700000000E+03 0.  0.
   -5000001    1    1    2    0    0 -0.10498558987E+03  0.16622308460E+03  0.47411883483E+03  0.52874356495E+03  0.12700000000E+03 0.  0.
<mgrwt>
<rscale>  0 0.50522758E+03</rscale>
<asrwt>0</asrwt>
<pdfrwt beam="1">  1        2 0.22967666E+00 0.50522758E+03</pdfrwt>
<pdfrwt beam="2">  1       -2 0.56702364E-02 0.50522758E+03</pdfrwt>
<totfact> 0.22121778E+03</totfact>
</mgrwt>
</event>
<event>
 4    1  0.1383574E-004  0.2976785E+03  0.7818608E-02  0.1086407E+00
         -2   -1    0    0    0  501 -0.00000000000E+00  0.00000000000E+00  0.21423248204E+02  0.21423248356E+02  0.25500000000E-02 0. -1.
          2   -1    0    0  501    0  0.00000000000E+00 -0.00000000000E+00 -0.10340695553E+04  0.10340695553E+04  0.25500000000E-02 0.  1.
    5000001    1    1    2    0    0 -0.57155021728E+02 -0.23025140871E+02 -0.33898511061E+03  0.36720125113E+03  0.12700000000E+03 0.  0.
   -5000001    1    1    2    0    0  0.57155021728E+02  0.23025140871E+02 -0.67366119644E+03  0.68829155248E+03  0.12700000000E+03 0.  0.
<mgrwt>
<rscale>  0 0.29767854E+03</rscale>
<asrwt>0</asrwt>
<pdfrwt beam="1">  1        2 0.14772419E+00 0.29767854E+03</pdfrwt>
<pdfrwt beam="2">  1       -2 0.30604647E-02 0.29767854E+03</pdfrwt>
<totfact> 0.11437202E+04</totfact>
</mgrwt>
</event>
<event>
 4    1  0.1383574E-004  0.2603773E+03  0.7818608E-02  0.1106917E+00
         -2   -1    0    0    0  501 -0.00000000000E+00  0.00000000000E+00  0.62282781297E+01  0.62282786517E+01  0.25500000000E-02 0. -1.
          2   -1    0    0  501    0  0.00000000000E+00 -0.00000000000E+00 -0.27213120232E+04  0.27213120232E+04  0.25500000000E-02 0.  1.
    5000001    1    1    2    0    0  0.87599873905E+01  0.12813784123E+02 -0.16096383011E+04  0.16147152662E+04  0.12700000000E+03 0.  0.
   -5000001    1    1    2    0    0 -0.87599873905E+01 -0.12813784123E+02 -0.11054454440E+04  0.11128250357E+04  0.12700000000E+03 0.  0.
<mgrwt>
<rscale>  0 0.26037733E+03</rscale>
<asrwt>0</asrwt>
<pdfrwt beam="1">  1        2 0.38875810E+00 0.26037733E+03</pdfrwt>
<pdfrwt beam="2">  1       -2 0.88975580E-03 0.26037733E+03</pdfrwt>
<totfact> 0.97902386E+03</totfact>
</mgrwt>
</event>
<event>
 4    1  0.1383574E-004  0.3331745E+03  0.7818608E-02  0.1069741E+00
          2   -1    0    0  501    0  0.00000000000E+00  0.00000000000E+00  0.51849425309E+03  0.51849425310E+03  0.25500000000E-02 0.  1.
         -2   -1    0    0    0  501 -0.00000000000E+00 -0.00000000000E+00 -0.53522891454E+02  0.53522891515E+02  0.25500000000E-02 0. -1.
    5000001    1    1    2    0    0  0.10137567597E+03  0.30210516255E+02  0.26819527422E+03  0.31503556638E+03  0.12700000000E+03 0.  0.
   -5000001    1    1    2    0    0 -0.10137567597E+03 -0.30210516255E+02  0.19677608742E+03  0.25698157823E+03  0.12700000000E+03 0.  0.
<mgrwt>
<rscale>  0 0.33317450E+03</rscale>
<asrwt>0</asrwt>
<pdfrwt beam="1">  1        2 0.74070605E-01 0.33317450E+03</pdfrwt>
<pdfrwt beam="2">  1       -2 0.76461276E-02 0.33317450E+03</pdfrwt>
<totfact> 0.66130170E+03</totfact>
</mgrwt>
</event>
<event>
 4    1  0.1383574E-004  0.4323085E+03  0.7818608E-02  0.1033133E+00
         -2   -1    0    0    0  501 -0.00000000000E+00  0.00000000000E+00  0.90448509867E+02  0.90448509903E+02  0.25500000000E-02 0. -1.
          2   -1    0    0  501    0  0.00000000000E+00 -0.00000000000E+00 -0.51656641082E+03  0.51656641083E+03  0.25500000000E-02 0.  1.
    5000001    1    1    2    0    0  0.43651343691E+02  0.16143416960E+03 -0.14108841610E+03  0.25298492461E+03  0.12700000000E+03 0.  0.
   -5000001    1    1    2    0    0 -0.43651343691E+02 -0.16143416960E+03 -0.28502948485E+03  0.35402999613E+03  0.12700000000E+03 0.  0.
<mgrwt>
<rscale>  0 0.43230851E+03</rscale>
<asrwt>0</asrwt>
<pdfrwt beam="1">  1        2 0.73795200E-01 0.43230851E+03</pdfrwt>
<pdfrwt beam="2">  1       -2 0.12921216E-01 0.43230851E+03</pdfrwt>
<totfact> 0.28795100E+03</totfact>
</mgrwt>
</event>
<event>
 4    1  0.1383574E-004  0.3179196E+03  0.7818608E-02  0.1076611E+00
          2   -1    0    0  501    0  0.00000000000E+00  0.00000000000E+00  0.24344941051E+03  0.24344941052E+03  0.25500000000E-02 0.  1.
         -2   -1    0    0    0  501 -0.00000000000E+00 -0.00000000000E+00 -0.10379250256E+03  0.10379250259E+03  0.25500000000E-02 0. -1.
    5000001    1    1    2    0    0  0.90012262072E+02 -0.24746233146E+02  0.47321053501E+02  0.16456872571E+03  0.12700000000E+03 0.  0.
   -5000001    1    1    2    0    0 -0.90012262072E+02  0.24746233146E+02  0.92335854446E+02  0.18267318740E+03  0.12700000000E+03 0.  0.
<mgrwt>
<rscale>  0 0.31791963E+03</rscale>
<asrwt>0</asrwt>
<pdfrwt beam="1">  1        2 0.34778486E-01 0.31791963E+03</pdfrwt>
<pdfrwt beam="2">  1       -2 0.14827501E-01 0.31791963E+03</pdfrwt>
<totfact> 0.51968531E+03</totfact>
</mgrwt>
</event>
<event>
 4    1  0.1383574E-004  0.3528587E+03  0.7818608E-02  0.1061448E+00
         -2   -1    0    0    0  501 -0.00000000000E+00  0.00000000000E+00  0.29318664258E+02  0.29318664369E+02  0.25500000000E-02 0. -1.
          2   -1    0    0  501    0  0.00000000000E+00 -0.00000000000E+00 -0.10616896121E+04  0.10616896121E+04  0.25500000000E-02 0.  1.
    5000001    1    1    2    0    0  0.53063994937E+02 -0.10801987205E+03 -0.58630040920E+03  0.61185067634E+03  0.12700000000E+03 0.  0.
   -5000001    1    1    2    0    0 -0.53063994937E+02  0.10801987205E+03 -0.44607053866E+03  0.47915760014E+03  0.12700000000E+03 0.  0.
<mgrwt>
<rscale>  0 0.35285873E+03</rscale>
<asrwt>0</asrwt>
<pdfrwt beam="1">  1        2 0.15166992E+00 0.35285873E+03</pdfrwt>
<pdfrwt beam="2">  1       -2 0.41883813E-02 0.35285873E+03</pdfrwt>
<totfact> 0.69041494E+03</totfact>
</mgrwt>
</event>
<event>
 4    1  0.1383574E-004  0.3548437E+03  0.7818608E-02  0.1060644E+00
          2   -1    0    0  501    0  0.00000000000E+00  0.00000000000E+00  0.40345526544E+04  0.40345526544E+04  0.25500000000E-02 0.  1.
         -2   -1    0    0    0  501 -0.00000000000E+00 -0.00000000000E+00 -0.78022329936E+01  0.78022334103E+01  0.25500000000E-02 0. -1.
    5000001    1    1    2    0    0 -0.11414762996E+03  0.28577508812E+02  0.24550480044E+04  0.24611452739E+04  0.12700000000E+03 0.  0.
   -5000001    1    1    2    0    0  0.11414762996E+03 -0.28577508812E+02  0.15717024170E+04  0.15812096139E+04  0.12700000000E+03 0.  0.
<mgrwt>
<rscale>  0 0.35484374E+03</rscale>
<asrwt>0</asrwt>
<pdfrwt beam="1">  1        2 0.57636248E+00 0.35484374E+03</pdfrwt>
<pdfrwt beam="2">  1       -2 0.11146090E-02 0.35484374E+03</pdfrwt>
<totfact> 0.12337701E+03</totfact>
</mgrwt>
</event>
<event>
 4    1  0.1383574E-004  0.5490335E+03  0.7818608E-02  0.1001718E+00
         -2   -1    0    0    0  501 -0.00000000000E+00  0.00000000000E+00  0.48844706166E+02  0.48844706232E+02  0.25500000000E-02 0. -1.
          2   -1    0    0  501    0  0.00000000000E+00 -0.00000000000E+00 -0.15428374054E+04  0.15428374054E+04  0.25500000000E-02 0.  1.
    5000001    1    1    2    0    0 -0.98089133601E+02  0.21932066853E+03 -0.63443931825E+03  0.69019220679E+03  0.12700000000E+03 0.  0.
   -5000001    1    1    2    0    0  0.98089133601E+02 -0.21932066853E+03 -0.85955338099E+03  0.90148990485E+03  0.12700000000E+03 0.  0.
<mgrwt>
<rscale>  0 0.54903348E+03</rscale>
<asrwt>0</asrwt>
<pdfrwt beam="1">  1        2 0.22040531E+00 0.54903348E+03</pdfrwt>
<pdfrwt beam="2">  1       -2 0.69778161E-02 0.54903348E+03</pdfrwt>
<totfact> 0.17237931E+03</totfact>
</mgrwt>
</event>
<event>
 4    1  0.1383574E-004  0.7518129E+03  0.7818608E-02  0.9632510E-01
         -2   -1    0    0    0  501 -0.00000000000E+00  0.00000000000E+00  0.49734398351E+02  0.49734398416E+02  0.25500000000E-02 0. -1.
          2   -1    0    0  501    0  0.00000000000E+00 -0.00000000000E+00 -0.28412057552E+04  0.28412057553E+04  0.25500000000E-02 0.  1.
    5000001    1    1    2    0    0 -0.22823355156E+03  0.26818419258E+03 -0.12645811313E+04  0.13188281742E+04  0.12700000000E+03 0.  0.
   -5000001    1    1    2    0    0  0.22823355156E+03 -0.26818419258E+03 -0.15268902256E+04  0.15721119795E+04  0.12700000000E+03 0.  0.
<mgrwt>
<rscale>  0 0.75181290E+03</rscale>
<asrwt>0</asrwt>
<pdfrwt beam="1">  1        2 0.40588643E+00 0.75181290E+03</pdfrwt>
<pdfrwt beam="2">  1       -2 0.71049159E-02 0.75181290E+03</pdfrwt>
<totfact> 0.35804669E+02</totfact>
</mgrwt>
</event>
<event>
 4    1  0.1383574E-004  0.2686495E+03  0.7818608E-02  0.1102055E+00
         -2   -1    0    0    0  501 -0.00000000000E+00  0.00000000000E+00  0.16911445402E+02  0.16911445594E+02  0.25500000000E-02 0. -1.
          2   -1    0    0  501    0  0.00000000000E+00 -0.00000000000E+00 -0.10669187439E+04  0.10669187439E+04  0.25500000000E-02 0.  1.
    5000001    1    1    2    0    0 -0.38902681353E+02 -0.80188586648E+01 -0.59900071321E+03  0.61360294584E+03  0.12700000000E+03 0.  0.
   -5000001    1    1    2    0    0  0.38902681353E+02  0.80188586648E+01 -0.45100658533E+03  0.47022724370E+03  0.12700000000E+03 0.  0.
<mgrwt>
<rscale>  0 0.26864950E+03</rscale>
<asrwt>0</asrwt>
<pdfrwt beam="1">  1        2 0.15241692E+00 0.26864950E+03</pdfrwt>
<pdfrwt beam="2">  1       -2 0.24159215E-02 0.26864950E+03</pdfrwt>
<totfact> 0.15499720E+04</totfact>
</mgrwt>
</event>
<event>
 4    1  0.1383574E-004  0.4791716E+03  0.7818608E-02  0.1019363E+00
          2   -1    0    0  501    0  0.00000000000E+00  0.00000000000E+00  0.40654561939E+04  0.40654561939E+04  0.25500000000E-02 0.  1.
         -2   -1    0    0    0  501 -0.00000000000E+00 -0.00000000000E+00 -0.14119288466E+02  0.14119288696E+02  0.25500000000E-02 0. -1.
    5000001    1    1    2    0    0 -0.20097856202E+03  0.18037432733E+02  0.22261714399E+04  0.22389028588E+04  0.12700000000E+03 0.  0.
   -5000001    1    1    2    0    0  0.20097856202E+03 -0.18037432733E+02  0.18251654655E+04  0.18406726237E+04  0.12700000000E+03 0.  0.
<mgrwt>
<rscale>  0 0.47917157E+03</rscale>
<asrwt>0</asrwt>
<pdfrwt beam="1">  1        2 0.58077943E+00 0.47917157E+03</pdfrwt>
<pdfrwt beam="2">  1       -2 0.20170413E-02 0.47917157E+03</pdfrwt>
<totfact> 0.47937183E+02</totfact>
</mgrwt>
</event>
<event>
 4    1  0.1383574E-004  0.6972262E+03  0.7818608E-02  0.9721988E-01
         -2   -1    0    0    0  501 -0.00000000000E+00  0.00000000000E+00  0.10903815355E+03  0.10903815358E+03  0.25500000000E-02 0. -1.
          2   -1    0    0  501    0  0.00000000000E+00 -0.00000000000E+00 -0.11145741101E+04  0.11145741101E+04  0.25500000000E-02 0.  1.
    5000001    1    1    2    0    0  0.30251708566E+03 -0.10883158543E+03 -0.42347895194E+03  0.54664826336E+03  0.12700000000E+03 0.  0.
   -5000001    1    1    2    0    0 -0.30251708566E+03  0.10883158543E+03 -0.58205700460E+03  0.67696400030E+03  0.12700000000E+03 0.  0.
<mgrwt>
<rscale>  0 0.69722623E+03</rscale>
<asrwt>0</asrwt>
<pdfrwt beam="1">  1        2 0.15922487E+00 0.69722623E+03</pdfrwt>
<pdfrwt beam="2">  1       -2 0.15576880E-01 0.69722623E+03</pdfrwt>
<totfact> 0.79143849E+02</totfact>
</mgrwt>
</event>
<event>
 4    1  0.1383574E-004  0.3552163E+03  0.7818608E-02  0.1060494E+00
         -2   -1    0    0    0  501 -0.00000000000E+00  0.00000000000E+00  0.30554766723E+02  0.30554766829E+02  0.25500000000E-02 0. -1.
          2   -1    0    0  501    0  0.00000000000E+00 -0.00000000000E+00 -0.10323973541E+04  0.10323973541E+04  0.25500000000E-02 0.  1.
    5000001    1    1    2    0    0 -0.22266148934E+02 -0.12154650017E+03 -0.53711919873E+03  0.56559293378E+03  0.12700000000E+03 0.  0.
   -5000001    1    1    2    0    0  0.22266148934E+02  0.12154650017E+03 -0.46472338860E+03  0.49735918711E+03  0.12700000000E+03 0.  0.
<mgrwt>
<rscale>  0 0.35521633E+03</rscale>
<asrwt>0</asrwt>
<pdfrwt beam="1">  1        2 0.14748531E+00 0.35521633E+03</pdfrwt>
<pdfrwt beam="2">  1       -2 0.43649673E-02 0.35521633E+03</pdfrwt>
<totfact> 0.67451650E+03</totfact>
</mgrwt>
</event>
<event>
 4    1  0.1383574E-004  0.5172123E+03  0.7818608E-02  0.1009381E+00
          2   -1    0    0  501    0  0.00000000000E+00  0.00000000000E+00  0.84221577026E+03  0.84221577026E+03  0.25500000000E-02 0. -1.
         -2   -1    0    0    0  501 -0.00000000000E+00 -0.00000000000E+00 -0.79406169333E+02  0.79406169374E+02  0.25500000000E-02 0.  1.
    5000001    1    1    2    0    0  0.10891768637E+03  0.15927717774E+03  0.17424493302E+03  0.28934854145E+03  0.12700000000E+03 0.  0.
   -5000001    1    1    2    0    0 -0.10891768637E+03 -0.15927717774E+03  0.58856466790E+03  0.63227339819E+03  0.12700000000E+03 0.  0.
<mgrwt>
<rscale>  0 0.51721225E+03</rscale>
<asrwt>0</asrwt>
<pdfrwt beam="1">  1        2 0.12031654E+00 0.51721225E+03</pdfrwt>
<pdfrwt beam="2">  1       -2 0.11343738E-01 0.51721225E+03</pdfrwt>
<totfact> 0.19847688E+03</totfact>
</mgrwt>
</event>
<event>
 4    1  0.1383574E-004  0.5521614E+03  0.7818608E-02  0.1000995E+00
         -2   -1    0    0    0  501 -0.00000000000E+00  0.00000000000E+00  0.39971092167E+04  0.39971092167E+04  0.25500000000E-02 0.  1.
          2   -1    0    0  501    0  0.00000000000E+00 -0.00000000000E+00 -0.19068917240E+02  0.19068917411E+02  0.25500000000E-02 0. -1.
    5000001    1    1    2    0    0  0.16855894654E+03 -0.18471479961E+02  0.32766296909E+04  0.32834714016E+04  0.12700000000E+03 0.  0.
   -5000001    1    1    2    0    0 -0.16855894654E+03  0.18471479961E+02  0.70141060863E+03  0.73270673255E+03  0.12700000000E+03 0.  0.
<mgrwt>
<rscale>  0 0.55216137E+03</rscale>
<asrwt>0</asrwt>
<pdfrwt beam="1">  1        2 0.27241272E-02 0.55216137E+03</pdfrwt>
<pdfrwt beam="2">  1       -2 0.57101641E+00 0.55216137E+03</pdfrwt>
<totfact> 0.27191218E+00</totfact>
</mgrwt>
</event>
<event>
 4    1  0.1383574E-004  0.2960119E+03  0.7818608E-02  0.1087251E+00
          2   -1    0    0  501    0  0.00000000000E+00  0.00000000000E+00  0.24591996929E+03  0.24591996931E+03  0.25500000000E-02 0.  1.
         -2   -1    0    0    0  501 -0.00000000000E+00 -0.00000000000E+00 -0.89076791884E+02  0.89076791920E+02  0.25500000000E-02 0. -1.
    5000001    1    1    2    0    0 -0.75481554990E+02 -0.48990487137E+01  0.86837065477E+02  0.17143844890E+03  0.12700000000E+03 0.  0.
   -5000001    1    1    2    0    0  0.75481554990E+02  0.48990487137E+01  0.70006111933E+02  0.16355831232E+03  0.12700000000E+03 0.  0.
<mgrwt>
<rscale>  0 0.29601190E+03</rscale>
<asrwt>0</asrwt>
<pdfrwt beam="1">  1        2 0.35131424E-01 0.29601190E+03</pdfrwt>
<pdfrwt beam="2">  1       -2 0.12725256E-01 0.29601190E+03</pdfrwt>
<totfact> 0.65906663E+03</totfact>
</mgrwt>
</event>
<event>
 4    1  0.1383574E-004  0.3353094E+03  0.7818608E-02  0.1068812E+00
          2   -1    0    0  501    0  0.00000000000E+00  0.00000000000E+00  0.63333330228E+02  0.63333330280E+02  0.25500000000E-02 0.  1.
         -2   -1    0    0    0  501 -0.00000000000E+00 -0.00000000000E+00 -0.44381200729E+03  0.44381200729E+03  0.25500000000E-02 0. -1.
    5000001    1    1    2    0    0 -0.10853036260E+03  0.17854845454E+01 -0.21147136085E+03  0.26950169576E+03  0.12700000000E+03 0.  0.
   -5000001    1    1    2    0    0  0.10853036260E+03 -0.17854845454E+01 -0.16900731621E+03  0.23764364181E+03  0.12700000000E+03 0.  0.
<mgrwt>
<rscale>  0 0.33530936E+03</rscale>
<asrwt>0</asrwt>
<pdfrwt beam="1">  1        2 0.90476189E-02 0.33530936E+03</pdfrwt>
<pdfrwt beam="2">  1       -2 0.63401714E-01 0.33530936E+03</pdfrwt>
<totfact> 0.17206942E+03</totfact>
</mgrwt>
</event>
<event>
 4    1  0.1383574E-004  0.3758941E+03  0.7818608E-02  0.1052462E+00
         -2   -1    0    0    0  501 -0.00000000000E+00  0.00000000000E+00  0.85006307369E+02  0.85006307407E+02  0.25500000000E-02 0. -1.
          2   -1    0    0  501    0  0.00000000000E+00 -0.00000000000E+00 -0.41554672913E+03  0.41554672913E+03  0.25500000000E-02 0.  1.
    5000001    1    1    2    0    0  0.52243680110E+02 -0.12626558643E+03 -0.19571463450E+03  0.27038050704E+03  0.12700000000E+03 0.  0.
   -5000001    1    1    2    0    0 -0.52243680110E+02  0.12626558643E+03 -0.13482578726E+03  0.23017252950E+03  0.12700000000E+03 0.  0.
<mgrwt>
<rscale>  0 0.37589410E+03</rscale>
<asrwt>0</asrwt>
<pdfrwt beam="1">  1        2 0.59363817E-01 0.37589410E+03</pdfrwt>
<pdfrwt beam="2">  1       -2 0.12143758E-01 0.37589410E+03</pdfrwt>
<totfact> 0.40503166E+03</totfact>
</mgrwt>
</event>
<event>
 4    1  0.1383574E-004  0.3888343E+03  0.7818608E-02  0.1047716E+00
         -2   -1    0    0    0  501 -0.00000000000E+00  0.00000000000E+00  0.32671555127E+02  0.32671555227E+02  0.25500000000E-02 0. -1.
          2   -1    0    0  501    0  0.00000000000E+00 -0.00000000000E+00 -0.11569092826E+04  0.11569092826E+04  0.25500000000E-02 0.  1.
    5000001    1    1    2    0    0  0.16450488179E+02 -0.12467021270E+03 -0.32800858369E+03  0.37353970535E+03  0.12700000000E+03 0.  0.
   -5000001    1    1    2    0    0 -0.16450488179E+02  0.12467021270E+03 -0.79622914374E+03  0.81604113244E+03  0.12700000000E+03 0.  0.
<mgrwt>
<rscale>  0 0.38883429E+03</rscale>
<asrwt>0</asrwt>
<pdfrwt beam="1">  1        2 0.16527273E+00 0.38883429E+03</pdfrwt>
<pdfrwt beam="2">  1       -2 0.46673657E-02 0.38883429E+03</pdfrwt>
<totfact> 0.51756350E+03</totfact>
</mgrwt>
</event>
<event>
 4    1  0.1383574E-004  0.3291932E+03  0.7818608E-02  0.1071494E+00
         -2   -1    0    0    0  501 -0.00000000000E+00  0.00000000000E+00  0.60609784298E+03  0.60609784299E+03  0.25500000000E-02 0. -1.
          2   -1    0    0  501    0  0.00000000000E+00 -0.00000000000E+00 -0.44699108592E+02  0.44699108664E+02  0.25500000000E-02 0.  1.
    5000001    1    1    2    0    0  0.59534572018E+02  0.32443146052E+02  0.12296301451E+03  0.18932993934E+03  0.12700000000E+03 0.  0.
   -5000001    1    1    2    0    0 -0.59534572018E+02 -0.32443146052E+02  0.43843571988E+03  0.46146701232E+03  0.12700000000E+03 0.  0.
<mgrwt>
<rscale>  0 0.32919316E+03</rscale>
<asrwt>0</asrwt>
<pdfrwt beam="1">  1        2 0.63855873E-02 0.32919316E+03</pdfrwt>
<pdfrwt beam="2">  1       -2 0.86585401E-01 0.32919316E+03</pdfrwt>
<totfact> 0.13654039E+03</totfact>
</mgrwt>
</event>
<event>
 4    1  0.1383574E-004  0.4419934E+03  0.7818608E-02  0.1030137E+00
          2   -1    0    0  501    0  0.00000000000E+00  0.00000000000E+00  0.13124283996E+04  0.13124283996E+04  0.25500000000E-02 0. -1.
         -2   -1    0    0    0  501 -0.00000000000E+00 -0.00000000000E+00 -0.37213108989E+02  0.37213109076E+02  0.25500000000E-02 0.  1.
    5000001    1    1    2    0    0  0.55956735693E+02 -0.17166865657E+03  0.60569023034E+03  0.64466343083E+03  0.12700000000E+03 0.  0.
   -5000001    1    1    2    0    0 -0.55956735693E+02  0.17166865657E+03  0.66952506027E+03  0.70497807785E+03  0.12700000000E+03 0.  0.
<mgrwt>
<rscale>  0 0.44199340E+03</rscale>
<asrwt>0</asrwt>
<pdfrwt beam="1">  1        2 0.18748979E+00 0.44199340E+03</pdfrwt>
<pdfrwt beam="2">  1       -2 0.53161579E-02 0.44199340E+03</pdfrwt>
<totfact> 0.34868477E+03</totfact>
</mgrwt>
</event>
<event>
 4    1  0.1383574E-004  0.5309740E+03  0.7818608E-02  0.1005996E+00
         -2   -1    0    0    0  501 -0.00000000000E+00  0.00000000000E+00  0.11259763424E+03  0.11259763427E+03  0.25500000000E-02 0. -1.
          2   -1    0    0  501    0  0.00000000000E+00 -0.00000000000E+00 -0.62597537641E+03  0.62597537641E+03  0.25500000000E-02 0.  1.
    5000001    1    1    2    0    0  0.20216277834E+03 -0.92315979259E+02 -0.35467451579E+03  0.43739574887E+03  0.12700000000E+03 0.  0.
   -5000001    1    1    2    0    0 -0.20216277834E+03  0.92315979259E+02 -0.15870322637E+03  0.30117726182E+03  0.12700000000E+03 0.  0.
<mgrwt>
<rscale>  0 0.53097400E+03</rscale>
<asrwt>0</asrwt>
<pdfrwt beam="1">  1        2 0.89425051E-01 0.53097400E+03</pdfrwt>
<pdfrwt beam="2">  1       -2 0.16085377E-01 0.53097400E+03</pdfrwt>
<totfact> 0.16024754E+03</totfact>
</mgrwt>
</event>
<event>
 4    1  0.1383574E-004  0.3977772E+03  0.7818608E-02  0.1044552E+00
         -2   -1    0    0    0  501 -0.00000000000E+00  0.00000000000E+00  0.14972718989E+02  0.14972719206E+02  0.25500000000E-02 0. -1.
          2   -1    0    0  501    0  0.00000000000E+00 -0.00000000000E+00 -0.26419163394E+04  0.26419163394E+04  0.25500000000E-02 0.  1.
    5000001    1    1    2    0    0  0.70351791700E+01  0.13782716820E+03 -0.87132930350E+03  0.89128535115E+03  0.12700000000E+03 0.  0.
   -5000001    1    1    2    0    0 -0.70351791700E+01 -0.13782716820E+03 -0.17556143169E+04  0.17656037075E+04  0.12700000000E+03 0.  0.
<mgrwt>
<rscale>  0 0.39777718E+03</rscale>
<asrwt>0</asrwt>
<pdfrwt beam="1">  1        2 0.37741632E+00 0.39777718E+03</pdfrwt>
<pdfrwt beam="2">  1       -2 0.21389616E-02 0.39777718E+03</pdfrwt>
<totfact> 0.29552082E+03</totfact>
</mgrwt>
</event>
<event>
 4    1  0.1383574E-004  0.3744551E+03  0.7818608E-02  0.1053002E+00
          2   -1    0    0  501    0  0.00000000000E+00  0.00000000000E+00  0.10013045295E+03  0.10013045298E+03  0.25500000000E-02 0.  1.
         -2   -1    0    0    0  501 -0.00000000000E+00 -0.00000000000E+00 -0.35008490254E+03  0.35008490255E+03  0.25500000000E-02 0. -1.
    5000001    1    1    2    0    0 -0.71964353207E+01 -0.65041291280E+02 -0.27046804139E+03  0.30588252592E+03  0.12700000000E+03 0.  0.
   -5000001    1    1    2    0    0  0.71964353207E+01  0.65041291280E+02  0.20513591801E+02  0.14433282960E+03  0.12700000000E+03 0.  0.
<mgrwt>
<rscale>  0 0.37445512E+03</rscale>
<asrwt>0</asrwt>
<pdfrwt beam="1">  1        2 0.14304351E-01 0.37445512E+03</pdfrwt>
<pdfrwt beam="2">  1       -2 0.50012128E-01 0.37445512E+03</pdfrwt>
<totfact> 0.15950844E+03</totfact>
</mgrwt>
</event>
<event>
 4    1  0.1383574E-004  0.3800468E+03  0.7818608E-02  0.1050916E+00
          2   -1    0    0  501    0  0.00000000000E+00  0.00000000000E+00  0.65104243439E+03  0.65104243440E+03  0.25500000000E-02 0.  1.
         -2   -1    0    0    0  501 -0.00000000000E+00 -0.00000000000E+00 -0.55463185103E+02  0.55463185161E+02  0.25500000000E-02 0. -1.
    5000001    1    1    2    0    0  0.78025276081E+02 -0.56252907128E+02  0.10524609713E+03  0.19093997546E+03  0.12700000000E+03 0.  0.
   -5000001    1    1    2    0    0 -0.78025276081E+02  0.56252907128E+02  0.49033315216E+03  0.51556564410E+03  0.12700000000E+03 0.  0.
<mgrwt>
<rscale>  0 0.38004677E+03</rscale>
<asrwt>0</asrwt>
<pdfrwt beam="1">  1        2 0.93006061E-01 0.38004677E+03</pdfrwt>
<pdfrwt beam="2">  1       -2 0.79233122E-02 0.38004677E+03</pdfrwt>
<totfact> 0.48314203E+03</totfact>
</mgrwt>
</event>
<event>
 4    1  0.1383574E-004  0.4001440E+03  0.7818608E-02  0.1043730E+00
          2   -1    0    0  501    0  0.00000000000E+00  0.00000000000E+00  0.61881004977E+03  0.61881004978E+03  0.25500000000E-02 0.  1.
         -2   -1    0    0    0  501 -0.00000000000E+00 -0.00000000000E+00 -0.64686731414E+02  0.64686731465E+02  0.25500000000E-02 0. -1.
    5000001    1    1    2    0    0 -0.72766108955E+02  0.24438969874E+02  0.47843790328E+02  0.15591727978E+03  0.12700000000E+03 0.  0.
   -5000001    1    1    2    0    0  0.72766108955E+02 -0.24438969874E+02  0.50627952803E+03  0.52757950146E+03  0.12700000000E+03 0.  0.
<mgrwt>
<rscale>  0 0.40014397E+03</rscale>
<asrwt>0</asrwt>
<pdfrwt beam="1">  1        2 0.88401434E-01 0.40014397E+03</pdfrwt>
<pdfrwt beam="2">  1       -2 0.92409618E-02 0.40014397E+03</pdfrwt>
<totfact> 0.40225557E+03</totfact>
</mgrwt>
</event>
<event>
 4    1  0.1383574E-004  0.5651168E+03  0.7818608E-02  0.9980543E-01
          2   -1    0    0  501    0  0.00000000000E+00  0.00000000000E+00  0.47173506442E+03  0.47173506443E+03  0.25500000000E-02 0.  1.
         -2   -1    0    0    0  501 -0.00000000000E+00 -0.00000000000E+00 -0.16924597358E+03  0.16924597360E+03  0.25500000000E-02 0. -1.
    5000001    1    1    2    0    0 -0.11579424025E+03  0.20963573444E+03  0.24166325880E+03  0.36316054009E+03  0.12700000000E+03 0.  0.
   -5000001    1    1    2    0    0  0.11579424025E+03 -0.20963573444E+03  0.60825832039E+02  0.27782049794E+03  0.12700000000E+03 0.  0.
<mgrwt>
<rscale>  0 0.56511684E+03</rscale>
<asrwt>0</asrwt>
<pdfrwt beam="1">  1        2 0.67390723E-01 0.56511684E+03</pdfrwt>
<pdfrwt beam="2">  1       -2 0.24177996E-01 0.56511684E+03</pdfrwt>
<totfact> 0.10939327E+03</totfact>
</mgrwt>
</event>
<event>
 4    1  0.1383574E-004  0.4976198E+03  0.7818608E-02  0.1014402E+00
          2   -1    0    0  501    0  0.00000000000E+00  0.00000000000E+00  0.89006093785E+03  0.89006093785E+03  0.25500000000E-02 0.  1.
         -2   -1    0    0    0  501 -0.00000000000E+00 -0.00000000000E+00 -0.69552953043E+02  0.69552953090E+02  0.25500000000E-02 0. -1.
    5000001    1    1    2    0    0  0.77780754543E+02 -0.14688211185E+03  0.67007547885E+03  0.70196463437E+03  0.12700000000E+03 0.  0.
   -5000001    1    1    2    0    0 -0.77780754543E+02  0.14688211185E+03  0.15043250596E+03  0.25764925656E+03  0.12700000000E+03 0.  0.
<mgrwt>
<rscale>  0 0.49761980E+03</rscale>
<asrwt>0</asrwt>
<pdfrwt beam="1">  1        2 0.12715156E+00 0.49761980E+03</pdfrwt>
<pdfrwt beam="2">  1       -2 0.99361363E-02 0.49761980E+03</pdfrwt>
<totfact> 0.22891806E+03</totfact>
</mgrwt>
</event>
<event>
 4    1  0.1383574E-004  0.3520449E+03  0.7818608E-02  0.1061779E+00
          2   -1    0    0  501    0  0.00000000000E+00  0.00000000000E+00  0.12193459065E+03  0.12193459068E+03  0.25500000000E-02 0.  1.
         -2   -1    0    0    0  501 -0.00000000000E+00 -0.00000000000E+00 -0.25410264167E+03  0.25410264169E+03  0.25500000000E-02 0. -1.
    5000001    1    1    2    0    0  0.72148861085E+02  0.86219348220E+02 -0.11636284675E+03  0.20569041365E+03  0.12700000000E+03 0.  0.
   -5000001    1    1    2    0    0 -0.72148861085E+02 -0.86219348220E+02 -0.15805204275E+02  0.17034681871E+03  0.12700000000E+03 0.  0.
<mgrwt>
<rscale>  0 0.35204489E+03</rscale>
<asrwt>0</asrwt>
<pdfrwt beam="1">  1        2 0.17419227E-01 0.35204489E+03</pdfrwt>
<pdfrwt beam="2">  1       -2 0.36300377E-01 0.35204489E+03</pdfrwt>
<totfact> 0.23518402E+03</totfact>
</mgrwt>
</event>
<event>
 4    1  0.1383574E-004  0.4878443E+03  0.7818608E-02  0.1017001E+00
          2   -1    0    0  501    0  0.00000000000E+00  0.00000000000E+00  0.16264696222E+03  0.16264696224E+03  0.25500000000E-02 0.  1.
         -2   -1    0    0    0  501 -0.00000000000E+00 -0.00000000000E+00 -0.36581074552E+03  0.36581074553E+03  0.25500000000E-02 0. -1.
    5000001    1    1    2    0    0  0.16314743001E+03 -0.28916074579E+02  0.35078619637E+02  0.21169018126E+03  0.12700000000E+03 0.  0.
   -5000001    1    1    2    0    0 -0.16314743001E+03  0.28916074579E+02 -0.23824240294E+03  0.31676752651E+03  0.12700000000E+03 0.  0.
<mgrwt>
<rscale>  0 0.48784426E+03</rscale>
<asrwt>0</asrwt>
<pdfrwt beam="1">  1        2 0.23235280E-01 0.48784426E+03</pdfrwt>
<pdfrwt beam="2">  1       -2 0.52258678E-01 0.48784426E+03</pdfrwt>
<totfact> 0.82750900E+02</totfact>
</mgrwt>
</event>
<event>
 4    1  0.1383574E-004  0.4488492E+03  0.7818608E-02  0.1028066E+00
         -2   -1    0    0    0  501 -0.00000000000E+00  0.00000000000E+00  0.10087411132E+03  0.10087411135E+03  0.25500000000E-02 0. -1.
          2   -1    0    0  501    0  0.00000000000E+00 -0.00000000000E+00 -0.49929962088E+03  0.49929962089E+03  0.25500000000E-02 0.  1.
    5000001    1    1    2    0    0 -0.44940975512E+02  0.14612027387E+03 -0.33859997160E+03  0.39261911121E+03  0.12700000000E+03 0.  0.
   -5000001    1    1    2    0    0  0.44940975512E+02 -0.14612027387E+03 -0.59825537960E+02  0.20755462103E+03  0.12700000000E+03 0.  0.
<mgrwt>
<rscale>  0 0.44884922E+03</rscale>
<asrwt>0</asrwt>
<pdfrwt beam="1">  1        2 0.71328516E-01 0.44884922E+03</pdfrwt>
<pdfrwt beam="2">  1       -2 0.14410588E-01 0.44884922E+03</pdfrwt>
<totfact> 0.24988664E+03</totfact>
</mgrwt>
</event>
<event>
 4    1  0.1383574E-004  0.4527695E+03  0.7818608E-02  0.1026899E+00
         -2   -1    0    0    0  501 -0.00000000000E+00  0.00000000000E+00  0.45494899943E+02  0.45494900014E+02  0.25500000000E-02 0. -1.
          2   -1    0    0  501    0  0.00000000000E+00 -0.00000000000E+00 -0.11265009183E+04  0.11265009183E+04  0.25500000000E-02 0.  1.
    5000001    1    1    2    0    0 -0.17274903404E+03 -0.22803667559E+02 -0.71906875158E+03  0.75070040996E+03  0.12700000000E+03 0.  0.
   -5000001    1    1    2    0    0  0.17274903404E+03  0.22803667559E+02 -0.36193726676E+03  0.42129540834E+03  0.12700000000E+03 0.  0.
<mgrwt>
<rscale>  0 0.45276946E+03</rscale>
<asrwt>0</asrwt>
<pdfrwt beam="1">  1        2 0.16092869E+00 0.45276946E+03</pdfrwt>
<pdfrwt beam="2">  1       -2 0.64992721E-02 0.45276946E+03</pdfrwt>
<totfact> 0.32314342E+03</totfact>
</mgrwt>
</event>
<event>
 4    1  0.1383574E-004  0.1004459E+04  0.7818608E-02  0.9303667E-01
         -2   -1    0    0    0  501 -0.00000000000E+00  0.00000000000E+00  0.67051960329E+02  0.67051960377E+02  0.25500000000E-02 0. -1.
          2   -1    0    0  501    0  0.00000000000E+00 -0.00000000000E+00 -0.37617783126E+04  0.37617783126E+04  0.25500000000E-02 0.  1.
    5000001    1    1    2    0    0  0.17731168464E+02  0.48277350771E+03 -0.16485273879E+04  0.17225435271E+04  0.12700000000E+03 0.  0.
   -5000001    1    1    2    0    0 -0.17731168464E+02 -0.48277350771E+03 -0.20461989644E+04  0.21062867459E+04  0.12700000000E+03 0.  0.
<mgrwt>
<rscale>  0 0.10044593E+04</rscale>
<asrwt>0</asrwt>
<pdfrwt beam="1">  1        2 0.53739677E+00 0.10044593E+04</pdfrwt>
<pdfrwt beam="2">  1       -2 0.95788538E-02 0.10044593E+04</pdfrwt>
<totfact> 0.63016817E+01</totfact>
</mgrwt>
</event>
<event>
 4    1  0.1383574E-004  0.3224537E+03  0.7818608E-02  0.1074526E+00
         -2   -1    0    0    0  501 -0.00000000000E+00  0.00000000000E+00  0.12009471201E+02  0.12009471471E+02  0.25500000000E-02 0.  1.
          2   -1    0    0  501    0  0.00000000000E+00 -0.00000000000E+00 -0.21644666112E+04  0.21644666112E+04  0.25500000000E-02 0. -1.
    5000001    1    1    2    0    0 -0.70656056001E+02 -0.31126586643E+02 -0.14979629733E+04  0.15053183092E+04  0.12700000000E+03 0.  0.
   -5000001    1    1    2    0    0  0.70656056001E+02  0.31126586643E+02 -0.65449416673E+03  0.67115777350E+03  0.12700000000E+03 0.  0.
<mgrwt>
<rscale>  0 0.32245372E+03</rscale>
<asrwt>0</asrwt>
<pdfrwt beam="1">  1        2 0.30920927E+00 0.32245372E+03</pdfrwt>
<pdfrwt beam="2">  1       -2 0.17156401E-02 0.32245372E+03</pdfrwt>
<totfact> 0.71207286E+03</totfact>
</mgrwt>
</event>
<event>
 4    1  0.1383574E-004  0.3646357E+03  0.7818608E-02  0.1056763E+00
          2   -1    0    0  501    0  0.00000000000E+00  0.00000000000E+00  0.26910093959E+04  0.26910093959E+04  0.25500000000E-02 0.  1.
         -2   -1    0    0    0  501 -0.00000000000E+00 -0.00000000000E+00 -0.12352167568E+02  0.12352167831E+02  0.25500000000E-02 0. -1.
    5000001    1    1    2    0    0 -0.33996294612E+02  0.77404341175E+02  0.20793657338E+04  0.20849551638E+04  0.12700000000E+03 0.  0.
   -5000001    1    1    2    0    0  0.33996294612E+02 -0.77404341175E+02  0.59929149450E+03  0.61840639992E+03  0.12700000000E+03 0.  0.
<mgrwt>
<rscale>  0 0.36463571E+03</rscale>
<asrwt>0</asrwt>
<pdfrwt beam="1">  1        2 0.38442950E+00 0.36463571E+03</pdfrwt>
<pdfrwt beam="2">  1       -2 0.17645973E-02 0.36463571E+03</pdfrwt>
<totfact> 0.37171507E+03</totfact>
</mgrwt>
</event>
<event>
 4    1  0.1383574E-004  0.6450165E+03  0.7818608E-02  0.9816176E-01
         -2   -1    0    0    0  501 -0.00000000000E+00  0.00000000000E+00  0.12126896647E+03  0.12126896649E+03  0.25500000000E-02 0. -1.
          2   -1    0    0  501    0  0.00000000000E+00 -0.00000000000E+00 -0.85769325688E+03  0.85769325689E+03  0.25500000000E-02 0.  1.
    5000001    1    1    2    0    0 -0.17134207952E+03  0.20713451416E+03 -0.17852745694E+03  0.34679081310E+03  0.12700000000E+03 0.  0.
   -5000001    1    1    2    0    0  0.17134207952E+03 -0.20713451416E+03 -0.55789683348E+03  0.63217141028E+03  0.12700000000E+03 0.  0.
<mgrwt>
<rscale>  0 0.64501651E+03</rscale>
<asrwt>0</asrwt>
<pdfrwt beam="1">  1        2 0.12252761E+00 0.64501651E+03</pdfrwt>
<pdfrwt beam="2">  1       -2 0.17324138E-01 0.64501651E+03</pdfrwt>
<totfact> 0.95352922E+02</totfact>
</mgrwt>
</event>
<event>
 4    1  0.1383574E-004  0.4478917E+03  0.7818608E-02  0.1028353E+00
          2   -1    0    0  501    0  0.00000000000E+00  0.00000000000E+00  0.70814722883E+03  0.70814722884E+03  0.25500000000E-02 0.  1.
         -2   -1    0    0    0  501 -0.00000000000E+00 -0.00000000000E+00 -0.70821084109E+02  0.70821084155E+02  0.25500000000E-02 0. -1.
    5000001    1    1    2    0    0 -0.59679131009E+02 -0.45491457551E+01  0.15223411830E+02  0.14121984872E+03  0.12700000000E+03 0.  0.
   -5000001    1    1    2    0    0  0.59679131009E+02  0.45491457551E+01  0.62210273289E+03  0.63774846427E+03  0.12700000000E+03 0.  0.
<mgrwt>
<rscale>  0 0.44789175E+03</rscale>
<asrwt>0</asrwt>
<pdfrwt beam="1">  1        2 0.10116389E+00 0.44789175E+03</pdfrwt>
<pdfrwt beam="2">  1       -2 0.10117298E-01 0.44789175E+03</pdfrwt>
<totfact> 0.29673356E+03</totfact>
</mgrwt>
</event>
<event>
 4    1  0.1383574E-004  0.4021017E+03  0.7818608E-02  0.1043054E+00
          2   -1    0    0  501    0  0.00000000000E+00  0.00000000000E+00  0.14328652618E+04  0.14328652619E+04  0.25500000000E-02 0.  1.
         -2   -1    0    0    0  501 -0.00000000000E+00 -0.00000000000E+00 -0.28210221076E+02  0.28210221192E+02  0.25500000000E-02 0. -1.
    5000001    1    1    2    0    0 -0.14683703862E+03  0.19135030965E+02  0.52561436282E+03  0.56064848499E+03  0.12700000000E+03 0.  0.
   -5000001    1    1    2    0    0  0.14683703862E+03 -0.19135030965E+02  0.87904067795E+03  0.90042699805E+03  0.12700000000E+03 0.  0.
<mgrwt>
<rscale>  0 0.40210171E+03</rscale>
<asrwt>0</asrwt>
<pdfrwt beam="1">  1        2 0.20469508E+00 0.40210171E+03</pdfrwt>
<pdfrwt beam="2">  1       -2 0.40300308E-02 0.40210171E+03</pdfrwt>
<totfact> 0.46044634E+03</totfact>
</mgrwt>
</event>
<event>
 4    1  0.1383574E-004  0.3018554E+03  0.7818608E-02  0.1084317E+00
          2   -1    0    0  501    0  0.00000000000E+00  0.00000000000E+00  0.11316591776E+04  0.11316591776E+04  0.25500000000E-02 0. -1.
         -2   -1    0    0    0  501 -0.00000000000E+00 -0.00000000000E+00 -0.20128997223E+02  0.20128997384E+02  0.25500000000E-02 0.  1.
    5000001    1    1    2    0    0 -0.17880595705E+02 -0.47111436213E+02  0.31111497522E+03  0.33979513082E+03  0.12700000000E+03 0.  0.
   -5000001    1    1    2    0    0  0.17880595705E+02  0.47111436213E+02  0.80041520517E+03  0.81199304418E+03  0.12700000000E+03 0.  0.
<mgrwt>
<rscale>  0 0.30185536E+03</rscale>
<asrwt>0</asrwt>
<pdfrwt beam="1">  1        2 0.16166562E+00 0.30185536E+03</pdfrwt>
<pdfrwt beam="2">  1       -2 0.28755707E-02 0.30185536E+03</pdfrwt>
<totfact> 0.11047253E+04</totfact>
</mgrwt>
</event>
<event>
 4    1  0.1383574E-004  0.2577693E+03  0.7818608E-02  0.1108491E+00
         -2   -1    0    0    0  501 -0.00000000000E+00  0.00000000000E+00  0.15910846741E+03  0.15910846743E+03  0.25500000000E-02 0. -1.
          2   -1    0    0  501    0  0.00000000000E+00 -0.00000000000E+00 -0.10440202795E+03  0.10440202799E+03  0.25500000000E-02 0.  1.
    5000001    1    1    2    0    0 -0.19253595752E+02 -0.10077422224E+02  0.24121918935E+02  0.13108440930E+03  0.12700000000E+03 0.  0.
   -5000001    1    1    2    0    0  0.19253595752E+02  0.10077422224E+02  0.30584520517E+02  0.13242608611E+03  0.12700000000E+03 0.  0.
<mgrwt>
<rscale>  0 0.25776925E+03</rscale>
<asrwt>0</asrwt>
<pdfrwt beam="1">  1        2 0.14914575E-01 0.25776925E+03</pdfrwt>
<pdfrwt beam="2">  1       -2 0.22729781E-01 0.25776925E+03</pdfrwt>
<totfact> 0.65235065E+03</totfact>
</mgrwt>
</event>
<event>
 4    1  0.1383574E-004  0.4024325E+03  0.7818608E-02  0.1042941E+00
         -2   -1    0    0    0  501 -0.00000000000E+00  0.00000000000E+00  0.49554692773E+02  0.49554692839E+02  0.25500000000E-02 0. -1.
          2   -1    0    0  501    0  0.00000000000E+00 -0.00000000000E+00 -0.81703605138E+03  0.81703605138E+03  0.25500000000E-02 0.  1.
    5000001    1    1    2    0    0 -0.52558029581E+02  0.77548964586E+02 -0.11493183972E+03  0.19522939370E+03  0.12700000000E+03 0.  0.
   -5000001    1    1    2    0    0  0.52558029581E+02 -0.77548964586E+02 -0.65254951889E+03  0.67136135053E+03  0.12700000000E+03 0.  0.
<mgrwt>
<rscale>  0 0.40243246E+03</rscale>
<asrwt>0</asrwt>
<pdfrwt beam="1">  1        2 0.11671943E+00 0.40243246E+03</pdfrwt>
<pdfrwt beam="2">  1       -2 0.70792423E-02 0.40243246E+03</pdfrwt>
<totfact> 0.43748337E+03</totfact>
</mgrwt>
</event>
<event>
 4    1  0.1383574E-004  0.4111386E+03  0.7818608E-02  0.1039990E+00
         -2   -1    0    0    0  501 -0.00000000000E+00  0.00000000000E+00  0.32691592977E+02  0.32691593076E+02  0.25500000000E-02 0. -1.
          2   -1    0    0  501    0  0.00000000000E+00 -0.00000000000E+00 -0.12926485500E+04  0.12926485500E+04  0.25500000000E-02 0.  1.
    5000001    1    1    2    0    0  0.67717624814E+02  0.12777933451E+03 -0.39715385510E+03  0.44133141703E+03  0.12700000000E+03 0.  0.
   -5000001    1    1    2    0    0 -0.67717624814E+02 -0.12777933451E+03 -0.86280310192E+03  0.88400872605E+03  0.12700000000E+03 0.  0.
<mgrwt>
<rscale>  0 0.41113862E+03</rscale>
<asrwt>0</asrwt>
<pdfrwt beam="1">  1        2 0.18466405E+00 0.41113862E+03</pdfrwt>
<pdfrwt beam="2">  1       -2 0.46702284E-02 0.41113862E+03</pdfrwt>
<totfact> 0.43598531E+03</totfact>
</mgrwt>
</event>
<event>
 4    1  0.1383574E-004  0.3611834E+03  0.7818608E-02  0.1058116E+00
         -2   -1    0    0    0  501 -0.00000000000E+00  0.00000000000E+00  0.53622308417E+02  0.53622308478E+02  0.25500000000E-02 0. -1.
          2   -1    0    0  501    0  0.00000000000E+00 -0.00000000000E+00 -0.60820514499E+03  0.60820514500E+03  0.25500000000E-02 0.  1.
    5000001    1    1    2    0    0 -0.69824686397E+02 -0.10751994520E+03 -0.26455159797E+03  0.32023830726E+03  0.12700000000E+03 0.  0.
   -5000001    1    1    2    0    0  0.69824686397E+02  0.10751994520E+03 -0.29003123861E+03  0.34158914622E+03  0.12700000000E+03 0.  0.
<mgrwt>
<rscale>  0 0.36118341E+03</rscale>
<asrwt>0</asrwt>
<pdfrwt beam="1">  1        2 0.86886446E-01 0.36118341E+03</pdfrwt>
<pdfrwt beam="2">  1       -2 0.76603301E-02 0.36118341E+03</pdfrwt>
<totfact> 0.55102800E+03</totfact>
</mgrwt>
</event>
<event>
 4    1  0.1383574E-004  0.3807830E+03  0.7818608E-02  0.1050645E+00
          2   -1    0    0  501    0  0.00000000000E+00  0.00000000000E+00  0.56779012290E+03  0.56779012291E+03  0.25500000000E-02 0.  1.
         -2   -1    0    0    0  501 -0.00000000000E+00 -0.00000000000E+00 -0.63842127468E+02  0.63842127519E+02  0.25500000000E-02 0. -1.
    5000001    1    1    2    0    0  0.12504622371E+03  0.90976992208E+01  0.36201202978E+03  0.40361000471E+03  0.12700000000E+03 0.  0.
   -5000001    1    1    2    0    0 -0.12504622371E+03 -0.90976992208E+01  0.14193596565E+03  0.22802224572E+03  0.12700000000E+03 0.  0.
<mgrwt>
<rscale>  0 0.38078303E+03</rscale>
<asrwt>0</asrwt>
<pdfrwt beam="1">  1        2 0.81112873E-01 0.38078303E+03</pdfrwt>
<pdfrwt beam="2">  1       -2 0.91203041E-02 0.38078303E+03</pdfrwt>
<totfact> 0.45326611E+03</totfact>
</mgrwt>
</event>
<event>
 4    1  0.1383574E-004  0.1012216E+04  0.7818608E-02  0.9295248E-01
          2   -1    0    0  501    0  0.00000000000E+00  0.00000000000E+00  0.11748309478E+04  0.11748309478E+04  0.25500000000E-02 0. -1.
         -2   -1    0    0    0  501 -0.00000000000E+00 -0.00000000000E+00 -0.21802717433E+03  0.21802717435E+03  0.25500000000E-02 0.  1.
    5000001    1    1    2    0    0 -0.40635995649E+03 -0.42137639047E+02  0.10632864002E+03  0.44083871716E+03  0.12700000000E+03 0.  0.
   -5000001    1    1    2    0    0  0.40635995649E+03  0.42137639047E+02  0.85047513344E+03  0.95201940499E+03  0.12700000000E+03 0.  0.
<mgrwt>
<rscale>  0 0.10122155E+04</rscale>
<asrwt>0</asrwt>
<pdfrwt beam="1">  1        2 0.16783299E+00 0.10122155E+04</pdfrwt>
<pdfrwt beam="2">  1       -2 0.31146739E-01 0.10122155E+04</pdfrwt>
<totfact> 0.21015076E+02</totfact>
</mgrwt>
</event>
<event>
 4    1  0.1383574E-004  0.4690670E+03  0.7818608E-02  0.1022184E+00
         -2   -1    0    0    0  501 -0.00000000000E+00  0.00000000000E+00  0.41252426375E+03  0.41252426376E+03  0.25500000000E-02 0. -1.
          2   -1    0    0  501    0  0.00000000000E+00 -0.00000000000E+00 -0.13333994119E+03  0.13333994122E+03  0.25500000000E-02 0.  1.
    5000001    1    1    2    0    0  0.18760210041E+03 -0.53576460680E+02  0.17275267888E+03  0.28989217526E+03  0.12700000000E+03 0.  0.
   -5000001    1    1    2    0    0 -0.18760210041E+03  0.53576460680E+02  0.10643164368E+03  0.25597202971E+03  0.12700000000E+03 0.  0.
<mgrwt>
<rscale>  0 0.46906699E+03</rscale>
<asrwt>0</asrwt>
<pdfrwt beam="1">  1        2 0.19048563E-01 0.46906699E+03</pdfrwt>
<pdfrwt beam="2">  1       -2 0.58932037E-01 0.46906699E+03</pdfrwt>
<totfact> 0.81295113E+02</totfact>
</mgrwt>
</event>
<event>
 4    1  0.1383574E-004  0.5533135E+03  0.7818608E-02  0.1000730E+00
         -2   -1    0    0    0  501 -0.00000000000E+00  0.00000000000E+00  0.23431110126E+03  0.23431110127E+03  0.25500000000E-02 0. -1.
          2   -1    0    0  501    0  0.00000000000E+00 -0.00000000000E+00 -0.32665524207E+03  0.32665524208E+03  0.25500000000E-02 0.  1.
    5000001    1    1    2    0    0 -0.80082389817E+01 -0.24518560391E+03 -0.61542137817E+02  0.28301333358E+03  0.12700000000E+03 0.  0.
   -5000001    1    1    2    0    0  0.80082389817E+01  0.24518560391E+03 -0.30802003000E+02  0.27795300978E+03  0.12700000000E+03 0.  0.
<mgrwt>
<rscale>  0 0.55331347E+03</rscale>
<asrwt>0</asrwt>
<pdfrwt beam="1">  1        2 0.46665035E-01 0.55331347E+03</pdfrwt>
<pdfrwt beam="2">  1       -2 0.33473014E-01 0.55331347E+03</pdfrwt>
<totfact> 0.90722625E+02</totfact>
</mgrwt>
</event>
<event>
 4    1  0.1383574E-004  0.3133595E+03  0.7818608E-02  0.1078747E+00
         -2   -1    0    0    0  501 -0.00000000000E+00  0.00000000000E+00  0.42980903530E+02  0.42980903605E+02  0.25500000000E-02 0. -1.
          2   -1    0    0  501    0  0.00000000000E+00 -0.00000000000E+00 -0.57115017937E+03  0.57115017937E+03  0.25500000000E-02 0.  1.
    5000001    1    1    2    0    0  0.78426159191E+02 -0.17279031660E+02 -0.35107815951E+03  0.38188231363E+03  0.12700000000E+03 0.  0.
   -5000001    1    1    2    0    0 -0.78426159191E+02  0.17279031660E+02 -0.17709111633E+03  0.23224876935E+03  0.12700000000E+03 0.  0.
<mgrwt>
<rscale>  0 0.31335954E+03</rscale>
<asrwt>0</asrwt>
<pdfrwt beam="1">  1        2 0.81592878E-01 0.31335954E+03</pdfrwt>
<pdfrwt beam="2">  1       -2 0.61401294E-02 0.31335954E+03</pdfrwt>
<totfact> 0.83204231E+03</totfact>
</mgrwt>
</event>
<event>
 4    1  0.1383574E-004  0.3400275E+03  0.7818608E-02  0.1066784E+00
          2   -1    0    0  501    0  0.00000000000E+00  0.00000000000E+00  0.13774340680E+04  0.13774340680E+04  0.25500000000E-02 0.  1.
         -2   -1    0    0    0  501 -0.00000000000E+00 -0.00000000000E+00 -0.20984435323E+02  0.20984435478E+02  0.25500000000E-02 0. -1.
    5000001    1    1    2    0    0 -0.50121811815E+02 -0.69221903234E+02  0.37400426493E+03  0.40411886630E+03  0.12700000000E+03 0.  0.
   -5000001    1    1    2    0    0  0.50121811815E+02  0.69221903234E+02  0.98244536774E+03  0.99429963718E+03  0.12700000000E+03 0.  0.
<mgrwt>
<rscale>  0 0.34002751E+03</rscale>
<asrwt>0</asrwt>
<pdfrwt beam="1">  1        2 0.19677631E+00 0.34002751E+03</pdfrwt>
<pdfrwt beam="2">  1       -2 0.29977763E-02 0.34002751E+03</pdfrwt>
<totfact> 0.76770321E+03</totfact>
</mgrwt>
</event>
<event>
 4    1  0.1383574E-004  0.3690487E+03  0.7818608E-02  0.1055057E+00
         -2   -1    0    0    0  501 -0.00000000000E+00  0.00000000000E+00  0.39686189133E+02  0.39686189215E+02  0.25500000000E-02 0. -1.
          2   -1    0    0  501    0  0.00000000000E+00 -0.00000000000E+00 -0.85796165809E+03  0.85796165809E+03  0.25500000000E-02 0.  1.
    5000001    1    1    2    0    0 -0.97154169595E+02 -0.90612882309E+02 -0.36912598811E+03  0.41235012090E+03  0.12700000000E+03 0.  0.
   -5000001    1    1    2    0    0  0.97154169595E+02  0.90612882309E+02 -0.44914948085E+03  0.48529772641E+03  0.12700000000E+03 0.  0.
<mgrwt>
<rscale>  0 0.36904866E+03</rscale>
<asrwt>0</asrwt>
<pdfrwt beam="1">  1        2 0.12256594E+00 0.36904866E+03</pdfrwt>
<pdfrwt beam="2">  1       -2 0.56694561E-02 0.36904866E+03</pdfrwt>
<totfact> 0.57946073E+03</totfact>
</mgrwt>
</event>
<event>
 4    1  0.1383574E-004  0.5247293E+03  0.7818608E-02  0.1007518E+00
         -2   -1    0    0    0  501 -0.00000000000E+00  0.00000000000E+00  0.48729237295E+02  0.48729237362E+02  0.25500000000E-02 0. -1.
          2   -1    0    0  501    0  0.00000000000E+00 -0.00000000000E+00 -0.14126059589E+04  0.14126059589E+04  0.25500000000E-02 0.  1.
    5000001    1    1    2    0    0  0.20137200274E+03  0.68319112088E+02 -0.44094881127E+03  0.50574997650E+03  0.12700000000E+03 0.  0.
   -5000001    1    1    2    0    0 -0.20137200274E+03 -0.68319112088E+02 -0.92292791036E+03  0.95558521980E+03  0.12700000000E+03 0.  0.
<mgrwt>
<rscale>  0 0.52472931E+03</rscale>
<asrwt>0</asrwt>
<pdfrwt beam="1">  1        2 0.20180083E+00 0.52472931E+03</pdfrwt>
<pdfrwt beam="2">  1       -2 0.69613205E-02 0.52472931E+03</pdfrwt>
<totfact> 0.20242497E+03</totfact>
</mgrwt>
</event>
<event>
 4    1  0.1383574E-004  0.4542563E+03  0.7818608E-02  0.1026460E+00
          2   -1    0    0  501    0  0.00000000000E+00  0.00000000000E+00  0.39470361669E+03  0.39470361670E+03  0.25500000000E-02 0.  1.
         -2   -1    0    0    0  501 -0.00000000000E+00 -0.00000000000E+00 -0.13069856743E+03  0.13069856745E+03  0.25500000000E-02 0. -1.
    5000001    1    1    2    0    0 -0.10216977725E+03  0.20570652300E+02 -0.49392983097E+02  0.17155314599E+03  0.12700000000E+03 0.  0.
   -5000001    1    1    2    0    0  0.10216977725E+03 -0.20570652300E+02  0.31339803236E+03  0.35384903816E+03  0.12700000000E+03 0.  0.
<mgrwt>
<rscale>  0 0.45425630E+03</rscale>
<asrwt>0</asrwt>
<pdfrwt beam="1">  1        2 0.56386230E-01 0.45425630E+03</pdfrwt>
<pdfrwt beam="2">  1       -2 0.18671224E-01 0.45425630E+03</pdfrwt>
<totfact> 0.20952258E+03</totfact>
</mgrwt>
</event>
<event>
 4    1  0.1383574E-004  0.3191149E+03  0.7818608E-02  0.1076057E+00
          2   -1    0    0  501    0  0.00000000000E+00  0.00000000000E+00  0.29405229148E+03  0.29405229149E+03  0.25500000000E-02 0.  1.
         -2   -1    0    0    0  501 -0.00000000000E+00 -0.00000000000E+00 -0.86578407270E+02  0.86578407308E+02  0.25500000000E-02 0. -1.
    5000001    1    1    2    0    0  0.42015980435E+02  0.77726926992E+02  0.15028190060E+03  0.21568603905E+03  0.12700000000E+03 0.  0.
   -5000001    1    1    2    0    0 -0.42015980435E+02 -0.77726926992E+02  0.57191983608E+02  0.16494465975E+03  0.12700000000E+03 0.  0.
<mgrwt>
<rscale>  0 0.31911490E+03</rscale>
<asrwt>0</asrwt>
<pdfrwt beam="1">  1        2 0.42007471E-01 0.31911490E+03</pdfrwt>
<pdfrwt beam="2">  1       -2 0.12368344E-01 0.31911490E+03</pdfrwt>
<totfact> 0.57003575E+03</totfact>
</mgrwt>
</event>
<event>
 4    1  0.1383574E-004  0.6846828E+03  0.7818608E-02  0.9743791E-01
         -2   -1    0    0    0  501 -0.00000000000E+00  0.00000000000E+00  0.40187157109E+03  0.40187157110E+03  0.25500000000E-02 0. -1.
          2   -1    0    0  501    0  0.00000000000E+00 -0.00000000000E+00 -0.29162955805E+03  0.29162955806E+03  0.25500000000E-02 0.  1.
    5000001    1    1    2    0    0 -0.12175962371E+03  0.26476643617E+03 -0.73566343418E+02  0.32629385310E+03  0.12700000000E+03 0.  0.
   -5000001    1    1    2    0    0  0.12175962371E+03 -0.26476643617E+03  0.18380835646E+03  0.36720727606E+03  0.12700000000E+03 0.  0.
<mgrwt>
<rscale>  0 0.68468278E+03</rscale>
<asrwt>0</asrwt>
<pdfrwt beam="1">  1        2 0.41661366E-01 0.68468278E+03</pdfrwt>
<pdfrwt beam="2">  1       -2 0.57410224E-01 0.68468278E+03</pdfrwt>
<totfact> 0.35292769E+02</totfact>
</mgrwt>
</event>
<event>
 4    1  0.1383574E-004  0.3889894E+03  0.7818608E-02  0.1047660E+00
         -2   -1    0    0    0  501 -0.00000000000E+00  0.00000000000E+00  0.12788599868E+03  0.12788599870E+03  0.25500000000E-02 0. -1.
          2   -1    0    0  501    0  0.00000000000E+00 -0.00000000000E+00 -0.29579617198E+03  0.29579617199E+03  0.25500000000E-02 0.  1.
    5000001    1    1    2    0    0  0.55786292854E+02  0.11220632955E+03  0.39059510427E+00  0.17841391040E+03  0.12700000000E+03 0.  0.
   -5000001    1    1    2    0    0 -0.55786292854E+02 -0.11220632955E+03 -0.16830076841E+03  0.24526826029E+03  0.12700000000E+03 0.  0.
<mgrwt>
<rscale>  0 0.38898940E+03</rscale>
<asrwt>0</asrwt>
<pdfrwt beam="1">  1        2 0.42256596E-01 0.38898940E+03</pdfrwt>
<pdfrwt beam="2">  1       -2 0.18269428E-01 0.38898940E+03</pdfrwt>
<totfact> 0.29745730E+03</totfact>
</mgrwt>
</event>
<event>
 4    1  0.1383574E-004  0.3427625E+03  0.7818608E-02  0.1065625E+00
          2   -1    0    0  501    0  0.00000000000E+00  0.00000000000E+00  0.13074512061E+03  0.13074512064E+03  0.25500000000E-02 0.  1.
         -2   -1    0    0    0  501 -0.00000000000E+00 -0.00000000000E+00 -0.22464722206E+03  0.22464722208E+03  0.25500000000E-02 0. -1.
    5000001    1    1    2    0    0 -0.98166738130E+02 -0.52656820467E+02 -0.76877684948E+02  0.18560341500E+03  0.12700000000E+03 0.  0.
   -5000001    1    1    2    0    0  0.98166738130E+02  0.52656820467E+02 -0.17024416502E+02  0.16978892771E+03  0.12700000000E+03 0.  0.
<mgrwt>
<rscale>  0 0.34276247E+03</rscale>
<asrwt>0</asrwt>
<pdfrwt beam="1">  1        2 0.18677874E-01 0.34276247E+03</pdfrwt>
<pdfrwt beam="2">  1       -2 0.32092460E-01 0.34276247E+03</pdfrwt>
<totfact> 0.27266543E+03</totfact>
</mgrwt>
</event>
<event>
 4    1  0.1383574E-004  0.4320635E+03  0.7818608E-02  0.1033210E+00
         -2   -1    0    0    0  501 -0.00000000000E+00  0.00000000000E+00  0.59283308867E+03  0.59283308867E+03  0.25500000000E-02 0. -1.
          2   -1    0    0  501    0  0.00000000000E+00 -0.00000000000E+00 -0.78723180944E+02  0.78723180985E+02  0.25500000000E-02 0.  1.
    5000001    1    1    2    0    0  0.16539842150E+03 -0.47096129785E+02  0.30536402272E+03  0.37276114289E+03  0.12700000000E+03 0.  0.
   -5000001    1    1    2    0    0 -0.16539842150E+03  0.47096129785E+02  0.20874588500E+03  0.29879512677E+03  0.12700000000E+03 0.  0.
<mgrwt>
<rscale>  0 0.43206345E+03</rscale>
<asrwt>0</asrwt>
<pdfrwt beam="1">  1        2 0.11246169E-01 0.43206345E+03</pdfrwt>
<pdfrwt beam="2">  1       -2 0.84690441E-01 0.43206345E+03</pdfrwt>
<totfact> 0.69945663E+02</totfact>
</mgrwt>
</event>
<event>
 4    1  0.1383574E-004  0.2776872E+03  0.7818608E-02  0.1096959E+00
          2   -1    0    0  501    0  0.00000000000E+00  0.00000000000E+00  0.54614891707E+03  0.54614891707E+03  0.25500000000E-02 0. -1.
         -2   -1    0    0    0  501 -0.00000000000E+00 -0.00000000000E+00 -0.35297239244E+02  0.35297239336E+02  0.25500000000E-02 0.  1.
    5000001    1    1    2    0    0 -0.42432122291E+02 -0.32171419070E+02  0.29247428808E+03  0.32327340502E+03  0.12700000000E+03 0.  0.
   -5000001    1    1    2    0    0  0.42432122291E+02  0.32171419070E+02  0.21837738974E+03  0.25817275139E+03  0.12700000000E+03 0.  0.
<mgrwt>
<rscale>  0 0.27768723E+03</rscale>
<asrwt>0</asrwt>
<pdfrwt beam="1">  1        2 0.78021269E-01 0.27768723E+03</pdfrwt>
<pdfrwt beam="2">  1       -2 0.50424630E-02 0.27768723E+03</pdfrwt>
<totfact> 0.11778437E+04</totfact>
</mgrwt>
</event>
<event>
 4    1  0.1383574E-004  0.4713015E+03  0.7818608E-02  0.1021554E+00
         -2   -1    0    0    0  501 -0.00000000000E+00  0.00000000000E+00  0.12027882445E+03  0.12027882448E+03  0.25500000000E-02 0. -1.
          2   -1    0    0  501    0  0.00000000000E+00 -0.00000000000E+00 -0.46168784517E+03  0.46168784518E+03  0.25500000000E-02 0.  1.
    5000001    1    1    2    0    0  0.15901538615E+03  0.11746357236E+03 -0.14866094833E+03  0.27805154454E+03  0.12700000000E+03 0.  0.
   -5000001    1    1    2    0    0 -0.15901538615E+03 -0.11746357236E+03 -0.19274807239E+03  0.30391512511E+03  0.12700000000E+03 0.  0.
<mgrwt>
<rscale>  0 0.47130148E+03</rscale>
<asrwt>0</asrwt>
<pdfrwt beam="1">  1        2 0.65955406E-01 0.47130148E+03</pdfrwt>
<pdfrwt beam="2">  1       -2 0.17182689E-01 0.47130148E+03</pdfrwt>
<totfact> 0.20302794E+03</totfact>
</mgrwt>
</event>
<event>
 4    1  0.1383574E-004  0.6604451E+03  0.7818608E-02  0.9787375E-01
          2   -1    0    0  501    0  0.00000000000E+00  0.00000000000E+00  0.18251503738E+04  0.18251503738E+04  0.25500000000E-02 0.  1.
         -2   -1    0    0    0  501 -0.00000000000E+00 -0.00000000000E+00 -0.59746815570E+02  0.59746815624E+02  0.25500000000E-02 0. -1.
    5000001    1    1    2    0    0  0.24266587182E+03 -0.91636627690E+02  0.13396410943E+04  0.13704201029E+04  0.12700000000E+03 0.  0.
   -5000001    1    1    2    0    0 -0.24266587182E+03  0.91636627690E+02  0.42576246397E+03  0.51447708658E+03  0.12700000000E+03 0.  0.
<mgrwt>
<rscale>  0 0.66044507E+03</rscale>
<asrwt>0</asrwt>
<pdfrwt beam="1">  1        2 0.26073573E+00 0.66044507E+03</pdfrwt>
<pdfrwt beam="2">  1       -2 0.85352606E-02 0.66044507E+03</pdfrwt>
<totfact> 0.89389795E+02</totfact>
</mgrwt>
</event>
<event>
 4    1  0.1383574E-004  0.5734804E+03  0.7818608E-02  0.9962006E-01
         -2   -1    0    0    0  501 -0.00000000000E+00  0.00000000000E+00  0.59875336216E+02  0.59875336270E+02  0.25500000000E-02 0. -1.
          2   -1    0    0  501    0  0.00000000000E+00 -0.00000000000E+00 -0.13731854148E+04  0.13731854148E+04  0.25500000000E-02 0.  1.
    5000001    1    1    2    0    0 -0.23270492362E+01  0.24696648490E+03 -0.47832018865E+03  0.55309769724E+03  0.12700000000E+03 0.  0.
   -5000001    1    1    2    0    0  0.23270492362E+01 -0.24696648490E+03 -0.83498988994E+03  0.87996305384E+03  0.12700000000E+03 0.  0.
<mgrwt>
<rscale>  0 0.57348039E+03</rscale>
<asrwt>0</asrwt>
<pdfrwt beam="1">  1        2 0.19616933E+00 0.57348039E+03</pdfrwt>
<pdfrwt beam="2">  1       -2 0.85536203E-02 0.57348039E+03</pdfrwt>
<totfact> 0.15298799E+03</totfact>
</mgrwt>
</event>
<event>
 4    1  0.1383574E-004  0.3385623E+03  0.7818608E-02  0.1067410E+00
          2   -1    0    0  501    0  0.00000000000E+00  0.00000000000E+00  0.20878862924E+03  0.20878862926E+03  0.25500000000E-02 0.  1.
         -2   -1    0    0    0  501 -0.00000000000E+00 -0.00000000000E+00 -0.13724937308E+03  0.13724937310E+03  0.25500000000E-02 0. -1.
    5000001    1    1    2    0    0  0.98499363615E+02 -0.51810608628E+02  0.47890862325E+02  0.17552492271E+03  0.12700000000E+03 0.  0.
   -5000001    1    1    2    0    0 -0.98499363615E+02  0.51810608628E+02  0.23648393838E+02  0.17051307965E+03  0.12700000000E+03 0.  0.
<mgrwt>
<rscale>  0 0.33856230E+03</rscale>
<asrwt>0</asrwt>
<pdfrwt beam="1">  1        2 0.29826947E-01 0.33856230E+03</pdfrwt>
<pdfrwt beam="2">  1       -2 0.19607053E-01 0.33856230E+03</pdfrwt>
<totfact> 0.38497911E+03</totfact>
</mgrwt>
</event>
<event>
 4    1  0.1383574E-004  0.2761384E+03  0.7818608E-02  0.1097817E+00
          2   -1    0    0  501    0  0.00000000000E+00  0.00000000000E+00  0.31122405431E+04  0.31122405431E+04  0.25500000000E-02 0.  1.
         -2   -1    0    0    0  501 -0.00000000000E+00 -0.00000000000E+00 -0.61252035521E+01  0.61252040829E+01  0.25500000000E-02 0. -1.
    5000001    1    1    2    0    0 -0.25545234668E+02  0.47764377718E+02  0.15568515324E+04  0.15629618321E+04  0.12700000000E+03 0.  0.
   -5000001    1    1    2    0    0  0.25545234668E+02 -0.47764377718E+02  0.15492638072E+04  0.15554039151E+04  0.12700000000E+03 0.  0.
<mgrwt>
<rscale>  0 0.27613843E+03</rscale>
<asrwt>0</asrwt>
<pdfrwt beam="1">  1        2 0.44460768E+00 0.27613843E+03</pdfrwt>
<pdfrwt beam="2">  1       -2 0.87502541E-03 0.27613843E+03</pdfrwt>
<totfact> 0.62579357E+03</totfact>
</mgrwt>
</event>
<event>
 4    1  0.1383574E-004  0.5704979E+03  0.7818608E-02  0.9968577E-01
          2   -1    0    0  501    0  0.00000000000E+00  0.00000000000E+00  0.10963647883E+04  0.10963647883E+04  0.25500000000E-02 0.  1.
         -2   -1    0    0    0  501 -0.00000000000E+00 -0.00000000000E+00 -0.74215225239E+02  0.74215225283E+02  0.25500000000E-02 0. -1.
    5000001    1    1    2    0    0  0.62682987846E+02  0.24230487856E+03  0.40650758529E+03  0.49398201186E+03  0.12700000000E+03 0.  0.
   -5000001    1    1    2    0    0 -0.62682987846E+02 -0.24230487856E+03  0.61564197773E+03  0.67659800168E+03  0.12700000000E+03 0.  0.
<mgrwt>
<rscale>  0 0.57049789E+03</rscale>
<asrwt>0</asrwt>
<pdfrwt beam="1">  1        2 0.15662352E+00 0.57049789E+03</pdfrwt>
<pdfrwt beam="2">  1       -2 0.10602176E-01 0.57049789E+03</pdfrwt>
<totfact> 0.15410088E+03</totfact>
</mgrwt>
</event>
<event>
 4    1  0.1383574E-004  0.4767917E+03  0.7818608E-02  0.1020021E+00
          2   -1    0    0  501    0  0.00000000000E+00  0.00000000000E+00  0.31819391591E+03  0.31819391592E+03  0.25500000000E-02 0.  1.
         -2   -1    0    0    0  501 -0.00000000000E+00 -0.00000000000E+00 -0.17860989757E+03  0.17860989759E+03  0.25500000000E-02 0. -1.
    5000001    1    1    2    0    0 -0.74470443511E+02  0.18749308876E+03  0.67687986872E+02  0.24781075210E+03  0.12700000000E+03 0.  0.
   -5000001    1    1    2    0    0  0.74470443511E+02 -0.18749308876E+03  0.71896031467E+02  0.24899306141E+03  0.12700000000E+03 0.  0.
<mgrwt>
<rscale>  0 0.47679171E+03</rscale>
<asrwt>0</asrwt>
<pdfrwt beam="1">  1        2 0.45456273E-01 0.47679171E+03</pdfrwt>
<pdfrwt beam="2">  1       -2 0.25515700E-01 0.47679171E+03</pdfrwt>
<totfact> 0.15359724E+03</totfact>
</mgrwt>
</event>
<event>
 4    1  0.1383574E-004  0.3228221E+03  0.7818608E-02  0.1074358E+00
          2   -1    0    0  501    0  0.00000000000E+00  0.00000000000E+00  0.13974654317E+04  0.13974654317E+04  0.25500000000E-02 0.  1.
         -2   -1    0    0    0  501 -0.00000000000E+00 -0.00000000000E+00 -0.18643410780E+02  0.18643410955E+02  0.25500000000E-02 0. -1.
    5000001    1    1    2    0    0 -0.16796667908E+02 -0.68417039891E+02  0.38042413127E+03  0.40720331415E+03  0.12700000000E+03 0.  0.
   -5000001    1    1    2    0    0  0.16796667908E+02  0.68417039891E+02  0.99839788967E+03  0.10089055285E+04  0.12700000000E+03 0.  0.
<mgrwt>
<rscale>  0 0.32282207E+03</rscale>
<asrwt>0</asrwt>
<pdfrwt beam="1">  1        2 0.19963794E+00 0.32282207E+03</pdfrwt>
<pdfrwt beam="2">  1       -2 0.26633442E-02 0.32282207E+03</pdfrwt>
<totfact> 0.89349573E+03</totfact>
</mgrwt>
</event>
<event>
 4    1  0.1383574E-004  0.1076502E+04  0.7818608E-02  0.9228402E-01
          2   -1    0    0  501    0  0.00000000000E+00  0.00000000000E+00  0.56455992784E+03  0.56455992785E+03  0.25500000000E-02 0.  1.
         -2   -1    0    0    0  501 -0.00000000000E+00 -0.00000000000E+00 -0.51316836721E+03  0.51316836721E+03  0.25500000000E-02 0. -1.
    5000001    1    1    2    0    0  0.33170894698E+02  0.42095222913E+03 -0.28333717311E+03  0.52412788623E+03  0.12700000000E+03 0.  0.
   -5000001    1    1    2    0    0 -0.33170894698E+02 -0.42095222913E+03  0.33472873374E+03  0.55360040883E+03  0.12700000000E+03 0.  0.
<mgrwt>
<rscale>  0 0.10765023E+04</rscale>
<asrwt>0</asrwt>
<pdfrwt beam="1">  1        2 0.80651419E-01 0.10765023E+04</pdfrwt>
<pdfrwt beam="2">  1       -2 0.73309766E-01 0.10765023E+04</pdfrwt>
<totfact> 0.97468316E+01</totfact>
</mgrwt>
</event>
<event>
 4    1  0.1383574E-004  0.3634249E+03  0.7818608E-02  0.1057236E+00
          2   -1    0    0  501    0  0.00000000000E+00  0.00000000000E+00  0.22092987271E+03  0.22092987272E+03  0.25500000000E-02 0.  1.
         -2   -1    0    0    0  501 -0.00000000000E+00 -0.00000000000E+00 -0.14945651522E+03  0.14945651524E+03  0.25500000000E-02 0. -1.
    5000001    1    1    2    0    0 -0.10109109200E+03 -0.59659863372E+02  0.92587832684E+02  0.19616374523E+03  0.12700000000E+03 0.  0.
   -5000001    1    1    2    0    0  0.10109109200E+03  0.59659863372E+02 -0.21114475200E+02  0.17422264274E+03  0.12700000000E+03 0.  0.
<mgrwt>
<rscale>  0 0.36342487E+03</rscale>
<asrwt>0</asrwt>
<pdfrwt beam="1">  1        2 0.31561411E-01 0.36342487E+03</pdfrwt>
<pdfrwt beam="2">  1       -2 0.21350931E-01 0.36342487E+03</pdfrwt>
<totfact> 0.31272651E+03</totfact>
</mgrwt>
</event>
<event>
 4    1  0.1383574E-004  0.7862397E+03  0.7818608E-02  0.9580151E-01
         -2   -1    0    0    0  501 -0.00000000000E+00  0.00000000000E+00  0.38757277289E+03  0.38757277290E+03  0.25500000000E-02 0. -1.
          2   -1    0    0  501    0  0.00000000000E+00 -0.00000000000E+00 -0.39874626819E+03  0.39874626820E+03  0.25500000000E-02 0.  1.
    5000001    1    1    2    0    0  0.19293365795E+03  0.26010399044E+03  0.17756206550E+03  0.39055699880E+03  0.12700000000E+03 0.  0.
   -5000001    1    1    2    0    0 -0.19293365795E+03 -0.26010399044E+03 -0.18873556079E+03  0.39576204229E+03  0.12700000000E+03 0.  0.
<mgrwt>
<rscale>  0 0.78623965E+03</rscale>
<asrwt>0</asrwt>
<pdfrwt beam="1">  1        2 0.56963753E-01 0.78623965E+03</pdfrwt>
<pdfrwt beam="2">  1       -2 0.55367539E-01 0.78623965E+03</pdfrwt>
<totfact> 0.26798768E+02</totfact>
</mgrwt>
</event>
<event>
 4    1  0.1383574E-004  0.3800006E+03  0.7818608E-02  0.1050934E+00
          2   -1    0    0  501    0  0.00000000000E+00  0.00000000000E+00  0.19071337574E+03  0.19071337576E+03  0.25500000000E-02 0.  1.
         -2   -1    0    0    0  501 -0.00000000000E+00 -0.00000000000E+00 -0.18928990189E+03  0.18928990191E+03  0.25500000000E-02 0. -1.
    5000001    1    1    2    0    0  0.13174028396E+03 -0.49350873599E+02 -0.12708679399E+02  0.18995136660E+03  0.12700000000E+03 0.  0.
   -5000001    1    1    2    0    0 -0.13174028396E+03  0.49350873599E+02  0.14132153254E+02  0.19005191106E+03  0.12700000000E+03 0.  0.
<mgrwt>
<rscale>  0 0.38000061E+03</rscale>
<asrwt>0</asrwt>
<pdfrwt beam="1">  1        2 0.27244768E-01 0.38000061E+03</pdfrwt>
<pdfrwt beam="2">  1       -2 0.27041414E-01 0.38000061E+03</pdfrwt>
<totfact> 0.24274698E+03</totfact>
</mgrwt>
</event>
<event>
 4    1  0.1383574E-004  0.3441409E+03  0.7818608E-02  0.1065046E+00
          2   -1    0    0  501    0  0.00000000000E+00  0.00000000000E+00  0.11954636284E+04  0.11954636284E+04  0.25500000000E-02 0.  1.
         -2   -1    0    0    0  501 -0.00000000000E+00 -0.00000000000E+00 -0.24767166329E+02  0.24767166460E+02  0.25500000000E-02 0. -1.
    5000001    1    1    2    0    0 -0.11561678652E+03 -0.53909978649E+01  0.61764016083E+03  0.64109646112E+03  0.12700000000E+03 0.  0.
   -5000001    1    1    2    0    0  0.11561678652E+03  0.53909978649E+01  0.55305630125E+03  0.57913433375E+03  0.12700000000E+03 0.  0.
<mgrwt>
<rscale>  0 0.34414094E+03</rscale>
<asrwt>0</asrwt>
<pdfrwt beam="1">  1        2 0.17078052E+00 0.34414094E+03</pdfrwt>
<pdfrwt beam="2">  1       -2 0.35381665E-02 0.34414094E+03</pdfrwt>
<totfact> 0.74880767E+03</totfact>
</mgrwt>
</event>
<event>
 4    1  0.1383574E-004  0.6912175E+03  0.7818608E-02  0.9732370E-01
         -2   -1    0    0    0  501 -0.00000000000E+00  0.00000000000E+00  0.24916561553E+02  0.24916561683E+02  0.25500000000E-02 0. -1.
          2   -1    0    0  501    0  0.00000000000E+00 -0.00000000000E+00 -0.47938154247E+04  0.47938154247E+04  0.25500000000E-02 0.  1.
    5000001    1    1    2    0    0  0.28792853562E+03 -0.12385368967E+02 -0.13921574432E+04  0.14273358349E+04  0.12700000000E+03 0.  0.
   -5000001    1    1    2    0    0 -0.28792853562E+03  0.12385368967E+02 -0.33767414199E+04  0.33913961514E+04  0.12700000000E+03 0.  0.
<mgrwt>
<rscale>  0 0.69121747E+03</rscale>
<asrwt>0</asrwt>
<pdfrwt beam="1">  1        2 0.68483019E+00 0.69121747E+03</pdfrwt>
<pdfrwt beam="2">  1       -2 0.35595119E-02 0.69121747E+03</pdfrwt>
<totfact> 0.54643010E+01</totfact>
</mgrwt>
</event>
<event>
 4    1  0.1383574E-004  0.4242816E+03  0.7818608E-02  0.1035682E+00
          2   -1    0    0  501    0  0.00000000000E+00  0.00000000000E+00  0.80931869911E+02  0.80931869951E+02  0.25500000000E-02 0.  1.
         -2   -1    0    0    0  501 -0.00000000000E+00 -0.00000000000E+00 -0.55606923390E+03  0.55606923391E+03  0.25500000000E-02 0. -1.
    5000001    1    1    2    0    0 -0.31358332647E+02  0.16666033963E+03 -0.25371857670E+03  0.33054671378E+03  0.12700000000E+03 0.  0.
   -5000001    1    1    2    0    0  0.31358332647E+02 -0.16666033963E+03 -0.22141878729E+03  0.30645439008E+03  0.12700000000E+03 0.  0.
<mgrwt>
<rscale>  0 0.42428162E+03</rscale>
<asrwt>0</asrwt>
<pdfrwt beam="1">  1        2 0.11561696E-01 0.42428162E+03</pdfrwt>
<pdfrwt beam="2">  1       -2 0.79438460E-01 0.42428162E+03</pdfrwt>
<totfact> 0.77986072E+02</totfact>
</mgrwt>
</event>
<event>
 4    1  0.1383574E-004  0.4025895E+03  0.7818608E-02  0.1042887E+00
         -2   -1    0    0    0  501 -0.00000000000E+00  0.00000000000E+00  0.33447025288E+02  0.33447025385E+02  0.25500000000E-02 0.  1.
          2   -1    0    0  501    0  0.00000000000E+00 -0.00000000000E+00 -0.12114551200E+04  0.12114551201E+04  0.25500000000E-02 0. -1.
    5000001    1    1    2    0    0  0.95240035477E+02 -0.10782300881E+03 -0.40106051102E+03  0.44460656663E+03  0.12700000000E+03 0.  0.
   -5000001    1    1    2    0    0 -0.95240035477E+02  0.10782300881E+03 -0.77694758374E+03  0.80029557881E+03  0.12700000000E+03 0.  0.
<mgrwt>
<rscale>  0 0.40258947E+03</rscale>
<asrwt>0</asrwt>
<pdfrwt beam="1">  1        2 0.17306499E+00 0.40258947E+03</pdfrwt>
<pdfrwt beam="2">  1       -2 0.47781472E-02 0.40258947E+03</pdfrwt>
<totfact> 0.46589722E+03</totfact>
</mgrwt>
</event>
<event>
 4    1  0.1383574E-004  0.3165874E+03  0.7818608E-02  0.1077231E+00
         -2   -1    0    0    0  501 -0.00000000000E+00  0.00000000000E+00  0.18612101159E+02  0.18612101333E+02  0.25500000000E-02 0. -1.
          2   -1    0    0  501    0  0.00000000000E+00 -0.00000000000E+00 -0.13462690898E+04  0.13462690898E+04  0.25500000000E-02 0.  1.
    5000001    1    1    2    0    0  0.79775004024E+02 -0.19528381375E+02 -0.86523667730E+03  0.87835580301E+03  0.12700000000E+03 0.  0.
   -5000001    1    1    2    0    0 -0.79775004024E+02  0.19528381375E+02 -0.46242031138E+03  0.48652538816E+03  0.12700000000E+03 0.  0.
<mgrwt>
<rscale>  0 0.31658741E+03</rscale>
<asrwt>0</asrwt>
<pdfrwt beam="1">  1        2 0.19232409E+00 0.31658741E+03</pdfrwt>
<pdfrwt beam="2">  1       -2 0.26588725E-02 0.31658741E+03</pdfrwt>
<totfact> 0.95207748E+03</totfact>
</mgrwt>
</event>
<event>
 4    1  0.1383574E-004  0.6555901E+03  0.7818608E-02  0.9796346E-01
          2   -1    0    0  501    0  0.00000000000E+00  0.00000000000E+00  0.66304075702E+03  0.66304075703E+03  0.25500000000E-02 0.  1.
         -2   -1    0    0    0  501 -0.00000000000E+00 -0.00000000000E+00 -0.16205579970E+03  0.16205579972E+03  0.25500000000E-02 0. -1.
    5000001    1    1    2    0    0  0.28124465423E+03 -0.99585129468E+02  0.19007071631E+03  0.37586118547E+03  0.12700000000E+03 0.  0.
   -5000001    1    1    2    0    0 -0.28124465423E+03  0.99585129468E+02  0.31091424102E+03  0.44923537128E+03  0.12700000000E+03 0.  0.
<mgrwt>
<rscale>  0 0.65559012E+03</rscale>
<asrwt>0</asrwt>
<pdfrwt beam="1">  1        2 0.94720108E-01 0.65559012E+03</pdfrwt>
<pdfrwt beam="2">  1       -2 0.23150829E-01 0.65559012E+03</pdfrwt>
<totfact> 0.79451241E+02</totfact>
</mgrwt>
</event>
<event>
 4    1  0.1383574E-004  0.3904840E+03  0.7818608E-02  0.1047125E+00
          2   -1    0    0  501    0  0.00000000000E+00  0.00000000000E+00  0.16469571169E+03  0.16469571171E+03  0.25500000000E-02 0.  1.
         -2   -1    0    0    0  501 -0.00000000000E+00 -0.00000000000E+00 -0.23145369768E+03  0.23145369769E+03  0.25500000000E-02 0. -1.
    5000001    1    1    2    0    0  0.14306217993E+03  0.36995214571E+02 -0.20748532256E+02  0.19594625493E+03  0.12700000000E+03 0.  0.
   -5000001    1    1    2    0    0 -0.14306217993E+03 -0.36995214571E+02 -0.46009453731E+02  0.20020315447E+03  0.12700000000E+03 0.  0.
<mgrwt>
<rscale>  0 0.39048396E+03</rscale>
<asrwt>0</asrwt>
<pdfrwt beam="1">  1        2 0.23527959E-01 0.39048396E+03</pdfrwt>
<pdfrwt beam="2">  1       -2 0.33064814E-01 0.39048396E+03</pdfrwt>
<totfact> 0.19834765E+03</totfact>
</mgrwt>
</event>
<event>
 4    1  0.1383574E-004  0.1146351E+04  0.7818608E-02  0.9161157E-01
         -2   -1    0    0    0  501 -0.00000000000E+00  0.00000000000E+00  0.20594306982E+03  0.20594306984E+03  0.25500000000E-02 0. -1.
          2   -1    0    0  501    0  0.00000000000E+00 -0.00000000000E+00 -0.15952462807E+04  0.15952462807E+04  0.25500000000E-02 0.  1.
    5000001    1    1    2    0    0 -0.46569686907E+03  0.99239314779E+02 -0.23473524766E+03  0.54584947738E+03  0.12700000000E+03 0.  0.
   -5000001    1    1    2    0    0  0.46569686907E+03 -0.99239314779E+02 -0.11545679632E+04  0.12553398732E+04  0.12700000000E+03 0.  0.
<mgrwt>
<rscale>  0 0.11463506E+04</rscale>
<asrwt>0</asrwt>
<pdfrwt beam="1">  1        2 0.22789232E+00 0.11463506E+04</pdfrwt>
<pdfrwt beam="2">  1       -2 0.29420440E-01 0.11463506E+04</pdfrwt>
<totfact> 0.13686776E+02</totfact>
</mgrwt>
</event>
<event>
 4    1  0.1383574E-004  0.3901178E+03  0.7818608E-02  0.1047256E+00
         -2   -1    0    0    0  501 -0.00000000000E+00  0.00000000000E+00  0.30066054195E+02  0.30066054303E+02  0.25500000000E-02 0. -1.
          2   -1    0    0  501    0  0.00000000000E+00 -0.00000000000E+00 -0.12654796575E+04  0.12654796575E+04  0.25500000000E-02 0.  1.
    5000001    1    1    2    0    0 -0.85345614591E+02 -0.19842796129E+02 -0.22139881829E+03  0.26985931007E+03  0.12700000000E+03 0.  0.
   -5000001    1    1    2    0    0  0.85345614591E+02  0.19842796129E+02 -0.10140147850E+04  0.10256864017E+04  0.12700000000E+03 0.  0.
<mgrwt>
<rscale>  0 0.39011783E+03</rscale>
<asrwt>0</asrwt>
<pdfrwt beam="1">  1        2 0.18078277E+00 0.39011783E+03</pdfrwt>
<pdfrwt beam="2">  1       -2 0.42951514E-02 0.39011783E+03</pdfrwt>
<totfact> 0.51223819E+03</totfact>
</mgrwt>
</event>
<event>
 4    1  0.1383574E-004  0.4162976E+03  0.7818608E-02  0.1038278E+00
          2   -1    0    0  501    0  0.00000000000E+00  0.00000000000E+00  0.28378854991E+04  0.28378854991E+04  0.25500000000E-02 0.  1.
         -2   -1    0    0    0  501 -0.00000000000E+00 -0.00000000000E+00 -0.15266973164E+02  0.15266973377E+02  0.25500000000E-02 0. -1.
    5000001    1    1    2    0    0 -0.34780926456E+02  0.80806926447E+02  0.45529573407E+03  0.48079379954E+03  0.12700000000E+03 0.  0.
   -5000001    1    1    2    0    0  0.34780926456E+02 -0.80806926447E+02  0.23673227919E+04  0.23723586730E+04  0.12700000000E+03 0.  0.
<mgrwt>
<rscale>  0 0.41629760E+03</rscale>
<asrwt>0</asrwt>
<pdfrwt beam="1">  1        2 0.40541251E+00 0.41629760E+03</pdfrwt>
<pdfrwt beam="2">  1       -2 0.21809946E-02 0.41629760E+03</pdfrwt>
<totfact> 0.22684387E+03</totfact>
</mgrwt>
</event>
<event>
 4    1  0.1383574E-004  0.1324021E+04  0.7818608E-02  0.9010730E-01
          2   -1    0    0  501    0  0.00000000000E+00  0.00000000000E+00  0.18710588295E+04  0.18710588295E+04  0.25500000000E-02 0.  1.
         -2   -1    0    0    0  501 -0.00000000000E+00 -0.00000000000E+00 -0.23422989744E+03  0.23422989745E+03  0.25500000000E-02 0. -1.
    5000001    1    1    2    0    0  0.50499788329E+03  0.33416320518E+03  0.44401748126E+03  0.76155658587E+03  0.12700000000E+03 0.  0.
   -5000001    1    1    2    0    0 -0.50499788329E+03 -0.33416320518E+03  0.11928114508E+04  0.13437321411E+04  0.12700000000E+03 0.  0.
<mgrwt>
<rscale>  0 0.13240210E+04</rscale>
<asrwt>0</asrwt>
<pdfrwt beam="1">  1        2 0.26729412E+00 0.13240210E+04</pdfrwt>
<pdfrwt beam="2">  1       -2 0.33461414E-01 0.13240210E+04</pdfrwt>
<totfact> 0.76411373E+01</totfact>
</mgrwt>
</event>
<event>
 4    1  0.1383574E-004  0.4922388E+03  0.7818608E-02  0.1015825E+00
         -2   -1    0    0    0  501 -0.00000000000E+00  0.00000000000E+00  0.70395166556E+02  0.70395166602E+02  0.25500000000E-02 0. -1.
          2   -1    0    0  501    0  0.00000000000E+00 -0.00000000000E+00 -0.86049614094E+03  0.86049614094E+03  0.25500000000E-02 0.  1.
    5000001    1    1    2    0    0 -0.16876316936E+03 -0.51544879716E+02 -0.61321175628E+03  0.65061166605E+03  0.12700000000E+03 0.  0.
   -5000001    1    1    2    0    0  0.16876316936E+03  0.51544879716E+02 -0.17688921811E+03  0.28027964150E+03  0.12700000000E+03 0.  0.
<mgrwt>
<rscale>  0 0.49223884E+03</rscale>
<asrwt>0</asrwt>
<pdfrwt beam="1">  1        2 0.12292801E+00 0.49223884E+03</pdfrwt>
<pdfrwt beam="2">  1       -2 0.10056453E-01 0.49223884E+03</pdfrwt>
<totfact> 0.23469414E+03</totfact>
</mgrwt>
</event>
<event>
 4    1  0.1383574E-004  0.3621202E+03  0.7818608E-02  0.1057747E+00
         -2   -1    0    0    0  501 -0.00000000000E+00  0.00000000000E+00  0.10734061174E+03  0.10734061177E+03  0.25500000000E-02 0. -1.
          2   -1    0    0  501    0  0.00000000000E+00 -0.00000000000E+00 -0.30540874020E+03  0.30540874021E+03  0.25500000000E-02 0.  1.
    5000001    1    1    2    0    0  0.11392720278E+03 -0.15913668505E+02 -0.16570200994E+03  0.23836696180E+03  0.12700000000E+03 0.  0.
   -5000001    1    1    2    0    0 -0.11392720278E+03  0.15913668505E+02 -0.32366118528E+02  0.17438239019E+03  0.12700000000E+03 0.  0.
<mgrwt>
<rscale>  0 0.36212021E+03</rscale>
<asrwt>0</asrwt>
<pdfrwt beam="1">  1        2 0.43629820E-01 0.36212021E+03</pdfrwt>
<pdfrwt beam="2">  1       -2 0.15334373E-01 0.36212021E+03</pdfrwt>
<totfact> 0.38536752E+03</totfact>
</mgrwt>
</event>
<event>
 4    1  0.1383574E-004  0.3562590E+03  0.7818608E-02  0.1060075E+00
          2   -1    0    0  501    0  0.00000000000E+00  0.00000000000E+00  0.29089327210E+03  0.29089327211E+03  0.25500000000E-02 0.  1.
         -2   -1    0    0    0  501 -0.00000000000E+00 -0.00000000000E+00 -0.10907819708E+03  0.10907819711E+03  0.25500000000E-02 0. -1.
    5000001    1    1    2    0    0 -0.85148126018E+02 -0.38897933664E+02  0.18374501675E+03  0.24218687782E+03  0.12700000000E+03 0.  0.
   -5000001    1    1    2    0    0  0.85148126018E+02  0.38897933664E+02 -0.19299417418E+01  0.15778459140E+03  0.12700000000E+03 0.  0.
<mgrwt>
<rscale>  0 0.35625897E+03</rscale>
<asrwt>0</asrwt>
<pdfrwt beam="1">  1        2 0.41556181E-01 0.35625897E+03</pdfrwt>
<pdfrwt beam="2">  1       -2 0.15582600E-01 0.35625897E+03</pdfrwt>
<totfact> 0.39540551E+03</totfact>
</mgrwt>
</event>
<event>
 4    1  0.1383574E-004  0.5658582E+03  0.7818608E-02  0.9978886E-01
         -2   -1    0    0    0  501 -0.00000000000E+00  0.00000000000E+00  0.21471686320E+03  0.21471686322E+03  0.25500000000E-02 0. -1.
          2   -1    0    0  501    0  0.00000000000E+00 -0.00000000000E+00 -0.37281125312E+03  0.37281125313E+03  0.25500000000E-02 0.  1.
    5000001    1    1    2    0    0 -0.16832510562E+03 -0.12411819074E+03  0.68453657402E+02  0.25407394528E+03  0.12700000000E+03 0.  0.
   -5000001    1    1    2    0    0  0.16832510562E+03  0.12411819074E+03 -0.22654804732E+03  0.33345417107E+03  0.12700000000E+03 0.  0.
<mgrwt>
<rscale>  0 0.56585815E+03</rscale>
<asrwt>0</asrwt>
<pdfrwt beam="1">  1        2 0.53258750E-01 0.56585815E+03</pdfrwt>
<pdfrwt beam="2">  1       -2 0.30673838E-01 0.56585815E+03</pdfrwt>
<totfact> 0.92273985E+02</totfact>
</mgrwt>
</event>
<event>
 4    1  0.1383574E-004  0.3277795E+03  0.7818608E-02  0.1072124E+00
          2   -1    0    0  501    0  0.00000000000E+00  0.00000000000E+00  0.24140023114E+04  0.24140023114E+04  0.25500000000E-02 0.  1.
         -2   -1    0    0    0  501 -0.00000000000E+00 -0.00000000000E+00 -0.11126689993E+02  0.11126690286E+02  0.25500000000E-02 0. -1.
    5000001    1    1    2    0    0 -0.66176806180E+02  0.74531640368E+02  0.99262769924E+03  0.10056704651E+04  0.12700000000E+03 0.  0.
   -5000001    1    1    2    0    0  0.66176806180E+02 -0.74531640368E+02  0.14102479222E+04  0.14194585366E+04  0.12700000000E+03 0.  0.
<mgrwt>
<rscale>  0 0.32777953E+03</rscale>
<asrwt>0</asrwt>
<pdfrwt beam="1">  1        2 0.34485742E+00 0.32777953E+03</pdfrwt>
<pdfrwt beam="2">  1       -2 0.15895274E-02 0.32777953E+03</pdfrwt>
<totfact> 0.59957975E+03</totfact>
</mgrwt>
</event>
<event>
 4    1  0.1383574E-004  0.3403409E+03  0.7818608E-02  0.1066651E+00
         -2   -1    0    0    0  501 -0.00000000000E+00  0.00000000000E+00  0.25660449627E+02  0.25660449753E+02  0.25500000000E-02 0. -1.
          2   -1    0    0  501    0  0.00000000000E+00 -0.00000000000E+00 -0.11285061368E+04  0.11285061368E+04  0.25500000000E-02 0.  1.
    5000001    1    1    2    0    0 -0.97615252312E+02 -0.63109161879E+01 -0.74506080543E+03  0.76211099516E+03  0.12700000000E+03 0.  0.
   -5000001    1    1    2    0    0  0.97615252312E+02  0.63109161879E+01 -0.35778488177E+03  0.39205559143E+03  0.12700000000E+03 0.  0.
<mgrwt>
<rscale>  0 0.34034086E+03</rscale>
<asrwt>0</asrwt>
<pdfrwt beam="1">  1        2 0.16121513E+00 0.34034086E+03</pdfrwt>
<pdfrwt beam="2">  1       -2 0.36657792E-02 0.34034086E+03</pdfrwt>
<totfact> 0.77314476E+03</totfact>
</mgrwt>
</event>
<event>
 4    1  0.1383574E-004  0.3654544E+03  0.7818608E-02  0.1056445E+00
          2   -1    0    0  501    0  0.00000000000E+00  0.00000000000E+00  0.44918206780E+03  0.44918206781E+03  0.25500000000E-02 0.  1.
         -2   -1    0    0    0  501 -0.00000000000E+00 -0.00000000000E+00 -0.74333413013E+02  0.74333413056E+02  0.25500000000E-02 0. -1.
    5000001    1    1    2    0    0  0.11748553128E+03  0.20132697750E+02  0.26656374814E+03  0.31842331479E+03  0.12700000000E+03 0.  0.
   -5000001    1    1    2    0    0 -0.11748553128E+03 -0.20132697750E+02  0.10828490665E+03  0.20509216608E+03  0.12700000000E+03 0.  0.
<mgrwt>
<rscale>  0 0.36545444E+03</rscale>
<asrwt>0</asrwt>
<pdfrwt beam="1">  1        2 0.64168868E-01 0.36545444E+03</pdfrwt>
<pdfrwt beam="2">  1       -2 0.10619059E-01 0.36545444E+03</pdfrwt>
<totfact> 0.46172751E+03</totfact>
</mgrwt>
</event>
<event>
 4    1  0.1383574E-004  0.6588662E+03  0.7818608E-02  0.9790283E-01
          2   -1    0    0  501    0  0.00000000000E+00  0.00000000000E+00  0.15648033055E+04  0.15648033055E+04  0.25500000000E-02 0.  1.
         -2   -1    0    0    0  501 -0.00000000000E+00 -0.00000000000E+00 -0.69354519249E+02  0.69354519296E+02  0.25500000000E-02 0. -1.
    5000001    1    1    2    0    0 -0.12237942716E+03  0.64120156341E+02  0.14192700957E+04  0.14316231079E+04  0.12700000000E+03 0.  0.
   -5000001    1    1    2    0    0  0.12237942716E+03 -0.64120156341E+02  0.76178690561E+02  0.20253471687E+03  0.12700000000E+03 0.  0.
<mgrwt>
<rscale>  0 0.65886624E+03</rscale>
<asrwt>0</asrwt>
<pdfrwt beam="1">  1        2 0.22354333E+00 0.65886624E+03</pdfrwt>
<pdfrwt beam="2">  1       -2 0.99077885E-02 0.65886624E+03</pdfrwt>
<totfact> 0.95472678E+02</totfact>
</mgrwt>
</event>
<event>
 4    1  0.1383574E-004  0.3723769E+03  0.7818608E-02  0.1053788E+00
          2   -1    0    0  501    0  0.00000000000E+00  0.00000000000E+00  0.60234507995E+03  0.60234507996E+03  0.25500000000E-02 0.  1.
         -2   -1    0    0    0  501 -0.00000000000E+00 -0.00000000000E+00 -0.57551966096E+02  0.57551966153E+02  0.25500000000E-02 0. -1.
    5000001    1    1    2    0    0  0.96396681369E+02 -0.44364314718E+02  0.42356411580E+03  0.45474836206E+03  0.12700000000E+03 0.  0.
   -5000001    1    1    2    0    0 -0.96396681369E+02  0.44364314718E+02  0.12122899806E+03  0.20514868405E+03  0.12700000000E+03 0.  0.
<mgrwt>
<rscale>  0 0.37237693E+03</rscale>
<asrwt>0</asrwt>
<pdfrwt beam="1">  1        2 0.86049294E-01 0.37237693E+03</pdfrwt>
<pdfrwt beam="2">  1       -2 0.82217097E-02 0.37237693E+03</pdfrwt>
<totfact> 0.49889378E+03</totfact>
</mgrwt>
</event>
<event>
 4    1  0.1383574E-004  0.1344027E+04  0.7818608E-02  0.8995362E-01
          2   -1    0    0  501    0  0.00000000000E+00  0.00000000000E+00  0.51357242366E+03  0.51357242367E+03  0.25500000000E-02 0.  1.
         -2   -1    0    0    0  501 -0.00000000000E+00 -0.00000000000E+00 -0.87933503312E+03  0.87933503312E+03  0.25500000000E-02 0. -1.
    5000001    1    1    2    0    0 -0.12690888519E+02  0.40796823685E+03 -0.72027021865E+03  0.83756631307E+03  0.12700000000E+03 0.  0.
   -5000001    1    1    2    0    0  0.12690888519E+02 -0.40796823685E+03  0.35450760919E+03  0.55534114371E+03  0.12700000000E+03 0.  0.
<mgrwt>
<rscale>  0 0.13440271E+04</rscale>
<asrwt>0</asrwt>
<pdfrwt beam="1">  1        2 0.73367489E-01 0.13440271E+04</pdfrwt>
<pdfrwt beam="2">  1       -2 0.12561929E+00 0.13440271E+04</pdfrwt>
<totfact> 0.30161476E+01</totfact>
</mgrwt>
</event>
<event>
 4    1  0.1383574E-004  0.4625439E+03  0.7818608E-02  0.1024046E+00
          2   -1    0    0  501    0  0.00000000000E+00  0.00000000000E+00  0.91524487423E+03  0.91524487423E+03  0.25500000000E-02 0.  1.
         -2   -1    0    0    0  501 -0.00000000000E+00 -0.00000000000E+00 -0.58439775513E+02  0.58439775568E+02  0.25500000000E-02 0. -1.
    5000001    1    1    2    0    0  0.11835559957E+03  0.14037723192E+03  0.55547401067E+03  0.59866033084E+03  0.12700000000E+03 0.  0.
   -5000001    1    1    2    0    0 -0.11835559957E+03 -0.14037723192E+03  0.30133108804E+03  0.37502431896E+03  0.12700000000E+03 0.  0.
<mgrwt>
<rscale>  0 0.46254386E+03</rscale>
<asrwt>0</asrwt>
<pdfrwt beam="1">  1        2 0.13074926E+00 0.46254386E+03</pdfrwt>
<pdfrwt beam="2">  1       -2 0.83485400E-02 0.46254386E+03</pdfrwt>
<totfact> 0.29141361E+03</totfact>
</mgrwt>
</event>
<event>
 4    1  0.1383574E-004  0.4210104E+03  0.7818608E-02  0.1036738E+00
          2   -1    0    0  501    0  0.00000000000E+00  0.00000000000E+00  0.86538721111E+03  0.86538721112E+03  0.25500000000E-02 0.  1.
         -2   -1    0    0    0  501 -0.00000000000E+00 -0.00000000000E+00 -0.51205321110E+02  0.51205321173E+02  0.25500000000E-02 0. -1.
    5000001    1    1    2    0    0 -0.99908674726E+02 -0.56556267502E+02  0.14042123964E+03  0.22142149674E+03  0.12700000000E+03 0.  0.
   -5000001    1    1    2    0    0  0.99908674726E+02  0.56556267502E+02  0.67376065037E+03  0.69517103555E+03  0.12700000000E+03 0.  0.
<mgrwt>
<rscale>  0 0.42101036E+03</rscale>
<asrwt>0</asrwt>
<pdfrwt beam="1">  1        2 0.12362675E+00 0.42101036E+03</pdfrwt>
<pdfrwt beam="2">  1       -2 0.73150454E-02 0.42101036E+03</pdfrwt>
<totfact> 0.38624471E+03</totfact>
</mgrwt>
</event>
<event>
 4    1  0.1383574E-004  0.3892369E+03  0.7818608E-02  0.1047572E+00
          2   -1    0    0  501    0  0.00000000000E+00  0.00000000000E+00  0.12906648127E+04  0.12906648127E+04  0.25500000000E-02 0. -1.
         -2   -1    0    0    0  501 -0.00000000000E+00 -0.00000000000E+00 -0.29346376300E+02  0.29346376411E+02  0.25500000000E-02 0.  1.
    5000001    1    1    2    0    0 -0.11399128042E+03 -0.62791437503E+02  0.86587226093E+03  0.88476016461E+03  0.12700000000E+03 0.  0.
   -5000001    1    1    2    0    0  0.11399128042E+03  0.62791437503E+02  0.39544617545E+03  0.43525102448E+03  0.12700000000E+03 0.  0.
<mgrwt>
<rscale>  0 0.38923687E+03</rscale>
<asrwt>0</asrwt>
<pdfrwt beam="1">  1        2 0.18438069E+00 0.38923687E+03</pdfrwt>
<pdfrwt beam="2">  1       -2 0.41923394E-02 0.38923687E+03</pdfrwt>
<totfact> 0.51516021E+03</totfact>
</mgrwt>
</event>
<event>
 4    1  0.1383574E-004  0.2612830E+03  0.7818608E-02  0.1106375E+00
          2   -1    0    0  501    0  0.00000000000E+00  0.00000000000E+00  0.28497516267E+03  0.28497516268E+03  0.25500000000E-02 0.  1.
         -2   -1    0    0    0  501 -0.00000000000E+00 -0.00000000000E+00 -0.59890137223E+02  0.59890137277E+02  0.25500000000E-02 0. -1.
    5000001    1    1    2    0    0  0.26939500391E+02 -0.60508271035E+01  0.13004551366E+03  0.18385642445E+03  0.12700000000E+03 0.  0.
   -5000001    1    1    2    0    0 -0.26939500391E+02  0.60508271035E+01  0.95039511785E+02  0.16100887550E+03  0.12700000000E+03 0.  0.
<mgrwt>
<rscale>  0 0.26128300E+03</rscale>
<asrwt>0</asrwt>
<pdfrwt beam="1">  1        2 0.40710738E-01 0.26128300E+03</pdfrwt>
<pdfrwt beam="2">  1       -2 0.85557339E-02 0.26128300E+03</pdfrwt>
<totfact> 0.10535100E+04</totfact>
</mgrwt>
</event>
<event>
 4    1  0.1383574E-004  0.2780508E+03  0.7818608E-02  0.1096758E+00
          2   -1    0    0  501    0  0.00000000000E+00  0.00000000000E+00  0.16172641504E+03  0.16172641506E+03  0.25500000000E-02 0.  1.
         -2   -1    0    0    0  501 -0.00000000000E+00 -0.00000000000E+00 -0.11951081308E+03  0.11951081311E+03  0.25500000000E-02 0. -1.
    5000001    1    1    2    0    0 -0.48405541565E+02  0.19762437074E+02 -0.71267658775E+00  0.13734321345E+03  0.12700000000E+03 0.  0.
   -5000001    1    1    2    0    0  0.48405541565E+02 -0.19762437074E+02  0.42928278542E+02  0.14389401472E+03  0.12700000000E+03 0.  0.
<mgrwt>
<rscale>  0 0.27805075E+03</rscale>
<asrwt>0</asrwt>
<pdfrwt beam="1">  1        2 0.23103774E-01 0.27805075E+03</pdfrwt>
<pdfrwt beam="2">  1       -2 0.17072973E-01 0.27805075E+03</pdfrwt>
<totfact> 0.64325946E+03</totfact>
</mgrwt>
</event>
<event>
 4    1  0.1383574E-004  0.5100790E+03  0.7818608E-02  0.1011181E+00
          2   -1    0    0  501    0  0.00000000000E+00  0.00000000000E+00  0.15236780114E+04  0.15236780114E+04  0.25500000000E-02 0. -1.
         -2   -1    0    0    0  501 -0.00000000000E+00 -0.00000000000E+00 -0.42689556726E+02  0.42689556802E+02  0.25500000000E-02 0.  1.
    5000001    1    1    2    0    0 -0.21118707960E+03 -0.10896932363E+02  0.54154276861E+03  0.59507671434E+03  0.12700000000E+03 0.  0.
   -5000001    1    1    2    0    0  0.21118707960E+03  0.10896932363E+02  0.93944568610E+03  0.97129085389E+03  0.12700000000E+03 0.  0.
<mgrwt>
<rscale>  0 0.51007897E+03</rscale>
<asrwt>0</asrwt>
<pdfrwt beam="1">  1        2 0.21766824E+00 0.51007897E+03</pdfrwt>
<pdfrwt beam="2">  1       -2 0.60985095E-02 0.51007897E+03</pdfrwt>
<totfact> 0.21808507E+03</totfact>
</mgrwt>
</event>
<event>
 4    1  0.1383574E-004  0.3298388E+03  0.7818608E-02  0.1071208E+00
         -2   -1    0    0    0  501 -0.00000000000E+00  0.00000000000E+00  0.28190116563E+02  0.28190116678E+02  0.25500000000E-02 0. -1.
          2   -1    0    0  501    0  0.00000000000E+00 -0.00000000000E+00 -0.96482100220E+03  0.96482100220E+03  0.25500000000E-02 0.  1.
    5000001    1    1    2    0    0 -0.51655657423E+02 -0.88374799806E+02 -0.39512613195E+03  0.42747172109E+03  0.12700000000E+03 0.  0.
   -5000001    1    1    2    0    0  0.51655657423E+02  0.88374799806E+02 -0.54150475369E+03  0.56553939779E+03  0.12700000000E+03 0.  0.
<mgrwt>
<rscale>  0 0.32983885E+03</rscale>
<asrwt>0</asrwt>
<pdfrwt beam="1">  1        2 0.13783155E+00 0.32983885E+03</pdfrwt>
<pdfrwt beam="2">  1       -2 0.40271601E-02 0.32983885E+03</pdfrwt>
<totfact> 0.83488614E+03</totfact>
</mgrwt>
</event>
<event>
 4    1  0.1383574E-004  0.3924936E+03  0.7818608E-02  0.1046410E+00
          2   -1    0    0  501    0  0.00000000000E+00  0.00000000000E+00  0.22230461299E+03  0.22230461301E+03  0.25500000000E-02 0.  1.
         -2   -1    0    0    0  501 -0.00000000000E+00 -0.00000000000E+00 -0.17324337741E+03  0.17324337743E+03  0.25500000000E-02 0. -1.
    5000001    1    1    2    0    0 -0.90116380192E+02  0.49266390881E+02 -0.85107840223E+02  0.18417514413E+03  0.12700000000E+03 0.  0.
   -5000001    1    1    2    0    0  0.90116380192E+02 -0.49266390881E+02  0.13416907581E+03  0.21137284630E+03  0.12700000000E+03 0.  0.
<mgrwt>
<rscale>  0 0.39249358E+03</rscale>
<asrwt>0</asrwt>
<pdfrwt beam="1">  1        2 0.31757802E-01 0.39249358E+03</pdfrwt>
<pdfrwt beam="2">  1       -2 0.24749054E-01 0.39249358E+03</pdfrwt>
<totfact> 0.23997480E+03</totfact>
</mgrwt>
</event>
<event>
 4    1  0.1383574E-004  0.4501456E+03  0.7818608E-02  0.1027679E+00
         -2   -1    0    0    0  501 -0.00000000000E+00  0.00000000000E+00  0.79898459219E+02  0.79898459260E+02  0.25500000000E-02 0. -1.
          2   -1    0    0  501    0  0.00000000000E+00 -0.00000000000E+00 -0.63402668819E+03  0.63402668820E+03  0.25500000000E-02 0.  1.
    5000001    1    1    2    0    0 -0.18266749631E+03 -0.33601542966E+02 -0.26805358320E+03  0.34996885770E+03  0.12700000000E+03 0.  0.
   -5000001    1    1    2    0    0  0.18266749631E+03  0.33601542966E+02 -0.28607464578E+03  0.36395628976E+03  0.12700000000E+03 0.  0.
<mgrwt>
<rscale>  0 0.45014556E+03</rscale>
<asrwt>0</asrwt>
<pdfrwt beam="1">  1        2 0.90575238E-01 0.45014556E+03</pdfrwt>
<pdfrwt beam="2">  1       -2 0.11414066E-01 0.45014556E+03</pdfrwt>
<totfact> 0.27862482E+03</totfact>
</mgrwt>
</event>
<event>
 4    1  0.1383574E-004  0.3475393E+03  0.7818608E-02  0.1063630E+00
          2   -1    0    0  501    0  0.00000000000E+00  0.00000000000E+00  0.14433923228E+04  0.14433923228E+04  0.25500000000E-02 0.  1.
         -2   -1    0    0    0  501 -0.00000000000E+00 -0.00000000000E+00 -0.20920083865E+02  0.20920084020E+02  0.25500000000E-02 0. -1.
    5000001    1    1    2    0    0 -0.22295644254E+02 -0.11537755596E+03  0.64358395007E+03  0.66643707652E+03  0.12700000000E+03 0.  0.
   -5000001    1    1    2    0    0  0.22295644254E+02  0.11537755596E+03  0.77888828886E+03  0.79787533030E+03  0.12700000000E+03 0.  0.
<mgrwt>
<rscale>  0 0.34753928E+03</rscale>
<asrwt>0</asrwt>
<pdfrwt beam="1">  1        2 0.20619900E+00 0.34753928E+03</pdfrwt>
<pdfrwt beam="2">  1       -2 0.29885821E-02 0.34753928E+03</pdfrwt>
<totfact> 0.71309333E+03</totfact>
</mgrwt>
</event>
<event>
 4    1  0.1383574E-004  0.4309591E+03  0.7818608E-02  0.1033557E+00
          2   -1    0    0  501    0  0.00000000000E+00  0.00000000000E+00  0.66803205954E+02  0.66803206003E+02  0.25500000000E-02 0.  1.
         -2   -1    0    0    0  501 -0.00000000000E+00 -0.00000000000E+00 -0.69504788392E+03  0.69504788393E+03  0.25500000000E-02 0. -1.
    5000001    1    1    2    0    0 -0.52137668533E+02 -0.12415423152E+03 -0.50914097331E+03  0.54174361130E+03  0.12700000000E+03 0.  0.
   -5000001    1    1    2    0    0  0.52137668533E+02  0.12415423152E+03 -0.11910370465E+03  0.22010747862E+03  0.12700000000E+03 0.  0.
<mgrwt>
<rscale>  0 0.43095906E+03</rscale>
<asrwt>0</asrwt>
<pdfrwt beam="1">  1        2 0.95433155E-02 0.43095906E+03</pdfrwt>
<pdfrwt beam="2">  1       -2 0.99292551E-01 0.43095906E+03</pdfrwt>
<totfact> 0.59665550E+02</totfact>
</mgrwt>
</event>
<event>
 4    1  0.1383574E-004  0.2998460E+03  0.7818608E-02  0.1085318E+00
         -2   -1    0    0    0  501 -0.00000000000E+00  0.00000000000E+00  0.71086335085E+02  0.71086335131E+02  0.25500000000E-02 0. -1.
          2   -1    0    0  501    0  0.00000000000E+00 -0.00000000000E+00 -0.31619164866E+03  0.31619164867E+03  0.25500000000E-02 0.  1.
    5000001    1    1    2    0    0  0.64933457598E+02  0.23761406262E+02 -0.71425489837E+02  0.16128099374E+03  0.12700000000E+03 0.  0.
   -5000001    1    1    2    0    0 -0.64933457598E+02 -0.23761406262E+02 -0.17367982374E+03  0.22599699006E+03  0.12700000000E+03 0.  0.
<mgrwt>
<rscale>  0 0.29984600E+03</rscale>
<asrwt>0</asrwt>
<pdfrwt beam="1">  1        2 0.45170235E-01 0.29984600E+03</pdfrwt>
<pdfrwt beam="2">  1       -2 0.10155191E-01 0.29984600E+03</pdfrwt>
<totfact> 0.72240877E+03</totfact>
</mgrwt>
</event>
<event>
 4    1  0.1383574E-004  0.3295219E+03  0.7818608E-02  0.1071349E+00
         -2   -1    0    0    0  501 -0.00000000000E+00  0.00000000000E+00  0.11357577695E+02  0.11357577981E+02  0.25500000000E-02 0. -1.
          2   -1    0    0  501    0  0.00000000000E+00 -0.00000000000E+00 -0.23901377701E+04  0.23901377701E+04  0.25500000000E-02 0.  1.
    5000001    1    1    2    0    0  0.44261037828E+02  0.94581645088E+02 -0.11121087513E+04  0.11241973145E+04  0.12700000000E+03 0.  0.
   -5000001    1    1    2    0    0 -0.44261037828E+02 -0.94581645088E+02 -0.12666714411E+04  0.12772980337E+04  0.12700000000E+03 0.  0.
<mgrwt>
<rscale>  0 0.32952193E+03</rscale>
<asrwt>0</asrwt>
<pdfrwt beam="1">  1        2 0.34144793E+00 0.32952193E+03</pdfrwt>
<pdfrwt beam="2">  1       -2 0.16225126E-02 0.32952193E+03</pdfrwt>
<totfact> 0.59786289E+03</totfact>
</mgrwt>
</event>
<event>
 4    1  0.1383574E-004  0.3863097E+03  0.7818608E-02  0.1048626E+00
          2   -1    0    0  501    0  0.00000000000E+00  0.00000000000E+00  0.20760151962E+04  0.20760151962E+04  0.25500000000E-02 0.  1.
         -2   -1    0    0    0  501 -0.00000000000E+00 -0.00000000000E+00 -0.17971352687E+02  0.17971352868E+02  0.25500000000E-02 0. -1.
    5000001    1    1    2    0    0 -0.17100285682E+02  0.14313943724E+03  0.11372259059E+04  0.11533399669E+04  0.12700000000E+03 0.  0.
   -5000001    1    1    2    0    0  0.17100285682E+02 -0.14313943724E+03  0.92081793766E+03  0.94064658219E+03  0.12700000000E+03 0.  0.
<mgrwt>
<rscale>  0 0.38630973E+03</rscale>
<asrwt>0</asrwt>
<pdfrwt beam="1">  1        2 0.29657326E+00 0.38630973E+03</pdfrwt>
<pdfrwt beam="2">  1       -2 0.25673390E-02 0.38630973E+03</pdfrwt>
<totfact> 0.43265933E+03</totfact>
</mgrwt>
</event>
<event>
 4    1  0.1383574E-004  0.3286436E+03  0.7818608E-02  0.1071739E+00
          2   -1    0    0  501    0  0.00000000000E+00  0.00000000000E+00  0.32445073881E+03  0.32445073882E+03  0.25500000000E-02 0.  1.
         -2   -1    0    0    0  501 -0.00000000000E+00 -0.00000000000E+00 -0.83222683855E+02  0.83222683894E+02  0.25500000000E-02 0. -1.
    5000001    1    1    2    0    0 -0.24889292821E+02 -0.98836699138E+02  0.14791827068E+03  0.21999314715E+03  0.12700000000E+03 0.  0.
   -5000001    1    1    2    0    0  0.24889292821E+02  0.98836699138E+02  0.93309784278E+02  0.18768027556E+03  0.12700000000E+03 0.  0.
<mgrwt>
<rscale>  0 0.32864364E+03</rscale>
<asrwt>0</asrwt>
<pdfrwt beam="1">  1        2 0.46350106E-01 0.32864364E+03</pdfrwt>
<pdfrwt beam="2">  1       -2 0.11888955E-01 0.32864364E+03</pdfrwt>
<totfact> 0.54695051E+03</totfact>
</mgrwt>
</event>
<event>
 4    1  0.1383574E-004  0.5665723E+03  0.7818608E-02  0.9977292E-01
          2   -1    0    0  501    0  0.00000000000E+00  0.00000000000E+00  0.10750873768E+03  0.10750873771E+03  0.25500000000E-02 0.  1.
         -2   -1    0    0    0  501 -0.00000000000E+00 -0.00000000000E+00 -0.74646066239E+03  0.74646066239E+03  0.25500000000E-02 0. -1.
    5000001    1    1    2    0    0  0.25114690706E+03  0.25735806278E+02 -0.34904826422E+03  0.44911111253E+03  0.12700000000E+03 0.  0.
   -5000001    1    1    2    0    0 -0.25114690706E+03 -0.25735806278E+02 -0.28990366049E+03  0.40485828757E+03  0.12700000000E+03 0.  0.
<mgrwt>
<rscale>  0 0.56657230E+03</rscale>
<asrwt>0</asrwt>
<pdfrwt beam="1">  1        2 0.15358392E-01 0.56657230E+03</pdfrwt>
<pdfrwt beam="2">  1       -2 0.10663723E+00 0.56657230E+03</pdfrwt>
<totfact> 0.27931896E+02</totfact>
</mgrwt>
</event>
<event>
 4    1  0.1383574E-004  0.1905672E+04  0.7818608E-02  0.8652038E-01
         -2   -1    0    0    0  501 -0.00000000000E+00  0.00000000000E+00  0.36943819766E+03  0.36943819767E+03  0.25500000000E-02 0. -1.
          2   -1    0    0  501    0  0.00000000000E+00 -0.00000000000E+00 -0.24575059744E+04  0.24575059744E+04  0.25500000000E-02 0.  1.
    5000001    1    1    2    0    0 -0.30487173336E+03  0.80572449211E+03 -0.16178552495E+04  0.18373141645E+04  0.12700000000E+03 0.  0.
   -5000001    1    1    2    0    0  0.30487173336E+03 -0.80572449211E+03 -0.47021252726E+03  0.98963000752E+03  0.12700000000E+03 0.  0.
<mgrwt>
<rscale>  0 0.19056721E+04</rscale>
<asrwt>0</asrwt>
<pdfrwt beam="1">  1        2 0.35107227E+00 0.19056721E+04</pdfrwt>
<pdfrwt beam="2">  1       -2 0.52776887E-01 0.19056721E+04</pdfrwt>
<totfact> 0.14765665E+01</totfact>
</mgrwt>
</event>
<event>
 4    1  0.1383574E-004  0.3320766E+03  0.7818608E-02  0.1070222E+00
         -2   -1    0    0    0  501 -0.00000000000E+00  0.00000000000E+00  0.18860650492E+03  0.18860650493E+03  0.25500000000E-02 0. -1.
          2   -1    0    0  501    0  0.00000000000E+00 -0.00000000000E+00 -0.14617051436E+03  0.14617051438E+03  0.25500000000E-02 0.  1.
    5000001    1    1    2    0    0  0.88862991917E+02 -0.20336256554E+02  0.77614988778E+02  0.17453733453E+03  0.12700000000E+03 0.  0.
   -5000001    1    1    2    0    0 -0.88862991917E+02  0.20336256554E+02 -0.35178998224E+02  0.16023968478E+03  0.12700000000E+03 0.  0.
<mgrwt>
<rscale>  0 0.33207656E+03</rscale>
<asrwt>0</asrwt>
<pdfrwt beam="1">  1        2 0.20881502E-01 0.33207656E+03</pdfrwt>
<pdfrwt beam="2">  1       -2 0.26943786E-01 0.33207656E+03</pdfrwt>
<totfact> 0.32926766E+03</totfact>
</mgrwt>
</event>
<event>
 4    1  0.1383574E-004  0.5479328E+03  0.7818608E-02  0.1001974E+00
         -2   -1    0    0    0  501 -0.00000000000E+00  0.00000000000E+00  0.20130190155E+03  0.20130190156E+03  0.25500000000E-02 0. -1.
          2   -1    0    0  501    0  0.00000000000E+00 -0.00000000000E+00 -0.37286074024E+03  0.37286074025E+03  0.25500000000E-02 0.  1.
    5000001    1    1    2    0    0  0.23975754272E+03  0.31050005170E+02 -0.10875609270E+03  0.29394671254E+03  0.12700000000E+03 0.  0.
   -5000001    1    1    2    0    0 -0.23975754272E+03 -0.31050005170E+02 -0.62802745987E+02  0.28021592927E+03  0.12700000000E+03 0.  0.
<mgrwt>
<rscale>  0 0.54793276E+03</rscale>
<asrwt>0</asrwt>
<pdfrwt beam="1">  1        2 0.53265820E-01 0.54793276E+03</pdfrwt>
<pdfrwt beam="2">  1       -2 0.28757415E-01 0.54793276E+03</pdfrwt>
<totfact> 0.10390969E+03</totfact>
</mgrwt>
</event>
<event>
 4    1  0.1383574E-004  0.4668165E+03  0.7818608E-02  0.1022823E+00
          2   -1    0    0  501    0  0.00000000000E+00  0.00000000000E+00  0.67319187990E+03  0.67319187991E+03  0.25500000000E-02 0.  1.
         -2   -1    0    0    0  501 -0.00000000000E+00 -0.00000000000E+00 -0.80927034958E+02  0.80927034998E+02  0.25500000000E-02 0. -1.
    5000001    1    1    2    0    0 -0.49919768975E+02 -0.16207975540E+03  0.45431950544E+03  0.50129536550E+03  0.12700000000E+03 0.  0.
   -5000001    1    1    2    0    0  0.49919768975E+02  0.16207975540E+03  0.13794533951E+03  0.25282354941E+03  0.12700000000E+03 0.  0.
<mgrwt>
<rscale>  0 0.46681655E+03</rscale>
<asrwt>0</asrwt>
<pdfrwt beam="1">  1        2 0.96170269E-01 0.46681655E+03</pdfrwt>
<pdfrwt beam="2">  1       -2 0.11561005E-01 0.46681655E+03</pdfrwt>
<totfact> 0.25418275E+03</totfact>
</mgrwt>
</event>
<event>
 4    1  0.1383574E-004  0.5418492E+03  0.7818608E-02  0.1003398E+00
          2   -1    0    0  501    0  0.00000000000E+00  0.00000000000E+00  0.71513472387E+03  0.71513472388E+03  0.25500000000E-02 0.  1.
         -2   -1    0    0    0  501 -0.00000000000E+00 -0.00000000000E+00 -0.10263820149E+03  0.10263820152E+03  0.25500000000E-02 0. -1.
    5000001    1    1    2    0    0 -0.88259844336E+02 -0.21018812041E+03  0.19635115442E+03  0.32657559910E+03  0.12700000000E+03 0.  0.
   -5000001    1    1    2    0    0  0.88259844336E+02  0.21018812041E+03  0.41614536797E+03  0.49119732630E+03  0.12700000000E+03 0.  0.
<mgrwt>
<rscale>  0 0.54184921E+03</rscale>
<asrwt>0</asrwt>
<pdfrwt beam="1">  1        2 0.10216210E+00 0.54184921E+03</pdfrwt>
<pdfrwt beam="2">  1       -2 0.14662600E-01 0.54184921E+03</pdfrwt>
<totfact> 0.15953510E+03</totfact>
</mgrwt>
</event>
<event>
 4    1  0.1383574E-004  0.4398848E+03  0.7818608E-02  0.1030782E+00
         -2   -1    0    0    0  501 -0.00000000000E+00  0.00000000000E+00  0.61100653452E+02  0.61100653505E+02  0.25500000000E-02 0. -1.
          2   -1    0    0  501    0  0.00000000000E+00 -0.00000000000E+00 -0.79172096882E+03  0.79172096883E+03  0.25500000000E-02 0.  1.
    5000001    1    1    2    0    0 -0.12193771738E+03 -0.99993167887E+02 -0.19877909920E+03  0.28374208504E+03  0.12700000000E+03 0.  0.
   -5000001    1    1    2    0    0  0.12193771738E+03  0.99993167887E+02 -0.53184121618E+03  0.56907953730E+03  0.12700000000E+03 0.  0.
<mgrwt>
<rscale>  0 0.43988484E+03</rscale>
<asrwt>0</asrwt>
<pdfrwt beam="1">  1        2 0.11310299E+00 0.43988484E+03</pdfrwt>
<pdfrwt beam="2">  1       -2 0.87286652E-02 0.43988484E+03</pdfrwt>
<totfact> 0.32742276E+03</totfact>
</mgrwt>
</event>
<event>
 4    1  0.1383574E-004  0.4716995E+03  0.7818608E-02  0.1021442E+00
          2   -1    0    0  501    0  0.00000000000E+00  0.00000000000E+00  0.18320615619E+04  0.18320615619E+04  0.25500000000E-02 0.  1.
         -2   -1    0    0    0  501 -0.00000000000E+00 -0.00000000000E+00 -0.30362026612E+02  0.30362026719E+02  0.25500000000E-02 0. -1.
    5000001    1    1    2    0    0 -0.33746368003E+02 -0.35721082361E+02  0.14054017747E+03  0.19569198900E+03  0.12700000000E+03 0.  0.
   -5000001    1    1    2    0    0  0.33746368003E+02  0.35721082361E+02  0.16611593578E+04  0.16667315996E+04  0.12700000000E+03 0.  0.
<mgrwt>
<rscale>  0 0.47169949E+03</rscale>
<asrwt>0</asrwt>
<pdfrwt beam="1">  1        2 0.26172301E+00 0.47169949E+03</pdfrwt>
<pdfrwt beam="2">  1       -2 0.43374336E-02 0.47169949E+03</pdfrwt>
<totfact> 0.25804976E+03</totfact>
</mgrwt>
</event>
<event>
 4    1  0.1383574E-004  0.5334863E+03  0.7818608E-02  0.1005390E+00
         -2   -1    0    0    0  501 -0.00000000000E+00  0.00000000000E+00  0.55803769041E+02  0.55803769099E+02  0.25500000000E-02 0. -1.
          2   -1    0    0  501    0  0.00000000000E+00 -0.00000000000E+00 -0.12750378860E+04  0.12750378860E+04  0.25500000000E-02 0.  1.
    5000001    1    1    2    0    0 -0.77683466043E+02  0.21098962602E+03 -0.77643141124E+03  0.81824573298E+03  0.12700000000E+03 0.  0.
   -5000001    1    1    2    0    0  0.77683466043E+02 -0.21098962602E+03 -0.44280270576E+03  0.51259592216E+03  0.12700000000E+03 0.  0.
<mgrwt>
<rscale>  0 0.53348634E+03</rscale>
<asrwt>0</asrwt>
<pdfrwt beam="1">  1        2 0.18214825E+00 0.53348634E+03</pdfrwt>
<pdfrwt beam="2">  1       -2 0.79719678E-02 0.53348634E+03</pdfrwt>
<totfact> 0.19352132E+03</totfact>
</mgrwt>
</event>
<event>
 4    1  0.1383574E-004  0.5523951E+03  0.7818608E-02  0.1000941E+00
          2   -1    0    0  501    0  0.00000000000E+00  0.00000000000E+00  0.44457652451E+04  0.44457652451E+04  0.25500000000E-02 0.  1.
         -2   -1    0    0    0  501 -0.00000000000E+00 -0.00000000000E+00 -0.17159042809E+02  0.17159042998E+02  0.25500000000E-02 0. -1.
    5000001    1    1    2    0    0  0.21194961100E+03  0.57878191704E+02  0.13335728765E+04  0.13575043792E+04  0.12700000000E+03 0.  0.
   -5000001    1    1    2    0    0 -0.21194961100E+03 -0.57878191704E+02  0.30950333259E+04  0.31054199089E+04  0.12700000000E+03 0.  0.
<mgrwt>
<rscale>  0 0.55239506E+03</rscale>
<asrwt>0</asrwt>
<pdfrwt beam="1">  1        2 0.63511050E+00 0.55239506E+03</pdfrwt>
<pdfrwt beam="2">  1       -2 0.24512873E-02 0.55239506E+03</pdfrwt>
<totfact> 0.18896631E+02</totfact>
</mgrwt>
</event>
<event>
 4    1  0.1383574E-004  0.5957151E+03  0.7818608E-02  0.9914336E-01
         -2   -1    0    0    0  501 -0.00000000000E+00  0.00000000000E+00  0.44894348674E+03  0.44894348675E+03  0.25500000000E-02 0. -1.
          2   -1    0    0  501    0  0.00000000000E+00 -0.00000000000E+00 -0.19761753922E+03  0.19761753923E+03  0.25500000000E-02 0.  1.
    5000001    1    1    2    0    0 -0.21507207185E+03  0.10935690990E+03  0.25579300978E+03  0.37386360305E+03  0.12700000000E+03 0.  0.
   -5000001    1    1    2    0    0  0.21507207185E+03 -0.10935690990E+03 -0.44670622521E+01  0.27269742294E+03  0.12700000000E+03 0.  0.
<mgrwt>
<rscale>  0 0.59571506E+03</rscale>
<asrwt>0</asrwt>
<pdfrwt beam="1">  1        2 0.28231077E-01 0.59571506E+03</pdfrwt>
<pdfrwt beam="2">  1       -2 0.64134783E-01 0.59571506E+03</pdfrwt>
<totfact> 0.43232360E+02</totfact>
</mgrwt>
</event>
<event>
 4    1  0.1383574E-004  0.4637311E+03  0.7818608E-02  0.1023705E+00
          2   -1    0    0  501    0  0.00000000000E+00  0.00000000000E+00  0.35225684691E+03  0.35225684692E+03  0.25500000000E-02 0. -1.
         -2   -1    0    0    0  501 -0.00000000000E+00 -0.00000000000E+00 -0.15262055477E+03  0.15262055479E+03  0.25500000000E-02 0.  1.
    5000001    1    1    2    0    0  0.13246670751E+03 -0.10177693398E+03 -0.75564701617E+01  0.20998112565E+03  0.12700000000E+03 0.  0.
   -5000001    1    1    2    0    0 -0.13246670751E+03  0.10177693398E+03  0.20719276230E+03  0.29489627607E+03  0.12700000000E+03 0.  0.
<mgrwt>
<rscale>  0 0.46373111E+03</rscale>
<asrwt>0</asrwt>
<pdfrwt beam="1">  1        2 0.50322406E-01 0.46373111E+03</pdfrwt>
<pdfrwt beam="2">  1       -2 0.21802937E-01 0.46373111E+03</pdfrwt>
<totfact> 0.18149678E+03</totfact>
</mgrwt>
</event>
<event>
 4    1  0.1383574E-004  0.4688707E+03  0.7818608E-02  0.1022239E+00
         -2   -1    0    0    0  501 -0.00000000000E+00  0.00000000000E+00  0.24656851385E+02  0.24656851517E+02  0.25500000000E-02 0. -1.
          2   -1    0    0  501    0  0.00000000000E+00 -0.00000000000E+00 -0.22289921479E+04  0.22289921479E+04  0.25500000000E-02 0.  1.
    5000001    1    1    2    0    0  0.76879900299E+02  0.17972001913E+03 -0.98237716026E+03  0.10096552329E+04  0.12700000000E+03 0.  0.
   -5000001    1    1    2    0    0 -0.76879900299E+02 -0.17972001913E+03 -0.12219581363E+04  0.12439937665E+04  0.12700000000E+03 0.  0.
<mgrwt>
<rscale>  0 0.46887068E+03</rscale>
<asrwt>0</asrwt>
<pdfrwt beam="1">  1        2 0.31842732E+00 0.46887068E+03</pdfrwt>
<pdfrwt beam="2">  1       -2 0.35224087E-02 0.46887068E+03</pdfrwt>
<totfact> 0.22481231E+03</totfact>
</mgrwt>
</event>
<event>
 4    1  0.1383574E-004  0.2842064E+03  0.7818608E-02  0.1093413E+00
         -2   -1    0    0    0  501 -0.00000000000E+00  0.00000000000E+00  0.10771551113E+02  0.10771551414E+02  0.25500000000E-02 0. -1.
          2   -1    0    0  501    0  0.00000000000E+00 -0.00000000000E+00 -0.18746895656E+04  0.18746895656E+04  0.25500000000E-02 0.  1.
    5000001    1    1    2    0    0 -0.15442758826E+02 -0.61393913476E+02 -0.88203820491E+03  0.89338014660E+03  0.12700000000E+03 0.  0.
   -5000001    1    1    2    0    0  0.15442758826E+02  0.61393913476E+02 -0.98187980954E+03  0.99208097038E+03  0.12700000000E+03 0.  0.
<mgrwt>
<rscale>  0 0.28420637E+03</rscale>
<asrwt>0</asrwt>
<pdfrwt beam="1">  1        2 0.26781259E+00 0.28420637E+03</pdfrwt>
<pdfrwt beam="2">  1       -2 0.15387942E-02 0.28420637E+03</pdfrwt>
<totfact> 0.11566774E+04</totfact>
</mgrwt>
</event>
<event>
 4    1  0.1383574E-004  0.5187696E+03  0.7818608E-02  0.1008993E+00
          2   -1    0    0  501    0  0.00000000000E+00  0.00000000000E+00  0.69211907308E+03  0.69211907308E+03  0.25500000000E-02 0.  1.
         -2   -1    0    0    0  501 -0.00000000000E+00 -0.00000000000E+00 -0.97209401879E+02  0.97209401912E+02  0.25500000000E-02 0. -1.
    5000001    1    1    2    0    0 -0.11000613779E+03  0.18131423641E+03  0.41702188255E+03  0.48478083007E+03  0.12700000000E+03 0.  0.
   -5000001    1    1    2    0    0  0.11000613779E+03 -0.18131423641E+03  0.17788778865E+03  0.30454764492E+03  0.12700000000E+03 0.  0.
<mgrwt>
<rscale>  0 0.51876963E+03</rscale>
<asrwt>0</asrwt>
<pdfrwt beam="1">  1        2 0.98874157E-01 0.51876963E+03</pdfrwt>
<pdfrwt beam="2">  1       -2 0.13887057E-01 0.51876963E+03</pdfrwt>
<totfact> 0.18181567E+03</totfact>
</mgrwt>
</event>
<event>
 4    1  0.1383574E-004  0.3294276E+03  0.7818608E-02  0.1071390E+00
          2   -1    0    0  501    0  0.00000000000E+00  0.00000000000E+00  0.35268341896E+03  0.35268341897E+03  0.25500000000E-02 0.  1.
         -2   -1    0    0    0  501 -0.00000000000E+00 -0.00000000000E+00 -0.76926323175E+02  0.76926323217E+02  0.25500000000E-02 0. -1.
    5000001    1    1    2    0    0 -0.92691229346E+02 -0.38617447301E+02  0.17740549564E+03  0.24017635420E+03  0.12700000000E+03 0.  0.
   -5000001    1    1    2    0    0  0.92691229346E+02  0.38617447301E+02  0.98351600149E+02  0.18943338799E+03  0.12700000000E+03 0.  0.
<mgrwt>
<rscale>  0 0.32942762E+03</rscale>
<asrwt>0</asrwt>
<pdfrwt beam="1">  1        2 0.50383344E-01 0.32942762E+03</pdfrwt>
<pdfrwt beam="2">  1       -2 0.10989475E-01 0.32942762E+03</pdfrwt>
<totfact> 0.56744370E+03</totfact>
</mgrwt>
</event>
<event>
 4    1  0.1383574E-004  0.4742917E+03  0.7818608E-02  0.1020716E+00
         -2   -1    0    0    0  501 -0.00000000000E+00  0.00000000000E+00  0.10394719470E+03  0.10394719473E+03  0.25500000000E-02 0. -1.
          2   -1    0    0  501    0  0.00000000000E+00 -0.00000000000E+00 -0.54102607496E+03  0.54102607496E+03  0.25500000000E-02 0.  1.
    5000001    1    1    2    0    0  0.49136601654E+02  0.14673092784E+03 -0.39143387984E+03  0.43965196814E+03  0.12700000000E+03 0.  0.
   -5000001    1    1    2    0    0 -0.49136601654E+02 -0.14673092784E+03 -0.45645000425E+02  0.20532130155E+03  0.12700000000E+03 0.  0.
<mgrwt>
<rscale>  0 0.47429165E+03</rscale>
<asrwt>0</asrwt>
<pdfrwt beam="1">  1        2 0.77289438E-01 0.47429165E+03</pdfrwt>
<pdfrwt beam="2">  1       -2 0.14849600E-01 0.47429165E+03</pdfrwt>
<totfact> 0.21709448E+03</totfact>
</mgrwt>
</event>
<event>
 4    1  0.1383574E-004  0.8575640E+03  0.7818608E-02  0.9480241E-01
         -2   -1    0    0    0  501 -0.00000000000E+00  0.00000000000E+00  0.10606947885E+03  0.10606947888E+03  0.25500000000E-02 0. -1.
          2   -1    0    0  501    0  0.00000000000E+00 -0.00000000000E+00 -0.17333354370E+04  0.17333354370E+04  0.25500000000E-02 0.  1.
    5000001    1    1    2    0    0  0.36776025746E+03  0.11211695500E+03 -0.11162654764E+04  0.11874322854E+04  0.12700000000E+03 0.  0.
   -5000001    1    1    2    0    0 -0.36776025746E+03 -0.11211695500E+03 -0.51100048176E+03  0.65197263050E+03  0.12700000000E+03 0.  0.
<mgrwt>
<rscale>  0 0.85756396E+03</rscale>
<asrwt>0</asrwt>
<pdfrwt beam="1">  1        2 0.24761933E+00 0.85756396E+03</pdfrwt>
<pdfrwt beam="2">  1       -2 0.15152784E-01 0.85756396E+03</pdfrwt>
<totfact> 0.38249009E+02</totfact>
</mgrwt>
</event>
<event>
 4    1  0.1383574E-004  0.9248694E+03  0.7818608E-02  0.9395016E-01
         -2   -1    0    0    0  501 -0.00000000000E+00  0.00000000000E+00  0.36621659097E+03  0.36621659098E+03  0.25500000000E-02 0. -1.
          2   -1    0    0  501    0  0.00000000000E+00 -0.00000000000E+00 -0.58393276547E+03  0.58393276548E+03  0.25500000000E-02 0.  1.
    5000001    1    1    2    0    0  0.16285769011E+03  0.41287859044E+03 -0.13652959817E+03  0.48141529769E+03  0.12700000000E+03 0.  0.
   -5000001    1    1    2    0    0 -0.16285769011E+03 -0.41287859044E+03 -0.81186576334E+02  0.46873405877E+03  0.12700000000E+03 0.  0.
<mgrwt>
<rscale>  0 0.92486943E+03</rscale>
<asrwt>0</asrwt>
<pdfrwt beam="1">  1        2 0.83418967E-01 0.92486943E+03</pdfrwt>
<pdfrwt beam="2">  1       -2 0.52316656E-01 0.92486943E+03</pdfrwt>
<totfact> 0.19361001E+02</totfact>
</mgrwt>
</event>
<event>
 4    1  0.1383574E-004  0.3239359E+03  0.7818608E-02  0.1073852E+00
          2   -1    0    0  501    0  0.00000000000E+00  0.00000000000E+00  0.92323641610E+03  0.92323641610E+03  0.25500000000E-02 0.  1.
         -2   -1    0    0    0  501 -0.00000000000E+00 -0.00000000000E+00 -0.28414834467E+02  0.28414834582E+02  0.25500000000E-02 0. -1.
    5000001    1    1    2    0    0  0.90448126255E+02 -0.17231521911E+02  0.32891888167E+03  0.36440968649E+03  0.12700000000E+03 0.  0.
   -5000001    1    1    2    0    0 -0.90448126255E+02  0.17231521911E+02  0.56590269996E+03  0.58724156419E+03  0.12700000000E+03 0.  0.
<mgrwt>
<rscale>  0 0.32393586E+03</rscale>
<asrwt>0</asrwt>
<pdfrwt beam="1">  1        2 0.13189094E+00 0.32393586E+03</pdfrwt>
<pdfrwt beam="2">  1       -2 0.40592615E-02 0.32393586E+03</pdfrwt>
<totfact> 0.87438875E+03</totfact>
</mgrwt>
</event>
<event>
 4    1  0.1383574E-004  0.3441769E+03  0.7818608E-02  0.1065031E+00
         -2   -1    0    0    0  501 -0.00000000000E+00  0.00000000000E+00  0.10658113991E+02  0.10658114296E+02  0.25500000000E-02 0. -1.
          2   -1    0    0  501    0  0.00000000000E+00 -0.00000000000E+00 -0.27785804651E+04  0.27785804651E+04  0.25500000000E-02 0.  1.
    5000001    1    1    2    0    0 -0.18558809643E+02  0.10800957926E+03 -0.16951969939E+04  0.17034765471E+04  0.12700000000E+03 0.  0.
   -5000001    1    1    2    0    0  0.18558809643E+02 -0.10800957926E+03 -0.10727253573E+04  0.10857620323E+04  0.12700000000E+03 0.  0.
<mgrwt>
<rscale>  0 0.34417686E+03</rscale>
<asrwt>0</asrwt>
<pdfrwt beam="1">  1        2 0.39693960E+00 0.34417686E+03</pdfrwt>
<pdfrwt beam="2">  1       -2 0.15225895E-02 0.34417686E+03</pdfrwt>
<totfact> 0.41685584E+03</totfact>
</mgrwt>
</event>
<event>
 4    1  0.1383574E-004  0.5444189E+03  0.7818608E-02  0.1002794E+00
          2   -1    0    0  501    0  0.00000000000E+00  0.00000000000E+00  0.58148332769E+03  0.58148332769E+03  0.25500000000E-02 0.  1.
         -2   -1    0    0    0  501 -0.00000000000E+00 -0.00000000000E+00 -0.12742926935E+03  0.12742926938E+03  0.25500000000E-02 0. -1.
    5000001    1    1    2    0    0  0.10615657737E+03  0.14643778861E+03  0.43396472509E+03  0.48699859084E+03  0.12700000000E+03 0.  0.
   -5000001    1    1    2    0    0 -0.10615657737E+03 -0.14643778861E+03  0.20089333246E+02  0.22191400623E+03  0.12700000000E+03 0.  0.
<mgrwt>
<rscale>  0 0.54441894E+03</rscale>
<asrwt>0</asrwt>
<pdfrwt beam="1">  1        2 0.83069045E-01 0.54441894E+03</pdfrwt>
<pdfrwt beam="2">  1       -2 0.18204182E-01 0.54441894E+03</pdfrwt>
<totfact> 0.14150777E+03</totfact>
</mgrwt>
</event>
<event>
 4    1  0.1383574E-004  0.2887358E+03  0.7818608E-02  0.1091011E+00
          2   -1    0    0  501    0  0.00000000000E+00  0.00000000000E+00  0.21787047224E+03  0.21787047225E+03  0.25500000000E-02 0.  1.
         -2   -1    0    0    0  501 -0.00000000000E+00 -0.00000000000E+00 -0.95662780511E+02  0.95662780545E+02  0.25500000000E-02 0. -1.
    5000001    1    1    2    0    0  0.37431587170E+02 -0.56797611494E+02  0.51033620754E+02  0.15284149579E+03  0.12700000000E+03 0.  0.
   -5000001    1    1    2    0    0 -0.37431587170E+02  0.56797611494E+02  0.71174070971E+02  0.16069175700E+03  0.12700000000E+03 0.  0.
<mgrwt>
<rscale>  0 0.28873583E+03</rscale>
<asrwt>0</asrwt>
<pdfrwt beam="1">  1        2 0.31124353E-01 0.28873583E+03</pdfrwt>
<pdfrwt beam="2">  1       -2 0.13666111E-01 0.28873583E+03</pdfrwt>
<totfact> 0.66896981E+03</totfact>
</mgrwt>
</event>
<event>
 4    1  0.1383574E-004  0.1404476E+04  0.7818608E-02  0.8950585E-01
         -2   -1    0    0    0  501 -0.00000000000E+00  0.00000000000E+00  0.18970044980E+03  0.18970044982E+03  0.25500000000E-02 0. -1.
          2   -1    0    0  501    0  0.00000000000E+00 -0.00000000000E+00 -0.25995616065E+04  0.25995616065E+04  0.25500000000E-02 0.  1.
    5000001    1    1    2    0    0  0.67249598865E+03  0.15214551686E+03 -0.11252461261E+04  0.13257854115E+04  0.12700000000E+03 0.  0.
   -5000001    1    1    2    0    0 -0.67249598865E+03 -0.15214551686E+03 -0.12846150306E+04  0.14634766448E+04  0.12700000000E+03 0.  0.
<mgrwt>
<rscale>  0 0.14044757E+04</rscale>
<asrwt>0</asrwt>
<pdfrwt beam="1">  1        2 0.37136592E+00 0.14044757E+04</pdfrwt>
<pdfrwt beam="2">  1       -2 0.27100066E-01 0.14044757E+04</pdfrwt>
<totfact> 0.47200777E+01</totfact>
</mgrwt>
</event>
<event>
 4    1  0.1383574E-004  0.3953499E+03  0.7818608E-02  0.1045402E+00
         -2   -1    0    0    0  501 -0.00000000000E+00  0.00000000000E+00  0.17446265766E+02  0.17446265953E+02  0.25500000000E-02 0. -1.
          2   -1    0    0  501    0  0.00000000000E+00 -0.00000000000E+00 -0.22397569475E+04  0.22397569475E+04  0.25500000000E-02 0.  1.
    5000001    1    1    2    0    0 -0.84817205978E+02  0.10564202763E+03 -0.72425482186E+03  0.74768191326E+03  0.12700000000E+03 0.  0.
   -5000001    1    1    2    0    0  0.84817205978E+02 -0.10564202763E+03 -0.14980558598E+04  0.15095213001E+04  0.12700000000E+03 0.  0.
<mgrwt>
<rscale>  0 0.39534995E+03</rscale>
<asrwt>0</asrwt>
<pdfrwt beam="1">  1        2 0.31996510E+00 0.39534995E+03</pdfrwt>
<pdfrwt beam="2">  1       -2 0.24923251E-02 0.39534995E+03</pdfrwt>
<totfact> 0.37513103E+03</totfact>
</mgrwt>
</event>
<event>
 4    1  0.1383574E-004  0.3713408E+03  0.7818608E-02  0.1054181E+00
         -2   -1    0    0    0  501 -0.00000000000E+00  0.00000000000E+00  0.10737908287E+03  0.10737908290E+03  0.25500000000E-02 0. -1.
          2   -1    0    0  501    0  0.00000000000E+00 -0.00000000000E+00 -0.32104479463E+03  0.32104479464E+03  0.25500000000E-02 0.  1.
    5000001    1    1    2    0    0  0.41460632071E+02  0.85753913717E+02 -0.21792478794E+03  0.26961626607E+03  0.12700000000E+03 0.  0.
   -5000001    1    1    2    0    0 -0.41460632071E+02 -0.85753913717E+02  0.42590761797E+01  0.15880761147E+03  0.12700000000E+03 0.  0.
<mgrwt>
<rscale>  0 0.37134079E+03</rscale>
<asrwt>0</asrwt>
<pdfrwt beam="1">  1        2 0.45863542E-01 0.37134079E+03</pdfrwt>
<pdfrwt beam="2">  1       -2 0.15339869E-01 0.37134079E+03</pdfrwt>
<totfact> 0.36500675E+03</totfact>
</mgrwt>
</event>
<event>
 4    1  0.1383574E-004  0.4497921E+03  0.7818608E-02  0.1027784E+00
         -2   -1    0    0    0  501 -0.00000000000E+00  0.00000000000E+00  0.20797083728E+04  0.20797083728E+04  0.25500000000E-02 0. -1.
          2   -1    0    0  501    0  0.00000000000E+00 -0.00000000000E+00 -0.24319866714E+02  0.24319866847E+02  0.25500000000E-02 0.  1.
    5000001    1    1    2    0    0 -0.16122027480E+03  0.82542235500E+02  0.12173626651E+04  0.12372978850E+04  0.12700000000E+03 0.  0.
   -5000001    1    1    2    0    0  0.16122027480E+03 -0.82542235500E+02  0.83802584093E+03  0.86673035468E+03  0.12700000000E+03 0.  0.
<mgrwt>
<rscale>  0 0.44979209E+03</rscale>
<asrwt>0</asrwt>
<pdfrwt beam="1">  1        2 0.34742663E-02 0.44979209E+03</pdfrwt>
<pdfrwt beam="2">  1       -2 0.29710123E+00 0.44979209E+03</pdfrwt>
<totfact> 0.96075268E+01</totfact>
</mgrwt>
</event>
<event>
 4    1  0.1383574E-004  0.3814243E+03  0.7818608E-02  0.1050409E+00
          2   -1    0    0  501    0  0.00000000000E+00  0.00000000000E+00  0.60018756230E+03  0.60018756231E+03  0.25500000000E-02 0.  1.
         -2   -1    0    0    0  501 -0.00000000000E+00 -0.00000000000E+00 -0.60599582369E+02  0.60599582422E+02  0.25500000000E-02 0. -1.
    5000001    1    1    2    0    0  0.59719109890E+02 -0.11028494774E+03  0.15341229252E+03  0.23535818082E+03  0.12700000000E+03 0.  0.
   -5000001    1    1    2    0    0 -0.59719109890E+02  0.11028494774E+03  0.38617568741E+03  0.42542896391E+03  0.12700000000E+03 0.  0.
<mgrwt>
<rscale>  0 0.38142426E+03</rscale>
<asrwt>0</asrwt>
<pdfrwt beam="1">  1        2 0.85741087E-01 0.38142426E+03</pdfrwt>
<pdfrwt beam="2">  1       -2 0.86570826E-02 0.38142426E+03</pdfrwt>
<totfact> 0.46194819E+03</totfact>
</mgrwt>
</event>
<event>
 4    1  0.1383574E-004  0.3323863E+03  0.7818608E-02  0.1070086E+00
          2   -1    0    0  501    0  0.00000000000E+00  0.00000000000E+00  0.41599827689E+04  0.41599827689E+04  0.25500000000E-02 0.  1.
         -2   -1    0    0    0  501 -0.00000000000E+00 -0.00000000000E+00 -0.66394875572E+01  0.66394880468E+01  0.25500000000E-02 0. -1.
    5000001    1    1    2    0    0 -0.52883767338E+02  0.19982626560E+01  0.32452630392E+04  0.32481782401E+04  0.12700000000E+03 0.  0.
   -5000001    1    1    2    0    0  0.52883767338E+02 -0.19982626560E+01  0.90808024214E+03  0.91844401684E+03  0.12700000000E+03 0.  0.
<mgrwt>
<rscale>  0 0.33238625E+03</rscale>
<asrwt>0</asrwt>
<pdfrwt beam="1">  1        2 0.59428155E+00 0.33238625E+03</pdfrwt>
<pdfrwt beam="2">  1       -2 0.94850097E-03 0.33238625E+03</pdfrwt>
<totfact> 0.12906081E+03</totfact>
</mgrwt>
</event>
<event>
 4    1  0.1383574E-004  0.2945074E+03  0.7818608E-02  0.1088019E+00
         -2   -1    0    0    0  501 -0.00000000000E+00  0.00000000000E+00  0.35345489102E+02  0.35345489194E+02  0.25500000000E-02 0. -1.
          2   -1    0    0  501    0  0.00000000000E+00 -0.00000000000E+00 -0.61347706771E+03  0.61347706771E+03  0.25500000000E-02 0.  1.
    5000001    1    1    2    0    0 -0.40326919695E+02  0.61415910319E+02 -0.31662386321E+03  0.34896682543E+03  0.12700000000E+03 0.  0.
   -5000001    1    1    2    0    0  0.40326919695E+02 -0.61415910319E+02 -0.26150771539E+03  0.29985573148E+03  0.12700000000E+03 0.  0.
<mgrwt>
<rscale>  0 0.29450737E+03</rscale>
<asrwt>0</asrwt>
<pdfrwt beam="1">  1        2 0.87639575E-01 0.29450737E+03</pdfrwt>
<pdfrwt beam="2">  1       -2 0.50493560E-02 0.29450737E+03</pdfrwt>
<totfact> 0.10323957E+04</totfact>
</mgrwt>
</event>
<event>
 4    1  0.1383574E-004  0.3969507E+03  0.7818608E-02  0.1044841E+00
          2   -1    0    0  501    0  0.00000000000E+00  0.00000000000E+00  0.11568261386E+04  0.11568261387E+04  0.25500000000E-02 0.  1.
         -2   -1    0    0    0  501 -0.00000000000E+00 -0.00000000000E+00 -0.34052193474E+02  0.34052193569E+02  0.25500000000E-02 0. -1.
    5000001    1    1    2    0    0 -0.12049156771E+03 -0.89772235797E+02  0.48279925313E+03  0.52134574999E+03  0.12700000000E+03 0.  0.
   -5000001    1    1    2    0    0  0.12049156771E+03  0.89772235797E+02  0.63997469204E+03  0.66953258223E+03  0.12700000000E+03 0.  0.
<mgrwt>
<rscale>  0 0.39695072E+03</rscale>
<asrwt>0</asrwt>
<pdfrwt beam="1">  1        2 0.16526086E+00 0.39695072E+03</pdfrwt>
<pdfrwt beam="2">  1       -2 0.48645996E-02 0.39695072E+03</pdfrwt>
<totfact> 0.48594340E+03</totfact>
</mgrwt>
</event>
<event>
 4    1  0.1383574E-004  0.3244919E+03  0.7818608E-02  0.1073600E+00
         -2   -1    0    0    0  501 -0.00000000000E+00  0.00000000000E+00  0.33275810558E+02  0.33275810656E+02  0.25500000000E-02 0. -1.
          2   -1    0    0  501    0  0.00000000000E+00 -0.00000000000E+00 -0.79107763406E+03  0.79107763407E+03  0.25500000000E-02 0.  1.
    5000001    1    1    2    0    0  0.11061510251E+02  0.10014612681E+03 -0.39558793524E+03  0.42751657071E+03  0.12700000000E+03 0.  0.
   -5000001    1    1    2    0    0 -0.11061510251E+02 -0.10014612681E+03 -0.36221388827E+03  0.39683687401E+03  0.12700000000E+03 0.  0.
<mgrwt>
<rscale>  0 0.32449191E+03</rscale>
<asrwt>0</asrwt>
<pdfrwt beam="1">  1        2 0.11301108E+00 0.32449191E+03</pdfrwt>
<pdfrwt beam="2">  1       -2 0.47536877E-02 0.32449191E+03</pdfrwt>
<totfact> 0.83841373E+03</totfact>
</mgrwt>
</event>
<event>
 4    1  0.1383574E-004  0.3866711E+03  0.7818608E-02  0.1048495E+00
         -2   -1    0    0    0  501 -0.00000000000E+00  0.00000000000E+00  0.26381454271E+02  0.26381454394E+02  0.25500000000E-02 0.  1.
          2   -1    0    0  501    0  0.00000000000E+00 -0.00000000000E+00 -0.14168523525E+04  0.14168523525E+04  0.25500000000E-02 0. -1.
    5000001    1    1    2    0    0  0.83057940680E+02 -0.38957067455E+01 -0.11421313983E+04  0.11521748691E+04  0.12700000000E+03 0.  0.
   -5000001    1    1    2    0    0 -0.83057940680E+02  0.38957067455E+01 -0.24833949998E+03  0.29105893783E+03  0.12700000000E+03 0.  0.
<mgrwt>
<rscale>  0 0.38667105E+03</rscale>
<asrwt>0</asrwt>
<pdfrwt beam="1">  1        2 0.20240743E+00 0.38667105E+03</pdfrwt>
<pdfrwt beam="2">  1       -2 0.37687801E-02 0.38667105E+03</pdfrwt>
<totfact> 0.51950219E+03</totfact>
</mgrwt>
</event>
<event>
 4    1  0.1383574E-004  0.5158828E+03  0.7818608E-02  0.1009714E+00
          2   -1    0    0  501    0  0.00000000000E+00  0.00000000000E+00  0.31335107015E+03  0.31335107016E+03  0.25500000000E-02 0.  1.
         -2   -1    0    0    0  501 -0.00000000000E+00 -0.00000000000E+00 -0.21232975208E+03  0.21232975210E+03  0.25500000000E-02 0. -1.
    5000001    1    1    2    0    0  0.22207188287E+03 -0.30657351759E+02  0.38073908396E+02  0.26045041155E+03  0.12700000000E+03 0.  0.
   -5000001    1    1    2    0    0 -0.22207188287E+03  0.30657351759E+02  0.62947409672E+02  0.26523041070E+03  0.12700000000E+03 0.  0.
<mgrwt>
<rscale>  0 0.51588276E+03</rscale>
<asrwt>0</asrwt>
<pdfrwt beam="1">  1        2 0.44764438E-01 0.51588276E+03</pdfrwt>
<pdfrwt beam="2">  1       -2 0.30332822E-01 0.51588276E+03</pdfrwt>
<totfact> 0.11409037E+03</totfact>
</mgrwt>
</event>
<event>
 4    1  0.1383574E-004  0.2993912E+03  0.7818608E-02  0.1085545E+00
         -2   -1    0    0    0  501 -0.00000000000E+00  0.00000000000E+00  0.61385884349E+03  0.61385884350E+03  0.25500000000E-02 0. -1.
          2   -1    0    0  501    0  0.00000000000E+00 -0.00000000000E+00 -0.36504762811E+02  0.36504762900E+02  0.25500000000E-02 0.  1.
    5000001    1    1    2    0    0  0.26494676532E+02  0.74453050198E+02  0.30144501542E+03  0.33651645114E+03  0.12700000000E+03 0.  0.
   -5000001    1    1    2    0    0 -0.26494676532E+02 -0.74453050198E+02  0.27590906526E+03  0.31384715525E+03  0.12700000000E+03 0.  0.
<mgrwt>
<rscale>  0 0.29939119E+03</rscale>
<asrwt>0</asrwt>
<pdfrwt beam="1">  1        2 0.52149664E-02 0.29939119E+03</pdfrwt>
<pdfrwt beam="2">  1       -2 0.87694117E-01 0.29939119E+03</pdfrwt>
<totfact> 0.17273706E+03</totfact>
</mgrwt>
</event>
<event>
 4    1  0.1383574E-004  0.5080576E+03  0.7818608E-02  0.1011697E+00
         -2   -1    0    0    0  501 -0.00000000000E+00  0.00000000000E+00  0.76276378658E+02  0.76276378700E+02  0.25500000000E-02 0. -1.
          2   -1    0    0  501    0  0.00000000000E+00 -0.00000000000E+00 -0.84601057918E+03  0.84601057918E+03  0.25500000000E-02 0.  1.
    5000001    1    1    2    0    0  0.15560415085E+03 -0.15391747551E+03 -0.34434103524E+03  0.42732071045E+03  0.12700000000E+03 0.  0.
   -5000001    1    1    2    0    0 -0.15560415085E+03  0.15391747551E+03 -0.42539316528E+03  0.49496624743E+03  0.12700000000E+03 0.  0.
<mgrwt>
<rscale>  0 0.50805757E+03</rscale>
<asrwt>0</asrwt>
<pdfrwt beam="1">  1        2 0.12085865E+00 0.50805757E+03</pdfrwt>
<pdfrwt beam="2">  1       -2 0.10896626E-01 0.50805757E+03</pdfrwt>
<totfact> 0.21068819E+03</totfact>
</mgrwt>
</event>
<event>
 4    1  0.1383574E-004  0.3600771E+03  0.7818608E-02  0.1058553E+00
          2   -1    0    0  501    0  0.00000000000E+00  0.00000000000E+00  0.36032498648E+03  0.36032498648E+03  0.25500000000E-02 0.  1.
         -2   -1    0    0    0  501 -0.00000000000E+00 -0.00000000000E+00 -0.89957339492E+02  0.89957339528E+02  0.25500000000E-02 0. -1.
    5000001    1    1    2    0    0 -0.81372773926E+02  0.94762937490E+02  0.10249448860E+03  0.20551316954E+03  0.12700000000E+03 0.  0.
   -5000001    1    1    2    0    0  0.81372773926E+02 -0.94762937490E+02  0.16787315838E+03  0.24476915648E+03  0.12700000000E+03 0.  0.
<mgrwt>
<rscale>  0 0.36007709E+03</rscale>
<asrwt>0</asrwt>
<pdfrwt beam="1">  1        2 0.51474997E-01 0.36007709E+03</pdfrwt>
<pdfrwt beam="2">  1       -2 0.12851049E-01 0.36007709E+03</pdfrwt>
<totfact> 0.43107871E+03</totfact>
</mgrwt>
</event>
<event>
 4    1  0.1383574E-004  0.3615211E+03  0.7818608E-02  0.1057983E+00
          2   -1    0    0  501    0  0.00000000000E+00  0.00000000000E+00  0.34153718790E+03  0.34153718791E+03  0.25500000000E-02 0.  1.
         -2   -1    0    0    0  501 -0.00000000000E+00 -0.00000000000E+00 -0.95668557708E+02  0.95668557742E+02  0.25500000000E-02 0. -1.
    5000001    1    1    2    0    0 -0.11646619345E+03  0.54250052617E+02  0.11548646684E+03  0.21441447351E+03  0.12700000000E+03 0.  0.
   -5000001    1    1    2    0    0  0.11646619345E+03 -0.54250052617E+02  0.13038216335E+03  0.22279127215E+03  0.12700000000E+03 0.  0.
<mgrwt>
<rscale>  0 0.36152107E+03</rscale>
<asrwt>0</asrwt>
<pdfrwt beam="1">  1        2 0.48791026E-01 0.36152107E+03</pdfrwt>
<pdfrwt beam="2">  1       -2 0.13666937E-01 0.36152107E+03</pdfrwt>
<totfact> 0.41303100E+03</totfact>
</mgrwt>
</event>
<event>
 4    1  0.1383574E-004  0.3133200E+03  0.7818608E-02  0.1078765E+00
         -2   -1    0    0    0  501 -0.00000000000E+00  0.00000000000E+00  0.47698454245E+02  0.47698454313E+02  0.25500000000E-02 0. -1.
          2   -1    0    0  501    0  0.00000000000E+00 -0.00000000000E+00 -0.51453158564E+03  0.51453158564E+03  0.25500000000E-02 0.  1.
    5000001    1    1    2    0    0  0.66397601749E+02 -0.16837905863E+02 -0.12395348677E+03  0.19022519148E+03  0.12700000000E+03 0.  0.
   -5000001    1    1    2    0    0 -0.66397601749E+02  0.16837905863E+02 -0.34287964462E+03  0.37200484848E+03  0.12700000000E+03 0.  0.
<mgrwt>
<rscale>  0 0.31332004E+03</rscale>
<asrwt>0</asrwt>
<pdfrwt beam="1">  1        2 0.73504509E-01 0.31332004E+03</pdfrwt>
<pdfrwt beam="2">  1       -2 0.68140652E-02 0.31332004E+03</pdfrwt>
<totfact> 0.79661401E+03</totfact>
</mgrwt>
</event>
<event>
 4    1  0.1383574E-004  0.4148167E+03  0.7818608E-02  0.1038767E+00
          2   -1    0    0  501    0  0.00000000000E+00  0.00000000000E+00  0.13534876405E+03  0.13534876407E+03  0.25500000000E-02 0.  1.
         -2   -1    0    0    0  501 -0.00000000000E+00 -0.00000000000E+00 -0.31783238796E+03  0.31783238797E+03  0.25500000000E-02 0. -1.
    5000001    1    1    2    0    0 -0.94428366740E+02 -0.13400931284E+03 -0.87152862715E+02  0.22494406828E+03  0.12700000000E+03 0.  0.
   -5000001    1    1    2    0    0  0.94428366740E+02  0.13400931284E+03 -0.95330761192E+02  0.22823708376E+03  0.12700000000E+03 0.  0.
<mgrwt>
<rscale>  0 0.41481669E+03</rscale>
<asrwt>0</asrwt>
<pdfrwt beam="1">  1        2 0.19335538E-01 0.41481669E+03</pdfrwt>
<pdfrwt beam="2">  1       -2 0.45404626E-01 0.41481669E+03</pdfrwt>
<totfact> 0.13550845E+03</totfact>
</mgrwt>
</event>
<event>
 4    1  0.1383574E-004  0.5300962E+03  0.7818608E-02  0.1006209E+00
         -2   -1    0    0    0  501 -0.00000000000E+00  0.00000000000E+00  0.28959725081E+02  0.28959725194E+02  0.25500000000E-02 0. -1.
          2   -1    0    0  501    0  0.00000000000E+00 -0.00000000000E+00 -0.24257993509E+04  0.24257993509E+04  0.25500000000E-02 0.  1.
    5000001    1    1    2    0    0 -0.19364835494E+03  0.12618872618E+03 -0.13207813464E+04  0.13468539806E+04  0.12700000000E+03 0.  0.
   -5000001    1    1    2    0    0  0.19364835494E+03 -0.12618872618E+03 -0.10760582795E+04  0.11079050956E+04  0.12700000000E+03 0.  0.
<mgrwt>
<rscale>  0 0.53009615E+03</rscale>
<asrwt>0</asrwt>
<pdfrwt beam="1">  1        2 0.34654264E+00 0.53009615E+03</pdfrwt>
<pdfrwt beam="2">  1       -2 0.41371051E-02 0.53009615E+03</pdfrwt>
<totfact> 0.13947860E+03</totfact>
</mgrwt>
</event>
<event>
 4    1  0.1383574E-004  0.4507103E+03  0.7818608E-02  0.1027510E+00
         -2   -1    0    0    0  501 -0.00000000000E+00  0.00000000000E+00  0.14985448287E+02  0.14985448504E+02  0.25500000000E-02 0. -1.
          2   -1    0    0  501    0  0.00000000000E+00 -0.00000000000E+00 -0.33889498756E+04  0.33889498756E+04  0.25500000000E-02 0.  1.
    5000001    1    1    2    0    0  0.10259879599E+03 -0.71476428188E+02 -0.27285685881E+04  0.27343830991E+04  0.12700000000E+03 0.  0.
   -5000001    1    1    2    0    0 -0.10259879599E+03  0.71476428188E+02 -0.64539583924E+03  0.66955222502E+03  0.12700000000E+03 0.  0.
<mgrwt>
<rscale>  0 0.45071025E+03</rscale>
<asrwt>0</asrwt>
<pdfrwt beam="1">  1        2 0.48413521E+00 0.45071025E+03</pdfrwt>
<pdfrwt beam="2">  1       -2 0.21407805E-02 0.45071025E+03</pdfrwt>
<totfact> 0.11585859E+03</totfact>
</mgrwt>
</event>
<event>
 4    1  0.1383574E-004  0.3772828E+03  0.7818608E-02  0.1051943E+00
         -2   -1    0    0    0  501 -0.00000000000E+00  0.00000000000E+00  0.16400817316E+02  0.16400817515E+02  0.25500000000E-02 0. -1.
          2   -1    0    0  501    0  0.00000000000E+00 -0.00000000000E+00 -0.21697437920E+04  0.21697437920E+04  0.25500000000E-02 0.  1.
    5000001    1    1    2    0    0  0.13012389117E+03 -0.42611068911E+02 -0.92242147197E+03  0.94113670749E+03  0.12700000000E+03 0.  0.
   -5000001    1    1    2    0    0 -0.13012389117E+03  0.42611068911E+02 -0.12309215027E+04  0.12450079020E+04  0.12700000000E+03 0.  0.
<mgrwt>
<rscale>  0 0.37728277E+03</rscale>
<asrwt>0</asrwt>
<pdfrwt beam="1">  1        2 0.30996322E+00 0.37728277E+03</pdfrwt>
<pdfrwt beam="2">  1       -2 0.23429753E-02 0.37728277E+03</pdfrwt>
<totfact> 0.44585202E+03</totfact>
</mgrwt>
</event>
<event>
 4    1  0.1383574E-004  0.1209883E+04  0.7818608E-02  0.9104250E-01
         -2   -1    0    0    0  501 -0.00000000000E+00  0.00000000000E+00  0.36249614363E+03  0.36249614364E+03  0.25500000000E-02 0. -1.
          2   -1    0    0  501    0  0.00000000000E+00 -0.00000000000E+00 -0.10095391491E+04  0.10095391491E+04  0.25500000000E-02 0.  1.
    5000001    1    1    2    0    0 -0.43042220678E+03 -0.40473144694E+03 -0.29237757491E+03  0.67133037064E+03  0.12700000000E+03 0.  0.
   -5000001    1    1    2    0    0  0.43042220678E+03  0.40473144694E+03 -0.35466543056E+03  0.70070492211E+03  0.12700000000E+03 0.  0.
<mgrwt>
<rscale>  0 0.12098827E+04</rscale>
<asrwt>0</asrwt>
<pdfrwt beam="1">  1        2 0.14421988E+00 0.12098827E+04</pdfrwt>
<pdfrwt beam="2">  1       -2 0.51785164E-01 0.12098827E+04</pdfrwt>
<totfact> 0.96238108E+01</totfact>
</mgrwt>
</event>
<event>
 4    1  0.1383574E-004  0.3550864E+03  0.7818608E-02  0.1060547E+00
         -2   -1    0    0    0  501 -0.00000000000E+00  0.00000000000E+00  0.16649661032E+02  0.16649661228E+02  0.25500000000E-02 0. -1.
          2   -1    0    0  501    0  0.00000000000E+00 -0.00000000000E+00 -0.18932269344E+04  0.18932269344E+04  0.25500000000E-02 0.  1.
    5000001    1    1    2    0    0  0.83608101827E+02  0.34709058484E+02 -0.13946025643E+04  0.14032962430E+04  0.12700000000E+03 0.  0.
   -5000001    1    1    2    0    0 -0.83608101827E+02 -0.34709058484E+02 -0.48197470913E+03  0.50658035263E+03  0.12700000000E+03 0.  0.
<mgrwt>
<rscale>  0 0.35508639E+03</rscale>
<asrwt>0</asrwt>
<pdfrwt beam="1">  1        2 0.27046085E+00 0.35508639E+03</pdfrwt>
<pdfrwt beam="2">  1       -2 0.23785242E-02 0.35508639E+03</pdfrwt>
<totfact> 0.59692067E+03</totfact>
</mgrwt>
</event>
<event>
 4    1  0.1383574E-004  0.3721630E+03  0.7818608E-02  0.1053869E+00
         -2   -1    0    0    0  501 -0.00000000000E+00  0.00000000000E+00  0.49214643390E+02  0.49214643456E+02  0.25500000000E-02 0. -1.
          2   -1    0    0  501    0  0.00000000000E+00 -0.00000000000E+00 -0.70357762196E+03  0.70357762196E+03  0.25500000000E-02 0.  1.
    5000001    1    1    2    0    0 -0.26016896202E+02 -0.12545680510E+03 -0.41945593629E+03  0.45660548762E+03  0.12700000000E+03 0.  0.
   -5000001    1    1    2    0    0  0.26016896202E+02  0.12545680510E+03 -0.23490704228E+03  0.29618677780E+03  0.12700000000E+03 0.  0.
<mgrwt>
<rscale>  0 0.37216298E+03</rscale>
<asrwt>0</asrwt>
<pdfrwt beam="1">  1        2 0.10051108E+00 0.37216298E+03</pdfrwt>
<pdfrwt beam="2">  1       -2 0.70306638E-02 0.37216298E+03</pdfrwt>
<totfact> 0.53106899E+03</totfact>
</mgrwt>
</event>
<event>
 4    1  0.1383574E-004  0.4677257E+03  0.7818608E-02  0.1022564E+00
          2   -1    0    0  501    0  0.00000000000E+00  0.00000000000E+00  0.99736274477E+03  0.99736274478E+03  0.25500000000E-02 0.  1.
         -2   -1    0    0    0  501 -0.00000000000E+00 -0.00000000000E+00 -0.54836457395E+02  0.54836457454E+02  0.25500000000E-02 0. -1.
    5000001    1    1    2    0    0 -0.11837840397E+03  0.10328637948E+03  0.20621666290E+03  0.28867946718E+03  0.12700000000E+03 0.  0.
   -5000001    1    1    2    0    0  0.11837840397E+03 -0.10328637948E+03  0.73630962448E+03  0.76351973505E+03  0.12700000000E+03 0.  0.
<mgrwt>
<rscale>  0 0.46772573E+03</rscale>
<asrwt>0</asrwt>
<pdfrwt beam="1">  1        2 0.14248040E+00 0.46772573E+03</pdfrwt>
<pdfrwt beam="2">  1       -2 0.78337792E-02 0.46772573E+03</pdfrwt>
<totfact> 0.28680335E+03</totfact>
</mgrwt>
</event>
<event>
 4    1  0.1383574E-004  0.4879632E+03  0.7818608E-02  0.1016969E+00
          2   -1    0    0  501    0  0.00000000000E+00  0.00000000000E+00  0.24984984167E+03  0.24984984168E+03  0.25500000000E-02 0.  1.
         -2   -1    0    0    0  501 -0.00000000000E+00 -0.00000000000E+00 -0.23825123237E+03  0.23825123238E+03  0.25500000000E-02 0. -1.
    5000001    1    1    2    0    0  0.20752754230E+03  0.63095651310E+01  0.22849390210E+02  0.24445569344E+03  0.12700000000E+03 0.  0.
   -5000001    1    1    2    0    0 -0.20752754230E+03 -0.63095651310E+01 -0.11250780911E+02  0.24364538062E+03  0.12700000000E+03 0.  0.
<mgrwt>
<rscale>  0 0.48796325E+03</rscale>
<asrwt>0</asrwt>
<pdfrwt beam="1">  1        2 0.35692834E-01 0.48796325E+03</pdfrwt>
<pdfrwt beam="2">  1       -2 0.34035891E-01 0.48796325E+03</pdfrwt>
<totfact> 0.11812521E+03</totfact>
</mgrwt>
</event>
<event>
 4    1  0.1383574E-004  0.2836147E+03  0.7818608E-02  0.1093731E+00
          2   -1    0    0  501    0  0.00000000000E+00  0.00000000000E+00  0.21875368353E+04  0.21875368353E+04  0.25500000000E-02 0. -1.
         -2   -1    0    0    0  501 -0.00000000000E+00 -0.00000000000E+00 -0.91926818913E+01  0.91926822450E+01  0.25500000000E-02 0.  1.
    5000001    1    1    2    0    0 -0.54078700392E+02 -0.31753433012E+02  0.10357652215E+04  0.10454048883E+04  0.12700000000E+03 0.  0.
   -5000001    1    1    2    0    0  0.54078700392E+02  0.31753433012E+02  0.11425789319E+04  0.11513246293E+04  0.12700000000E+03 0.  0.
<mgrwt>
<rscale>  0 0.28361474E+03</rscale>
<asrwt>0</asrwt>
<pdfrwt beam="1">  1        2 0.31250546E+00 0.28361474E+03</pdfrwt>
<pdfrwt beam="2">  1       -2 0.13132395E-02 0.28361474E+03</pdfrwt>
<totfact> 0.10257208E+04</totfact>
</mgrwt>
</event>
<event>
 4    1  0.1383574E-004  0.4173455E+03  0.7818608E-02  0.1037934E+00
          2   -1    0    0  501    0  0.00000000000E+00  0.00000000000E+00  0.17288102996E+03  0.17288102998E+03  0.25500000000E-02 0.  1.
         -2   -1    0    0    0  501 -0.00000000000E+00 -0.00000000000E+00 -0.25187441322E+03  0.25187441323E+03  0.25500000000E-02 0. -1.
    5000001    1    1    2    0    0  0.11973902521E+03 -0.91087922311E+02 -0.10986813622E+03  0.22546496647E+03  0.12700000000E+03 0.  0.
   -5000001    1    1    2    0    0 -0.11973902521E+03  0.91087922311E+02  0.30874752965E+02  0.19929047674E+03  0.12700000000E+03 0.  0.
<mgrwt>
<rscale>  0 0.41734546E+03</rscale>
<asrwt>0</asrwt>
<pdfrwt beam="1">  1        2 0.24697290E-01 0.41734546E+03</pdfrwt>
<pdfrwt beam="2">  1       -2 0.35982059E-01 0.41734546E+03</pdfrwt>
<totfact> 0.16033554E+03</totfact>
</mgrwt>
</event>
<event>
 4    1  0.1383574E-004  0.2919619E+03  0.7818608E-02  0.1089329E+00
          2   -1    0    0  501    0  0.00000000000E+00  0.00000000000E+00  0.16682208772E+04  0.16682208772E+04  0.25500000000E-02 0.  1.
         -2   -1    0    0    0  501 -0.00000000000E+00 -0.00000000000E+00 -0.12774353400E+02  0.12774353654E+02  0.25500000000E-02 0. -1.
    5000001    1    1    2    0    0  0.65131485428E+02 -0.43601468678E+01  0.65305655183E+03  0.66848558785E+03  0.12700000000E+03 0.  0.
   -5000001    1    1    2    0    0 -0.65131485428E+02  0.43601468678E+01  0.10023899720E+04  0.10125096430E+04  0.12700000000E+03 0.  0.
<mgrwt>
<rscale>  0 0.29196194E+03</rscale>
<asrwt>0</asrwt>
<pdfrwt beam="1">  1        2 0.23831734E+00 0.29196194E+03</pdfrwt>
<pdfrwt beam="2">  1       -2 0.18249071E-02 0.29196194E+03</pdfrwt>
<totfact> 0.11384230E+04</totfact>
</mgrwt>
</event>
<event>
 4    1  0.1383574E-004  0.4973052E+03  0.7818608E-02  0.1014485E+00
         -2   -1    0    0    0  501 -0.00000000000E+00  0.00000000000E+00  0.23829707723E+03  0.23829707725E+03  0.25500000000E-02 0. -1.
          2   -1    0    0  501    0  0.00000000000E+00 -0.00000000000E+00 -0.25945817888E+03  0.25945817890E+03  0.25500000000E-02 0.  1.
    5000001    1    1    2    0    0  0.19343187474E+03 -0.23390476918E+02 -0.98615364395E+02  0.25262025784E+03  0.12700000000E+03 0.  0.
   -5000001    1    1    2    0    0 -0.19343187474E+03  0.23390476918E+02  0.77454262744E+02  0.24513499830E+03  0.12700000000E+03 0.  0.
<mgrwt>
<rscale>  0 0.49730524E+03</rscale>
<asrwt>0</asrwt>
<pdfrwt beam="1">  1        2 0.37065454E-01 0.49730524E+03</pdfrwt>
<pdfrwt beam="2">  1       -2 0.34042440E-01 0.49730524E+03</pdfrwt>
<totfact> 0.11326873E+03</totfact>
</mgrwt>
</event>
<event>
 4    1  0.1383574E-004  0.3097246E+03  0.7818608E-02  0.1080478E+00
          2   -1    0    0  501    0  0.00000000000E+00  0.00000000000E+00  0.13757886116E+04  0.13757886116E+04  0.25500000000E-02 0.  1.
         -2   -1    0    0    0  501 -0.00000000000E+00 -0.00000000000E+00 -0.17431701737E+02  0.17431701923E+02  0.25500000000E-02 0. -1.
    5000001    1    1    2    0    0  0.49861343232E+02 -0.71760347888E+02  0.74553888704E+03  0.76131001121E+03  0.12700000000E+03 0.  0.
   -5000001    1    1    2    0    0 -0.49861343232E+02  0.71760347888E+02  0.61281802285E+03  0.63191030235E+03  0.12700000000E+03 0.  0.
<mgrwt>
<rscale>  0 0.30972463E+03</rscale>
<asrwt>0</asrwt>
<pdfrwt beam="1">  1        2 0.19654126E+00 0.30972463E+03</pdfrwt>
<pdfrwt beam="2">  1       -2 0.24902427E-02 0.30972463E+03</pdfrwt>
<totfact> 0.10124333E+04</totfact>
</mgrwt>
</event>
<event>
 4    1  0.1383574E-004  0.5789007E+03  0.7818608E-02  0.9950174E-01
         -2   -1    0    0    0  501 -0.00000000000E+00  0.00000000000E+00  0.10032342135E+03  0.10032342139E+03  0.25500000000E-02 0. -1.
          2   -1    0    0  501    0  0.00000000000E+00 -0.00000000000E+00 -0.83511408566E+03  0.83511408567E+03  0.25500000000E-02 0.  1.
    5000001    1    1    2    0    0  0.20849535802E+03 -0.15539523460E+03 -0.35790290491E+03  0.46026240624E+03  0.12700000000E+03 0.  0.
   -5000001    1    1    2    0    0 -0.20849535802E+03  0.15539523460E+03 -0.37688775940E+03  0.47517510081E+03  0.12700000000E+03 0.  0.
<mgrwt>
<rscale>  0 0.57890069E+03</rscale>
<asrwt>0</asrwt>
<pdfrwt beam="1">  1        2 0.11930201E+00 0.57890069E+03</pdfrwt>
<pdfrwt beam="2">  1       -2 0.14331918E-01 0.57890069E+03</pdfrwt>
<totfact> 0.13628059E+03</totfact>
</mgrwt>
</event>
<event>
 4    1  0.1383574E-004  0.6165359E+03  0.7818608E-02  0.9871681E-01
         -2   -1    0    0    0  501 -0.00000000000E+00  0.00000000000E+00  0.57679290754E+02  0.57679290810E+02  0.25500000000E-02 0. -1.
          2   -1    0    0  501    0  0.00000000000E+00 -0.00000000000E+00 -0.16475434850E+04  0.16475434850E+04  0.25500000000E-02 0.  1.
    5000001    1    1    2    0    0 -0.15036680857E+03  0.21944759072E+03 -0.54550675589E+03  0.62005970915E+03  0.12700000000E+03 0.  0.
   -5000001    1    1    2    0    0  0.15036680857E+03 -0.21944759072E+03 -0.10443574383E+04  0.10851630666E+04  0.12700000000E+03 0.  0.
<mgrwt>
<rscale>  0 0.61653593E+03</rscale>
<asrwt>0</asrwt>
<pdfrwt beam="1">  1        2 0.23536333E+00 0.61653593E+03</pdfrwt>
<pdfrwt beam="2">  1       -2 0.82398997E-02 0.61653593E+03</pdfrwt>
<totfact> 0.11668022E+03</totfact>
</mgrwt>
</event>
<event>
 4    1  0.1383574E-004  0.7612078E+03  0.7818608E-02  0.9617929E-01
          2   -1    0    0  501    0  0.00000000000E+00  0.00000000000E+00  0.26616529216E+04  0.26616529216E+04  0.25500000000E-02 0.  1.
         -2   -1    0    0    0  501 -0.00000000000E+00 -0.00000000000E+00 -0.54424581220E+02  0.54424581280E+02  0.25500000000E-02 0. -1.
    5000001    1    1    2    0    0 -0.24114448538E+03 -0.22704740208E+03  0.81140611960E+03  0.88555636553E+03  0.12700000000E+03 0.  0.
   -5000001    1    1    2    0    0  0.24114448538E+03  0.22704740208E+03  0.17958222207E+04  0.18305211373E+04  0.12700000000E+03 0.  0.
<mgrwt>
<rscale>  0 0.76120784E+03</rscale>
<asrwt>0</asrwt>
<pdfrwt beam="1">  1        2 0.38023621E+00 0.76120784E+03</pdfrwt>
<pdfrwt beam="2">  1       -2 0.77749386E-02 0.76120784E+03</pdfrwt>
<totfact> 0.38585053E+02</totfact>
</mgrwt>
</event>
<event>
 4    1  0.1383574E-004  0.5853336E+03  0.7818608E-02  0.9936310E-01
          2   -1    0    0  501    0  0.00000000000E+00  0.00000000000E+00  0.52785610473E+03  0.52785610474E+03  0.25500000000E-02 0. -1.
         -2   -1    0    0    0  501 -0.00000000000E+00 -0.00000000000E+00 -0.16226742663E+03  0.16226742665E+03  0.25500000000E-02 0.  1.
    5000001    1    1    2    0    0  0.58731764061E+02  0.20517533326E+03  0.22219040259E+00  0.24834529764E+03  0.12700000000E+03 0.  0.
   -5000001    1    1    2    0    0 -0.58731764061E+02 -0.20517533326E+03  0.36536648769E+03  0.44177823375E+03  0.12700000000E+03 0.  0.
<mgrwt>
<rscale>  0 0.58533359E+03</rscale>
<asrwt>0</asrwt>
<pdfrwt beam="1">  1        2 0.75408015E-01 0.58533359E+03</pdfrwt>
<pdfrwt beam="2">  1       -2 0.23181061E-01 0.58533359E+03</pdfrwt>
<totfact> 0.10375186E+03</totfact>
</mgrwt>
</event>
<event>
 4    1  0.1383574E-004  0.3635971E+03  0.7818608E-02  0.1057169E+00
         -2   -1    0    0    0  501 -0.00000000000E+00  0.00000000000E+00  0.51610038539E+02  0.51610038602E+02  0.25500000000E-02 0. -1.
          2   -1    0    0  501    0  0.00000000000E+00 -0.00000000000E+00 -0.64039322360E+03  0.64039322360E+03  0.25500000000E-02 0.  1.
    5000001    1    1    2    0    0  0.46749186891E+02  0.11869038658E+03 -0.34287033605E+03  0.38724922425E+03  0.12700000000E+03 0.  0.
   -5000001    1    1    2    0    0 -0.46749186891E+02 -0.11869038658E+03 -0.24591284901E+03  0.30475403795E+03  0.12700000000E+03 0.  0.
<mgrwt>
<rscale>  0 0.36359713E+03</rscale>
<asrwt>0</asrwt>
<pdfrwt beam="1">  1        2 0.91484742E-01 0.36359713E+03</pdfrwt>
<pdfrwt beam="2">  1       -2 0.73728630E-02 0.36359713E+03</pdfrwt>
<totfact> 0.55103983E+03</totfact>
</mgrwt>
</event>
<event>
 4    1  0.1383574E-004  0.3047140E+03  0.7818608E-02  0.1082908E+00
         -2   -1    0    0    0  501 -0.00000000000E+00  0.00000000000E+00  0.19362582373E+02  0.19362582541E+02  0.25500000000E-02 0. -1.
          2   -1    0    0  501    0  0.00000000000E+00 -0.00000000000E+00 -0.11988407688E+04  0.11988407688E+04  0.25500000000E-02 0.  1.
    5000001    1    1    2    0    0 -0.77463404767E+02  0.13700329657E+02 -0.47011189912E+03  0.49327728086E+03  0.12700000000E+03 0.  0.
   -5000001    1    1    2    0    0  0.77463404767E+02 -0.13700329657E+02 -0.70936628734E+03  0.72492607053E+03  0.12700000000E+03 0.  0.
<mgrwt>
<rscale>  0 0.30471399E+03</rscale>
<asrwt>0</asrwt>
<pdfrwt beam="1">  1        2 0.17126292E+00 0.30471399E+03</pdfrwt>
<pdfrwt beam="2">  1       -2 0.27660840E-02 0.30471399E+03</pdfrwt>
<totfact> 0.10750103E+04</totfact>
</mgrwt>
</event>
<event>
 4    1  0.1383574E-004  0.6114602E+03  0.7818608E-02  0.9881911E-01
          2   -1    0    0  501    0  0.00000000000E+00  0.00000000000E+00  0.23255319204E+04  0.23255319204E+04  0.25500000000E-02 0.  1.
         -2   -1    0    0    0  501 -0.00000000000E+00 -0.00000000000E+00 -0.40193344992E+02  0.40193345073E+02  0.25500000000E-02 0. -1.
    5000001    1    1    2    0    0  0.91204705337E+02  0.21385576627E+03  0.55223103450E+03  0.61248730804E+03  0.12700000000E+03 0.  0.
   -5000001    1    1    2    0    0 -0.91204705337E+02 -0.21385576627E+03  0.17331075409E+04  0.17532379575E+04  0.12700000000E+03 0.  0.
<mgrwt>
<rscale>  0 0.61146024E+03</rscale>
<asrwt>0</asrwt>
<pdfrwt beam="1">  1        2 0.33221877E+00 0.61146024E+03</pdfrwt>
<pdfrwt beam="2">  1       -2 0.57419077E-02 0.61146024E+03</pdfrwt>
<totfact> 0.93898152E+02</totfact>
</mgrwt>
</event>
<event>
 4    1  0.1383574E-004  0.6057003E+03  0.7818608E-02  0.9893650E-01
         -2   -1    0    0    0  501 -0.00000000000E+00  0.00000000000E+00  0.12662223808E+03  0.12662223811E+03  0.25500000000E-02 0. -1.
          2   -1    0    0  501    0  0.00000000000E+00 -0.00000000000E+00 -0.72434526180E+03  0.72434526181E+03  0.25500000000E-02 0.  1.
    5000001    1    1    2    0    0  0.49991414786E+02 -0.25832242222E+03 -0.18682226759E+03  0.34678693032E+03  0.12700000000E+03 0.  0.
   -5000001    1    1    2    0    0 -0.49991414786E+02  0.25832242222E+03 -0.41090075613E+03  0.50418056960E+03  0.12700000000E+03 0.  0.
<mgrwt>
<rscale>  0 0.60570032E+03</rscale>
<asrwt>0</asrwt>
<pdfrwt beam="1">  1        2 0.10347789E+00 0.60570032E+03</pdfrwt>
<pdfrwt beam="2">  1       -2 0.18088892E-01 0.60570032E+03</pdfrwt>
<totfact> 0.10988936E+03</totfact>
</mgrwt>
</event>
<event>
 4    1  0.1383574E-004  0.2901630E+03  0.7818608E-02  0.1090264E+00
         -2   -1    0    0    0  501 -0.00000000000E+00  0.00000000000E+00  0.50399240111E+03  0.50399240112E+03  0.25500000000E-02 0. -1.
          2   -1    0    0  501    0  0.00000000000E+00 -0.00000000000E+00 -0.41763794392E+02  0.41763794470E+02  0.25500000000E-02 0.  1.
    5000001    1    1    2    0    0 -0.36209322485E+02  0.50432049817E+02  0.16972995030E+03  0.22088857534E+03  0.12700000000E+03 0.  0.
   -5000001    1    1    2    0    0  0.36209322485E+02 -0.50432049817E+02  0.29249865642E+03  0.32486762025E+03  0.12700000000E+03 0.  0.
<mgrwt>
<rscale>  0 0.29016295E+03</rscale>
<asrwt>0</asrwt>
<pdfrwt beam="1">  1        2 0.59662570E-02 0.29016295E+03</pdfrwt>
<pdfrwt beam="2">  1       -2 0.71998907E-01 0.29016295E+03</pdfrwt>
<totfact> 0.22340140E+03</totfact>
</mgrwt>
</event>
<event>
 4    1  0.1383574E-004  0.3409636E+03  0.7818608E-02  0.1066386E+00
         -2   -1    0    0    0  501 -0.00000000000E+00  0.00000000000E+00  0.91172069355E+02  0.91172069391E+02  0.25500000000E-02 0. -1.
          2   -1    0    0  501    0  0.00000000000E+00 -0.00000000000E+00 -0.31878235481E+03  0.31878235482E+03  0.25500000000E-02 0.  1.
    5000001    1    1    2    0    0  0.19050525610E+01 -0.96123039926E+02 -0.18685937527E+03  0.24553756160E+03  0.12700000000E+03 0.  0.
   -5000001    1    1    2    0    0 -0.19050525610E+01  0.96123039926E+02 -0.40750910185E+02  0.16441686261E+03  0.12700000000E+03 0.  0.
<mgrwt>
<rscale>  0 0.34096362E+03</rscale>
<asrwt>0</asrwt>
<pdfrwt beam="1">  1        2 0.45540336E-01 0.34096362E+03</pdfrwt>
<pdfrwt beam="2">  1       -2 0.13024581E-01 0.34096362E+03</pdfrwt>
<totfact> 0.48103984E+03</totfact>
</mgrwt>
</event>
<event>
 4    1  0.1383574E-004  0.3014357E+03  0.7818608E-02  0.1084525E+00
          2   -1    0    0  501    0  0.00000000000E+00  0.00000000000E+00  0.19263560921E+04  0.19263560921E+04  0.25500000000E-02 0.  1.
         -2   -1    0    0    0  501 -0.00000000000E+00 -0.00000000000E+00 -0.11792145850E+02  0.11792146125E+02  0.25500000000E-02 0. -1.
    5000001    1    1    2    0    0  0.50766057372E+02  0.63288399566E+02  0.97054991323E+03  0.98218060874E+03  0.12700000000E+03 0.  0.
   -5000001    1    1    2    0    0 -0.50766057372E+02 -0.63288399566E+02  0.94401403301E+03  0.95596762949E+03  0.12700000000E+03 0.  0.
<mgrwt>
<rscale>  0 0.30143571E+03</rscale>
<asrwt>0</asrwt>
<pdfrwt beam="1">  1        2 0.27519401E+00 0.30143571E+03</pdfrwt>
<pdfrwt beam="2">  1       -2 0.16845906E-02 0.30143571E+03</pdfrwt>
<totfact> 0.95646778E+03</totfact>
</mgrwt>
</event>
