<event>
 6    2  0.9453093E+000  0.8341206E+02  0.7546771E-02  0.1319638E+00
         21   -1    0    0  501  502  0.00000000000E+00  0.00000000000E+00  0.34492546070E+01  0.34492546070E+01  0.00000000000E+00 0. -1.
          2   -1    0    0  502    0 -0.00000000000E+00 -0.00000000000E+00 -0.18290175226E+04  0.18290175226E+04  0.00000000000E+00 0. -1.
         24    2    1    2    0    0 -0.14408697001E+02 -0.28369140999E+02 -0.17243249279E+04  0.17263412260E+04  0.77104817192E+02 0.  0.
        -11    1    3    3    0    0  0.14346552354E+01 -0.16268082198E+02 -0.69378167912E+02  0.71274391733E+02  0.00000000000E+00 0.  1.
         12    1    3    3    0    0 -0.15843352237E+02 -0.12101058801E+02 -0.16549467600E+04  0.16550668342E+04  0.00000000000E+00 0. -1.
          1    1    1    2  501    0  0.14408697001E+02  0.28369140999E+02 -0.10124334014E+03  0.10612555128E+03  0.00000000000E+00 0. -1.
<mgrwt>
<rscale>  1 0.83412059E+02</rscale>
<asrwt>0</asrwt>
<pdfrwt beam="1">  1       21 0.53065402E-03 0.83412059E+02</pdfrwt>
<pdfrwt beam="2">  1        2 0.28138759E+00 0.83412059E+02</pdfrwt>
<totfact> 0.11590984E+06</totfact>
</mgrwt>
</event>
<event>
 6    2  0.9453093E+000  0.7931234E+02  0.7546771E-02  0.1331014E+00
          2   -1    0    0  502    0 -0.00000000000E+00  0.00000000000E+00  0.43955877165E+03  0.43955877165E+03  0.00000000000E+00 0. -1.
         21   -1    0    0  501  502  0.00000000000E+00 -0.00000000000E+00 -0.41713978708E+02  0.41713978708E+02  0.00000000000E+00 0. -1.
         24    2    1    2    0    0  0.21632084944E+02 -0.29815439028E+02  0.42699459635E+03  0.43429809185E+03  0.70239161211E+02 0.  0.
        -11    1    3    3    0    0 -0.20308135457E+02  0.83291944646E+01  0.95439778063E+02  0.97931338615E+02  0.00000000000E+00 0.  1.
         12    1    3    3    0    0  0.41940220401E+02 -0.38144633492E+02  0.33155481829E+03  0.33636675324E+03  0.00000000000E+00 0. -1.
          1    1    1    2  501    0 -0.21632084944E+02  0.29815439028E+02 -0.29149803408E+02  0.46974658510E+02  0.00000000000E+00 0. -1.
<mgrwt>
<rscale>  1 0.79312340E+02</rscale>
<asrwt>0</asrwt>
<pdfrwt beam="1">  1       21 0.64175355E-02 0.79312340E+02</pdfrwt>
<pdfrwt beam="2">  1        2 0.67624423E-01 0.79312340E+02</pdfrwt>
<totfact> 0.15252195E+05</totfact>
</mgrwt>
</event>
<event>
 6    2  0.9453093E+000  0.8635619E+02  0.7546771E-02  0.1311924E+00
         21   -1    0    0  501  502  0.00000000000E+00  0.00000000000E+00  0.71704891792E+01  0.71704891792E+01  0.00000000000E+00 0. -1.
          2   -1    0    0  502    0 -0.00000000000E+00 -0.00000000000E+00 -0.66903096123E+03  0.66903096123E+03  0.00000000000E+00 0. -1.
         24    2    1    2    0    0  0.26309727090E+02 -0.27302551889E+02 -0.57468873432E+03  0.58114071752E+03  0.77587119559E+02 0.  0.
        -13    1    3    3    0    0  0.40179474945E+02 -0.51484901033E+01 -0.14204274613E+03  0.14770592028E+03  0.00000000000E+00 0.  1.
         14    1    3    3    0    0 -0.13869747855E+02 -0.22154061786E+02 -0.43264598819E+03  0.43343479724E+03  0.00000000000E+00 0. -1.
          1    1    1    2  501    0 -0.26309727090E+02  0.27302551889E+02 -0.87171737734E+02  0.95060732897E+02  0.00000000000E+00 0. -1.
<mgrwt>
<rscale>  1 0.86356194E+02</rscale>
<asrwt>0</asrwt>
<pdfrwt beam="1">  1       21 0.11031517E-02 0.86356194E+02</pdfrwt>
<pdfrwt beam="2">  1        2 0.10292789E+00 0.86356194E+02</pdfrwt>
<totfact> 0.16712642E+06</totfact>
</mgrwt>
</event>
<event>
 6    2  0.9453093E+000  0.8421048E+02  0.7546771E-02  0.1317510E+00
         21   -1    0    0  501  502  0.00000000000E+00  0.00000000000E+00  0.25504022964E+02  0.25504022964E+02  0.00000000000E+00 0. -1.
          4   -1    0    0  502    0 -0.00000000000E+00 -0.00000000000E+00 -0.32888493404E+03  0.32888493404E+03  0.00000000000E+00 0. -1.
         24    2    1    2    0    0 -0.22119886326E+01 -0.23449808150E+02 -0.31644258565E+03  0.32745582241E+03  0.80849361323E+02 0.  0.
        -11    1    3    3    0    0 -0.11477570663E+02 -0.48273970772E+02 -0.13014378312E+03  0.13928214231E+03  0.00000000000E+00 0.  1.
         12    1    3    3    0    0  0.92655820304E+01  0.24824162622E+02 -0.18629880253E+03  0.18817368010E+03  0.00000000000E+00 0. -1.
          3    1    1    2  501    0  0.22119886326E+01  0.23449808150E+02  0.13061674574E+02  0.26933134587E+02  0.00000000000E+00 0. -1.
<mgrwt>
<rscale>  1 0.84210484E+02</rscale>
<asrwt>0</asrwt>
<pdfrwt beam="1">  1       21 0.39236960E-02 0.84210484E+02</pdfrwt>
<pdfrwt beam="2">  1        4 0.50597680E-01 0.84210484E+02</pdfrwt>
<totfact> 0.57574513E+04</totfact>
</mgrwt>
</event>
<event>
 6    2  0.9453093E+000  0.8576211E+02  0.7546771E-02  0.1313451E+00
          2   -1    0    0  502    0 -0.00000000000E+00  0.00000000000E+00  0.12038922867E+04  0.12038922867E+04  0.00000000000E+00 0. -1.
         21   -1    0    0  501  502  0.00000000000E+00 -0.00000000000E+00 -0.44486412922E+01  0.44486412922E+01  0.00000000000E+00 0. -1.
         24    2    1    2    0    0 -0.56193450896E+01  0.28254802563E+02  0.11287422064E+04  0.11319956309E+04  0.80778889713E+02 0.  0.
        -11    1    3    3    0    0  0.26118821727E+02  0.28585251962E+01  0.14161374617E+03  0.14403061175E+03  0.00000000000E+00 0.  1.
         12    1    3    3    0    0 -0.31738166817E+02  0.25396277367E+02  0.98712846018E+03  0.98796501913E+03  0.00000000000E+00 0. -1.
          1    1    1    2  501    0  0.56193450896E+01 -0.28254802563E+02  0.70701439099E+02  0.76345297155E+02  0.00000000000E+00 0. -1.
<mgrwt>
<rscale>  1 0.85762112E+02</rscale>
<asrwt>0</asrwt>
<pdfrwt beam="1">  1       21 0.68440731E-03 0.85762112E+02</pdfrwt>
<pdfrwt beam="2">  1        2 0.18521394E+00 0.85762112E+02</pdfrwt>
<totfact> 0.16411794E+06</totfact>
</mgrwt>
</event>
<event>
 6    2  0.9453093E+000  0.8392300E+02  0.7546771E-02  0.1318273E+00
         -1   -1    0    0    0  501 -0.00000000000E+00  0.00000000000E+00  0.30995556016E+03  0.30995556016E+03  0.00000000000E+00 0.  1.
         21   -1    0    0  501  502  0.00000000000E+00 -0.00000000000E+00 -0.99263829736E+01  0.99263829736E+01  0.00000000000E+00 0. -1.
         24    2    1    2    0    0  0.22716471240E+02  0.13791684680E+02  0.21509748883E+03  0.23088958212E+03  0.79604150634E+02 0.  0.
        -11    1    3    3    0    0 -0.18648554006E+02  0.14673445492E+02  0.16122810625E+03  0.16296496806E+03  0.00000000000E+00 0.  1.
         12    1    3    3    0    0  0.41365025247E+02 -0.88176081186E+00  0.53869382580E+02  0.67924614061E+02  0.00000000000E+00 0. -1.
         -2    1    1    2    0  502 -0.22716471240E+02 -0.13791684680E+02  0.84931688360E+02  0.88992361018E+02  0.00000000000E+00 0.  1.
<mgrwt>
<rscale>  1 0.83922997E+02</rscale>
<asrwt>0</asrwt>
<pdfrwt beam="1">  1       21 0.15271361E-02 0.83922997E+02</pdfrwt>
<pdfrwt beam="2">  1       -1 0.47685463E-01 0.83922997E+02</pdfrwt>
<totfact> 0.72750329E+05</totfact>
</mgrwt>
</event>
<event>
 6    2  0.9453093E+000  0.8680080E+02  0.7546771E-02  0.1310789E+00
         21   -1    0    0  501  502  0.00000000000E+00  0.00000000000E+00  0.44416755982E+02  0.44416755982E+02  0.00000000000E+00 0.  1.
          2   -1    0    0  502    0 -0.00000000000E+00 -0.00000000000E+00 -0.14983286744E+03  0.14983286744E+03  0.00000000000E+00 0. -1.
         24    2    1    2    0    0 -0.28676523677E+02 -0.17963943991E+02 -0.35094431445E+01  0.86871714424E+02  0.79933298955E+02 0.  0.
        -13    1    3    3    0    0 -0.12716175910E+00 -0.27618998698E+02  0.30689884666E+02  0.41287943518E+02  0.00000000000E+00 0.  1.
         14    1    3    3    0    0 -0.28549361918E+02  0.96550547068E+01 -0.34199327810E+02  0.45583770906E+02  0.00000000000E+00 0. -1.
          1    1    1    2  501    0  0.28676523677E+02  0.17963943991E+02 -0.10190666832E+03  0.10737790900E+03  0.00000000000E+00 0. -1.
<mgrwt>
<rscale>  1 0.86800798E+02</rscale>
<asrwt>0</asrwt>
<pdfrwt beam="1">  1       21 0.68333469E-02 0.86800798E+02</pdfrwt>
<pdfrwt beam="2">  1        2 0.23051211E-01 0.86800798E+02</pdfrwt>
<totfact> 0.43039003E+05</totfact>
</mgrwt>
</event>
<event>
 6    2  0.9453093E+000  0.8651361E+02  0.7546771E-02  0.1311521E+00
          2   -1    0    0  502    0 -0.00000000000E+00  0.00000000000E+00  0.14906111633E+04  0.14906111633E+04  0.00000000000E+00 0. -1.
         21   -1    0    0  501  502  0.00000000000E+00 -0.00000000000E+00 -0.25632137100E+02  0.25632137100E+02  0.00000000000E+00 0. -1.
         24    2    1    2    0    0 -0.30289465385E+02  0.27667569145E+01  0.14798571420E+04  0.14823838115E+04  0.80990723972E+02 0.  0.
        -13    1    3    3    0    0  0.10556971055E+02  0.33664720623E+02  0.58963393729E+03  0.59068853303E+03  0.00000000000E+00 0.  1.
         14    1    3    3    0    0 -0.40846436440E+02 -0.30897963709E+02  0.89022320466E+03  0.89169527847E+03  0.00000000000E+00 0. -1.
          1    1    1    2  501    0  0.30289465385E+02 -0.27667569145E+01 -0.14878115780E+02  0.33859488867E+02  0.00000000000E+00 0. -1.
<mgrwt>
<rscale>  1 0.86513606E+02</rscale>
<asrwt>0</asrwt>
<pdfrwt beam="1">  1       21 0.39434069E-02 0.86513606E+02</pdfrwt>
<pdfrwt beam="2">  1        2 0.22932473E+00 0.86513606E+02</pdfrwt>
<totfact> 0.71918218E+04</totfact>
</mgrwt>
</event>
<event>
 6    2  0.9453093E+000  0.1538707E+03  0.7546771E-02  0.1195796E+00
         -3   -1    0    0    0  501 -0.00000000000E+00  0.00000000000E+00  0.45139479603E+03  0.45139479603E+03  0.00000000000E+00 0.  1.
         21   -1    0    0  501  502  0.00000000000E+00 -0.00000000000E+00 -0.47809158547E+02  0.47809158547E+02  0.00000000000E+00 0.  1.
         24    2    1    2    0    0 -0.63542902205E+02 -0.11112028244E+03  0.28897207812E+03  0.32738519663E+03  0.85386108079E+02 0.  0.
        -13    1    3    3    0    0 -0.60031756072E+00 -0.85574641704E+02  0.17221192075E+03  0.19230269195E+03  0.00000000000E+00 0.  1.
         14    1    3    3    0    0 -0.62942584644E+02 -0.25545640738E+02  0.11676015737E+03  0.13508250468E+03  0.00000000000E+00 0. -1.
         -4    1    1    2    0  502  0.63542902205E+02  0.11112028244E+03  0.11461355937E+03  0.17181875794E+03  0.00000000000E+00 0.  1.
<mgrwt>
<rscale>  1 0.15387074E+03</rscale>
<asrwt>0</asrwt>
<pdfrwt beam="1">  1       21 0.73552555E-02 0.15387074E+03</pdfrwt>
<pdfrwt beam="2">  1       -3 0.69445350E-01 0.15387074E+03</pdfrwt>
<totfact> 0.13709541E+04</totfact>
</mgrwt>
</event>
<event>
 6    2  0.9453093E+000  0.1056303E+03  0.7546771E-02  0.1268883E+00
         21   -1    0    0  501  502  0.00000000000E+00  0.00000000000E+00  0.46434429617E+02  0.46434429617E+02  0.00000000000E+00 0.  1.
         -3   -1    0    0    0  501 -0.00000000000E+00 -0.00000000000E+00 -0.16443203818E+03  0.16443203818E+03  0.00000000000E+00 0.  1.
         24    2    1    2    0    0  0.79731274304E+01  0.66852143797E+02 -0.86540341741E+02  0.13655402249E+03  0.81394044127E+02 0.  0.
        -13    1    3    3    0    0 -0.31471019066E+02  0.42497375653E+02 -0.22435762300E+02  0.57444019779E+02  0.00000000000E+00 0.  1.
         14    1    3    3    0    0  0.39444146496E+02  0.24354768144E+02 -0.64104579441E+02  0.79110002714E+02  0.00000000000E+00 0. -1.
         -4    1    1    2    0  502 -0.79731274304E+01 -0.66852143797E+02 -0.31457266824E+02  0.74312445305E+02  0.00000000000E+00 0.  1.
<mgrwt>
<rscale>  1 0.10563035E+03</rscale>
<asrwt>0</asrwt>
<pdfrwt beam="1">  1       21 0.71437585E-02 0.10563035E+03</pdfrwt>
<pdfrwt beam="2">  1       -3 0.25297236E-01 0.10563035E+03</pdfrwt>
<totfact> 0.99130274E+04</totfact>
</mgrwt>
</event>
<event>
 6    2  0.9453093E+000  0.8304646E+02  0.7546771E-02  0.1320622E+00
         21   -1    0    0  501  502  0.00000000000E+00  0.00000000000E+00  0.52324102947E+01  0.52324102947E+01  0.00000000000E+00 0. -1.
         -1   -1    0    0    0  501 -0.00000000000E+00 -0.00000000000E+00 -0.10004146100E+04  0.10004146100E+04  0.00000000000E+00 0.  1.
         24    2    1    2    0    0 -0.18771819132E+02 -0.15001081922E+02 -0.33896284027E+03  0.34898785348E+03  0.79494032143E+02 0.  0.
        -13    1    3    3    0    0  0.31402367870E+02 -0.64977468832E+01 -0.13898745357E+03  0.14263885050E+03  0.00000000000E+00 0.  1.
         14    1    3    3    0    0 -0.50174187002E+02 -0.85033350385E+01 -0.19997538670E+03  0.20634900298E+03  0.00000000000E+00 0. -1.
         -2    1    1    2    0  502  0.18771819132E+02  0.15001081922E+02 -0.65621935940E+03  0.65665916677E+03  0.00000000000E+00 0.  1.
<mgrwt>
<rscale>  1 0.83046462E+02</rscale>
<asrwt>0</asrwt>
<pdfrwt beam="1">  1       21 0.80498594E-03 0.83046462E+02</pdfrwt>
<pdfrwt beam="2">  1       -1 0.15390999E+00 0.83046462E+02</pdfrwt>
<totfact> 0.16828553E+05</totfact>
</mgrwt>
</event>
<event>
 6    2  0.9453093E+000  0.8298906E+02  0.7546771E-02  0.1320777E+00
          2   -1    0    0  502    0 -0.00000000000E+00  0.00000000000E+00  0.15084387726E+04  0.15084387726E+04  0.00000000000E+00 0. -1.
         21   -1    0    0  501  502  0.00000000000E+00 -0.00000000000E+00 -0.39308558904E+01  0.39308558904E+01  0.00000000000E+00 0. -1.
         24    2    1    2    0    0 -0.55703486398E+01 -0.20298848769E+02  0.14671064823E+04  0.14694518077E+04  0.80275231011E+02 0.  0.
        -13    1    3    3    0    0  0.24152770603E+02 -0.39905349823E+02  0.92704714606E+03  0.92821991160E+03  0.00000000000E+00 0.  1.
         14    1    3    3    0    0 -0.29723119243E+02  0.19606501054E+02  0.54005933623E+03  0.54123189609E+03  0.00000000000E+00 0. -1.
          1    1    1    2  501    0  0.55703486398E+01  0.20298848769E+02  0.37401434428E+02  0.42917820804E+02  0.00000000000E+00 0. -1.
<mgrwt>
<rscale>  1 0.82989064E+02</rscale>
<asrwt>0</asrwt>
<pdfrwt beam="1">  1       21 0.60474827E-03 0.82989064E+02</pdfrwt>
<pdfrwt beam="2">  1        2 0.23206704E+00 0.82989064E+02</pdfrwt>
<totfact> 0.13735221E+06</totfact>
</mgrwt>
</event>
<event>
 6    2  0.9453093E+000  0.8374674E+02  0.7546771E-02  0.1318743E+00
         21   -1    0    0  501  502  0.00000000000E+00  0.00000000000E+00  0.40128019839E+01  0.40128019839E+01  0.00000000000E+00 0.  1.
          2   -1    0    0  502    0 -0.00000000000E+00 -0.00000000000E+00 -0.76844497783E+03  0.76844497783E+03  0.00000000000E+00 0. -1.
         24    2    1    2    0    0 -0.48354261347E+01  0.22716771577E+02 -0.66988974023E+03  0.67510427351E+03  0.80461686497E+02 0.  0.
        -11    1    3    3    0    0  0.14038071525E+01  0.46701000521E+02 -0.24028302099E+03  0.24478334155E+03  0.00000000000E+00 0.  1.
         12    1    3    3    0    0 -0.62392332872E+01 -0.23984228943E+02 -0.42960671924E+03  0.43032093196E+03  0.00000000000E+00 0. -1.
          1    1    1    2  501    0  0.48354261347E+01 -0.22716771577E+02 -0.94542435618E+02  0.97353506302E+02  0.00000000000E+00 0. -1.
<mgrwt>
<rscale>  1 0.83746738E+02</rscale>
<asrwt>0</asrwt>
<pdfrwt beam="1">  1       21 0.61735407E-03 0.83746738E+02</pdfrwt>
<pdfrwt beam="2">  1        2 0.11822232E+00 0.83746738E+02</pdfrwt>
<totfact> 0.34851337E+06</totfact>
</mgrwt>
</event>
<event>
 6    2  0.9453093E+000  0.8884927E+02  0.7546771E-02  0.1305663E+00
         21   -1    0    0  501  502  0.00000000000E+00  0.00000000000E+00  0.17546800483E+02  0.17546800483E+02  0.00000000000E+00 0.  1.
          4   -1    0    0  502    0 -0.00000000000E+00 -0.00000000000E+00 -0.23330274272E+03  0.23330274272E+03  0.00000000000E+00 0. -1.
         24    2    1    2    0    0 -0.25392940078E+02 -0.16189627543E+02 -0.11285836180E+03  0.14363565649E+03  0.83589990665E+02 0.  0.
        -11    1    3    3    0    0 -0.34979634945E+02 -0.45579970238E+02 -0.80306695681E+02  0.98743475323E+02  0.00000000000E+00 0.  1.
         12    1    3    3    0    0  0.95866948664E+01  0.29390342695E+02 -0.32551666123E+02  0.44892181163E+02  0.00000000000E+00 0. -1.
          3    1    1    2  501    0  0.25392940078E+02  0.16189627543E+02 -0.10289758043E+03  0.10721388671E+03  0.00000000000E+00 0. -1.
<mgrwt>
<rscale>  1 0.88849266E+02</rscale>
<asrwt>0</asrwt>
<pdfrwt beam="1">  1       21 0.26995080E-02 0.88849266E+02</pdfrwt>
<pdfrwt beam="2">  1        4 0.35892727E-01 0.88849266E+02</pdfrwt>
<totfact> 0.21013856E+05</totfact>
</mgrwt>
</event>
<event>
 6    2  0.9453093E+000  0.9760068E+02  0.7546771E-02  0.1285424E+00
         21   -1    0    0  501  502  0.00000000000E+00  0.00000000000E+00  0.38292180683E+03  0.38292180683E+03  0.00000000000E+00 0.  1.
         -1   -1    0    0    0  501 -0.00000000000E+00 -0.00000000000E+00 -0.33179226567E+02  0.33179226567E+02  0.00000000000E+00 0.  1.
         24    2    1    2    0    0  0.45512882476E+02 -0.29649381982E+02  0.46644098956E+02  0.10817377300E+03  0.81088746907E+02 0.  0.
        -11    1    3    3    0    0  0.54407894920E+02 -0.35295200756E+02  0.48079232308E+01  0.65031425879E+02  0.00000000000E+00 0.  1.
         12    1    3    3    0    0 -0.88950124437E+01  0.56458187740E+01  0.41836175726E+02  0.43142347124E+02  0.00000000000E+00 0. -1.
         -2    1    1    2    0  502 -0.45512882476E+02  0.29649381982E+02  0.30309848131E+03  0.30792726039E+03  0.00000000000E+00 0.  1.
<mgrwt>
<rscale>  1 0.97600682E+02</rscale>
<asrwt>0</asrwt>
<pdfrwt beam="1">  1       21 0.58911044E-01 0.97600682E+02</pdfrwt>
<pdfrwt beam="2">  1       -1 0.51044967E-02 0.97600682E+02</pdfrwt>
<totfact> 0.40035657E+04</totfact>
</mgrwt>
</event>
<event>
 6    2  0.9453093E+000  0.8815763E+02  0.7546771E-02  0.1307376E+00
         -3   -1    0    0    0  501 -0.00000000000E+00  0.00000000000E+00  0.37105395879E+02  0.37105395879E+02  0.00000000000E+00 0.  1.
         21   -1    0    0  501  502  0.00000000000E+00 -0.00000000000E+00 -0.11497226775E+03  0.11497226775E+03  0.00000000000E+00 0.  1.
         24    2    1    2    0    0  0.46737988578E+01  0.34161207942E+02 -0.30075271989E+02  0.93146606086E+02  0.81135292668E+02 0.  0.
        -11    1    3    3    0    0  0.34544872089E+01  0.53526085167E+02  0.41564151534E+01  0.53798244043E+02  0.00000000000E+00 0.  1.
         12    1    3    3    0    0  0.12193116489E+01 -0.19364877226E+02 -0.34231687142E+02  0.39348362043E+02  0.00000000000E+00 0. -1.
         -4    1    1    2    0  502 -0.46737988578E+01 -0.34161207942E+02 -0.47791599880E+02  0.58931057541E+02  0.00000000000E+00 0.  1.
<mgrwt>
<rscale>  1 0.88157633E+02</rscale>
<asrwt>0</asrwt>
<pdfrwt beam="1">  1       21 0.17688041E-01 0.88157633E+02</pdfrwt>
<pdfrwt beam="2">  1       -3 0.57085225E-02 0.88157633E+02</pdfrwt>
<totfact> 0.23775744E+05</totfact>
</mgrwt>
</event>
<event>
 6    2  0.9453093E+000  0.8279487E+02  0.7546771E-02  0.1321302E+00
         21   -1    0    0  501  502  0.00000000000E+00  0.00000000000E+00  0.77248185433E+02  0.77248185433E+02  0.00000000000E+00 0. -1.
          2   -1    0    0  502    0 -0.00000000000E+00 -0.00000000000E+00 -0.49087832557E+02  0.49087832557E+02  0.00000000000E+00 0. -1.
         24    2    1    2    0    0 -0.12773243472E+02 -0.21960953023E+02 -0.68514715130E+01  0.83077873630E+02  0.78800705698E+02 0.  0.
        -11    1    3    3    0    0 -0.11615019312E+01 -0.45121456271E+02  0.16639202620E+02  0.48105695781E+02  0.00000000000E+00 0.  1.
         12    1    3    3    0    0 -0.11611741540E+02  0.23160503248E+02 -0.23490674133E+02  0.34972177849E+02  0.00000000000E+00 0. -1.
          1    1    1    2  501    0  0.12773243472E+02  0.21960953023E+02  0.35011824389E+02  0.43258144360E+02  0.00000000000E+00 0. -1.
<mgrwt>
<rscale>  1 0.82794870E+02</rscale>
<asrwt>0</asrwt>
<pdfrwt beam="1">  1       21 0.11884336E-01 0.82794870E+02</pdfrwt>
<pdfrwt beam="2">  1        2 0.75519742E-02 0.82794870E+02</pdfrwt>
<totfact> 0.61145039E+05</totfact>
</mgrwt>
</event>
<event>
 6    2  0.9453093E+000  0.8626354E+02  0.7546771E-02  0.1312161E+00
         21   -1    0    0  501  502  0.00000000000E+00  0.00000000000E+00  0.28238833448E+02  0.28238833448E+02  0.00000000000E+00 0. -1.
          2   -1    0    0  502    0 -0.00000000000E+00 -0.00000000000E+00 -0.16864427782E+03  0.16864427782E+03  0.00000000000E+00 0. -1.
         24    2    1    2    0    0 -0.10218395266E+02  0.28497829428E+02 -0.14245674809E+03  0.16653925306E+03  0.80776579832E+02 0.  0.
        -11    1    3    3    0    0 -0.28313347361E+02 -0.11881433848E+02 -0.10221961026E+03  0.10673173301E+03  0.00000000000E+00 0.  1.
         12    1    3    3    0    0  0.18094952095E+02  0.40379263276E+02 -0.40237137831E+02  0.59807520053E+02  0.00000000000E+00 0. -1.
          1    1    1    2  501    0  0.10218395266E+02 -0.28497829428E+02  0.20513037196E+01  0.30343858207E+02  0.00000000000E+00 0. -1.
<mgrwt>
<rscale>  1 0.86263537E+02</rscale>
<asrwt>0</asrwt>
<pdfrwt beam="1">  1       21 0.43444359E-02 0.86263537E+02</pdfrwt>
<pdfrwt beam="2">  1        2 0.25945273E-01 0.86263537E+02</pdfrwt>
<totfact> 0.80556699E+05</totfact>
</mgrwt>
</event>
<event>
 6    2  0.9453093E+000  0.9756326E+02  0.7546771E-02  0.1285505E+00
         21   -1    0    0  501  502  0.00000000000E+00  0.00000000000E+00  0.30285935081E+02  0.30285935081E+02  0.00000000000E+00 0.  1.
         -1   -1    0    0    0  501 -0.00000000000E+00 -0.00000000000E+00 -0.37189320184E+03  0.37189320184E+03  0.00000000000E+00 0.  1.
         24    2    1    2    0    0  0.19402816674E+02  0.11667446591E+02 -0.36001444416E+03  0.37299998709E+03  0.94899903905E+02 0.  0.
        -13    1    3    3    0    0  0.23959386252E+01  0.52788252033E+02 -0.20788731985E+03  0.21449820006E+03  0.00000000000E+00 0.  1.
         14    1    3    3    0    0  0.17006878049E+02 -0.41120805442E+02 -0.15212712431E+03  0.15850178704E+03  0.00000000000E+00 0. -1.
         -2    1    1    2    0  502 -0.19402816674E+02 -0.11667446591E+02  0.18407177402E+02  0.29179149829E+02  0.00000000000E+00 0.  1.
<mgrwt>
<rscale>  1 0.97563263E+02</rscale>
<asrwt>0</asrwt>
<pdfrwt beam="1">  1       21 0.46593749E-02 0.97563263E+02</pdfrwt>
<pdfrwt beam="2">  1       -1 0.57214335E-01 0.97563263E+02</pdfrwt>
<totfact> 0.86892251E+04</totfact>
</mgrwt>
</event>
<event>
 6    2  0.9453093E+000  0.8540837E+02  0.7546771E-02  0.1314368E+00
         -1   -1    0    0    0  501 -0.00000000000E+00  0.00000000000E+00  0.49620017565E+03  0.49620017565E+03  0.00000000000E+00 0.  1.
         21   -1    0    0  501  502  0.00000000000E+00 -0.00000000000E+00 -0.70305478486E+01  0.70305478486E+01  0.00000000000E+00 0. -1.
         24    2    1    2    0    0  0.13396521607E+02  0.20427717050E+02  0.44129212188E+03  0.44948117477E+03  0.81840278753E+02 0.  0.
        -13    1    3    3    0    0  0.42616539175E+02  0.32412559763E+02  0.29488588779E+03  0.29970724092E+03  0.00000000000E+00 0.  1.
         14    1    3    3    0    0 -0.29220017567E+02 -0.11984842713E+02  0.14640623409E+03  0.14977393386E+03  0.00000000000E+00 0. -1.
         -2    1    1    2    0  502 -0.13396521607E+02 -0.20427717050E+02  0.47877505923E+02  0.53749548728E+02  0.00000000000E+00 0.  1.
<mgrwt>
<rscale>  1 0.85408370E+02</rscale>
<asrwt>0</asrwt>
<pdfrwt beam="1">  1       21 0.10816231E-02 0.85408370E+02</pdfrwt>
<pdfrwt beam="2">  1       -1 0.76338461E-01 0.85408370E+02</pdfrwt>
<totfact> 0.51716919E+05</totfact>
</mgrwt>
</event>
<event>
 6    2  0.9453093E+000  0.8382969E+02  0.7546771E-02  0.1318522E+00
         21   -1    0    0  501  502  0.00000000000E+00  0.00000000000E+00  0.90313525847E+01  0.90313525847E+01  0.00000000000E+00 0. -1.
          4   -1    0    0  502    0 -0.00000000000E+00 -0.00000000000E+00 -0.37707263214E+03  0.37707263214E+03  0.00000000000E+00 0. -1.
         24    2    1    2    0    0  0.44346878372E+01  0.21642678518E+02 -0.34116437705E+03  0.35131260823E+03  0.80866213889E+02 0.  0.
        -11    1    3    3    0    0  0.90259923992E+01 -0.17331601201E+02 -0.20746144549E+02  0.28500095660E+02  0.00000000000E+00 0.  1.
         12    1    3    3    0    0 -0.45913045619E+01  0.38974279719E+02 -0.32041823250E+03  0.32281251257E+03  0.00000000000E+00 0. -1.
          3    1    1    2  501    0 -0.44346878372E+01 -0.21642678518E+02 -0.26876902506E+02  0.34791376488E+02  0.00000000000E+00 0. -1.
<mgrwt>
<rscale>  1 0.83829688E+02</rscale>
<asrwt>0</asrwt>
<pdfrwt beam="1">  1       21 0.13894389E-02 0.83829688E+02</pdfrwt>
<pdfrwt beam="2">  1        4 0.58011171E-01 0.83829688E+02</pdfrwt>
<totfact> 0.23079109E+05</totfact>
</mgrwt>
</event>
<event>
 6    2  0.9453093E+000  0.1102504E+03  0.7546771E-02  0.1260107E+00
         21   -1    0    0  501  502  0.00000000000E+00  0.00000000000E+00  0.94013416373E+01  0.94013416373E+01  0.00000000000E+00 0. -1.
          2   -1    0    0  502    0 -0.00000000000E+00 -0.00000000000E+00 -0.11315858659E+04  0.11315858659E+04  0.00000000000E+00 0. -1.
         24    2    1    2    0    0  0.51693819185E+02  0.53575185546E+02 -0.39806745784E+03  0.41305309148E+03  0.81317918902E+02 0.  0.
        -11    1    3    3    0    0 -0.93602175289E+01 -0.12789406879E+02 -0.28170699304E+02  0.32322916016E+02  0.00000000000E+00 0.  1.
         12    1    3    3    0    0  0.61054036714E+02  0.66364592425E+02 -0.36989675854E+03  0.38073017546E+03  0.00000000000E+00 0. -1.
          1    1    1    2  501    0 -0.51693819185E+02 -0.53575185546E+02 -0.72411706638E+03  0.72793411602E+03  0.00000000000E+00 0. -1.
<mgrwt>
<rscale>  1 0.11025042E+03</rscale>
<asrwt>0</asrwt>
<pdfrwt beam="1">  1       21 0.14463607E-02 0.11025042E+03</pdfrwt>
<pdfrwt beam="2">  1        2 0.17409008E+00 0.11025042E+03</pdfrwt>
<totfact> 0.56717847E+05</totfact>
</mgrwt>
</event>
<event>
 6    2  0.9453093E+000  0.9278325E+02  0.7546771E-02  0.1296248E+00
         21   -1    0    0  501  502  0.00000000000E+00  0.00000000000E+00  0.63978083465E+01  0.63978083465E+01  0.00000000000E+00 0.  1.
          2   -1    0    0  502    0 -0.00000000000E+00 -0.00000000000E+00 -0.79364082486E+03  0.79364082486E+03  0.00000000000E+00 0. -1.
         24    2    1    2    0    0  0.37691451026E+02 -0.11755648971E+02 -0.39210888980E+03  0.40293685927E+03  0.83963625111E+02 0.  0.
        -13    1    3    3    0    0  0.21565573996E+02  0.30083948077E+02 -0.86945410729E+02  0.94496679098E+02  0.00000000000E+00 0.  1.
         14    1    3    3    0    0  0.16125877029E+02 -0.41839597048E+02 -0.30516347907E+03  0.30844018018E+03  0.00000000000E+00 0. -1.
          1    1    1    2  501    0 -0.37691451026E+02  0.11755648971E+02 -0.39513412671E+03  0.39710177393E+03  0.00000000000E+00 0. -1.
<mgrwt>
<rscale>  1 0.92783248E+02</rscale>
<asrwt>0</asrwt>
<pdfrwt beam="1">  1       21 0.98427728E-03 0.92783248E+02</pdfrwt>
<pdfrwt beam="2">  1        2 0.12209870E+00 0.92783248E+02</pdfrwt>
<totfact> 0.16443681E+06</totfact>
</mgrwt>
</event>
<event>
 6    2  0.1041791E+001  0.1114064E+03  0.7546771E-02  0.1257987E+00
         21   -1    0    0  501  502  0.00000000000E+00  0.00000000000E+00  0.31592100103E+02  0.31592100103E+02  0.00000000000E+00 0.  1.
         -3   -1    0    0    0  501 -0.00000000000E+00 -0.00000000000E+00 -0.41080803369E+03  0.41080803369E+03  0.00000000000E+00 0.  1.
         24    2    1    2    0    0 -0.67762188716E+02  0.38887186004E+02 -0.33409280365E+03  0.35217805052E+03  0.79419458323E+02 0.  0.
        -11    1    3    3    0    0 -0.60001380724E+02  0.39289501213E+02 -0.33648765695E+03  0.34404617985E+03  0.00000000000E+00 0.  1.
         12    1    3    3    0    0 -0.77608079930E+01 -0.40231520898E+00  0.23948532939E+01  0.81318706661E+01  0.00000000000E+00 0. -1.
         -4    1    1    2    0  502  0.67762188716E+02 -0.38887186004E+02 -0.45123129934E+02  0.90222083272E+02  0.00000000000E+00 0.  1.
<mgrwt>
<rscale>  1 0.11140636E+03</rscale>
<asrwt>0</asrwt>
<pdfrwt beam="1">  1       21 0.48603235E-02 0.11140636E+03</pdfrwt>
<pdfrwt beam="2">  1       -3 0.63201231E-01 0.11140636E+03</pdfrwt>
<totfact> 0.32850811E+04</totfact>
</mgrwt>
</event>
<event>
 6    2  0.9453093E+000  0.1241063E+03  0.7546771E-02  0.1236473E+00
         21   -1    0    0  501  502  0.00000000000E+00  0.00000000000E+00  0.15576051222E+03  0.15576051222E+03  0.00000000000E+00 0. -1.
          2   -1    0    0  502    0 -0.00000000000E+00 -0.00000000000E+00 -0.93075270183E+02  0.93075270183E+02  0.00000000000E+00 0. -1.
         24    2    1    2    0    0  0.92838657287E+02  0.10745783552E+02 -0.17952246012E+02  0.12539797365E+03  0.81657090982E+02 0.  0.
        -13    1    3    3    0    0  0.24689602802E+00  0.28906134646E+02 -0.10473940558E+02  0.30746203158E+02  0.00000000000E+00 0.  1.
         14    1    3    3    0    0  0.92591761259E+02 -0.18160351094E+02 -0.74783054539E+01  0.94651770492E+02  0.00000000000E+00 0. -1.
          1    1    1    2  501    0 -0.92838657287E+02 -0.10745783552E+02  0.80637488049E+02  0.12343780875E+03  0.00000000000E+00 0. -1.
<mgrwt>
<rscale>  1 0.12410628E+03</rscale>
<asrwt>0</asrwt>
<pdfrwt beam="1">  1       21 0.23963156E-01 0.12410628E+03</pdfrwt>
<pdfrwt beam="2">  1        2 0.14319272E-01 0.12410628E+03</pdfrwt>
<totfact> 0.81402083E+04</totfact>
</mgrwt>
</event>
<event>
 6    2  0.9453093E+000  0.8756301E+02  0.7546771E-02  0.1308863E+00
          2   -1    0    0  502    0 -0.00000000000E+00  0.00000000000E+00  0.15438973502E+04  0.15438973502E+04  0.00000000000E+00 0. -1.
         21   -1    0    0  501  502  0.00000000000E+00 -0.00000000000E+00 -0.36423255084E+01  0.36423255084E+01  0.00000000000E+00 0. -1.
         24    2    1    2    0    0  0.41380695227E+01 -0.36806083367E+02  0.13911624335E+04  0.13939154193E+04  0.79343988673E+02 0.  0.
        -11    1    3    3    0    0 -0.11653432461E+02  0.65221849472E+01  0.44429190415E+02  0.46392826445E+02  0.00000000000E+00 0.  1.
         12    1    3    3    0    0  0.15791501984E+02 -0.43328268314E+02  0.13467332431E+04  0.13475225929E+04  0.00000000000E+00 0. -1.
          1    1    1    2  501    0 -0.41380695227E+01  0.36806083367E+02  0.14909259118E+03  0.15362425635E+03  0.00000000000E+00 0. -1.
<mgrwt>
<rscale>  1 0.87563005E+02</rscale>
<asrwt>0</asrwt>
<pdfrwt beam="1">  1       21 0.56035900E-03 0.87563005E+02</pdfrwt>
<pdfrwt beam="2">  1        2 0.23752215E+00 0.87563005E+02</pdfrwt>
<totfact> 0.14872865E+06</totfact>
</mgrwt>
</event>
<event>
 6    2  0.9453093E+000  0.8462554E+02  0.7546771E-02  0.1316415E+00
         21   -1    0    0  501  502  0.00000000000E+00  0.00000000000E+00  0.15201582217E+02  0.15201582217E+02  0.00000000000E+00 0.  1.
         -1   -1    0    0    0  501 -0.00000000000E+00 -0.00000000000E+00 -0.21822086828E+03  0.21822086828E+03  0.00000000000E+00 0.  1.
         24    2    1    2    0    0  0.25073365207E+01 -0.21590145574E+02 -0.19022900900E+03  0.20820316602E+03  0.81786681999E+02 0.  0.
        -11    1    3    3    0    0  0.10248167394E+02 -0.41949738871E+02 -0.17812433908E+03  0.18328416653E+03  0.00000000000E+00 0.  1.
         12    1    3    3    0    0 -0.77408308733E+01  0.20359593297E+02 -0.12104669921E+02  0.24918999493E+02  0.00000000000E+00 0. -1.
         -2    1    1    2    0  502 -0.25073365207E+01  0.21590145574E+02 -0.12790277063E+02  0.25219284480E+02  0.00000000000E+00 0.  1.
<mgrwt>
<rscale>  1 0.84625543E+02</rscale>
<asrwt>0</asrwt>
<pdfrwt beam="1">  1       21 0.23387052E-02 0.84625543E+02</pdfrwt>
<pdfrwt beam="2">  1       -1 0.33572438E-01 0.84625543E+02</pdfrwt>
<totfact> 0.67801470E+05</totfact>
</mgrwt>
</event>
<event>
 6    2  0.9453093E+000  0.8182341E+02  0.7546771E-02  0.1323955E+00
         21   -1    0    0  501  502  0.00000000000E+00  0.00000000000E+00  0.38035179892E+02  0.38035179892E+02  0.00000000000E+00 0.  1.
          2   -1    0    0  502    0 -0.00000000000E+00 -0.00000000000E+00 -0.82326901333E+02  0.82326901333E+02  0.00000000000E+00 0. -1.
         24    2    1    2    0    0  0.27223930784E+02 -0.26372604806E+01 -0.44225633395E+02  0.93010629385E+02  0.77116619345E+02 0.  0.
        -13    1    3    3    0    0 -0.10880410491E+02  0.21234706882E+02  0.69848914638E+01  0.24861311662E+02  0.00000000000E+00 0.  1.
         14    1    3    3    0    0  0.38104341275E+02 -0.23871967362E+02 -0.51210524859E+02  0.68149317723E+02  0.00000000000E+00 0. -1.
          1    1    1    2  501    0 -0.27223930784E+02  0.26372604806E+01 -0.66088045693E-01  0.27351451841E+02  0.00000000000E+00 0. -1.
<mgrwt>
<rscale>  1 0.81823411E+02</rscale>
<asrwt>0</asrwt>
<pdfrwt beam="1">  1       21 0.58515661E-02 0.81823411E+02</pdfrwt>
<pdfrwt beam="2">  1        2 0.12665677E-01 0.81823411E+02</pdfrwt>
<totfact> 0.10961537E+06</totfact>
</mgrwt>
</event>
<event>
 6    2  0.9453093E+000  0.8558292E+02  0.7546771E-02  0.1313915E+00
         21   -1    0    0  501  502  0.00000000000E+00  0.00000000000E+00  0.33499369303E+03  0.33499369303E+03  0.00000000000E+00 0.  1.
          2   -1    0    0  502    0 -0.00000000000E+00 -0.00000000000E+00 -0.32747862221E+02  0.32747862221E+02  0.00000000000E+00 0. -1.
         24    2    1    2    0    0 -0.77227558371E+01 -0.28622730627E+02  0.32129816792E+03  0.33250104993E+03  0.80284082029E+02 0.  0.
        -11    1    3    3    0    0 -0.18976789248E+02  0.14927825840E+02  0.22412734164E+03  0.22542409762E+03  0.00000000000E+00 0.  1.
         12    1    3    3    0    0  0.11254033411E+02 -0.43550556467E+02  0.97170826278E+02  0.10707695231E+03  0.00000000000E+00 0. -1.
          1    1    1    2  501    0  0.77227558371E+01  0.28622730627E+02 -0.19052337109E+02  0.35240505326E+02  0.00000000000E+00 0. -1.
<mgrwt>
<rscale>  1 0.85582916E+02</rscale>
<asrwt>0</asrwt>
<pdfrwt beam="1">  1       21 0.51537489E-01 0.85582916E+02</pdfrwt>
<pdfrwt beam="2">  1        2 0.50381329E-02 0.85582916E+02</pdfrwt>
<totfact> 0.65202110E+04</totfact>
</mgrwt>
</event>
<event>
 6    2  0.9453093E+000  0.1161240E+03  0.7546771E-02  0.1249632E+00
         21   -1    0    0  501  502  0.00000000000E+00  0.00000000000E+00  0.40228548306E+01  0.40228548306E+01  0.00000000000E+00 0.  1.
          2   -1    0    0  502    0 -0.00000000000E+00 -0.00000000000E+00 -0.28970762420E+04  0.28970762420E+04  0.00000000000E+00 0. -1.
         24    2    1    2    0    0 -0.46479488274E+02  0.70953716854E+02 -0.11166609760E+04  0.11226827307E+04  0.79309556709E+02 0.  0.
        -13    1    3    3    0    0 -0.28913752229E+02  0.71019919482E+02 -0.50673400147E+03  0.51250286075E+03  0.00000000000E+00 0.  1.
         14    1    3    3    0    0 -0.17565736044E+02 -0.66202627600E-01 -0.60992697454E+03  0.61017986998E+03  0.00000000000E+00 0. -1.
          1    1    1    2  501    0  0.46479488274E+02 -0.70953716854E+02 -0.17763924112E+04  0.17784163661E+04  0.00000000000E+00 0. -1.
<mgrwt>
<rscale>  1 0.11612398E+03</rscale>
<asrwt>0</asrwt>
<pdfrwt beam="1">  1       21 0.61890013E-03 0.11612398E+03</pdfrwt>
<pdfrwt beam="2">  1        2 0.44570448E+00 0.11612398E+03</pdfrwt>
<totfact> 0.25475203E+05</totfact>
</mgrwt>
</event>
<event>
 6    2  0.9453093E+000  0.7625206E+02  0.7546771E-02  0.1340037E+00
         21   -1    0    0  501  502  0.00000000000E+00  0.00000000000E+00  0.20421541160E+03  0.20421541160E+03  0.00000000000E+00 0.  1.
         -1   -1    0    0    0  501 -0.00000000000E+00 -0.00000000000E+00 -0.65791326064E+02  0.65791326064E+02  0.00000000000E+00 0.  1.
         24    2    1    2    0    0  0.16147257494E+02  0.38454840610E+02 -0.40462394680E+02  0.86322548102E+02  0.63834694615E+02 0.  0.
        -11    1    3    3    0    0 -0.38315084834E+01  0.51818239340E+02 -0.30905323417E+02  0.60456177526E+02  0.00000000000E+00 0.  1.
         12    1    3    3    0    0  0.19978765977E+02 -0.13363398731E+02 -0.95570712638E+01  0.25866370575E+02  0.00000000000E+00 0. -1.
         -2    1    1    2    0  502 -0.16147257494E+02 -0.38454840610E+02  0.17888648021E+03  0.18368418956E+03  0.00000000000E+00 0.  1.
<mgrwt>
<rscale>  1 0.76252062E+02</rscale>
<asrwt>0</asrwt>
<pdfrwt beam="1">  1       21 0.31417755E-01 0.76252062E+02</pdfrwt>
<pdfrwt beam="2">  1       -1 0.10121743E-01 0.76252062E+02</pdfrwt>
<totfact> 0.50439357E+04</totfact>
</mgrwt>
</event>
<event>
 6    2  0.9453093E+000  0.8413506E+02  0.7546771E-02  0.1317710E+00
         21   -1    0    0  501  502  0.00000000000E+00  0.00000000000E+00  0.21194607122E+03  0.21194607122E+03  0.00000000000E+00 0.  1.
         -3   -1    0    0    0  501 -0.00000000000E+00 -0.00000000000E+00 -0.23879266555E+02  0.23879266555E+02  0.00000000000E+00 0.  1.
         24    2    1    2    0    0 -0.22954175995E+02 -0.13684931020E+02  0.55967174040E+02  0.10104965768E+03  0.79778049709E+02 0.  0.
        -11    1    3    3    0    0 -0.29923626806E+02 -0.39909058281E+02  0.15326218759E+02  0.52182845415E+02  0.00000000000E+00 0.  1.
         12    1    3    3    0    0  0.69694508117E+01  0.26224127261E+02  0.40640955280E+02  0.48866812269E+02  0.00000000000E+00 0. -1.
         -4    1    1    2    0  502  0.22954175995E+02  0.13684931020E+02  0.13209963063E+03  0.13477568009E+03  0.00000000000E+00 0.  1.
<mgrwt>
<rscale>  1 0.84135063E+02</rscale>
<asrwt>0</asrwt>
<pdfrwt beam="1">  1       21 0.32607087E-01 0.84135063E+02</pdfrwt>
<pdfrwt beam="2">  1       -3 0.36737334E-02 0.84135063E+02</pdfrwt>
<totfact> 0.15018294E+05</totfact>
</mgrwt>
</event>
<event>
 6    2  0.9453093E+000  0.9389653E+02  0.7546771E-02  0.1293681E+00
         21   -1    0    0  501  502  0.00000000000E+00  0.00000000000E+00  0.14806346561E+03  0.14806346561E+03  0.00000000000E+00 0. -1.
          4   -1    0    0  502    0 -0.00000000000E+00 -0.00000000000E+00 -0.63595699754E+02  0.63595699754E+02  0.00000000000E+00 0. -1.
         24    2    1    2    0    0 -0.19998227535E+02  0.47511008837E+02 -0.19239311362E+02  0.95847322574E+02  0.78481418678E+02 0.  0.
        -13    1    3    3    0    0  0.19219647043E+02  0.81802215029E+01 -0.32602584192E+02  0.38720012297E+02  0.00000000000E+00 0.  1.
         14    1    3    3    0    0 -0.39217874578E+02  0.39330787334E+02  0.13363272830E+02  0.57127310277E+02  0.00000000000E+00 0. -1.
          3    1    1    2  501    0  0.19998227535E+02 -0.47511008837E+02  0.10370707722E+03  0.11581184279E+03  0.00000000000E+00 0. -1.
<mgrwt>
<rscale>  1 0.93896529E+02</rscale>
<asrwt>0</asrwt>
<pdfrwt beam="1">  1       21 0.22778995E-01 0.93896529E+02</pdfrwt>
<pdfrwt beam="2">  1        4 0.97839539E-02 0.93896529E+02</pdfrwt>
<totfact> 0.55019512E+04</totfact>
</mgrwt>
</event>
<event>
 6    2  0.9453093E+000  0.8176068E+02  0.7546771E-02  0.1324128E+00
          2   -1    0    0  502    0 -0.00000000000E+00  0.00000000000E+00  0.22082259445E+04  0.22082259445E+04  0.00000000000E+00 0. -1.
         21   -1    0    0  501  502  0.00000000000E+00 -0.00000000000E+00 -0.21288744142E+01  0.21288744142E+01  0.00000000000E+00 0. -1.
         24    2    1    2    0    0 -0.33374925714E+02  0.83404034670E+01  0.19769385499E+04  0.19786285248E+04  0.74171161454E+02 0.  0.
        -13    1    3    3    0    0 -0.29463639176E+02 -0.30579384006E+02  0.10945423966E+04  0.10953658122E+04  0.00000000000E+00 0.  1.
         14    1    3    3    0    0 -0.39112865375E+01  0.38919787473E+02  0.88239615336E+03  0.88326271261E+03  0.00000000000E+00 0. -1.
          1    1    1    2  501    0  0.33374925714E+02 -0.83404034670E+01  0.22915852015E+03  0.23172629405E+03  0.00000000000E+00 0. -1.
<mgrwt>
<rscale>  1 0.81760682E+02</rscale>
<asrwt>0</asrwt>
<pdfrwt beam="1">  1       21 0.32752091E-03 0.81760682E+02</pdfrwt>
<pdfrwt beam="2">  1        2 0.33972524E+00 0.81760682E+02</pdfrwt>
<totfact> 0.15576086E+06</totfact>
</mgrwt>
</event>
<event>
 6    2  0.9453093E+000  0.9402474E+02  0.7546771E-02  0.1293388E+00
          4   -1    0    0  502    0 -0.00000000000E+00  0.00000000000E+00  0.57383743248E+02  0.57383743248E+02  0.00000000000E+00 0. -1.
         21   -1    0    0  501  502  0.00000000000E+00 -0.00000000000E+00 -0.90937270860E+02  0.90937270860E+02  0.00000000000E+00 0.  1.
         24    2    1    2    0    0 -0.43931642957E+02 -0.22194480585E+02 -0.12749710070E+02  0.94885229790E+02  0.80112842317E+02 0.  0.
        -11    1    3    3    0    0  0.20856090749E+02 -0.16760502114E+02  0.55879181884E+01  0.27333418779E+02  0.00000000000E+00 0.  1.
         12    1    3    3    0    0 -0.64787733706E+02 -0.54339784713E+01 -0.18337628258E+02  0.67551811012E+02  0.00000000000E+00 0. -1.
          3    1    1    2  501    0  0.43931642957E+02  0.22194480585E+02 -0.20803817543E+02  0.53435784318E+02  0.00000000000E+00 0. -1.
<mgrwt>
<rscale>  1 0.94024740E+02</rscale>
<asrwt>0</asrwt>
<pdfrwt beam="1">  1       21 0.13990349E-01 0.94024740E+02</pdfrwt>
<pdfrwt beam="2">  1        4 0.88282683E-02 0.94024740E+02</pdfrwt>
<totfact> 0.15811677E+05</totfact>
</mgrwt>
</event>
<event>
 6    2  0.9453093E+000  0.8329509E+02  0.7546771E-02  0.1319952E+00
         21   -1    0    0  501  502  0.00000000000E+00  0.00000000000E+00  0.56968951025E+02  0.56968951025E+02  0.00000000000E+00 0. -1.
         -1   -1    0    0    0  501 -0.00000000000E+00 -0.00000000000E+00 -0.49133460451E+02  0.49133460451E+02  0.00000000000E+00 0.  1.
         24    2    1    2    0    0  0.97150282835E+00  0.21196572842E+02 -0.52276435405E+00  0.83296733599E+02  0.80547091988E+02 0.  0.
        -13    1    3    3    0    0  0.55794295053E+01 -0.30607332772E+02  0.24156326467E+01  0.31205354254E+02  0.00000000000E+00 0.  1.
         14    1    3    3    0    0 -0.46079266770E+01  0.51803905614E+02 -0.29383970008E+01  0.52091379345E+02  0.00000000000E+00 0. -1.
         -2    1    1    2    0  502 -0.97150282835E+00 -0.21196572842E+02  0.83582549284E+01  0.22805677877E+02  0.00000000000E+00 0.  1.
<mgrwt>
<rscale>  1 0.83295093E+02</rscale>
<asrwt>0</asrwt>
<pdfrwt beam="1">  1       21 0.87644540E-02 0.83295093E+02</pdfrwt>
<pdfrwt beam="2">  1       -1 0.75589939E-02 0.83295093E+02</pdfrwt>
<totfact> 0.78225007E+05</totfact>
</mgrwt>
</event>
<event>
 6    2  0.9453093E+000  0.8527493E+02  0.7546771E-02  0.1314715E+00
          2   -1    0    0  502    0 -0.00000000000E+00  0.00000000000E+00  0.17511336487E+03  0.17511336487E+03  0.00000000000E+00 0. -1.
         21   -1    0    0  501  502  0.00000000000E+00 -0.00000000000E+00 -0.18923587147E+02  0.18923587147E+02  0.00000000000E+00 0. -1.
         24    2    1    2    0    0  0.12705574026E+02  0.22811694733E+02  0.95867709427E+02  0.12830600838E+03  0.81178870697E+02 0.  0.
        -11    1    3    3    0    0  0.38461011350E+02 -0.76779421449E+01  0.71480484178E+02  0.81533182251E+02  0.00000000000E+00 0.  1.
         12    1    3    3    0    0 -0.25755437324E+02  0.30489636878E+02  0.24387225248E+02  0.46772826128E+02  0.00000000000E+00 0. -1.
          1    1    1    2  501    0 -0.12705574026E+02 -0.22811694733E+02  0.60322068301E+02  0.65730943641E+02  0.00000000000E+00 0. -1.
<mgrwt>
<rscale>  1 0.85274932E+02</rscale>
<asrwt>0</asrwt>
<pdfrwt beam="1">  1       21 0.29113212E-02 0.85274932E+02</pdfrwt>
<pdfrwt beam="2">  1        2 0.26940517E-01 0.85274932E+02</pdfrwt>
<totfact> 0.14865904E+06</totfact>
</mgrwt>
</event>
<event>
 6    2  0.9453093E+000  0.9492056E+02  0.7546771E-02  0.1291355E+00
          2   -1    0    0  502    0 -0.00000000000E+00  0.00000000000E+00  0.21649569225E+03  0.21649569225E+03  0.00000000000E+00 0. -1.
         21   -1    0    0  501  502  0.00000000000E+00 -0.00000000000E+00 -0.26371311811E+02  0.26371311811E+02  0.00000000000E+00 0.  1.
         24    2    1    2    0    0  0.26989328825E+02 -0.43450462527E+02  0.15146745539E+03  0.17875207274E+03  0.79959657969E+02 0.  0.
        -11    1    3    3    0    0  0.12043584606E+02  0.17875103552E+02  0.98364197085E+01  0.23692243664E+02  0.00000000000E+00 0.  1.
         12    1    3    3    0    0  0.14945744219E+02 -0.61325566078E+02  0.14163103568E+03  0.15505982907E+03  0.00000000000E+00 0. -1.
          1    1    1    2  501    0 -0.26989328825E+02  0.43450462527E+02  0.38656925053E+02  0.64114931325E+02  0.00000000000E+00 0. -1.
<mgrwt>
<rscale>  1 0.94920564E+02</rscale>
<asrwt>0</asrwt>
<pdfrwt beam="1">  1       21 0.40571250E-02 0.94920564E+02</pdfrwt>
<pdfrwt beam="2">  1        2 0.33307028E-01 0.94920564E+02</pdfrwt>
<totfact> 0.69666424E+05</totfact>
</mgrwt>
</event>
<event>
 6    2  0.9453093E+000  0.1151016E+03  0.7546771E-02  0.1251404E+00
          4   -1    0    0  502    0 -0.00000000000E+00  0.00000000000E+00  0.23377212149E+02  0.23377212149E+02  0.00000000000E+00 0. -1.
         21   -1    0    0  501  502  0.00000000000E+00 -0.00000000000E+00 -0.80998111672E+03  0.80998111672E+03  0.00000000000E+00 0. -1.
         24    2    1    2    0    0  0.81984169975E+02  0.99947160480E+01 -0.13882340925E+03  0.18033392765E+03  0.80169121417E+02 0.  0.
        -11    1    3    3    0    0  0.38892200064E+02 -0.16375786985E+01 -0.12884619999E+03  0.13459802428E+03  0.00000000000E+00 0.  1.
         12    1    3    3    0    0  0.43091969911E+02  0.11632294746E+02 -0.99772092663E+01  0.45735903365E+02  0.00000000000E+00 0. -1.
          3    1    1    2  501    0 -0.81984169975E+02 -0.99947160480E+01 -0.64778049532E+03  0.65302440122E+03  0.00000000000E+00 0. -1.
<mgrwt>
<rscale>  1 0.11510164E+03</rscale>
<asrwt>0</asrwt>
<pdfrwt beam="1">  1       21 0.12461246E+00 0.11510164E+03</pdfrwt>
<pdfrwt beam="2">  1        4 0.35964948E-02 0.11510164E+03</pdfrwt>
<totfact> 0.80248679E+03</totfact>
</mgrwt>
</event>
<event>
 6    2  0.9453093E+000  0.9287370E+02  0.7546771E-02  0.1296038E+00
         -1   -1    0    0    0  501 -0.00000000000E+00  0.00000000000E+00  0.56212972654E+01  0.56212972654E+01  0.00000000000E+00 0.  1.
         21   -1    0    0  501  502  0.00000000000E+00 -0.00000000000E+00 -0.88110204297E+03  0.88110204297E+03  0.00000000000E+00 0.  1.
         24    2    1    2    0    0  0.18154023570E+02 -0.11459839399E+02 -0.39532529726E+03  0.40608818634E+03  0.90358330767E+02 0.  0.
        -11    1    3    3    0    0  0.41359229271E+02  0.22710668158E+02 -0.14805965297E+03  0.15539633565E+03  0.00000000000E+00 0.  1.
         12    1    3    3    0    0 -0.23205205701E+02 -0.34170507557E+02 -0.24726564429E+03  0.25069185070E+03  0.00000000000E+00 0. -1.
         -2    1    1    2    0  502 -0.18154023570E+02  0.11459839399E+02 -0.48015544844E+03  0.48063515389E+03  0.00000000000E+00 0.  1.
<mgrwt>
<rscale>  1 0.92873701E+02</rscale>
<asrwt>0</asrwt>
<pdfrwt beam="1">  1       21 0.13555416E+00 0.92873701E+02</pdfrwt>
<pdfrwt beam="2">  1       -1 0.86481497E-03 0.92873701E+02</pdfrwt>
<totfact> 0.76594969E+04</totfact>
</mgrwt>
</event>
<event>
 6    2  0.9453093E+000  0.8859398E+02  0.7546771E-02  0.1306293E+00
          4   -1    0    0  502    0 -0.00000000000E+00  0.00000000000E+00  0.18370800292E+03  0.18370800292E+03  0.00000000000E+00 0. -1.
         21   -1    0    0  501  502  0.00000000000E+00 -0.00000000000E+00 -0.71731947401E+02  0.71731947401E+02  0.00000000000E+00 0. -1.
         24    2    1    2    0    0 -0.34367192857E+02 -0.20270780624E+02  0.16606942393E+03  0.18822312953E+03  0.79100470508E+02 0.  0.
        -13    1    3    3    0    0 -0.58992159114E+02 -0.11008241513E+02  0.94216554607E+02  0.11170503740E+03  0.00000000000E+00 0.  1.
         14    1    3    3    0    0  0.24624966257E+02 -0.92625391117E+01  0.71852869322E+02  0.76518092133E+02  0.00000000000E+00 0. -1.
          3    1    1    2  501    0  0.34367192857E+02  0.20270780624E+02 -0.54093368406E+02  0.67216820793E+02  0.00000000000E+00 0. -1.
<mgrwt>
<rscale>  1 0.88593978E+02</rscale>
<asrwt>0</asrwt>
<pdfrwt beam="1">  1       21 0.11035684E-01 0.88593978E+02</pdfrwt>
<pdfrwt beam="2">  1        4 0.28262770E-01 0.88593978E+02</pdfrwt>
<totfact> 0.31220666E+04</totfact>
</mgrwt>
</event>
<event>
 6    2  0.9453093E+000  0.7142575E+02  0.7546771E-02  0.1355311E+00
         21   -1    0    0  501  502  0.00000000000E+00  0.00000000000E+00  0.29022007014E+01  0.29022007014E+01  0.00000000000E+00 0.  1.
          2   -1    0    0  502    0 -0.00000000000E+00 -0.00000000000E+00 -0.96079533394E+03  0.96079533394E+03  0.00000000000E+00 0. -1.
         24    2    1    2    0    0 -0.69813892029E+01  0.26846664708E+02 -0.81588462929E+03  0.81900510777E+03  0.65819108436E+02 0.  0.
        -11    1    3    3    0    0  0.17184467020E+02  0.10046487650E+02 -0.76897996286E+02  0.79432610769E+02  0.00000000000E+00 0.  1.
         12    1    3    3    0    0 -0.24165856223E+02  0.16800177058E+02 -0.73898663300E+03  0.73957249700E+03  0.00000000000E+00 0. -1.
          1    1    1    2  501    0  0.69813892029E+01 -0.26846664708E+02 -0.14200850395E+03  0.14469242687E+03  0.00000000000E+00 0. -1.
<mgrwt>
<rscale>  1 0.71425753E+02</rscale>
<asrwt>0</asrwt>
<pdfrwt beam="1">  1       21 0.44649228E-03 0.71425753E+02</pdfrwt>
<pdfrwt beam="2">  1        2 0.14781471E+00 0.71425753E+02</pdfrwt>
<totfact> 0.42427745E+06</totfact>
</mgrwt>
</event>
<event>
 6    2  0.9453093E+000  0.8563417E+02  0.7546771E-02  0.1313782E+00
          4   -1    0    0  502    0 -0.00000000000E+00  0.00000000000E+00  0.10874559471E+03  0.10874559471E+03  0.00000000000E+00 0. -1.
         21   -1    0    0  501  502  0.00000000000E+00 -0.00000000000E+00 -0.29537978628E+02  0.29537978628E+02  0.00000000000E+00 0. -1.
         24    2    1    2    0    0 -0.24338889920E+02  0.91625469500E+01  0.49945533424E+02  0.99135095580E+02  0.81589687078E+02 0.  0.
        -13    1    3    3    0    0 -0.17235691597E+02 -0.34248847074E+02  0.97829031395E+01  0.39569657372E+02  0.00000000000E+00 0.  1.
         14    1    3    3    0    0 -0.71031983224E+01  0.43411394024E+02  0.40162630284E+02  0.59565438207E+02  0.00000000000E+00 0. -1.
          3    1    1    2  501    0  0.24338889920E+02 -0.91625469500E+01  0.29262082656E+02  0.39148477754E+02  0.00000000000E+00 0. -1.
<mgrwt>
<rscale>  1 0.85634169E+02</rscale>
<asrwt>0</asrwt>
<pdfrwt beam="1">  1       21 0.45443045E-02 0.85634169E+02</pdfrwt>
<pdfrwt beam="2">  1        4 0.16730091E-01 0.85634169E+02</pdfrwt>
<totfact> 0.35896329E+05</totfact>
</mgrwt>
</event>
<event>
 6    2  0.9453093E+000  0.9180906E+02  0.7546771E-02  0.1298529E+00
          2   -1    0    0  502    0 -0.00000000000E+00  0.00000000000E+00  0.73823946406E+01  0.73823946406E+01  0.00000000000E+00 0. -1.
         21   -1    0    0  501  502  0.00000000000E+00 -0.00000000000E+00 -0.65855995143E+03  0.65855995143E+03  0.00000000000E+00 0. -1.
         24    2    1    2    0    0 -0.25808048385E+02 -0.33915573200E+02 -0.35341335634E+03  0.36514367497E+03  0.81317780735E+02 0.  0.
        -11    1    3    3    0    0  0.21455549775E+02 -0.44556665535E+01 -0.21245060812E+03  0.21357774807E+03  0.00000000000E+00 0.  1.
         12    1    3    3    0    0 -0.47263598160E+02 -0.29459906647E+02 -0.14096274821E+03  0.15156592689E+03  0.00000000000E+00 0. -1.
          1    1    1    2  501    0  0.25808048385E+02  0.33915573200E+02 -0.29776420046E+03  0.30079867111E+03  0.00000000000E+00 0. -1.
<mgrwt>
<rscale>  1 0.91809057E+02</rscale>
<asrwt>0</asrwt>
<pdfrwt beam="1">  1       21 0.10131696E+00 0.91809057E+02</pdfrwt>
<pdfrwt beam="2">  1        2 0.11357525E-02 0.91809057E+02</pdfrwt>
<totfact> 0.11004877E+05</totfact>
</mgrwt>
</event>
<event>
 6    2  0.9453093E+000  0.1023362E+03  0.7546771E-02  0.1275459E+00
          2   -1    0    0  502    0 -0.00000000000E+00  0.00000000000E+00  0.61536689887E+03  0.61536689887E+03  0.00000000000E+00 0. -1.
         21   -1    0    0  501  502  0.00000000000E+00 -0.00000000000E+00 -0.13425962464E+02  0.13425962464E+02  0.00000000000E+00 0.  1.
         24    2    1    2    0    0 -0.53545778789E+01  0.62168740038E+02  0.49059245842E+03  0.50115232196E+03  0.81111440650E+02 0.  0.
        -11    1    3    3    0    0  0.26950617530E+02  0.39116257347E+02  0.13044438906E+03  0.13882419101E+03  0.00000000000E+00 0.  1.
         12    1    3    3    0    0 -0.32305195409E+02  0.23052482691E+02  0.36014806936E+03  0.36232813094E+03  0.00000000000E+00 0. -1.
          1    1    1    2  501    0  0.53545778789E+01 -0.62168740038E+02  0.11134847799E+03  0.12764053938E+03  0.00000000000E+00 0. -1.
<mgrwt>
<rscale>  1 0.10233616E+03</rscale>
<asrwt>0</asrwt>
<pdfrwt beam="1">  1       21 0.20655332E-02 0.10233616E+03</pdfrwt>
<pdfrwt beam="2">  1        2 0.94671809E-01 0.10233616E+03</pdfrwt>
<totfact> 0.69050843E+05</totfact>
</mgrwt>
</event>
<event>
 6    2  0.9453093E+000  0.8251153E+02  0.7546771E-02  0.1322071E+00
         21   -1    0    0  501  502  0.00000000000E+00  0.00000000000E+00  0.17867172361E+01  0.17867172361E+01  0.00000000000E+00 0. -1.
          2   -1    0    0  502    0 -0.00000000000E+00 -0.00000000000E+00 -0.25831305386E+04  0.25831305386E+04  0.00000000000E+00 0. -1.
         24    2    1    2    0    0 -0.24027599364E+02  0.20609423655E+02 -0.23464152527E+04  0.23478655605E+04  0.76197626787E+02 0.  0.
        -13    1    3    3    0    0 -0.29771139706E+02  0.44668399125E+02 -0.12222756566E+04  0.12234538681E+04  0.00000000000E+00 0.  1.
         14    1    3    3    0    0  0.57435403420E+01 -0.24058975470E+02 -0.11241395961E+04  0.11244116925E+04  0.00000000000E+00 0. -1.
          1    1    1    2  501    0  0.24027599364E+02 -0.20609423655E+02 -0.23492856864E+03  0.23705169528E+03  0.00000000000E+00 0. -1.
<mgrwt>
<rscale>  1 0.82511528E+02</rscale>
<asrwt>0</asrwt>
<pdfrwt beam="1">  1       21 0.27487827E-03 0.82511528E+02</pdfrwt>
<pdfrwt beam="2">  1        2 0.39740659E+00 0.82511528E+02</pdfrwt>
<totfact> 0.12997471E+06</totfact>
</mgrwt>
</event>
<event>
 6    2  0.9453093E+000  0.8313304E+02  0.7546771E-02  0.1320388E+00
          2   -1    0    0  502    0 -0.00000000000E+00  0.00000000000E+00  0.12214382507E+04  0.12214382507E+04  0.00000000000E+00 0. -1.
         21   -1    0    0  501  502  0.00000000000E+00 -0.00000000000E+00 -0.23578790992E+01  0.23578790992E+01  0.00000000000E+00 0.  1.
         24    2    1    2    0    0 -0.64783768471E+01  0.20215884385E+02  0.10681443080E+04  0.10713745216E+04  0.80376933827E+02 0.  0.
        -11    1    3    3    0    0  0.28039387417E+02 -0.15464843386E+01  0.17000491126E+03  0.17230864375E+03  0.00000000000E+00 0.  1.
         12    1    3    3    0    0 -0.34517764265E+02  0.21762368724E+02  0.89813939674E+03  0.89906587786E+03  0.00000000000E+00 0. -1.
          1    1    1    2  501    0  0.64783768471E+01 -0.20215884385E+02  0.15093606360E+03  0.15242160819E+03  0.00000000000E+00 0. -1.
<mgrwt>
<rscale>  1 0.83133043E+02</rscale>
<asrwt>0</asrwt>
<pdfrwt beam="1">  1       21 0.36275161E-03 0.83133043E+02</pdfrwt>
<pdfrwt beam="2">  1        2 0.18791307E+00 0.83133043E+02</pdfrwt>
<totfact> 0.42286330E+06</totfact>
</mgrwt>
</event>
<event>
 6    2  0.9453093E+000  0.9903475E+02  0.7546771E-02  0.1282339E+00
         21   -1    0    0  501  502  0.00000000000E+00  0.00000000000E+00  0.40635081036E+01  0.40635081036E+01  0.00000000000E+00 0.  1.
          2   -1    0    0  502    0 -0.00000000000E+00 -0.00000000000E+00 -0.15570636559E+04  0.15570636559E+04  0.00000000000E+00 0. -1.
         24    2    1    2    0    0 -0.47359751880E+02 -0.34786465693E+02 -0.10674192993E+04  0.10720036574E+04  0.79717229311E+02 0.  0.
        -11    1    3    3    0    0 -0.58885824327E+02 -0.23925236036E+02 -0.10206203454E+04  0.10225975976E+04  0.00000000000E+00 0.  1.
         12    1    3    3    0    0  0.11526072447E+02 -0.10861229657E+02 -0.46798953961E+02  0.49406059826E+02  0.00000000000E+00 0. -1.
          1    1    1    2  501    0  0.47359751880E+02  0.34786465693E+02 -0.48558084842E+03  0.48912350653E+03  0.00000000000E+00 0. -1.
<mgrwt>
<rscale>  1 0.99034746E+02</rscale>
<asrwt>0</asrwt>
<pdfrwt beam="1">  1       21 0.62515477E-03 0.99034746E+02</pdfrwt>
<pdfrwt beam="2">  1        2 0.23954838E+00 0.99034746E+02</pdfrwt>
<totfact> 0.12475737E+06</totfact>
</mgrwt>
</event>
<event>
 6    2  0.9453093E+000  0.8939890E+02  0.7546771E-02  0.1304314E+00
          2   -1    0    0  502    0 -0.00000000000E+00  0.00000000000E+00  0.17947349160E+04  0.17947349160E+04  0.00000000000E+00 0. -1.
         21   -1    0    0  501  502  0.00000000000E+00 -0.00000000000E+00 -0.20642713913E+01  0.20642713913E+01  0.00000000000E+00 0. -1.
         24    2    1    2    0    0  0.23095395632E+02  0.21249438558E+02  0.12215866245E+04  0.12248534785E+04  0.83709178747E+02 0.  0.
        -11    1    3    3    0    0 -0.24881619769E+02  0.23602647873E+00  0.15526036628E+03  0.15724163586E+03  0.00000000000E+00 0.  1.
         12    1    3    3    0    0  0.47977015401E+02  0.21013412079E+02  0.10663262582E+04  0.10676118426E+04  0.00000000000E+00 0. -1.
          1    1    1    2  501    0 -0.23095395632E+02 -0.21249438558E+02  0.57108402014E+03  0.57194570896E+03  0.00000000000E+00 0. -1.
<mgrwt>
<rscale>  1 0.89398896E+02</rscale>
<asrwt>0</asrwt>
<pdfrwt beam="1">  1       21 0.31758165E-03 0.89398896E+02</pdfrwt>
<pdfrwt beam="2">  1        2 0.27611182E+00 0.89398896E+02</pdfrwt>
<totfact> 0.26478590E+06</totfact>
</mgrwt>
</event>
<event>
 6    2  0.9453093E+000  0.8526801E+02  0.7546771E-02  0.1314733E+00
         -3   -1    0    0    0  501 -0.00000000000E+00  0.00000000000E+00  0.83236763429E+02  0.83236763429E+02  0.00000000000E+00 0.  1.
         21   -1    0    0  501  502  0.00000000000E+00 -0.00000000000E+00 -0.39783095832E+02  0.39783095832E+02  0.00000000000E+00 0. -1.
         24    2    1    2    0    0  0.20752032356E+02 -0.18362326329E+02  0.42551291171E+02  0.95295571022E+02  0.80640012407E+02 0.  0.
        -11    1    3    3    0    0 -0.10486527673E+02 -0.43203286881E+02  0.29288431488E+02  0.53238176894E+02  0.00000000000E+00 0.  1.
         12    1    3    3    0    0  0.31238560030E+02  0.24840960552E+02  0.13262859683E+02  0.42057394128E+02  0.00000000000E+00 0. -1.
         -4    1    1    2    0  502 -0.20752032356E+02  0.18362326329E+02  0.90237642486E+00  0.27724288239E+02  0.00000000000E+00 0.  1.
<mgrwt>
<rscale>  1 0.85268010E+02</rscale>
<asrwt>0</asrwt>
<pdfrwt beam="1">  1       21 0.61204763E-02 0.85268010E+02</pdfrwt>
<pdfrwt beam="2">  1       -3 0.12805656E-01 0.85268010E+02</pdfrwt>
<totfact> 0.40453698E+05</totfact>
</mgrwt>
</event>
<event>
 6    2  0.9453093E+000  0.8149474E+02  0.7546771E-02  0.1324862E+00
          2   -1    0    0  502    0 -0.00000000000E+00  0.00000000000E+00  0.23251215701E+03  0.23251215701E+03  0.00000000000E+00 0. -1.
         21   -1    0    0  501  502  0.00000000000E+00 -0.00000000000E+00 -0.35063782015E+02  0.35063782015E+02  0.00000000000E+00 0.  1.
         24    2    1    2    0    0 -0.19318435445E+02  0.15416758823E+02  0.14266369530E+02  0.82734045703E+02  0.77656388134E+02 0.  0.
        -13    1    3    3    0    0 -0.14405481120E+02 -0.26733614704E+02 -0.12194056508E+02  0.32724594048E+02  0.00000000000E+00 0.  1.
         14    1    3    3    0    0 -0.49129543255E+01  0.42150373528E+02  0.26460426038E+02  0.50009451655E+02  0.00000000000E+00 0. -1.
          1    1    1    2  501    0  0.19318435445E+02 -0.15416758823E+02  0.18318200546E+03  0.18484189332E+03  0.00000000000E+00 0. -1.
<mgrwt>
<rscale>  1 0.81494742E+02</rscale>
<asrwt>0</asrwt>
<pdfrwt beam="1">  1       21 0.53944281E-02 0.81494742E+02</pdfrwt>
<pdfrwt beam="2">  1        2 0.35771100E-01 0.81494742E+02</pdfrwt>
<totfact> 0.39737736E+05</totfact>
</mgrwt>
</event>
<event>
 6    2  0.9453093E+000  0.8478460E+02  0.7546771E-02  0.1315997E+00
         21   -1    0    0  501  502  0.00000000000E+00  0.00000000000E+00  0.36551760221E+01  0.36551760221E+01  0.00000000000E+00 0. -1.
          2   -1    0    0  502    0 -0.00000000000E+00 -0.00000000000E+00 -0.15804118248E+04  0.15804118248E+04  0.00000000000E+00 0. -1.
         24    2    1    2    0    0  0.22293457336E+02  0.20849522339E+01 -0.15287086398E+04  0.15310579786E+04  0.81774588420E+02 0.  0.
        -13    1    3    3    0    0 -0.25942647544E+02 -0.17122706919E+02 -0.42916270827E+03  0.43028692546E+03  0.00000000000E+00 0.  1.
         14    1    3    3    0    0  0.48236104881E+02  0.19207659153E+02 -0.10995459315E+04  0.11007710532E+04  0.00000000000E+00 0. -1.
          1    1    1    2  501    0 -0.22293457336E+02 -0.20849522339E+01 -0.48048009029E+02  0.53009022227E+02  0.00000000000E+00 0. -1.
<mgrwt>
<rscale>  1 0.84784601E+02</rscale>
<asrwt>0</asrwt>
<pdfrwt beam="1">  1       21 0.56233459E-03 0.84784601E+02</pdfrwt>
<pdfrwt beam="2">  1        2 0.24314036E+00 0.84784601E+02</pdfrwt>
<totfact> 0.14143551E+06</totfact>
</mgrwt>
</event>
<event>
 6    2  0.9453093E+000  0.8355611E+02  0.7546771E-02  0.1319252E+00
         21   -1    0    0  501  502  0.00000000000E+00  0.00000000000E+00  0.53549444146E+01  0.53549444146E+01  0.00000000000E+00 0.  1.
          2   -1    0    0  502    0 -0.00000000000E+00 -0.00000000000E+00 -0.53923548064E+03  0.53923548064E+03  0.00000000000E+00 0. -1.
         24    2    1    2    0    0 -0.19915005251E+02 -0.29802332144E+01 -0.47670782801E+03  0.48397518119E+03  0.81093362842E+02 0.  0.
        -11    1    3    3    0    0 -0.24603178610E+01 -0.22134426499E+02 -0.34851312022E+02  0.41359399779E+02  0.00000000000E+00 0.  1.
         12    1    3    3    0    0 -0.17454687390E+02  0.19154193285E+02 -0.44185651599E+03  0.44261578141E+03  0.00000000000E+00 0. -1.
          1    1    1    2  501    0  0.19915005251E+02  0.29802332144E+01 -0.57172708214E+02  0.60615243864E+02  0.00000000000E+00 0. -1.
<mgrwt>
<rscale>  1 0.83556105E+02</rscale>
<asrwt>0</asrwt>
<pdfrwt beam="1">  1       21 0.82383755E-03 0.83556105E+02</pdfrwt>
<pdfrwt beam="2">  1        2 0.82959310E-01 0.83556105E+02</pdfrwt>
<totfact> 0.33387893E+06</totfact>
</mgrwt>
</event>
<event>
 6    2  0.9453093E+000  0.8990969E+02  0.7546771E-02  0.1303071E+00
         21   -1    0    0  501  502  0.00000000000E+00  0.00000000000E+00  0.19996274738E+02  0.19996274738E+02  0.00000000000E+00 0. -1.
          2   -1    0    0  502    0 -0.00000000000E+00 -0.00000000000E+00 -0.38668275965E+03  0.38668275965E+03  0.00000000000E+00 0. -1.
         24    2    1    2    0    0 -0.12251258157E+02 -0.39066625871E+02 -0.35181069049E+03  0.36311776899E+03  0.80046596610E+02 0.  0.
        -13    1    3    3    0    0  0.25186433199E+01  0.71574381343E+01  0.38243867174E+00  0.75972853150E+01  0.00000000000E+00 0.  1.
         14    1    3    3    0    0 -0.14769901477E+02 -0.46224064005E+02 -0.35219312916E+03  0.35552048368E+03  0.00000000000E+00 0. -1.
          1    1    1    2  501    0  0.12251258157E+02  0.39066625871E+02 -0.14875794419E+02  0.43561265397E+02  0.00000000000E+00 0. -1.
<mgrwt>
<rscale>  1 0.89909689E+02</rscale>
<asrwt>0</asrwt>
<pdfrwt beam="1">  1       21 0.30763502E-02 0.89909689E+02</pdfrwt>
<pdfrwt beam="2">  1        2 0.59489651E-01 0.89909689E+02</pdfrwt>
<totfact> 0.59346851E+05</totfact>
</mgrwt>
</event>
<event>
 6    2  0.9453093E+000  0.1982358E+03  0.7546771E-02  0.1151236E+00
          2   -1    0    0  502    0 -0.00000000000E+00  0.00000000000E+00  0.13083786878E+04  0.13083786878E+04  0.00000000000E+00 0. -1.
         21   -1    0    0  501  502  0.00000000000E+00 -0.00000000000E+00 -0.29703427882E+02  0.29703427882E+02  0.00000000000E+00 0.  1.
         24    2    1    2    0    0  0.85652891321E+02 -0.15992030165E+03  0.84597696619E+03  0.86889267200E+03  0.79915752269E+02 0.  0.
        -13    1    3    3    0    0  0.74588867541E+02 -0.93274003673E+02  0.66662105613E+03  0.67723494549E+03  0.00000000000E+00 0.  1.
         14    1    3    3    0    0  0.11064023781E+02 -0.66646297977E+02  0.17935591006E+03  0.19165772650E+03  0.00000000000E+00 0. -1.
          1    1    1    2  501    0 -0.85652891321E+02  0.15992030165E+03  0.43269829378E+03  0.46918944373E+03  0.00000000000E+00 0. -1.
<mgrwt>
<rscale>  1 0.19823584E+03</rscale>
<asrwt>0</asrwt>
<pdfrwt beam="1">  1       21 0.45697591E-02 0.19823584E+03</pdfrwt>
<pdfrwt beam="2">  1        2 0.20128898E+00 0.19823584E+03</pdfrwt>
<totfact> 0.69611412E+04</totfact>
</mgrwt>
</event>
<event>
 6    2  0.9453093E+000  0.1051784E+03  0.7546771E-02  0.1269768E+00
          2   -1    0    0  502    0 -0.00000000000E+00  0.00000000000E+00  0.46437222796E+02  0.46437222796E+02  0.00000000000E+00 0. -1.
         21   -1    0    0  501  502  0.00000000000E+00 -0.00000000000E+00 -0.19480229328E+03  0.19480229328E+03  0.00000000000E+00 0.  1.
         24    2    1    2    0    0 -0.51153511942E+02  0.46517071370E+02 -0.13446605401E+03  0.17071503542E+03  0.79258967470E+02 0.  0.
        -13    1    3    3    0    0 -0.72297896672E+02  0.30578654084E+02 -0.95836279518E+02  0.12388152574E+03  0.00000000000E+00 0.  1.
         14    1    3    3    0    0  0.21144384730E+02  0.15938417286E+02 -0.38629774495E+02  0.46833509678E+02  0.00000000000E+00 0. -1.
          1    1    1    2  501    0  0.51153511942E+02 -0.46517071370E+02 -0.13899016472E+02  0.70524480655E+02  0.00000000000E+00 0. -1.
<mgrwt>
<rscale>  1 0.10517844E+03</rscale>
<asrwt>0</asrwt>
<pdfrwt beam="1">  1       21 0.29969584E-01 0.10517844E+03</pdfrwt>
<pdfrwt beam="2">  1        2 0.71441881E-02 0.10517844E+03</pdfrwt>
<totfact> 0.12334462E+05</totfact>
</mgrwt>
</event>
<event>
 6    2  0.9453093E+000  0.9025195E+02  0.7546771E-02  0.1302243E+00
         21   -1    0    0  501  502  0.00000000000E+00  0.00000000000E+00  0.15090518476E+03  0.15090518476E+03  0.00000000000E+00 0. -1.
          4   -1    0    0  502    0 -0.00000000000E+00 -0.00000000000E+00 -0.21927286849E+03  0.21927286849E+03  0.00000000000E+00 0. -1.
         24    2    1    2    0    0 -0.33261303120E+02  0.26736550551E+02 -0.20662964963E+03  0.22547999302E+03  0.79525201824E+02 0.  0.
        -11    1    3    3    0    0  0.22224821343E+02 -0.78051312742E+00 -0.24403924505E+02  0.33016714187E+02  0.00000000000E+00 0.  1.
         12    1    3    3    0    0 -0.55486124464E+02  0.27517063678E+02 -0.18222572512E+03  0.19246327883E+03  0.00000000000E+00 0. -1.
          3    1    1    2  501    0  0.33261303120E+02 -0.26736550551E+02  0.13826196590E+03  0.14469806024E+03  0.00000000000E+00 0. -1.
<mgrwt>
<rscale>  1 0.90251954E+02</rscale>
<asrwt>0</asrwt>
<pdfrwt beam="1">  1       21 0.23216182E-01 0.90251954E+02</pdfrwt>
<pdfrwt beam="2">  1        4 0.33734287E-01 0.90251954E+02</pdfrwt>
<totfact> 0.58982127E+03</totfact>
</mgrwt>
</event>
<event>
 6    2  0.9453093E+000  0.9655237E+02  0.7546771E-02  0.1287718E+00
          2   -1    0    0  502    0 -0.00000000000E+00  0.00000000000E+00  0.73249373276E+03  0.73249373276E+03  0.00000000000E+00 0. -1.
         21   -1    0    0  501  502  0.00000000000E+00 -0.00000000000E+00 -0.48170512087E+01  0.48170512087E+01  0.00000000000E+00 0.  1.
         24    2    1    2    0    0  0.17828533837E+01  0.21435169478E+02  0.62408330424E+03  0.63150798212E+03  0.94126063290E+02 0.  0.
        -11    1    3    3    0    0 -0.23636608204E+01  0.96876066379E+01  0.31611340158E+01  0.10460850019E+02  0.00000000000E+00 0.  1.
         12    1    3    3    0    0  0.41465142041E+01  0.11747562840E+02  0.62092217022E+03  0.62104713210E+03  0.00000000000E+00 0. -1.
          1    1    1    2  501    0 -0.17828533837E+01 -0.21435169478E+02  0.10359337731E+03  0.10580280185E+03  0.00000000000E+00 0. -1.
<mgrwt>
<rscale>  1 0.96552374E+02</rscale>
<asrwt>0</asrwt>
<pdfrwt beam="1">  1       21 0.74108538E-03 0.96552374E+02</pdfrwt>
<pdfrwt beam="2">  1        2 0.11269126E+00 0.96552374E+02</pdfrwt>
<totfact> 0.28284457E+06</totfact>
</mgrwt>
</event>
<event>
 6    2  0.1272431E+001  0.1041146E+03  0.7546771E-02  0.1271874E+00
         21   -1    0    0  501  502  0.00000000000E+00  0.00000000000E+00  0.24198698333E+02  0.24198698333E+02  0.00000000000E+00 0.  1.
         -3   -1    0    0    0  501 -0.00000000000E+00 -0.00000000000E+00 -0.50958338090E+03  0.50958338090E+03  0.00000000000E+00 0.  1.
         24    2    1    2    0    0 -0.34434578990E+02  0.55310641069E+02 -0.44524581625E+03  0.45725668583E+03  0.81208574691E+02 0.  0.
        -13    1    3    3    0    0 -0.43829724493E+02  0.51365092067E+02 -0.44112821991E+03  0.44626620288E+03  0.00000000000E+00 0.  1.
         14    1    3    3    0    0  0.93951455030E+01  0.39455490021E+01 -0.41175963458E+01  0.10990482957E+02  0.00000000000E+00 0. -1.
         -4    1    1    2    0  502  0.34434578990E+02 -0.55310641069E+02 -0.40138866310E+02  0.76525393395E+02  0.00000000000E+00 0.  1.
<mgrwt>
<rscale>  1 0.10411455E+03</rscale>
<asrwt>0</asrwt>
<pdfrwt beam="1">  1       21 0.37228768E-02 0.10411455E+03</pdfrwt>
<pdfrwt beam="2">  1       -3 0.78397440E-01 0.10411455E+03</pdfrwt>
<totfact> 0.32227340E+04</totfact>
</mgrwt>
</event>
<event>
 6    2  0.9453093E+000  0.9265969E+02  0.7546771E-02  0.1296536E+00
         21   -1    0    0  501  502  0.00000000000E+00  0.00000000000E+00  0.46775564359E+03  0.46775564359E+03  0.00000000000E+00 0. -1.
         -1   -1    0    0    0  501 -0.00000000000E+00 -0.00000000000E+00 -0.94934682581E+01  0.94934682581E+01  0.00000000000E+00 0.  1.
         24    2    1    2    0    0 -0.38170910292E+02  0.13748054218E+02  0.31294188360E+03  0.32637162985E+03  0.83305407193E+02 0.  0.
        -11    1    3    3    0    0  0.23434257371E+02  0.15054745372E+02  0.61898790129E+02  0.67876873795E+02  0.00000000000E+00 0.  1.
         12    1    3    3    0    0 -0.61605167663E+02 -0.13066911545E+01  0.25104309348E+03  0.25849475605E+03  0.00000000000E+00 0. -1.
         -2    1    1    2    0  502  0.38170910292E+02 -0.13748054218E+02  0.14532029173E+03  0.15087748200E+03  0.00000000000E+00 0.  1.
<mgrwt>
<rscale>  1 0.92659691E+02</rscale>
<asrwt>0</asrwt>
<pdfrwt beam="1">  1       21 0.71962389E-01 0.92659691E+02</pdfrwt>
<pdfrwt beam="2">  1       -1 0.14605339E-02 0.92659691E+02</pdfrwt>
<totfact> 0.15794731E+05</totfact>
</mgrwt>
</event>
<event>
 6    2  0.9453093E+000  0.9064037E+02  0.7546771E-02  0.1301308E+00
          2   -1    0    0  502    0 -0.00000000000E+00  0.00000000000E+00  0.42524422300E+03  0.42524422300E+03  0.00000000000E+00 0. -1.
         21   -1    0    0  501  502  0.00000000000E+00 -0.00000000000E+00 -0.84512077756E+01  0.84512077756E+01  0.00000000000E+00 0. -1.
         24    2    1    2    0    0  0.78217640221E+01  0.27985702133E+02  0.32595878202E+03  0.33832647651E+03  0.85856261356E+02 0.  0.
        -13    1    3    3    0    0 -0.47182779603E+01 -0.29409196576E+02  0.77755619445E+02  0.83265234915E+02  0.00000000000E+00 0.  1.
         14    1    3    3    0    0  0.12540041982E+02  0.57394898709E+02  0.24820316258E+03  0.25506124160E+03  0.00000000000E+00 0. -1.
          1    1    1    2  501    0 -0.78217640221E+01 -0.27985702133E+02  0.90834233204E+02  0.95368954267E+02  0.00000000000E+00 0. -1.
<mgrwt>
<rscale>  1 0.90640373E+02</rscale>
<asrwt>0</asrwt>
<pdfrwt beam="1">  1       21 0.13001861E-02 0.90640373E+02</pdfrwt>
<pdfrwt beam="2">  1        2 0.65422171E-01 0.90640373E+02</pdfrwt>
<totfact> 0.21322231E+06</totfact>
</mgrwt>
</event>
<event>
 6    2  0.9453093E+000  0.9038424E+02  0.7546771E-02  0.1301924E+00
          4   -1    0    0  502    0 -0.00000000000E+00  0.00000000000E+00  0.76843596630E+02  0.76843596630E+02  0.00000000000E+00 0. -1.
         21   -1    0    0  501  502  0.00000000000E+00 -0.00000000000E+00 -0.80117459730E+02  0.80117459730E+02  0.00000000000E+00 0.  1.
         24    2    1    2    0    0  0.23798802759E+02  0.41799203415E+02  0.33522888668E+02  0.96400695070E+02  0.76522895439E+02 0.  0.
        -11    1    3    3    0    0  0.17973554528E+02  0.37370131356E+02  0.57748053428E+02  0.71094395381E+02  0.00000000000E+00 0.  1.
         12    1    3    3    0    0  0.58252482305E+01  0.44290720596E+01 -0.24225164760E+02  0.25306299688E+02  0.00000000000E+00 0. -1.
          3    1    1    2  501    0 -0.23798802759E+02 -0.41799203415E+02 -0.36796751769E+02  0.60560361291E+02  0.00000000000E+00 0. -1.
<mgrwt>
<rscale>  1 0.90384235E+02</rscale>
<asrwt>0</asrwt>
<pdfrwt beam="1">  1       21 0.12325763E-01 0.90384235E+02</pdfrwt>
<pdfrwt beam="2">  1        4 0.11822092E-01 0.90384235E+02</pdfrwt>
<totfact> 0.12054125E+05</totfact>
</mgrwt>
</event>
<event>
 6    2  0.9453093E+000  0.1007119E+03  0.7546771E-02  0.1278806E+00
          4   -1    0    0  502    0 -0.00000000000E+00  0.00000000000E+00  0.97685103196E+01  0.97685103196E+01  0.00000000000E+00 0. -1.
         21   -1    0    0  501  502  0.00000000000E+00 -0.00000000000E+00 -0.67968012502E+03  0.67968012502E+03  0.00000000000E+00 0.  1.
         24    2    1    2    0    0 -0.45254288635E+02 -0.39918885101E+02 -0.46792766718E+03  0.47864307782E+03  0.80631421912E+02 0.  0.
        -13    1    3    3    0    0 -0.45745801344E+02 -0.59742745980E+02 -0.42141052303E+03  0.42807558089E+03  0.00000000000E+00 0.  1.
         14    1    3    3    0    0  0.49151270891E+00  0.19823860879E+02 -0.46517144155E+02  0.50567496925E+02  0.00000000000E+00 0. -1.
          3    1    1    2  501    0  0.45254288635E+02  0.39918885101E+02 -0.20198394752E+03  0.21080555752E+03  0.00000000000E+00 0. -1.
<mgrwt>
<rscale>  1 0.10071194E+03</rscale>
<asrwt>0</asrwt>
<pdfrwt beam="1">  1       21 0.10456615E+00 0.10071194E+03</pdfrwt>
<pdfrwt beam="2">  1        4 0.15028480E-02 0.10071194E+03</pdfrwt>
<totfact> 0.46432479E+04</totfact>
</mgrwt>
</event>
<event>
 6    2  0.9453093E+000  0.9949358E+02  0.7546771E-02  0.1281364E+00
          2   -1    0    0  502    0 -0.00000000000E+00  0.00000000000E+00  0.20919285499E+03  0.20919285499E+03  0.00000000000E+00 0. -1.
         21   -1    0    0  501  502  0.00000000000E+00 -0.00000000000E+00 -0.11503573310E+03  0.11503573310E+03  0.00000000000E+00 0. -1.
         24    2    1    2    0    0 -0.59086656704E+02 -0.16348415217E+02  0.18766925124E+03  0.21241167518E+03  0.78361139677E+02 0.  0.
        -13    1    3    3    0    0 -0.24175991382E+02  0.31820132990E+02  0.78448796463E+02  0.88040973923E+02  0.00000000000E+00 0.  1.
         14    1    3    3    0    0 -0.34910665323E+02 -0.48168548207E+02  0.10922045477E+03  0.12437070125E+03  0.00000000000E+00 0. -1.
          1    1    1    2  501    0  0.59086656704E+02  0.16348415217E+02 -0.93512129338E+02  0.11181691292E+03  0.00000000000E+00 0. -1.
<mgrwt>
<rscale>  1 0.99493577E+02</rscale>
<asrwt>0</asrwt>
<pdfrwt beam="1">  1       21 0.17697805E-01 0.99493577E+02</pdfrwt>
<pdfrwt beam="2">  1        2 0.32183516E-01 0.99493577E+02</pdfrwt>
<totfact> 0.57308122E+04</totfact>
</mgrwt>
</event>
<event>
 6    2  0.9453093E+000  0.8238369E+02  0.7546771E-02  0.1322420E+00
         -1   -1    0    0    0  501 -0.00000000000E+00  0.00000000000E+00  0.10319761382E+03  0.10319761382E+03  0.00000000000E+00 0.  1.
         21   -1    0    0  501  502  0.00000000000E+00 -0.00000000000E+00 -0.42805857836E+02  0.42805857836E+02  0.00000000000E+00 0. -1.
         24    2    1    2    0    0 -0.37379135518E+01  0.21439705220E+02  0.81357192313E+02  0.11578456238E+03  0.79457153150E+02 0.  0.
        -11    1    3    3    0    0  0.84459629591E+01  0.12315861406E+02  0.94500945347E+02  0.95673629617E+02  0.00000000000E+00 0.  1.
         12    1    3    3    0    0 -0.12183876511E+02  0.91238438137E+01 -0.13143753034E+02  0.20110932763E+02  0.00000000000E+00 0. -1.
         -2    1    1    2    0  502  0.37379135518E+01 -0.21439705220E+02 -0.20965436326E+02  0.30218909278E+02  0.00000000000E+00 0.  1.
<mgrwt>
<rscale>  1 0.82383689E+02</rscale>
<asrwt>0</asrwt>
<pdfrwt beam="1">  1       21 0.65855166E-02 0.82383689E+02</pdfrwt>
<pdfrwt beam="2">  1       -1 0.15876556E-01 0.82383689E+02</pdfrwt>
<totfact> 0.41235318E+05</totfact>
</mgrwt>
</event>
<event>
 6    2  0.9453093E+000  0.1231759E+03  0.7546771E-02  0.1237948E+00
         -1   -1    0    0    0  501 -0.00000000000E+00  0.00000000000E+00  0.40962800720E+02  0.40962800720E+02  0.00000000000E+00 0.  1.
         21   -1    0    0  501  502  0.00000000000E+00 -0.00000000000E+00 -0.31913265830E+03  0.31913265830E+03  0.00000000000E+00 0. -1.
         24    2    1    2    0    0  0.23789054434E+02 -0.90114374156E+02 -0.21407273293E+03  0.24698064598E+03  0.80534371327E+02 0.  0.
        -13    1    3    3    0    0 -0.17238381529E+02 -0.12358440341E+02 -0.75338224182E+01  0.22508916580E+02  0.00000000000E+00 0.  1.
         14    1    3    3    0    0  0.41027435963E+02 -0.77755933815E+02 -0.20653891051E+03  0.22447172940E+03  0.00000000000E+00 0. -1.
         -2    1    1    2    0  502 -0.23789054434E+02  0.90114374156E+02 -0.64097124652E+02  0.11311481304E+03  0.00000000000E+00 0.  1.
<mgrwt>
<rscale>  1 0.12317591E+03</rscale>
<asrwt>0</asrwt>
<pdfrwt beam="1">  1       21 0.49097331E-01 0.12317591E+03</pdfrwt>
<pdfrwt beam="2">  1       -1 0.63019694E-02 0.12317591E+03</pdfrwt>
<totfact> 0.43112547E+04</totfact>
</mgrwt>
</event>
<event>
 6    2  0.9453093E+000  0.9712539E+02  0.7546771E-02  0.1286460E+00
         21   -1    0    0  501  502  0.00000000000E+00  0.00000000000E+00  0.41560924388E+01  0.41560924388E+01  0.00000000000E+00 0.  1.
          2   -1    0    0  502    0 -0.00000000000E+00 -0.00000000000E+00 -0.14190200084E+04  0.14190200084E+04  0.00000000000E+00 0. -1.
         24    2    1    2    0    0  0.52737977937E+02 -0.13256660014E+02 -0.10139433758E+04  0.10185845625E+04  0.80475513878E+02 0.  0.
        -13    1    3    3    0    0  0.53617797407E+02  0.24178594092E+02 -0.68359894876E+03  0.68612462086E+03  0.00000000000E+00 0.  1.
         14    1    3    3    0    0 -0.87981946982E+00 -0.37435254107E+02 -0.33034442703E+03  0.33245994165E+03  0.00000000000E+00 0. -1.
          1    1    1    2  501    0 -0.52737977937E+02  0.13256660014E+02 -0.40092054013E+03  0.40459153828E+03  0.00000000000E+00 0. -1.
<mgrwt>
<rscale>  1 0.97125392E+02</rscale>
<asrwt>0</asrwt>
<pdfrwt beam="1">  1       21 0.63939880E-03 0.97125392E+02</pdfrwt>
<pdfrwt beam="2">  1        2 0.21831078E+00 0.97125392E+02</pdfrwt>
<totfact> 0.14168605E+06</totfact>
</mgrwt>
</event>
<event>
 6    2  0.9453093E+000  0.9989488E+02  0.7546771E-02  0.1280517E+00
         -3   -1    0    0    0  501 -0.00000000000E+00  0.00000000000E+00  0.12881904224E+02  0.12881904224E+02  0.00000000000E+00 0.  1.
         21   -1    0    0  501  502  0.00000000000E+00 -0.00000000000E+00 -0.49349153650E+03  0.49349153650E+03  0.00000000000E+00 0.  1.
         24    2    1    2    0    0  0.45732092424E+02 -0.27406008944E+02 -0.24060332954E+03  0.26051669593E+03  0.84477648363E+02 0.  0.
        -13    1    3    3    0    0  0.67552960144E+02 -0.14898602330E+02 -0.20885471061E+03  0.22001286535E+03  0.00000000000E+00 0.  1.
         14    1    3    3    0    0 -0.21820867720E+02 -0.12507406614E+02 -0.31748618929E+02  0.40503830587E+02  0.00000000000E+00 0. -1.
         -4    1    1    2    0  502 -0.45732092424E+02  0.27406008944E+02 -0.24000630274E+03  0.24585674479E+03  0.00000000000E+00 0.  1.
<mgrwt>
<rscale>  1 0.99894878E+02</rscale>
<asrwt>0</asrwt>
<pdfrwt beam="1">  1       21 0.75921786E-01 0.99894878E+02</pdfrwt>
<pdfrwt beam="2">  1       -3 0.19818311E-02 0.99894878E+02</pdfrwt>
<totfact> 0.69674745E+04</totfact>
</mgrwt>
</event>
<event>
 6    2  0.9453093E+000  0.8280806E+02  0.7546771E-02  0.1321266E+00
          2   -1    0    0  502    0 -0.00000000000E+00  0.00000000000E+00  0.15107543091E+04  0.15107543091E+04  0.00000000000E+00 0. -1.
         21   -1    0    0  501  502  0.00000000000E+00 -0.00000000000E+00 -0.28387527754E+01  0.28387527754E+01  0.00000000000E+00 0. -1.
         24    2    1    2    0    0 -0.24226065767E+02 -0.12820018676E+01  0.14193910861E+04  0.14218045680E+04  0.79174669577E+02 0.  0.
        -11    1    3    3    0    0  0.22516818046E+02  0.16018235578E+02  0.28981314919E+03  0.29112755350E+03  0.00000000000E+00 0.  1.
         12    1    3    3    0    0 -0.46742883813E+02 -0.17300237445E+02  0.11295779369E+04  0.11306770145E+04  0.00000000000E+00 0. -1.
          1    1    1    2  501    0  0.24226065767E+02  0.12820018676E+01  0.88524470165E+02  0.91788493884E+02  0.00000000000E+00 0. -1.
<mgrwt>
<rscale>  1 0.82808056E+02</rscale>
<asrwt>0</asrwt>
<pdfrwt beam="1">  1       21 0.43673240E-03 0.82808056E+02</pdfrwt>
<pdfrwt beam="2">  1        2 0.23242310E+00 0.82808056E+02</pdfrwt>
<totfact> 0.22538823E+06</totfact>
</mgrwt>
</event>
<event>
 6    2  0.9453093E+000  0.8387573E+02  0.7546771E-02  0.1318399E+00
         21   -1    0    0  501  502  0.00000000000E+00  0.00000000000E+00  0.62046480249E+01  0.62046480249E+01  0.00000000000E+00 0.  1.
          2   -1    0    0  502    0 -0.00000000000E+00 -0.00000000000E+00 -0.49217023618E+03  0.49217023618E+03  0.00000000000E+00 0. -1.
         24    2    1    2    0    0  0.21143612130E+02 -0.16010083621E+02 -0.37903969569E+03  0.38820900205E+03  0.79572377448E+02 0.  0.
        -13    1    3    3    0    0  0.96196637543E+01  0.32320287824E+02 -0.13352822766E+03  0.13772046513E+03  0.00000000000E+00 0.  1.
         14    1    3    3    0    0  0.11523948375E+02 -0.48330371445E+02 -0.24551146804E+03  0.25048853692E+03  0.00000000000E+00 0. -1.
          1    1    1    2  501    0 -0.21143612130E+02  0.16010083621E+02 -0.10692589246E+03  0.11016588215E+03  0.00000000000E+00 0. -1.
<mgrwt>
<rscale>  1 0.83875732E+02</rscale>
<asrwt>0</asrwt>
<pdfrwt beam="1">  1       21 0.95456166E-03 0.83875732E+02</pdfrwt>
<pdfrwt beam="2">  1        2 0.75718464E-01 0.83875732E+02</pdfrwt>
<totfact> 0.29330383E+06</totfact>
</mgrwt>
</event>
<event>
 6    2  0.9453093E+000  0.7992754E+02  0.7546771E-02  0.1329257E+00
          2   -1    0    0  502    0 -0.00000000000E+00  0.00000000000E+00  0.10199304229E+03  0.10199304229E+03  0.00000000000E+00 0. -1.
         21   -1    0    0  501  502  0.00000000000E+00 -0.00000000000E+00 -0.20089567784E+03  0.20089567784E+03  0.00000000000E+00 0. -1.
         24    2    1    2    0    0 -0.27589319007E+02 -0.19875942692E+02  0.84527954464E+02  0.11633308507E+03  0.72333864647E+02 0.  0.
        -11    1    3    3    0    0  0.92108616274E+01 -0.81135079894E+00 -0.96952097535E+01  0.13397587626E+02  0.00000000000E+00 0.  1.
         12    1    3    3    0    0 -0.36800180634E+02 -0.19064591893E+02  0.94223164218E+02  0.10293549744E+03  0.00000000000E+00 0. -1.
          1    1    1    2  501    0  0.27589319007E+02  0.19875942692E+02 -0.18343059001E+03  0.18655563506E+03  0.00000000000E+00 0. -1.
<mgrwt>
<rscale>  1 0.79927540E+02</rscale>
<asrwt>0</asrwt>
<pdfrwt beam="1">  1       21 0.30907027E-01 0.79927540E+02</pdfrwt>
<pdfrwt beam="2">  1        2 0.15691237E-01 0.79927540E+02</pdfrwt>
<totfact> 0.44622021E+04</totfact>
</mgrwt>
</event>
<event>
 6    2  0.9453093E+000  0.8839627E+02  0.7546771E-02  0.1306782E+00
         -1   -1    0    0    0  501 -0.00000000000E+00  0.00000000000E+00  0.38024219591E+03  0.38024219591E+03  0.00000000000E+00 0.  1.
         21   -1    0    0  501  502  0.00000000000E+00 -0.00000000000E+00 -0.42572272549E+02  0.42572272549E+02  0.00000000000E+00 0.  1.
         24    2    1    2    0    0 -0.16926816270E+02 -0.15219025791E+02  0.37159288027E+03  0.38196226093E+03  0.85415246011E+02 0.  0.
        -11    1    3    3    0    0  0.29432757498E+02  0.13318005827E+02  0.17572333434E+03  0.17866825886E+03  0.00000000000E+00 0.  1.
         12    1    3    3    0    0 -0.46359573767E+02 -0.28537031618E+02  0.19586954593E+03  0.20329400207E+03  0.00000000000E+00 0. -1.
         -2    1    1    2    0  502  0.16926816270E+02  0.15219025791E+02 -0.33922956907E+02  0.40852207534E+02  0.00000000000E+00 0.  1.
<mgrwt>
<rscale>  1 0.88396267E+02</rscale>
<asrwt>0</asrwt>
<pdfrwt beam="1">  1       21 0.65495807E-02 0.88396267E+02</pdfrwt>
<pdfrwt beam="2">  1       -1 0.58498797E-01 0.88396267E+02</pdfrwt>
<totfact> 0.46912647E+04</totfact>
</mgrwt>
</event>
<event>
 6    2  0.9453093E+000  0.1187064E+03  0.7546771E-02  0.1245246E+00
         21   -1    0    0  501  502  0.00000000000E+00  0.00000000000E+00  0.11124144941E+02  0.11124144941E+02  0.00000000000E+00 0. -1.
          2   -1    0    0  502    0 -0.00000000000E+00 -0.00000000000E+00 -0.11030053431E+04  0.11030053431E+04  0.00000000000E+00 0. -1.
         24    2    1    2    0    0  0.14004025620E+02  0.88836514315E+02 -0.79844600934E+03  0.80722193022E+03  0.77480163850E+02 0.  0.
        -13    1    3    3    0    0 -0.73624604617E+01  0.17922436988E+02 -0.33506859898E+02  0.38705674414E+02  0.00000000000E+00 0.  1.
         14    1    3    3    0    0  0.21366486081E+02  0.70914077327E+02 -0.76493914944E+03  0.76851625581E+03  0.00000000000E+00 0. -1.
          1    1    1    2  501    0 -0.14004025620E+02 -0.88836514315E+02 -0.29343518878E+03  0.30690755778E+03  0.00000000000E+00 0. -1.
<mgrwt>
<rscale>  1 0.11870642E+03</rscale>
<asrwt>0</asrwt>
<pdfrwt beam="1">  1       21 0.17114069E-02 0.11870642E+03</pdfrwt>
<pdfrwt beam="2">  1        2 0.16969313E+00 0.11870642E+03</pdfrwt>
<totfact> 0.45168219E+05</totfact>
</mgrwt>
</event>
<event>
 6    2  0.9453093E+000  0.8719033E+02  0.7546771E-02  0.1309802E+00
         -3   -1    0    0    0  501 -0.00000000000E+00  0.00000000000E+00  0.87675294211E+03  0.87675294211E+03  0.00000000000E+00 0.  1.
         21   -1    0    0  501  502  0.00000000000E+00 -0.00000000000E+00 -0.63442129319E+01  0.63442129319E+01  0.00000000000E+00 0.  1.
         24    2    1    2    0    0 -0.28431300285E+02 -0.21226986484E+02  0.79490065673E+03  0.79966818648E+03  0.79644400940E+02 0.  0.
        -13    1    3    3    0    0  0.24465442693E+01 -0.39695427228E+02  0.61026645234E+03  0.61156099889E+03  0.00000000000E+00 0.  1.
         14    1    3    3    0    0 -0.30877844554E+02  0.18468440743E+02  0.18463420439E+03  0.18810718758E+03  0.00000000000E+00 0. -1.
         -4    1    1    2    0  502  0.28431300285E+02  0.21226986484E+02  0.75508072446E+02  0.83428968564E+02  0.00000000000E+00 0.  1.
<mgrwt>
<rscale>  1 0.87190334E+02</rscale>
<asrwt>0</asrwt>
<pdfrwt beam="1">  1       21 0.97603345E-03 0.87190334E+02</pdfrwt>
<pdfrwt beam="2">  1       -3 0.13488497E+00 0.87190334E+02</pdfrwt>
<totfact> 0.78641784E+04</totfact>
</mgrwt>
</event>
<event>
 6    2  0.1093928E+001  0.9403152E+02  0.7546771E-02  0.1293372E+00
         21   -1    0    0  501  502  0.00000000000E+00  0.00000000000E+00  0.15002975924E+02  0.15002975924E+02  0.00000000000E+00 0.  1.
         -3   -1    0    0    0  501 -0.00000000000E+00 -0.00000000000E+00 -0.45928188603E+03  0.45928188603E+03  0.00000000000E+00 0.  1.
         24    2    1    2    0    0  0.11497217248E+02  0.40879428331E+02 -0.40718015179E+03  0.41789664037E+03  0.83896438256E+02 0.  0.
        -13    1    3    3    0    0 -0.11699898757E+01  0.55343208524E+02 -0.38311855292E+03  0.38709697131E+03  0.00000000000E+00 0.  1.
         14    1    3    3    0    0  0.12667207124E+02 -0.14463780193E+02 -0.24061598874E+02  0.30799669059E+02  0.00000000000E+00 0. -1.
         -4    1    1    2    0  502 -0.11497217248E+02 -0.40879428331E+02 -0.37098758314E+02  0.56388221586E+02  0.00000000000E+00 0.  1.
<mgrwt>
<rscale>  1 0.94031516E+02</rscale>
<asrwt>0</asrwt>
<pdfrwt beam="1">  1       21 0.23081503E-02 0.94031516E+02</pdfrwt>
<pdfrwt beam="2">  1       -3 0.70658747E-01 0.94031516E+02</pdfrwt>
<totfact> 0.86487140E+04</totfact>
</mgrwt>
</event>
<event>
 6    2  0.9453093E+000  0.1023862E+03  0.7546771E-02  0.1275357E+00
          2   -1    0    0  502    0 -0.00000000000E+00  0.00000000000E+00  0.57997850604E+02  0.57997850604E+02  0.00000000000E+00 0. -1.
         21   -1    0    0  501  502  0.00000000000E+00 -0.00000000000E+00 -0.12676768480E+03  0.12676768480E+03  0.00000000000E+00 0. -1.
         24    2    1    2    0    0 -0.52943519705E+02  0.37327402034E+02 -0.61850476927E+02  0.11961779004E+03  0.79287974981E+02 0.  0.
        -11    1    3    3    0    0 -0.71714938318E+02  0.24089628819E+02 -0.32475889398E+02  0.82328767675E+02  0.00000000000E+00 0.  1.
         12    1    3    3    0    0  0.18771418614E+02  0.13237773215E+02 -0.29374587529E+02  0.37289022365E+02  0.00000000000E+00 0. -1.
          1    1    1    2  501    0  0.52943519705E+02 -0.37327402034E+02 -0.69193572709E+01  0.65147745367E+02  0.00000000000E+00 0. -1.
<mgrwt>
<rscale>  1 0.10238620E+03</rscale>
<asrwt>0</asrwt>
<pdfrwt beam="1">  1       21 0.19502721E-01 0.10238620E+03</pdfrwt>
<pdfrwt beam="2">  1        2 0.89227462E-02 0.10238620E+03</pdfrwt>
<totfact> 0.20879948E+05</totfact>
</mgrwt>
</event>
<event>
 6    2  0.9453093E+000  0.7269998E+02  0.7546771E-02  0.1351145E+00
         -1   -1    0    0    0  501 -0.00000000000E+00  0.00000000000E+00  0.20328122156E+03  0.20328122156E+03  0.00000000000E+00 0.  1.
         21   -1    0    0  501  502  0.00000000000E+00 -0.00000000000E+00 -0.24330942673E+02  0.24330942673E+02  0.00000000000E+00 0.  1.
         24    2    1    2    0    0 -0.22298087130E+02 -0.39922970987E+01  0.18924587424E+03  0.20272959183E+03  0.69080701811E+02 0.  0.
        -11    1    3    3    0    0  0.12832752394E+01 -0.77913130662E+01  0.17445880218E+03  0.17463741011E+03  0.00000000000E+00 0.  1.
         12    1    3    3    0    0 -0.23581362369E+02  0.37990159675E+01  0.14787072060E+02  0.28092181717E+02  0.00000000000E+00 0. -1.
         -2    1    1    2    0  502  0.22298087130E+02  0.39922970987E+01 -0.10295595348E+02  0.24882572402E+02  0.00000000000E+00 0.  1.
<mgrwt>
<rscale>  1 0.72699976E+02</rscale>
<asrwt>0</asrwt>
<pdfrwt beam="1">  1       21 0.37432221E-02 0.72699976E+02</pdfrwt>
<pdfrwt beam="2">  1       -1 0.31274033E-01 0.72699976E+02</pdfrwt>
<totfact> 0.35050169E+05</totfact>
</mgrwt>
</event>
<event>
 6    2  0.9453093E+000  0.9022747E+02  0.7546771E-02  0.1302302E+00
          2   -1    0    0  502    0 -0.00000000000E+00  0.00000000000E+00  0.27777087906E+02  0.27777087906E+02  0.00000000000E+00 0. -1.
         21   -1    0    0  501  502  0.00000000000E+00 -0.00000000000E+00 -0.12404301817E+03  0.12404301817E+03  0.00000000000E+00 0.  1.
         24    2    1    2    0    0  0.92262212529E+01 -0.24469772825E+02 -0.82537882866E+02  0.12228449662E+03  0.86354519654E+02 0.  0.
        -13    1    3    3    0    0  0.16015349103E+02  0.10452027881E+02 -0.84517191176E+02  0.86653862569E+02  0.00000000000E+00 0.  1.
         14    1    3    3    0    0 -0.67891278506E+01 -0.34921800706E+02  0.19793083100E+01  0.35630634051E+02  0.00000000000E+00 0. -1.
          1    1    1    2  501    0 -0.92262212529E+01  0.24469772825E+02 -0.13728047402E+02  0.29535609460E+02  0.00000000000E+00 0. -1.
<mgrwt>
<rscale>  1 0.90227468E+02</rscale>
<asrwt>0</asrwt>
<pdfrwt beam="1">  1       21 0.19083541E-01 0.90227468E+02</pdfrwt>
<pdfrwt beam="2">  1        2 0.42733982E-02 0.90227468E+02</pdfrwt>
<totfact> 0.54758064E+05</totfact>
</mgrwt>
</event>
<event>
 6    2  0.9453093E+000  0.9763081E+02  0.7546771E-02  0.1285358E+00
          2   -1    0    0  502    0 -0.00000000000E+00  0.00000000000E+00  0.15499431440E+04  0.15499431440E+04  0.00000000000E+00 0. -1.
         21   -1    0    0  501  502  0.00000000000E+00 -0.00000000000E+00 -0.13804405218E+02  0.13804405218E+02  0.00000000000E+00 0. -1.
         24    2    1    2    0    0 -0.28921397408E+02 -0.48582266761E+02  0.14828272897E+04  0.14860378685E+04  0.79593289354E+02 0.  0.
        -13    1    3    3    0    0  0.26436453195E+02 -0.25526244596E+02  0.46818162854E+03  0.46962166956E+03  0.00000000000E+00 0.  1.
         14    1    3    3    0    0 -0.55357850604E+02 -0.23056022165E+02  0.10146456612E+04  0.10164161990E+04  0.00000000000E+00 0. -1.
          1    1    1    2  501    0  0.28921397408E+02  0.48582266761E+02  0.53311449084E+02  0.77709680704E+02  0.00000000000E+00 0. -1.
<mgrwt>
<rscale>  1 0.97630813E+02</rscale>
<asrwt>0</asrwt>
<pdfrwt beam="1">  1       21 0.21237559E-02 0.97630813E+02</pdfrwt>
<pdfrwt beam="2">  1        2 0.23845265E+00 0.97630813E+02</pdfrwt>
<totfact> 0.18345084E+05</totfact>
</mgrwt>
</event>
<event>
 6    2  0.9453093E+000  0.9321139E+02  0.7546771E-02  0.1295256E+00
          4   -1    0    0  502    0 -0.00000000000E+00  0.00000000000E+00  0.12682511019E+03  0.12682511019E+03  0.00000000000E+00 0. -1.
         21   -1    0    0  501  502  0.00000000000E+00 -0.00000000000E+00 -0.37576347039E+02  0.37576347039E+02  0.00000000000E+00 0.  1.
         24    2    1    2    0    0 -0.18461359565E+02  0.35364503372E+02  0.81383650175E+02  0.12374029766E+03  0.84243058191E+02 0.  0.
        -13    1    3    3    0    0  0.82590348716E-02 -0.86197014223E+00 -0.17136613194E+02  0.17158279998E+02  0.00000000000E+00 0.  1.
         14    1    3    3    0    0 -0.18469618600E+02  0.36226473514E+02  0.98520263369E+02  0.10658201766E+03  0.00000000000E+00 0. -1.
          3    1    1    2  501    0  0.18461359565E+02 -0.35364503372E+02  0.78651129810E+01  0.40661159574E+02  0.00000000000E+00 0. -1.
<mgrwt>
<rscale>  1 0.93211387E+02</rscale>
<asrwt>0</asrwt>
<pdfrwt beam="1">  1       21 0.57809765E-02 0.93211387E+02</pdfrwt>
<pdfrwt beam="2">  1        4 0.19511555E-01 0.93211387E+02</pdfrwt>
<totfact> 0.18633384E+05</totfact>
</mgrwt>
</event>
<event>
 6    2  0.9453093E+000  0.8659636E+02  0.7546771E-02  0.1311310E+00
         21   -1    0    0  501  502  0.00000000000E+00  0.00000000000E+00  0.12613800182E+02  0.12613800182E+02  0.00000000000E+00 0.  1.
          2   -1    0    0  502    0 -0.00000000000E+00 -0.00000000000E+00 -0.31296066346E+03  0.31296066346E+03  0.00000000000E+00 0. -1.
         24    2    1    2    0    0  0.33085592986E+02  0.10896086684E+02 -0.24811543699E+03  0.26279307261E+03  0.79281446563E+02 0.  0.
        -13    1    3    3    0    0  0.41135229700E+02  0.35369440563E+02 -0.11431254206E+03  0.12653245323E+03  0.00000000000E+00 0.  1.
         14    1    3    3    0    0 -0.80496367143E+01 -0.24473353879E+02 -0.13380289492E+03  0.13626061937E+03  0.00000000000E+00 0. -1.
          1    1    1    2  501    0 -0.33085592986E+02 -0.10896086684E+02 -0.52231426288E+02  0.62781391036E+02  0.00000000000E+00 0. -1.
<mgrwt>
<rscale>  1 0.86596356E+02</rscale>
<asrwt>0</asrwt>
<pdfrwt beam="1">  1       21 0.19405849E-02 0.86596356E+02</pdfrwt>
<pdfrwt beam="2">  1        2 0.48147788E-01 0.86596356E+02</pdfrwt>
<totfact> 0.15496470E+06</totfact>
</mgrwt>
</event>
<event>
 6    2  0.9453093E+000  0.1008015E+03  0.7546771E-02  0.1278620E+00
         21   -1    0    0  501  502  0.00000000000E+00  0.00000000000E+00  0.44779173361E+03  0.44779173361E+03  0.00000000000E+00 0.  1.
         -3   -1    0    0    0  501 -0.00000000000E+00 -0.00000000000E+00 -0.24987745057E+02  0.24987745057E+02  0.00000000000E+00 0.  1.
         24    2    1    2    0    0 -0.32442332887E+02 -0.71361379875E+01  0.80859652833E+02  0.12922546813E+03  0.95170944765E+02 0.  0.
        -13    1    3    3    0    0 -0.30200085259E+02 -0.36231888013E+02  0.43837568092E+01  0.47371005714E+02  0.00000000000E+00 0.  1.
         14    1    3    3    0    0 -0.22422476280E+01  0.29095750025E+02  0.76475896024E+02  0.81854462411E+02  0.00000000000E+00 0. -1.
         -4    1    1    2    0  502  0.32442332887E+02  0.71361379875E+01  0.34194433572E+03  0.34355401055E+03  0.00000000000E+00 0.  1.
<mgrwt>
<rscale>  1 0.10080148E+03</rscale>
<asrwt>0</asrwt>
<pdfrwt beam="1">  1       21 0.68891030E-01 0.10080148E+03</pdfrwt>
<pdfrwt beam="2">  1       -3 0.38442688E-02 0.10080148E+03</pdfrwt>
<totfact> 0.31249931E+04</totfact>
</mgrwt>
</event>
<event>
 6    2  0.9453093E+000  0.8166454E+02  0.7546771E-02  0.1324393E+00
          2   -1    0    0  502    0 -0.00000000000E+00  0.00000000000E+00  0.40380785114E+04  0.40380785114E+04  0.00000000000E+00 0. -1.
         21   -1    0    0  501  502  0.00000000000E+00 -0.00000000000E+00 -0.73450477508E+00  0.73450477508E+00  0.00000000000E+00 0.  1.
         24    2    1    2    0    0  0.43541725470E+01  0.20412282061E+02  0.25140168186E+04  0.25153428518E+04  0.78952375738E+02 0.  0.
        -11    1    3    3    0    0  0.35496703458E+02  0.30449280575E+02  0.11832866654E+04  0.11842104995E+04  0.00000000000E+00 0.  1.
         12    1    3    3    0    0 -0.31142530911E+02 -0.10036998514E+02  0.13307301532E+04  0.13311323523E+04  0.00000000000E+00 0. -1.
          1    1    1    2  501    0 -0.43541725470E+01 -0.20412282061E+02  0.15233271880E+04  0.15234701644E+04  0.00000000000E+00 0. -1.
<mgrwt>
<rscale>  1 0.81664544E+02</rscale>
<asrwt>0</asrwt>
<pdfrwt beam="1">  1       21 0.11300397E-03 0.81664544E+02</pdfrwt>
<pdfrwt beam="2">  1        2 0.62122507E+00 0.81664544E+02</pdfrwt>
<totfact> 0.62046565E+05</totfact>
</mgrwt>
</event>
<event>
 6    2  0.9453093E+000  0.9804306E+02  0.7546771E-02  0.1284466E+00
         -3   -1    0    0    0  501 -0.00000000000E+00  0.00000000000E+00  0.11642738918E+03  0.11642738918E+03  0.00000000000E+00 0.  1.
         21   -1    0    0  501  502  0.00000000000E+00 -0.00000000000E+00 -0.15364438689E+03  0.15364438689E+03  0.00000000000E+00 0.  1.
         24    2    1    2    0    0 -0.87294693553E+01  0.56096984672E+02  0.88532871374E+02  0.13210038448E+03  0.79933515764E+02 0.  0.
        -13    1    3    3    0    0 -0.38132517614E+01  0.76319026350E+02  0.62150203413E+02  0.98497626653E+02  0.00000000000E+00 0.  1.
         14    1    3    3    0    0 -0.49162175940E+01 -0.20222041678E+02  0.26382667961E+02  0.33602757830E+02  0.00000000000E+00 0. -1.
         -4    1    1    2    0  502  0.87294693553E+01 -0.56096984672E+02 -0.12574986908E+03  0.13797139159E+03  0.00000000000E+00 0.  1.
<mgrwt>
<rscale>  1 0.98043063E+02</rscale>
<asrwt>0</asrwt>
<pdfrwt beam="1">  1       21 0.23637598E-01 0.98043063E+02</pdfrwt>
<pdfrwt beam="2">  1       -3 0.17911906E-01 0.98043063E+02</pdfrwt>
<totfact> 0.21585929E+04</totfact>
</mgrwt>
</event>
<event>
 6    2  0.9453093E+000  0.1019703E+03  0.7546771E-02  0.1276206E+00
         21   -1    0    0  501  502  0.00000000000E+00  0.00000000000E+00  0.14281007718E+03  0.14281007718E+03  0.00000000000E+00 0. -1.
          2   -1    0    0  502    0 -0.00000000000E+00 -0.00000000000E+00 -0.85193496415E+02  0.85193496415E+02  0.00000000000E+00 0. -1.
         24    2    1    2    0    0 -0.20180995058E+02 -0.61272859084E+02 -0.41212028370E+02  0.10998353375E+03  0.78970314621E+02 0.  0.
        -13    1    3    3    0    0 -0.87087033212E+01 -0.66089523777E+01  0.22644820078E+02  0.25145728095E+02  0.00000000000E+00 0.  1.
         14    1    3    3    0    0 -0.11472291737E+02 -0.54663906706E+02 -0.63856848449E+02  0.84837805652E+02  0.00000000000E+00 0. -1.
          1    1    1    2  501    0  0.20180995058E+02  0.61272859084E+02  0.98828609131E+02  0.11802003984E+03  0.00000000000E+00 0. -1.
<mgrwt>
<rscale>  1 0.10197032E+03</rscale>
<asrwt>0</asrwt>
<pdfrwt beam="1">  1       21 0.21970781E-01 0.10197032E+03</pdfrwt>
<pdfrwt beam="2">  1        2 0.13106692E-01 0.10197032E+03</pdfrwt>
<totfact> 0.10541075E+05</totfact>
</mgrwt>
</event>
<event>
 6    2  0.9453093E+000  0.7788641E+02  0.7546771E-02  0.1335159E+00
         -1   -1    0    0    0  501 -0.00000000000E+00  0.00000000000E+00  0.16832635232E+03  0.16832635232E+03  0.00000000000E+00 0.  1.
         21   -1    0    0  501  502  0.00000000000E+00 -0.00000000000E+00 -0.32561493209E+02  0.32561493209E+02  0.00000000000E+00 0.  1.
         24    2    1    2    0    0  0.21583228032E+02 -0.66095085717E+01  0.15353445304E+03  0.17216016194E+03  0.74543757318E+02 0.  0.
        -13    1    3    3    0    0  0.28041655880E+02  0.26557846294E+02  0.11283501670E+03  0.11926187428E+03  0.00000000000E+00 0.  1.
         14    1    3    3    0    0 -0.64584278478E+01 -0.33167354865E+02  0.40699436338E+02  0.52898287659E+02  0.00000000000E+00 0. -1.
         -2    1    1    2    0  502 -0.21583228032E+02  0.66095085717E+01 -0.17769593927E+02  0.28727683585E+02  0.00000000000E+00 0.  1.
<mgrwt>
<rscale>  1 0.77886411E+02</rscale>
<asrwt>0</asrwt>
<pdfrwt beam="1">  1       21 0.50094606E-02 0.77886411E+02</pdfrwt>
<pdfrwt beam="2">  1       -1 0.25896361E-01 0.77886411E+02</pdfrwt>
<totfact> 0.29802950E+05</totfact>
</mgrwt>
</event>
<event>
 6    2  0.9453093E+000  0.8368811E+02  0.7546771E-02  0.1318899E+00
         21   -1    0    0  501  502  0.00000000000E+00  0.00000000000E+00  0.22234694661E+01  0.22234694661E+01  0.00000000000E+00 0.  1.
          2   -1    0    0  502    0 -0.00000000000E+00 -0.00000000000E+00 -0.14024218482E+04  0.14024218482E+04  0.00000000000E+00 0. -1.
         24    2    1    2    0    0  0.19725461223E+02 -0.74651356080E+01 -0.86692249869E+03  0.87095253497E+03  0.80986896211E+02 0.  0.
        -13    1    3    3    0    0 -0.19266949986E+01 -0.52371225038E+01 -0.22671396713E+01  0.60232489594E+01  0.00000000000E+00 0.  1.
         14    1    3    3    0    0  0.21652156221E+02 -0.22280131042E+01 -0.86465535902E+03  0.86492928601E+03  0.00000000000E+00 0. -1.
          1    1    1    2  501    0 -0.19725461223E+02  0.74651356080E+01 -0.53327588002E+03  0.53369278267E+03  0.00000000000E+00 0. -1.
<mgrwt>
<rscale>  1 0.83688108E+02</rscale>
<asrwt>0</asrwt>
<pdfrwt beam="1">  1       21 0.34207248E-03 0.83688108E+02</pdfrwt>
<pdfrwt beam="2">  1        2 0.21575705E+00 0.83688108E+02</pdfrwt>
<totfact> 0.37153285E+06</totfact>
</mgrwt>
</event>
<event>
 6    2  0.9453093E+000  0.1844158E+03  0.7546771E-02  0.1163597E+00
          2   -1    0    0  502    0 -0.00000000000E+00  0.00000000000E+00  0.36946071270E+03  0.36946071270E+03  0.00000000000E+00 0. -1.
         21   -1    0    0  501  502  0.00000000000E+00 -0.00000000000E+00 -0.97758526102E+02  0.97758526102E+02  0.00000000000E+00 0. -1.
         24    2    1    2    0    0  0.15361343779E+03 -0.61830726060E+02  0.23302921029E+03  0.29717299200E+03  0.81172947300E+02 0.  0.
        -13    1    3    3    0    0  0.37853379182E+02  0.14300382551E+02  0.26130930791E+02  0.48168504239E+02  0.00000000000E+00 0.  1.
         14    1    3    3    0    0  0.11576005860E+03 -0.76131108612E+02  0.20689827950E+03  0.24900448776E+03  0.00000000000E+00 0. -1.
          1    1    1    2  501    0 -0.15361343779E+03  0.61830726060E+02  0.38672976306E+02  0.17004624680E+03  0.00000000000E+00 0. -1.
<mgrwt>
<rscale>  1 0.18441576E+03</rscale>
<asrwt>0</asrwt>
<pdfrwt beam="1">  1       21 0.15039773E-01 0.18441576E+03</pdfrwt>
<pdfrwt beam="2">  1        2 0.56840109E-01 0.18441576E+03</pdfrwt>
<totfact> 0.42345785E+04</totfact>
</mgrwt>
</event>
<event>
 6    2  0.9453093E+000  0.9976008E+02  0.7546771E-02  0.1280801E+00
          2   -1    0    0  502    0 -0.00000000000E+00  0.00000000000E+00  0.11882196224E+04  0.11882196224E+04  0.00000000000E+00 0. -1.
         21   -1    0    0  501  502  0.00000000000E+00 -0.00000000000E+00 -0.54910750459E+01  0.54910750459E+01  0.00000000000E+00 0.  1.
         24    2    1    2    0    0 -0.11484650669E+02  0.58048297043E+02  0.84108128448E+03  0.84697685973E+03  0.80315451934E+02 0.  0.
        -11    1    3    3    0    0 -0.41251124798E+02  0.53603056882E+02  0.49692912248E+03  0.50151121201E+03  0.00000000000E+00 0.  1.
         12    1    3    3    0    0  0.29766474129E+02  0.44452401607E+01  0.34415216201E+03  0.34546564772E+03  0.00000000000E+00 0. -1.
          1    1    1    2  501    0  0.11484650669E+02 -0.58048297043E+02  0.34164726292E+03  0.34673383776E+03  0.00000000000E+00 0. -1.
<mgrwt>
<rscale>  1 0.99760081E+02</rscale>
<asrwt>0</asrwt>
<pdfrwt beam="1">  1       21 0.84478172E-03 0.99760081E+02</pdfrwt>
<pdfrwt beam="2">  1        2 0.18280281E+00 0.99760081E+02</pdfrwt>
<totfact> 0.12219671E+06</totfact>
</mgrwt>
</event>
<event>
 6    2  0.9453093E+000  0.7839210E+02  0.7546771E-02  0.1333677E+00
         21   -1    0    0  501  502  0.00000000000E+00  0.00000000000E+00  0.29825821463E+02  0.29825821463E+02  0.00000000000E+00 0.  1.
          2   -1    0    0  502    0 -0.00000000000E+00 -0.00000000000E+00 -0.88706801388E+02  0.88706801388E+02  0.00000000000E+00 0. -1.
         24    2    1    2    0    0 -0.15219073059E+02  0.14337232225E+02 -0.58160767059E+02  0.97611458466E+02  0.75552270557E+02 0.  0.
        -11    1    3    3    0    0  0.85849047441E+01  0.89966559636E+01  0.15583299244E+02  0.19936891014E+02  0.00000000000E+00 0.  1.
         12    1    3    3    0    0 -0.23803977803E+02  0.53405762615E+01 -0.73744066303E+02  0.77674567452E+02  0.00000000000E+00 0. -1.
          1    1    1    2  501    0  0.15219073059E+02 -0.14337232225E+02 -0.72021286624E+00  0.20921164385E+02  0.00000000000E+00 0. -1.
<mgrwt>
<rscale>  1 0.78392104E+02</rscale>
<asrwt>0</asrwt>
<pdfrwt beam="1">  1       21 0.45885880E-02 0.78392104E+02</pdfrwt>
<pdfrwt beam="2">  1        2 0.13647200E-01 0.78392104E+02</pdfrwt>
<totfact> 0.14967248E+06</totfact>
</mgrwt>
</event>
<event>
 6    2  0.9453093E+000  0.8958776E+02  0.7546771E-02  0.1303853E+00
          4   -1    0    0  502    0 -0.00000000000E+00  0.00000000000E+00  0.44656243847E+02  0.44656243847E+02  0.00000000000E+00 0. -1.
         21   -1    0    0  501  502  0.00000000000E+00 -0.00000000000E+00 -0.78818709985E+02  0.78818709985E+02  0.00000000000E+00 0. -1.
         24    2    1    2    0    0 -0.30028744962E+01  0.25322964005E+02 -0.38673354481E+02  0.97578663076E+02  0.85881880391E+02 0.  0.
        -13    1    3    3    0    0 -0.47968213413E+01 -0.24904401415E+02 -0.39929799477E+02  0.47303568482E+02  0.00000000000E+00 0.  1.
         14    1    3    3    0    0  0.17939468451E+01  0.50227365421E+02  0.12564449962E+01  0.50275094594E+02  0.00000000000E+00 0. -1.
          3    1    1    2  501    0  0.30028744962E+01 -0.25322964005E+02  0.45108883425E+01  0.25896290756E+02  0.00000000000E+00 0. -1.
<mgrwt>
<rscale>  1 0.89587762E+02</rscale>
<asrwt>0</asrwt>
<pdfrwt beam="1">  1       21 0.12125955E-01 0.89587762E+02</pdfrwt>
<pdfrwt beam="2">  1        4 0.68701915E-02 0.89587762E+02</pdfrwt>
<totfact> 0.30444029E+05</totfact>
</mgrwt>
</event>
<event>
 6    2  0.9453093E+000  0.9877219E+02  0.7546771E-02  0.1282899E+00
         21   -1    0    0  501  502  0.00000000000E+00  0.00000000000E+00  0.17915601166E+01  0.17915601166E+01  0.00000000000E+00 0. -1.
          2   -1    0    0  502    0 -0.00000000000E+00 -0.00000000000E+00 -0.35392155310E+04  0.35392155310E+04  0.00000000000E+00 0. -1.
         24    2    1    2    0    0 -0.74468245645E+01  0.56429442317E+02 -0.25826202647E+04  0.25845083433E+04  0.80723032650E+02 0.  0.
        -13    1    3    3    0    0 -0.37042196202E+02  0.38986775150E+01 -0.79595553098E+03  0.79682653777E+03  0.00000000000E+00 0.  1.
         14    1    3    3    0    0  0.29595371638E+02  0.52530764802E+02 -0.17866647337E+04  0.17876818055E+04  0.00000000000E+00 0. -1.
          1    1    1    2  501    0  0.74468245645E+01 -0.56429442317E+02 -0.95480370624E+03  0.95649874783E+03  0.00000000000E+00 0. -1.
<mgrwt>
<rscale>  1 0.98772188E+02</rscale>
<asrwt>0</asrwt>
<pdfrwt beam="1">  1       21 0.27562666E-03 0.98772188E+02</pdfrwt>
<pdfrwt beam="2">  1        2 0.54449069E+00 0.98772188E+02</pdfrwt>
<totfact> 0.36197029E+05</totfact>
</mgrwt>
</event>
<event>
 6    2  0.9453093E+000  0.9515253E+02  0.7546771E-02  0.1290833E+00
         21   -1    0    0  501  502  0.00000000000E+00  0.00000000000E+00  0.81287923978E+02  0.81287923978E+02  0.00000000000E+00 0.  1.
          4   -1    0    0  502    0 -0.00000000000E+00 -0.00000000000E+00 -0.65879017925E+02  0.65879017925E+02  0.00000000000E+00 0. -1.
         24    2    1    2    0    0 -0.21868277283E+02  0.45264765148E+02  0.17956218433E+02  0.96831970803E+02  0.80789134628E+02 0.  0.
        -13    1    3    3    0    0 -0.41445672155E+02  0.23273811389E+02  0.38300836514E+02  0.61043985082E+02  0.00000000000E+00 0.  1.
         14    1    3    3    0    0  0.19577394872E+02  0.21990953758E+02 -0.20344618081E+02  0.35787985722E+02  0.00000000000E+00 0. -1.
          3    1    1    2  501    0  0.21868277283E+02 -0.45264765148E+02 -0.25473123799E+01  0.50334971099E+02  0.00000000000E+00 0. -1.
<mgrwt>
<rscale>  1 0.95152534E+02</rscale>
<asrwt>0</asrwt>
<pdfrwt beam="1">  1       21 0.12505834E-01 0.95152534E+02</pdfrwt>
<pdfrwt beam="2">  1        4 0.10135234E-01 0.95152534E+02</pdfrwt>
<totfact> 0.15355949E+05</totfact>
</mgrwt>
</event>
<event>
 6    2  0.9453093E+000  0.8746597E+02  0.7546771E-02  0.1309107E+00
         21   -1    0    0  501  502  0.00000000000E+00  0.00000000000E+00  0.19158913537E+04  0.19158913537E+04  0.00000000000E+00 0. -1.
         -1   -1    0    0    0  501 -0.00000000000E+00 -0.00000000000E+00 -0.19581380774E+01  0.19581380774E+01  0.00000000000E+00 0.  1.
         24    2    1    2    0    0  0.22993753912E+02 -0.25745667060E+02  0.14480897419E+04  0.14507288499E+04  0.80366306008E+02 0.  0.
        -11    1    3    3    0    0  0.29971932265E+02 -0.30314264681E+02  0.34716448594E+03  0.34977199955E+03  0.00000000000E+00 0.  1.
         12    1    3    3    0    0 -0.69781783528E+01  0.45685976210E+01  0.11009252559E+04  0.11009568503E+04  0.00000000000E+00 0. -1.
         -2    1    1    2    0  502 -0.22993753912E+02  0.25745667060E+02  0.46584347375E+03  0.46712064194E+03  0.00000000000E+00 0.  1.
<mgrwt>
<rscale>  1 0.87465966E+02</rscale>
<asrwt>0</asrwt>
<pdfrwt beam="1">  1       21 0.29475102E+00 0.87465966E+02</pdfrwt>
<pdfrwt beam="2">  1       -1 0.30125354E-03 0.87465966E+02</pdfrwt>
<totfact> 0.34729167E+04</totfact>
</mgrwt>
</event>
<event>
 6    2  0.9453093E+000  0.9448644E+02  0.7546771E-02  0.1292337E+00
         -1   -1    0    0    0  501 -0.00000000000E+00  0.00000000000E+00  0.94766269384E+02  0.94766269384E+02  0.00000000000E+00 0.  1.
         21   -1    0    0  501  502  0.00000000000E+00 -0.00000000000E+00 -0.17475614319E+03  0.17475614319E+03  0.00000000000E+00 0.  1.
         24    2    1    2    0    0 -0.11461480771E+02  0.18182800493E+02  0.70257987640E+02  0.11774494506E+03  0.92009279343E+02 0.  0.
        -13    1    3    3    0    0 -0.21398379661E+02 -0.18446568477E+02  0.74383553467E+02  0.79568081334E+02  0.00000000000E+00 0.  1.
         14    1    3    3    0    0  0.99368988901E+01  0.36629368970E+02 -0.41255658272E+01  0.38176863728E+02  0.00000000000E+00 0. -1.
         -2    1    1    2    0  502  0.11461480771E+02 -0.18182800493E+02 -0.15024786145E+03  0.15177746751E+03  0.00000000000E+00 0.  1.
<mgrwt>
<rscale>  1 0.94486440E+02</rscale>
<asrwt>0</asrwt>
<pdfrwt beam="1">  1       21 0.26885560E-01 0.94486440E+02</pdfrwt>
<pdfrwt beam="2">  1       -1 0.14579426E-01 0.94486440E+02</pdfrwt>
<totfact> 0.39209817E+04</totfact>
</mgrwt>
</event>
<event>
 6    2  0.9453093E+000  0.8428762E+02  0.7546771E-02  0.1317306E+00
         21   -1    0    0  501  502  0.00000000000E+00  0.00000000000E+00  0.13897696877E+01  0.13897696877E+01  0.00000000000E+00 0. -1.
          2   -1    0    0  502    0 -0.00000000000E+00 -0.00000000000E+00 -0.22520589715E+04  0.22520589715E+04  0.00000000000E+00 0. -1.
         24    2    1    2    0    0 -0.13304759676E+02 -0.21411601693E+02 -0.19036779009E+04  0.19055429548E+04  0.80429651031E+02 0.  0.
        -11    1    3    3    0    0  0.33236534651E+02 -0.56804430025E+01 -0.60832191226E+03  0.60925567999E+03  0.00000000000E+00 0.  1.
         12    1    3    3    0    0 -0.46541294327E+02 -0.15731158690E+02 -0.12953559887E+04  0.12962872748E+04  0.00000000000E+00 0. -1.
          1    1    1    2  501    0  0.13304759676E+02  0.21411601693E+02 -0.34699130086E+03  0.34790578637E+03  0.00000000000E+00 0. -1.
<mgrwt>
<rscale>  1 0.84287615E+02</rscale>
<asrwt>0</asrwt>
<pdfrwt beam="1">  1       21 0.21381119E-03 0.84287615E+02</pdfrwt>
<pdfrwt beam="2">  1        2 0.34646986E+00 0.84287615E+02</pdfrwt>
<totfact> 0.28171686E+06</totfact>
</mgrwt>
</event>
<event>
 6    2  0.9453093E+000  0.8435817E+02  0.7546771E-02  0.1317120E+00
          2   -1    0    0  502    0 -0.00000000000E+00  0.00000000000E+00  0.70169293104E+03  0.70169293104E+03  0.00000000000E+00 0. -1.
         21   -1    0    0  501  502  0.00000000000E+00 -0.00000000000E+00 -0.51168095290E+01  0.51168095290E+01  0.00000000000E+00 0. -1.
         24    2    1    2    0    0 -0.23133769478E+02  0.74924757215E+01  0.63544091859E+03  0.64101596033E+03  0.80777421901E+02 0.  0.
        -11    1    3    3    0    0  0.17265265423E+02 -0.19892417839E+01  0.34368891127E+02  0.38513207479E+02  0.00000000000E+00 0.  1.
         12    1    3    3    0    0 -0.40399034901E+02  0.94817175054E+01  0.60107202747E+03  0.60250275285E+03  0.00000000000E+00 0. -1.
          1    1    1    2  501    0  0.23133769478E+02 -0.74924757215E+01  0.61135202921E+02  0.65793780245E+02  0.00000000000E+00 0. -1.
<mgrwt>
<rscale>  1 0.84358167E+02</rscale>
<asrwt>0</asrwt>
<pdfrwt beam="1">  1       21 0.78720202E-03 0.84358167E+02</pdfrwt>
<pdfrwt beam="2">  1        2 0.10795268E+00 0.84358167E+02</pdfrwt>
<totfact> 0.26683230E+06</totfact>
</mgrwt>
</event>
<event>
 6    2  0.9453093E+000  0.9940177E+02  0.7546771E-02  0.1281559E+00
         -3   -1    0    0    0  501 -0.00000000000E+00  0.00000000000E+00  0.63802815593E+02  0.63802815593E+02  0.00000000000E+00 0.  1.
         21   -1    0    0  501  502  0.00000000000E+00 -0.00000000000E+00 -0.12745692540E+03  0.12745692540E+03  0.00000000000E+00 0.  1.
         24    2    1    2    0    0 -0.19953866261E+02  0.53293714471E+02  0.80395713320E+01  0.99726355302E+02  0.81500518120E+02 0.  0.
        -13    1    3    3    0    0 -0.78135137855E+01  0.70533445451E+02 -0.10390616352E+02  0.71721564631E+02  0.00000000000E+00 0.  1.
         14    1    3    3    0    0 -0.12140352475E+02 -0.17239730980E+02  0.18430187684E+02  0.28004790672E+02  0.00000000000E+00 0. -1.
         -4    1    1    2    0  502  0.19953866261E+02 -0.53293714471E+02 -0.71693681139E+02  0.91533385692E+02  0.00000000000E+00 0.  1.
<mgrwt>
<rscale>  1 0.99401767E+02</rscale>
<asrwt>0</asrwt>
<pdfrwt beam="1">  1       21 0.19608758E-01 0.99401767E+02</pdfrwt>
<pdfrwt beam="2">  1       -3 0.98158178E-02 0.99401767E+02</pdfrwt>
<totfact> 0.83872385E+04</totfact>
</mgrwt>
</event>
<event>
 6    2  0.9453093E+000  0.8297456E+02  0.7546771E-02  0.1320816E+00
          2   -1    0    0  502    0 -0.00000000000E+00  0.00000000000E+00  0.21912009299E+03  0.21912009299E+03  0.00000000000E+00 0. -1.
         21   -1    0    0  501  502  0.00000000000E+00 -0.00000000000E+00 -0.11241564548E+03  0.11241564548E+03  0.00000000000E+00 0. -1.
         24    2    1    2    0    0 -0.35950652509E+01  0.22997930227E+02  0.20992225627E+03  0.22572578935E+03  0.79642633109E+02 0.  0.
        -11    1    3    3    0    0 -0.43656539027E+01 -0.11564376932E+02 -0.60806964621E+00  0.12375924067E+02  0.00000000000E+00 0.  1.
         12    1    3    3    0    0  0.77058865172E+00  0.34562307159E+02  0.21053032592E+03  0.21334986528E+03  0.00000000000E+00 0. -1.
          1    1    1    2  501    0  0.35950652509E+01 -0.22997930227E+02 -0.10321780876E+03  0.10580994913E+03  0.00000000000E+00 0. -1.
<mgrwt>
<rscale>  1 0.82974564E+02</rscale>
<asrwt>0</asrwt>
<pdfrwt beam="1">  1       21 0.17294715E-01 0.82974564E+02</pdfrwt>
<pdfrwt beam="2">  1        2 0.33710783E-01 0.82974564E+02</pdfrwt>
<totfact> 0.56596446E+04</totfact>
</mgrwt>
</event>
<event>
 6    2  0.1182378E+001  0.9169073E+02  0.7546771E-02  0.1298808E+00
         -1   -1    0    0    0  501 -0.00000000000E+00  0.00000000000E+00  0.55505019272E+03  0.55505019272E+03  0.00000000000E+00 0.  1.
         21   -1    0    0  501  502  0.00000000000E+00 -0.00000000000E+00 -0.21163825472E+02  0.21163825472E+02  0.00000000000E+00 0.  1.
         24    2    1    2    0    0 -0.45461430895E+02  0.26917967087E+01  0.52082852840E+03  0.52883792059E+03  0.79581422410E+02 0.  0.
        -13    1    3    3    0    0 -0.61775902326E+02  0.18164676910E+02  0.44839312505E+03  0.45299294938E+03  0.00000000000E+00 0.  1.
         14    1    3    3    0    0  0.16314471431E+02 -0.15472880202E+02  0.72435403346E+02  0.75844971209E+02  0.00000000000E+00 0. -1.
         -2    1    1    2    0  502  0.45461430895E+02 -0.26917967087E+01  0.13057838850E+02  0.47376097602E+02  0.00000000000E+00 0.  1.
<mgrwt>
<rscale>  1 0.91690732E+02</rscale>
<asrwt>0</asrwt>
<pdfrwt beam="1">  1       21 0.32559736E-02 0.91690732E+02</pdfrwt>
<pdfrwt beam="2">  1       -1 0.85392326E-01 0.91690732E+02</pdfrwt>
<totfact> 0.71344723E+04</totfact>
</mgrwt>
</event>
<event>
 6    2  0.9453093E+000  0.8533487E+02  0.7546771E-02  0.1314559E+00
         -1   -1    0    0    0  501 -0.00000000000E+00  0.00000000000E+00  0.13981882501E+02  0.13981882501E+02  0.00000000000E+00 0.  1.
         21   -1    0    0  501  502  0.00000000000E+00 -0.00000000000E+00 -0.22929053993E+03  0.22929053993E+03  0.00000000000E+00 0. -1.
         24    2    1    2    0    0  0.13649852976E+02  0.19027052886E+02 -0.13579038344E+03  0.16037789230E+03  0.82059081614E+02 0.  0.
        -13    1    3    3    0    0  0.13758020393E+02  0.27257383528E+02 -0.70001641940E+01  0.31324916291E+02  0.00000000000E+00 0.  1.
         14    1    3    3    0    0 -0.10816741771E+00 -0.82303306418E+01 -0.12879021925E+03  0.12905297601E+03  0.00000000000E+00 0. -1.
         -2    1    1    2    0  502 -0.13649852976E+02 -0.19027052886E+02 -0.79518273986E+02  0.82894530130E+02  0.00000000000E+00 0.  1.
<mgrwt>
<rscale>  1 0.85334870E+02</rscale>
<asrwt>0</asrwt>
<pdfrwt beam="1">  1       21 0.35275469E-01 0.85334870E+02</pdfrwt>
<pdfrwt beam="2">  1       -1 0.21510588E-02 0.85334870E+02</pdfrwt>
<totfact> 0.38924097E+05</totfact>
</mgrwt>
</event>
<event>
 6    2  0.9453093E+000  0.8258356E+02  0.7546771E-02  0.1321876E+00
         21   -1    0    0  501  502  0.00000000000E+00  0.00000000000E+00  0.13226793608E+01  0.13226793608E+01  0.00000000000E+00 0. -1.
          2   -1    0    0  502    0 -0.00000000000E+00 -0.00000000000E+00 -0.32724979272E+04  0.32724979272E+04  0.00000000000E+00 0. -1.
         24    2    1    2    0    0 -0.11153877883E+02  0.18280776720E+02 -0.31244119748E+04  0.31255031966E+04  0.79758684726E+02 0.  0.
        -13    1    3    3    0    0 -0.19095291578E+02 -0.27583010222E+02 -0.94765706367E+03  0.94825068571E+03  0.00000000000E+00 0.  1.
         14    1    3    3    0    0  0.79414136943E+01  0.45863786941E+02 -0.21767549112E+04  0.21772525109E+04  0.00000000000E+00 0. -1.
          1    1    1    2  501    0  0.11153877883E+02 -0.18280776720E+02 -0.14676327304E+03  0.14831740998E+03  0.00000000000E+00 0. -1.
<mgrwt>
<rscale>  1 0.82583555E+02</rscale>
<asrwt>0</asrwt>
<pdfrwt beam="1">  1       21 0.20348731E-03 0.82583555E+02</pdfrwt>
<pdfrwt beam="2">  1        2 0.50346574E+00 0.82583555E+02</pdfrwt>
<totfact> 0.83768794E+05</totfact>
</mgrwt>
</event>
<event>
 6    2  0.9453093E+000  0.9338590E+02  0.7546771E-02  0.1294853E+00
         -3   -1    0    0    0  501 -0.00000000000E+00  0.00000000000E+00  0.91982531047E+02  0.91982531047E+02  0.00000000000E+00 0.  1.
         21   -1    0    0  501  502  0.00000000000E+00 -0.00000000000E+00 -0.53224964799E+02  0.53224964799E+02  0.00000000000E+00 0. -1.
         24    2    1    2    0    0 -0.38951304963E+02  0.24167281396E+02  0.19039855387E+02  0.95307097350E+02  0.81361324128E+02 0.  0.
        -13    1    3    3    0    0  0.96912016906E+01 -0.17012609620E+02 -0.13466318624E+02  0.23763207140E+02  0.00000000000E+00 0.  1.
         14    1    3    3    0    0 -0.48642506654E+02  0.41179891015E+02  0.32506174012E+02  0.71543890211E+02  0.00000000000E+00 0. -1.
         -4    1    1    2    0  502  0.38951304963E+02 -0.24167281396E+02  0.19717710860E+02  0.49900398495E+02  0.00000000000E+00 0.  1.
<mgrwt>
<rscale>  1 0.93385902E+02</rscale>
<asrwt>0</asrwt>
<pdfrwt beam="1">  1       21 0.81884561E-02 0.93385902E+02</pdfrwt>
<pdfrwt beam="2">  1       -3 0.14151159E-01 0.93385902E+02</pdfrwt>
<totfact> 0.21200688E+05</totfact>
</mgrwt>
</event>
<event>
 6    2  0.9453093E+000  0.8783707E+02  0.7546771E-02  0.1308176E+00
          2   -1    0    0  502    0 -0.00000000000E+00  0.00000000000E+00  0.13376965875E+03  0.13376965875E+03  0.00000000000E+00 0. -1.
         21   -1    0    0  501  502  0.00000000000E+00 -0.00000000000E+00 -0.48504463815E+02  0.48504463815E+02  0.00000000000E+00 0. -1.
         24    2    1    2    0    0 -0.84325770741E+01 -0.32606126106E+02  0.10979657950E+03  0.14060810950E+03  0.81123879181E+02 0.  0.
        -13    1    3    3    0    0 -0.27317281585E+02  0.16950832352E+02  0.25578257744E+02  0.41082987474E+02  0.00000000000E+00 0.  1.
         14    1    3    3    0    0  0.18884704511E+02 -0.49556958458E+02  0.84218321753E+02  0.99525122029E+02  0.00000000000E+00 0. -1.
          1    1    1    2  501    0  0.84325770741E+01  0.32606126106E+02 -0.24531384564E+02  0.41666013060E+02  0.00000000000E+00 0. -1.
<mgrwt>
<rscale>  1 0.87837074E+02</rscale>
<asrwt>0</asrwt>
<pdfrwt beam="1">  1       21 0.74622252E-02 0.87837074E+02</pdfrwt>
<pdfrwt beam="2">  1        2 0.20579947E-01 0.87837074E+02</pdfrwt>
<totfact> 0.42062435E+05</totfact>
</mgrwt>
</event>
<event>
 6    2  0.9453093E+000  0.8218307E+02  0.7546771E-02  0.1322968E+00
          2   -1    0    0  502    0 -0.00000000000E+00  0.00000000000E+00  0.20616181009E+03  0.20616181009E+03  0.00000000000E+00 0. -1.
         21   -1    0    0  501  502  0.00000000000E+00 -0.00000000000E+00 -0.37808172500E+02  0.37808172500E+02  0.00000000000E+00 0. -1.
         24    2    1    2    0    0 -0.10440949816E+02 -0.17440723361E+02  0.19432549957E+03  0.21098923246E+03  0.79629543305E+02 0.  0.
        -13    1    3    3    0    0 -0.84414001012E+01  0.95992310567E+01 -0.18788998743E+01  0.12920245249E+02  0.00000000000E+00 0.  1.
         14    1    3    3    0    0 -0.19995497149E+01 -0.27039954418E+02  0.19620439944E+03  0.19806898721E+03  0.00000000000E+00 0. -1.
          1    1    1    2  501    0  0.10440949816E+02  0.17440723361E+02 -0.25971861980E+02  0.32980750130E+02  0.00000000000E+00 0. -1.
<mgrwt>
<rscale>  1 0.82183067E+02</rscale>
<asrwt>0</asrwt>
<pdfrwt beam="1">  1       21 0.58166420E-02 0.82183067E+02</pdfrwt>
<pdfrwt beam="2">  1        2 0.31717201E-01 0.82183067E+02</pdfrwt>
<totfact> 0.39814615E+05</totfact>
</mgrwt>
</event>
<event>
 6    2  0.9453093E+000  0.9067374E+02  0.7546771E-02  0.1301228E+00
         -1   -1    0    0    0  501 -0.00000000000E+00  0.00000000000E+00  0.34803571041E+03  0.34803571041E+03  0.00000000000E+00 0.  1.
         21   -1    0    0  501  502  0.00000000000E+00 -0.00000000000E+00 -0.13064198021E+02  0.13064198021E+02  0.00000000000E+00 0.  1.
         24    2    1    2    0    0  0.43701397572E+02 -0.54253761634E+01  0.21736853626E+03  0.23552241503E+03  0.79262100437E+02 0.  0.
        -11    1    3    3    0    0  0.66627276236E+02  0.15653426342E+01  0.15602404941E+03  0.16966186440E+03  0.00000000000E+00 0.  1.
         12    1    3    3    0    0 -0.22925878663E+02 -0.69907187976E+01  0.61344486852E+02  0.65860550627E+02  0.00000000000E+00 0. -1.
         -2    1    1    2    0  502 -0.43701397572E+02  0.54253761634E+01  0.11760297612E+03  0.12557749340E+03  0.00000000000E+00 0.  1.
<mgrwt>
<rscale>  1 0.90673742E+02</rscale>
<asrwt>0</asrwt>
<pdfrwt beam="1">  1       21 0.20098769E-02 0.90673742E+02</pdfrwt>
<pdfrwt beam="2">  1       -1 0.53543948E-01 0.90673742E+02</pdfrwt>
<totfact> 0.38437113E+05</totfact>
</mgrwt>
</event>
<event>
 6    2  0.9453093E+000  0.8425764E+02  0.7546771E-02  0.1317385E+00
          2   -1    0    0  502    0 -0.00000000000E+00  0.00000000000E+00  0.22107834821E+03  0.22107834821E+03  0.00000000000E+00 0. -1.
         21   -1    0    0  501  502  0.00000000000E+00 -0.00000000000E+00 -0.13542482705E+02  0.13542482705E+02  0.00000000000E+00 0. -1.
         24    2    1    2    0    0  0.10851409501E+02  0.20544827263E+02  0.14234173096E+03  0.16541015114E+03  0.80990781654E+02 0.  0.
        -13    1    3    3    0    0 -0.10050380110E+02 -0.25909029473E+02  0.81229214673E+02  0.85851460471E+02  0.00000000000E+00 0.  1.
         14    1    3    3    0    0  0.20901789611E+02  0.46453856735E+02  0.61112516289E+02  0.79558690674E+02  0.00000000000E+00 0. -1.
          1    1    1    2  501    0 -0.10851409501E+02 -0.20544827263E+02  0.65194134539E+02  0.69210679766E+02  0.00000000000E+00 0. -1.
<mgrwt>
<rscale>  1 0.84257639E+02</rscale>
<asrwt>0</asrwt>
<pdfrwt beam="1">  1       21 0.20834590E-02 0.84257639E+02</pdfrwt>
<pdfrwt beam="2">  1        2 0.34012051E-01 0.84257639E+02</pdfrwt>
<totfact> 0.19840312E+06</totfact>
</mgrwt>
</event>
<event>
 6    2  0.9453093E+000  0.7911618E+02  0.7546771E-02  0.1331578E+00
         21   -1    0    0  501  502  0.00000000000E+00  0.00000000000E+00  0.29952264866E+01  0.29952264866E+01  0.00000000000E+00 0.  1.
          2   -1    0    0  502    0 -0.00000000000E+00 -0.00000000000E+00 -0.99738063543E+03  0.99738063543E+03  0.00000000000E+00 0. -1.
         24    2    1    2    0    0 -0.18775984317E+02 -0.96559819504E+01 -0.90829892314E+03  0.91173806743E+03  0.76246929372E+02 0.  0.
        -11    1    3    3    0    0 -0.95057457268E+01 -0.33934285524E+02 -0.20853247408E+03  0.21148921410E+03  0.00000000000E+00 0.  1.
         12    1    3    3    0    0 -0.92702385904E+01  0.24278303574E+02 -0.69976644906E+03  0.70024885332E+03  0.00000000000E+00 0. -1.
          1    1    1    2  501    0  0.18775984317E+02  0.96559819504E+01 -0.86086485806E+02  0.88637794495E+02  0.00000000000E+00 0. -1.
<mgrwt>
<rscale>  1 0.79116179E+02</rscale>
<asrwt>0</asrwt>
<pdfrwt beam="1">  1       21 0.46080416E-03 0.79116179E+02</pdfrwt>
<pdfrwt beam="2">  1        2 0.15344315E+00 0.79116179E+02</pdfrwt>
<totfact> 0.38970237E+06</totfact>
</mgrwt>
</event>
<event>
 6    2  0.9453093E+000  0.1025793E+03  0.7546771E-02  0.1274964E+00
         21   -1    0    0  501  502  0.00000000000E+00  0.00000000000E+00  0.13539285837E+03  0.13539285837E+03  0.00000000000E+00 0.  1.
          2   -1    0    0  502    0 -0.00000000000E+00 -0.00000000000E+00 -0.42105347558E+02  0.42105347558E+02  0.00000000000E+00 0. -1.
         24    2    1    2    0    0 -0.18145662472E+02 -0.15879892393E+02  0.25716644535E+02  0.10575381229E+03  0.99704999668E+02 0.  0.
        -11    1    3    3    0    0  0.15609459311E+02 -0.17801030120E+02  0.55726073705E+02  0.60546900696E+02  0.00000000000E+00 0.  1.
         12    1    3    3    0    0 -0.33755121784E+02  0.19211377264E+01 -0.30009429170E+02  0.45206911594E+02  0.00000000000E+00 0. -1.
          1    1    1    2  501    0  0.18145662472E+02  0.15879892393E+02  0.67570866282E+02  0.71744393642E+02  0.00000000000E+00 0. -1.
<mgrwt>
<rscale>  1 0.10257935E+03</rscale>
<asrwt>0</asrwt>
<pdfrwt beam="1">  1       21 0.20829670E-01 0.10257935E+03</pdfrwt>
<pdfrwt beam="2">  1        2 0.64777458E-02 0.10257935E+03</pdfrwt>
<totfact> 0.27614094E+05</totfact>
</mgrwt>
</event>
<event>
 6    2  0.9453093E+000  0.8200893E+02  0.7546771E-02  0.1323445E+00
         21   -1    0    0  501  502  0.00000000000E+00  0.00000000000E+00  0.70976048412E+01  0.70976048412E+01  0.00000000000E+00 0.  1.
          2   -1    0    0  502    0 -0.00000000000E+00 -0.00000000000E+00 -0.55938220042E+03  0.55938220042E+03  0.00000000000E+00 0. -1.
         24    2    1    2    0    0  0.20844992908E+02 -0.28615926738E+01 -0.52807421218E+03  0.53440418981E+03  0.79263876252E+02 0.  0.
        -11    1    3    3    0    0  0.33902325730E+02 -0.21315253193E+02 -0.13846591854E+03  0.14414061991E+03  0.00000000000E+00 0.  1.
         12    1    3    3    0    0 -0.13057332822E+02  0.18453660519E+02 -0.38960829364E+03  0.39026356991E+03  0.00000000000E+00 0. -1.
          1    1    1    2  501    0 -0.20844992908E+02  0.28615926738E+01 -0.24210383394E+02  0.32075615443E+02  0.00000000000E+00 0. -1.
<mgrwt>
<rscale>  1 0.82008930E+02</rscale>
<asrwt>0</asrwt>
<pdfrwt beam="1">  1       21 0.10919391E-02 0.82008930E+02</pdfrwt>
<pdfrwt beam="2">  1        2 0.86058811E-01 0.82008930E+02</pdfrwt>
<totfact> 0.20637830E+06</totfact>
</mgrwt>
</event>
<event>
 6    2  0.9453093E+000  0.9151771E+02  0.7546771E-02  0.1299217E+00
          4   -1    0    0  502    0 -0.00000000000E+00  0.00000000000E+00  0.30171664687E+02  0.30171664687E+02  0.00000000000E+00 0. -1.
         21   -1    0    0  501  502  0.00000000000E+00 -0.00000000000E+00 -0.15869009315E+03  0.15869009315E+03  0.00000000000E+00 0.  1.
         24    2    1    2    0    0 -0.29681399678E+02  0.14188481170E+02 -0.51271622221E+02  0.10490124593E+03  0.85400197121E+02 0.  0.
        -13    1    3    3    0    0  0.66008627011E+01 -0.28015031971E+02 -0.38027178670E+02  0.47691505767E+02  0.00000000000E+00 0.  1.
         14    1    3    3    0    0 -0.36282262379E+02  0.42203513141E+02 -0.13244443551E+02  0.57209740165E+02  0.00000000000E+00 0. -1.
          3    1    1    2  501    0  0.29681399678E+02 -0.14188481170E+02 -0.77246806244E+02  0.83960511907E+02  0.00000000000E+00 0. -1.
<mgrwt>
<rscale>  1 0.91517715E+02</rscale>
<asrwt>0</asrwt>
<pdfrwt beam="1">  1       21 0.24413861E-01 0.91517715E+02</pdfrwt>
<pdfrwt beam="2">  1        4 0.46417945E-02 0.91517715E+02</pdfrwt>
<totfact> 0.16182198E+05</totfact>
</mgrwt>
</event>
<event>
 6    2  0.9453093E+000  0.1042789E+03  0.7546771E-02  0.1271547E+00
          2   -1    0    0  502    0 -0.00000000000E+00  0.00000000000E+00  0.48963243270E+02  0.48963243270E+02  0.00000000000E+00 0. -1.
         21   -1    0    0  501  502  0.00000000000E+00 -0.00000000000E+00 -0.19166206433E+03  0.19166206433E+03  0.00000000000E+00 0. -1.
         24    2    1    2    0    0 -0.32422238251E+02 -0.61777584542E+02 -0.13477730383E+03  0.17040834441E+03  0.77501036975E+02 0.  0.
        -13    1    3    3    0    0 -0.42245898365E+02 -0.95844041992E+01 -0.29249301275E+02  0.52269478260E+02  0.00000000000E+00 0.  1.
         14    1    3    3    0    0  0.98236601138E+01 -0.52193180343E+02 -0.10552800255E+03  0.11813886615E+03  0.00000000000E+00 0. -1.
          1    1    1    2  501    0  0.32422238251E+02  0.61777584542E+02 -0.79215172368E+01  0.70216963195E+02  0.00000000000E+00 0. -1.
<mgrwt>
<rscale>  1 0.10427887E+03</rscale>
<asrwt>0</asrwt>
<pdfrwt beam="1">  1       21 0.29486472E-01 0.10427887E+03</pdfrwt>
<pdfrwt beam="2">  1        2 0.75328066E-02 0.10427887E+03</pdfrwt>
<totfact> 0.11900454E+05</totfact>
</mgrwt>
</event>
<event>
 6    2  0.9453093E+000  0.7729106E+02  0.7546771E-02  0.1336920E+00
         21   -1    0    0  501  502  0.00000000000E+00  0.00000000000E+00  0.25072716771E+01  0.25072716771E+01  0.00000000000E+00 0. -1.
          2   -1    0    0  502    0 -0.00000000000E+00 -0.00000000000E+00 -0.13735800669E+04  0.13735800669E+04  0.00000000000E+00 0. -1.
         24    2    1    2    0    0  0.58466252930E+01 -0.34592368934E+02 -0.11068930917E+04  0.11095883127E+04  0.68870111898E+02 0.  0.
        -13    1    3    3    0    0  0.22756735727E+02 -0.13490435366E+02 -0.15012176633E+03  0.15243492249E+03  0.00000000000E+00 0.  1.
         14    1    3    3    0    0 -0.16910110434E+02 -0.21101933567E+02 -0.95677132535E+03  0.95715339024E+03  0.00000000000E+00 0. -1.
          1    1    1    2  501    0 -0.58466252930E+01  0.34592368934E+02 -0.26417970356E+03  0.26649902587E+03  0.00000000000E+00 0. -1.
<mgrwt>
<rscale>  1 0.77291056E+02</rscale>
<asrwt>0</asrwt>
<pdfrwt beam="1">  1       21 0.38573521E-03 0.77291056E+02</pdfrwt>
<pdfrwt beam="2">  1        2 0.21131941E+00 0.77291056E+02</pdfrwt>
<totfact> 0.31795274E+06</totfact>
</mgrwt>
</event>
<event>
 6    2  0.9453093E+000  0.8442243E+02  0.7546771E-02  0.1316950E+00
         -3   -1    0    0    0  501 -0.00000000000E+00  0.00000000000E+00  0.32786451858E+01  0.32786451858E+01  0.00000000000E+00 0.  1.
         21   -1    0    0  501  502  0.00000000000E+00 -0.00000000000E+00 -0.90109456765E+03  0.90109456765E+03  0.00000000000E+00 0. -1.
         24    2    1    2    0    0  0.11421578798E+02 -0.19577850213E+02 -0.63612750592E+03  0.64170503426E+03  0.81322829081E+02 0.  0.
        -13    1    3    3    0    0  0.26385878354E+02  0.10884627631E+02 -0.87689706441E+02  0.92218080174E+02  0.00000000000E+00 0.  1.
         14    1    3    3    0    0 -0.14964299556E+02 -0.30462477844E+02 -0.54843779947E+03  0.54948695409E+03  0.00000000000E+00 0. -1.
         -4    1    1    2    0  502 -0.11421578798E+02  0.19577850213E+02 -0.26168841655E+03  0.26266817858E+03  0.00000000000E+00 0.  1.
<mgrwt>
<rscale>  1 0.84422433E+02</rscale>
<asrwt>0</asrwt>
<pdfrwt beam="1">  1       21 0.13862977E+00 0.84422433E+02</pdfrwt>
<pdfrwt beam="2">  1       -3 0.50440753E-03 0.84422433E+02</pdfrwt>
<totfact> 0.12787596E+05</totfact>
</mgrwt>
</event>
<event>
 6    2  0.9453093E+000  0.8484660E+02  0.7546771E-02  0.1315834E+00
         21   -1    0    0  501  502  0.00000000000E+00  0.00000000000E+00  0.58921802455E+01  0.58921802455E+01  0.00000000000E+00 0.  1.
          2   -1    0    0  502    0 -0.00000000000E+00 -0.00000000000E+00 -0.53273234920E+03  0.53273234920E+03  0.00000000000E+00 0. -1.
         24    2    1    2    0    0 -0.98642414671E+01  0.24847805851E+02 -0.37834658585E+03  0.38774357989E+03  0.80524704326E+02 0.  0.
        -13    1    3    3    0    0 -0.17282211674E+02  0.15223559999E+02 -0.24269444979E+02  0.33457997235E+02  0.00000000000E+00 0.  1.
         14    1    3    3    0    0  0.74179702069E+01  0.96242458511E+01 -0.35407714087E+03  0.35428558266E+03  0.00000000000E+00 0. -1.
          1    1    1    2  501    0  0.98642414671E+01 -0.24847805851E+02 -0.14849358310E+03  0.15088094955E+03  0.00000000000E+00 0. -1.
<mgrwt>
<rscale>  1 0.84846595E+02</rscale>
<asrwt>0</asrwt>
<pdfrwt beam="1">  1       21 0.90648948E-03 0.84846595E+02</pdfrwt>
<pdfrwt beam="2">  1        2 0.81958804E-01 0.84846595E+02</pdfrwt>
<totfact> 0.29219706E+06</totfact>
</mgrwt>
</event>
<event>
 6    2  0.9453093E+000  0.8966660E+02  0.7546771E-02  0.1303661E+00
         21   -1    0    0  501  502  0.00000000000E+00  0.00000000000E+00  0.44530881902E+01  0.44530881902E+01  0.00000000000E+00 0.  1.
          2   -1    0    0  502    0 -0.00000000000E+00 -0.00000000000E+00 -0.15255375503E+04  0.15255375503E+04  0.00000000000E+00 0. -1.
         24    2    1    2    0    0  0.18490737766E+02 -0.21367386979E+02 -0.14592868274E+04  0.14620390361E+04  0.85097743194E+02 0.  0.
        -13    1    3    3    0    0  0.21125804102E+02 -0.45121131405E+01 -0.86852812144E+02  0.89498992962E+02  0.00000000000E+00 0.  1.
         14    1    3    3    0    0 -0.26350663360E+01 -0.16855273838E+02 -0.13724340152E+04  0.13725400431E+04  0.00000000000E+00 0. -1.
          1    1    1    2  501    0 -0.18490737766E+02  0.21367386979E+02 -0.61797634715E+02  0.67951602379E+02  0.00000000000E+00 0. -1.
<mgrwt>
<rscale>  1 0.89666596E+02</rscale>
<asrwt>0</asrwt>
<pdfrwt beam="1">  1       21 0.68509037E-03 0.89666596E+02</pdfrwt>
<pdfrwt beam="2">  1        2 0.23469813E+00 0.89666596E+02</pdfrwt>
<totfact> 0.11167920E+06</totfact>
</mgrwt>
</event>
<event>
 6    2  0.9453093E+000  0.9138357E+02  0.7546771E-02  0.1299535E+00
          2   -1    0    0  502    0 -0.00000000000E+00  0.00000000000E+00  0.10831793337E+04  0.10831793337E+04  0.00000000000E+00 0. -1.
         21   -1    0    0  501  502  0.00000000000E+00 -0.00000000000E+00 -0.20866559980E+02  0.20866559980E+02  0.00000000000E+00 0. -1.
         24    2    1    2    0    0 -0.20277753655E+02 -0.39497641171E+02  0.10551179802E+04  0.10590679434E+04  0.79873059549E+02 0.  0.
        -13    1    3    3    0    0 -0.65235676986E+01 -0.19510385291E+02  0.56060997875E+02  0.59716392661E+02  0.00000000000E+00 0.  1.
         14    1    3    3    0    0 -0.13754185956E+02 -0.19987255881E+02  0.99905698236E+03  0.99935155077E+03  0.00000000000E+00 0. -1.
          1    1    1    2  501    0  0.20277753655E+02  0.39497641171E+02  0.71947934357E+01  0.44977950197E+02  0.00000000000E+00 0. -1.
<mgrwt>
<rscale>  1 0.91383569E+02</rscale>
<asrwt>0</asrwt>
<pdfrwt beam="1">  1       21 0.32102408E-02 0.91383569E+02</pdfrwt>
<pdfrwt beam="2">  1        2 0.16664293E+00 0.91383569E+02</pdfrwt>
<totfact> 0.16612210E+05</totfact>
</mgrwt>
</event>
<event>
 6    2  0.9453093E+000  0.8704923E+02  0.7546771E-02  0.1310159E+00
         21   -1    0    0  501  502  0.00000000000E+00  0.00000000000E+00  0.14410773894E+03  0.14410773894E+03  0.00000000000E+00 0. -1.
         -1   -1    0    0    0  501 -0.00000000000E+00 -0.00000000000E+00 -0.24749395567E+02  0.24749395567E+02  0.00000000000E+00 0.  1.
         24    2    1    2    0    0  0.12705599267E+02  0.24318831750E+02  0.67375283645E+02  0.11007723718E+03  0.82611932972E+02 0.  0.
        -11    1    3    3    0    0  0.46188532008E+02  0.26926976474E+02  0.41557331325E+02  0.67715982885E+02  0.00000000000E+00 0.  1.
         12    1    3    3    0    0 -0.33482932741E+02 -0.26081447240E+01  0.25817952320E+02  0.42361254300E+02  0.00000000000E+00 0. -1.
         -2    1    1    2    0  502 -0.12705599267E+02 -0.24318831750E+02  0.51983059724E+02  0.58779897318E+02  0.00000000000E+00 0.  1.
<mgrwt>
<rscale>  1 0.87049235E+02</rscale>
<asrwt>0</asrwt>
<pdfrwt beam="1">  1       21 0.22170421E-01 0.87049235E+02</pdfrwt>
<pdfrwt beam="2">  1       -1 0.38075994E-02 0.87049235E+02</pdfrwt>
<totfact> 0.41361228E+05</totfact>
</mgrwt>
</event>
<event>
 6    2  0.9453093E+000  0.8146513E+02  0.7546771E-02  0.1324944E+00
         21   -1    0    0  501  502  0.00000000000E+00  0.00000000000E+00  0.87772310633E+02  0.87772310633E+02  0.00000000000E+00 0. -1.
          4   -1    0    0  502    0 -0.00000000000E+00 -0.00000000000E+00 -0.33241500905E+02  0.33241500905E+02  0.00000000000E+00 0. -1.
         24    2    1    2    0    0 -0.19523029083E+02  0.45080220231E+01  0.24790571948E+02  0.85153629297E+02  0.78962631654E+02 0.  0.
        -11    1    3    3    0    0  0.63667458000E+01  0.37243573001E+02  0.21046135268E+02  0.43249959441E+02  0.00000000000E+00 0.  1.
         12    1    3    3    0    0 -0.25889774883E+02 -0.32735550978E+02  0.37444366799E+01  0.41903669856E+02  0.00000000000E+00 0. -1.
          3    1    1    2  501    0  0.19523029083E+02 -0.45080220231E+01  0.29740237780E+02  0.35860182241E+02  0.00000000000E+00 0. -1.
<mgrwt>
<rscale>  1 0.81465134E+02</rscale>
<asrwt>0</asrwt>
<pdfrwt beam="1">  1       21 0.13503432E-01 0.81465134E+02</pdfrwt>
<pdfrwt beam="2">  1        4 0.51140771E-02 0.81465134E+02</pdfrwt>
<totfact> 0.39735129E+05</totfact>
</mgrwt>
</event>
<event>
 6    2  0.9453093E+000  0.8908087E+02  0.7546771E-02  0.1305093E+00
         21   -1    0    0  501  502  0.00000000000E+00  0.00000000000E+00  0.29226383405E+03  0.29226383405E+03  0.00000000000E+00 0. -1.
          4   -1    0    0  502    0 -0.00000000000E+00 -0.00000000000E+00 -0.13270431592E+02  0.13270431592E+02  0.00000000000E+00 0. -1.
         24    2    1    2    0    0 -0.18832113816E+01  0.24630939777E+02  0.15216393785E+03  0.17632148465E+03  0.85587220351E+02 0.  0.
        -13    1    3    3    0    0 -0.24647938638E+02 -0.18562385038E+02  0.10096142197E+03  0.10557126381E+03  0.00000000000E+00 0.  1.
         14    1    3    3    0    0  0.22764727257E+02  0.43193324815E+02  0.51202515884E+02  0.70750220837E+02  0.00000000000E+00 0. -1.
          3    1    1    2  501    0  0.18832113816E+01 -0.24630939777E+02  0.12682946460E+03  0.12921278099E+03  0.00000000000E+00 0. -1.
<mgrwt>
<rscale>  1 0.89080873E+02</rscale>
<asrwt>0</asrwt>
<pdfrwt beam="1">  1       21 0.44963662E-01 0.89080873E+02</pdfrwt>
<pdfrwt beam="2">  1        4 0.20416051E-02 0.89080873E+02</pdfrwt>
<totfact> 0.17739286E+05</totfact>
</mgrwt>
</event>
<event>
 6    2  0.9453093E+000  0.8341808E+02  0.7546771E-02  0.1319622E+00
         21   -1    0    0  501  502  0.00000000000E+00  0.00000000000E+00  0.12128438762E+02  0.12128438762E+02  0.00000000000E+00 0.  1.
         -1   -1    0    0    0  501 -0.00000000000E+00 -0.00000000000E+00 -0.24862250041E+03  0.24862250041E+03  0.00000000000E+00 0.  1.
         24    2    1    2    0    0  0.20082325305E+02 -0.88744949357E+01 -0.21218993295E+03  0.22799812064E+03  0.80476822251E+02 0.  0.
        -11    1    3    3    0    0  0.37982264715E+02  0.24417611726E+02 -0.12737148339E+03  0.13513832534E+03  0.00000000000E+00 0.  1.
         12    1    3    3    0    0 -0.17899939410E+02 -0.33292106662E+02 -0.84818449558E+02  0.92859795295E+02  0.00000000000E+00 0. -1.
         -2    1    1    2    0  502 -0.20082325305E+02  0.88744949357E+01 -0.24304128693E+02  0.32752818528E+02  0.00000000000E+00 0.  1.
<mgrwt>
<rscale>  1 0.83418076E+02</rscale>
<asrwt>0</asrwt>
<pdfrwt beam="1">  1       21 0.18659136E-02 0.83418076E+02</pdfrwt>
<pdfrwt beam="2">  1       -1 0.38249617E-01 0.83418076E+02</pdfrwt>
<totfact> 0.77815691E+05</totfact>
</mgrwt>
</event>
<event>
 6    2  0.9453093E+000  0.8318496E+02  0.7546771E-02  0.1320248E+00
          2   -1    0    0  502    0 -0.00000000000E+00  0.00000000000E+00  0.26001006833E+04  0.26001006833E+04  0.00000000000E+00 0. -1.
         21   -1    0    0  501  502  0.00000000000E+00 -0.00000000000E+00 -0.10826402022E+01  0.10826402022E+01  0.00000000000E+00 0.  1.
         24    2    1    2    0    0  0.20284326655E+02 -0.16589473648E+01  0.22798305053E+04  0.22813475996E+04  0.80656873105E+02 0.  0.
        -11    1    3    3    0    0  0.10344206461E+02 -0.26197548485E+02  0.29523096308E+03  0.29657146814E+03  0.00000000000E+00 0.  1.
         12    1    3    3    0    0  0.99401201944E+01  0.24538601120E+02  0.19845995422E+04  0.19847761314E+04  0.00000000000E+00 0. -1.
          1    1    1    2  501    0 -0.20284326655E+02  0.16589473648E+01  0.31918753778E+03  0.31983572391E+03  0.00000000000E+00 0. -1.
<mgrwt>
<rscale>  1 0.83184958E+02</rscale>
<asrwt>0</asrwt>
<pdfrwt beam="1">  1       21 0.16656211E-03 0.83184958E+02</pdfrwt>
<pdfrwt beam="2">  1        2 0.40001049E+00 0.83184958E+02</pdfrwt>
<totfact> 0.26974030E+06</totfact>
</mgrwt>
</event>
<event>
 6    2  0.9453093E+000  0.8546114E+02  0.7546771E-02  0.1314231E+00
         21   -1    0    0  501  502  0.00000000000E+00  0.00000000000E+00  0.12428630452E+03  0.12428630452E+03  0.00000000000E+00 0.  1.
         -3   -1    0    0    0  501 -0.00000000000E+00 -0.00000000000E+00 -0.14178300811E+03  0.14178300811E+03  0.00000000000E+00 0.  1.
         24    2    1    2    0    0  0.37768989484E+00 -0.35684023295E+02 -0.12577477133E+03  0.15206215443E+03  0.77653805685E+02 0.  0.
        -11    1    3    3    0    0 -0.71378464171E+01 -0.55140209812E+02 -0.11679484374E+03  0.12935388326E+03  0.00000000000E+00 0.  1.
         12    1    3    3    0    0  0.75155363120E+01  0.19456186517E+02 -0.89799275868E+01  0.22708271165E+02  0.00000000000E+00 0. -1.
         -4    1    1    2    0  502 -0.37768989484E+00  0.35684023295E+02  0.10827806774E+03  0.11400715820E+03  0.00000000000E+00 0.  1.
<mgrwt>
<rscale>  1 0.85461136E+02</rscale>
<asrwt>0</asrwt>
<pdfrwt beam="1">  1       21 0.19120970E-01 0.85461136E+02</pdfrwt>
<pdfrwt beam="2">  1       -3 0.21812770E-01 0.85461136E+02</pdfrwt>
<totfact> 0.22350216E+04</totfact>
</mgrwt>
</event>
<event>
 6    2  0.9453093E+000  0.9077600E+02  0.7546771E-02  0.1300983E+00
         21   -1    0    0  501  502  0.00000000000E+00  0.00000000000E+00  0.22890117671E+03  0.22890117671E+03  0.00000000000E+00 0.  1.
         -3   -1    0    0    0  501 -0.00000000000E+00 -0.00000000000E+00 -0.78111487825E+02  0.78111487825E+02  0.00000000000E+00 0.  1.
         24    2    1    2    0    0 -0.40362982884E+02  0.48735434338E+01 -0.48980543685E+02  0.10314734715E+03  0.81162551406E+02 0.  0.
        -11    1    3    3    0    0 -0.61270004539E+02 -0.13671565483E+02 -0.35499412633E+02  0.72118884186E+02  0.00000000000E+00 0.  1.
         12    1    3    3    0    0  0.20907021655E+02  0.18545108917E+02 -0.13481131052E+02  0.31028462960E+02  0.00000000000E+00 0. -1.
         -4    1    1    2    0  502  0.40362982884E+02 -0.48735434338E+01  0.19977023257E+03  0.20386531739E+03  0.00000000000E+00 0.  1.
<mgrwt>
<rscale>  1 0.90775997E+02</rscale>
<asrwt>0</asrwt>
<pdfrwt beam="1">  1       21 0.35215565E-01 0.90775997E+02</pdfrwt>
<pdfrwt beam="2">  1       -3 0.12017152E-01 0.90775997E+02</pdfrwt>
<totfact> 0.19730293E+04</totfact>
</mgrwt>
</event>
<event>
 6    2  0.9453093E+000  0.8457488E+02  0.7546771E-02  0.1316548E+00
         21   -1    0    0  501  502  0.00000000000E+00  0.00000000000E+00  0.10716616543E+03  0.10716616543E+03  0.00000000000E+00 0. -1.
         -3   -1    0    0    0  501 -0.00000000000E+00 -0.00000000000E+00 -0.28408546230E+02  0.28408546230E+02  0.00000000000E+00 0.  1.
         24    2    1    2    0    0  0.15872890694E+02 -0.17588450882E+02  0.49752819029E+02  0.98123667665E+02  0.81188723917E+02 0.  0.
        -11    1    3    3    0    0  0.26852110970E+02 -0.12450516539E+02 -0.14343942948E+02  0.32890727036E+02  0.00000000000E+00 0.  1.
         12    1    3    3    0    0 -0.10979220277E+02 -0.51379343421E+01  0.64096761977E+02  0.65232940629E+02  0.00000000000E+00 0. -1.
         -4    1    1    2    0  502 -0.15872890694E+02  0.17588450882E+02  0.29004800170E+02  0.37451043995E+02  0.00000000000E+00 0.  1.
<mgrwt>
<rscale>  1 0.84574885E+02</rscale>
<asrwt>0</asrwt>
<pdfrwt beam="1">  1       21 0.16487102E-01 0.84574885E+02</pdfrwt>
<pdfrwt beam="2">  1       -3 0.43705456E-02 0.84574885E+02</pdfrwt>
<totfact> 0.40717482E+05</totfact>
</mgrwt>
</event>
<event>
 6    2  0.9453093E+000  0.2835596E+03  0.7546771E-02  0.1093761E+00
          2   -1    0    0  502    0 -0.00000000000E+00  0.00000000000E+00  0.38904338330E+03  0.38904338330E+03  0.00000000000E+00 0. -1.
         21   -1    0    0  501  502  0.00000000000E+00 -0.00000000000E+00 -0.24892631507E+03  0.24892631507E+03  0.00000000000E+00 0. -1.
         24    2    1    2    0    0 -0.19103852857E+03  0.19341528144E+03  0.21515778537E+03  0.35594789119E+03  0.80627775280E+02 0.  0.
        -13    1    3    3    0    0 -0.32741281500E+01 -0.72296241848E+01  0.20422985836E+01  0.81950207138E+01  0.00000000000E+00 0.  1.
         14    1    3    3    0    0 -0.18776440042E+03  0.20064490562E+03  0.21311548679E+03  0.34775287048E+03  0.00000000000E+00 0. -1.
          1    1    1    2  501    0  0.19103852857E+03 -0.19341528144E+03 -0.75040717145E+02  0.28202180717E+03  0.00000000000E+00 0. -1.
<mgrwt>
<rscale>  1 0.28355957E+03</rscale>
<asrwt>0</asrwt>
<pdfrwt beam="1">  1       21 0.38296356E-01 0.28355957E+03</pdfrwt>
<pdfrwt beam="2">  1        2 0.59852828E-01 0.28355957E+03</pdfrwt>
<totfact> 0.65958544E+03</totfact>
</mgrwt>
</event>
<event>
 6    2  0.9453093E+000  0.8885028E+02  0.7546771E-02  0.1305660E+00
          4   -1    0    0  502    0 -0.00000000000E+00  0.00000000000E+00  0.50039890371E+01  0.50039890371E+01  0.00000000000E+00 0. -1.
         21   -1    0    0  501  502  0.00000000000E+00 -0.00000000000E+00 -0.82664213241E+03  0.82664213241E+03  0.00000000000E+00 0. -1.
         24    2    1    2    0    0 -0.60344731421E+01 -0.39320539830E+02 -0.56685453322E+03  0.57377559634E+03  0.79447173642E+02 0.  0.
        -11    1    3    3    0    0 -0.33017368082E+01  0.24609864873E+02 -0.16537518075E+03  0.16722887706E+03  0.00000000000E+00 0.  1.
         12    1    3    3    0    0 -0.27327363340E+01 -0.63930404703E+02 -0.40147935248E+03  0.40654671928E+03  0.00000000000E+00 0. -1.
          3    1    1    2  501    0  0.60344731421E+01  0.39320539830E+02 -0.25478361015E+03  0.25787052511E+03  0.00000000000E+00 0. -1.
<mgrwt>
<rscale>  1 0.88850285E+02</rscale>
<asrwt>0</asrwt>
<pdfrwt beam="1">  1       21 0.12717570E+00 0.88850285E+02</pdfrwt>
<pdfrwt beam="2">  1        4 0.76984453E-03 0.88850285E+02</pdfrwt>
<totfact> 0.78098488E+04</totfact>
</mgrwt>
</event>
<event>
 6    2  0.9453093E+000  0.1196328E+03  0.7546771E-02  0.1243704E+00
         -1   -1    0    0    0  501 -0.00000000000E+00  0.00000000000E+00  0.11821777723E+03  0.11821777723E+03  0.00000000000E+00 0.  1.
         21   -1    0    0  501  502  0.00000000000E+00 -0.00000000000E+00 -0.46715534211E+03  0.46715534211E+03  0.00000000000E+00 0.  1.
         24    2    1    2    0    0 -0.75971558211E+02  0.46793319893E+02  0.82166603653E+02  0.14513216649E+03  0.79691295331E+02 0.  0.
        -13    1    3    3    0    0 -0.37649935139E+02 -0.15623065746E+02  0.51624219721E+02  0.65777335466E+02  0.00000000000E+00 0.  1.
         14    1    3    3    0    0 -0.38321623071E+02  0.62416385638E+02  0.30542383932E+02  0.79354831027E+02  0.00000000000E+00 0. -1.
         -2    1    1    2    0  502  0.75971558211E+02 -0.46793319893E+02 -0.43110416852E+03  0.44024095285E+03  0.00000000000E+00 0.  1.
<mgrwt>
<rscale>  1 0.11963275E+03</rscale>
<asrwt>0</asrwt>
<pdfrwt beam="1">  1       21 0.71870052E-01 0.11963275E+03</pdfrwt>
<pdfrwt beam="2">  1       -1 0.18187351E-01 0.11963275E+03</pdfrwt>
<totfact> 0.37977012E+03</totfact>
</mgrwt>
</event>
<event>
 6    2  0.9453093E+000  0.8435495E+02  0.7546771E-02  0.1317128E+00
         21   -1    0    0  501  502  0.00000000000E+00  0.00000000000E+00  0.29617523329E+01  0.29617523329E+01  0.00000000000E+00 0.  1.
          4   -1    0    0  502    0 -0.00000000000E+00 -0.00000000000E+00 -0.10048282881E+04  0.10048282881E+04  0.00000000000E+00 0. -1.
         24    2    1    2    0    0 -0.13769467391E+02  0.20365519958E+02 -0.75155907019E+03  0.75627825152E+03  0.80693277982E+02 0.  0.
        -11    1    3    3    0    0  0.30334359053E+02  0.68561587926E+01 -0.16478705852E+03  0.16769601936E+03  0.00000000000E+00 0.  1.
         12    1    3    3    0    0 -0.44103826444E+02  0.13509361166E+02 -0.58677201166E+03  0.58858223216E+03  0.00000000000E+00 0. -1.
          3    1    1    2  501    0  0.13769467391E+02 -0.20365519958E+02 -0.25030746560E+03  0.25151178893E+03  0.00000000000E+00 0. -1.
<mgrwt>
<rscale>  1 0.84354951E+02</rscale>
<asrwt>0</asrwt>
<pdfrwt beam="1">  1       21 0.45565457E-03 0.84354951E+02</pdfrwt>
<pdfrwt beam="2">  1        4 0.15458884E+00 0.84354951E+02</pdfrwt>
<totfact> 0.14072542E+05</totfact>
</mgrwt>
</event>
<event>
 6    2  0.9453093E+000  0.9078039E+02  0.7546771E-02  0.1300973E+00
          4   -1    0    0  502    0 -0.00000000000E+00  0.00000000000E+00  0.34575709106E+03  0.34575709106E+03  0.00000000000E+00 0. -1.
         21   -1    0    0  501  502  0.00000000000E+00 -0.00000000000E+00 -0.12871734484E+02  0.12871734484E+02  0.00000000000E+00 0.  1.
         24    2    1    2    0    0 -0.16461426877E+02  0.37350678268E+02  0.25533317259E+03  0.27099097423E+03  0.81086542335E+02 0.  0.
        -11    1    3    3    0    0 -0.44622069640E+01  0.55209237568E+02  0.10122676950E+03  0.11538990453E+03  0.00000000000E+00 0.  1.
         12    1    3    3    0    0 -0.11999219913E+02 -0.17858559300E+02  0.15410640310E+03  0.15560106971E+03  0.00000000000E+00 0. -1.
          3    1    1    2  501    0  0.16461426877E+02 -0.37350678268E+02  0.77552183985E+02  0.87637851313E+02  0.00000000000E+00 0. -1.
<mgrwt>
<rscale>  1 0.90780389E+02</rscale>
<asrwt>0</asrwt>
<pdfrwt beam="1">  1       21 0.19802671E-02 0.90780389E+02</pdfrwt>
<pdfrwt beam="2">  1        4 0.53193392E-01 0.90780389E+02</pdfrwt>
<totfact> 0.15956600E+05</totfact>
</mgrwt>
</event>
<event>
 6    2  0.9453093E+000  0.8167840E+02  0.7546771E-02  0.1324355E+00
         21   -1    0    0  501  502  0.00000000000E+00  0.00000000000E+00  0.18671121152E+03  0.18671121152E+03  0.00000000000E+00 0. -1.
          2   -1    0    0  502    0 -0.00000000000E+00 -0.00000000000E+00 -0.63115571723E+02  0.63115571723E+02  0.00000000000E+00 0. -1.
         24    2    1    2    0    0  0.17622541552E+02 -0.10059254695E+02 -0.35774997906E+02  0.89169561999E+02  0.79117746025E+02 0.  0.
        -13    1    3    3    0    0 -0.34715587225E+01  0.28044322698E+02 -0.35809981537E+02  0.45616779075E+02  0.00000000000E+00 0.  1.
         14    1    3    3    0    0  0.21094100275E+02 -0.38103577393E+02  0.34983630280E-01  0.43552782924E+02  0.00000000000E+00 0. -1.
          1    1    1    2  501    0 -0.17622541552E+02  0.10059254695E+02  0.15937063770E+03  0.16065722124E+03  0.00000000000E+00 0. -1.
<mgrwt>
<rscale>  1 0.81678396E+02</rscale>
<asrwt>0</asrwt>
<pdfrwt beam="1">  1       21 0.28724801E-01 0.81678396E+02</pdfrwt>
<pdfrwt beam="2">  1        2 0.97100881E-02 0.81678396E+02</pdfrwt>
<totfact> 0.90382322E+04</totfact>
</mgrwt>
</event>
<event>
 6    2  0.9453093E+000  0.1051840E+03  0.7546771E-02  0.1269757E+00
          2   -1    0    0  502    0 -0.00000000000E+00  0.00000000000E+00  0.25913497618E+03  0.25913497618E+03  0.00000000000E+00 0. -1.
         21   -1    0    0  501  502  0.00000000000E+00 -0.00000000000E+00 -0.53352330818E+02  0.53352330818E+02  0.00000000000E+00 0. -1.
         24    2    1    2    0    0  0.52228170052E+02  0.42689064765E+02  0.21972779324E+03  0.24360621274E+03  0.80706541015E+02 0.  0.
        -11    1    3    3    0    0 -0.13779482385E+02  0.21240026454E+02  0.20316514891E+02  0.32461879734E+02  0.00000000000E+00 0.  1.
         12    1    3    3    0    0  0.66007652437E+02  0.21449038312E+02  0.19941127835E+03  0.21114433300E+03  0.00000000000E+00 0. -1.
          1    1    1    2  501    0 -0.52228170052E+02 -0.42689064765E+02 -0.13945147880E+02  0.68881094263E+02  0.00000000000E+00 0. -1.
<mgrwt>
<rscale>  1 0.10518405E+03</rscale>
<asrwt>0</asrwt>
<pdfrwt beam="1">  1       21 0.82080511E-02 0.10518405E+03</pdfrwt>
<pdfrwt beam="2">  1        2 0.39866919E-01 0.10518405E+03</pdfrwt>
<totfact> 0.17739650E+05</totfact>
</mgrwt>
</event>
<event>
 6    2  0.9453093E+000  0.8077501E+02  0.7546771E-02  0.1326866E+00
          2   -1    0    0  502    0 -0.00000000000E+00  0.00000000000E+00  0.75981413579E+02  0.75981413579E+02  0.00000000000E+00 0. -1.
         21   -1    0    0  501  502  0.00000000000E+00 -0.00000000000E+00 -0.50748321722E+02  0.50748321722E+02  0.00000000000E+00 0. -1.
         24    2    1    2    0    0  0.13124201773E+02 -0.37185629437E+02  0.31693640645E+02  0.86770325902E+02  0.70495296942E+02 0.  0.
        -11    1    3    3    0    0  0.18518085638E+02 -0.26787208670E+02 -0.16966743800E+02  0.36719809902E+02  0.00000000000E+00 0.  1.
         12    1    3    3    0    0 -0.53938838651E+01 -0.10398420767E+02  0.48660384445E+02  0.50050516000E+02  0.00000000000E+00 0. -1.
          1    1    1    2  501    0 -0.13124201773E+02  0.37185629437E+02 -0.64605487881E+01  0.39959409399E+02  0.00000000000E+00 0. -1.
<mgrwt>
<rscale>  1 0.80775012E+02</rscale>
<asrwt>0</asrwt>
<pdfrwt beam="1">  1       21 0.78074341E-02 0.80775012E+02</pdfrwt>
<pdfrwt beam="2">  1        2 0.11689448E-01 0.80775012E+02</pdfrwt>
<totfact> 0.73987858E+05</totfact>
</mgrwt>
</event>
<event>
 6    2  0.9453093E+000  0.9476133E+02  0.7546771E-02  0.1291715E+00
          2   -1    0    0  502    0 -0.00000000000E+00  0.00000000000E+00  0.98101580441E+03  0.98101580441E+03  0.00000000000E+00 0. -1.
         21   -1    0    0  501  502  0.00000000000E+00 -0.00000000000E+00 -0.74367455141E+01  0.74367455141E+01  0.00000000000E+00 0. -1.
         24    2    1    2    0    0  0.26722560410E+02 -0.41660625089E+02  0.85097815186E+03  0.85623800714E+03  0.80808458771E+02 0.  0.
        -13    1    3    3    0    0  0.57814327359E+01  0.72221118641E+01  0.10163824011E+02  0.13743623350E+02  0.00000000000E+00 0.  1.
         14    1    3    3    0    0  0.20941127674E+02 -0.48882736953E+02  0.84081432785E+03  0.84249438379E+03  0.00000000000E+00 0. -1.
          1    1    1    2  501    0 -0.26722560410E+02  0.41660625089E+02  0.12260090703E+03  0.13221454278E+03  0.00000000000E+00 0. -1.
<mgrwt>
<rscale>  1 0.94761331E+02</rscale>
<asrwt>0</asrwt>
<pdfrwt beam="1">  1       21 0.11441155E-02 0.94761331E+02</pdfrwt>
<pdfrwt beam="2">  1        2 0.15092541E+00 0.94761331E+02</pdfrwt>
<totfact> 0.99300666E+05</totfact>
</mgrwt>
</event>
<event>
 6    2  0.9453093E+000  0.8416878E+02  0.7546771E-02  0.1317621E+00
          2   -1    0    0  502    0 -0.00000000000E+00  0.00000000000E+00  0.32406279982E+03  0.32406279982E+03  0.00000000000E+00 0. -1.
         21   -1    0    0  501  502  0.00000000000E+00 -0.00000000000E+00 -0.14672371733E+02  0.14672371733E+02  0.00000000000E+00 0.  1.
         24    2    1    2    0    0 -0.20734367587E+02  0.20716876976E+02  0.11702774146E+03  0.14415226840E+03  0.78900451357E+02 0.  0.
        -13    1    3    3    0    0 -0.42223158009E+02  0.79020007277E+01  0.27056622731E+02  0.50767090929E+02  0.00000000000E+00 0.  1.
         14    1    3    3    0    0  0.21488790423E+02  0.12814876248E+02  0.89971118725E+02  0.93385177473E+02  0.00000000000E+00 0. -1.
          1    1    1    2  501    0  0.20734367587E+02 -0.20716876976E+02  0.19236268663E+03  0.19458290315E+03  0.00000000000E+00 0. -1.
<mgrwt>
<rscale>  1 0.84168784E+02</rscale>
<asrwt>0</asrwt>
<pdfrwt beam="1">  1       21 0.22572882E-02 0.84168784E+02</pdfrwt>
<pdfrwt beam="2">  1        2 0.49855810E-01 0.84168784E+02</pdfrwt>
<totfact> 0.11694727E+06</totfact>
</mgrwt>
</event>
<event>
 6    2  0.9453093E+000  0.1026343E+03  0.7546771E-02  0.1274852E+00
          2   -1    0    0  502    0 -0.00000000000E+00  0.00000000000E+00  0.24647463677E+02  0.24647463677E+02  0.00000000000E+00 0. -1.
         21   -1    0    0  501  502  0.00000000000E+00 -0.00000000000E+00 -0.80847263728E+03  0.80847263728E+03  0.00000000000E+00 0. -1.
         24    2    1    2    0    0  0.41618961963E+02 -0.49167408322E+02 -0.90580718767E+02  0.13688921526E+03  0.79901305413E+02 0.  0.
        -11    1    3    3    0    0  0.20201525787E+02  0.19763299131E+02 -0.39039290820E+02  0.48194977585E+02  0.00000000000E+00 0.  1.
         12    1    3    3    0    0  0.21417436177E+02 -0.68930707453E+02 -0.51541427947E+02  0.88694237677E+02  0.00000000000E+00 0. -1.
          1    1    1    2  501    0 -0.41618961963E+02  0.49167408322E+02 -0.69324445484E+03  0.69623088570E+03  0.00000000000E+00 0. -1.
<mgrwt>
<rscale>  1 0.10263426E+03</rscale>
<asrwt>0</asrwt>
<pdfrwt beam="1">  1       21 0.12438038E+00 0.10263426E+03</pdfrwt>
<pdfrwt beam="2">  1        2 0.37919181E-02 0.10263426E+03</pdfrwt>
<totfact> 0.13345381E+04</totfact>
</mgrwt>
</event>
<event>
 6    2  0.9453093E+000  0.7522356E+02  0.7546771E-02  0.1343180E+00
         21   -1    0    0  501  502  0.00000000000E+00  0.00000000000E+00  0.13528966399E+03  0.13528966399E+03  0.00000000000E+00 0.  1.
          2   -1    0    0  502    0 -0.00000000000E+00 -0.00000000000E+00 -0.19481824738E+02  0.19481824738E+02  0.00000000000E+00 0. -1.
         24    2    1    2    0    0  0.18420074236E+02  0.20139553841E+02  0.88728217466E+02  0.11632403524E+03  0.70097673540E+02 0.  0.
        -11    1    3    3    0    0 -0.16274993005E+02  0.19949152236E+02  0.74502070444E+02  0.78825139218E+02  0.00000000000E+00 0.  1.
         12    1    3    3    0    0  0.34695067242E+02  0.19040160517E+00  0.14226147021E+02  0.37498896020E+02  0.00000000000E+00 0. -1.
          1    1    1    2  501    0 -0.18420074236E+02 -0.20139553841E+02  0.27079621787E+02  0.38447453491E+02  0.00000000000E+00 0. -1.
<mgrwt>
<rscale>  1 0.75223564E+02</rscale>
<asrwt>0</asrwt>
<pdfrwt beam="1">  1       21 0.20813794E-01 0.75223564E+02</pdfrwt>
<pdfrwt beam="2">  1        2 0.29972039E-02 0.75223564E+02</pdfrwt>
<totfact> 0.72957430E+05</totfact>
</mgrwt>
</event>
<event>
 6    2  0.9453093E+000  0.1142572E+03  0.7546771E-02  0.1252883E+00
         21   -1    0    0  501  502  0.00000000000E+00  0.00000000000E+00  0.49654235526E+02  0.49654235526E+02  0.00000000000E+00 0. -1.
          2   -1    0    0  502    0 -0.00000000000E+00 -0.00000000000E+00 -0.47299903906E+03  0.47299903906E+03  0.00000000000E+00 0. -1.
         24    2    1    2    0    0  0.67298456912E+02  0.43706014560E+02 -0.42729853661E+03  0.44231069548E+03  0.81335194928E+02 0.  0.
        -11    1    3    3    0    0 -0.46539693567E+01  0.17996079773E+02 -0.17771180028E+02  0.25716398612E+02  0.00000000000E+00 0.  1.
         12    1    3    3    0    0  0.71952426269E+02  0.25709934787E+02 -0.40952735658E+03  0.41659429687E+03  0.00000000000E+00 0. -1.
          1    1    1    2  501    0 -0.67298456912E+02 -0.43706014560E+02  0.39537330816E+01  0.80342579102E+02  0.00000000000E+00 0. -1.
<mgrwt>
<rscale>  1 0.11425722E+03</rscale>
<asrwt>0</asrwt>
<pdfrwt beam="1">  1       21 0.76391132E-02 0.11425722E+03</pdfrwt>
<pdfrwt beam="2">  1        2 0.72769083E-01 0.11425722E+03</pdfrwt>
<totfact> 0.10652063E+05</totfact>
</mgrwt>
</event>
<event>
 6    2  0.9453093E+000  0.9717347E+02  0.7546771E-02  0.1286355E+00
         21   -1    0    0  501  502  0.00000000000E+00  0.00000000000E+00  0.85084670121E+01  0.85084670121E+01  0.00000000000E+00 0.  1.
         -1   -1    0    0    0  501 -0.00000000000E+00 -0.00000000000E+00 -0.16140407718E+04  0.16140407718E+04  0.00000000000E+00 0.  1.
         24    2    1    2    0    0 -0.37871442152E+02 -0.12603063763E+02 -0.15555668616E+04  0.15585990327E+04  0.88597971370E+02 0.  0.
        -11    1    3    3    0    0 -0.58282281847E+02 -0.29878137023E+01 -0.61526281347E+03  0.61802433694E+03  0.00000000000E+00 0.  1.
         12    1    3    3    0    0  0.20410839695E+02 -0.96152500604E+01 -0.94030404812E+03  0.94057469577E+03  0.00000000000E+00 0. -1.
         -2    1    1    2    0  502  0.37871442152E+02  0.12603063763E+02 -0.49965443195E+02  0.63950206102E+02  0.00000000000E+00 0.  1.
<mgrwt>
<rscale>  1 0.97173473E+02</rscale>
<asrwt>0</asrwt>
<pdfrwt beam="1">  1       21 0.13089940E-02 0.97173473E+02</pdfrwt>
<pdfrwt beam="2">  1       -1 0.24831415E+00 0.97173473E+02</pdfrwt>
<totfact> 0.18991904E+04</totfact>
</mgrwt>
</event>
<event>
 6    2  0.9453093E+000  0.8235151E+02  0.7546771E-02  0.1322508E+00
         21   -1    0    0  501  502  0.00000000000E+00  0.00000000000E+00  0.13539375066E+02  0.13539375066E+02  0.00000000000E+00 0. -1.
          2   -1    0    0  502    0 -0.00000000000E+00 -0.00000000000E+00 -0.29448389138E+03  0.29448389138E+03  0.00000000000E+00 0. -1.
         24    2    1    2    0    0  0.20042318724E+02 -0.86867904839E+01 -0.27238590197E+03  0.28456255997E+03  0.79401612555E+02 0.  0.
        -11    1    3    3    0    0 -0.12655175367E+02  0.25110190086E+02 -0.51006767655E+02  0.58244016485E+02  0.00000000000E+00 0.  1.
         12    1    3    3    0    0  0.32697494091E+02 -0.33796980569E+02 -0.22137913432E+03  0.22631854349E+03  0.00000000000E+00 0. -1.
          1    1    1    2  501    0 -0.20042318724E+02  0.86867904839E+01 -0.85586143428E+01  0.23460706473E+02  0.00000000000E+00 0. -1.
<mgrwt>
<rscale>  1 0.82351508E+02</rscale>
<asrwt>0</asrwt>
<pdfrwt beam="1">  1       21 0.20829809E-02 0.82351508E+02</pdfrwt>
<pdfrwt beam="2">  1        2 0.45305212E-01 0.82351508E+02</pdfrwt>
<totfact> 0.14658778E+06</totfact>
</mgrwt>
</event>
<event>
 6    2  0.9453093E+000  0.9319962E+02  0.7546771E-02  0.1295283E+00
         21   -1    0    0  501  502  0.00000000000E+00  0.00000000000E+00  0.13451361475E+02  0.13451361475E+02  0.00000000000E+00 0. -1.
          2   -1    0    0  502    0 -0.00000000000E+00 -0.00000000000E+00 -0.15532595842E+04  0.15532595842E+04  0.00000000000E+00 0. -1.
         24    2    1    2    0    0  0.33342022947E+02 -0.31167013972E+02 -0.15084716006E+04  0.15113479875E+04  0.81259437019E+02 0.  0.
        -11    1    3    3    0    0  0.25337569268E+02 -0.42166017149E+01 -0.12604715737E+03  0.12863770065E+03  0.00000000000E+00 0.  1.
         12    1    3    3    0    0  0.80044536786E+01 -0.26950412257E+02 -0.13824244433E+04  0.13827102868E+04  0.00000000000E+00 0. -1.
          1    1    1    2  501    0 -0.33342022947E+02  0.31167013972E+02 -0.31336622066E+02  0.55362958163E+02  0.00000000000E+00 0. -1.
<mgrwt>
<rscale>  1 0.93199621E+02</rscale>
<asrwt>0</asrwt>
<pdfrwt beam="1">  1       21 0.20694410E-02 0.93199621E+02</pdfrwt>
<pdfrwt beam="2">  1        2 0.23896293E+00 0.93199621E+02</pdfrwt>
<totfact> 0.19033923E+05</totfact>
</mgrwt>
</event>
<event>
 6    2  0.9453093E+000  0.8824678E+02  0.7546771E-02  0.1307154E+00
         21   -1    0    0  501  502  0.00000000000E+00  0.00000000000E+00  0.47207115143E+03  0.47207115143E+03  0.00000000000E+00 0. -1.
         -1   -1    0    0    0  501 -0.00000000000E+00 -0.00000000000E+00 -0.19052671323E+02  0.19052671323E+02  0.00000000000E+00 0.  1.
         24    2    1    2    0    0  0.56323731248E+01 -0.30779968058E+02  0.45123376779E+03  0.45978191377E+03  0.82512817000E+02 0.  0.
        -13    1    3    3    0    0 -0.26352649053E+02 -0.33102708767E+02  0.12481586396E+03  0.13179245553E+03  0.00000000000E+00 0.  1.
         14    1    3    3    0    0  0.31985022178E+02  0.23227407093E+01  0.32641790384E+03  0.32798945823E+03  0.00000000000E+00 0. -1.
         -2    1    1    2    0  502 -0.56323731248E+01  0.30779968058E+02  0.17847123103E+01  0.31341908983E+02  0.00000000000E+00 0.  1.
<mgrwt>
<rscale>  1 0.88246785E+02</rscale>
<asrwt>0</asrwt>
<pdfrwt beam="1">  1       21 0.72626322E-01 0.88246785E+02</pdfrwt>
<pdfrwt beam="2">  1       -1 0.29311806E-02 0.88246785E+02</pdfrwt>
<totfact> 0.57097592E+04</totfact>
</mgrwt>
</event>
<event>
 6    2  0.9453093E+000  0.9225647E+02  0.7546771E-02  0.1297478E+00
         21   -1    0    0  501  502  0.00000000000E+00  0.00000000000E+00  0.16855528879E+02  0.16855528879E+02  0.00000000000E+00 0. -1.
         -1   -1    0    0    0  501 -0.00000000000E+00 -0.00000000000E+00 -0.28219671269E+03  0.28219671269E+03  0.00000000000E+00 0.  1.
         24    2    1    2    0    0  0.45643023868E+02 -0.17515537114E+01 -0.17658097476E+03  0.19922875596E+03  0.80155492555E+02 0.  0.
        -13    1    3    3    0    0 -0.14325138670E+02  0.54497139106E+01 -0.10253089900E+03  0.10367012216E+03  0.00000000000E+00 0.  1.
         14    1    3    3    0    0  0.59968162538E+02 -0.72012676219E+01 -0.74050075764E+02  0.95558633802E+02  0.00000000000E+00 0. -1.
         -2    1    1    2    0  502 -0.45643023868E+02  0.17515537114E+01 -0.88760209053E+02  0.99823485610E+02  0.00000000000E+00 0.  1.
<mgrwt>
<rscale>  1 0.92256472E+02</rscale>
<asrwt>0</asrwt>
<pdfrwt beam="1">  1       21 0.25931583E-02 0.92256472E+02</pdfrwt>
<pdfrwt beam="2">  1       -1 0.43414878E-01 0.92256472E+02</pdfrwt>
<totfact> 0.37231362E+05</totfact>
</mgrwt>
</event>
<event>
 6    2  0.9453093E+000  0.1049158E+03  0.7546771E-02  0.1270286E+00
         -1   -1    0    0    0  501 -0.00000000000E+00  0.00000000000E+00  0.30900936439E+03  0.30900936439E+03  0.00000000000E+00 0.  1.
         21   -1    0    0  501  502  0.00000000000E+00 -0.00000000000E+00 -0.14223438077E+02  0.14223438077E+02  0.00000000000E+00 0. -1.
         24    2    1    2    0    0  0.17953330516E+02  0.19058855729E+02  0.25338929415E+03  0.27425073215E+03  0.10159610050E+03 0.  0.
        -13    1    3    3    0    0 -0.15586042513E+02 -0.14197816714E+02  0.53459550724E+01  0.21750447266E+02  0.00000000000E+00 0.  1.
         14    1    3    3    0    0  0.33539373029E+02  0.33256672442E+02  0.24804333908E+03  0.25250028488E+03  0.00000000000E+00 0. -1.
         -2    1    1    2    0  502 -0.17953330516E+02 -0.19058855729E+02  0.41396632167E+02  0.48982070323E+02  0.00000000000E+00 0.  1.
<mgrwt>
<rscale>  1 0.10491582E+03</rscale>
<asrwt>0</asrwt>
<pdfrwt beam="1">  1       21 0.21882215E-02 0.10491582E+03</pdfrwt>
<pdfrwt beam="2">  1       -1 0.47539897E-01 0.10491582E+03</pdfrwt>
<totfact> 0.42181726E+05</totfact>
</mgrwt>
</event>
<event>
 6    2  0.9453093E+000  0.8905419E+02  0.7546771E-02  0.1305158E+00
         -1   -1    0    0    0  501 -0.00000000000E+00  0.00000000000E+00  0.72788225954E+03  0.72788225954E+03  0.00000000000E+00 0.  1.
         21   -1    0    0  501  502  0.00000000000E+00 -0.00000000000E+00 -0.73013186696E+01  0.73013186696E+01  0.00000000000E+00 0.  1.
         24    2    1    2    0    0  0.30176697652E+02  0.20179821060E+02  0.64736795915E+03  0.65346455380E+03  0.81319064620E+02 0.  0.
        -13    1    3    3    0    0 -0.29147733665E+01  0.34520062130E+02  0.51818596401E+03  0.51934268445E+03  0.00000000000E+00 0.  1.
         14    1    3    3    0    0  0.33091471019E+02 -0.14340241070E+02  0.12918199514E+03  0.13412186935E+03  0.00000000000E+00 0. -1.
         -2    1    1    2    0  502 -0.30176697652E+02 -0.20179821060E+02  0.73212981719E+02  0.81719024416E+02  0.00000000000E+00 0.  1.
<mgrwt>
<rscale>  1 0.89054189E+02</rscale>
<asrwt>0</asrwt>
<pdfrwt beam="1">  1       21 0.11232804E-02 0.89054189E+02</pdfrwt>
<pdfrwt beam="2">  1       -1 0.11198183E+00 0.89054189E+02</pdfrwt>
<totfact> 0.21707486E+05</totfact>
</mgrwt>
</event>
<event>
 6    2  0.9453093E+000  0.8006363E+02  0.7546771E-02  0.1328871E+00
          2   -1    0    0  502    0 -0.00000000000E+00  0.00000000000E+00  0.86271709337E+03  0.86271709337E+03  0.00000000000E+00 0. -1.
         21   -1    0    0  501  502  0.00000000000E+00 -0.00000000000E+00 -0.36811401440E+01  0.36811401440E+01  0.00000000000E+00 0.  1.
         24    2    1    2    0    0 -0.37090096742E+01  0.32178069816E+02  0.58447587067E+03  0.58993408780E+03  0.73218847492E+02 0.  0.
        -13    1    3    3    0    0  0.24207234168E+01  0.33689767967E+02  0.10259797786E+03  0.10801483893E+03  0.00000000000E+00 0.  1.
         14    1    3    3    0    0 -0.61297330910E+01 -0.15116981511E+01  0.48187789281E+03  0.48191924888E+03  0.00000000000E+00 0. -1.
          1    1    1    2  501    0  0.37090096742E+01 -0.32178069816E+02  0.27456008255E+03  0.27646414571E+03  0.00000000000E+00 0. -1.
<mgrwt>
<rscale>  1 0.80063628E+02</rscale>
<asrwt>0</asrwt>
<pdfrwt beam="1">  1       21 0.56632994E-03 0.80063628E+02</pdfrwt>
<pdfrwt beam="2">  1        2 0.13272555E+00 0.80063628E+02</pdfrwt>
<totfact> 0.34348292E+06</totfact>
</mgrwt>
</event>
<event>
 6    2  0.9453093E+000  0.8746114E+02  0.7546771E-02  0.1309119E+00
          2   -1    0    0  502    0 -0.00000000000E+00  0.00000000000E+00  0.12016355423E+04  0.12016355423E+04  0.00000000000E+00 0. -1.
         21   -1    0    0  501  502  0.00000000000E+00 -0.00000000000E+00 -0.30477021827E+01  0.30477021827E+01  0.00000000000E+00 0. -1.
         24    2    1    2    0    0  0.22944859762E+02  0.80220712484E+01  0.10852327616E+04  0.10887513937E+04  0.84015653663E+02 0.  0.
        -13    1    3    3    0    0 -0.74369684611E+01  0.10077386016E+02  0.23908243747E+02  0.26990115374E+02  0.00000000000E+00 0.  1.
         14    1    3    3    0    0  0.30381828223E+02 -0.20553147673E+01  0.10613245179E+04  0.10617612783E+04  0.00000000000E+00 0. -1.
          1    1    1    2  501    0 -0.22944859762E+02 -0.80220712484E+01  0.11335507845E+03  0.11593185079E+03  0.00000000000E+00 0. -1.
<mgrwt>
<rscale>  1 0.87461136E+02</rscale>
<asrwt>0</asrwt>
<pdfrwt beam="1">  1       21 0.46887822E-03 0.87461136E+02</pdfrwt>
<pdfrwt beam="2">  1        2 0.18486663E+00 0.87461136E+02</pdfrwt>
<totfact> 0.29476307E+06</totfact>
</mgrwt>
</event>
<event>
 6    2  0.9453093E+000  0.8668207E+02  0.7546771E-02  0.1311091E+00
         21   -1    0    0  501  502  0.00000000000E+00  0.00000000000E+00  0.28809005557E+02  0.28809005557E+02  0.00000000000E+00 0.  1.
          2   -1    0    0  502    0 -0.00000000000E+00 -0.00000000000E+00 -0.11470570612E+03  0.11470570612E+03  0.00000000000E+00 0. -1.
         24    2    1    2    0    0 -0.22769695922E+02  0.15480613936E+02 -0.57859773185E+02  0.10421868444E+03  0.82192897335E+02 0.  0.
        -13    1    3    3    0    0 -0.48314635669E+02 -0.10735646237E+02 -0.27224536334E+02  0.56486578039E+02  0.00000000000E+00 0.  1.
         14    1    3    3    0    0  0.25544939748E+02  0.26216260173E+02 -0.30635236851E+02  0.47732106397E+02  0.00000000000E+00 0. -1.
          1    1    1    2  501    0  0.22769695922E+02 -0.15480613936E+02 -0.28036927382E+02  0.39296027245E+02  0.00000000000E+00 0. -1.
<mgrwt>
<rscale>  1 0.86682068E+02</rscale>
<asrwt>0</asrwt>
<pdfrwt beam="1">  1       21 0.44321545E-02 0.86682068E+02</pdfrwt>
<pdfrwt beam="2">  1        2 0.17647032E-01 0.86682068E+02</pdfrwt>
<totfact> 0.11946648E+06</totfact>
</mgrwt>
</event>
<event>
 6    2  0.9453093E+000  0.7853209E+02  0.7546771E-02  0.1333270E+00
         21   -1    0    0  501  502  0.00000000000E+00  0.00000000000E+00  0.77824509052E+02  0.77824509052E+02  0.00000000000E+00 0.  1.
          2   -1    0    0  502    0 -0.00000000000E+00 -0.00000000000E+00 -0.72147383275E+02  0.72147383275E+02  0.00000000000E+00 0. -1.
         24    2    1    2    0    0 -0.18232330948E+02 -0.27633665145E+02 -0.44193305562E+02  0.90112914194E+02  0.71212721524E+02 0.  0.
        -13    1    3    3    0    0 -0.45836040223E+02 -0.16207298265E+02 -0.28760925735E+02  0.56487254752E+02  0.00000000000E+00 0.  1.
         14    1    3    3    0    0  0.27603709274E+02 -0.11426366879E+02 -0.15432379828E+02  0.33625659442E+02  0.00000000000E+00 0. -1.
          1    1    1    2  501    0  0.18232330948E+02  0.27633665145E+02  0.49870431339E+02  0.59858978133E+02  0.00000000000E+00 0. -1.
<mgrwt>
<rscale>  1 0.78532089E+02</rscale>
<asrwt>0</asrwt>
<pdfrwt beam="1">  1       21 0.11973001E-01 0.78532089E+02</pdfrwt>
<pdfrwt beam="2">  1        2 0.11099597E-01 0.78532089E+02</pdfrwt>
<totfact> 0.37560413E+05</totfact>
</mgrwt>
</event>
<event>
 6    2  0.9453093E+000  0.8415006E+02  0.7546771E-02  0.1317670E+00
         21   -1    0    0  501  502  0.00000000000E+00  0.00000000000E+00  0.10931345292E+04  0.10931345292E+04  0.00000000000E+00 0.  1.
         -1   -1    0    0    0  501 -0.00000000000E+00 -0.00000000000E+00 -0.79889184639E+01  0.79889184639E+01  0.00000000000E+00 0.  1.
         24    2    1    2    0    0  0.30039449709E+01 -0.24278710219E+02  0.21867371665E+03  0.23430626815E+03  0.80515548105E+02 0.  0.
        -13    1    3    3    0    0  0.12081891956E+02 -0.41115139335E+02  0.56018044311E+02  0.70529767363E+02  0.00000000000E+00 0.  1.
         14    1    3    3    0    0 -0.90779469850E+01  0.16836429117E+02  0.16265567234E+03  0.16377650079E+03  0.00000000000E+00 0. -1.
         -2    1    1    2    0  502 -0.30039449709E+01  0.24278710219E+02  0.86647189412E+03  0.86681717955E+03  0.00000000000E+00 0.  1.
<mgrwt>
<rscale>  1 0.84150062E+02</rscale>
<asrwt>0</asrwt>
<pdfrwt beam="1">  1       21 0.16817442E+00 0.84150062E+02</pdfrwt>
<pdfrwt beam="2">  1       -1 0.12290652E-02 0.84150062E+02</pdfrwt>
<totfact> 0.26826463E+04</totfact>
</mgrwt>
</event>
<event>
 6    2  0.9453093E+000  0.8651335E+02  0.7546771E-02  0.1311522E+00
          2   -1    0    0  502    0 -0.00000000000E+00  0.00000000000E+00  0.24026462800E+04  0.24026462800E+04  0.00000000000E+00 0. -1.
         21   -1    0    0  501  502  0.00000000000E+00 -0.00000000000E+00 -0.18433488022E+01  0.18433488022E+01  0.00000000000E+00 0. -1.
         24    2    1    2    0    0  0.19133956153E+02 -0.17664198451E+02  0.22332549157E+04  0.22349299942E+04  0.82501080895E+02 0.  0.
        -11    1    3    3    0    0  0.44560705323E+02 -0.23105354335E+02  0.88355813799E+03  0.88498276654E+03  0.00000000000E+00 0.  1.
         12    1    3    3    0    0 -0.25426749170E+02  0.54411558840E+01  0.13496967777E+04  0.13499472277E+04  0.00000000000E+00 0. -1.
          1    1    1    2  501    0 -0.19133956153E+02  0.17664198451E+02  0.16754801554E+03  0.16955963463E+03  0.00000000000E+00 0. -1.
<mgrwt>
<rscale>  1 0.86513355E+02</rscale>
<asrwt>0</asrwt>
<pdfrwt beam="1">  1       21 0.28359404E-03 0.86513355E+02</pdfrwt>
<pdfrwt beam="2">  1        2 0.36963538E+00 0.86513355E+02</pdfrwt>
<totfact> 0.15442905E+06</totfact>
</mgrwt>
</event>
<event>
 6    2  0.9453093E+000  0.8789391E+02  0.7546771E-02  0.1308034E+00
         21   -1    0    0  501  502  0.00000000000E+00  0.00000000000E+00  0.40419958935E+03  0.40419958935E+03  0.00000000000E+00 0.  1.
          4   -1    0    0  502    0 -0.00000000000E+00 -0.00000000000E+00 -0.17427128881E+02  0.17427128881E+02  0.00000000000E+00 0. -1.
         24    2    1    2    0    0  0.31652745767E+01 -0.32552998478E+02  0.37754844457E+03  0.38764438249E+03  0.81581999305E+02 0.  0.
        -11    1    3    3    0    0 -0.34156182980E+02 -0.23443072593E+02  0.27562893317E+03  0.27872483077E+03  0.00000000000E+00 0.  1.
         12    1    3    3    0    0  0.37321457557E+02 -0.91099258845E+01  0.10191951140E+03  0.10891955172E+03  0.00000000000E+00 0. -1.
          3    1    1    2  501    0 -0.31652745767E+01  0.32552998478E+02  0.92240159052E+01  0.33982335742E+02  0.00000000000E+00 0. -1.
<mgrwt>
<rscale>  1 0.87893909E+02</rscale>
<asrwt>0</asrwt>
<pdfrwt beam="1">  1       21 0.62184545E-01 0.87893909E+02</pdfrwt>
<pdfrwt beam="2">  1        4 0.26810971E-02 0.87893909E+02</pdfrwt>
<totfact> 0.59753467E+04</totfact>
</mgrwt>
</event>
<event>
 6    2  0.9453093E+000  0.9861566E+02  0.7546771E-02  0.1283234E+00
         21   -1    0    0  501  502  0.00000000000E+00  0.00000000000E+00  0.18617493588E+03  0.18617493588E+03  0.00000000000E+00 0.  1.
         -1   -1    0    0    0  501 -0.00000000000E+00 -0.00000000000E+00 -0.32320725981E+02  0.32320725981E+02  0.00000000000E+00 0.  1.
         24    2    1    2    0    0 -0.36983538127E+02  0.42701783023E+02  0.95543181066E+02  0.13730822164E+03  0.80832072325E+02 0.  0.
        -11    1    3    3    0    0 -0.50557714315E+02  0.32142083739E+02  0.25373189267E+02  0.65061469069E+02  0.00000000000E+00 0.  1.
         12    1    3    3    0    0  0.13574176188E+02  0.10559699284E+02  0.70169991799E+02  0.72246752572E+02  0.00000000000E+00 0. -1.
         -2    1    1    2    0  502  0.36983538127E+02 -0.42701783023E+02  0.58311028832E+02  0.81187440218E+02  0.00000000000E+00 0.  1.
<mgrwt>
<rscale>  1 0.98615659E+02</rscale>
<asrwt>0</asrwt>
<pdfrwt beam="1">  1       21 0.28642297E-01 0.98615659E+02</pdfrwt>
<pdfrwt beam="2">  1       -1 0.49724195E-02 0.98615659E+02</pdfrwt>
<totfact> 0.17538871E+05</totfact>
</mgrwt>
</event>
<event>
 6    2  0.9453093E+000  0.9042353E+02  0.7546771E-02  0.1301829E+00
         21   -1    0    0  501  502  0.00000000000E+00  0.00000000000E+00  0.19930186693E+02  0.19930186693E+02  0.00000000000E+00 0.  1.
          4   -1    0    0  502    0 -0.00000000000E+00 -0.00000000000E+00 -0.31675431502E+03  0.31675431502E+03  0.00000000000E+00 0. -1.
         24    2    1    2    0    0 -0.87401154534E+01 -0.38717701997E+02 -0.27879041288E+03  0.29308788534E+03  0.81246317803E+02 0.  0.
        -13    1    3    3    0    0  0.79911988394E+01  0.14256545288E+02 -0.11251316662E+02  0.19841886732E+02  0.00000000000E+00 0.  1.
         14    1    3    3    0    0 -0.16731314293E+02 -0.52974247285E+02 -0.26753909622E+03  0.27324599861E+03  0.00000000000E+00 0. -1.
          3    1    1    2  501    0  0.87401154534E+01  0.38717701997E+02 -0.18033715450E+02  0.43596616371E+02  0.00000000000E+00 0. -1.
<mgrwt>
<rscale>  1 0.90423527E+02</rscale>
<asrwt>0</asrwt>
<pdfrwt beam="1">  1       21 0.30661826E-02 0.90423527E+02</pdfrwt>
<pdfrwt beam="2">  1        4 0.48731433E-01 0.90423527E+02</pdfrwt>
<totfact> 0.94064287E+04</totfact>
</mgrwt>
</event>
<event>
 6    2  0.9453093E+000  0.8398300E+02  0.7546771E-02  0.1318114E+00
          4   -1    0    0  502    0 -0.00000000000E+00  0.00000000000E+00  0.11630510390E+03  0.11630510390E+03  0.00000000000E+00 0. -1.
         21   -1    0    0  501  502  0.00000000000E+00 -0.00000000000E+00 -0.25959116700E+02  0.25959116700E+02  0.00000000000E+00 0.  1.
         24    2    1    2    0    0 -0.12661550353E+02 -0.22606643347E+02  0.69152897751E+02  0.10879001828E+03  0.79885978925E+02 0.  0.
        -13    1    3    3    0    0 -0.43629147767E+02 -0.30054037441E+01  0.21666752721E+02  0.48805564847E+02  0.00000000000E+00 0.  1.
         14    1    3    3    0    0  0.30967597414E+02 -0.19601239602E+02  0.47486145030E+02  0.59984453431E+02  0.00000000000E+00 0. -1.
          3    1    1    2  501    0  0.12661550353E+02  0.22606643347E+02  0.21193089452E+02  0.33474202324E+02  0.00000000000E+00 0. -1.
<mgrwt>
<rscale>  1 0.83983003E+02</rscale>
<asrwt>0</asrwt>
<pdfrwt beam="1">  1       21 0.39937103E-02 0.83983003E+02</pdfrwt>
<pdfrwt beam="2">  1        4 0.17893093E-01 0.83983003E+02</pdfrwt>
<totfact> 0.39319531E+05</totfact>
</mgrwt>
</event>
<event>
 6    2  0.9453093E+000  0.8338467E+02  0.7546771E-02  0.1319712E+00
          2   -1    0    0  502    0 -0.00000000000E+00  0.00000000000E+00  0.13482155237E+04  0.13482155237E+04  0.00000000000E+00 0. -1.
         21   -1    0    0  501  502  0.00000000000E+00 -0.00000000000E+00 -0.21808607172E+01  0.21808607172E+01  0.00000000000E+00 0. -1.
         24    2    1    2    0    0  0.86630471152E+01  0.23300954132E+02  0.10704328557E+04  0.10736756966E+04  0.79592840209E+02 0.  0.
        -11    1    3    3    0    0  0.22674220841E+02 -0.20935918618E+02  0.64112424097E+03  0.64186659466E+03  0.00000000000E+00 0.  1.
         12    1    3    3    0    0 -0.14011173726E+02  0.44236872751E+02  0.42930861469E+03  0.43180910197E+03  0.00000000000E+00 0. -1.
          1    1    1    2  501    0 -0.86630471152E+01 -0.23300954132E+02  0.27560180732E+03  0.27672068778E+03  0.00000000000E+00 0. -1.
<mgrwt>
<rscale>  1 0.83384669E+02</rscale>
<asrwt>0</asrwt>
<pdfrwt beam="1">  1       21 0.33551811E-03 0.83384669E+02</pdfrwt>
<pdfrwt beam="2">  1        2 0.20741711E+00 0.83384669E+02</pdfrwt>
<totfact> 0.40801493E+06</totfact>
</mgrwt>
</event>
<event>
 6    2  0.9453093E+000  0.1205139E+03  0.7546771E-02  0.1242252E+00
         21   -1    0    0  501  502  0.00000000000E+00  0.00000000000E+00  0.76116306462E+02  0.76116306462E+02  0.00000000000E+00 0.  1.
         -3   -1    0    0    0  501 -0.00000000000E+00 -0.00000000000E+00 -0.23771600181E+03  0.23771600181E+03  0.00000000000E+00 0.  1.
         24    2    1    2    0    0  0.48454573331E+02  0.78760229201E+02 -0.18281014522E+03  0.21895922166E+03  0.77282418270E+02 0.  0.
        -13    1    3    3    0    0  0.63110154629E+02  0.78506624360E+02 -0.17602372491E+03  0.20280664046E+03  0.00000000000E+00 0.  1.
         14    1    3    3    0    0 -0.14655581298E+02  0.25360484157E+00 -0.67864203089E+01  0.16152581193E+02  0.00000000000E+00 0. -1.
         -4    1    1    2    0  502 -0.48454573331E+02 -0.78760229201E+02  0.21210449868E+02  0.94873086617E+02  0.00000000000E+00 0.  1.
<mgrwt>
<rscale>  1 0.12051386E+03</rscale>
<asrwt>0</asrwt>
<pdfrwt beam="1">  1       21 0.11710201E-01 0.12051386E+03</pdfrwt>
<pdfrwt beam="2">  1       -3 0.36571692E-01 0.12051386E+03</pdfrwt>
<totfact> 0.21607645E+04</totfact>
</mgrwt>
</event>
<event>
 6    2  0.9453093E+000  0.8838380E+02  0.7546771E-02  0.1306813E+00
         21   -1    0    0  501  502  0.00000000000E+00  0.00000000000E+00  0.16718947060E+02  0.16718947060E+02  0.00000000000E+00 0. -1.
          2   -1    0    0  502    0 -0.00000000000E+00 -0.00000000000E+00 -0.54105079763E+03  0.54105079763E+03  0.00000000000E+00 0. -1.
         24    2    1    2    0    0  0.28136354173E+02  0.24778028310E+02 -0.51004854279E+03  0.51764969989E+03  0.80038057732E+02 0.  0.
        -11    1    3    3    0    0 -0.19432005682E+02  0.25495656227E+02 -0.10412607298E+03  0.10894893485E+03  0.00000000000E+00 0.  1.
         12    1    3    3    0    0  0.47568359855E+02 -0.71762791710E+00 -0.40592246981E+03  0.40870076504E+03  0.00000000000E+00 0. -1.
          1    1    1    2  501    0 -0.28136354173E+02 -0.24778028310E+02 -0.14283307778E+02  0.40120044792E+02  0.00000000000E+00 0. -1.
<mgrwt>
<rscale>  1 0.88383798E+02</rscale>
<asrwt>0</asrwt>
<pdfrwt beam="1">  1       21 0.25721458E-02 0.88383798E+02</pdfrwt>
<pdfrwt beam="2">  1        2 0.83238581E-01 0.88383798E+02</pdfrwt>
<totfact> 0.55322810E+05</totfact>
</mgrwt>
</event>
<event>
 6    2  0.1302829E+001  0.8531369E+02  0.7546771E-02  0.1314614E+00
         21   -1    0    0  501  502  0.00000000000E+00  0.00000000000E+00  0.36163935075E+02  0.36163935075E+02  0.00000000000E+00 0. -1.
         -3   -1    0    0    0  501 -0.00000000000E+00 -0.00000000000E+00 -0.11853438987E+03  0.11853438987E+03  0.00000000000E+00 0.  1.
         24    2    1    2    0    0 -0.29488584942E+02  0.72865515850E+01 -0.23560678049E+02  0.88507235538E+02  0.79722987379E+02 0.  0.
        -11    1    3    3    0    0  0.12714465536E+02 -0.39061313915E+01 -0.39768596630E+02  0.41933957293E+02  0.00000000000E+00 0.  1.
         12    1    3    3    0    0 -0.42203050478E+02  0.11192682976E+02  0.16207918581E+02  0.46573278246E+02  0.00000000000E+00 0. -1.
         -4    1    1    2    0  502  0.29488584942E+02 -0.72865515850E+01 -0.58809776744E+02  0.66191089404E+02  0.00000000000E+00 0.  1.
<mgrwt>
<rscale>  1 0.85313687E+02</rscale>
<asrwt>0</asrwt>
<pdfrwt beam="1">  1       21 0.55636824E-02 0.85313687E+02</pdfrwt>
<pdfrwt beam="2">  1       -3 0.18236060E-01 0.85313687E+02</pdfrwt>
<totfact> 0.26070520E+05</totfact>
</mgrwt>
</event>
<event>
 6    2  0.9453093E+000  0.8617474E+02  0.7546771E-02  0.1312389E+00
          2   -1    0    0  502    0 -0.00000000000E+00  0.00000000000E+00  0.19037032834E+04  0.19037032834E+04  0.00000000000E+00 0. -1.
         21   -1    0    0  501  502  0.00000000000E+00 -0.00000000000E+00 -0.50072240376E+01  0.50072240376E+01  0.00000000000E+00 0. -1.
         24    2    1    2    0    0 -0.16815298594E+02  0.24783396849E+02  0.18466719442E+04  0.18486815179E+04  0.80802933720E+02 0.  0.
        -13    1    3    3    0    0  0.27392579986E+02  0.82457422686E+01  0.11773075551E+04  0.11776550535E+04  0.00000000000E+00 0.  1.
         14    1    3    3    0    0 -0.44207878580E+02  0.16537654580E+02  0.66936438907E+03  0.67102646439E+03  0.00000000000E+00 0. -1.
          1    1    1    2  501    0  0.16815298594E+02 -0.24783396849E+02  0.52024115132E+02  0.60028989509E+02  0.00000000000E+00 0. -1.
<mgrwt>
<rscale>  1 0.86174736E+02</rscale>
<asrwt>0</asrwt>
<pdfrwt beam="1">  1       21 0.77034368E-03 0.86174736E+02</pdfrwt>
<pdfrwt beam="2">  1        2 0.29287685E+00 0.86174736E+02</pdfrwt>
<totfact> 0.60003197E+05</totfact>
</mgrwt>
</event>
<event>
 6    2  0.9453093E+000  0.1028998E+03  0.7546771E-02  0.1274314E+00
          2   -1    0    0  502    0 -0.00000000000E+00  0.00000000000E+00  0.26087317923E+03  0.26087317923E+03  0.00000000000E+00 0. -1.
         21   -1    0    0  501  502  0.00000000000E+00 -0.00000000000E+00 -0.60905777009E+02  0.60905777009E+02  0.00000000000E+00 0. -1.
         24    2    1    2    0    0  0.93597485514E+01  0.66094987301E+02  0.22740752223E+03  0.24960477509E+03  0.78308430850E+02 0.  0.
        -11    1    3    3    0    0  0.30787197439E+02  0.40793768976E+02  0.59415170981E+02  0.78371842240E+02  0.00000000000E+00 0.  1.
         12    1    3    3    0    0 -0.21427448887E+02  0.25301218325E+02  0.16799235125E+03  0.17123293285E+03  0.00000000000E+00 0. -1.
          1    1    1    2  501    0 -0.93597485514E+01 -0.66094987301E+02 -0.27440120004E+02  0.72174181153E+02  0.00000000000E+00 0. -1.
<mgrwt>
<rscale>  1 0.10289977E+03</rscale>
<asrwt>0</asrwt>
<pdfrwt beam="1">  1       21 0.93701197E-02 0.10289977E+03</pdfrwt>
<pdfrwt beam="2">  1        2 0.40134335E-01 0.10289977E+03</pdfrwt>
<totfact> 0.14003376E+05</totfact>
</mgrwt>
</event>
<event>
 6    2  0.9453093E+000  0.8776648E+02  0.7546771E-02  0.1308352E+00
         -3   -1    0    0    0  501 -0.00000000000E+00  0.00000000000E+00  0.67552337255E+03  0.67552337255E+03  0.00000000000E+00 0.  1.
         21   -1    0    0  501  502  0.00000000000E+00 -0.00000000000E+00 -0.65841829411E+01  0.65841829411E+01  0.00000000000E+00 0.  1.
         24    2    1    2    0    0 -0.33793197450E+02  0.27039156976E+01  0.58554390069E+03  0.59208497184E+03  0.80954696495E+02 0.  0.
        -11    1    3    3    0    0 -0.25029808637E+02 -0.16306818726E+02  0.55017578715E+03  0.55098620711E+03  0.00000000000E+00 0.  1.
         12    1    3    3    0    0 -0.87633888135E+01  0.19010734424E+02  0.35368113546E+02  0.41098764734E+02  0.00000000000E+00 0. -1.
         -4    1    1    2    0  502  0.33793197450E+02 -0.27039156976E+01  0.83395288914E+02  0.90022583650E+02  0.00000000000E+00 0.  1.
<mgrwt>
<rscale>  1 0.87766476E+02</rscale>
<asrwt>0</asrwt>
<pdfrwt beam="1">  1       21 0.10129518E-02 0.87766476E+02</pdfrwt>
<pdfrwt beam="2">  1       -3 0.10392662E+00 0.87766476E+02</pdfrwt>
<totfact> 0.13622248E+05</totfact>
</mgrwt>
</event>
<event>
 6    2  0.9453093E+000  0.8434212E+02  0.7546771E-02  0.1317162E+00
          4   -1    0    0  502    0 -0.00000000000E+00  0.00000000000E+00  0.18445698003E+02  0.18445698003E+02  0.00000000000E+00 0. -1.
         21   -1    0    0  501  502  0.00000000000E+00 -0.00000000000E+00 -0.31093987831E+03  0.31093987831E+03  0.00000000000E+00 0. -1.
         24    2    1    2    0    0  0.68789866312E+01 -0.35206998264E+02 -0.88469074835E+02  0.12223081087E+03  0.76333090723E+02 0.  0.
        -11    1    3    3    0    0  0.34952141294E+02 -0.36008633525E+02 -0.76968578729E+02  0.91882729503E+02  0.00000000000E+00 0.  1.
         12    1    3    3    0    0 -0.28073154663E+02  0.80163526112E+00 -0.11500496106E+02  0.30348081364E+02  0.00000000000E+00 0. -1.
          3    1    1    2  501    0 -0.68789866312E+01  0.35206998264E+02 -0.20402510547E+03  0.20715476545E+03  0.00000000000E+00 0. -1.
<mgrwt>
<rscale>  1 0.84342124E+02</rscale>
<asrwt>0</asrwt>
<pdfrwt beam="1">  1       21 0.47836902E-01 0.84342124E+02</pdfrwt>
<pdfrwt beam="2">  1        4 0.28377998E-02 0.84342124E+02</pdfrwt>
<totfact> 0.93568777E+04</totfact>
</mgrwt>
</event>
<event>
 6    2  0.9453093E+000  0.8671912E+02  0.7546771E-02  0.1310997E+00
          2   -1    0    0  502    0 -0.00000000000E+00  0.00000000000E+00  0.88591475859E+03  0.88591475859E+03  0.00000000000E+00 0. -1.
         21   -1    0    0  501  502  0.00000000000E+00 -0.00000000000E+00 -0.10198399859E+02  0.10198399859E+02  0.00000000000E+00 0. -1.
         24    2    1    2    0    0 -0.73750002240E+01 -0.23821745580E+02  0.86438161978E+03  0.86872077816E+03  0.83056243594E+02 0.  0.
        -13    1    3    3    0    0 -0.18366709559E+02  0.23962072625E+02  0.17397347276E+03  0.17657374145E+03  0.00000000000E+00 0.  1.
         14    1    3    3    0    0  0.10991709335E+02 -0.47783818206E+02  0.69040814702E+03  0.69214703671E+03  0.00000000000E+00 0. -1.
          1    1    1    2  501    0  0.73750002240E+01  0.23821745580E+02  0.11334738949E+02  0.27392380288E+02  0.00000000000E+00 0. -1.
<mgrwt>
<rscale>  1 0.86719120E+02</rscale>
<asrwt>0</asrwt>
<pdfrwt beam="1">  1       21 0.15689853E-02 0.86719120E+02</pdfrwt>
<pdfrwt beam="2">  1        2 0.13629452E+00 0.86719120E+02</pdfrwt>
<totfact> 0.68456192E+05</totfact>
</mgrwt>
</event>
<event>
 6    2  0.9453093E+000  0.9114023E+02  0.7546771E-02  0.1300114E+00
         21   -1    0    0  501  502  0.00000000000E+00  0.00000000000E+00  0.59550123328E+01  0.59550123328E+01  0.00000000000E+00 0. -1.
         -1   -1    0    0    0  501 -0.00000000000E+00 -0.00000000000E+00 -0.66502925509E+03  0.66502925509E+03  0.00000000000E+00 0.  1.
         24    2    1    2    0    0  0.33212480251E+02 -0.10118959029E+02 -0.47597224184E+03  0.48461955800E+03  0.84267899125E+02 0.  0.
        -11    1    3    3    0    0  0.88694760346E+01  0.36204277051E+02 -0.24301774347E+03  0.24585979933E+03  0.00000000000E+00 0.  1.
         12    1    3    3    0    0  0.24343004216E+02 -0.46323236081E+02 -0.23295449837E+03  0.23875975868E+03  0.00000000000E+00 0. -1.
         -2    1    1    2    0  502 -0.33212480251E+02  0.10118959029E+02 -0.18310200092E+03  0.18636470942E+03  0.00000000000E+00 0.  1.
<mgrwt>
<rscale>  1 0.91140227E+02</rscale>
<asrwt>0</asrwt>
<pdfrwt beam="1">  1       21 0.91615547E-03 0.91140227E+02</pdfrwt>
<pdfrwt beam="2">  1       -1 0.10231222E+00 0.91140227E+02</pdfrwt>
<totfact> 0.36591035E+05</totfact>
</mgrwt>
</event>
<event>
 6    2  0.9453093E+000  0.9684238E+02  0.7546771E-02  0.1287080E+00
          2   -1    0    0  502    0 -0.00000000000E+00  0.00000000000E+00  0.85828040716E+03  0.85828040716E+03  0.00000000000E+00 0. -1.
         21   -1    0    0  501  502  0.00000000000E+00 -0.00000000000E+00 -0.19838595637E+02  0.19838595637E+02  0.00000000000E+00 0. -1.
         24    2    1    2    0    0  0.25194964552E+02  0.48112073458E+02  0.81192751999E+03  0.81768254438E+03  0.80180345531E+02 0.  0.
        -11    1    3    3    0    0 -0.15334901089E+02 -0.92237654863E+01  0.63644057193E+02  0.66112049258E+02  0.00000000000E+00 0.  1.
         12    1    3    3    0    0  0.40529865641E+02  0.57335838944E+02  0.74828346280E+03  0.75157049512E+03  0.00000000000E+00 0. -1.
          1    1    1    2  501    0 -0.25194964552E+02 -0.48112073458E+02  0.26514291535E+02  0.60436458423E+02  0.00000000000E+00 0. -1.
<mgrwt>
<rscale>  1 0.96842375E+02</rscale>
<asrwt>0</asrwt>
<pdfrwt beam="1">  1       21 0.30520923E-02 0.96842375E+02</pdfrwt>
<pdfrwt beam="2">  1        2 0.13204311E+00 0.96842375E+02</pdfrwt>
<totfact> 0.24635247E+05</totfact>
</mgrwt>
</event>
<event>
 6    2  0.9453093E+000  0.1008238E+03  0.7546771E-02  0.1278573E+00
         21   -1    0    0  501  502  0.00000000000E+00  0.00000000000E+00  0.14260752085E+02  0.14260752085E+02  0.00000000000E+00 0. -1.
          2   -1    0    0  502    0 -0.00000000000E+00 -0.00000000000E+00 -0.60616095044E+03  0.60616095044E+03  0.00000000000E+00 0. -1.
         24    2    1    2    0    0 -0.54426922689E+02 -0.22327283870E+02 -0.50826628404E+03  0.51816990967E+03  0.81881880034E+02 0.  0.
        -13    1    3    3    0    0 -0.69499226624E+01  0.28638335809E+02 -0.11109178773E+03  0.11493407243E+03  0.00000000000E+00 0.  1.
         14    1    3    3    0    0 -0.47477000027E+02 -0.50965619679E+02 -0.39717449631E+03  0.40323583724E+03  0.00000000000E+00 0. -1.
          1    1    1    2  501    0  0.54426922689E+02  0.22327283870E+02 -0.83633914315E+02  0.10225179286E+03  0.00000000000E+00 0. -1.
<mgrwt>
<rscale>  1 0.10082381E+03</rscale>
<asrwt>0</asrwt>
<pdfrwt beam="1">  1       21 0.21939624E-02 0.10082381E+03</pdfrwt>
<pdfrwt beam="2">  1        2 0.93255506E-01 0.10082381E+03</pdfrwt>
<totfact> 0.63669246E+05</totfact>
</mgrwt>
</event>
<event>
 6    2  0.9453093E+000  0.8662329E+02  0.7546771E-02  0.1311241E+00
         21   -1    0    0  501  502  0.00000000000E+00  0.00000000000E+00  0.13536419160E+03  0.13536419160E+03  0.00000000000E+00 0. -1.
          2   -1    0    0  502    0 -0.00000000000E+00 -0.00000000000E+00 -0.93122173414E+02  0.93122173414E+02  0.00000000000E+00 0. -1.
         24    2    1    2    0    0  0.21903369660E+02  0.26262346661E+02 -0.69860497201E+02  0.11128379503E+03  0.79587219531E+02 0.  0.
        -13    1    3    3    0    0  0.27704592600E+02 -0.15546106610E+02 -0.25978992905E+01  0.31874362152E+02  0.00000000000E+00 0.  1.
         14    1    3    3    0    0 -0.58012229402E+01  0.41808453271E+02 -0.67262597910E+02  0.79409432879E+02  0.00000000000E+00 0. -1.
          1    1    1    2  501    0 -0.21903369660E+02 -0.26262346661E+02  0.11210251539E+03  0.11720256999E+03  0.00000000000E+00 0. -1.
<mgrwt>
<rscale>  1 0.86623288E+02</rscale>
<asrwt>0</asrwt>
<pdfrwt beam="1">  1       21 0.20825260E-01 0.86623288E+02</pdfrwt>
<pdfrwt beam="2">  1        2 0.14326488E-01 0.86623288E+02</pdfrwt>
<totfact> 0.10404071E+05</totfact>
</mgrwt>
</event>
<event>
 6    2  0.9453093E+000  0.8681498E+02  0.7546771E-02  0.1310753E+00
         21   -1    0    0  501  502  0.00000000000E+00  0.00000000000E+00  0.12017728346E+03  0.12017728346E+03  0.00000000000E+00 0. -1.
          4   -1    0    0  502    0 -0.00000000000E+00 -0.00000000000E+00 -0.32766814021E+02  0.32766814021E+02  0.00000000000E+00 0. -1.
         24    2    1    2    0    0  0.34679747308E+02  0.12648489124E+02  0.72595632508E+02  0.11316786659E+03  0.78575893377E+02 0.  0.
        -11    1    3    3    0    0  0.34870355303E+02  0.42519336563E+02  0.35136084840E+02  0.65256264976E+02  0.00000000000E+00 0.  1.
         12    1    3    3    0    0 -0.19060799536E+00 -0.29870847440E+02  0.37459547668E+02  0.47911601619E+02  0.00000000000E+00 0. -1.
          3    1    1    2  501    0 -0.34679747308E+02 -0.12648489124E+02  0.14814836936E+02  0.39776230891E+02  0.00000000000E+00 0. -1.
<mgrwt>
<rscale>  1 0.86814977E+02</rscale>
<asrwt>0</asrwt>
<pdfrwt beam="1">  1       21 0.18488813E-01 0.86814977E+02</pdfrwt>
<pdfrwt beam="2">  1        4 0.50410484E-02 0.86814977E+02</pdfrwt>
<totfact> 0.23456153E+05</totfact>
</mgrwt>
</event>
<event>
 6    2  0.9453093E+000  0.1744204E+03  0.7546771E-02  0.1173315E+00
         21   -1    0    0  501  502  0.00000000000E+00  0.00000000000E+00  0.14585225358E+03  0.14585225358E+03  0.00000000000E+00 0. -1.
         -1   -1    0    0    0  501 -0.00000000000E+00 -0.00000000000E+00 -0.20099925247E+03  0.20099925247E+03  0.00000000000E+00 0.  1.
         24    2    1    2    0    0  0.15356546337E+03 -0.15494299379E+02  0.19309234649E+02  0.17548594485E+03  0.81240663725E+02 0.  0.
        -11    1    3    3    0    0  0.27367035308E+02  0.15144053243E+02 -0.23087865674E+02  0.38876040328E+02  0.00000000000E+00 0.  1.
         12    1    3    3    0    0  0.12619842807E+03 -0.30638352622E+02  0.42397100322E+02  0.13660990452E+03  0.00000000000E+00 0. -1.
         -2    1    1    2    0  502 -0.15356546337E+03  0.15494299379E+02 -0.74456233532E+02  0.17136556120E+03  0.00000000000E+00 0.  1.
<mgrwt>
<rscale>  1 0.17442038E+03</rscale>
<asrwt>0</asrwt>
<pdfrwt beam="1">  1       21 0.22438808E-01 0.17442038E+03</pdfrwt>
<pdfrwt beam="2">  1       -1 0.30922962E-01 0.17442038E+03</pdfrwt>
<totfact> 0.16516893E+04</totfact>
</mgrwt>
</event>
<event>
 6    2  0.9453093E+000  0.8718813E+02  0.7546771E-02  0.1309808E+00
          2   -1    0    0  502    0 -0.00000000000E+00  0.00000000000E+00  0.85157342247E+03  0.85157342247E+03  0.00000000000E+00 0. -1.
         21   -1    0    0  501  502  0.00000000000E+00 -0.00000000000E+00 -0.58063518409E+01  0.58063518409E+01  0.00000000000E+00 0.  1.
         24    2    1    2    0    0  0.15647402131E+02 -0.38581142487E+02  0.71106597268E+03  0.71639136508E+03  0.76605644097E+02 0.  0.
        -11    1    3    3    0    0  0.38324570499E+02 -0.46801788449E+02  0.57800426908E+03  0.58116100625E+03  0.00000000000E+00 0.  1.
         12    1    3    3    0    0 -0.22677168368E+02  0.82206459624E+01  0.13306170360E+03  0.13523035883E+03  0.00000000000E+00 0. -1.
          1    1    1    2  501    0 -0.15647402131E+02  0.38581142487E+02  0.13470109795E+03  0.14098840923E+03  0.00000000000E+00 0. -1.
<mgrwt>
<rscale>  1 0.87188133E+02</rscale>
<asrwt>0</asrwt>
<pdfrwt beam="1">  1       21 0.89328558E-03 0.87188133E+02</pdfrwt>
<pdfrwt beam="2">  1        2 0.13101120E+00 0.87188133E+02</pdfrwt>
<totfact> 0.17430130E+06</totfact>
</mgrwt>
</event>
<event>
 6    2  0.1132352E+001  0.1007175E+03  0.7546771E-02  0.1278794E+00
         21   -1    0    0  501  502  0.00000000000E+00  0.00000000000E+00  0.56821446133E+01  0.56821446133E+01  0.00000000000E+00 0. -1.
         -1   -1    0    0    0  501 -0.00000000000E+00 -0.00000000000E+00 -0.11681228765E+04  0.11681228765E+04  0.00000000000E+00 0.  1.
         24    2    1    2    0    0  0.43107808636E+02 -0.44864005208E+02 -0.72330422818E+03  0.73028283337E+03  0.79201944991E+02 0.  0.
        -11    1    3    3    0    0  0.22540773880E+02 -0.49994006800E+02 -0.67855022139E+03  0.68076272676E+03  0.00000000000E+00 0.  1.
         12    1    3    3    0    0  0.20567034756E+02  0.51300015916E+01 -0.44754006791E+02  0.49520106612E+02  0.00000000000E+00 0. -1.
         -2    1    1    2    0  502 -0.43107808636E+02  0.44864005208E+02 -0.43913650373E+03  0.44352218776E+03  0.00000000000E+00 0.  1.
<mgrwt>
<rscale>  1 0.10071748E+03</rscale>
<asrwt>0</asrwt>
<pdfrwt beam="1">  1       21 0.87417637E-03 0.10071748E+03</pdfrwt>
<pdfrwt beam="2">  1       -1 0.17971116E+00 0.10071748E+03</pdfrwt>
<totfact> 0.98648116E+04</totfact>
</mgrwt>
</event>
<event>
 6    2  0.9453093E+000  0.8455062E+02  0.7546771E-02  0.1316612E+00
          2   -1    0    0  502    0 -0.00000000000E+00  0.00000000000E+00  0.18034871447E+03  0.18034871447E+03  0.00000000000E+00 0. -1.
         21   -1    0    0  501  502  0.00000000000E+00 -0.00000000000E+00 -0.21492802118E+02  0.21492802118E+02  0.00000000000E+00 0. -1.
         24    2    1    2    0    0 -0.36337014738E+01 -0.24447502846E+02  0.15536305281E+03  0.17687986100E+03  0.80857423081E+02 0.  0.
        -11    1    3    3    0    0  0.64550051395E+01  0.28045681078E+02  0.75303299720E+02  0.80615223545E+02  0.00000000000E+00 0.  1.
         12    1    3    3    0    0 -0.10088706613E+02 -0.52493183924E+02  0.80059753089E+02  0.96264637455E+02  0.00000000000E+00 0. -1.
          1    1    1    2  501    0  0.36337014738E+01  0.24447502846E+02  0.34928595409E+01  0.24961655585E+02  0.00000000000E+00 0. -1.
<mgrwt>
<rscale>  1 0.84550618E+02</rscale>
<asrwt>0</asrwt>
<pdfrwt beam="1">  1       21 0.33065851E-02 0.84550618E+02</pdfrwt>
<pdfrwt beam="2">  1        2 0.27745955E-01 0.84550618E+02</pdfrwt>
<totfact> 0.11698075E+06</totfact>
</mgrwt>
</event>
<event>
 6    2  0.9453093E+000  0.9556247E+02  0.7546771E-02  0.1289914E+00
         21   -1    0    0  501  502  0.00000000000E+00  0.00000000000E+00  0.25355633430E+02  0.25355633430E+02  0.00000000000E+00 0. -1.
          2   -1    0    0  502    0 -0.00000000000E+00 -0.00000000000E+00 -0.10163323372E+04  0.10163323372E+04  0.00000000000E+00 0. -1.
         24    2    1    2    0    0 -0.50275329623E+02  0.31553440548E+01 -0.98649715708E+03  0.99111494121E+03  0.81207270486E+02 0.  0.
        -11    1    3    3    0    0 -0.10060918444E+02  0.16429870777E+02 -0.48847493148E+02  0.52509430777E+02  0.00000000000E+00 0.  1.
         12    1    3    3    0    0 -0.40214411178E+02 -0.13274526722E+02 -0.93764966394E+03  0.93860551043E+03  0.00000000000E+00 0. -1.
          1    1    1    2  501    0  0.50275329623E+02 -0.31553440548E+01 -0.44795466648E+01  0.50573029404E+02  0.00000000000E+00 0. -1.
<mgrwt>
<rscale>  1 0.95562470E+02</rscale>
<asrwt>0</asrwt>
<pdfrwt beam="1">  1       21 0.39008668E-02 0.95562470E+02</pdfrwt>
<pdfrwt beam="2">  1        2 0.15635882E+00 0.95562470E+02</pdfrwt>
<totfact> 0.13201952E+05</totfact>
</mgrwt>
</event>
<event>
 6    2  0.9453093E+000  0.8302588E+02  0.7546771E-02  0.1320677E+00
          2   -1    0    0  502    0 -0.00000000000E+00  0.00000000000E+00  0.25933327941E+04  0.25933327941E+04  0.00000000000E+00 0. -1.
         21   -1    0    0  501  502  0.00000000000E+00 -0.00000000000E+00 -0.12923428746E+01  0.12923428746E+01  0.00000000000E+00 0.  1.
         24    2    1    2    0    0 -0.21961507698E+02 -0.20500742336E+02  0.16268449740E+04  0.16289622054E+04  0.77399669083E+02 0.  0.
        -13    1    3    3    0    0 -0.38299029131E+02  0.16973563082E+02  0.75971979853E+03  0.76087389872E+03  0.00000000000E+00 0.  1.
         14    1    3    3    0    0  0.16337521433E+02 -0.37474305418E+02  0.86712517548E+03  0.86808830664E+03  0.00000000000E+00 0. -1.
          1    1    1    2  501    0  0.21961507698E+02  0.20500742336E+02  0.96519547726E+03  0.96566293166E+03  0.00000000000E+00 0. -1.
<mgrwt>
<rscale>  1 0.83025882E+02</rscale>
<asrwt>0</asrwt>
<pdfrwt beam="1">  1       21 0.19882406E-03 0.83025882E+02</pdfrwt>
<pdfrwt beam="2">  1        2 0.39897011E+00 0.83025882E+02</pdfrwt>
<totfact> 0.20880056E+06</totfact>
</mgrwt>
</event>
<event>
 6    2  0.9453093E+000  0.9828429E+02  0.7546771E-02  0.1283946E+00
         21   -1    0    0  501  502  0.00000000000E+00  0.00000000000E+00  0.45740503437E+02  0.45740503437E+02  0.00000000000E+00 0.  1.
          4   -1    0    0  502    0 -0.00000000000E+00 -0.00000000000E+00 -0.12606011375E+03  0.12606011375E+03  0.00000000000E+00 0. -1.
         24    2    1    2    0    0 -0.13576435564E+02  0.51332696796E+02 -0.45507556748E+02  0.10830853551E+03  0.82706927032E+02 0.  0.
        -11    1    3    3    0    0  0.56925259907E+01  0.25336367764E+02  0.21619166292E+02  0.33789417498E+02  0.00000000000E+00 0.  1.
         12    1    3    3    0    0 -0.19268961555E+02  0.25996329031E+02 -0.67126723040E+02  0.74519118007E+02  0.00000000000E+00 0. -1.
          3    1    1    2  501    0  0.13576435564E+02 -0.51332696796E+02 -0.34812053567E+02  0.63492081684E+02  0.00000000000E+00 0. -1.
<mgrwt>
<rscale>  1 0.98284287E+02</rscale>
<asrwt>0</asrwt>
<pdfrwt beam="1">  1       21 0.70370006E-02 0.98284287E+02</pdfrwt>
<pdfrwt beam="2">  1        4 0.19393864E-01 0.98284287E+02</pdfrwt>
<totfact> 0.13637639E+05</totfact>
</mgrwt>
</event>
<event>
 6    2  0.9453093E+000  0.8508494E+02  0.7546771E-02  0.1315211E+00
         21   -1    0    0  501  502  0.00000000000E+00  0.00000000000E+00  0.69407483600E+01  0.69407483600E+01  0.00000000000E+00 0. -1.
          2   -1    0    0  502    0 -0.00000000000E+00 -0.00000000000E+00 -0.61505613074E+03  0.61505613074E+03  0.00000000000E+00 0. -1.
         24    2    1    2    0    0 -0.18009287779E+02  0.16801985495E+02 -0.57193093129E+03  0.57822524829E+03  0.81442043399E+02 0.  0.
        -13    1    3    3    0    0  0.30405655252E+02  0.19567779696E+02 -0.27354068564E+03  0.27592011266E+03  0.00000000000E+00 0.  1.
         14    1    3    3    0    0 -0.48414943032E+02 -0.27657942007E+01 -0.29839024565E+03  0.30230513563E+03  0.00000000000E+00 0. -1.
          1    1    1    2  501    0  0.18009287779E+02 -0.16801985495E+02 -0.36184451088E+02  0.43771630807E+02  0.00000000000E+00 0. -1.
<mgrwt>
<rscale>  1 0.85084943E+02</rscale>
<asrwt>0</asrwt>
<pdfrwt beam="1">  1       21 0.10678070E-02 0.85084943E+02</pdfrwt>
<pdfrwt beam="2">  1        2 0.94624061E-01 0.85084943E+02</pdfrwt>
<totfact> 0.19317326E+06</totfact>
</mgrwt>
</event>
<event>
 6    2  0.9453093E+000  0.9058828E+02  0.7546771E-02  0.1301433E+00
         21   -1    0    0  501  502  0.00000000000E+00  0.00000000000E+00  0.40817874490E+02  0.40817874490E+02  0.00000000000E+00 0. -1.
          2   -1    0    0  502    0 -0.00000000000E+00 -0.00000000000E+00 -0.14391958004E+03  0.14391958004E+03  0.00000000000E+00 0. -1.
         24    2    1    2    0    0  0.81776500002E+01 -0.36866108134E+02 -0.19017496814E+02  0.92562956717E+02  0.82342284900E+02 0.  0.
        -13    1    3    3    0    0 -0.19459067514E+02 -0.97465831938E+01  0.25524927995E+02  0.33543600606E+02  0.00000000000E+00 0.  1.
         14    1    3    3    0    0  0.27636717514E+02 -0.27119524940E+02 -0.44542424809E+02  0.59019356111E+02  0.00000000000E+00 0. -1.
          1    1    1    2  501    0 -0.81776500002E+01  0.36866108134E+02 -0.84084208739E+02  0.92174497817E+02  0.00000000000E+00 0. -1.
<mgrwt>
<rscale>  1 0.90588276E+02</rscale>
<asrwt>0</asrwt>
<pdfrwt beam="1">  1       21 0.62796729E-02 0.90588276E+02</pdfrwt>
<pdfrwt beam="2">  1        2 0.22141474E-01 0.90588276E+02</pdfrwt>
<totfact> 0.52088337E+05</totfact>
</mgrwt>
</event>
<event>
 6    2  0.9453093E+000  0.8695182E+02  0.7546771E-02  0.1310406E+00
          2   -1    0    0  502    0 -0.00000000000E+00  0.00000000000E+00  0.26626100801E+03  0.26626100801E+03  0.00000000000E+00 0. -1.
         21   -1    0    0  501  502  0.00000000000E+00 -0.00000000000E+00 -0.13009027565E+02  0.13009027565E+02  0.00000000000E+00 0.  1.
         24    2    1    2    0    0 -0.73584518299E+01 -0.24385112280E+02  0.15451535957E+03  0.17730091860E+03  0.83137469771E+02 0.  0.
        -13    1    3    3    0    0  0.29916757098E+01  0.64469395234E+01 -0.84960320851E+01  0.11076809738E+02  0.00000000000E+00 0.  1.
         14    1    3    3    0    0 -0.10350127540E+02 -0.30832051803E+02  0.16301139165E+03  0.16622410886E+03  0.00000000000E+00 0. -1.
          1    1    1    2  501    0  0.73584518299E+01  0.24385112280E+02  0.98736620873E+02  0.10196911697E+03  0.00000000000E+00 0. -1.
<mgrwt>
<rscale>  1 0.86951822E+02</rscale>
<asrwt>0</asrwt>
<pdfrwt beam="1">  1       21 0.20013891E-02 0.86951822E+02</pdfrwt>
<pdfrwt beam="2">  1        2 0.40963228E-01 0.86951822E+02</pdfrwt>
<totfact> 0.17469634E+06</totfact>
</mgrwt>
</event>
<event>
 6    2  0.9453093E+000  0.8421494E+02  0.7546771E-02  0.1317498E+00
          2   -1    0    0  502    0 -0.00000000000E+00  0.00000000000E+00  0.58847872117E+03  0.58847872117E+03  0.00000000000E+00 0. -1.
         21   -1    0    0  501  502  0.00000000000E+00 -0.00000000000E+00 -0.57194719222E+01  0.57194719222E+01  0.00000000000E+00 0.  1.
         24    2    1    2    0    0 -0.27407419477E+02  0.86324483219E+01  0.36727027746E+03  0.37680182061E+03  0.79161035256E+02 0.  0.
        -11    1    3    3    0    0 -0.23889306768E+02  0.12431707133E+02  0.33459809087E+02  0.42951194910E+02  0.00000000000E+00 0.  1.
         12    1    3    3    0    0 -0.35181127090E+01 -0.37992588108E+01  0.33381046837E+03  0.33385062570E+03  0.00000000000E+00 0. -1.
          1    1    1    2  501    0  0.27407419477E+02 -0.86324483219E+01  0.21548897179E+03  0.21739637248E+03  0.00000000000E+00 0. -1.
<mgrwt>
<rscale>  1 0.84214935E+02</rscale>
<asrwt>0</asrwt>
<pdfrwt beam="1">  1       21 0.87991922E-03 0.84214935E+02</pdfrwt>
<pdfrwt beam="2">  1        2 0.90535140E-01 0.84214935E+02</pdfrwt>
<totfact> 0.27407829E+06</totfact>
</mgrwt>
</event>
<event>
 6    2  0.9453093E+000  0.9606946E+02  0.7546771E-02  0.1288785E+00
         21   -1    0    0  501  502  0.00000000000E+00  0.00000000000E+00  0.24016059914E+01  0.24016059914E+01  0.00000000000E+00 0. -1.
          2   -1    0    0  502    0 -0.00000000000E+00 -0.00000000000E+00 -0.21073670009E+04  0.21073670009E+04  0.00000000000E+00 0. -1.
         24    2    1    2    0    0  0.45793223530E+01  0.45940759043E+02 -0.13968020683E+04  0.14001019100E+04  0.84248541958E+02 0.  0.
        -11    1    3    3    0    0  0.10207157118E+01 -0.19201743006E+02 -0.69705551820E+03  0.69732068968E+03  0.00000000000E+00 0.  1.
         12    1    3    3    0    0  0.35586066413E+01  0.65142502049E+02 -0.69974655009E+03  0.70278122031E+03  0.00000000000E+00 0. -1.
          1    1    1    2  501    0 -0.45793223530E+01 -0.45940759043E+02 -0.70816332665E+03  0.70966669694E+03  0.00000000000E+00 0. -1.
<mgrwt>
<rscale>  1 0.96069456E+02</rscale>
<asrwt>0</asrwt>
<pdfrwt beam="1">  1       21 0.36947619E-03 0.96069456E+02</pdfrwt>
<pdfrwt beam="2">  1        2 0.32421176E+00 0.96069456E+02</pdfrwt>
<totfact> 0.14718366E+06</totfact>
</mgrwt>
</event>
<event>
 6    2  0.9453093E+000  0.8278512E+02  0.7546771E-02  0.1321328E+00
         21   -1    0    0  501  502  0.00000000000E+00  0.00000000000E+00  0.15473885652E+02  0.15473885652E+02  0.00000000000E+00 0. -1.
          2   -1    0    0  502    0 -0.00000000000E+00 -0.00000000000E+00 -0.19453272643E+03  0.19453272643E+03  0.00000000000E+00 0. -1.
         24    2    1    2    0    0 -0.79046553827E+01  0.19403469373E+02 -0.16549974340E+03  0.18505010347E+03  0.80089933997E+02 0.  0.
        -13    1    3    3    0    0 -0.15345002609E+02 -0.25576250992E+02 -0.30935010726E+02  0.42971951416E+02  0.00000000000E+00 0.  1.
         14    1    3    3    0    0  0.74403472259E+01  0.44979720365E+02 -0.13456473267E+03  0.14207815205E+03  0.00000000000E+00 0. -1.
          1    1    1    2  501    0  0.79046553827E+01 -0.19403469373E+02 -0.13559097374E+02  0.24956508610E+02  0.00000000000E+00 0. -1.
<mgrwt>
<rscale>  1 0.82785118E+02</rscale>
<asrwt>0</asrwt>
<pdfrwt beam="1">  1       21 0.23805977E-02 0.82785118E+02</pdfrwt>
<pdfrwt beam="2">  1        2 0.29928113E-01 0.82785118E+02</pdfrwt>
<totfact> 0.18310135E+06</totfact>
</mgrwt>
</event>
<event>
 6    2  0.9453093E+000  0.8370480E+02  0.7546771E-02  0.1318855E+00
         21   -1    0    0  501  502  0.00000000000E+00  0.00000000000E+00  0.29848519021E+02  0.29848519021E+02  0.00000000000E+00 0.  1.
          2   -1    0    0  502    0 -0.00000000000E+00 -0.00000000000E+00 -0.10199068231E+03  0.10199068231E+03  0.00000000000E+00 0. -1.
         24    2    1    2    0    0  0.24769039786E+02  0.34405810207E+01 -0.45390862183E+02  0.95219875277E+02  0.79882109063E+02 0.  0.
        -11    1    3    3    0    0  0.31620409799E+02 -0.20565836317E+02  0.58974425899E+01  0.38178315421E+02  0.00000000000E+00 0.  1.
         12    1    3    3    0    0 -0.68513700124E+01  0.24006417337E+02 -0.51288304773E+02  0.57041559857E+02  0.00000000000E+00 0. -1.
          1    1    1    2  501    0 -0.24769039786E+02 -0.34405810207E+01 -0.26751301102E+02  0.36619326050E+02  0.00000000000E+00 0. -1.
<mgrwt>
<rscale>  1 0.83704804E+02</rscale>
<asrwt>0</asrwt>
<pdfrwt beam="1">  1       21 0.45920800E-02 0.83704804E+02</pdfrwt>
<pdfrwt beam="2">  1        2 0.15690874E-01 0.83704804E+02</pdfrwt>
<totfact> 0.12826892E+06</totfact>
</mgrwt>
</event>
<event>
 6    2  0.9453093E+000  0.8287556E+02  0.7546771E-02  0.1321084E+00
         21   -1    0    0  501  502  0.00000000000E+00  0.00000000000E+00  0.34173402843E+01  0.34173402843E+01  0.00000000000E+00 0. -1.
         -1   -1    0    0    0  501 -0.00000000000E+00 -0.00000000000E+00 -0.10181087656E+04  0.10181087656E+04  0.00000000000E+00 0.  1.
         24    2    1    2    0    0 -0.30224050704E+02  0.17689888173E+02 -0.72955505885E+03  0.73424719460E+03  0.75112805213E+02 0.  0.
        -11    1    3    3    0    0 -0.10833614821E+02  0.45445823816E+02 -0.50462989541E+03  0.50678794525E+03  0.00000000000E+00 0.  1.
         12    1    3    3    0    0 -0.19390435884E+02 -0.27755935643E+02 -0.22492516344E+03  0.22745924935E+03  0.00000000000E+00 0. -1.
         -2    1    1    2    0  502  0.30224050704E+02 -0.17689888173E+02 -0.28513636646E+03  0.28727891127E+03  0.00000000000E+00 0.  1.
<mgrwt>
<rscale>  1 0.82875563E+02</rscale>
<asrwt>0</asrwt>
<pdfrwt beam="1">  1       21 0.52574446E-03 0.82875563E+02</pdfrwt>
<pdfrwt beam="2">  1       -1 0.15663218E+00 0.82875563E+02</pdfrwt>
<totfact> 0.30985487E+05</totfact>
</mgrwt>
</event>
<event>
 6    2  0.9453093E+000  0.9862552E+02  0.7546771E-02  0.1283213E+00
         -3   -1    0    0    0  501 -0.00000000000E+00  0.00000000000E+00  0.57213196937E+03  0.57213196937E+03  0.00000000000E+00 0.  1.
         21   -1    0    0  501  502  0.00000000000E+00 -0.00000000000E+00 -0.16390077511E+02  0.16390077511E+02  0.00000000000E+00 0.  1.
         24    2    1    2    0    0 -0.39918610070E+02 -0.33620979142E+02  0.15052308467E+03  0.17995608235E+03  0.83684687311E+02 0.  0.
        -13    1    3    3    0    0 -0.37098859038E+02 -0.85093687450E+01  0.13137210766E+02  0.40265630569E+02  0.00000000000E+00 0.  1.
         14    1    3    3    0    0 -0.28197510316E+01 -0.25111610396E+02  0.13738587390E+03  0.13969045179E+03  0.00000000000E+00 0. -1.
         -4    1    1    2    0  502  0.39918610070E+02  0.33620979142E+02  0.40521880719E+03  0.40856596453E+03  0.00000000000E+00 0.  1.
<mgrwt>
<rscale>  1 0.98625517E+02</rscale>
<asrwt>0</asrwt>
<pdfrwt beam="1">  1       21 0.25215508E-02 0.98625517E+02</pdfrwt>
<pdfrwt beam="2">  1       -3 0.88020288E-01 0.98625517E+02</pdfrwt>
<totfact> 0.47051051E+04</totfact>
</mgrwt>
</event>
<event>
 6    2  0.9453093E+000  0.1002861E+03  0.7546771E-02  0.1279695E+00
         21   -1    0    0  501  502  0.00000000000E+00  0.00000000000E+00  0.70751613136E+03  0.70751613136E+03  0.00000000000E+00 0.  1.
         -1   -1    0    0    0  501 -0.00000000000E+00 -0.00000000000E+00 -0.91309883146E+01  0.91309883146E+01  0.00000000000E+00 0.  1.
         24    2    1    2    0    0 -0.49687383725E+02 -0.34439024208E+02  0.43174142706E+03  0.44323579261E+03  0.80015158100E+02 0.  0.
        -11    1    3    3    0    0 -0.33224414886E+02 -0.60587780387E+02  0.31335397713E+03  0.32088230843E+03  0.00000000000E+00 0.  1.
         12    1    3    3    0    0 -0.16462968839E+02  0.26148756179E+02  0.11838744992E+03  0.12235348419E+03  0.00000000000E+00 0. -1.
         -2    1    1    2    0  502  0.49687383725E+02  0.34439024208E+02  0.26664371599E+03  0.27341132706E+03  0.00000000000E+00 0.  1.
<mgrwt>
<rscale>  1 0.10028613E+03</rscale>
<asrwt>0</asrwt>
<pdfrwt beam="1">  1       21 0.10884859E+00 0.10028613E+03</pdfrwt>
<pdfrwt beam="2">  1       -1 0.14047680E-02 0.10028613E+03</pdfrwt>
<totfact> 0.65763602E+04</totfact>
</mgrwt>
</event>
<event>
 6    2  0.9453093E+000  0.8289329E+02  0.7546771E-02  0.1321036E+00
          2   -1    0    0  502    0 -0.00000000000E+00  0.00000000000E+00  0.50200953748E+03  0.50200953748E+03  0.00000000000E+00 0. -1.
         21   -1    0    0  501  502  0.00000000000E+00 -0.00000000000E+00 -0.55589400771E+01  0.55589400771E+01  0.00000000000E+00 0.  1.
         24    2    1    2    0    0  0.20931405483E+02  0.64194402351E+01  0.41684269236E+03  0.42500485668E+03  0.79949765928E+02 0.  0.
        -11    1    3    3    0    0  0.79565101751E+01  0.19929600026E+02  0.25992911819E+02  0.33706475286E+02  0.00000000000E+00 0.  1.
         12    1    3    3    0    0  0.12974895308E+02 -0.13510159791E+02  0.39084978055E+03  0.39129838139E+03  0.00000000000E+00 0. -1.
          1    1    1    2  501    0 -0.20931405483E+02 -0.64194402351E+01  0.79607905041E+02  0.82563620883E+02  0.00000000000E+00 0. -1.
<mgrwt>
<rscale>  1 0.82893293E+02</rscale>
<asrwt>0</asrwt>
<pdfrwt beam="1">  1       21 0.85522194E-03 0.82893293E+02</pdfrwt>
<pdfrwt beam="2">  1        2 0.77232201E-01 0.82893293E+02</pdfrwt>
<totfact> 0.34011416E+06</totfact>
</mgrwt>
</event>
<event>
 6    2  0.9453093E+000  0.9140555E+02  0.7546771E-02  0.1299483E+00
          2   -1    0    0  502    0 -0.00000000000E+00  0.00000000000E+00  0.12830457881E+04  0.12830457881E+04  0.00000000000E+00 0. -1.
         21   -1    0    0  501  502  0.00000000000E+00 -0.00000000000E+00 -0.37140651681E+01  0.37140651681E+01  0.00000000000E+00 0. -1.
         24    2    1    2    0    0  0.35602967304E+02 -0.22959437122E+02  0.10086288338E+04  0.10127621138E+04  0.80995480116E+02 0.  0.
        -11    1    3    3    0    0 -0.99432518686E+01  0.22712922193E+02  0.38773244332E+03  0.38852437851E+03  0.00000000000E+00 0.  1.
         12    1    3    3    0    0  0.45546219172E+02 -0.45672359315E+02  0.62089639049E+03  0.62423773533E+03  0.00000000000E+00 0. -1.
          1    1    1    2  501    0 -0.35602967304E+02  0.22959437122E+02  0.27070288912E+03  0.27399773943E+03  0.00000000000E+00 0. -1.
<mgrwt>
<rscale>  1 0.91405551E+02</rscale>
<asrwt>0</asrwt>
<pdfrwt beam="1">  1       21 0.57139567E-03 0.91405551E+02</pdfrwt>
<pdfrwt beam="2">  1        2 0.19739131E+00 0.91405551E+02</pdfrwt>
<totfact> 0.19765122E+06</totfact>
</mgrwt>
</event>
<event>
 6    2  0.9453093E+000  0.9725454E+02  0.7546771E-02  0.1286178E+00
         21   -1    0    0  501  502  0.00000000000E+00  0.00000000000E+00  0.23330951297E+01  0.23330951297E+01  0.00000000000E+00 0.  1.
          2   -1    0    0  502    0 -0.00000000000E+00 -0.00000000000E+00 -0.27498921095E+04  0.27498921095E+04  0.00000000000E+00 0. -1.
         24    2    1    2    0    0  0.23703556188E+02 -0.45391419373E+02 -0.22348929422E+04  0.22370080261E+04  0.82681352657E+02 0.  0.
        -13    1    3    3    0    0  0.44813867677E+02 -0.55206095151E+02 -0.18855461664E+04  0.18868864145E+04  0.00000000000E+00 0.  1.
         14    1    3    3    0    0 -0.21110311490E+02  0.98146757781E+01 -0.34934677585E+03  0.35012161160E+03  0.00000000000E+00 0. -1.
          1    1    1    2  501    0 -0.23703556188E+02  0.45391419373E+02 -0.51266607216E+03  0.51521717855E+03  0.00000000000E+00 0. -1.
<mgrwt>
<rscale>  1 0.97254540E+02</rscale>
<asrwt>0</asrwt>
<pdfrwt beam="1">  1       21 0.35893926E-03 0.97254540E+02</pdfrwt>
<pdfrwt beam="2">  1        2 0.42305850E+00 0.97254540E+02</pdfrwt>
<totfact> 0.70952538E+05</totfact>
</mgrwt>
</event>
<event>
 6    2  0.9453093E+000  0.9197118E+02  0.7546771E-02  0.1298147E+00
         21   -1    0    0  501  502  0.00000000000E+00  0.00000000000E+00  0.20660262579E+01  0.20660262579E+01  0.00000000000E+00 0.  1.
          2   -1    0    0  502    0 -0.00000000000E+00 -0.00000000000E+00 -0.32313338589E+04  0.32313338589E+04  0.00000000000E+00 0. -1.
         24    2    1    2    0    0 -0.90732626960E+01  0.39112078196E+02 -0.29309014029E+04  0.29323440678E+04  0.82744303688E+02 0.  0.
        -11    1    3    3    0    0 -0.30025654436E+02  0.39125437779E+02 -0.91100586465E+03  0.91233986279E+03  0.00000000000E+00 0.  1.
         12    1    3    3    0    0  0.20952391740E+02 -0.13359582937E-01 -0.20198955382E+04  0.20200042050E+04  0.00000000000E+00 0. -1.
          1    1    1    2  501    0  0.90732626960E+01 -0.39112078196E+02 -0.29836642973E+03  0.30105581732E+03  0.00000000000E+00 0. -1.
<mgrwt>
<rscale>  1 0.91971183E+02</rscale>
<asrwt>0</asrwt>
<pdfrwt beam="1">  1       21 0.31785051E-03 0.91971183E+02</pdfrwt>
<pdfrwt beam="2">  1        2 0.49712779E+00 0.91971183E+02</pdfrwt>
<totfact> 0.45333341E+05</totfact>
</mgrwt>
</event>
<event>
 6    2  0.9453093E+000  0.9186979E+02  0.7546771E-02  0.1298386E+00
          4   -1    0    0  502    0 -0.00000000000E+00  0.00000000000E+00  0.39277497737E+02  0.39277497737E+02  0.00000000000E+00 0. -1.
         21   -1    0    0  501  502  0.00000000000E+00 -0.00000000000E+00 -0.22717020642E+03  0.22717020642E+03  0.00000000000E+00 0. -1.
         24    2    1    2    0    0  0.37475840745E+02  0.20241069046E+02 -0.21045167320E+02  0.94249441754E+02  0.81399746239E+02 0.  0.
        -13    1    3    3    0    0  0.50625328859E+01  0.11137903849E+02 -0.48990599676E+02  0.50495158163E+02  0.00000000000E+00 0.  1.
         14    1    3    3    0    0  0.32413307859E+02  0.91031651976E+01  0.27945432355E+02  0.43754283591E+02  0.00000000000E+00 0. -1.
          3    1    1    2  501    0 -0.37475840745E+02 -0.20241069046E+02 -0.16684754137E+03  0.17219826241E+03  0.00000000000E+00 0. -1.
<mgrwt>
<rscale>  1 0.91869789E+02</rscale>
<asrwt>0</asrwt>
<pdfrwt beam="1">  1       21 0.34949262E-01 0.91869789E+02</pdfrwt>
<pdfrwt beam="2">  1        4 0.60426921E-02 0.91869789E+02</pdfrwt>
<totfact> 0.53613195E+04</totfact>
</mgrwt>
</event>
<event>
 6    2  0.9453093E+000  0.9432954E+02  0.7546771E-02  0.1292693E+00
         21   -1    0    0  501  502  0.00000000000E+00  0.00000000000E+00  0.78731250751E+03  0.78731250751E+03  0.00000000000E+00 0. -1.
          2   -1    0    0  502    0 -0.00000000000E+00 -0.00000000000E+00 -0.77899416185E+01  0.77899416185E+01  0.00000000000E+00 0. -1.
         24    2    1    2    0    0 -0.61315504510E+01  0.51201249350E+02  0.34975269884E+03  0.36224993098E+03  0.78986696982E+02 0.  0.
        -13    1    3    3    0    0  0.32343563154E+01  0.50929592952E+01  0.26691401420E+03  0.26698219093E+03  0.00000000000E+00 0.  1.
         14    1    3    3    0    0 -0.93659067664E+01  0.46108290055E+02  0.82838684641E+02  0.95267740051E+02  0.00000000000E+00 0. -1.
          1    1    1    2  501    0  0.61315504510E+01 -0.51201249350E+02  0.42976986705E+03  0.43285251815E+03  0.00000000000E+00 0. -1.
<mgrwt>
<rscale>  1 0.94329540E+02</rscale>
<asrwt>0</asrwt>
<pdfrwt beam="1">  1       21 0.12112494E+00 0.94329540E+02</pdfrwt>
<pdfrwt beam="2">  1        2 0.11984532E-02 0.94329540E+02</pdfrwt>
<totfact> 0.67093152E+04</totfact>
</mgrwt>
</event>
<event>
 6    2  0.9453093E+000  0.1072911E+03  0.7546771E-02  0.1265670E+00
         21   -1    0    0  501  502  0.00000000000E+00  0.00000000000E+00  0.46836373279E+02  0.46836373279E+02  0.00000000000E+00 0. -1.
          2   -1    0    0  502    0 -0.00000000000E+00 -0.00000000000E+00 -0.61206353792E+03  0.61206353792E+03  0.00000000000E+00 0. -1.
         24    2    1    2    0    0  0.56803096494E+02  0.45306274276E+02 -0.57559172313E+03  0.58550594460E+03  0.78943835519E+02 0.  0.
        -11    1    3    3    0    0 -0.87461612898E+01 -0.10908714505E+02 -0.29701536650E+02  0.32827986061E+02  0.00000000000E+00 0.  1.
         12    1    3    3    0    0  0.65549257784E+02  0.56214988781E+02 -0.54589018648E+03  0.55267795854E+03  0.00000000000E+00 0. -1.
          1    1    1    2  501    0 -0.56803096494E+02 -0.45306274276E+02  0.10364558491E+02  0.73393966597E+02  0.00000000000E+00 0. -1.
<mgrwt>
<rscale>  1 0.10729110E+03</rscale>
<asrwt>0</asrwt>
<pdfrwt beam="1">  1       21 0.72055959E-02 0.10729110E+03</pdfrwt>
<pdfrwt beam="2">  1        2 0.94163621E-01 0.10729110E+03</pdfrwt>
<totfact> 0.88402186E+04</totfact>
</mgrwt>
</event>
<event>
 6    2  0.9453093E+000  0.8707101E+02  0.7546771E-02  0.1310104E+00
          2   -1    0    0  502    0 -0.00000000000E+00  0.00000000000E+00  0.73662097123E+02  0.73662097123E+02  0.00000000000E+00 0. -1.
         21   -1    0    0  501  502  0.00000000000E+00 -0.00000000000E+00 -0.49165906578E+02  0.49165906578E+02  0.00000000000E+00 0.  1.
         24    2    1    2    0    0  0.14447537939E+02  0.29072046331E+02  0.11368153868E+02  0.87810000084E+02  0.80792610813E+02 0.  0.
        -11    1    3    3    0    0 -0.82593854185E+00 -0.17214085591E+02 -0.22584628676E+02  0.28409019161E+02  0.00000000000E+00 0.  1.
         12    1    3    3    0    0  0.15273476481E+02  0.46286131922E+02  0.33952782545E+02  0.59400980923E+02  0.00000000000E+00 0. -1.
          1    1    1    2  501    0 -0.14447537939E+02 -0.29072046331E+02  0.13128036677E+02  0.35018003617E+02  0.00000000000E+00 0. -1.
<mgrwt>
<rscale>  1 0.87071012E+02</rscale>
<asrwt>0</asrwt>
<pdfrwt beam="1">  1       21 0.75639856E-02 0.87071012E+02</pdfrwt>
<pdfrwt beam="2">  1        2 0.11332630E-01 0.87071012E+02</pdfrwt>
<totfact> 0.81687590E+05</totfact>
</mgrwt>
</event>
<event>
 6    2  0.9453093E+000  0.9994219E+02  0.7546771E-02  0.1280418E+00
         -1   -1    0    0    0  501 -0.00000000000E+00  0.00000000000E+00  0.44876472424E+03  0.44876472424E+03  0.00000000000E+00 0.  1.
         21   -1    0    0  501  502  0.00000000000E+00 -0.00000000000E+00 -0.15168456060E+02  0.15168456060E+02  0.00000000000E+00 0. -1.
         24    2    1    2    0    0 -0.57693597460E+02  0.13439763060E+02  0.32761130115E+03  0.34251657660E+03  0.80493864253E+02 0.  0.
        -11    1    3    3    0    0  0.18295243424E+01 -0.68660538720E+01  0.20119298331E+03  0.20131842039E+03  0.00000000000E+00 0.  1.
         12    1    3    3    0    0 -0.59523121802E+02  0.20305816932E+02  0.12641831784E+03  0.14119815621E+03  0.00000000000E+00 0. -1.
         -2    1    1    2    0  502  0.57693597460E+02 -0.13439763060E+02  0.10598496703E+03  0.12141660371E+03  0.00000000000E+00 0.  1.
<mgrwt>
<rscale>  1 0.99942186E+02</rscale>
<asrwt>0</asrwt>
<pdfrwt beam="1">  1       21 0.23336090E-02 0.99942186E+02</pdfrwt>
<pdfrwt beam="2">  1       -1 0.69040717E-01 0.99942186E+02</pdfrwt>
<totfact> 0.18861517E+05</totfact>
</mgrwt>
</event>
<event>
 6    2  0.9453093E+000  0.8304760E+02  0.7546771E-02  0.1320619E+00
         21   -1    0    0  501  502  0.00000000000E+00  0.00000000000E+00  0.47697312801E+01  0.47697312801E+01  0.00000000000E+00 0. -1.
          2   -1    0    0  502    0 -0.00000000000E+00 -0.00000000000E+00 -0.60172890487E+03  0.60172890487E+03  0.00000000000E+00 0. -1.
         24    2    1    2    0    0 -0.19341344794E+02  0.10535895507E+02 -0.51398700427E+03  0.52065299797E+03  0.80073784887E+02 0.  0.
        -11    1    3    3    0    0  0.29824230392E+02  0.13350964076E+02 -0.16456080629E+03  0.16777363299E+03  0.00000000000E+00 0.  1.
         12    1    3    3    0    0 -0.49165575186E+02 -0.28150685689E+01 -0.34942619798E+03  0.35287936498E+03  0.00000000000E+00 0. -1.
          1    1    1    2  501    0  0.19341344794E+02 -0.10535895507E+02 -0.82972169322E+02  0.85845638181E+02  0.00000000000E+00 0. -1.
<mgrwt>
<rscale>  1 0.83047599E+02</rscale>
<asrwt>0</asrwt>
<pdfrwt beam="1">  1       21 0.73380491E-03 0.83047599E+02</pdfrwt>
<pdfrwt beam="2">  1        2 0.92573665E-01 0.83047599E+02</pdfrwt>
<totfact> 0.35366144E+06</totfact>
</mgrwt>
</event>
<event>
 6    2  0.9453093E+000  0.1190867E+03  0.7546771E-02  0.1244611E+00
         21   -1    0    0  501  502  0.00000000000E+00  0.00000000000E+00  0.34458888370E+02  0.34458888370E+02  0.00000000000E+00 0.  1.
         -1   -1    0    0    0  501 -0.00000000000E+00 -0.00000000000E+00 -0.90285510672E+03  0.90285510672E+03  0.00000000000E+00 0.  1.
         24    2    1    2    0    0  0.73851923952E+02 -0.48559963670E+02 -0.83401799092E+03  0.84247708632E+03  0.79808865846E+02 0.  0.
        -11    1    3    3    0    0  0.79621764011E+02 -0.63685208674E+02 -0.75162940114E+03  0.75851314278E+03  0.00000000000E+00 0.  1.
         12    1    3    3    0    0 -0.57698400596E+01  0.15125245003E+02 -0.82388589776E+02  0.83963943547E+02  0.00000000000E+00 0. -1.
         -2    1    1    2    0  502 -0.73851923952E+02  0.48559963670E+02 -0.34378227437E+02  0.94836908768E+02  0.00000000000E+00 0.  1.
<mgrwt>
<rscale>  1 0.11908666E+03</rscale>
<asrwt>0</asrwt>
<pdfrwt beam="1">  1       21 0.53013685E-02 0.11908666E+03</pdfrwt>
<pdfrwt beam="2">  1       -1 0.13890076E+00 0.11908666E+03</pdfrwt>
<totfact> 0.10668071E+04</totfact>
</mgrwt>
</event>
<event>
 6    2  0.9453093E+000  0.8254294E+02  0.7546771E-02  0.1321986E+00
         -3   -1    0    0    0  501 -0.00000000000E+00  0.00000000000E+00  0.14003266210E+02  0.14003266210E+02  0.00000000000E+00 0.  1.
         21   -1    0    0  501  502  0.00000000000E+00 -0.00000000000E+00 -0.19654921284E+03  0.19654921284E+03  0.00000000000E+00 0. -1.
         24    2    1    2    0    0  0.13165542625E+02 -0.17990687497E+02 -0.14009006637E+03  0.16259939659E+03  0.79475409565E+02 0.  0.
        -13    1    3    3    0    0 -0.94303052393E+01 -0.44404524572E+02 -0.59556169655E+02  0.74884109151E+02  0.00000000000E+00 0.  1.
         14    1    3    3    0    0  0.22595847865E+02  0.26413837075E+02 -0.80533896714E+02  0.87715287435E+02  0.00000000000E+00 0. -1.
         -4    1    1    2    0  502 -0.13165542625E+02  0.17990687497E+02 -0.42455880265E+02  0.47953082469E+02  0.00000000000E+00 0.  1.
<mgrwt>
<rscale>  1 0.82542941E+02</rscale>
<asrwt>0</asrwt>
<pdfrwt beam="1">  1       21 0.30238341E-01 0.82542941E+02</pdfrwt>
<pdfrwt beam="2">  1       -3 0.21543486E-02 0.82542941E+02</pdfrwt>
<totfact> 0.39043051E+05</totfact>
</mgrwt>
</event>
<event>
 6    2  0.9453093E+000  0.1108477E+03  0.7546771E-02  0.1259008E+00
          2   -1    0    0  502    0 -0.00000000000E+00  0.00000000000E+00  0.97948356508E+03  0.97948356508E+03  0.00000000000E+00 0. -1.
         21   -1    0    0  501  502  0.00000000000E+00 -0.00000000000E+00 -0.90467053302E+01  0.90467053302E+01  0.00000000000E+00 0.  1.
         24    2    1    2    0    0  0.40665824175E+01 -0.77183256401E+02  0.58963726859E+03  0.59996609194E+03  0.79456974576E+02 0.  0.
        -11    1    3    3    0    0  0.11216169364E+02 -0.92902950621E+02  0.49690131017E+03  0.50563590927E+03  0.00000000000E+00 0.  1.
         12    1    3    3    0    0 -0.71495869466E+01  0.15719694220E+02  0.92735958414E+02  0.94330182671E+02  0.00000000000E+00 0. -1.
          1    1    1    2  501    0 -0.40665824175E+01  0.77183256401E+02  0.38079959116E+03  0.38856417847E+03  0.00000000000E+00 0. -1.
<mgrwt>
<rscale>  1 0.11084766E+03</rscale>
<asrwt>0</asrwt>
<pdfrwt beam="1">  1       21 0.13918016E-02 0.11084766E+03</pdfrwt>
<pdfrwt beam="2">  1        2 0.15068970E+00 0.11084766E+03</pdfrwt>
<totfact> 0.73835193E+05</totfact>
</mgrwt>
</event>
<event>
 6    2  0.9453093E+000  0.8062100E+02  0.7546771E-02  0.1327298E+00
         21   -1    0    0  501  502  0.00000000000E+00  0.00000000000E+00  0.17159201951E+03  0.17159201951E+03  0.00000000000E+00 0.  1.
         -3   -1    0    0    0  501 -0.00000000000E+00 -0.00000000000E+00 -0.57094208784E+02  0.57094208784E+02  0.00000000000E+00 0.  1.
         24    2    1    2    0    0  0.25830778853E+02 -0.56206323113E+01 -0.26783123520E+02  0.84953410104E+02  0.76163807278E+02 0.  0.
        -11    1    3    3    0    0  0.31639915801E+02  0.29161631430E+02 -0.24731037218E+02  0.49629721151E+02  0.00000000000E+00 0.  1.
         12    1    3    3    0    0 -0.58091369488E+01 -0.34782263741E+02 -0.20520863018E+01  0.35323688953E+02  0.00000000000E+00 0. -1.
         -4    1    1    2    0  502 -0.25830778853E+02  0.56206323113E+01  0.14128093425E+03  0.14373281819E+03  0.00000000000E+00 0.  1.
<mgrwt>
<rscale>  1 0.80621003E+02</rscale>
<asrwt>0</asrwt>
<pdfrwt beam="1">  1       21 0.26398772E-01 0.80621003E+02</pdfrwt>
<pdfrwt beam="2">  1       -3 0.87837245E-02 0.80621003E+02</pdfrwt>
<totfact> 0.56483901E+04</totfact>
</mgrwt>
</event>
<event>
 6    2  0.9453093E+000  0.8651694E+02  0.7546771E-02  0.1311513E+00
         -3   -1    0    0    0  501 -0.00000000000E+00  0.00000000000E+00  0.15873919070E+02  0.15873919070E+02  0.00000000000E+00 0.  1.
         21   -1    0    0  501  502  0.00000000000E+00 -0.00000000000E+00 -0.22301778853E+03  0.22301778853E+03  0.00000000000E+00 0.  1.
         24    2    1    2    0    0 -0.29985404701E+02  0.11382538130E+02 -0.14200194511E+03  0.16628208718E+03  0.80352308200E+02 0.  0.
        -13    1    3    3    0    0 -0.50008246553E+02  0.24996803543E+02 -0.65895710920E+02  0.86417067922E+02  0.00000000000E+00 0.  1.
         14    1    3    3    0    0  0.20022841853E+02 -0.13614265413E+02 -0.76106234194E+02  0.79865019262E+02  0.00000000000E+00 0. -1.
         -4    1    1    2    0  502  0.29985404701E+02 -0.11382538130E+02 -0.65141924345E+02  0.72609620415E+02  0.00000000000E+00 0.  1.
<mgrwt>
<rscale>  1 0.86516935E+02</rscale>
<asrwt>0</asrwt>
<pdfrwt beam="1">  1       21 0.34310427E-01 0.86516935E+02</pdfrwt>
<pdfrwt beam="2">  1       -3 0.24421415E-02 0.86516935E+02</pdfrwt>
<totfact> 0.25520643E+05</totfact>
</mgrwt>
</event>
<event>
 6    2  0.9453093E+000  0.8636491E+02  0.7546771E-02  0.1311901E+00
         -3   -1    0    0    0  501 -0.00000000000E+00  0.00000000000E+00  0.34469942174E+02  0.34469942174E+02  0.00000000000E+00 0.  1.
         21   -1    0    0  501  502  0.00000000000E+00 -0.00000000000E+00 -0.63817014198E+03  0.63817014198E+03  0.00000000000E+00 0.  1.
         24    2    1    2    0    0  0.30160493947E+02  0.19915767502E+02 -0.21080516580E+02  0.88900426026E+02  0.78438538857E+02 0.  0.
        -11    1    3    3    0    0  0.23157228198E+02  0.42655474737E+02  0.10202648555E+02  0.49596781956E+02  0.00000000000E+00 0.  1.
         12    1    3    3    0    0  0.70032657490E+01 -0.22739707236E+02 -0.31283165135E+02  0.39303644070E+02  0.00000000000E+00 0. -1.
         -4    1    1    2    0  502 -0.30160493947E+02 -0.19915767502E+02 -0.58261968323E+03  0.58373965813E+03  0.00000000000E+00 0.  1.
<mgrwt>
<rscale>  1 0.86364909E+02</rscale>
<asrwt>0</asrwt>
<pdfrwt beam="1">  1       21 0.98180008E-01 0.86364909E+02</pdfrwt>
<pdfrwt beam="2">  1       -3 0.53030688E-02 0.86364909E+02</pdfrwt>
<totfact> 0.85109420E+03</totfact>
</mgrwt>
</event>
<event>
 6    2  0.9453093E+000  0.8299481E+02  0.7546771E-02  0.1320761E+00
          2   -1    0    0  502    0 -0.00000000000E+00  0.00000000000E+00  0.49238232135E+03  0.49238232135E+03  0.00000000000E+00 0. -1.
         21   -1    0    0  501  502  0.00000000000E+00 -0.00000000000E+00 -0.57104428023E+01  0.57104428023E+01  0.00000000000E+00 0.  1.
         24    2    1    2    0    0  0.18394874763E+02 -0.97473340889E+01  0.34175476647E+03  0.35168801248E+03  0.80341494744E+02 0.  0.
        -11    1    3    3    0    0  0.23863117106E+02 -0.34505705611E+02  0.97793355751E+02  0.10641255803E+03  0.00000000000E+00 0.  1.
         12    1    3    3    0    0 -0.54682423436E+01  0.24758371523E+02  0.24396141072E+03  0.24527545445E+03  0.00000000000E+00 0. -1.
          1    1    1    2  501    0 -0.18394874763E+02  0.97473340889E+01  0.14491711207E+03  0.14640475167E+03  0.00000000000E+00 0. -1.
<mgrwt>
<rscale>  1 0.82994805E+02</rscale>
<asrwt>0</asrwt>
<pdfrwt beam="1">  1       21 0.87853005E-03 0.82994805E+02</pdfrwt>
<pdfrwt beam="2">  1        2 0.75751093E-01 0.82994805E+02</pdfrwt>
<totfact> 0.33312383E+06</totfact>
</mgrwt>
</event>
<event>
 6    2  0.9453093E+000  0.9029093E+02  0.7546771E-02  0.1302149E+00
          2   -1    0    0  502    0 -0.00000000000E+00  0.00000000000E+00  0.10506683814E+04  0.10506683814E+04  0.00000000000E+00 0. -1.
         21   -1    0    0  501  502  0.00000000000E+00 -0.00000000000E+00 -0.16275783373E+02  0.16275783373E+02  0.00000000000E+00 0. -1.
         24    2    1    2    0    0  0.17396478545E+02  0.11607539658E+02  0.10410796031E+04  0.10449876515E+04  0.87835523436E+02 0.  0.
        -11    1    3    3    0    0  0.24393258435E+02  0.36467979856E+02  0.27542563930E+03  0.27889823842E+03  0.00000000000E+00 0.  1.
         12    1    3    3    0    0 -0.69967798902E+01 -0.24860440198E+02  0.76565396383E+03  0.76608941303E+03  0.00000000000E+00 0. -1.
          1    1    1    2  501    0 -0.17396478545E+02 -0.11607539658E+02 -0.66870050601E+01  0.21956513370E+02  0.00000000000E+00 0. -1.
<mgrwt>
<rscale>  1 0.90290928E+02</rscale>
<asrwt>0</asrwt>
<pdfrwt beam="1">  1       21 0.25039675E-02 0.90290928E+02</pdfrwt>
<pdfrwt beam="2">  1        2 0.16164124E+00 0.90290928E+02</pdfrwt>
<totfact> 0.25927654E+05</totfact>
</mgrwt>
</event>
<event>
 6    2  0.9453093E+000  0.8205041E+02  0.7546771E-02  0.1323331E+00
          2   -1    0    0  502    0 -0.00000000000E+00  0.00000000000E+00  0.15532619549E+04  0.15532619549E+04  0.00000000000E+00 0. -1.
         21   -1    0    0  501  502  0.00000000000E+00 -0.00000000000E+00 -0.15959815813E+02  0.15959815813E+02  0.00000000000E+00 0. -1.
         24    2    1    2    0    0  0.19613970993E+02 -0.62835838164E+01  0.15450423239E+04  0.15472194585E+04  0.79423413748E+02 0.  0.
        -13    1    3    3    0    0  0.14235150255E+02 -0.35602101255E+02  0.41079128058E+03  0.41257681141E+03  0.00000000000E+00 0.  1.
         14    1    3    3    0    0  0.53788207379E+01  0.29318517439E+02  0.11342510434E+04  0.11346426471E+04  0.00000000000E+00 0. -1.
          1    1    1    2  501    0 -0.19613970993E+02  0.62835838164E+01 -0.77401848246E+01  0.22002312261E+02  0.00000000000E+00 0. -1.
<mgrwt>
<rscale>  1 0.82050411E+02</rscale>
<asrwt>0</asrwt>
<pdfrwt beam="1">  1       21 0.24553575E-02 0.82050411E+02</pdfrwt>
<pdfrwt beam="2">  1        2 0.23896326E+00 0.82050411E+02</pdfrwt>
<totfact> 0.14430642E+05</totfact>
</mgrwt>
</event>
<event>
 6    2  0.9453093E+000  0.8296316E+02  0.7546771E-02  0.1320847E+00
         21   -1    0    0  501  502  0.00000000000E+00  0.00000000000E+00  0.49565185079E+01  0.49565185079E+01  0.00000000000E+00 0. -1.
          2   -1    0    0  502    0 -0.00000000000E+00 -0.00000000000E+00 -0.65132466751E+03  0.65132466751E+03  0.00000000000E+00 0. -1.
         24    2    1    2    0    0  0.12584881837E+02  0.17450177928E+02 -0.37529612489E+03  0.38435669243E+03  0.80124888096E+02 0.  0.
        -11    1    3    3    0    0 -0.24107003297E+02  0.34720233689E+02 -0.18030791274E+03  0.18519607348E+03  0.00000000000E+00 0.  1.
         12    1    3    3    0    0  0.36691885135E+02 -0.17270055761E+02 -0.19498821215E+03  0.19916061895E+03  0.00000000000E+00 0. -1.
          1    1    1    2  501    0 -0.12584881837E+02 -0.17450177928E+02 -0.27107202410E+03  0.27192449359E+03  0.00000000000E+00 0. -1.
<mgrwt>
<rscale>  1 0.82963158E+02</rscale>
<asrwt>0</asrwt>
<pdfrwt beam="1">  1       21 0.76254157E-03 0.82963158E+02</pdfrwt>
<pdfrwt beam="2">  1        2 0.10020376E+00 0.82963158E+02</pdfrwt>
<totfact> 0.30478569E+06</totfact>
</mgrwt>
</event>
<event>
 6    2  0.9453093E+000  0.8105247E+02  0.7546771E-02  0.1326091E+00
          2   -1    0    0  502    0 -0.00000000000E+00  0.00000000000E+00  0.12327651442E+04  0.12327651442E+04  0.00000000000E+00 0. -1.
         21   -1    0    0  501  502  0.00000000000E+00 -0.00000000000E+00 -0.74800119268E+01  0.74800119268E+01  0.00000000000E+00 0. -1.
         24    2    1    2    0    0  0.19639434784E+02 -0.45272190641E+01  0.12148474321E+04  0.12175482688E+04  0.78506690136E+02 0.  0.
        -13    1    3    3    0    0 -0.20875431879E+02 -0.33680332877E+01  0.11335524460E+03  0.11531061869E+03  0.00000000000E+00 0.  1.
         14    1    3    3    0    0  0.40514866663E+02 -0.11591857764E+01  0.11014921875E+04  0.11022376501E+04  0.00000000000E+00 0. -1.
          1    1    1    2  501    0 -0.19639434784E+02  0.45272190641E+01  0.10437700188E+02  0.22696887370E+02  0.00000000000E+00 0. -1.
<mgrwt>
<rscale>  1 0.81052474E+02</rscale>
<asrwt>0</asrwt>
<pdfrwt beam="1">  1       21 0.11507720E-02 0.81052474E+02</pdfrwt>
<pdfrwt beam="2">  1        2 0.18965601E+00 0.81052474E+02</pdfrwt>
<totfact> 0.70302422E+05</totfact>
</mgrwt>
</event>
<event>
 6    2  0.9453093E+000  0.8541633E+02  0.7546771E-02  0.1314347E+00
          2   -1    0    0  502    0 -0.00000000000E+00  0.00000000000E+00  0.92688336666E+02  0.92688336666E+02  0.00000000000E+00 0. -1.
         21   -1    0    0  501  502  0.00000000000E+00 -0.00000000000E+00 -0.25220992090E+03  0.25220992090E+03  0.00000000000E+00 0. -1.
         24    2    1    2    0    0  0.17314760046E+02 -0.22170856684E+02  0.71975704597E+02  0.11169803772E+03  0.80651111438E+02 0.  0.
        -11    1    3    3    0    0 -0.14809478655E+01  0.86799156002E+01 -0.15069856819E+02  0.17453788298E+02  0.00000000000E+00 0.  1.
         12    1    3    3    0    0  0.18795707911E+02 -0.30850772284E+02  0.87045561416E+02  0.94244249419E+02  0.00000000000E+00 0. -1.
          1    1    1    2  501    0 -0.17314760046E+02  0.22170856684E+02 -0.23149728883E+03  0.23320021985E+03  0.00000000000E+00 0. -1.
<mgrwt>
<rscale>  1 0.85416331E+02</rscale>
<asrwt>0</asrwt>
<pdfrwt beam="1">  1       21 0.38801526E-01 0.85416331E+02</pdfrwt>
<pdfrwt beam="2">  1        2 0.14259744E-01 0.85416331E+02</pdfrwt>
<totfact> 0.32111714E+04</totfact>
</mgrwt>
</event>
<event>
 6    2  0.1087890E+001  0.8574019E+02  0.7546771E-02  0.1313508E+00
         21   -1    0    0  501  502  0.00000000000E+00  0.00000000000E+00  0.11099983733E+02  0.11099983733E+02  0.00000000000E+00 0.  1.
         -1   -1    0    0    0  501 -0.00000000000E+00 -0.00000000000E+00 -0.45933715914E+03  0.45933715914E+03  0.00000000000E+00 0.  1.
         24    2    1    2    0    0  0.28722187400E+02 -0.19326164187E+02 -0.40994728257E+03  0.41881756747E+03  0.78440523099E+02 0.  0.
        -13    1    3    3    0    0  0.33341167168E+02 -0.23114773167E+02 -0.41078641097E+03  0.41278493384E+03  0.00000000000E+00 0.  1.
         14    1    3    3    0    0 -0.46189797678E+01  0.37886089792E+01  0.83912839779E+00  0.60326336339E+01  0.00000000000E+00 0. -1.
         -2    1    1    2    0  502 -0.28722187400E+02  0.19326164187E+02 -0.38289892836E+02  0.51619575402E+02  0.00000000000E+00 0.  1.
<mgrwt>
<rscale>  1 0.85740191E+02</rscale>
<asrwt>0</asrwt>
<pdfrwt beam="1">  1       21 0.17076897E-02 0.85740191E+02</pdfrwt>
<pdfrwt beam="2">  1       -1 0.70667261E-01 0.85740191E+02</pdfrwt>
<totfact> 0.29334303E+05</totfact>
</mgrwt>
</event>
<event>
 6    2  0.9453093E+000  0.8830064E+02  0.7546771E-02  0.1307020E+00
         21   -1    0    0  501  502  0.00000000000E+00  0.00000000000E+00  0.38214615714E+01  0.38214615714E+01  0.00000000000E+00 0. -1.
          2   -1    0    0  502    0 -0.00000000000E+00 -0.00000000000E+00 -0.13582229983E+04  0.13582229983E+04  0.00000000000E+00 0. -1.
         24    2    1    2    0    0 -0.85256765612E+01  0.36375309247E+02 -0.11977020949E+04  0.12009526682E+04  0.80007204511E+02 0.  0.
        -13    1    3    3    0    0 -0.32517142284E+02 -0.63486788563E+01 -0.28181892973E+03  0.28375972127E+03  0.00000000000E+00 0.  1.
         14    1    3    3    0    0  0.23991465723E+02  0.42723988104E+02 -0.91588316522E+03  0.91719294694E+03  0.00000000000E+00 0. -1.
          1    1    1    2  501    0  0.85256765612E+01 -0.36375309247E+02 -0.15669944177E+03  0.16109179164E+03  0.00000000000E+00 0. -1.
<mgrwt>
<rscale>  1 0.88300640E+02</rscale>
<asrwt>0</asrwt>
<pdfrwt beam="1">  1       21 0.58791673E-03 0.88300640E+02</pdfrwt>
<pdfrwt beam="2">  1        2 0.20895754E+00 0.88300640E+02</pdfrwt>
<totfact> 0.17220215E+06</totfact>
</mgrwt>
</event>
<event>
 6    2  0.9453093E+000  0.9409908E+02  0.7546771E-02  0.1293218E+00
         21   -1    0    0  501  502  0.00000000000E+00  0.00000000000E+00  0.44516186170E+03  0.44516186170E+03  0.00000000000E+00 0. -1.
         -3   -1    0    0    0  501 -0.00000000000E+00 -0.00000000000E+00 -0.11416633955E+02  0.11416633955E+02  0.00000000000E+00 0.  1.
         24    2    1    2    0    0  0.41515167017E+02  0.24639328719E+02  0.29804250384E+03  0.31254435078E+03  0.80771477034E+02 0.  0.
        -13    1    3    3    0    0  0.41373211584E+02  0.24705810897E+02  0.72812300972E+02  0.87314093374E+02  0.00000000000E+00 0.  1.
         14    1    3    3    0    0  0.14195543362E+00 -0.66482177307E-01  0.22523020286E+03  0.22523025741E+03  0.00000000000E+00 0. -1.
         -4    1    1    2    0  502 -0.41515167017E+02 -0.24639328719E+02  0.13570272391E+03  0.14403414487E+03  0.00000000000E+00 0.  1.
<mgrwt>
<rscale>  1 0.94099081E+02</rscale>
<asrwt>0</asrwt>
<pdfrwt beam="1">  1       21 0.68486427E-01 0.94099081E+02</pdfrwt>
<pdfrwt beam="2">  1       -3 0.17564056E-02 0.94099081E+02</pdfrwt>
<totfact> 0.10391391E+05</totfact>
</mgrwt>
</event>
<event>
 6    2  0.9453093E+000  0.9845664E+02  0.7546771E-02  0.1283575E+00
         21   -1    0    0  501  502  0.00000000000E+00  0.00000000000E+00  0.24848521372E+02  0.24848521372E+02  0.00000000000E+00 0. -1.
          2   -1    0    0  502    0 -0.00000000000E+00 -0.00000000000E+00 -0.30423165133E+03  0.30423165133E+03  0.00000000000E+00 0. -1.
         24    2    1    2    0    0  0.25597275394E+02 -0.48586301967E+02 -0.24561085035E+03  0.26460989958E+03  0.81718173618E+02 0.  0.
        -11    1    3    3    0    0 -0.18163271637E+02 -0.20245072306E+01 -0.10730579638E+02  0.21193121654E+02  0.00000000000E+00 0.  1.
         12    1    3    3    0    0  0.43760547031E+02 -0.46561794736E+02 -0.23488027072E+03  0.24341677793E+03  0.00000000000E+00 0. -1.
          1    1    1    2  501    0 -0.25597275394E+02  0.48586301967E+02 -0.33772279605E+02  0.64470273119E+02  0.00000000000E+00 0. -1.
<mgrwt>
<rscale>  1 0.98456636E+02</rscale>
<asrwt>0</asrwt>
<pdfrwt beam="1">  1       21 0.38228495E-02 0.98456636E+02</pdfrwt>
<pdfrwt beam="2">  1        2 0.46804869E-01 0.98456636E+02</pdfrwt>
<totfact> 0.53879942E+05</totfact>
</mgrwt>
</event>
<event>
 6    2  0.9453093E+000  0.8175526E+02  0.7546771E-02  0.1324143E+00
          2   -1    0    0  502    0 -0.00000000000E+00  0.00000000000E+00  0.13120370689E+04  0.13120370689E+04  0.00000000000E+00 0. -1.
         21   -1    0    0  501  502  0.00000000000E+00 -0.00000000000E+00 -0.40061952020E+01  0.40061952020E+01  0.00000000000E+00 0.  1.
         24    2    1    2    0    0  0.24584165869E+02 -0.65496496702E+01  0.12501170067E+04  0.12527874729E+04  0.77695835432E+02 0.  0.
        -11    1    3    3    0    0  0.11731571330E+02 -0.40728436824E+02  0.50468332162E+03  0.50645995938E+03  0.00000000000E+00 0.  1.
         12    1    3    3    0    0  0.12852594539E+02  0.34178787154E+02  0.74543368506E+03  0.74632751356E+03  0.00000000000E+00 0. -1.
          1    1    1    2  501    0 -0.24584165869E+02  0.65496496702E+01  0.57913866994E+02  0.63255791138E+02  0.00000000000E+00 0. -1.
<mgrwt>
<rscale>  1 0.81755257E+02</rscale>
<asrwt>0</asrwt>
<pdfrwt beam="1">  1       21 0.61633877E-03 0.81755257E+02</pdfrwt>
<pdfrwt beam="2">  1        2 0.20185151E+00 0.81755257E+02</pdfrwt>
<totfact> 0.16822678E+06</totfact>
</mgrwt>
</event>
<event>
 6    2  0.9453093E+000  0.8895283E+02  0.7546771E-02  0.1305408E+00
         21   -1    0    0  501  502  0.00000000000E+00  0.00000000000E+00  0.60344741034E+01  0.60344741034E+01  0.00000000000E+00 0. -1.
          2   -1    0    0  502    0 -0.00000000000E+00 -0.00000000000E+00 -0.10438499917E+04  0.10438499917E+04  0.00000000000E+00 0. -1.
         24    2    1    2    0    0  0.32474053342E+02  0.12007893805E+02 -0.96674701977E+03  0.97083078128E+03  0.81938098443E+02 0.  0.
        -13    1    3    3    0    0 -0.27186350481E+02  0.10837016391E+02 -0.32634337102E+03  0.32765307016E+03  0.00000000000E+00 0.  1.
         14    1    3    3    0    0  0.59660403824E+02  0.11708774138E+01 -0.64040364875E+03  0.64317771111E+03  0.00000000000E+00 0. -1.
          1    1    1    2  501    0 -0.32474053342E+02 -0.12007893805E+02 -0.71068497789E+02  0.79053684494E+02  0.00000000000E+00 0. -1.
<mgrwt>
<rscale>  1 0.88952828E+02</rscale>
<asrwt>0</asrwt>
<pdfrwt beam="1">  1       21 0.92837952E-03 0.88952828E+02</pdfrwt>
<pdfrwt beam="2">  1        2 0.16059250E+00 0.88952828E+02</pdfrwt>
<totfact> 0.12593236E+06</totfact>
</mgrwt>
</event>
<event>
 6    2  0.9453093E+000  0.8253014E+02  0.7546771E-02  0.1322021E+00
         21   -1    0    0  501  502  0.00000000000E+00  0.00000000000E+00  0.47908330154E+02  0.47908330154E+02  0.00000000000E+00 0. -1.
         -3   -1    0    0    0  501 -0.00000000000E+00 -0.00000000000E+00 -0.11923214640E+03  0.11923214640E+03  0.00000000000E+00 0.  1.
         24    2    1    2    0    0 -0.18297049886E+02 -0.38292724695E+02  0.18491888273E+01  0.82550858571E+02  0.70782130176E+02 0.  0.
        -13    1    3    3    0    0  0.21283747430E+02 -0.38188486567E+00 -0.14023381722E+02  0.25491154851E+02  0.00000000000E+00 0.  1.
         14    1    3    3    0    0 -0.39580797316E+02 -0.37910839830E+02  0.15872570549E+02  0.57059703720E+02  0.00000000000E+00 0. -1.
         -4    1    1    2    0  502  0.18297049886E+02  0.38292724695E+02 -0.73173005078E+02  0.84589617987E+02  0.00000000000E+00 0.  1.
<mgrwt>
<rscale>  1 0.82530145E+02</rscale>
<asrwt>0</asrwt>
<pdfrwt beam="1">  1       21 0.73705123E-02 0.82530145E+02</pdfrwt>
<pdfrwt beam="2">  1       -3 0.18343407E-01 0.82530145E+02</pdfrwt>
<totfact> 0.15992149E+05</totfact>
</mgrwt>
</event>
<event>
 6    2  0.9453093E+000  0.9942974E+02  0.7546771E-02  0.1281500E+00
         21   -1    0    0  501  502  0.00000000000E+00  0.00000000000E+00  0.42265790637E+01  0.42265790637E+01  0.00000000000E+00 0. -1.
          2   -1    0    0  502    0 -0.00000000000E+00 -0.00000000000E+00 -0.14888628725E+04  0.14888628725E+04  0.00000000000E+00 0. -1.
         24    2    1    2    0    0 -0.58297678380E+02 -0.72844380059E+01 -0.98778940254E+03  0.99278103135E+03  0.80215896800E+02 0.  0.
        -11    1    3    3    0    0 -0.76549745157E+01 -0.96375131934E+00 -0.62867686948E+01  0.99524324697E+01  0.00000000000E+00 0.  1.
         12    1    3    3    0    0 -0.50642703864E+02 -0.63206866865E+01 -0.98150263385E+03  0.98282859888E+03  0.00000000000E+00 0. -1.
          1    1    1    2  501    0  0.58297678380E+02  0.72844380059E+01 -0.49684689085E+03  0.50030842017E+03  0.00000000000E+00 0. -1.
<mgrwt>
<rscale>  1 0.99429736E+02</rscale>
<asrwt>0</asrwt>
<pdfrwt beam="1">  1       21 0.65024387E-03 0.99429736E+02</pdfrwt>
<pdfrwt beam="2">  1        2 0.22905550E+00 0.99429736E+02</pdfrwt>
<totfact> 0.12725380E+06</totfact>
</mgrwt>
</event>
<event>
 6    2  0.1242765E+001  0.9954349E+02  0.7546771E-02  0.1281259E+00
         -1   -1    0    0    0  501 -0.00000000000E+00  0.00000000000E+00  0.66081120349E+03  0.66081120349E+03  0.00000000000E+00 0.  1.
         21   -1    0    0  501  502  0.00000000000E+00 -0.00000000000E+00 -0.76399982648E+01  0.76399982648E+01  0.00000000000E+00 0. -1.
         24    2    1    2    0    0 -0.19125605010E+02 -0.17632672122E+02  0.60984312699E+03  0.61791386648E+03  0.96084374165E+02 0.  0.
        -13    1    3    3    0    0 -0.45439396713E+02 -0.21825549982E+02  0.55120917816E+03  0.55350939603E+03  0.00000000000E+00 0.  1.
         14    1    3    3    0    0  0.26313791703E+02  0.41928778593E+01  0.58633948824E+02  0.64404470445E+02  0.00000000000E+00 0. -1.
         -2    1    1    2    0  502  0.19125605010E+02  0.17632672122E+02  0.43328078241E+02  0.50537335280E+02  0.00000000000E+00 0.  1.
<mgrwt>
<rscale>  1 0.99543492E+02</rscale>
<asrwt>0</asrwt>
<pdfrwt beam="1">  1       21 0.11753849E-02 0.99543492E+02</pdfrwt>
<pdfrwt beam="2">  1       -1 0.10166322E+00 0.99543492E+02</pdfrwt>
<totfact> 0.25304556E+05</totfact>
</mgrwt>
</event>
<event>
 6    2  0.9453093E+000  0.9402867E+02  0.7546771E-02  0.1293379E+00
         21   -1    0    0  501  502  0.00000000000E+00  0.00000000000E+00  0.50420273220E+02  0.50420273220E+02  0.00000000000E+00 0. -1.
         -1   -1    0    0    0  501 -0.00000000000E+00 -0.00000000000E+00 -0.10207447667E+03  0.10207447667E+03  0.00000000000E+00 0.  1.
         24    2    1    2    0    0 -0.77137306356E+01  0.48845641508E+02 -0.33998214292E+02  0.99986347824E+02  0.79974951338E+02 0.  0.
        -11    1    3    3    0    0  0.33334203275E+02  0.10789477779E+02 -0.25581707246E+02  0.43382089442E+02  0.00000000000E+00 0.  1.
         12    1    3    3    0    0 -0.41047933911E+02  0.38056163729E+02 -0.84165070459E+01  0.56604258382E+02  0.00000000000E+00 0. -1.
         -2    1    1    2    0  502  0.77137306356E+01 -0.48845641508E+02 -0.17655989163E+02  0.52508402070E+02  0.00000000000E+00 0.  1.
<mgrwt>
<rscale>  1 0.94028672E+02</rscale>
<asrwt>0</asrwt>
<pdfrwt beam="1">  1       21 0.77569651E-02 0.94028672E+02</pdfrwt>
<pdfrwt beam="2">  1       -1 0.15703766E-01 0.94028672E+02</pdfrwt>
<totfact> 0.32202193E+05</totfact>
</mgrwt>
</event>
<event>
 6    2  0.9453093E+000  0.1234510E+03  0.7546771E-02  0.1237510E+00
         21   -1    0    0  501  502  0.00000000000E+00  0.00000000000E+00  0.15731623290E+02  0.15731623290E+02  0.00000000000E+00 0. -1.
          2   -1    0    0  502    0 -0.00000000000E+00 -0.00000000000E+00 -0.76359428190E+03  0.76359428190E+03  0.00000000000E+00 0. -1.
         24    2    1    2    0    0 -0.92413164751E+02  0.20272235632E+02 -0.38348991709E+03  0.40287052759E+03  0.79303145834E+02 0.  0.
        -11    1    3    3    0    0 -0.22399577216E+01 -0.23138914185E+02 -0.65429906312E+02  0.69437017507E+02  0.00000000000E+00 0.  1.
         12    1    3    3    0    0 -0.90173207029E+02  0.43411149817E+02 -0.31806001077E+03  0.33343351009E+03  0.00000000000E+00 0. -1.
          1    1    1    2  501    0  0.92413164751E+02 -0.20272235632E+02 -0.36437274152E+03  0.37645537759E+03  0.00000000000E+00 0. -1.
<mgrwt>
<rscale>  1 0.12345098E+03</rscale>
<asrwt>0</asrwt>
<pdfrwt beam="1">  1       21 0.24202501E-02 0.12345098E+03</pdfrwt>
<pdfrwt beam="2">  1        2 0.11747603E+00 0.12345098E+03</pdfrwt>
<totfact> 0.42024229E+05</totfact>
</mgrwt>
</event>
<event>
 6    2  0.9453093E+000  0.9354842E+02  0.7546771E-02  0.1294479E+00
          2   -1    0    0  502    0 -0.00000000000E+00  0.00000000000E+00  0.41546335632E+02  0.41546335632E+02  0.00000000000E+00 0. -1.
         21   -1    0    0  501  502  0.00000000000E+00 -0.00000000000E+00 -0.44961690514E+03  0.44961690514E+03  0.00000000000E+00 0. -1.
         24    2    1    2    0    0  0.44301030560E+02 -0.12364429803E+02 -0.14204415573E+02  0.94620673513E+02  0.81460702190E+02 0.  0.
        -13    1    3    3    0    0  0.21702179125E+01  0.24946907085E+02 -0.27086079760E+02  0.36887853498E+02  0.00000000000E+00 0.  1.
         14    1    3    3    0    0  0.42130812647E+02 -0.37311336888E+02  0.12881664187E+02  0.57732820015E+02  0.00000000000E+00 0. -1.
          1    1    1    2  501    0 -0.44301030560E+02  0.12364429803E+02 -0.39386615394E+03  0.39654256726E+03  0.00000000000E+00 0. -1.
<mgrwt>
<rscale>  1 0.93548418E+02</rscale>
<asrwt>0</asrwt>
<pdfrwt beam="1">  1       21 0.69171833E-01 0.93548418E+02</pdfrwt>
<pdfrwt beam="2">  1        2 0.63917438E-02 0.93548418E+02</pdfrwt>
<totfact> 0.25994492E+04</totfact>
</mgrwt>
</event>
<event>
 6    2  0.9453093E+000  0.1165358E+03  0.7546771E-02  0.1248924E+00
          2   -1    0    0  502    0 -0.00000000000E+00  0.00000000000E+00  0.30856865936E+03  0.30856865936E+03  0.00000000000E+00 0. -1.
         21   -1    0    0  501  502  0.00000000000E+00 -0.00000000000E+00 -0.36342001740E+02  0.36342001740E+02  0.00000000000E+00 0.  1.
         24    2    1    2    0    0  0.85196153575E+02  0.14539561343E+02  0.10588354596E+03  0.15745449496E+03  0.78171665257E+02 0.  0.
        -13    1    3    3    0    0  0.86018737257E+02 -0.10642559403E+02  0.61018472284E+02  0.10599877919E+03  0.00000000000E+00 0.  1.
         14    1    3    3    0    0 -0.82258368154E+00  0.25182120746E+02  0.44865073675E+02  0.51455715767E+02  0.00000000000E+00 0. -1.
          1    1    1    2  501    0 -0.85196153575E+02 -0.14539561343E+02  0.16634311166E+03  0.18745616614E+03  0.00000000000E+00 0. -1.
<mgrwt>
<rscale>  1 0.11653580E+03</rscale>
<asrwt>0</asrwt>
<pdfrwt beam="1">  1       21 0.55910774E-02 0.11653580E+03</pdfrwt>
<pdfrwt beam="2">  1        2 0.47472100E-01 0.11653580E+03</pdfrwt>
<totfact> 0.28526668E+05</totfact>
</mgrwt>
</event>
<event>
 6    2  0.9453093E+000  0.9965032E+02  0.7546771E-02  0.1281033E+00
          2   -1    0    0  502    0 -0.00000000000E+00  0.00000000000E+00  0.75579835977E+03  0.75579835977E+03  0.00000000000E+00 0. -1.
         21   -1    0    0  501  502  0.00000000000E+00 -0.00000000000E+00 -0.86486331280E+01  0.86486331280E+01  0.00000000000E+00 0.  1.
         24    2    1    2    0    0 -0.42866861115E+02 -0.40602928411E+02  0.53663703274E+03  0.54581085711E+03  0.80274661361E+02 0.  0.
        -11    1    3    3    0    0 -0.64812419856E+02 -0.23643387949E+02  0.31639534270E+03  0.32382969667E+03  0.00000000000E+00 0.  1.
         12    1    3    3    0    0  0.21945558741E+02 -0.16959540461E+02  0.22024169003E+03  0.22198116044E+03  0.00000000000E+00 0. -1.
          1    1    1    2  501    0  0.42866861115E+02  0.40602928411E+02  0.21051269391E+03  0.21863613579E+03  0.00000000000E+00 0. -1.
<mgrwt>
<rscale>  1 0.99650323E+02</rscale>
<asrwt>0</asrwt>
<pdfrwt beam="1">  1       21 0.13305595E-02 0.99650323E+02</pdfrwt>
<pdfrwt beam="2">  1        2 0.11627662E+00 0.99650323E+02</pdfrwt>
<totfact> 0.10930912E+06</totfact>
</mgrwt>
</event>
<event>
 6    2  0.9453093E+000  0.9218371E+02  0.7546771E-02  0.1297648E+00
          2   -1    0    0  502    0 -0.00000000000E+00  0.00000000000E+00  0.12708729713E+04  0.12708729713E+04  0.00000000000E+00 0. -1.
         21   -1    0    0  501  502  0.00000000000E+00 -0.00000000000E+00 -0.24460232443E+02  0.24460232443E+02  0.00000000000E+00 0. -1.
         24    2    1    2    0    0 -0.41867032518E+02  0.11784168987E+02  0.12483953135E+04  0.12517941907E+04  0.81278054316E+02 0.  0.
        -11    1    3    3    0    0 -0.46045378638E+02 -0.25235100430E+01  0.32263851903E+03  0.32591741125E+03  0.00000000000E+00 0.  1.
         12    1    3    3    0    0  0.41783461201E+01  0.14307679030E+02  0.92575679447E+03  0.92587677947E+03  0.00000000000E+00 0. -1.
          1    1    1    2  501    0  0.41867032518E+02 -0.11784168987E+02 -0.19825746634E+01  0.43539012998E+02  0.00000000000E+00 0. -1.
<mgrwt>
<rscale>  1 0.92183714E+02</rscale>
<asrwt>0</asrwt>
<pdfrwt beam="1">  1       21 0.37631137E-02 0.92183714E+02</pdfrwt>
<pdfrwt beam="2">  1        2 0.19551887E+00 0.92183714E+02</pdfrwt>
<totfact> 0.10109602E+05</totfact>
</mgrwt>
</event>
<event>
 6    2  0.1100939E+001  0.8970537E+02  0.7546771E-02  0.1303567E+00
         -3   -1    0    0    0  501 -0.00000000000E+00  0.00000000000E+00  0.40432396043E+03  0.40432396043E+03  0.00000000000E+00 0.  1.
         21   -1    0    0  501  502  0.00000000000E+00 -0.00000000000E+00 -0.37535755143E+02  0.37535755143E+02  0.00000000000E+00 0.  1.
         24    2    1    2    0    0 -0.39361969510E+02 -0.93810573374E+01  0.38655368735E+03  0.39682591537E+03  0.80060508511E+02 0.  0.
        -11    1    3    3    0    0 -0.52866155068E+02 -0.23415183785E+02  0.35549132151E+03  0.36016271442E+03  0.00000000000E+00 0.  1.
         12    1    3    3    0    0  0.13504185558E+02  0.14034126447E+02  0.31062365834E+02  0.36663200950E+02  0.00000000000E+00 0. -1.
         -4    1    1    2    0  502  0.39361969510E+02  0.93810573374E+01 -0.19765482057E+02  0.45033800211E+02  0.00000000000E+00 0.  1.
<mgrwt>
<rscale>  1 0.89705373E+02</rscale>
<asrwt>0</asrwt>
<pdfrwt beam="1">  1       21 0.57747319E-02 0.89705373E+02</pdfrwt>
<pdfrwt beam="2">  1       -3 0.62203683E-01 0.89705373E+02</pdfrwt>
<totfact> 0.24882564E+04</totfact>
</mgrwt>
</event>
<event>
 6    2  0.9453093E+000  0.7980212E+02  0.7546771E-02  0.1329614E+00
         21   -1    0    0  501  502  0.00000000000E+00  0.00000000000E+00  0.13339834744E+01  0.13339834744E+01  0.00000000000E+00 0. -1.
          2   -1    0    0  502    0 -0.00000000000E+00 -0.00000000000E+00 -0.19366866510E+04  0.19366866510E+04  0.00000000000E+00 0. -1.
         24    2    1    2    0    0 -0.18246285580E+02 -0.11945766350E+02 -0.14956847983E+04  0.14978122026E+04  0.76764250117E+02 0.  0.
        -11    1    3    3    0    0 -0.36796044500E+02  0.12331999673E+02 -0.11834442511E+04  0.11840803700E+04  0.00000000000E+00 0.  1.
         12    1    3    3    0    0  0.18549758921E+02 -0.24277766023E+02 -0.31224054719E+03  0.31373183260E+03  0.00000000000E+00 0. -1.
          1    1    1    2  501    0  0.18246285580E+02  0.11945766350E+02 -0.43966786923E+03  0.44020843188E+03  0.00000000000E+00 0. -1.
<mgrwt>
<rscale>  1 0.79802120E+02</rscale>
<asrwt>0</asrwt>
<pdfrwt beam="1">  1       21 0.20522731E-03 0.79802120E+02</pdfrwt>
<pdfrwt beam="2">  1        2 0.29795313E+00 0.79802120E+02</pdfrwt>
<totfact> 0.42974323E+06</totfact>
</mgrwt>
</event>
<event>
 6    2  0.9453093E+000  0.8343480E+02  0.7546771E-02  0.1319577E+00
         -1   -1    0    0    0  501 -0.00000000000E+00  0.00000000000E+00  0.38029225427E+02  0.38029225427E+02  0.00000000000E+00 0.  1.
         21   -1    0    0  501  502  0.00000000000E+00 -0.00000000000E+00 -0.76981741868E+02  0.76981741868E+02  0.00000000000E+00 0. -1.
         24    2    1    2    0    0 -0.17186559884E+02  0.16456514803E+02 -0.23655968735E+02  0.86723530299E+02  0.79969813871E+02 0.  0.
        -13    1    3    3    0    0 -0.28375530839E+02  0.70434630650E+01  0.23400194730E+02  0.37447967044E+02  0.00000000000E+00 0.  1.
         14    1    3    3    0    0  0.11188970955E+02  0.94130517381E+01 -0.47056163465E+02  0.49275563255E+02  0.00000000000E+00 0. -1.
         -2    1    1    2    0  502  0.17186559884E+02 -0.16456514803E+02 -0.15296547706E+02  0.28287436997E+02  0.00000000000E+00 0.  1.
<mgrwt>
<rscale>  1 0.83434800E+02</rscale>
<asrwt>0</asrwt>
<pdfrwt beam="1">  1       21 0.11843345E-01 0.83434800E+02</pdfrwt>
<pdfrwt beam="2">  1       -1 0.58506501E-02 0.83434800E+02</pdfrwt>
<totfact> 0.67816275E+05</totfact>
</mgrwt>
</event>
<event>
 6    2  0.9453093E+000  0.8274817E+02  0.7546771E-02  0.1321429E+00
         -1   -1    0    0    0  501 -0.00000000000E+00  0.00000000000E+00  0.64719982139E+03  0.64719982139E+03  0.00000000000E+00 0.  1.
         21   -1    0    0  501  502  0.00000000000E+00 -0.00000000000E+00 -0.70156770344E+01  0.70156770344E+01  0.00000000000E+00 0.  1.
         24    2    1    2    0    0  0.16239844197E+02  0.12605709957E+02  0.61967874377E+03  0.62517917779E+03  0.80153742222E+02 0.  0.
        -11    1    3    3    0    0  0.44844151191E+02 -0.22655082324E+01  0.46582071490E+03  0.46797977398E+03  0.00000000000E+00 0.  1.
         12    1    3    3    0    0 -0.28604306994E+02  0.14871218190E+02  0.15385802887E+03  0.15719940380E+03  0.00000000000E+00 0. -1.
         -2    1    1    2    0  502 -0.16239844197E+02 -0.12605709957E+02  0.20505400583E+02  0.29036320637E+02  0.00000000000E+00 0.  1.
<mgrwt>
<rscale>  1 0.82748165E+02</rscale>
<asrwt>0</asrwt>
<pdfrwt beam="1">  1       21 0.10793354E-02 0.82748165E+02</pdfrwt>
<pdfrwt beam="2">  1       -1 0.99569156E-01 0.82748165E+02</pdfrwt>
<totfact> 0.29788766E+05</totfact>
</mgrwt>
</event>
<event>
 6    2  0.9453093E+000  0.8439997E+02  0.7546771E-02  0.1317009E+00
         21   -1    0    0  501  502  0.00000000000E+00  0.00000000000E+00  0.29291764974E+03  0.29291764974E+03  0.00000000000E+00 0.  1.
         -1   -1    0    0    0  501 -0.00000000000E+00 -0.00000000000E+00 -0.40076794368E+02  0.40076794368E+02  0.00000000000E+00 0.  1.
         24    2    1    2    0    0 -0.82823308899E+01 -0.24649568696E+02  0.58110879209E+01  0.84599789881E+02  0.80294193210E+02 0.  0.
        -11    1    3    3    0    0 -0.42739112884E+02 -0.13457983555E+02 -0.85718136298E+01  0.45620445859E+02  0.00000000000E+00 0.  1.
         12    1    3    3    0    0  0.34456781994E+02 -0.11191585140E+02  0.14382901551E+02  0.38979344022E+02  0.00000000000E+00 0. -1.
         -2    1    1    2    0  502  0.82823308899E+01  0.24649568696E+02  0.24702976745E+03  0.24839465423E+03  0.00000000000E+00 0.  1.
<mgrwt>
<rscale>  1 0.84399975E+02</rscale>
<asrwt>0</asrwt>
<pdfrwt beam="1">  1       21 0.45064253E-01 0.84399975E+02</pdfrwt>
<pdfrwt beam="2">  1       -1 0.61656608E-02 0.84399975E+02</pdfrwt>
<totfact> 0.52272108E+04</totfact>
</mgrwt>
</event>
<event>
 6    2  0.9453093E+000  0.8776598E+02  0.7546771E-02  0.1308354E+00
         21   -1    0    0  501  502  0.00000000000E+00  0.00000000000E+00  0.16965522470E+03  0.16965522470E+03  0.00000000000E+00 0.  1.
          2   -1    0    0  502    0 -0.00000000000E+00 -0.00000000000E+00 -0.96123612866E+02  0.96123612866E+02  0.00000000000E+00 0. -1.
         24    2    1    2    0    0 -0.67815826337E+01  0.37120856797E+02  0.15380169023E+03  0.17708141169E+03  0.79239627569E+02 0.  0.
        -13    1    3    3    0    0  0.84635482965E+01  0.38272618151E+02  0.15669349244E+03  0.16152174938E+03  0.00000000000E+00 0.  1.
         14    1    3    3    0    0 -0.15245130930E+02 -0.11517613537E+01 -0.28918022091E+01  0.15559662314E+02  0.00000000000E+00 0. -1.
          1    1    1    2  501    0  0.67815826337E+01 -0.37120856797E+02 -0.80270078391E+02  0.88697425878E+02  0.00000000000E+00 0. -1.
<mgrwt>
<rscale>  1 0.87765975E+02</rscale>
<asrwt>0</asrwt>
<pdfrwt beam="1">  1       21 0.26100804E-01 0.87765975E+02</pdfrwt>
<pdfrwt beam="2">  1        2 0.14788248E-01 0.87765975E+02</pdfrwt>
<totfact> 0.65986517E+04</totfact>
</mgrwt>
</event>
<event>
 6    2  0.9453093E+000  0.1062312E+03  0.7546771E-02  0.1267713E+00
         21   -1    0    0  501  502  0.00000000000E+00  0.00000000000E+00  0.11248493665E+02  0.11248493665E+02  0.00000000000E+00 0. -1.
          2   -1    0    0  502    0 -0.00000000000E+00 -0.00000000000E+00 -0.69240508856E+03  0.69240508856E+03  0.00000000000E+00 0. -1.
         24    2    1    2    0    0  0.66634587647E+02  0.19038783897E+02 -0.44751628561E+03  0.45995204820E+03  0.80513459716E+02 0.  0.
        -11    1    3    3    0    0  0.18521284443E+02  0.35983228212E+02 -0.32097605593E+03  0.32351732437E+03  0.00000000000E+00 0.  1.
         12    1    3    3    0    0  0.48113303204E+02 -0.16944444315E+02 -0.12654022968E+03  0.13643472383E+03  0.00000000000E+00 0. -1.
          1    1    1    2  501    0 -0.66634587647E+02 -0.19038783897E+02 -0.23364030929E+03  0.24370153403E+03  0.00000000000E+00 0. -1.
<mgrwt>
<rscale>  1 0.10623117E+03</rscale>
<asrwt>0</asrwt>
<pdfrwt beam="1">  1       21 0.17305373E-02 0.10623117E+03</pdfrwt>
<pdfrwt beam="2">  1        2 0.10652387E+00 0.10623117E+03</pdfrwt>
<totfact> 0.80281413E+05</totfact>
</mgrwt>
</event>
<event>
 6    2  0.9453093E+000  0.8610992E+02  0.7546771E-02  0.1312555E+00
         21   -1    0    0  501  502  0.00000000000E+00  0.00000000000E+00  0.21296719402E+03  0.21296719402E+03  0.00000000000E+00 0.  1.
         -1   -1    0    0    0  501 -0.00000000000E+00 -0.00000000000E+00 -0.16114134262E+02  0.16114134262E+02  0.00000000000E+00 0.  1.
         24    2    1    2    0    0  0.54089930710E+01 -0.30570899656E+02  0.14356290903E+03  0.16740736881E+03  0.80318622824E+02 0.  0.
        -13    1    3    3    0    0  0.36992532015E+02 -0.26130180875E+02  0.45133496652E+02  0.63939551902E+02  0.00000000000E+00 0.  1.
         14    1    3    3    0    0 -0.31583538944E+02 -0.44407187810E+01  0.98429412374E+02  0.10346781691E+03  0.00000000000E+00 0. -1.
         -2    1    1    2    0  502 -0.54089930710E+01  0.30570899656E+02  0.53290150730E+02  0.61673959470E+02  0.00000000000E+00 0.  1.
<mgrwt>
<rscale>  1 0.86109920E+02</rscale>
<asrwt>0</asrwt>
<pdfrwt beam="1">  1       21 0.32764182E-01 0.86109920E+02</pdfrwt>
<pdfrwt beam="2">  1       -1 0.24790977E-02 0.86109920E+02</pdfrwt>
<totfact> 0.36694665E+05</totfact>
</mgrwt>
</event>
<event>
 6    2  0.9453093E+000  0.8835113E+02  0.7546771E-02  0.1306894E+00
         21   -1    0    0  501  502  0.00000000000E+00  0.00000000000E+00  0.53269327655E+02  0.53269327655E+02  0.00000000000E+00 0. -1.
          2   -1    0    0  502    0 -0.00000000000E+00 -0.00000000000E+00 -0.30277645488E+03  0.30277645488E+03  0.00000000000E+00 0. -1.
         24    2    1    2    0    0 -0.33328078854E+01 -0.36472012255E+02 -0.28898898068E+03  0.30219290852E+03  0.80402784253E+02 0.  0.
        -13    1    3    3    0    0 -0.20453591621E+02 -0.15304409827E+02 -0.21691677289E+02  0.33512732416E+02  0.00000000000E+00 0.  1.
         14    1    3    3    0    0  0.17120783736E+02 -0.21167602428E+02 -0.26729730340E+03  0.26868017610E+03  0.00000000000E+00 0. -1.
          1    1    1    2  501    0  0.33328078854E+01  0.36472012255E+02  0.39481853464E+02  0.53852874012E+02  0.00000000000E+00 0. -1.
<mgrwt>
<rscale>  1 0.88351135E+02</rscale>
<asrwt>0</asrwt>
<pdfrwt beam="1">  1       21 0.81952811E-02 0.88351135E+02</pdfrwt>
<pdfrwt beam="2">  1        2 0.46580993E-01 0.88351135E+02</pdfrwt>
<totfact> 0.14971601E+05</totfact>
</mgrwt>
</event>
<event>
 6    2  0.9453093E+000  0.9438540E+02  0.7546771E-02  0.1292566E+00
         21   -1    0    0  501  502  0.00000000000E+00  0.00000000000E+00  0.34365082877E+01  0.34365082877E+01  0.00000000000E+00 0. -1.
          2   -1    0    0  502    0 -0.00000000000E+00 -0.00000000000E+00 -0.18629605258E+04  0.18629605258E+04  0.00000000000E+00 0. -1.
         24    2    1    2    0    0 -0.51999301193E+02 -0.13411042630E+02 -0.14905834986E+04  0.14935688030E+04  0.77619711771E+02 0.  0.
        -11    1    3    3    0    0 -0.12847578023E+02 -0.27720955646E+02 -0.20073681041E+03  0.20304871016E+03  0.00000000000E+00 0.  1.
         12    1    3    3    0    0 -0.39151723169E+02  0.14309913016E+02 -0.12898466882E+04  0.12905200928E+04  0.00000000000E+00 0. -1.
          1    1    1    2  501    0  0.51999301193E+02  0.13411042630E+02 -0.36894051896E+03  0.37282823112E+03  0.00000000000E+00 0. -1.
<mgrwt>
<rscale>  1 0.94385396E+02</rscale>
<asrwt>0</asrwt>
<pdfrwt beam="1">  1       21 0.52869197E-03 0.94385396E+02</pdfrwt>
<pdfrwt beam="2">  1        2 0.28661019E+00 0.94385396E+02</pdfrwt>
<totfact> 0.11287698E+06</totfact>
</mgrwt>
</event>
<event>
 6    2  0.9453093E+000  0.8773587E+02  0.7546771E-02  0.1308429E+00
         -1   -1    0    0    0  501 -0.00000000000E+00  0.00000000000E+00  0.22709533418E+03  0.22709533418E+03  0.00000000000E+00 0.  1.
         21   -1    0    0  501  502  0.00000000000E+00 -0.00000000000E+00 -0.18252901649E+02  0.18252901649E+02  0.00000000000E+00 0. -1.
         24    2    1    2    0    0  0.32631020292E+02 -0.28657466944E+00  0.18557682457E+03  0.20527138310E+03  0.81441496144E+02 0.  0.
        -13    1    3    3    0    0 -0.11997247892E+02  0.23756223250E+02  0.11702104900E+03  0.12000924135E+03  0.00000000000E+00 0.  1.
         14    1    3    3    0    0  0.44628268183E+02 -0.24042797919E+02  0.68555775567E+02  0.85262141753E+02  0.00000000000E+00 0. -1.
         -2    1    1    2    0  502 -0.32631020292E+02  0.28657466944E+00  0.23265607960E+02  0.40076852721E+02  0.00000000000E+00 0.  1.
<mgrwt>
<rscale>  1 0.87735870E+02</rscale>
<asrwt>0</asrwt>
<pdfrwt beam="1">  1       21 0.28081389E-02 0.87735870E+02</pdfrwt>
<pdfrwt beam="2">  1       -1 0.34937742E-01 0.87735870E+02</pdfrwt>
<totfact> 0.47380863E+05</totfact>
</mgrwt>
</event>
<event>
 6    2  0.9453093E+000  0.8200191E+02  0.7546771E-02  0.1323464E+00
          2   -1    0    0  502    0 -0.00000000000E+00  0.00000000000E+00  0.30743163943E+04  0.30743163943E+04  0.00000000000E+00 0. -1.
         21   -1    0    0  501  502  0.00000000000E+00 -0.00000000000E+00 -0.11836654755E+01  0.11836654755E+01  0.00000000000E+00 0. -1.
         24    2    1    2    0    0 -0.16402439869E+02 -0.12317348900E+02  0.28995870904E+04  0.29007463882E+04  0.79394940918E+02 0.  0.
        -11    1    3    3    0    0 -0.20038689007E+00  0.23247003583E+02  0.31227940619E+03  0.31314356270E+03  0.00000000000E+00 0.  1.
         12    1    3    3    0    0 -0.16202052979E+02 -0.35564352483E+02  0.25873076843E+04  0.25876028255E+04  0.00000000000E+00 0. -1.
          1    1    1    2  501    0  0.16402439869E+02  0.12317348900E+02  0.17354563835E+03  0.17475367152E+03  0.00000000000E+00 0. -1.
<mgrwt>
<rscale>  1 0.82001913E+02</rscale>
<asrwt>0</asrwt>
<pdfrwt beam="1">  1       21 0.18210484E-03 0.82001913E+02</pdfrwt>
<pdfrwt beam="2">  1        2 0.47296536E+00 0.82001913E+02</pdfrwt>
<totfact> 0.12929631E+06</totfact>
</mgrwt>
</event>
<event>
 6    2  0.9453093E+000  0.8562550E+02  0.7546771E-02  0.1313805E+00
         21   -1    0    0  501  502  0.00000000000E+00  0.00000000000E+00  0.44439095542E+01  0.44439095542E+01  0.00000000000E+00 0. -1.
          2   -1    0    0  502    0 -0.00000000000E+00 -0.00000000000E+00 -0.25311896611E+04  0.25311896611E+04  0.00000000000E+00 0. -1.
         24    2    1    2    0    0  0.12379849434E+02 -0.23245013656E+02 -0.24836651721E+04  0.24851407231E+04  0.81474750602E+02 0.  0.
        -11    1    3    3    0    0 -0.33501771164E+02 -0.21301986381E+02 -0.11602433135E+04  0.11609223445E+04  0.00000000000E+00 0.  1.
         12    1    3    3    0    0  0.45881620598E+02 -0.19430272746E+01 -0.13234218586E+04  0.13242183786E+04  0.00000000000E+00 0. -1.
          1    1    1    2  501    0 -0.12379849434E+02  0.23245013656E+02 -0.43080579395E+02  0.50492847541E+02  0.00000000000E+00 0. -1.
<mgrwt>
<rscale>  1 0.85625500E+02</rscale>
<asrwt>0</asrwt>
<pdfrwt beam="1">  1       21 0.68367921E-03 0.85625500E+02</pdfrwt>
<pdfrwt beam="2">  1        2 0.38941333E+00 0.85625500E+02</pdfrwt>
<totfact> 0.34549326E+05</totfact>
</mgrwt>
</event>
<event>
 6    2  0.9453093E+000  0.9426808E+02  0.7546771E-02  0.1292833E+00
         21   -1    0    0  501  502  0.00000000000E+00  0.00000000000E+00  0.14815404567E+01  0.14815404567E+01  0.00000000000E+00 0. -1.
          2   -1    0    0  502    0 -0.00000000000E+00 -0.00000000000E+00 -0.33987682574E+04  0.33987682574E+04  0.00000000000E+00 0. -1.
         24    2    1    2    0    0  0.22572441399E+02 -0.38071312721E+02 -0.26287217849E+04  0.26304115066E+04  0.83231793986E+02 0.  0.
        -11    1    3    3    0    0 -0.11763024563E+02  0.90432288734E+01 -0.10786562812E+03  0.10888132285E+03  0.00000000000E+00 0.  1.
         12    1    3    3    0    0  0.34335465962E+02 -0.47114541595E+02 -0.25208561568E+04  0.25215301837E+04  0.00000000000E+00 0. -1.
          1    1    1    2  501    0 -0.22572441399E+02  0.38071312721E+02 -0.76856493208E+03  0.76983829132E+03  0.00000000000E+00 0. -1.
<mgrwt>
<rscale>  1 0.94268083E+02</rscale>
<asrwt>0</asrwt>
<pdfrwt beam="1">  1       21 0.22792940E-03 0.94268083E+02</pdfrwt>
<pdfrwt beam="2">  1        2 0.52288719E+00 0.94268083E+02</pdfrwt>
<totfact> 0.59203928E+05</totfact>
</mgrwt>
</event>
<event>
 6    2  0.9453093E+000  0.8791139E+02  0.7546771E-02  0.1307990E+00
         21   -1    0    0  501  502  0.00000000000E+00  0.00000000000E+00  0.72365605791E+01  0.72365605791E+01  0.00000000000E+00 0.  1.
         -1   -1    0    0    0  501 -0.00000000000E+00 -0.00000000000E+00 -0.85022018874E+03  0.85022018874E+03  0.00000000000E+00 0.  1.
         24    2    1    2    0    0  0.28334561814E+02 -0.71572124318E+01 -0.80370539284E+03  0.80849908544E+03  0.82911637221E+02 0.  0.
        -11    1    3    3    0    0  0.32765213766E+02  0.25372028121E+02 -0.65035513457E+03  0.65167407506E+03  0.00000000000E+00 0.  1.
         12    1    3    3    0    0 -0.44306519514E+01 -0.32529240553E+02 -0.15335025827E+03  0.15682501037E+03  0.00000000000E+00 0. -1.
         -2    1    1    2    0  502 -0.28334561814E+02  0.71572124318E+01 -0.39278235319E+02  0.48957663882E+02  0.00000000000E+00 0.  1.
<mgrwt>
<rscale>  1 0.87911391E+02</rscale>
<asrwt>0</asrwt>
<pdfrwt beam="1">  1       21 0.11133167E-02 0.87911391E+02</pdfrwt>
<pdfrwt beam="2">  1       -1 0.13080314E+00 0.87911391E+02</pdfrwt>
<totfact> 0.15301597E+05</totfact>
</mgrwt>
</event>
<event>
 6    2  0.9453093E+000  0.8440502E+02  0.7546771E-02  0.1316996E+00
          4   -1    0    0  502    0 -0.00000000000E+00  0.00000000000E+00  0.73252333525E+03  0.73252333525E+03  0.00000000000E+00 0. -1.
         21   -1    0    0  501  502  0.00000000000E+00 -0.00000000000E+00 -0.57343399796E+01  0.57343399796E+01  0.00000000000E+00 0. -1.
         24    2    1    2    0    0 -0.13996821132E+02 -0.23573167462E+02  0.66890846430E+03  0.67421268252E+03  0.79828581535E+02 0.  0.
        -13    1    3    3    0    0  0.56856693838E+01  0.28121381191E+02  0.19835499405E+03  0.20041916720E+03  0.00000000000E+00 0.  1.
         14    1    3    3    0    0 -0.19682490516E+02 -0.51694548653E+02  0.47055347025E+03  0.47379351532E+03  0.00000000000E+00 0. -1.
          3    1    1    2  501    0  0.13996821132E+02  0.23573167462E+02  0.57880530970E+02  0.64044992711E+02  0.00000000000E+00 0. -1.
<mgrwt>
<rscale>  1 0.84405022E+02</rscale>
<asrwt>0</asrwt>
<pdfrwt beam="1">  1       21 0.88220673E-03 0.84405022E+02</pdfrwt>
<pdfrwt beam="2">  1        4 0.11269582E+00 0.84405022E+02</pdfrwt>
<totfact> 0.10956823E+05</totfact>
</mgrwt>
</event>
<event>
 6    2  0.9453093E+000  0.8442639E+02  0.7546771E-02  0.1316939E+00
          2   -1    0    0  502    0 -0.00000000000E+00  0.00000000000E+00  0.17321906121E+04  0.17321906121E+04  0.00000000000E+00 0. -1.
         21   -1    0    0  501  502  0.00000000000E+00 -0.00000000000E+00 -0.22784812525E+01  0.22784812525E+01  0.00000000000E+00 0. -1.
         24    2    1    2    0    0  0.28054459344E+02  0.25223861939E+01  0.15561667949E+04  0.15584552959E+04  0.79588948527E+02 0.  0.
        -13    1    3    3    0    0 -0.10858121501E+02  0.80784609791E+01  0.50693922255E+02  0.52469363326E+02  0.00000000000E+00 0.  1.
         14    1    3    3    0    0  0.38912580845E+02 -0.55560747852E+01  0.15054728727E+04  0.15059859326E+04  0.00000000000E+00 0. -1.
          1    1    1    2  501    0 -0.28054459344E+02 -0.25223861939E+01  0.17374533595E+03  0.17601379743E+03  0.00000000000E+00 0. -1.
<mgrwt>
<rscale>  1 0.84426393E+02</rscale>
<asrwt>0</asrwt>
<pdfrwt beam="1">  1       21 0.35053696E-03 0.84426393E+02</pdfrwt>
<pdfrwt beam="2">  1        2 0.26648981E+00 0.84426393E+02</pdfrwt>
<totfact> 0.24394343E+06</totfact>
</mgrwt>
</event>
<event>
 6    2  0.9453093E+000  0.1161519E+03  0.7546771E-02  0.1249584E+00
         21   -1    0    0  501  502  0.00000000000E+00  0.00000000000E+00  0.84983024547E+01  0.84983024547E+01  0.00000000000E+00 0.  1.
          2   -1    0    0  502    0 -0.00000000000E+00 -0.00000000000E+00 -0.14553071471E+04  0.14553071471E+04  0.00000000000E+00 0. -1.
         24    2    1    2    0    0 -0.71039210103E+02 -0.43705081064E+02 -0.49927922862E+03  0.51261194835E+03  0.80836612870E+02 0.  0.
        -11    1    3    3    0    0 -0.65814511678E+02 -0.65254182189E+02 -0.42984901453E+03  0.43972699887E+03  0.00000000000E+00 0.  1.
         12    1    3    3    0    0 -0.52246984253E+01  0.21549101126E+02 -0.69430214090E+02  0.72884949485E+02  0.00000000000E+00 0. -1.
          1    1    1    2  501    0  0.71039210103E+02  0.43705081064E+02 -0.94752961603E+03  0.95119350120E+03  0.00000000000E+00 0. -1.
<mgrwt>
<rscale>  1 0.11615189E+03</rscale>
<asrwt>0</asrwt>
<pdfrwt beam="1">  1       21 0.13074307E-02 0.11615189E+03</pdfrwt>
<pdfrwt beam="2">  1        2 0.22389349E+00 0.11615189E+03</pdfrwt>
<totfact> 0.44718159E+05</totfact>
</mgrwt>
</event>
<event>
 6    2  0.9453093E+000  0.7835518E+02  0.7546771E-02  0.1333785E+00
         -1   -1    0    0    0  501 -0.00000000000E+00  0.00000000000E+00  0.29563506879E+02  0.29563506879E+02  0.00000000000E+00 0.  1.
         21   -1    0    0  501  502  0.00000000000E+00 -0.00000000000E+00 -0.90599685968E+02  0.90599685968E+02  0.00000000000E+00 0.  1.
         24    2    1    2    0    0  0.13712889316E+02  0.20438905693E+02 -0.41045777358E+02  0.88455017865E+02  0.74389126540E+02 0.  0.
        -13    1    3    3    0    0  0.18473079319E+02  0.36892398908E+02  0.28285532152E+01  0.41355827522E+02  0.00000000000E+00 0.  1.
         14    1    3    3    0    0 -0.47601900032E+01 -0.16453493215E+02 -0.43874330573E+02  0.47099190344E+02  0.00000000000E+00 0. -1.
         -2    1    1    2    0  502 -0.13712889316E+02 -0.20438905693E+02 -0.19990401732E+02  0.31708174982E+02  0.00000000000E+00 0.  1.
<mgrwt>
<rscale>  1 0.78355181E+02</rscale>
<asrwt>0</asrwt>
<pdfrwt beam="1">  1       21 0.13938413E-01 0.78355181E+02</pdfrwt>
<pdfrwt beam="2">  1       -1 0.45482318E-02 0.78355181E+02</pdfrwt>
<totfact> 0.72995652E+05</totfact>
</mgrwt>
</event>
<event>
 6    2  0.9453093E+000  0.8522599E+02  0.7546771E-02  0.1314843E+00
         21   -1    0    0  501  502  0.00000000000E+00  0.00000000000E+00  0.19962134811E+01  0.19962134811E+01  0.00000000000E+00 0.  1.
          2   -1    0    0  502    0 -0.00000000000E+00 -0.00000000000E+00 -0.19889241397E+04  0.19889241397E+04  0.00000000000E+00 0. -1.
         24    2    1    2    0    0  0.31738456364E+02 -0.64355894751E+01 -0.10576133227E+04  0.10610416628E+04  0.78833517744E+02 0.  0.
        -13    1    3    3    0    0 -0.12443499057E+02  0.12187600313E+01 -0.30680230363E+02  0.33130085722E+02  0.00000000000E+00 0.  1.
         14    1    3    3    0    0  0.44181955421E+02 -0.76543495064E+01 -0.10269330923E+04  0.10279115771E+04  0.00000000000E+00 0. -1.
          1    1    1    2  501    0 -0.31738456364E+02  0.64355894751E+01 -0.92931460359E+03  0.92987869040E+03  0.00000000000E+00 0. -1.
<mgrwt>
<rscale>  1 0.85225993E+02</rscale>
<asrwt>0</asrwt>
<pdfrwt beam="1">  1       21 0.30711039E-03 0.85225993E+02</pdfrwt>
<pdfrwt beam="2">  1        2 0.30598771E+00 0.85225993E+02</pdfrwt>
<totfact> 0.22192840E+06</totfact>
</mgrwt>
</event>
<event>
 6    2  0.9453093E+000  0.8512230E+02  0.7546771E-02  0.1315113E+00
         21   -1    0    0  501  502  0.00000000000E+00  0.00000000000E+00  0.32164646821E+02  0.32164646821E+02  0.00000000000E+00 0. -1.
         -3   -1    0    0    0  501 -0.00000000000E+00 -0.00000000000E+00 -0.10154285558E+03  0.10154285558E+03  0.00000000000E+00 0.  1.
         24    2    1    2    0    0  0.52632305781E+01 -0.19753418279E+02 -0.73952005179E+02  0.11275950146E+03  0.82631150121E+02 0.  0.
        -13    1    3    3    0    0  0.26074290408E+02  0.18371211567E+02 -0.58550585026E+02  0.66674890638E+02  0.00000000000E+00 0.  1.
         14    1    3    3    0    0 -0.20811059830E+02 -0.38124629846E+02 -0.15401420153E+02  0.46084610825E+02  0.00000000000E+00 0. -1.
         -4    1    1    2    0  502 -0.52632305781E+01  0.19753418279E+02  0.45737964162E+01  0.20948000943E+02  0.00000000000E+00 0.  1.
<mgrwt>
<rscale>  1 0.85122301E+02</rscale>
<asrwt>0</asrwt>
<pdfrwt beam="1">  1       21 0.49484073E-02 0.85122301E+02</pdfrwt>
<pdfrwt beam="2">  1       -3 0.15621978E-01 0.85122301E+02</pdfrwt>
<totfact> 0.41278452E+05</totfact>
</mgrwt>
</event>
<event>
 6    2  0.9453093E+000  0.8466941E+02  0.7546771E-02  0.1316299E+00
         21   -1    0    0  501  502  0.00000000000E+00  0.00000000000E+00  0.39869920882E+01  0.39869920882E+01  0.00000000000E+00 0.  1.
          2   -1    0    0  502    0 -0.00000000000E+00 -0.00000000000E+00 -0.74672429601E+03  0.74672429601E+03  0.00000000000E+00 0. -1.
         24    2    1    2    0    0  0.17212376060E+01  0.24352361638E+02 -0.58529109909E+03  0.59138361444E+03  0.81073476441E+02 0.  0.
        -13    1    3    3    0    0 -0.49912095605E-01  0.39196770023E+02 -0.12843667901E+03  0.13428465954E+03  0.00000000000E+00 0.  1.
         14    1    3    3    0    0  0.17711497016E+01 -0.14844408385E+02 -0.45685442007E+03  0.45709895490E+03  0.00000000000E+00 0. -1.
          1    1    1    2  501    0 -0.17212376060E+01 -0.24352361638E+02 -0.15744620483E+03  0.15932767365E+03  0.00000000000E+00 0. -1.
<mgrwt>
<rscale>  1 0.84669409E+02</rscale>
<asrwt>0</asrwt>
<pdfrwt beam="1">  1       21 0.61338291E-03 0.84669409E+02</pdfrwt>
<pdfrwt beam="2">  1        2 0.11488075E+00 0.84669409E+02</pdfrwt>
<totfact> 0.36472214E+06</totfact>
</mgrwt>
</event>
<event>
 6    2  0.9453093E+000  0.8485695E+02  0.7546771E-02  0.1315807E+00
          2   -1    0    0  502    0 -0.00000000000E+00  0.00000000000E+00  0.15693206667E+04  0.15693206667E+04  0.00000000000E+00 0. -1.
         21   -1    0    0  501  502  0.00000000000E+00 -0.00000000000E+00 -0.18797015493E+01  0.18797015493E+01  0.00000000000E+00 0.  1.
         24    2    1    2    0    0  0.15120559285E+02 -0.18047981525E+02  0.12667330004E+04  0.12695720523E+04  0.81525091796E+02 0.  0.
        -11    1    3    3    0    0  0.23719537418E+02  0.26702335260E+02  0.38191679972E+03  0.38358320228E+03  0.00000000000E+00 0.  1.
         12    1    3    3    0    0 -0.85989781327E+01 -0.44750316785E+02  0.88481620073E+03  0.88598885002E+03  0.00000000000E+00 0. -1.
          1    1    1    2  501    0 -0.15120559285E+02  0.18047981525E+02  0.30070796468E+03  0.30162831593E+03  0.00000000000E+00 0. -1.
<mgrwt>
<rscale>  1 0.84856948E+02</rscale>
<asrwt>0</asrwt>
<pdfrwt beam="1">  1       21 0.28918611E-03 0.84856948E+02</pdfrwt>
<pdfrwt beam="2">  1        2 0.24143290E+00 0.84856948E+02</pdfrwt>
<totfact> 0.39420066E+06</totfact>
</mgrwt>
</event>
<event>
 6    2  0.9453093E+000  0.8325970E+02  0.7546771E-02  0.1320047E+00
         21   -1    0    0  501  502  0.00000000000E+00  0.00000000000E+00  0.18532477906E+01  0.18532477906E+01  0.00000000000E+00 0. -1.
          2   -1    0    0  502    0 -0.00000000000E+00 -0.00000000000E+00 -0.15522984880E+04  0.15522984880E+04  0.00000000000E+00 0. -1.
         24    2    1    2    0    0  0.28781273074E+01  0.23816297618E+02 -0.11902789689E+04  0.11931874126E+04  0.79728778124E+02 0.  0.
        -13    1    3    3    0    0 -0.75117493945E+00 -0.68802857886E+01 -0.83117722472E+01  0.10816106241E+02  0.00000000000E+00 0.  1.
         14    1    3    3    0    0  0.36293022468E+01  0.30696583407E+02 -0.11819671967E+04  0.11823713064E+04  0.00000000000E+00 0. -1.
          1    1    1    2  501    0 -0.28781273074E+01 -0.23816297618E+02 -0.36016627127E+03  0.36096432318E+03  0.00000000000E+00 0. -1.
<mgrwt>
<rscale>  1 0.83259700E+02</rscale>
<asrwt>0</asrwt>
<pdfrwt beam="1">  1       21 0.28511535E-03 0.83259700E+02</pdfrwt>
<pdfrwt beam="2">  1        2 0.23881490E+00 0.83259700E+02</pdfrwt>
<totfact> 0.41003049E+06</totfact>
</mgrwt>
</event>
<event>
 6    2  0.9453093E+000  0.8267768E+02  0.7546771E-02  0.1321620E+00
         21   -1    0    0  501  502  0.00000000000E+00  0.00000000000E+00  0.14033820615E+01  0.14033820615E+01  0.00000000000E+00 0.  1.
          2   -1    0    0  502    0 -0.00000000000E+00 -0.00000000000E+00 -0.24519736679E+04  0.24519736679E+04  0.00000000000E+00 0. -1.
         24    2    1    2    0    0  0.23560849921E+02  0.39372202786E+01 -0.22270122461E+04  0.22285464193E+04  0.79151647717E+02 0.  0.
        -11    1    3    3    0    0 -0.89340385022E+01 -0.28504587022E+02 -0.47859274233E+03  0.47952407817E+03  0.00000000000E+00 0.  1.
         12    1    3    3    0    0  0.32494888423E+02  0.32441807301E+02 -0.17484195038E+04  0.17490223412E+04  0.00000000000E+00 0. -1.
          1    1    1    2  501    0 -0.23560849921E+02 -0.39372202786E+01 -0.22355803972E+03  0.22483063065E+03  0.00000000000E+00 0. -1.
<mgrwt>
<rscale>  1 0.82677680E+02</rscale>
<asrwt>0</asrwt>
<pdfrwt beam="1">  1       21 0.21590682E-03 0.82677680E+02</pdfrwt>
<pdfrwt beam="2">  1        2 0.37722342E+00 0.82677680E+02</pdfrwt>
<totfact> 0.21886886E+06</totfact>
</mgrwt>
</event>
<event>
 6    2  0.9453093E+000  0.8111614E+02  0.7546771E-02  0.1325913E+00
         21   -1    0    0  501  502  0.00000000000E+00  0.00000000000E+00  0.96082680246E+01  0.96082680246E+01  0.00000000000E+00 0. -1.
          2   -1    0    0  502    0 -0.00000000000E+00 -0.00000000000E+00 -0.54503055996E+03  0.54503055996E+03  0.00000000000E+00 0. -1.
         24    2    1    2    0    0  0.27862252867E+02 -0.97853602234E+01 -0.50768516009E+03  0.51412454788E+03  0.75549788515E+02 0.  0.
        -13    1    3    3    0    0  0.24385741399E+01  0.31714579855E+02 -0.16998274117E+03  0.17293320536E+03  0.00000000000E+00 0.  1.
         14    1    3    3    0    0  0.25423678727E+02 -0.41499940079E+02 -0.33770241892E+03  0.34119134252E+03  0.00000000000E+00 0. -1.
          1    1    1    2  501    0 -0.27862252867E+02  0.97853602234E+01 -0.27737131841E+02  0.40514280103E+02  0.00000000000E+00 0. -1.
<mgrwt>
<rscale>  1 0.81116145E+02</rscale>
<asrwt>0</asrwt>
<pdfrwt beam="1">  1       21 0.14781944E-02 0.81116145E+02</pdfrwt>
<pdfrwt beam="2">  1        2 0.83850893E-01 0.81116145E+02</pdfrwt>
<totfact> 0.13178649E+06</totfact>
</mgrwt>
</event>
<event>
 6    2  0.9453093E+000  0.8933241E+02  0.7546771E-02  0.1304476E+00
         21   -1    0    0  501  502  0.00000000000E+00  0.00000000000E+00  0.30057628179E+01  0.30057628179E+01  0.00000000000E+00 0. -1.
          2   -1    0    0  502    0 -0.00000000000E+00 -0.00000000000E+00 -0.28665370080E+04  0.28665370080E+04  0.00000000000E+00 0. -1.
         24    2    1    2    0    0 -0.39428854671E+02 -0.15877645774E+02 -0.26657122559E+04  0.26672086740E+04  0.78571910814E+02 0.  0.
        -11    1    3    3    0    0  0.84636775178E+00 -0.12404291728E+01 -0.40280007583E+00  0.15547510428E+01  0.00000000000E+00 0.  1.
         12    1    3    3    0    0 -0.40275222422E+02 -0.14637216601E+02 -0.26653094558E+04  0.26656539230E+04  0.00000000000E+00 0. -1.
          1    1    1    2  501    0  0.39428854671E+02  0.15877645774E+02 -0.19781898927E+03  0.20233409681E+03  0.00000000000E+00 0. -1.
<mgrwt>
<rscale>  1 0.89332409E+02</rscale>
<asrwt>0</asrwt>
<pdfrwt beam="1">  1       21 0.46242493E-03 0.89332409E+02</pdfrwt>
<pdfrwt beam="2">  1        2 0.44100580E+00 0.89332409E+02</pdfrwt>
<totfact> 0.41541910E+05</totfact>
</mgrwt>
</event>
<event>
 6    2  0.9453093E+000  0.8482193E+02  0.7546771E-02  0.1315899E+00
         21   -1    0    0  501  502  0.00000000000E+00  0.00000000000E+00  0.53395860191E+02  0.53395860191E+02  0.00000000000E+00 0. -1.
          4   -1    0    0  502    0 -0.00000000000E+00 -0.00000000000E+00 -0.56556959541E+02  0.56556959541E+02  0.00000000000E+00 0. -1.
         24    2    1    2    0    0  0.14430790335E+02  0.14817708161E+02 -0.14974100628E+02  0.86133516970E+02  0.82261454347E+02 0.  0.
        -11    1    3    3    0    0 -0.85100515584E+01 -0.31769977232E+02 -0.55034325526E+01  0.33347266765E+02  0.00000000000E+00 0.  1.
         12    1    3    3    0    0  0.22940841893E+02  0.46587685392E+02 -0.94706680752E+01  0.52786250206E+02  0.00000000000E+00 0. -1.
          3    1    1    2  501    0 -0.14430790335E+02 -0.14817708161E+02  0.11813001278E+02  0.23819302761E+02  0.00000000000E+00 0. -1.
<mgrwt>
<rscale>  1 0.84821926E+02</rscale>
<asrwt>0</asrwt>
<pdfrwt beam="1">  1       21 0.82147477E-02 0.84821926E+02</pdfrwt>
<pdfrwt beam="2">  1        4 0.87010707E-02 0.84821926E+02</pdfrwt>
<totfact> 0.40142608E+05</totfact>
</mgrwt>
</event>
<event>
 6    2  0.9453093E+000  0.8704421E+02  0.7546771E-02  0.1310172E+00
          2   -1    0    0  502    0 -0.00000000000E+00  0.00000000000E+00  0.11686930649E+04  0.11686930649E+04  0.00000000000E+00 0. -1.
         21   -1    0    0  501  502  0.00000000000E+00 -0.00000000000E+00 -0.27453098695E+01  0.27453098695E+01  0.00000000000E+00 0.  1.
         24    2    1    2    0    0  0.78796689669E+01  0.24603648132E+02  0.93857280260E+03  0.94260044592E+03  0.83121995862E+02 0.  0.
        -13    1    3    3    0    0  0.63821946132E+01  0.41831184714E+02  0.23271587014E+03  0.23653172438E+03  0.00000000000E+00 0.  1.
         14    1    3    3    0    0  0.14974743537E+01 -0.17227536582E+02  0.70585693246E+03  0.70606872155E+03  0.00000000000E+00 0. -1.
          1    1    1    2  501    0 -0.78796689669E+01 -0.24603648132E+02  0.22737495246E+03  0.22883792887E+03  0.00000000000E+00 0. -1.
<mgrwt>
<rscale>  1 0.87044212E+02</rscale>
<asrwt>0</asrwt>
<pdfrwt beam="1">  1       21 0.42235630E-03 0.87044212E+02</pdfrwt>
<pdfrwt beam="2">  1        2 0.17979854E+00 0.87044212E+02</pdfrwt>
<totfact> 0.36013474E+06</totfact>
</mgrwt>
</event>
<event>
 6    2  0.9453093E+000  0.8319274E+02  0.7546771E-02  0.1320228E+00
          2   -1    0    0  502    0 -0.00000000000E+00  0.00000000000E+00  0.14865050398E+03  0.14865050398E+03  0.00000000000E+00 0. -1.
         21   -1    0    0  501  502  0.00000000000E+00 -0.00000000000E+00 -0.40980166967E+02  0.40980166967E+02  0.00000000000E+00 0. -1.
         24    2    1    2    0    0  0.17679985315E+02  0.95141468869E+01  0.13326517938E+03  0.15710073354E+03  0.80733707783E+02 0.  0.
        -13    1    3    3    0    0 -0.16826593687E+01 -0.10091694126E+02 -0.81160438568E+01  0.13059241968E+02  0.00000000000E+00 0.  1.
         14    1    3    3    0    0  0.19362644684E+02  0.19605841013E+02  0.14138122323E+03  0.14404149157E+03  0.00000000000E+00 0. -1.
          1    1    1    2  501    0 -0.17679985315E+02 -0.95141468869E+01 -0.25594842367E+02  0.32529937404E+02  0.00000000000E+00 0. -1.
<mgrwt>
<rscale>  1 0.83192743E+02</rscale>
<asrwt>0</asrwt>
<pdfrwt beam="1">  1       21 0.63046411E-02 0.83192743E+02</pdfrwt>
<pdfrwt beam="2">  1        2 0.22869308E-01 0.83192743E+02</pdfrwt>
<totfact> 0.49535286E+05</totfact>
</mgrwt>
</event>
<event>
 6    2  0.9453093E+000  0.8389147E+02  0.7546771E-02  0.1318357E+00
         21   -1    0    0  501  502  0.00000000000E+00  0.00000000000E+00  0.15404410815E+01  0.15404410815E+01  0.00000000000E+00 0.  1.
          2   -1    0    0  502    0 -0.00000000000E+00 -0.00000000000E+00 -0.23434467919E+04  0.23434467919E+04  0.00000000000E+00 0. -1.
         24    2    1    2    0    0 -0.19548473651E+02 -0.95845132795E+01 -0.12252311412E+04  0.12280998037E+04  0.81017115337E+02 0.  0.
        -13    1    3    3    0    0  0.17369628412E+01 -0.26700015891E+02 -0.14051021247E+03  0.14303505758E+03  0.00000000000E+00 0.  1.
         14    1    3    3    0    0 -0.21285436493E+02  0.17115502611E+02 -0.10847209287E+04  0.10850647462E+04  0.00000000000E+00 0. -1.
          1    1    1    2  501    0  0.19548473651E+02  0.95845132795E+01 -0.11166752097E+04  0.11168874293E+04  0.00000000000E+00 0. -1.
<mgrwt>
<rscale>  1 0.83891470E+02</rscale>
<asrwt>0</asrwt>
<pdfrwt beam="1">  1       21 0.23698875E-03 0.83891470E+02</pdfrwt>
<pdfrwt beam="2">  1        2 0.36053360E+00 0.83891470E+02</pdfrwt>
<totfact> 0.21671734E+06</totfact>
</mgrwt>
</event>
<event>
 6    2  0.9453093E+000  0.1108150E+03  0.7546771E-02  0.1259068E+00
         -1   -1    0    0    0  501 -0.00000000000E+00  0.00000000000E+00  0.13136671654E+03  0.13136671654E+03  0.00000000000E+00 0.  1.
         21   -1    0    0  501  502  0.00000000000E+00 -0.00000000000E+00 -0.12575360297E+03  0.12575360297E+03  0.00000000000E+00 0.  1.
         24    2    1    2    0    0 -0.29033424005E+02  0.70531283370E+02  0.90446284074E+02  0.14304022283E+03  0.80388888535E+02 0.  0.
        -11    1    3    3    0    0 -0.47679805059E+02  0.69601357491E+02  0.91350466070E+02  0.12434878538E+03  0.00000000000E+00 0.  1.
         12    1    3    3    0    0  0.18646381054E+02  0.92992587929E+00 -0.90418199621E+00  0.18691437442E+02  0.00000000000E+00 0. -1.
         -2    1    1    2    0  502  0.29033424005E+02 -0.70531283370E+02 -0.84833170499E+02  0.11408009669E+03  0.00000000000E+00 0.  1.
<mgrwt>
<rscale>  1 0.11081505E+03</rscale>
<asrwt>0</asrwt>
<pdfrwt beam="1">  1       21 0.19346708E-01 0.11081505E+03</pdfrwt>
<pdfrwt beam="2">  1       -1 0.20210264E-01 0.11081505E+03</pdfrwt>
<totfact> 0.43521108E+04</totfact>
</mgrwt>
</event>
<event>
 6    2  0.9453093E+000  0.1029272E+03  0.7546771E-02  0.1274258E+00
         21   -1    0    0  501  502  0.00000000000E+00  0.00000000000E+00  0.47096323125E+01  0.47096323125E+01  0.00000000000E+00 0.  1.
          2   -1    0    0  502    0 -0.00000000000E+00 -0.00000000000E+00 -0.16923010208E+04  0.16923010208E+04  0.00000000000E+00 0. -1.
         24    2    1    2    0    0  0.59350886483E+02  0.19120596847E+02 -0.13338722069E+04  0.13378374576E+04  0.81889399023E+02 0.  0.
        -11    1    3    3    0    0 -0.14745647258E+02 -0.26239409874E+01 -0.68835462588E+02  0.70446008326E+02  0.00000000000E+00 0.  1.
         12    1    3    3    0    0  0.74096533741E+02  0.21744537835E+02 -0.12650367443E+04  0.12673914493E+04  0.00000000000E+00 0. -1.
          1    1    1    2  501    0 -0.59350886483E+02 -0.19120596847E+02 -0.35371918157E+03  0.35917319549E+03  0.00000000000E+00 0. -1.
<mgrwt>
<rscale>  1 0.10292715E+03</rscale>
<asrwt>0</asrwt>
<pdfrwt beam="1">  1       21 0.72455891E-03 0.10292715E+03</pdfrwt>
<pdfrwt beam="2">  1        2 0.26035397E+00 0.10292715E+03</pdfrwt>
<totfact> 0.84932724E+05</totfact>
</mgrwt>
</event>
<event>
 6    2  0.9453093E+000  0.9471398E+02  0.7546771E-02  0.1291822E+00
         -3   -1    0    0    0  501 -0.00000000000E+00  0.00000000000E+00  0.22046688123E+03  0.22046688123E+03  0.00000000000E+00 0.  1.
         21   -1    0    0  501  502  0.00000000000E+00 -0.00000000000E+00 -0.23247454857E+02  0.23247454857E+02  0.00000000000E+00 0. -1.
         24    2    1    2    0    0  0.33372774737E+02 -0.35110880805E+02  0.13273118711E+03  0.16305921196E+03  0.81389326872E+02 0.  0.
        -11    1    3    3    0    0 -0.12126682751E+02  0.19509993225E+02  0.24648239582E+02  0.33693203835E+02  0.00000000000E+00 0.  1.
         12    1    3    3    0    0  0.45499457489E+02 -0.54620874030E+02  0.10808294753E+03  0.12936600812E+03  0.00000000000E+00 0. -1.
         -4    1    1    2    0  502 -0.33372774737E+02  0.35110880805E+02  0.64488239261E+02  0.80655124125E+02  0.00000000000E+00 0.  1.
<mgrwt>
<rscale>  1 0.94713983E+02</rscale>
<asrwt>0</asrwt>
<pdfrwt beam="1">  1       21 0.35765317E-02 0.94713983E+02</pdfrwt>
<pdfrwt beam="2">  1       -3 0.33917980E-01 0.94713983E+02</pdfrwt>
<totfact> 0.18128417E+05</totfact>
</mgrwt>
</event>
<event>
 6    2  0.9453093E+000  0.8659397E+02  0.7546771E-02  0.1311316E+00
         21   -1    0    0  501  502  0.00000000000E+00  0.00000000000E+00  0.13466624012E+02  0.13466624012E+02  0.00000000000E+00 0. -1.
          2   -1    0    0  502    0 -0.00000000000E+00 -0.00000000000E+00 -0.11444251045E+04  0.11444251045E+04  0.00000000000E+00 0. -1.
         24    2    1    2    0    0  0.24328413231E+02 -0.14571046908E+02 -0.11257299618E+04  0.11290555619E+04  0.81818872125E+02 0.  0.
        -11    1    3    3    0    0  0.17685786204E+02  0.95523570235E+01 -0.65146324623E+02  0.68176815490E+02  0.00000000000E+00 0.  1.
         12    1    3    3    0    0  0.66426270262E+01 -0.24123403932E+02 -0.10605836372E+04  0.10608787464E+04  0.00000000000E+00 0. -1.
          1    1    1    2  501    0 -0.24328413231E+02  0.14571046908E+02 -0.52285186955E+01  0.28836166633E+02  0.00000000000E+00 0. -1.
<mgrwt>
<rscale>  1 0.86593966E+02</rscale>
<asrwt>0</asrwt>
<pdfrwt beam="1">  1       21 0.20717880E-02 0.86593966E+02</pdfrwt>
<pdfrwt beam="2">  1        2 0.17606543E+00 0.86593966E+02</pdfrwt>
<totfact> 0.31080813E+05</totfact>
</mgrwt>
</event>
<event>
 6    2  0.9453093E+000  0.9516740E+02  0.7546771E-02  0.1290800E+00
         21   -1    0    0  501  502  0.00000000000E+00  0.00000000000E+00  0.97380669297E+02  0.97380669297E+02  0.00000000000E+00 0.  1.
          4   -1    0    0  502    0 -0.00000000000E+00 -0.00000000000E+00 -0.59331303987E+02  0.59331303987E+02  0.00000000000E+00 0. -1.
         24    2    1    2    0    0  0.52712800199E+02 -0.71837256652E+01  0.40565692760E+02  0.10345244716E+03  0.78908733196E+02 0.  0.
        -11    1    3    3    0    0 -0.73750632690E+01  0.13774496348E+02  0.36477842687E+02  0.39683262403E+02  0.00000000000E+00 0.  1.
         12    1    3    3    0    0  0.60087863468E+02 -0.20958222013E+02  0.40878500733E+01  0.63769184755E+02  0.00000000000E+00 0. -1.
          3    1    1    2  501    0 -0.52712800199E+02  0.71837256652E+01 -0.25163274505E+01  0.53259526125E+02  0.00000000000E+00 0. -1.
<mgrwt>
<rscale>  1 0.95167397E+02</rscale>
<asrwt>0</asrwt>
<pdfrwt beam="1">  1       21 0.14981641E-01 0.95167397E+02</pdfrwt>
<pdfrwt beam="2">  1        4 0.91278930E-02 0.95167397E+02</pdfrwt>
<totfact> 0.13268111E+05</totfact>
</mgrwt>
</event>
<event>
 6    2  0.9453093E+000  0.1057395E+03  0.7546771E-02  0.1268669E+00
         21   -1    0    0  501  502  0.00000000000E+00  0.00000000000E+00  0.61344202959E+01  0.61344202959E+01  0.00000000000E+00 0.  1.
          2   -1    0    0  502    0 -0.00000000000E+00 -0.00000000000E+00 -0.12366501250E+04  0.12366501250E+04  0.00000000000E+00 0. -1.
         24    2    1    2    0    0 -0.59835530905E+02 -0.32288935414E+02 -0.70389978333E+03  0.71179754474E+03  0.80981316521E+02 0.  0.
        -13    1    3    3    0    0 -0.61934614772E+01  0.25072141911E+02 -0.12913831357E+03  0.13169538829E+03  0.00000000000E+00 0.  1.
         14    1    3    3    0    0 -0.53642069427E+02 -0.57361077325E+02 -0.57476146975E+03  0.58010215645E+03  0.00000000000E+00 0. -1.
          1    1    1    2  501    0  0.59835530905E+02  0.32288935414E+02 -0.52661592140E+03  0.53098700058E+03  0.00000000000E+00 0. -1.
<mgrwt>
<rscale>  1 0.10573949E+03</rscale>
<asrwt>0</asrwt>
<pdfrwt beam="1">  1       21 0.94375535E-03 0.10573949E+03</pdfrwt>
<pdfrwt beam="2">  1        2 0.19025419E+00 0.10573949E+03</pdfrwt>
<totfact> 0.97111696E+05</totfact>
</mgrwt>
</event>
<event>
 6    2  0.9453093E+000  0.9932205E+02  0.7546771E-02  0.1281728E+00
         -3   -1    0    0    0  501 -0.00000000000E+00  0.00000000000E+00  0.21541244920E+02  0.21541244920E+02  0.00000000000E+00 0.  1.
         21   -1    0    0  501  502  0.00000000000E+00 -0.00000000000E+00 -0.29732305067E+03  0.29732305067E+03  0.00000000000E+00 0. -1.
         24    2    1    2    0    0  0.20078093315E+02 -0.56156674427E+02 -0.18991028252E+03  0.21431468815E+03  0.79423977718E+02 0.  0.
        -13    1    3    3    0    0 -0.85550785491E+01  0.14351116545E+02 -0.72491405741E+02  0.74391853192E+02  0.00000000000E+00 0.  1.
         14    1    3    3    0    0  0.28633171864E+02 -0.70507790973E+02 -0.11741887678E+03  0.13992283496E+03  0.00000000000E+00 0. -1.
         -4    1    1    2    0  502 -0.20078093315E+02  0.56156674427E+02 -0.85871523229E+02  0.10454960744E+03  0.00000000000E+00 0.  1.
<mgrwt>
<rscale>  1 0.99322053E+02</rscale>
<asrwt>0</asrwt>
<pdfrwt beam="1">  1       21 0.45742005E-01 0.99322053E+02</pdfrwt>
<pdfrwt beam="2">  1       -3 0.33140379E-02 0.99322053E+02</pdfrwt>
<totfact> 0.92253337E+04</totfact>
</mgrwt>
</event>
<event>
 6    2  0.9453093E+000  0.9467081E+02  0.7546771E-02  0.1291919E+00
         21   -1    0    0  501  502  0.00000000000E+00  0.00000000000E+00  0.12805969449E+03  0.12805969449E+03  0.00000000000E+00 0. -1.
          2   -1    0    0  502    0 -0.00000000000E+00 -0.00000000000E+00 -0.70234503918E+03  0.70234503918E+03  0.00000000000E+00 0. -1.
         24    2    1    2    0    0 -0.39467523325E+02  0.15780928061E+02 -0.69552059186E+03  0.70193408238E+03  0.84592193572E+02 0.  0.
        -11    1    3    3    0    0  0.27282975953E+01 -0.20648962070E+02 -0.52189306133E+02  0.56192053860E+02  0.00000000000E+00 0.  1.
         12    1    3    3    0    0 -0.42195820921E+02  0.36429890131E+02 -0.64333128573E+03  0.64574202852E+03  0.00000000000E+00 0. -1.
          1    1    1    2  501    0  0.39467523325E+02 -0.15780928061E+02  0.12123524717E+03  0.12847065129E+03  0.00000000000E+00 0. -1.
<mgrwt>
<rscale>  1 0.94670810E+02</rscale>
<asrwt>0</asrwt>
<pdfrwt beam="1">  1       21 0.19701491E-01 0.94670810E+02</pdfrwt>
<pdfrwt beam="2">  1        2 0.10805309E+00 0.94670810E+02</pdfrwt>
<totfact> 0.12825958E+04</totfact>
</mgrwt>
</event>
<event>
 6    2  0.9453093E+000  0.9079139E+02  0.7546771E-02  0.1300946E+00
          2   -1    0    0  502    0 -0.00000000000E+00  0.00000000000E+00  0.15010212758E+04  0.15010212758E+04  0.00000000000E+00 0. -1.
         21   -1    0    0  501  502  0.00000000000E+00 -0.00000000000E+00 -0.26371162892E+01  0.26371162892E+01  0.00000000000E+00 0.  1.
         24    2    1    2    0    0  0.98009893395E+01 -0.18797153561E+02  0.14035640880E+04  0.14064975032E+04  0.88281849364E+02 0.  0.
        -13    1    3    3    0    0  0.33399221930E+02 -0.19221678530E+02  0.27502077822E+03  0.27770741690E+03  0.00000000000E+00 0.  1.
         14    1    3    3    0    0 -0.23598232590E+02  0.42452496919E+00  0.11285433098E+04  0.11287900863E+04  0.00000000000E+00 0. -1.
          1    1    1    2  501    0 -0.98009893395E+01  0.18797153561E+02  0.94820071472E+02  0.97160888880E+02  0.00000000000E+00 0. -1.
<mgrwt>
<rscale>  1 0.90791394E+02</rscale>
<asrwt>0</asrwt>
<pdfrwt beam="1">  1       21 0.40571140E-03 0.90791394E+02</pdfrwt>
<pdfrwt beam="2">  1        2 0.23092567E+00 0.90791394E+02</pdfrwt>
<totfact> 0.25706899E+06</totfact>
</mgrwt>
</event>
<event>
 6    2  0.9453093E+000  0.8815004E+02  0.7546771E-02  0.1307394E+00
         21   -1    0    0  501  502  0.00000000000E+00  0.00000000000E+00  0.32428465480E+03  0.32428465480E+03  0.00000000000E+00 0.  1.
         -1   -1    0    0    0  501 -0.00000000000E+00 -0.00000000000E+00 -0.45132157119E+02  0.45132157119E+02  0.00000000000E+00 0.  1.
         24    2    1    2    0    0 -0.84960014741E+01  0.34996738722E+02  0.20104359924E+00  0.88150270190E+02  0.80457914178E+02 0.  0.
        -13    1    3    3    0    0 -0.29610175478E+02 -0.47616744260E+01 -0.22728395264E+02  0.37629987862E+02  0.00000000000E+00 0.  1.
         14    1    3    3    0    0  0.21114174004E+02  0.39758413148E+02  0.22929438864E+02  0.50520282328E+02  0.00000000000E+00 0. -1.
         -2    1    1    2    0  502  0.84960014741E+01 -0.34996738722E+02  0.27895145408E+03  0.28126654173E+03  0.00000000000E+00 0.  1.
<mgrwt>
<rscale>  1 0.88150041E+02</rscale>
<asrwt>0</asrwt>
<pdfrwt beam="1">  1       21 0.49889945E-01 0.88150041E+02</pdfrwt>
<pdfrwt beam="2">  1       -1 0.69434090E-02 0.88150041E+02</pdfrwt>
<totfact> 0.35762249E+04</totfact>
</mgrwt>
</event>
<event>
 6    2  0.9453093E+000  0.5691954E+02  0.7546771E-02  0.1411233E+00
         21   -1    0    0  501  502  0.00000000000E+00  0.00000000000E+00  0.55615127668E+00  0.55615127668E+00  0.00000000000E+00 0. -1.
          2   -1    0    0  502    0 -0.00000000000E+00 -0.00000000000E+00 -0.29694632776E+04  0.29694632776E+04  0.00000000000E+00 0. -1.
         24    2    1    2    0    0 -0.76741095138E+01 -0.21555084252E+02 -0.23507368555E+04  0.23514258650E+04  0.52118335442E+02 0.  0.
        -13    1    3    3    0    0 -0.23730985012E+01 -0.17032542518E+01 -0.68235623999E+01  0.74225113923E+01  0.00000000000E+00 0.  1.
         14    1    3    3    0    0 -0.53010110125E+01 -0.19851830000E+02 -0.23439132931E+04  0.23440033536E+04  0.00000000000E+00 0. -1.
          1    1    1    2  501    0  0.76741095138E+01  0.21555084252E+02 -0.61817027077E+03  0.61859356388E+03  0.00000000000E+00 0. -1.
<mgrwt>
<rscale>  1 0.56919544E+02</rscale>
<asrwt>0</asrwt>
<pdfrwt beam="1">  1       21 0.85561203E-04 0.56919544E+02</pdfrwt>
<pdfrwt beam="2">  1        2 0.45684334E+00 0.56919544E+02</pdfrwt>
<totfact> 0.44238615E+06</totfact>
</mgrwt>
</event>
<event>
 6    2  0.9453093E+000  0.7984526E+02  0.7546771E-02  0.1329491E+00
         -1   -1    0    0    0  501 -0.00000000000E+00  0.00000000000E+00  0.17299823315E+04  0.17299823315E+04  0.00000000000E+00 0.  1.
         21   -1    0    0  501  502  0.00000000000E+00 -0.00000000000E+00 -0.21692712183E+01  0.21692712183E+01  0.00000000000E+00 0.  1.
         24    2    1    2    0    0 -0.35514076216E+02 -0.89723210733E+01  0.90217378757E+03  0.90570017596E+03  0.70947259228E+02 0.  0.
        -13    1    3    3    0    0 -0.95487027346E+01 -0.36180958661E+02  0.60496442350E+03  0.60612060945E+03  0.00000000000E+00 0.  1.
         14    1    3    3    0    0 -0.25965373481E+02  0.27208637588E+02  0.29720936407E+03  0.29957956651E+03  0.00000000000E+00 0. -1.
         -2    1    1    2    0  502  0.35514076216E+02  0.89723210733E+01  0.82563927272E+03  0.82645142677E+03  0.00000000000E+00 0.  1.
<mgrwt>
<rscale>  1 0.79845261E+02</rscale>
<asrwt>0</asrwt>
<pdfrwt beam="1">  1       21 0.33373542E-03 0.79845261E+02</pdfrwt>
<pdfrwt beam="2">  1       -1 0.26615002E+00 0.79845261E+02</pdfrwt>
<totfact> 0.12102563E+05</totfact>
</mgrwt>
</event>
<event>
 6    2  0.9453093E+000  0.1074575E+03  0.7546771E-02  0.1265352E+00
          2   -1    0    0  502    0 -0.00000000000E+00  0.00000000000E+00  0.79696974638E+01  0.79696974638E+01  0.00000000000E+00 0. -1.
         21   -1    0    0  501  502  0.00000000000E+00 -0.00000000000E+00 -0.11272652807E+04  0.11272652807E+04  0.00000000000E+00 0. -1.
         24    2    1    2    0    0 -0.51874895931E+02 -0.49397711860E+02 -0.47682176382E+03  0.48878022538E+03  0.80099784660E+02 0.  0.
        -11    1    3    3    0    0 -0.24911638815E+02  0.18608913401E+02 -0.93350557404E+02  0.98393129710E+02  0.00000000000E+00 0.  1.
         12    1    3    3    0    0 -0.26963257116E+02 -0.68006625261E+02 -0.38347120642E+03  0.39038709567E+03  0.00000000000E+00 0. -1.
          1    1    1    2  501    0  0.51874895931E+02  0.49397711860E+02 -0.64247381942E+03  0.64645475279E+03  0.00000000000E+00 0. -1.
<mgrwt>
<rscale>  1 0.10745750E+03</rscale>
<asrwt>0</asrwt>
<pdfrwt beam="1">  1       21 0.17342554E+00 0.10745750E+03</pdfrwt>
<pdfrwt beam="2">  1        2 0.12261065E-02 0.10745750E+03</pdfrwt>
<totfact> 0.26130238E+04</totfact>
</mgrwt>
</event>
<event>
 6    2  0.9453093E+000  0.8975209E+02  0.7546771E-02  0.1303453E+00
         21   -1    0    0  501  502  0.00000000000E+00  0.00000000000E+00  0.14450808998E+02  0.14450808998E+02  0.00000000000E+00 0. -1.
         -1   -1    0    0    0  501 -0.00000000000E+00 -0.00000000000E+00 -0.28606062033E+03  0.28606062033E+03  0.00000000000E+00 0.  1.
         24    2    1    2    0    0  0.28935919062E+02  0.25843640022E+02 -0.18613499065E+03  0.20664383049E+03  0.80933656734E+02 0.  0.
        -13    1    3    3    0    0  0.55904798696E+02  0.13745967761E+02 -0.14482784651E+03  0.15585057995E+03  0.00000000000E+00 0.  1.
         14    1    3    3    0    0 -0.26968879634E+02  0.12097672261E+02 -0.41307144143E+02  0.50793250537E+02  0.00000000000E+00 0. -1.
         -2    1    1    2    0  502 -0.28935919062E+02 -0.25843640022E+02 -0.85474820683E+02  0.93867598842E+02  0.00000000000E+00 0.  1.
<mgrwt>
<rscale>  1 0.89752092E+02</rscale>
<asrwt>0</asrwt>
<pdfrwt beam="1">  1       21 0.22232014E-02 0.89752092E+02</pdfrwt>
<pdfrwt beam="2">  1       -1 0.44009326E-01 0.89752092E+02</pdfrwt>
<totfact> 0.46453999E+05</totfact>
</mgrwt>
</event>
<event>
 6    2  0.9453093E+000  0.8048053E+02  0.7546771E-02  0.1327693E+00
         21   -1    0    0  501  502  0.00000000000E+00  0.00000000000E+00  0.20018633748E+02  0.20018633748E+02  0.00000000000E+00 0. -1.
          2   -1    0    0  502    0 -0.00000000000E+00 -0.00000000000E+00 -0.10191417640E+04  0.10191417640E+04  0.00000000000E+00 0. -1.
         24    2    1    2    0    0  0.13176156333E+02 -0.16731471178E+02 -0.10113875643E+04  0.10145846055E+04  0.77611618145E+02 0.  0.
        -13    1    3    3    0    0  0.74632709995E+01  0.21572150335E+02 -0.10890775237E+03  0.11127424056E+03  0.00000000000E+00 0.  1.
         14    1    3    3    0    0  0.57128853333E+01 -0.38303621513E+02 -0.90247981191E+03  0.90331036492E+03  0.00000000000E+00 0. -1.
          1    1    1    2  501    0 -0.13176156333E+02  0.16731471178E+02  0.12264434030E+02  0.24575792268E+02  0.00000000000E+00 0. -1.
<mgrwt>
<rscale>  1 0.80480535E+02</rscale>
<asrwt>0</asrwt>
<pdfrwt beam="1">  1       21 0.30797902E-02 0.80480535E+02</pdfrwt>
<pdfrwt beam="2">  1        2 0.15679102E+00 0.80480535E+02</pdfrwt>
<totfact> 0.19246473E+05</totfact>
</mgrwt>
</event>
<event>
 6    2  0.9453093E+000  0.8954741E+02  0.7546771E-02  0.1303951E+00
          4   -1    0    0  502    0 -0.00000000000E+00  0.00000000000E+00  0.10496534846E+04  0.10496534846E+04  0.00000000000E+00 0. -1.
         21   -1    0    0  501  502  0.00000000000E+00 -0.00000000000E+00 -0.54528814773E+01  0.54528814773E+01  0.00000000000E+00 0.  1.
         24    2    1    2    0    0 -0.30466480531E+02 -0.28153979397E+02  0.91587694802E+03  0.92024416436E+03  0.79359215840E+02 0.  0.
        -11    1    3    3    0    0  0.21420689832E+02 -0.13057706924E+02  0.12324817548E+03  0.12577544443E+03  0.00000000000E+00 0.  1.
         12    1    3    3    0    0 -0.51887170363E+02 -0.15096272473E+02  0.79262877254E+03  0.79446871993E+03  0.00000000000E+00 0. -1.
          3    1    1    2  501    0  0.30466480531E+02  0.28153979397E+02  0.12832365508E+03  0.13486220169E+03  0.00000000000E+00 0. -1.
<mgrwt>
<rscale>  1 0.89547407E+02</rscale>
<asrwt>0</asrwt>
<pdfrwt beam="1">  1       21 0.83890568E-03 0.89547407E+02</pdfrwt>
<pdfrwt beam="2">  1        4 0.16148499E+00 0.89547407E+02</pdfrwt>
<totfact> 0.49668624E+04</totfact>
</mgrwt>
</event>
<event>
 6    2  0.9453093E+000  0.8402920E+02  0.7546771E-02  0.1317991E+00
         21   -1    0    0  501  502  0.00000000000E+00  0.00000000000E+00  0.78609508798E+00  0.78609508798E+00  0.00000000000E+00 0. -1.
          2   -1    0    0  502    0 -0.00000000000E+00 -0.00000000000E+00 -0.35732051032E+04  0.35732051032E+04  0.00000000000E+00 0. -1.
         24    2    1    2    0    0 -0.11352311796E+02 -0.18293413092E+02 -0.27038454232E+04  0.27051508238E+04  0.81224275698E+02 0.  0.
        -13    1    3    3    0    0  0.23206811078E+02 -0.93612319400E+01 -0.30043042889E+03  0.30147078025E+03  0.00000000000E+00 0.  1.
         14    1    3    3    0    0 -0.34559122874E+02 -0.89321811518E+01 -0.24034149943E+04  0.24036800435E+04  0.00000000000E+00 0. -1.
          1    1    1    2  501    0  0.11352311796E+02  0.18293413092E+02 -0.86857358493E+03  0.86884037451E+03  0.00000000000E+00 0. -1.
<mgrwt>
<rscale>  1 0.84029203E+02</rscale>
<asrwt>0</asrwt>
<pdfrwt beam="1">  1       21 0.12093801E-03 0.84029203E+02</pdfrwt>
<pdfrwt beam="2">  1        2 0.54972247E+00 0.84029203E+02</pdfrwt>
<totfact> 0.11798430E+06</totfact>
</mgrwt>
</event>
<event>
 6    2  0.9453093E+000  0.9824568E+02  0.7546771E-02  0.1284029E+00
         21   -1    0    0  501  502  0.00000000000E+00  0.00000000000E+00  0.13358832604E+02  0.13358832604E+02  0.00000000000E+00 0.  1.
         -3   -1    0    0    0  501 -0.00000000000E+00 -0.00000000000E+00 -0.47937596822E+03  0.47937596822E+03  0.00000000000E+00 0.  1.
         24    2    1    2    0    0  0.51691291105E+02 -0.21196320489E+02 -0.22832102504E+03  0.24856126712E+03  0.80814228070E+02 0.  0.
        -13    1    3    3    0    0  0.62317350182E+02 -0.30924833841E+02 -0.22232694950E+03  0.23295722774E+03  0.00000000000E+00 0.  1.
         14    1    3    3    0    0 -0.10626059076E+02  0.97285133527E+01 -0.59940755468E+01  0.15604039388E+02  0.00000000000E+00 0. -1.
         -4    1    1    2    0  502 -0.51691291105E+02  0.21196320489E+02 -0.23769611057E+03  0.24417353370E+03  0.00000000000E+00 0.  1.
<mgrwt>
<rscale>  1 0.98245677E+02</rscale>
<asrwt>0</asrwt>
<pdfrwt beam="1">  1       21 0.20552049E-02 0.98245677E+02</pdfrwt>
<pdfrwt beam="2">  1       -3 0.73750152E-01 0.98245677E+02</pdfrwt>
<totfact> 0.95766978E+04</totfact>
</mgrwt>
</event>
<event>
 6    2  0.9453093E+000  0.9506406E+02  0.7546771E-02  0.1291032E+00
          2   -1    0    0  502    0 -0.00000000000E+00  0.00000000000E+00  0.15145375709E+04  0.15145375709E+04  0.00000000000E+00 0. -1.
         21   -1    0    0  501  502  0.00000000000E+00 -0.00000000000E+00 -0.45245514742E+01  0.45245514742E+01  0.00000000000E+00 0. -1.
         24    2    1    2    0    0  0.27318877293E+02 -0.41843946804E+02  0.12875868894E+04  0.12910914658E+04  0.80869885407E+02 0.  0.
        -11    1    3    3    0    0  0.29778688609E+02 -0.40008839640E+02  0.35365147139E+03  0.35715100555E+03  0.00000000000E+00 0.  1.
         12    1    3    3    0    0 -0.24598113164E+01 -0.18351071641E+01  0.93393541799E+03  0.93394046023E+03  0.00000000000E+00 0. -1.
          1    1    1    2  501    0 -0.27318877293E+02  0.41843946804E+02  0.22242613002E+03  0.22797065657E+03  0.00000000000E+00 0. -1.
<mgrwt>
<rscale>  1 0.95064059E+02</rscale>
<asrwt>0</asrwt>
<pdfrwt beam="1">  1       21 0.69608605E-03 0.95064059E+02</pdfrwt>
<pdfrwt beam="2">  1        2 0.23300538E+00 0.95064059E+02</pdfrwt>
<totfact> 0.11078773E+06</totfact>
</mgrwt>
</event>
<event>
 6    2  0.9453093E+000  0.8396556E+02  0.7546771E-02  0.1318160E+00
         -1   -1    0    0    0  501 -0.00000000000E+00  0.00000000000E+00  0.61590363099E+03  0.61590363099E+03  0.00000000000E+00 0.  1.
         21   -1    0    0  501  502  0.00000000000E+00 -0.00000000000E+00 -0.65639856086E+01  0.65639856086E+01  0.00000000000E+00 0. -1.
         24    2    1    2    0    0 -0.45764801229E+01 -0.26569491355E+02  0.55984231379E+03  0.56610390597E+03  0.79519393879E+02 0.  0.
        -13    1    3    3    0    0  0.17145389528E+02  0.23508280968E+02  0.21736327187E+03  0.21930206477E+03  0.00000000000E+00 0.  1.
         14    1    3    3    0    0 -0.21721869651E+02 -0.50077772323E+02  0.34247904193E+03  0.34680184120E+03  0.00000000000E+00 0. -1.
         -2    1    1    2    0  502  0.45764801229E+01  0.26569491355E+02  0.49497331589E+02  0.56363710627E+02  0.00000000000E+00 0.  1.
<mgrwt>
<rscale>  1 0.83965565E+02</rscale>
<asrwt>0</asrwt>
<pdfrwt beam="1">  1       21 0.10098444E-02 0.83965565E+02</pdfrwt>
<pdfrwt beam="2">  1       -1 0.94754359E-01 0.83965565E+02</pdfrwt>
<totfact> 0.36817602E+05</totfact>
</mgrwt>
</event>
<event>
 6    2  0.9453093E+000  0.8103805E+02  0.7546771E-02  0.1326131E+00
          4   -1    0    0  502    0 -0.00000000000E+00  0.00000000000E+00  0.37438686210E+01  0.37438686210E+01  0.00000000000E+00 0. -1.
         21   -1    0    0  501  502  0.00000000000E+00 -0.00000000000E+00 -0.71180979296E+03  0.71180979296E+03  0.00000000000E+00 0. -1.
         24    2    1    2    0    0  0.17748972119E+02  0.12454810247E+02 -0.58600847676E+03  0.59158524295E+03  0.78083394689E+02 0.  0.
        -11    1    3    3    0    0  0.18632252099E+02 -0.28326664765E+02 -0.38435004614E+03  0.38584260874E+03  0.00000000000E+00 0.  1.
         12    1    3    3    0    0 -0.88327998019E+00  0.40781475012E+02 -0.20165843063E+03  0.20574263421E+03  0.00000000000E+00 0. -1.
          3    1    1    2  501    0 -0.17748972119E+02 -0.12454810247E+02 -0.12205744757E+03  0.12396841863E+03  0.00000000000E+00 0. -1.
<mgrwt>
<rscale>  1 0.81038046E+02</rscale>
<asrwt>0</asrwt>
<pdfrwt beam="1">  1       21 0.10950915E+00 0.81038046E+02</pdfrwt>
<pdfrwt beam="2">  1        4 0.57598003E-03 0.81038046E+02</pdfrwt>
<totfact> 0.16920372E+05</totfact>
</mgrwt>
</event>
<event>
 6    2  0.9453093E+000  0.8549620E+02  0.7546771E-02  0.1314140E+00
         21   -1    0    0  501  502  0.00000000000E+00  0.00000000000E+00  0.90665331393E+02  0.90665331393E+02  0.00000000000E+00 0.  1.
          2   -1    0    0  502    0 -0.00000000000E+00 -0.00000000000E+00 -0.43351541875E+02  0.43351541875E+02  0.00000000000E+00 0. -1.
         24    2    1    2    0    0 -0.11971581649E+02 -0.28087380565E+02  0.10421724953E+02  0.86129044522E+02  0.79858501395E+02 0.  0.
        -11    1    3    3    0    0 -0.39748282425E+02 -0.30366805752E+02  0.23590481513E+02  0.55304427176E+02  0.00000000000E+00 0.  1.
         12    1    3    3    0    0  0.27776700776E+02  0.22794251865E+01 -0.13168756560E+02  0.30824617346E+02  0.00000000000E+00 0. -1.
          1    1    1    2  501    0  0.11971581649E+02  0.28087380565E+02  0.36892064565E+02  0.47887828746E+02  0.00000000000E+00 0. -1.
<mgrwt>
<rscale>  1 0.85496199E+02</rscale>
<asrwt>0</asrwt>
<pdfrwt beam="1">  1       21 0.13948513E-01 0.85496199E+02</pdfrwt>
<pdfrwt beam="2">  1        2 0.66694680E-02 0.85496199E+02</pdfrwt>
<totfact> 0.54057726E+05</totfact>
</mgrwt>
</event>
<event>
 6    2  0.9453093E+000  0.8272115E+02  0.7546771E-02  0.1321502E+00
          2   -1    0    0  502    0 -0.00000000000E+00  0.00000000000E+00  0.51984674345E+03  0.51984674345E+03  0.00000000000E+00 0. -1.
         21   -1    0    0  501  502  0.00000000000E+00 -0.00000000000E+00 -0.55191209626E+01  0.55191209626E+01  0.00000000000E+00 0.  1.
         24    2    1    2    0    0 -0.15241866104E+02 -0.13924622265E+02  0.45718263063E+03  0.46460601186E+03  0.80103551241E+02 0.  0.
        -13    1    3    3    0    0  0.25896252826E+02 -0.17449603602E+02  0.93268317862E+02  0.98356919905E+02  0.00000000000E+00 0.  1.
         14    1    3    3    0    0 -0.41138118931E+02  0.35249813371E+01  0.36391431276E+03  0.36624909195E+03  0.00000000000E+00 0. -1.
          1    1    1    2  501    0  0.15241866104E+02  0.13924622265E+02  0.57144991865E+02  0.60759852557E+02  0.00000000000E+00 0. -1.
<mgrwt>
<rscale>  1 0.82721149E+02</rscale>
<asrwt>0</asrwt>
<pdfrwt beam="1">  1       21 0.84909594E-03 0.82721149E+02</pdfrwt>
<pdfrwt beam="2">  1        2 0.79976383E-01 0.82721149E+02</pdfrwt>
<totfact> 0.33111033E+06</totfact>
</mgrwt>
</event>
<event>
 6    2  0.9453093E+000  0.8941828E+02  0.7546771E-02  0.1304267E+00
         21   -1    0    0  501  502  0.00000000000E+00  0.00000000000E+00  0.21151607869E+02  0.21151607869E+02  0.00000000000E+00 0.  1.
          2   -1    0    0  502    0 -0.00000000000E+00 -0.00000000000E+00 -0.22244217291E+03  0.22244217291E+03  0.00000000000E+00 0. -1.
         24    2    1    2    0    0 -0.40599545091E+02 -0.46086233720E+00 -0.98281924464E+02  0.13287198758E+03  0.79668644720E+02 0.  0.
        -11    1    3    3    0    0 -0.54162295048E+02 -0.12915361642E+02 -0.32305039223E+02  0.64373723913E+02  0.00000000000E+00 0.  1.
         12    1    3    3    0    0  0.13562749957E+02  0.12454499305E+02 -0.65976885240E+02  0.68498263667E+02  0.00000000000E+00 0. -1.
          1    1    1    2  501    0  0.40599545091E+02  0.46086233720E+00 -0.10300864058E+03  0.11072179320E+03  0.00000000000E+00 0. -1.
<mgrwt>
<rscale>  1 0.89418278E+02</rscale>
<asrwt>0</asrwt>
<pdfrwt beam="1">  1       21 0.32540935E-02 0.89418278E+02</pdfrwt>
<pdfrwt beam="2">  1        2 0.34221873E-01 0.89418278E+02</pdfrwt>
<totfact> 0.96623455E+05</totfact>
</mgrwt>
</event>
<event>
 6    2  0.9453093E+000  0.9668367E+02  0.7546771E-02  0.1287428E+00
          2   -1    0    0  502    0 -0.00000000000E+00  0.00000000000E+00  0.29949807478E+03  0.29949807478E+03  0.00000000000E+00 0. -1.
         21   -1    0    0  501  502  0.00000000000E+00 -0.00000000000E+00 -0.32462307034E+02  0.32462307034E+02  0.00000000000E+00 0. -1.
         24    2    1    2    0    0  0.13659324883E+02 -0.52814896490E+02  0.25945469755E+03  0.27688349853E+03  0.79823187286E+02 0.  0.
        -11    1    3    3    0    0  0.35078479443E+01  0.12369762188E+02  0.46425026742E+01  0.13669997984E+02  0.00000000000E+00 0.  1.
         12    1    3    3    0    0  0.10151476939E+02 -0.65184658678E+02  0.25481219487E+03  0.26321350054E+03  0.00000000000E+00 0. -1.
          1    1    1    2  501    0 -0.13659324883E+02  0.52814896490E+02  0.75810701990E+01  0.55076883289E+02  0.00000000000E+00 0. -1.
<mgrwt>
<rscale>  1 0.96683668E+02</rscale>
<asrwt>0</asrwt>
<pdfrwt beam="1">  1       21 0.49942013E-02 0.96683668E+02</pdfrwt>
<pdfrwt beam="2">  1        2 0.46076625E-01 0.96683668E+02</pdfrwt>
<totfact> 0.35126977E+05</totfact>
</mgrwt>
</event>
<event>
 6    2  0.9453093E+000  0.1897891E+03  0.7546771E-02  0.1158652E+00
          2   -1    0    0  502    0 -0.00000000000E+00  0.00000000000E+00  0.72285426670E+02  0.72285426670E+02  0.00000000000E+00 0. -1.
         21   -1    0    0  501  502  0.00000000000E+00 -0.00000000000E+00 -0.10274651896E+04  0.10274651896E+04  0.00000000000E+00 0. -1.
         24    2    1    2    0    0  0.12247972844E+03 -0.11633485538E+03 -0.75919330408E+02  0.20441046267E+03  0.86514796779E+02 0.  0.
        -13    1    3    3    0    0  0.66874334232E+02 -0.21203279011E+02  0.77066611847E+00  0.70159457994E+02  0.00000000000E+00 0.  1.
         14    1    3    3    0    0  0.55605394210E+02 -0.95131576370E+02 -0.76689996526E+02  0.13425100467E+03  0.00000000000E+00 0. -1.
          1    1    1    2  501    0 -0.12247972844E+03  0.11633485538E+03 -0.87926043249E+03  0.89534015357E+03  0.00000000000E+00 0. -1.
<mgrwt>
<rscale>  1 0.18978907E+03</rscale>
<asrwt>0</asrwt>
<pdfrwt beam="1">  1       21 0.15807156E+00 0.18978907E+03</pdfrwt>
<pdfrwt beam="2">  1        2 0.11120835E-01 0.18978907E+03</pdfrwt>
<totfact> 0.17712593E+03</totfact>
</mgrwt>
</event>
<event>
 6    2  0.9453093E+000  0.8854877E+02  0.7546771E-02  0.1306405E+00
         21   -1    0    0  501  502  0.00000000000E+00  0.00000000000E+00  0.44055161585E+01  0.44055161585E+01  0.00000000000E+00 0. -1.
          2   -1    0    0  502    0 -0.00000000000E+00 -0.00000000000E+00 -0.11091747928E+04  0.11091747928E+04  0.00000000000E+00 0. -1.
         24    2    1    2    0    0 -0.35400700446E+02 -0.78192340481E+01 -0.96955422598E+03  0.97358938090E+03  0.80786975885E+02 0.  0.
        -11    1    3    3    0    0  0.22158295595E+02  0.13942358069E+02 -0.23194121743E+03  0.23341402648E+03  0.00000000000E+00 0.  1.
         12    1    3    3    0    0 -0.57558996041E+02 -0.21761592117E+02 -0.73761300855E+03  0.74017535442E+03  0.00000000000E+00 0. -1.
          1    1    1    2  501    0  0.35400700446E+02  0.78192340481E+01 -0.13521505065E+03  0.13999092805E+03  0.00000000000E+00 0. -1.
<mgrwt>
<rscale>  1 0.88548775E+02</rscale>
<asrwt>0</asrwt>
<pdfrwt beam="1">  1       21 0.67777176E-03 0.88548775E+02</pdfrwt>
<pdfrwt beam="2">  1        2 0.17064227E+00 0.88548775E+02</pdfrwt>
<totfact> 0.18835267E+06</totfact>
</mgrwt>
</event>
<event>
 6    2  0.9453093E+000  0.8535584E+02  0.7546771E-02  0.1314505E+00
         21   -1    0    0  501  502  0.00000000000E+00  0.00000000000E+00  0.45025105595E+02  0.45025105595E+02  0.00000000000E+00 0. -1.
         -3   -1    0    0    0  501 -0.00000000000E+00 -0.00000000000E+00 -0.11563796631E+03  0.11563796631E+03  0.00000000000E+00 0.  1.
         24    2    1    2    0    0  0.27162447658E+02 -0.27392058314E+02 -0.61981372746E+01  0.85580583818E+02  0.76141289716E+02 0.  0.
        -11    1    3    3    0    0 -0.69139384320E+01 -0.31234779798E+02 -0.29984556408E+02  0.43846181552E+02  0.00000000000E+00 0.  1.
         12    1    3    3    0    0  0.34076386090E+02  0.38427214847E+01  0.23786419133E+02  0.41734402267E+02  0.00000000000E+00 0. -1.
         -4    1    1    2    0  502 -0.27162447658E+02  0.27392058314E+02 -0.64414723443E+02  0.75082488089E+02  0.00000000000E+00 0.  1.
<mgrwt>
<rscale>  1 0.85355840E+02</rscale>
<asrwt>0</asrwt>
<pdfrwt beam="1">  1       21 0.69269394E-02 0.85355840E+02</pdfrwt>
<pdfrwt beam="2">  1       -3 0.17790456E-01 0.85355840E+02</pdfrwt>
<totfact> 0.18823862E+05</totfact>
</mgrwt>
</event>
<event>
 6    2  0.9453093E+000  0.8766103E+02  0.7546771E-02  0.1308617E+00
         -1   -1    0    0    0  501 -0.00000000000E+00  0.00000000000E+00  0.27072148956E+02  0.27072148956E+02  0.00000000000E+00 0.  1.
         21   -1    0    0  501  502  0.00000000000E+00 -0.00000000000E+00 -0.13708437379E+03  0.13708437379E+03  0.00000000000E+00 0. -1.
         24    2    1    2    0    0 -0.85587070699E+01  0.32825829192E+02 -0.74458013362E+02  0.11501500789E+03  0.80831118744E+02 0.  0.
        -11    1    3    3    0    0 -0.32958778509E+02  0.16619817974E+02 -0.21215670644E+01  0.36972969547E+02  0.00000000000E+00 0.  1.
         12    1    3    3    0    0  0.24400071439E+02  0.16206011218E+02 -0.72336446298E+02  0.78042038344E+02  0.00000000000E+00 0. -1.
         -2    1    1    2    0  502  0.85587070699E+01 -0.32825829192E+02 -0.35554211470E+02  0.49141514854E+02  0.00000000000E+00 0.  1.
<mgrwt>
<rscale>  1 0.87661031E+02</rscale>
<asrwt>0</asrwt>
<pdfrwt beam="1">  1       21 0.21089904E-01 0.87661031E+02</pdfrwt>
<pdfrwt beam="2">  1       -1 0.41649458E-02 0.87661031E+02</pdfrwt>
<totfact> 0.39846649E+05</totfact>
</mgrwt>
</event>
<event>
 6    2  0.9453093E+000  0.8439357E+02  0.7546771E-02  0.1317026E+00
          2   -1    0    0  502    0 -0.00000000000E+00  0.00000000000E+00  0.41627373260E+02  0.41627373260E+02  0.00000000000E+00 0. -1.
         21   -1    0    0  501  502  0.00000000000E+00 -0.00000000000E+00 -0.13340321844E+03  0.13340321844E+03  0.00000000000E+00 0.  1.
         24    2    1    2    0    0 -0.23830219353E+02  0.11095107699E+02 -0.11314597495E+03  0.14115341331E+03  0.80195346942E+02 0.  0.
        -13    1    3    3    0    0 -0.43289542012E+02  0.33166639190E+02 -0.80145578457E+02  0.96939796518E+02  0.00000000000E+00 0.  1.
         14    1    3    3    0    0  0.19459322659E+02 -0.22071531492E+02 -0.33000396493E+02  0.44213616787E+02  0.00000000000E+00 0. -1.
          1    1    1    2  501    0  0.23830219353E+02 -0.11095107699E+02  0.21370129773E+02  0.33877178391E+02  0.00000000000E+00 0. -1.
<mgrwt>
<rscale>  1 0.84393569E+02</rscale>
<asrwt>0</asrwt>
<pdfrwt beam="1">  1       21 0.20523572E-01 0.84393569E+02</pdfrwt>
<pdfrwt beam="2">  1        2 0.64042113E-02 0.84393569E+02</pdfrwt>
<totfact> 0.28349021E+05</totfact>
</mgrwt>
</event>
<event>
 6    2  0.9453093E+000  0.8853416E+02  0.7546771E-02  0.1306441E+00
         21   -1    0    0  501  502  0.00000000000E+00  0.00000000000E+00  0.48700988390E+02  0.48700988390E+02  0.00000000000E+00 0.  1.
          4   -1    0    0  502    0 -0.00000000000E+00 -0.00000000000E+00 -0.83451223040E+02  0.83451223040E+02  0.00000000000E+00 0. -1.
         24    2    1    2    0    0  0.34526037677E+01  0.38005648128E+02 -0.31007131025E+02  0.93806930272E+02  0.79887096770E+02 0.  0.
        -11    1    3    3    0    0  0.90464563602E+01  0.46169759598E+02  0.12911366712E+02  0.48787175204E+02  0.00000000000E+00 0.  1.
         12    1    3    3    0    0 -0.55938525925E+01 -0.81641114701E+01 -0.43918497737E+02  0.45019755068E+02  0.00000000000E+00 0. -1.
          3    1    1    2  501    0 -0.34526037677E+01 -0.38005648128E+02 -0.37431036244E+01  0.38345281158E+02  0.00000000000E+00 0. -1.
<mgrwt>
<rscale>  1 0.88534163E+02</rscale>
<asrwt>0</asrwt>
<pdfrwt beam="1">  1       21 0.74924599E-02 0.88534163E+02</pdfrwt>
<pdfrwt beam="2">  1        4 0.12838649E-01 0.88534163E+02</pdfrwt>
<totfact> 0.24675205E+05</totfact>
</mgrwt>
</event>
<event>
 6    2  0.9453093E+000  0.8022464E+02  0.7546771E-02  0.1328415E+00
         21   -1    0    0  501  502  0.00000000000E+00  0.00000000000E+00  0.99342799898E+02  0.99342799898E+02  0.00000000000E+00 0.  1.
         -3   -1    0    0    0  501 -0.00000000000E+00 -0.00000000000E+00 -0.41317800855E+02  0.41317800855E+02  0.00000000000E+00 0.  1.
         24    2    1    2    0    0 -0.45684234228E+00 -0.22171099673E+02  0.18269086095E+01  0.80245439295E+02  0.77098810413E+02 0.  0.
        -11    1    3    3    0    0 -0.58665466711E+01 -0.46762739705E+02  0.17854035187E+02  0.50397785339E+02  0.00000000000E+00 0.  1.
         12    1    3    3    0    0  0.54097043288E+01  0.24591640032E+02 -0.16027126577E+02  0.29847653957E+02  0.00000000000E+00 0. -1.
         -4    1    1    2    0  502  0.45684234228E+00  0.22171099673E+02  0.56198090433E+02  0.60415161458E+02  0.00000000000E+00 0.  1.
<mgrwt>
<rscale>  1 0.80224640E+02</rscale>
<asrwt>0</asrwt>
<pdfrwt beam="1">  1       21 0.15283508E-01 0.80224640E+02</pdfrwt>
<pdfrwt beam="2">  1       -3 0.63565848E-02 0.80224640E+02</pdfrwt>
<totfact> 0.25689235E+05</totfact>
</mgrwt>
</event>
<event>
 6    2  0.9453093E+000  0.8411877E+02  0.7546771E-02  0.1317753E+00
         -3   -1    0    0    0  501 -0.00000000000E+00  0.00000000000E+00  0.18030606704E+02  0.18030606704E+02  0.00000000000E+00 0.  1.
         21   -1    0    0  501  502  0.00000000000E+00 -0.00000000000E+00 -0.16312794946E+03  0.16312794946E+03  0.00000000000E+00 0.  1.
         24    2    1    2    0    0 -0.15708416849E+02  0.18370820800E+02 -0.11689694644E+03  0.14401688456E+03  0.80571245093E+02 0.  0.
        -11    1    3    3    0    0  0.21125778003E+02  0.11181264730E+02 -0.10007513021E+03  0.10288999399E+03  0.00000000000E+00 0.  1.
         12    1    3    3    0    0 -0.36834194852E+02  0.71895560708E+01 -0.16821816230E+02  0.41126890573E+02  0.00000000000E+00 0. -1.
         -4    1    1    2    0  502  0.15708416849E+02 -0.18370820800E+02 -0.28200396318E+02  0.37141671600E+02  0.00000000000E+00 0.  1.
<mgrwt>
<rscale>  1 0.84118767E+02</rscale>
<asrwt>0</asrwt>
<pdfrwt beam="1">  1       21 0.25096608E-01 0.84118767E+02</pdfrwt>
<pdfrwt beam="2">  1       -3 0.27739394E-02 0.84118767E+02</pdfrwt>
<totfact> 0.37941509E+05</totfact>
</mgrwt>
</event>
<event>
 6    2  0.9453093E+000  0.1066715E+03  0.7546771E-02  0.1266861E+00
         21   -1    0    0  501  502  0.00000000000E+00  0.00000000000E+00  0.21630332099E+02  0.21630332099E+02  0.00000000000E+00 0. -1.
          2   -1    0    0  502    0 -0.00000000000E+00 -0.00000000000E+00 -0.35727640147E+03  0.35727640147E+03  0.00000000000E+00 0. -1.
         24    2    1    2    0    0 -0.52897558489E+02 -0.43994563119E+02 -0.19231554551E+03  0.21991833038E+03  0.81517665044E+02 0.  0.
        -11    1    3    3    0    0  0.35833704217E+01 -0.34962872621E+01  0.71290887495E+01  0.87113991183E+01  0.00000000000E+00 0.  1.
         12    1    3    3    0    0 -0.56480928911E+02 -0.40498275857E+02 -0.19944463426E+03  0.21120693127E+03  0.00000000000E+00 0. -1.
          1    1    1    2  501    0  0.52897558489E+02  0.43994563119E+02 -0.14333052385E+03  0.15898840318E+03  0.00000000000E+00 0. -1.
<mgrwt>
<rscale>  1 0.10667147E+03</rscale>
<asrwt>0</asrwt>
<pdfrwt beam="1">  1       21 0.33277435E-02 0.10667147E+03</pdfrwt>
<pdfrwt beam="2">  1        2 0.54965598E-01 0.10667147E+03</pdfrwt>
<totfact> 0.57536348E+05</totfact>
</mgrwt>
</event>
<event>
 6    2  0.9453093E+000  0.8544272E+02  0.7546771E-02  0.1314279E+00
         21   -1    0    0  501  502  0.00000000000E+00  0.00000000000E+00  0.28286615846E+01  0.28286615846E+01  0.00000000000E+00 0. -1.
          2   -1    0    0  502    0 -0.00000000000E+00 -0.00000000000E+00 -0.28048654618E+04  0.28048654618E+04  0.00000000000E+00 0. -1.
         24    2    1    2    0    0  0.19123287029E+02 -0.24641837754E+02 -0.26910900941E+04  0.26924461652E+04  0.79545820046E+02 0.  0.
        -13    1    3    3    0    0 -0.12185188640E+02  0.21084784966E+02 -0.43948937463E+03  0.44016355755E+03  0.00000000000E+00 0.  1.
         14    1    3    3    0    0  0.31308475669E+02 -0.45726622720E+02 -0.22516007195E+04  0.22522826077E+04  0.00000000000E+00 0. -1.
          1    1    1    2  501    0 -0.19123287029E+02  0.24641837754E+02 -0.11094670604E+03  0.11524795814E+03  0.00000000000E+00 0. -1.
<mgrwt>
<rscale>  1 0.85442716E+02</rscale>
<asrwt>0</asrwt>
<pdfrwt beam="1">  1       21 0.43518081E-03 0.85442716E+02</pdfrwt>
<pdfrwt beam="2">  1        2 0.43151568E+00 0.85442716E+02</pdfrwt>
<totfact> 0.49273538E+05</totfact>
</mgrwt>
</event>
<event>
 6    2  0.1190456E+001  0.8635877E+02  0.7546771E-02  0.1311917E+00
         -1   -1    0    0    0  501 -0.00000000000E+00  0.00000000000E+00  0.57295831931E+03  0.57295831931E+03  0.00000000000E+00 0.  1.
         21   -1    0    0  501  502  0.00000000000E+00 -0.00000000000E+00 -0.64505412857E+01  0.64505412857E+01  0.00000000000E+00 0. -1.
         24    2    1    2    0    0 -0.19637757718E+02 -0.26359145786E+02  0.35444778184E+03  0.36481648403E+03  0.79858567982E+02 0.  0.
        -13    1    3    3    0    0 -0.27702185753E+02 -0.29364695997E+01  0.32561096708E+03  0.32680045262E+03  0.00000000000E+00 0.  1.
         14    1    3    3    0    0  0.80644280344E+01 -0.23422676186E+02  0.28836814752E+02  0.38016031412E+02  0.00000000000E+00 0. -1.
         -2    1    1    2    0  502  0.19637757718E+02  0.26359145786E+02  0.21205999619E+03  0.21459237656E+03  0.00000000000E+00 0.  1.
<mgrwt>
<rscale>  1 0.86358769E+02</rscale>
<asrwt>0</asrwt>
<pdfrwt beam="1">  1       21 0.99239142E-03 0.86358769E+02</pdfrwt>
<pdfrwt beam="2">  1       -1 0.88147393E-01 0.86358769E+02</pdfrwt>
<totfact> 0.44181326E+05</totfact>
</mgrwt>
</event>
<event>
 6    2  0.9453093E+000  0.8558660E+02  0.7546771E-02  0.1313906E+00
          2   -1    0    0  502    0 -0.00000000000E+00  0.00000000000E+00  0.15404513391E+04  0.15404513391E+04  0.00000000000E+00 0. -1.
         21   -1    0    0  501  502  0.00000000000E+00 -0.00000000000E+00 -0.34109826157E+01  0.34109826157E+01  0.00000000000E+00 0.  1.
         24    2    1    2    0    0  0.18150182710E+02  0.27872206978E+02  0.14081828618E+04  0.14107813577E+04  0.78859227931E+02 0.  0.
        -13    1    3    3    0    0  0.18723439199E+01  0.38255520440E+02  0.30060726346E+03  0.30303748507E+03  0.00000000000E+00 0.  1.
         14    1    3    3    0    0  0.16277838790E+02 -0.10383313462E+02  0.11075755984E+04  0.11077438726E+04  0.00000000000E+00 0. -1.
          1    1    1    2  501    0 -0.18150182710E+02 -0.27872206978E+02  0.12885749461E+03  0.13308096397E+03  0.00000000000E+00 0. -1.
<mgrwt>
<rscale>  1 0.85586605E+02</rscale>
<asrwt>0</asrwt>
<pdfrwt beam="1">  1       21 0.52476779E-03 0.85586605E+02</pdfrwt>
<pdfrwt beam="2">  1        2 0.23699196E+00 0.85586605E+02</pdfrwt>
<totfact> 0.16486713E+06</totfact>
</mgrwt>
</event>
<event>
 6    2  0.9453093E+000  0.8660982E+02  0.7546771E-02  0.1311276E+00
         -3   -1    0    0    0  501 -0.00000000000E+00  0.00000000000E+00  0.36198437913E+03  0.36198437913E+03  0.00000000000E+00 0.  1.
         21   -1    0    0  501  502  0.00000000000E+00 -0.00000000000E+00 -0.99945011308E+01  0.99945011308E+01  0.00000000000E+00 0.  1.
         24    2    1    2    0    0 -0.17462717576E+02 -0.27985324852E+02  0.27193122537E+03  0.28539070108E+03  0.80082058056E+02 0.  0.
        -13    1    3    3    0    0 -0.46611822811E+02 -0.32884888902E+02  0.18086680814E+03  0.18964936127E+03  0.00000000000E+00 0.  1.
         14    1    3    3    0    0  0.29149105235E+02  0.48995640502E+01  0.91064417230E+02  0.95741339814E+02  0.00000000000E+00 0. -1.
         -4    1    1    2    0  502  0.17462717576E+02  0.27985324852E+02  0.80058652636E+02  0.86588179182E+02  0.00000000000E+00 0.  1.
<mgrwt>
<rscale>  1 0.86609820E+02</rscale>
<asrwt>0</asrwt>
<pdfrwt beam="1">  1       21 0.15376158E-02 0.86609820E+02</pdfrwt>
<pdfrwt beam="2">  1       -3 0.55689894E-01 0.86609820E+02</pdfrwt>
<totfact> 0.26656830E+05</totfact>
</mgrwt>
</event>
<event>
 6    2  0.9453093E+000  0.8354730E+02  0.7546771E-02  0.1319276E+00
          2   -1    0    0  502    0 -0.00000000000E+00  0.00000000000E+00  0.55035667950E+03  0.55035667950E+03  0.00000000000E+00 0. -1.
         21   -1    0    0  501  502  0.00000000000E+00 -0.00000000000E+00 -0.54360512393E+01  0.54360512393E+01  0.00000000000E+00 0. -1.
         24    2    1    2    0    0  0.12373212175E+02 -0.20151570195E+02  0.46504759258E+03  0.47249276682E+03  0.80130950123E+02 0.  0.
        -11    1    3    3    0    0 -0.72726856547E+00  0.13119555358E+02  0.11276642566E+02  0.17315147124E+02  0.00000000000E+00 0.  1.
         12    1    3    3    0    0  0.13100480740E+02 -0.33271125553E+02  0.45377095002E+03  0.45517761969E+03  0.00000000000E+00 0. -1.
          1    1    1    2  501    0 -0.12373212175E+02  0.20151570195E+02  0.79873035679E+02  0.83299963922E+02  0.00000000000E+00 0. -1.
<mgrwt>
<rscale>  1 0.83547300E+02</rscale>
<asrwt>0</asrwt>
<pdfrwt beam="1">  1       21 0.83631601E-03 0.83547300E+02</pdfrwt>
<pdfrwt beam="2">  1        2 0.84670215E-01 0.83547300E+02</pdfrwt>
<totfact> 0.31898811E+06</totfact>
</mgrwt>
</event>
<event>
 6    2  0.9453093E+000  0.8217422E+02  0.7546771E-02  0.1322992E+00
         -1   -1    0    0    0  501 -0.00000000000E+00  0.00000000000E+00  0.43913479055E+03  0.43913479055E+03  0.00000000000E+00 0.  1.
         21   -1    0    0  501  502  0.00000000000E+00 -0.00000000000E+00 -0.14558984843E+02  0.14558984843E+02  0.00000000000E+00 0.  1.
         24    2    1    2    0    0 -0.17305542908E+02 -0.10569813501E+02  0.42553143992E+03  0.43339313478E+03  0.79632908624E+02 0.  0.
        -13    1    3    3    0    0 -0.25752492771E+02  0.23806559206E+02  0.32350010544E+03  0.32539554602E+03  0.00000000000E+00 0.  1.
         14    1    3    3    0    0  0.84469498631E+01 -0.34376372707E+02  0.10203133448E+03  0.10799758876E+03  0.00000000000E+00 0. -1.
         -2    1    1    2    0  502  0.17305542908E+02  0.10569813501E+02 -0.95563421294E+00  0.20300640619E+02  0.00000000000E+00 0.  1.
<mgrwt>
<rscale>  1 0.82174223E+02</rscale>
<asrwt>0</asrwt>
<pdfrwt beam="1">  1       21 0.22398442E-02 0.82174223E+02</pdfrwt>
<pdfrwt beam="2">  1       -1 0.67559189E-01 0.82174223E+02</pdfrwt>
<totfact> 0.20687128E+05</totfact>
</mgrwt>
</event>
<event>
 6    2  0.9453093E+000  0.9809110E+02  0.7546771E-02  0.1284362E+00
          2   -1    0    0  502    0 -0.00000000000E+00  0.00000000000E+00  0.50708012026E+03  0.50708012026E+03  0.00000000000E+00 0. -1.
         21   -1    0    0  501  502  0.00000000000E+00 -0.00000000000E+00 -0.13763456005E+02  0.13763456005E+02  0.00000000000E+00 0.  1.
         24    2    1    2    0    0 -0.26744672301E+02 -0.51378154254E+02  0.39250830705E+03  0.40457957877E+03  0.79163578898E+02 0.  0.
        -13    1    3    3    0    0 -0.51822535527E+02 -0.49276217575E+02  0.31781348446E+03  0.32575931561E+03  0.00000000000E+00 0.  1.
         14    1    3    3    0    0  0.25077863226E+02 -0.21019366793E+01  0.74694822591E+02  0.78820263154E+02  0.00000000000E+00 0. -1.
          1    1    1    2  501    0  0.26744672301E+02  0.51378154254E+02  0.10080835721E+03  0.11626399750E+03  0.00000000000E+00 0. -1.
<mgrwt>
<rscale>  1 0.98091103E+02</rscale>
<asrwt>0</asrwt>
<pdfrwt beam="1">  1       21 0.21174552E-02 0.98091103E+02</pdfrwt>
<pdfrwt beam="2">  1        2 0.78012312E-01 0.98091103E+02</pdfrwt>
<totfact> 0.81922740E+05</totfact>
</mgrwt>
</event>
<event>
 6    2  0.9453093E+000  0.1090588E+03  0.7546771E-02  0.1262323E+00
         21   -1    0    0  501  502  0.00000000000E+00  0.00000000000E+00  0.13072029085E+02  0.13072029085E+02  0.00000000000E+00 0. -1.
          2   -1    0    0  502    0 -0.00000000000E+00 -0.00000000000E+00 -0.72001537439E+03  0.72001537439E+03  0.00000000000E+00 0. -1.
         24    2    1    2    0    0 -0.78613227949E+02  0.10152088232E+00 -0.49903793922E+03  0.51081570533E+03  0.75589484185E+02 0.  0.
        -11    1    3    3    0    0  0.20783695107E+01  0.23478938541E+02 -0.78227143763E+02  0.81701078304E+02  0.00000000000E+00 0.  1.
         12    1    3    3    0    0 -0.80691597460E+02 -0.23377417658E+02 -0.42081079546E+03  0.42911462703E+03  0.00000000000E+00 0. -1.
          1    1    1    2  501    0  0.78613227949E+02 -0.10152088232E+00 -0.20790540609E+03  0.22227169814E+03  0.00000000000E+00 0. -1.
<mgrwt>
<rscale>  1 0.10905879E+03</rscale>
<asrwt>0</asrwt>
<pdfrwt beam="1">  1       21 0.20110811E-02 0.10905879E+03</pdfrwt>
<pdfrwt beam="2">  1        2 0.11077161E+00 0.10905879E+03</pdfrwt>
<totfact> 0.60379192E+05</totfact>
</mgrwt>
</event>
<event>
 6    2  0.9453093E+000  0.8589231E+02  0.7546771E-02  0.1313115E+00
         21   -1    0    0  501  502  0.00000000000E+00  0.00000000000E+00  0.68736250960E+02  0.68736250960E+02  0.00000000000E+00 0. -1.
          2   -1    0    0  502    0 -0.00000000000E+00 -0.00000000000E+00 -0.14890193800E+03  0.14890193800E+03  0.00000000000E+00 0. -1.
         24    2    1    2    0    0 -0.26309641510E+02  0.13575176254E+02 -0.13226948681E+03  0.15771082796E+03  0.80628812904E+02 0.  0.
        -11    1    3    3    0    0  0.28369799139E+02  0.12995122863E+02 -0.48902759732E+02  0.58010332104E+02  0.00000000000E+00 0.  1.
         12    1    3    3    0    0 -0.54679440649E+02  0.58005339077E+00 -0.83366727075E+02  0.99700495860E+02  0.00000000000E+00 0. -1.
          1    1    1    2  501    0  0.26309641510E+02 -0.13575176254E+02  0.52103799762E+02  0.59927361000E+02  0.00000000000E+00 0. -1.
<mgrwt>
<rscale>  1 0.85892305E+02</rscale>
<asrwt>0</asrwt>
<pdfrwt beam="1">  1       21 0.10574808E-01 0.85892305E+02</pdfrwt>
<pdfrwt beam="2">  1        2 0.22907990E-01 0.85892305E+02</pdfrwt>
<totfact> 0.20495118E+05</totfact>
</mgrwt>
</event>
<event>
 6    2  0.9453093E+000  0.8654403E+02  0.7546771E-02  0.1311443E+00
         21   -1    0    0  501  502  0.00000000000E+00  0.00000000000E+00  0.36665599179E+01  0.36665599179E+01  0.00000000000E+00 0.  1.
          2   -1    0    0  502    0 -0.00000000000E+00 -0.00000000000E+00 -0.78409905595E+03  0.78409905595E+03  0.00000000000E+00 0. -1.
         24    2    1    2    0    0  0.17111901555E+02  0.10906758804E+02 -0.65714607179E+03  0.66282035999E+03  0.84131417402E+02 0.  0.
        -11    1    3    3    0    0 -0.34632303420E+01 -0.34365659868E+02 -0.19809450535E+03  0.20108313105E+03  0.00000000000E+00 0.  1.
         12    1    3    3    0    0  0.20575131897E+02  0.45272418672E+02 -0.45905156644E+03  0.46173722894E+03  0.00000000000E+00 0. -1.
          1    1    1    2  501    0 -0.17111901555E+02 -0.10906758804E+02 -0.12328642425E+03  0.12494525588E+03  0.00000000000E+00 0. -1.
<mgrwt>
<rscale>  1 0.86544035E+02</rscale>
<asrwt>0</asrwt>
<pdfrwt beam="1">  1       21 0.56408526E-03 0.86544035E+02</pdfrwt>
<pdfrwt beam="2">  1        2 0.12063081E+00 0.86544035E+02</pdfrwt>
<totfact> 0.39230927E+06</totfact>
</mgrwt>
</event>
<event>
 6    2  0.9453093E+000  0.8629719E+02  0.7546771E-02  0.1312075E+00
         21   -1    0    0  501  502  0.00000000000E+00  0.00000000000E+00  0.51225564767E+01  0.51225564767E+01  0.00000000000E+00 0. -1.
          2   -1    0    0  502    0 -0.00000000000E+00 -0.00000000000E+00 -0.14259589723E+04  0.14259589723E+04  0.00000000000E+00 0. -1.
         24    2    1    2    0    0 -0.24710312299E+02 -0.88546902513E+01 -0.37051178311E+03  0.38042895102E+03  0.82208273753E+02 0.  0.
        -11    1    3    3    0    0  0.16362330072E+01  0.34690882843E+02 -0.12754647757E+03  0.13219016057E+03  0.00000000000E+00 0.  1.
         12    1    3    3    0    0 -0.26346545306E+02 -0.43545573094E+02 -0.24296530554E+03  0.24823879044E+03  0.00000000000E+00 0. -1.
          1    1    1    2  501    0  0.24710312299E+02  0.88546902513E+01 -0.10503246327E+04  0.10506525778E+04  0.00000000000E+00 0. -1.
<mgrwt>
<rscale>  1 0.86297192E+02</rscale>
<asrwt>0</asrwt>
<pdfrwt beam="1">  1       21 0.78808521E-03 0.86297192E+02</pdfrwt>
<pdfrwt beam="2">  1        2 0.21937842E+00 0.86297192E+02</pdfrwt>
<totfact> 0.10085437E+06</totfact>
</mgrwt>
</event>
<event>
 6    2  0.9453093E+000  0.8370003E+02  0.7546771E-02  0.1318868E+00
         -1   -1    0    0    0  501 -0.00000000000E+00  0.00000000000E+00  0.48556422164E+03  0.48556422164E+03  0.00000000000E+00 0.  1.
         21   -1    0    0  501  502  0.00000000000E+00 -0.00000000000E+00 -0.18428187655E+02  0.18428187655E+02  0.00000000000E+00 0.  1.
         24    2    1    2    0    0 -0.79036499028E+01 -0.23548784470E+02  0.47141410147E+03  0.47878695764E+03  0.79929236244E+02 0.  0.
        -11    1    3    3    0    0  0.23095284632E+02 -0.10914691747E+02  0.38894573084E+03  0.38978366334E+03  0.00000000000E+00 0.  1.
         12    1    3    3    0    0 -0.30998934535E+02 -0.12634092723E+02  0.82468370626E+02  0.89003294293E+02  0.00000000000E+00 0. -1.
         -2    1    1    2    0  502  0.79036499028E+01  0.23548784470E+02 -0.42780674870E+01  0.25205451657E+02  0.00000000000E+00 0.  1.
<mgrwt>
<rscale>  1 0.83700034E+02</rscale>
<asrwt>0</asrwt>
<pdfrwt beam="1">  1       21 0.28351062E-02 0.83700034E+02</pdfrwt>
<pdfrwt beam="2">  1       -1 0.74702178E-01 0.83700034E+02</pdfrwt>
<totfact> 0.11644607E+05</totfact>
</mgrwt>
</event>
<event>
 6    2  0.9453093E+000  0.8020949E+02  0.7546771E-02  0.1328458E+00
          2   -1    0    0  502    0 -0.00000000000E+00  0.00000000000E+00  0.36607338909E+03  0.36607338909E+03  0.00000000000E+00 0. -1.
         21   -1    0    0  501  502  0.00000000000E+00 -0.00000000000E+00 -0.41952342670E+02  0.41952342670E+02  0.00000000000E+00 0. -1.
         24    2    1    2    0    0 -0.13122066732E+02  0.17040767047E+02  0.35856037142E+03  0.36742224074E+03  0.77272159693E+02 0.  0.
        -13    1    3    3    0    0 -0.14916323729E+02 -0.63897318135E+01  0.12291642727E+02  0.20357059393E+02  0.00000000000E+00 0.  1.
         14    1    3    3    0    0  0.17942569963E+01  0.23430498860E+02  0.34626872869E+03  0.34706518135E+03  0.00000000000E+00 0. -1.
          1    1    1    2  501    0  0.13122066732E+02 -0.17040767047E+02 -0.34439324995E+02  0.40603491020E+02  0.00000000000E+00 0. -1.
<mgrwt>
<rscale>  1 0.80209495E+02</rscale>
<asrwt>0</asrwt>
<pdfrwt beam="1">  1       21 0.64542068E-02 0.80209495E+02</pdfrwt>
<pdfrwt beam="2">  1        2 0.56318981E-01 0.80209495E+02</pdfrwt>
<totfact> 0.18311787E+05</totfact>
</mgrwt>
</event>
<event>
 6    2  0.9453093E+000  0.8938372E+02  0.7546771E-02  0.1304351E+00
          2   -1    0    0  502    0 -0.00000000000E+00  0.00000000000E+00  0.26987891268E+03  0.26987891268E+03  0.00000000000E+00 0. -1.
         21   -1    0    0  501  502  0.00000000000E+00 -0.00000000000E+00 -0.17462975381E+02  0.17462975381E+02  0.00000000000E+00 0.  1.
         24    2    1    2    0    0  0.16220980282E+02 -0.36157489466E+02  0.21500088347E+03  0.23284078258E+03  0.80118449151E+02 0.  0.
        -11    1    3    3    0    0  0.25731240664E+02 -0.58207818980E+02  0.13381631328E+03  0.14817912348E+03  0.00000000000E+00 0.  1.
         12    1    3    3    0    0 -0.95102603814E+01  0.22050329514E+02  0.81184570191E+02  0.84661659099E+02  0.00000000000E+00 0. -1.
          1    1    1    2  501    0 -0.16220980282E+02  0.36157489466E+02  0.37415053836E+02  0.54501105488E+02  0.00000000000E+00 0. -1.
<mgrwt>
<rscale>  1 0.89383724E+02</rscale>
<asrwt>0</asrwt>
<pdfrwt beam="1">  1       21 0.26866118E-02 0.89383724E+02</pdfrwt>
<pdfrwt beam="2">  1        2 0.41519830E-01 0.89383724E+02</pdfrwt>
<totfact> 0.10762920E+06</totfact>
</mgrwt>
</event>
<event>
 6    2  0.9453093E+000  0.9990574E+02  0.7546771E-02  0.1280494E+00
          2   -1    0    0  502    0 -0.00000000000E+00  0.00000000000E+00  0.12358223801E+03  0.12358223801E+03  0.00000000000E+00 0. -1.
         21   -1    0    0  501  502  0.00000000000E+00 -0.00000000000E+00 -0.11416750342E+03  0.11416750342E+03  0.00000000000E+00 0. -1.
         24    2    1    2    0    0 -0.37980893829E+02 -0.45108281844E+02  0.92307936053E+02  0.13602173036E+03  0.80646454874E+02 0.  0.
        -11    1    3    3    0    0  0.24209880159E+02 -0.22490404479E+02  0.23450802578E+02  0.40520078140E+02  0.00000000000E+00 0.  1.
         12    1    3    3    0    0 -0.62190773987E+02 -0.22617877365E+02  0.68857133475E+02  0.95501652216E+02  0.00000000000E+00 0. -1.
          1    1    1    2  501    0  0.37980893829E+02  0.45108281844E+02 -0.82893201465E+02  0.10172801107E+03  0.00000000000E+00 0. -1.
<mgrwt>
<rscale>  1 0.99905736E+02</rscale>
<asrwt>0</asrwt>
<pdfrwt beam="1">  1       21 0.17564231E-01 0.99905736E+02</pdfrwt>
<pdfrwt beam="2">  1        2 0.19012652E-01 0.99905736E+02</pdfrwt>
<totfact> 0.10338007E+05</totfact>
</mgrwt>
</event>
<event>
 6    2  0.9453093E+000  0.8484061E+02  0.7546771E-02  0.1315850E+00
         21   -1    0    0  501  502  0.00000000000E+00  0.00000000000E+00  0.19198574648E+02  0.19198574648E+02  0.00000000000E+00 0. -1.
          2   -1    0    0  502    0 -0.00000000000E+00 -0.00000000000E+00 -0.17915017434E+03  0.17915017434E+03  0.00000000000E+00 0. -1.
         24    2    1    2    0    0  0.26850298004E+02  0.94909761394E+01 -0.13955250244E+03  0.16331818662E+03  0.79918158218E+02 0.  0.
        -11    1    3    3    0    0 -0.19787328909E+02  0.20203967591E+02 -0.20266005902E+02  0.34791517458E+02  0.00000000000E+00 0.  1.
         12    1    3    3    0    0  0.46637626913E+02 -0.10712991452E+02 -0.11928649654E+03  0.12852666916E+03  0.00000000000E+00 0. -1.
          1    1    1    2  501    0 -0.26850298004E+02 -0.94909761394E+01 -0.20399097249E+02  0.35030562365E+02  0.00000000000E+00 0. -1.
<mgrwt>
<rscale>  1 0.84840610E+02</rscale>
<asrwt>0</asrwt>
<pdfrwt beam="1">  1       21 0.29536268E-02 0.84840610E+02</pdfrwt>
<pdfrwt beam="2">  1        2 0.27561566E-01 0.84840610E+02</pdfrwt>
<totfact> 0.14161366E+06</totfact>
</mgrwt>
</event>
<event>
 6    2  0.9453093E+000  0.8516222E+02  0.7546771E-02  0.1315009E+00
          2   -1    0    0  502    0 -0.00000000000E+00  0.00000000000E+00  0.93924243837E+02  0.93924243837E+02  0.00000000000E+00 0. -1.
         21   -1    0    0  501  502  0.00000000000E+00 -0.00000000000E+00 -0.38168111658E+02  0.38168111658E+02  0.00000000000E+00 0.  1.
         24    2    1    2    0    0 -0.26813203478E+02 -0.20663973025E+02  0.46348201852E+02  0.96957517870E+02  0.78145100899E+02 0.  0.
        -13    1    3    3    0    0 -0.13720792073E+02 -0.18235507255E+02 -0.19352036033E+02  0.29921483228E+02  0.00000000000E+00 0.  1.
         14    1    3    3    0    0 -0.13092411406E+02 -0.24284657708E+01  0.65700237885E+02  0.67036034642E+02  0.00000000000E+00 0. -1.
          1    1    1    2  501    0  0.26813203478E+02  0.20663973025E+02  0.94079303268E+01  0.35134837626E+02  0.00000000000E+00 0. -1.
<mgrwt>
<rscale>  1 0.85162224E+02</rscale>
<asrwt>0</asrwt>
<pdfrwt beam="1">  1       21 0.58720172E-02 0.85162224E+02</pdfrwt>
<pdfrwt beam="2">  1        2 0.14449884E-01 0.85162224E+02</pdfrwt>
<totfact> 0.93871290E+05</totfact>
</mgrwt>
</event>
<event>
 6    2  0.9453093E+000  0.1261655E+03  0.7546771E-02  0.1233259E+00
         21   -1    0    0  501  502  0.00000000000E+00  0.00000000000E+00  0.21570587961E+02  0.21570587961E+02  0.00000000000E+00 0. -1.
          2   -1    0    0  502    0 -0.00000000000E+00 -0.00000000000E+00 -0.15073917642E+04  0.15073917642E+04  0.00000000000E+00 0. -1.
         24    2    1    2    0    0  0.95627163477E+02  0.29885754059E+02 -0.13700998541E+04  0.13758965588E+04  0.76681273669E+02 0.  0.
        -13    1    3    3    0    0  0.11708959732E+02  0.12648326340E+02 -0.47594930740E+02  0.50619732608E+02  0.00000000000E+00 0.  1.
         14    1    3    3    0    0  0.83918203745E+02  0.17237427719E+02 -0.13225049234E+04  0.13252768262E+04  0.00000000000E+00 0. -1.
          1    1    1    2  501    0 -0.95627163477E+02 -0.29885754059E+02 -0.11572132218E+03  0.15306579336E+03  0.00000000000E+00 0. -1.
<mgrwt>
<rscale>  1 0.12616549E+03</rscale>
<asrwt>0</asrwt>
<pdfrwt beam="1">  1       21 0.33185521E-02 0.12616549E+03</pdfrwt>
<pdfrwt beam="2">  1        2 0.23190642E+00 0.12616549E+03</pdfrwt>
<totfact> 0.93525926E+04</totfact>
</mgrwt>
</event>
<event>
 6    2  0.9453093E+000  0.8495854E+02  0.7546771E-02  0.1315541E+00
         -1   -1    0    0    0  501 -0.00000000000E+00  0.00000000000E+00  0.36264146704E+03  0.36264146704E+03  0.00000000000E+00 0.  1.
         21   -1    0    0  501  502  0.00000000000E+00 -0.00000000000E+00 -0.10952054298E+02  0.10952054298E+02  0.00000000000E+00 0.  1.
         24    2    1    2    0    0 -0.14249073119E+02  0.16588877313E+02  0.33626809984E+03  0.34683452609E+03  0.82095837762E+02 0.  0.
        -13    1    3    3    0    0  0.67659229772E+01  0.32837505536E+02  0.30005917925E+03  0.30192646545E+03  0.00000000000E+00 0.  1.
         14    1    3    3    0    0 -0.21014996096E+02 -0.16248628222E+02  0.36208920590E+02  0.44908060638E+02  0.00000000000E+00 0. -1.
         -2    1    1    2    0  502  0.14249073119E+02 -0.16588877313E+02  0.15421312895E+02  0.26758995248E+02  0.00000000000E+00 0.  1.
<mgrwt>
<rscale>  1 0.84958540E+02</rscale>
<asrwt>0</asrwt>
<pdfrwt beam="1">  1       21 0.16849317E-02 0.84958540E+02</pdfrwt>
<pdfrwt beam="2">  1       -1 0.55790986E-01 0.84958540E+02</pdfrwt>
<totfact> 0.46888899E+05</totfact>
</mgrwt>
</event>
<event>
 6    2  0.9453093E+000  0.8493438E+02  0.7546771E-02  0.1315604E+00
         21   -1    0    0  501  502  0.00000000000E+00  0.00000000000E+00  0.16190355108E+02  0.16190355108E+02  0.00000000000E+00 0.  1.
         -1   -1    0    0    0  501 -0.00000000000E+00 -0.00000000000E+00 -0.24834035664E+03  0.24834035664E+03  0.00000000000E+00 0.  1.
         24    2    1    2    0    0 -0.37522015646E+02  0.13419107284E+02 -0.17873377501E+03  0.19788787752E+03  0.75005837376E+02 0.  0.
        -11    1    3    3    0    0 -0.33633963808E+02 -0.24612098473E+02 -0.59270915083E+02  0.72457161740E+02  0.00000000000E+00 0.  1.
         12    1    3    3    0    0 -0.38880518385E+01  0.38031205757E+02 -0.11946285993E+03  0.12543071578E+03  0.00000000000E+00 0. -1.
         -2    1    1    2    0  502  0.37522015646E+02 -0.13419107284E+02 -0.53416226527E+02  0.66642834235E+02  0.00000000000E+00 0.  1.
<mgrwt>
<rscale>  1 0.84934385E+02</rscale>
<asrwt>0</asrwt>
<pdfrwt beam="1">  1       21 0.24908235E-02 0.84934385E+02</pdfrwt>
<pdfrwt beam="2">  1       -1 0.38206214E-01 0.84934385E+02</pdfrwt>
<totfact> 0.49193428E+05</totfact>
</mgrwt>
</event>
<event>
 6    2  0.9453093E+000  0.8365644E+02  0.7546771E-02  0.1318984E+00
          2   -1    0    0  502    0 -0.00000000000E+00  0.00000000000E+00  0.53918026949E+03  0.53918026949E+03  0.00000000000E+00 0. -1.
         21   -1    0    0  501  502  0.00000000000E+00 -0.00000000000E+00 -0.22467829504E+02  0.22467829504E+02  0.00000000000E+00 0. -1.
         24    2    1    2    0    0 -0.24926838054E+01 -0.24717058573E+02  0.52783941636E+03  0.53442759091E+03  0.79882751615E+02 0.  0.
        -13    1    3    3    0    0  0.37805371010E+02 -0.79282317639E+01  0.20018783230E+03  0.20388053153E+03  0.00000000000E+00 0.  1.
         14    1    3    3    0    0 -0.40298054816E+02 -0.16788826809E+02  0.32765158407E+03  0.33054705939E+03  0.00000000000E+00 0. -1.
          1    1    1    2  501    0  0.24926838054E+01  0.24717058573E+02 -0.11126976376E+02  0.27220508083E+02  0.00000000000E+00 0. -1.
<mgrwt>
<rscale>  1 0.83656443E+02</rscale>
<asrwt>0</asrwt>
<pdfrwt beam="1">  1       21 0.34565896E-02 0.83656443E+02</pdfrwt>
<pdfrwt beam="2">  1        2 0.82950801E-01 0.83656443E+02</pdfrwt>
<totfact> 0.34229612E+05</totfact>
</mgrwt>
</event>
<event>
 6    2  0.9453093E+000  0.8290069E+02  0.7546771E-02  0.1321016E+00
         21   -1    0    0  501  502  0.00000000000E+00  0.00000000000E+00  0.14336812732E+01  0.14336812732E+01  0.00000000000E+00 0.  1.
          2   -1    0    0  502    0 -0.00000000000E+00 -0.00000000000E+00 -0.28173703540E+04  0.28173703540E+04  0.00000000000E+00 0. -1.
         24    2    1    2    0    0  0.25987706616E+02 -0.35500822278E+02 -0.19157634852E+04  0.19175563242E+04  0.70262762203E+02 0.  0.
        -11    1    3    3    0    0  0.44993676620E+02 -0.13561024703E+02 -0.77488785311E+03  0.77631148209E+03  0.00000000000E+00 0.  1.
         12    1    3    3    0    0 -0.19005970004E+02 -0.21939797575E+02 -0.11408756321E+04  0.11412448421E+04  0.00000000000E+00 0. -1.
          1    1    1    2  501    0 -0.25987706616E+02  0.35500822278E+02 -0.90017318748E+03  0.90124771108E+03  0.00000000000E+00 0. -1.
<mgrwt>
<rscale>  1 0.82900694E+02</rscale>
<asrwt>0</asrwt>
<pdfrwt beam="1">  1       21 0.22056702E-03 0.82900694E+02</pdfrwt>
<pdfrwt beam="2">  1        2 0.43344027E+00 0.82900694E+02</pdfrwt>
<totfact> 0.13537848E+06</totfact>
</mgrwt>
</event>
<event>
 6    2  0.9453093E+000  0.8163233E+02  0.7546771E-02  0.1324482E+00
         21   -1    0    0  501  502  0.00000000000E+00  0.00000000000E+00  0.10145880426E+02  0.10145880426E+02  0.00000000000E+00 0. -1.
          4   -1    0    0  502    0 -0.00000000000E+00 -0.00000000000E+00 -0.35156806087E+03  0.35156806087E+03  0.00000000000E+00 0. -1.
         24    2    1    2    0    0  0.56794286698E+01 -0.22526598467E+02 -0.31952951521E+03  0.32979228189E+03  0.78256849862E+02 0.  0.
        -13    1    3    3    0    0  0.78883500452E+00 -0.15566147163E+02 -0.68968078007E+01  0.17043859775E+02  0.00000000000E+00 0.  1.
         14    1    3    3    0    0  0.48905936652E+01 -0.69604513040E+01 -0.31263270741E+03  0.31274842211E+03  0.00000000000E+00 0. -1.
          3    1    1    2  501    0 -0.56794286698E+01  0.22526598467E+02 -0.21892665225E+02  0.31921659405E+02  0.00000000000E+00 0. -1.
<mgrwt>
<rscale>  1 0.81632335E+02</rscale>
<asrwt>0</asrwt>
<pdfrwt beam="1">  1       21 0.15609045E-02 0.81632335E+02</pdfrwt>
<pdfrwt beam="2">  1        4 0.54087401E-01 0.81632335E+02</pdfrwt>
<totfact> 0.22055738E+05</totfact>
</mgrwt>
</event>
<event>
 6    2  0.9453093E+000  0.6273631E+02  0.7546771E-02  0.1386695E+00
         -3   -1    0    0    0  501 -0.00000000000E+00  0.00000000000E+00  0.10265753412E+02  0.10265753412E+02  0.00000000000E+00 0.  1.
         21   -1    0    0  501  502  0.00000000000E+00 -0.00000000000E+00 -0.32244023816E+03  0.32244023816E+03  0.00000000000E+00 0.  1.
         24    2    1    2    0    0  0.23342857220E+02  0.12369792947E+02 -0.94465695047E+02  0.11340022814E+03  0.56902929987E+02 0.  0.
        -11    1    3    3    0    0  0.40282108564E+02  0.17453776748E+02 -0.76424774136E+02  0.88136420933E+02  0.00000000000E+00 0.  1.
         12    1    3    3    0    0 -0.16939251344E+02 -0.50839838008E+01 -0.18040920911E+02  0.25263807209E+02  0.00000000000E+00 0. -1.
         -4    1    1    2    0  502 -0.23342857220E+02 -0.12369792947E+02 -0.21770878970E+03  0.21930576343E+03  0.00000000000E+00 0.  1.
<mgrwt>
<rscale>  1 0.62736307E+02</rscale>
<asrwt>0</asrwt>
<pdfrwt beam="1">  1       21 0.49606184E-01 0.62736307E+02</pdfrwt>
<pdfrwt beam="2">  1       -3 0.15793469E-02 0.62736307E+02</pdfrwt>
<totfact> 0.22534416E+05</totfact>
</mgrwt>
</event>
<event>
 6    2  0.9453093E+000  0.6800796E+02  0.7546771E-02  0.1367001E+00
         21   -1    0    0  501  502  0.00000000000E+00  0.00000000000E+00  0.52513368691E+01  0.52513368691E+01  0.00000000000E+00 0.  1.
          2   -1    0    0  502    0 -0.00000000000E+00 -0.00000000000E+00 -0.10718293295E+04  0.10718293295E+04  0.00000000000E+00 0. -1.
         24    2    1    2    0    0  0.28951172547E+02  0.19261921749E+02 -0.23159314760E+03  0.24137205480E+03  0.58445622600E+02 0.  0.
        -13    1    3    3    0    0  0.41757586767E+02  0.10004023392E+02 -0.99940838812E+02  0.10877475718E+03  0.00000000000E+00 0.  1.
         14    1    3    3    0    0 -0.12806414220E+02  0.92578983575E+01 -0.13165230878E+03  0.13259729762E+03  0.00000000000E+00 0. -1.
          1    1    1    2  501    0 -0.28951172547E+02 -0.19261921749E+02 -0.83498484503E+03  0.83570861157E+03  0.00000000000E+00 0. -1.
<mgrwt>
<rscale>  1 0.68007961E+02</rscale>
<asrwt>0</asrwt>
<pdfrwt beam="1">  1       21 0.80789770E-03 0.68007961E+02</pdfrwt>
<pdfrwt beam="2">  1        2 0.16489688E+00 0.68007961E+02</pdfrwt>
<totfact> 0.14699141E+06</totfact>
</mgrwt>
</event>
<event>
 6    2  0.9453093E+000  0.8862342E+02  0.7546771E-02  0.1306220E+00
          2   -1    0    0  502    0 -0.00000000000E+00  0.00000000000E+00  0.36041283810E+03  0.36041283810E+03  0.00000000000E+00 0. -1.
         21   -1    0    0  501  502  0.00000000000E+00 -0.00000000000E+00 -0.12950079735E+02  0.12950079735E+02  0.00000000000E+00 0.  1.
         24    2    1    2    0    0  0.32526470997E+02  0.20550429609E+02  0.16929997292E+03  0.19109314637E+03  0.79836196589E+02 0.  0.
        -11    1    3    3    0    0  0.41246256643E+02  0.44462422130E+02  0.96534678880E+02  0.11400484593E+03  0.00000000000E+00 0.  1.
         12    1    3    3    0    0 -0.87197856456E+01 -0.23911992521E+02  0.72765294042E+02  0.77088300442E+02  0.00000000000E+00 0. -1.
          1    1    1    2  501    0 -0.32526470997E+02 -0.20550429609E+02  0.17816278544E+03  0.18226977147E+03  0.00000000000E+00 0. -1.
<mgrwt>
<rscale>  1 0.88623415E+02</rscale>
<asrwt>0</asrwt>
<pdfrwt beam="1">  1       21 0.19923202E-02 0.88623415E+02</pdfrwt>
<pdfrwt beam="2">  1        2 0.55448121E-01 0.88623415E+02</pdfrwt>
<totfact> 0.12854815E+06</totfact>
</mgrwt>
</event>
<event>
 6    2  0.9453093E+000  0.9028990E+02  0.7546771E-02  0.1302151E+00
         -1   -1    0    0    0  501 -0.00000000000E+00  0.00000000000E+00  0.15932693734E+02  0.15932693734E+02  0.00000000000E+00 0.  1.
         21   -1    0    0  501  502  0.00000000000E+00 -0.00000000000E+00 -0.32820902709E+03  0.32820902709E+03  0.00000000000E+00 0.  1.
         24    2    1    2    0    0  0.42698166546E+01 -0.42775622246E+02 -0.14005526095E+03  0.16663655759E+03  0.79399502608E+02 0.  0.
        -11    1    3    3    0    0  0.99142321839E+01 -0.39579201556E+02 -0.18315824643E+02  0.44724429878E+02  0.00000000000E+00 0.  1.
         12    1    3    3    0    0 -0.56444155292E+01 -0.31964206905E+01 -0.12173943631E+03  0.12191212772E+03  0.00000000000E+00 0. -1.
         -2    1    1    2    0  502 -0.42698166546E+01  0.42775622246E+02 -0.17222107241E+03  0.17750516323E+03  0.00000000000E+00 0.  1.
<mgrwt>
<rscale>  1 0.90289901E+02</rscale>
<asrwt>0</asrwt>
<pdfrwt beam="1">  1       21 0.50493691E-01 0.90289901E+02</pdfrwt>
<pdfrwt beam="2">  1       -1 0.24511839E-02 0.90289901E+02</pdfrwt>
<totfact> 0.15884443E+05</totfact>
</mgrwt>
</event>
<event>
 6    2  0.9453093E+000  0.8164102E+02  0.7546771E-02  0.1324458E+00
         21   -1    0    0  501  502  0.00000000000E+00  0.00000000000E+00  0.22833833915E+02  0.22833833915E+02  0.00000000000E+00 0. -1.
          2   -1    0    0  502    0 -0.00000000000E+00 -0.00000000000E+00 -0.38860059218E+03  0.38860059218E+03  0.00000000000E+00 0. -1.
         24    2    1    2    0    0  0.18772866570E+02  0.97704072851E+01 -0.37818499913E+03  0.38689682059E+03  0.78850331898E+02 0.  0.
        -11    1    3    3    0    0  0.11098773357E+02  0.13839542463E+02 -0.13975747496E+02  0.22584003713E+02  0.00000000000E+00 0.  1.
         12    1    3    3    0    0  0.76740932126E+01 -0.40691351776E+01 -0.36420925163E+03  0.36431281688E+03  0.00000000000E+00 0. -1.
          1    1    1    2  501    0 -0.18772866570E+02 -0.97704072851E+01  0.12418240862E+02  0.24537605504E+02  0.00000000000E+00 0. -1.
<mgrwt>
<rscale>  1 0.81641020E+02</rscale>
<asrwt>0</asrwt>
<pdfrwt beam="1">  1       21 0.35128974E-02 0.81641020E+02</pdfrwt>
<pdfrwt beam="2">  1        2 0.59784708E-01 0.81641020E+02</pdfrwt>
<totfact> 0.47163932E+05</totfact>
</mgrwt>
</event>
<event>
 6    2  0.9453093E+000  0.1018313E+03  0.7546771E-02  0.1276491E+00
          4   -1    0    0  502    0 -0.00000000000E+00  0.00000000000E+00  0.60749956621E+02  0.60749956621E+02  0.00000000000E+00 0. -1.
         21   -1    0    0  501  502  0.00000000000E+00 -0.00000000000E+00 -0.10228410178E+03  0.10228410178E+03  0.00000000000E+00 0.  1.
         24    2    1    2    0    0  0.16708395224E+01  0.38821881744E+02  0.55544888469E+01  0.10198268938E+03  0.94125907060E+02 0.  0.
        -11    1    3    3    0    0 -0.23977623017E+02  0.10537655509E+02 -0.36665049273E+02  0.45058788570E+02  0.00000000000E+00 0.  1.
         12    1    3    3    0    0  0.25648462540E+02  0.28284226235E+02  0.42219538120E+02  0.56923900810E+02  0.00000000000E+00 0. -1.
          3    1    1    2  501    0 -0.16708395224E+01 -0.38821881744E+02 -0.47088634007E+02  0.61051369022E+02  0.00000000000E+00 0. -1.
<mgrwt>
<rscale>  1 0.10183131E+03</rscale>
<asrwt>0</asrwt>
<pdfrwt beam="1">  1       21 0.15736016E-01 0.10183131E+03</pdfrwt>
<pdfrwt beam="2">  1        4 0.93461472E-02 0.10183131E+03</pdfrwt>
<totfact> 0.11807638E+05</totfact>
</mgrwt>
</event>
<event>
 6    2  0.9453093E+000  0.8571548E+02  0.7546771E-02  0.1313572E+00
          2   -1    0    0  502    0 -0.00000000000E+00  0.00000000000E+00  0.23559502722E+04  0.23559502722E+04  0.00000000000E+00 0. -1.
         21   -1    0    0  501  502  0.00000000000E+00 -0.00000000000E+00 -0.13396871638E+01  0.13396871638E+01  0.00000000000E+00 0. -1.
         24    2    1    2    0    0  0.23964848701E+02 -0.60706036919E+01  0.16230744602E+04  0.16253362258E+04  0.82072999200E+02 0.  0.
        -13    1    3    3    0    0 -0.33495126877E+01  0.30871639059E+02  0.10365758114E+04  0.10370408334E+04  0.00000000000E+00 0.  1.
         14    1    3    3    0    0  0.27314361388E+02 -0.36942242751E+02  0.58649864883E+03  0.58829539240E+03  0.00000000000E+00 0. -1.
          1    1    1    2  501    0 -0.23964848701E+02  0.60706036919E+01  0.73153612485E+03  0.73195373362E+03  0.00000000000E+00 0. -1.
<mgrwt>
<rscale>  1 0.85715479E+02</rscale>
<asrwt>0</asrwt>
<pdfrwt beam="1">  1       21 0.20610760E-03 0.85715479E+02</pdfrwt>
<pdfrwt beam="2">  1        2 0.36245057E+00 0.85715479E+02</pdfrwt>
<totfact> 0.26362349E+06</totfact>
</mgrwt>
</event>
<event>
 6    2  0.9453093E+000  0.1148198E+03  0.7546771E-02  0.1251896E+00
         21   -1    0    0  501  502  0.00000000000E+00  0.00000000000E+00  0.84359118915E+01  0.84359118915E+01  0.00000000000E+00 0. -1.
          2   -1    0    0  502    0 -0.00000000000E+00 -0.00000000000E+00 -0.13250431131E+04  0.13250431131E+04  0.00000000000E+00 0. -1.
         24    2    1    2    0    0 -0.72670037292E+02 -0.40249428157E+02 -0.51854922638E+03  0.53110910907E+03  0.79263073190E+02 0.  0.
        -11    1    3    3    0    0  0.64145415111E+00  0.12174173574E+02 -0.13958730683E+02  0.18532893134E+02  0.00000000000E+00 0.  1.
         12    1    3    3    0    0 -0.73311491443E+02 -0.52423601731E+02 -0.50459049570E+03  0.51257621594E+03  0.00000000000E+00 0. -1.
          1    1    1    2  501    0  0.72670037292E+02  0.40249428157E+02 -0.79805797479E+03  0.80236991588E+03  0.00000000000E+00 0. -1.
<mgrwt>
<rscale>  1 0.11481980E+03</rscale>
<asrwt>0</asrwt>
<pdfrwt beam="1">  1       21 0.12978322E-02 0.11481980E+03</pdfrwt>
<pdfrwt beam="2">  1        2 0.20385284E+00 0.11481980E+03</pdfrwt>
<totfact> 0.52945685E+05</totfact>
</mgrwt>
</event>
<event>
 6    2  0.9453093E+000  0.8579624E+02  0.7546771E-02  0.1313363E+00
         21   -1    0    0  501  502  0.00000000000E+00  0.00000000000E+00  0.12335407724E+01  0.12335407724E+01  0.00000000000E+00 0. -1.
          2   -1    0    0  502    0 -0.00000000000E+00 -0.00000000000E+00 -0.25682770201E+04  0.25682770201E+04  0.00000000000E+00 0. -1.
         24    2    1    2    0    0 -0.21445397512E+02 -0.15137318643E+02 -0.18540757436E+04  0.18560597667E+04  0.81682012311E+02 0.  0.
        -13    1    3    3    0    0 -0.22188399563E+01  0.27806146346E+02 -0.11865604421E+04  0.11868882794E+04  0.00000000000E+00 0.  1.
         14    1    3    3    0    0 -0.19226557555E+02 -0.42943464989E+02 -0.66751530147E+03  0.66917148728E+03  0.00000000000E+00 0. -1.
          1    1    1    2  501    0  0.21445397512E+02  0.15137318643E+02 -0.71296773571E+03  0.71345079414E+03  0.00000000000E+00 0. -1.
<mgrwt>
<rscale>  1 0.85796239E+02</rscale>
<asrwt>0</asrwt>
<pdfrwt beam="1">  1       21 0.18977861E-03 0.85796239E+02</pdfrwt>
<pdfrwt beam="2">  1        2 0.39511307E+00 0.85796239E+02</pdfrwt>
<totfact> 0.23119251E+06</totfact>
</mgrwt>
</event>
<event>
 6    2  0.9453093E+000  0.8950558E+02  0.7546771E-02  0.1304053E+00
          2   -1    0    0  502    0 -0.00000000000E+00  0.00000000000E+00  0.42862273859E+04  0.42862273859E+04  0.00000000000E+00 0. -1.
         21   -1    0    0  501  502  0.00000000000E+00 -0.00000000000E+00 -0.94965412554E+00  0.94965412554E+00  0.00000000000E+00 0.  1.
         24    2    1    2    0    0  0.25702222567E+02 -0.14357206273E+02  0.23982159406E+04  0.23998856112E+04  0.84525235690E+02 0.  0.
        -13    1    3    3    0    0  0.20787289039E+02  0.60543937566E+01  0.14834021577E+03  0.14991192976E+03  0.00000000000E+00 0.  1.
         14    1    3    3    0    0  0.49149335275E+01 -0.20411600030E+02  0.22498757248E+04  0.22499736814E+04  0.00000000000E+00 0. -1.
          1    1    1    2  501    0 -0.25702222567E+02  0.14357206273E+02  0.18870617912E+04  0.18872914288E+04  0.00000000000E+00 0. -1.
<mgrwt>
<rscale>  1 0.89505581E+02</rscale>
<asrwt>0</asrwt>
<pdfrwt beam="1">  1       21 0.14610407E-03 0.89505581E+02</pdfrwt>
<pdfrwt beam="2">  1        2 0.65940411E+00 0.89505581E+02</pdfrwt>
<totfact> 0.27057964E+05</totfact>
</mgrwt>
</event>
<event>
 6    2  0.9453093E+000  0.1431330E+03  0.7546771E-02  0.1209174E+00
          2   -1    0    0  502    0 -0.00000000000E+00  0.00000000000E+00  0.93769806028E+03  0.93769806028E+03  0.00000000000E+00 0. -1.
         21   -1    0    0  501  502  0.00000000000E+00 -0.00000000000E+00 -0.19427825204E+02  0.19427825204E+02  0.00000000000E+00 0.  1.
         24    2    1    2    0    0  0.62209698688E+02 -0.98403916181E+02  0.37196223663E+03  0.39855108611E+03  0.83268754225E+02 0.  0.
        -13    1    3    3    0    0  0.80813471452E+02 -0.90002967487E+02  0.29284739515E+03  0.31684530637E+03  0.00000000000E+00 0.  1.
         14    1    3    3    0    0 -0.18603772764E+02 -0.84009486935E+01  0.79114841484E+02  0.81705779741E+02  0.00000000000E+00 0. -1.
          1    1    1    2  501    0 -0.62209698688E+02  0.98403916181E+02  0.54630799845E+03  0.55857479938E+03  0.00000000000E+00 0. -1.
<mgrwt>
<rscale>  1 0.14313302E+03</rscale>
<asrwt>0</asrwt>
<pdfrwt beam="1">  1       21 0.29888969E-02 0.14313302E+03</pdfrwt>
<pdfrwt beam="2">  1        2 0.14426120E+00 0.14313302E+03</pdfrwt>
<totfact> 0.23065275E+05</totfact>
</mgrwt>
</event>
<event>
 6    2  0.9453093E+000  0.9078890E+02  0.7546771E-02  0.1300952E+00
         21   -1    0    0  501  502  0.00000000000E+00  0.00000000000E+00  0.50153414167E+03  0.50153414167E+03  0.00000000000E+00 0. -1.
         -1   -1    0    0    0  501 -0.00000000000E+00 -0.00000000000E+00 -0.97922146095E+01  0.97922146095E+01  0.00000000000E+00 0.  1.
         24    2    1    2    0    0 -0.44394552775E+02 -0.15180608085E+02  0.27626610145E+03  0.29080162162E+03  0.77725781718E+02 0.  0.
        -13    1    3    3    0    0 -0.13625565930E+02 -0.40320716389E+02  0.80652687739E+02  0.91193597673E+02  0.00000000000E+00 0.  1.
         14    1    3    3    0    0 -0.30768986844E+02  0.25140108304E+02  0.19561341372E+03  0.19960802394E+03  0.00000000000E+00 0. -1.
         -2    1    1    2    0  502  0.44394552775E+02  0.15180608085E+02  0.21547582561E+03  0.22052473467E+03  0.00000000000E+00 0.  1.
<mgrwt>
<rscale>  1 0.90788900E+02</rscale>
<asrwt>0</asrwt>
<pdfrwt beam="1">  1       21 0.77159079E-01 0.90788900E+02</pdfrwt>
<pdfrwt beam="2">  1       -1 0.15064949E-02 0.90788900E+02</pdfrwt>
<totfact> 0.12963738E+05</totfact>
</mgrwt>
</event>
<event>
 6    2  0.9453093E+000  0.8292726E+02  0.7546771E-02  0.1320944E+00
         21   -1    0    0  501  502  0.00000000000E+00  0.00000000000E+00  0.34090409884E+02  0.34090409884E+02  0.00000000000E+00 0. -1.
          2   -1    0    0  502    0 -0.00000000000E+00 -0.00000000000E+00 -0.15551627284E+03  0.15551627284E+03  0.00000000000E+00 0. -1.
         24    2    1    2    0    0 -0.18471325750E+02  0.12527664418E+02 -0.13855269539E+03  0.16147377247E+03  0.79867374716E+02 0.  0.
        -11    1    3    3    0    0 -0.10665116453E+01 -0.59489617978E+01  0.95007224493E+01  0.11260165213E+02  0.00000000000E+00 0.  1.
         12    1    3    3    0    0 -0.17404814105E+02  0.18476626216E+02 -0.14805341784E+03  0.15021360725E+03  0.00000000000E+00 0. -1.
          1    1    1    2  501    0  0.18471325750E+02 -0.12527664418E+02  0.17126832429E+02  0.28132910262E+02  0.00000000000E+00 0. -1.
<mgrwt>
<rscale>  1 0.82927256E+02</rscale>
<asrwt>0</asrwt>
<pdfrwt beam="1">  1       21 0.52446785E-02 0.82927256E+02</pdfrwt>
<pdfrwt beam="2">  1        2 0.23925580E-01 0.82927256E+02</pdfrwt>
<totfact> 0.64125630E+05</totfact>
</mgrwt>
</event>
<event>
 6    2  0.9453093E+000  0.8659350E+02  0.7546771E-02  0.1311317E+00
          2   -1    0    0  502    0 -0.00000000000E+00  0.00000000000E+00  0.40188669838E+03  0.40188669838E+03  0.00000000000E+00 0. -1.
         21   -1    0    0  501  502  0.00000000000E+00 -0.00000000000E+00 -0.84052107567E+01  0.84052107567E+01  0.00000000000E+00 0.  1.
         24    2    1    2    0    0  0.28828553860E+02  0.62789776094E+01  0.30208477889E+03  0.31425093119E+03  0.81412057092E+02 0.  0.
        -13    1    3    3    0    0  0.15357961885E+02 -0.37625031864E+02  0.14600037027E+03  0.15155071143E+03  0.00000000000E+00 0.  1.
         14    1    3    3    0    0  0.13470591976E+02  0.43904009473E+02  0.15608440863E+03  0.16270021977E+03  0.00000000000E+00 0. -1.
          1    1    1    2  501    0 -0.28828553860E+02 -0.62789776094E+01  0.91396708734E+02  0.96040977946E+02  0.00000000000E+00 0. -1.
<mgrwt>
<rscale>  1 0.86593499E+02</rscale>
<asrwt>0</asrwt>
<pdfrwt beam="1">  1       21 0.12931097E-02 0.86593499E+02</pdfrwt>
<pdfrwt beam="2">  1        2 0.61828708E-01 0.86593499E+02</pdfrwt>
<totfact> 0.22700852E+06</totfact>
</mgrwt>
</event>
<event>
 6    2  0.9453093E+000  0.8270601E+02  0.7546771E-02  0.1321543E+00
          2   -1    0    0  502    0 -0.00000000000E+00  0.00000000000E+00  0.11214965110E+04  0.11214965110E+04  0.00000000000E+00 0. -1.
         21   -1    0    0  501  502  0.00000000000E+00 -0.00000000000E+00 -0.97890495069E+01  0.97890495069E+01  0.00000000000E+00 0. -1.
         24    2    1    2    0    0  0.12491376362E+02 -0.16437578841E+02  0.11070323745E+04  0.11101175441E+04  0.80087794929E+02 0.  0.
        -13    1    3    3    0    0 -0.10381014554E+02  0.17410322046E+02  0.89553495376E+02  0.91818915867E+02  0.00000000000E+00 0.  1.
         14    1    3    3    0    0  0.22872390916E+02 -0.33847900887E+02  0.10174788792E+04  0.10182986282E+04  0.00000000000E+00 0. -1.
          1    1    1    2  501    0 -0.12491376362E+02  0.16437578841E+02  0.46750869481E+01  0.21168016429E+02  0.00000000000E+00 0. -1.
<mgrwt>
<rscale>  1 0.82706006E+02</rscale>
<asrwt>0</asrwt>
<pdfrwt beam="1">  1       21 0.15060085E-02 0.82706006E+02</pdfrwt>
<pdfrwt beam="2">  1        2 0.17253782E+00 0.82706006E+02</pdfrwt>
<totfact> 0.53005880E+05</totfact>
</mgrwt>
</event>
<event>
 6    2  0.9453093E+000  0.8989978E+02  0.7546771E-02  0.1303095E+00
         -1   -1    0    0    0  501 -0.00000000000E+00  0.00000000000E+00  0.21447778766E+03  0.21447778766E+03  0.00000000000E+00 0.  1.
         21   -1    0    0  501  502  0.00000000000E+00 -0.00000000000E+00 -0.26604938929E+02  0.26604938929E+02  0.00000000000E+00 0.  1.
         24    2    1    2    0    0  0.37060900825E+02 -0.63020545740E+01  0.18205561029E+03  0.20304239897E+03  0.81662379833E+02 0.  0.
        -11    1    3    3    0    0  0.85709357912E+01  0.15817518184E+02  0.15947914369E+03  0.16049066045E+03  0.00000000000E+00 0.  1.
         12    1    3    3    0    0  0.28489965034E+02 -0.22119572758E+02  0.22576466605E+02  0.42551738519E+02  0.00000000000E+00 0. -1.
         -2    1    1    2    0  502 -0.37060900825E+02  0.63020545740E+01  0.58172384356E+01  0.38040327612E+02  0.00000000000E+00 0.  1.
<mgrwt>
<rscale>  1 0.89899781E+02</rscale>
<asrwt>0</asrwt>
<pdfrwt beam="1">  1       21 0.40930677E-02 0.89899781E+02</pdfrwt>
<pdfrwt beam="2">  1       -1 0.32996581E-01 0.89899781E+02</pdfrwt>
<totfact> 0.28268932E+05</totfact>
</mgrwt>
</event>
<event>
 6    2  0.9453093E+000  0.8703722E+02  0.7546771E-02  0.1310189E+00
          2   -1    0    0  502    0 -0.00000000000E+00  0.00000000000E+00  0.18146115688E+04  0.18146115688E+04  0.00000000000E+00 0. -1.
         21   -1    0    0  501  502  0.00000000000E+00 -0.00000000000E+00 -0.86228430414E+01  0.86228430414E+01  0.00000000000E+00 0. -1.
         24    2    1    2    0    0  0.24889517348E+02  0.23834350449E+02  0.17742530423E+04  0.17763865950E+04  0.79924418129E+02 0.  0.
        -13    1    3    3    0    0  0.16834297859E+02 -0.29023762560E+02  0.66743283588E+03  0.66827566377E+03  0.00000000000E+00 0.  1.
         14    1    3    3    0    0  0.80552194895E+01  0.52858113009E+02  0.11068202064E+04  0.11081109313E+04  0.00000000000E+00 0. -1.
          1    1    1    2  501    0 -0.24889517348E+02 -0.23834350449E+02  0.31735683500E+02  0.46847816837E+02  0.00000000000E+00 0. -1.
<mgrwt>
<rscale>  1 0.87037216E+02</rscale>
<asrwt>0</asrwt>
<pdfrwt beam="1">  1       21 0.13265927E-02 0.87037216E+02</pdfrwt>
<pdfrwt beam="2">  1        2 0.27917071E+00 0.87037216E+02</pdfrwt>
<totfact> 0.28455179E+05</totfact>
</mgrwt>
</event>
<event>
 6    2  0.9453093E+000  0.8494324E+02  0.7546771E-02  0.1315581E+00
         21   -1    0    0  501  502  0.00000000000E+00  0.00000000000E+00  0.75902743897E+01  0.75902743897E+01  0.00000000000E+00 0.  1.
          2   -1    0    0  502    0 -0.00000000000E+00 -0.00000000000E+00 -0.52465043934E+03  0.52465043934E+03  0.00000000000E+00 0. -1.
         24    2    1    2    0    0  0.25256402122E+02 -0.12349680814E+02 -0.25719192631E+03  0.27085612750E+03  0.80155813146E+02 0.  0.
        -11    1    3    3    0    0 -0.39879904918E+01  0.10091662026E+02  0.18515197704E+00  0.10852649071E+02  0.00000000000E+00 0.  1.
         12    1    3    3    0    0  0.29244392614E+02 -0.22441342840E+02 -0.25737707829E+03  0.26000347843E+03  0.00000000000E+00 0. -1.
          1    1    1    2  501    0 -0.25256402122E+02  0.12349680814E+02 -0.25986823864E+03  0.26138458623E+03  0.00000000000E+00 0. -1.
<mgrwt>
<rscale>  1 0.84943245E+02</rscale>
<asrwt>0</asrwt>
<pdfrwt beam="1">  1       21 0.11677348E-02 0.84943245E+02</pdfrwt>
<pdfrwt beam="2">  1        2 0.80715436E-01 0.84943245E+02</pdfrwt>
<totfact> 0.20006430E+06</totfact>
</mgrwt>
</event>
<event>
 6    2  0.1014620E+001  0.1096139E+03  0.7546771E-02  0.1261287E+00
         -3   -1    0    0    0  501 -0.00000000000E+00  0.00000000000E+00  0.59861689951E+03  0.59861689951E+03  0.00000000000E+00 0.  1.
         21   -1    0    0  501  502  0.00000000000E+00 -0.00000000000E+00 -0.19297663454E+02  0.19297663454E+02  0.00000000000E+00 0.  1.
         24    2    1    2    0    0  0.73380831299E+02 -0.20627560137E+02  0.48194844299E+03  0.49425651033E+03  0.78771528235E+02 0.  0.
        -13    1    3    3    0    0  0.86121041620E+02 -0.13653536892E+02  0.45816676674E+03  0.46639043625E+03  0.00000000000E+00 0.  1.
         14    1    3    3    0    0 -0.12740210321E+02 -0.69740232449E+01  0.23781676248E+02  0.27866074076E+02  0.00000000000E+00 0. -1.
         -4    1    1    2    0  502 -0.73380831299E+02  0.20627560137E+02  0.97370793063E+02  0.12365805263E+03  0.00000000000E+00 0.  1.
<mgrwt>
<rscale>  1 0.10961385E+03</rscale>
<asrwt>0</asrwt>
<pdfrwt beam="1">  1       21 0.29688718E-02 0.10961385E+03</pdfrwt>
<pdfrwt beam="2">  1       -3 0.92094893E-01 0.10961385E+03</pdfrwt>
<totfact> 0.33042220E+04</totfact>
</mgrwt>
</event>
<event>
 6    2  0.9453093E+000  0.8221889E+02  0.7546771E-02  0.1322870E+00
         21   -1    0    0  501  502  0.00000000000E+00  0.00000000000E+00  0.90557693059E+02  0.90557693059E+02  0.00000000000E+00 0. -1.
         -1   -1    0    0    0  501 -0.00000000000E+00 -0.00000000000E+00 -0.36442981278E+02  0.36442981278E+02  0.00000000000E+00 0.  1.
         24    2    1    2    0    0 -0.89551154177E+01  0.28344460622E+02  0.26383828670E+02  0.86348436782E+02  0.76657312628E+02 0.  0.
        -11    1    3    3    0    0 -0.44977308140E-01 -0.81419617811E+00 -0.25852282921E+02  0.25865140066E+02  0.00000000000E+00 0.  1.
         12    1    3    3    0    0 -0.89101381096E+01  0.29158656800E+02  0.52236111591E+02  0.60483296716E+02  0.00000000000E+00 0. -1.
         -2    1    1    2    0  502  0.89551154177E+01 -0.28344460622E+02  0.27730883111E+02  0.40652237555E+02  0.00000000000E+00 0.  1.
<mgrwt>
<rscale>  1 0.82218891E+02</rscale>
<asrwt>0</asrwt>
<pdfrwt beam="1">  1       21 0.13931953E-01 0.82218891E+02</pdfrwt>
<pdfrwt beam="2">  1       -1 0.56066125E-02 0.82218891E+02</pdfrwt>
<totfact> 0.54152439E+05</totfact>
</mgrwt>
</event>
<event>
 6    2  0.9453093E+000  0.1051235E+03  0.7546771E-02  0.1269876E+00
          2   -1    0    0  502    0 -0.00000000000E+00  0.00000000000E+00  0.26701313276E+03  0.26701313276E+03  0.00000000000E+00 0. -1.
         21   -1    0    0  501  502  0.00000000000E+00 -0.00000000000E+00 -0.71392979491E+02  0.71392979491E+02  0.00000000000E+00 0. -1.
         24    2    1    2    0    0 -0.44134235166E+02 -0.51186316958E+02  0.23692376401E+03  0.25919842312E+03  0.80517593349E+02 0.  0.
        -13    1    3    3    0    0  0.55191952548E+01 -0.31752480456E+02  0.25334752867E+02  0.40994282945E+02  0.00000000000E+00 0.  1.
         14    1    3    3    0    0 -0.49653430420E+02 -0.19433836502E+02  0.21158901114E+03  0.21820414018E+03  0.00000000000E+00 0. -1.
          1    1    1    2  501    0  0.44134235166E+02  0.51186316958E+02 -0.41303610739E+02  0.79207689131E+02  0.00000000000E+00 0. -1.
<mgrwt>
<rscale>  1 0.10512351E+03</rscale>
<asrwt>0</asrwt>
<pdfrwt beam="1">  1       21 0.10983535E-01 0.10512351E+03</pdfrwt>
<pdfrwt beam="2">  1        2 0.41078943E-01 0.10512351E+03</pdfrwt>
<totfact> 0.10372165E+05</totfact>
</mgrwt>
</event>
<event>
 6    2  0.9453093E+000  0.8371192E+02  0.7546771E-02  0.1318836E+00
          4   -1    0    0  502    0 -0.00000000000E+00  0.00000000000E+00  0.60207227693E+02  0.60207227693E+02  0.00000000000E+00 0. -1.
         21   -1    0    0  501  502  0.00000000000E+00 -0.00000000000E+00 -0.74201119646E+02  0.74201119646E+02  0.00000000000E+00 0. -1.
         24    2    1    2    0    0  0.68313735596E+01  0.19853599094E+02  0.27326820085E+02  0.88059298751E+02  0.81036115028E+02 0.  0.
        -11    1    3    3    0    0  0.19315455534E+02 -0.26533851606E+02  0.54831850453E-01  0.32819736593E+02  0.00000000000E+00 0.  1.
         12    1    3    3    0    0 -0.12484081974E+02  0.46387450700E+02  0.27271988235E+02  0.55239562158E+02  0.00000000000E+00 0. -1.
          3    1    1    2  501    0 -0.68313735596E+01 -0.19853599094E+02 -0.41320712038E+02  0.46349048588E+02  0.00000000000E+00 0. -1.
<mgrwt>
<rscale>  1 0.83711917E+02</rscale>
<asrwt>0</asrwt>
<pdfrwt beam="1">  1       21 0.11415557E-01 0.83711917E+02</pdfrwt>
<pdfrwt beam="2">  1        4 0.92626504E-02 0.83711917E+02</pdfrwt>
<totfact> 0.20461932E+05</totfact>
</mgrwt>
</event>
<event>
 6    2  0.9453093E+000  0.8946353E+02  0.7546771E-02  0.1304156E+00
          2   -1    0    0  502    0 -0.00000000000E+00  0.00000000000E+00  0.32811398387E+03  0.32811398387E+03  0.00000000000E+00 0. -1.
         21   -1    0    0  501  502  0.00000000000E+00 -0.00000000000E+00 -0.13322963514E+02  0.13322963514E+02  0.00000000000E+00 0.  1.
         24    2    1    2    0    0  0.92066174575E+00  0.33346142515E+02  0.27670090938E+03  0.29080425643E+03  0.83011502029E+02 0.  0.
        -13    1    3    3    0    0 -0.94948882291E+01 -0.12873391362E+02  0.78645714628E+01  0.17824942972E+02  0.00000000000E+00 0.  1.
         14    1    3    3    0    0  0.10415549975E+02  0.46219533877E+02  0.26883633792E+03  0.27297931346E+03  0.00000000000E+00 0. -1.
          1    1    1    2  501    0 -0.92066174575E+00 -0.33346142515E+02  0.38090110975E+02  0.50632690949E+02  0.00000000000E+00 0. -1.
<mgrwt>
<rscale>  1 0.89463525E+02</rscale>
<asrwt>0</asrwt>
<pdfrwt beam="1">  1       21 0.20496869E-02 0.89463525E+02</pdfrwt>
<pdfrwt beam="2">  1        2 0.50479068E-01 0.89463525E+02</pdfrwt>
<totfact> 0.13565813E+06</totfact>
</mgrwt>
</event>
<event>
 6    2  0.9453093E+000  0.8213737E+02  0.7546771E-02  0.1323093E+00
         -1   -1    0    0    0  501 -0.00000000000E+00  0.00000000000E+00  0.20171398058E+03  0.20171398058E+03  0.00000000000E+00 0.  1.
         21   -1    0    0  501  502  0.00000000000E+00 -0.00000000000E+00 -0.14965676571E+02  0.14965676571E+02  0.00000000000E+00 0. -1.
         24    2    1    2    0    0  0.33652389806E+01  0.20441475970E+02  0.17384749275E+03  0.19227454079E+03  0.79481881767E+02 0.  0.
        -11    1    3    3    0    0  0.20511114344E+02  0.33452662062E+02  0.16395664269E+03  0.16858697189E+03  0.00000000000E+00 0.  1.
         12    1    3    3    0    0 -0.17145875363E+02 -0.13011186092E+02  0.98908500600E+01  0.23687568900E+02  0.00000000000E+00 0. -1.
         -2    1    1    2    0  502 -0.33652389806E+01 -0.20441475970E+02  0.12900811259E+02  0.24405116357E+02  0.00000000000E+00 0.  1.
<mgrwt>
<rscale>  1 0.82137375E+02</rscale>
<asrwt>0</asrwt>
<pdfrwt beam="1">  1       21 0.23024119E-02 0.82137375E+02</pdfrwt>
<pdfrwt beam="2">  1       -1 0.31032918E-01 0.82137375E+02</pdfrwt>
<totfact> 0.79028725E+05</totfact>
</mgrwt>
</event>
<event>
 6    2  0.9904960E+000  0.9320714E+02  0.7546771E-02  0.1295266E+00
         -1   -1    0    0    0  501 -0.00000000000E+00  0.00000000000E+00  0.56385909194E+03  0.56385909194E+03  0.00000000000E+00 0.  1.
         21   -1    0    0  501  502  0.00000000000E+00 -0.00000000000E+00 -0.11044761331E+02  0.11044761331E+02  0.00000000000E+00 0.  1.
         24    2    1    2    0    0 -0.41543146053E+02 -0.57109006672E+01  0.49373116543E+03  0.50245202253E+03  0.83241359050E+02 0.  0.
        -13    1    3    3    0    0 -0.62780453457E+02 -0.16640180454E+02  0.41880155827E+03  0.42380777028E+03  0.00000000000E+00 0.  1.
         14    1    3    3    0    0  0.21237307404E+02  0.10929279787E+02  0.74929607161E+02  0.78644252248E+02  0.00000000000E+00 0. -1.
         -2    1    1    2    0  502  0.41543146053E+02  0.57109006672E+01  0.59083165182E+02  0.72451830746E+02  0.00000000000E+00 0.  1.
<mgrwt>
<rscale>  1 0.93207142E+02</rscale>
<asrwt>0</asrwt>
<pdfrwt beam="1">  1       21 0.16991945E-02 0.93207142E+02</pdfrwt>
<pdfrwt beam="2">  1       -1 0.86747530E-01 0.93207142E+02</pdfrwt>
<totfact> 0.19707918E+05</totfact>
</mgrwt>
</event>
<event>
 6    2  0.9453093E+000  0.9041908E+02  0.7546771E-02  0.1301840E+00
         21   -1    0    0  501  502  0.00000000000E+00  0.00000000000E+00  0.13126556239E+02  0.13126556239E+02  0.00000000000E+00 0. -1.
          2   -1    0    0  502    0 -0.00000000000E+00 -0.00000000000E+00 -0.58288328197E+03  0.58288328197E+03  0.00000000000E+00 0. -1.
         24    2    1    2    0    0 -0.69509927372E+01  0.39894832714E+02 -0.53516906579E+03  0.54275366300E+03  0.80843650037E+02 0.  0.
        -13    1    3    3    0    0 -0.80695119362E+01  0.21585847742E+02 -0.33001946700E+02  0.40251637627E+02  0.00000000000E+00 0.  1.
         14    1    3    3    0    0  0.11185191990E+01  0.18308984972E+02 -0.50216711909E+03  0.50250202538E+03  0.00000000000E+00 0. -1.
          1    1    1    2  501    0  0.69509927372E+01 -0.39894832714E+02 -0.34587659948E+02  0.53256175210E+02  0.00000000000E+00 0. -1.
<mgrwt>
<rscale>  1 0.90419078E+02</rscale>
<asrwt>0</asrwt>
<pdfrwt beam="1">  1       21 0.20194701E-02 0.90419078E+02</pdfrwt>
<pdfrwt beam="2">  1        2 0.89674356E-01 0.90419078E+02</pdfrwt>
<totfact> 0.75329885E+05</totfact>
</mgrwt>
</event>
<event>
 6    2  0.9453093E+000  0.9174514E+02  0.7546771E-02  0.1298680E+00
          2   -1    0    0  502    0 -0.00000000000E+00  0.00000000000E+00  0.16331983993E+04  0.16331983993E+04  0.00000000000E+00 0. -1.
         21   -1    0    0  501  502  0.00000000000E+00 -0.00000000000E+00 -0.29193706483E+01  0.29193706483E+01  0.00000000000E+00 0. -1.
         24    2    1    2    0    0  0.11571306995E+02 -0.42741188035E+02  0.95841920590E+03  0.96280036654E+03  0.80352145443E+02 0.  0.
        -11    1    3    3    0    0 -0.15384243371E+02  0.44954128455E+01  0.45099997696E+02  0.47863278962E+02  0.00000000000E+00 0.  1.
         12    1    3    3    0    0  0.26955550366E+02 -0.47236600881E+02  0.91331920820E+03  0.91493708758E+03  0.00000000000E+00 0. -1.
          1    1    1    2  501    0 -0.11571306995E+02  0.42741188035E+02  0.67185982274E+03  0.67331740339E+03  0.00000000000E+00 0. -1.
<mgrwt>
<rscale>  1 0.91745145E+02</rscale>
<asrwt>0</asrwt>
<pdfrwt beam="1">  1       21 0.44913525E-03 0.91745145E+02</pdfrwt>
<pdfrwt beam="2">  1        2 0.25126056E+00 0.91745145E+02</pdfrwt>
<totfact> 0.18875867E+06</totfact>
</mgrwt>
</event>
<event>
 6    2  0.9453093E+000  0.8327745E+02  0.7546771E-02  0.1320000E+00
         -1   -1    0    0    0  501 -0.00000000000E+00  0.00000000000E+00  0.53410715071E+01  0.53410715071E+01  0.00000000000E+00 0.  1.
         21   -1    0    0  501  502  0.00000000000E+00 -0.00000000000E+00 -0.55855463566E+03  0.55855463566E+03  0.00000000000E+00 0. -1.
         24    2    1    2    0    0 -0.22079798152E+02 -0.13437935966E+02 -0.41092874625E+03  0.41928220498E+03  0.79164621568E+02 0.  0.
        -11    1    3    3    0    0  0.10991839502E+02  0.26765273873E+02 -0.19683365842E+03  0.19894896207E+03  0.00000000000E+00 0.  1.
         12    1    3    3    0    0 -0.33071637654E+02 -0.40203209840E+02 -0.21409508783E+03  0.22033324291E+03  0.00000000000E+00 0. -1.
         -2    1    1    2    0  502  0.22079798152E+02  0.13437935966E+02 -0.14228481791E+03  0.14461350219E+03  0.00000000000E+00 0.  1.
<mgrwt>
<rscale>  1 0.83277445E+02</rscale>
<asrwt>0</asrwt>
<pdfrwt beam="1">  1       21 0.85931466E-01 0.83277445E+02</pdfrwt>
<pdfrwt beam="2">  1       -1 0.82170347E-03 0.83277445E+02</pdfrwt>
<totfact> 0.23866732E+05</totfact>
</mgrwt>
</event>
<event>
 6    2  0.9453093E+000  0.8664778E+02  0.7546771E-02  0.1311179E+00
         -3   -1    0    0    0  501 -0.00000000000E+00  0.00000000000E+00  0.29985606784E+03  0.29985606784E+03  0.00000000000E+00 0.  1.
         21   -1    0    0  501  502  0.00000000000E+00 -0.00000000000E+00 -0.14498815053E+02  0.14498815053E+02  0.00000000000E+00 0. -1.
         24    2    1    2    0    0 -0.10750303084E+02 -0.30333429152E+02  0.13371023466E+03  0.15933067818E+03  0.80449687479E+02 0.  0.
        -13    1    3    3    0    0 -0.25518152079E+02  0.20958224066E+02  0.57085091212E+02  0.65947940682E+02  0.00000000000E+00 0.  1.
         14    1    3    3    0    0  0.14767848995E+02 -0.51291653218E+02  0.76625143446E+02  0.93382737495E+02  0.00000000000E+00 0. -1.
         -4    1    1    2    0  502  0.10750303084E+02  0.30333429152E+02  0.15164701813E+03  0.15502420472E+03  0.00000000000E+00 0.  1.
<mgrwt>
<rscale>  1 0.86647782E+02</rscale>
<asrwt>0</asrwt>
<pdfrwt beam="1">  1       21 0.22305872E-02 0.86647782E+02</pdfrwt>
<pdfrwt beam="2">  1       -3 0.46131698E-01 0.86647782E+02</pdfrwt>
<totfact> 0.21393284E+05</totfact>
</mgrwt>
</event>
<event>
 6    2  0.9453093E+000  0.9229189E+02  0.7546771E-02  0.1297395E+00
         21   -1    0    0  501  502  0.00000000000E+00  0.00000000000E+00  0.14932136986E+02  0.14932136986E+02  0.00000000000E+00 0. -1.
          2   -1    0    0  502    0 -0.00000000000E+00 -0.00000000000E+00 -0.63447362779E+03  0.63447362779E+03  0.00000000000E+00 0. -1.
         24    2    1    2    0    0  0.21840376200E+02 -0.39370590531E+02 -0.58610020925E+03  0.59332221332E+03  0.80565179291E+02 0.  0.
        -13    1    3    3    0    0 -0.16541623186E+02 -0.57043233093E+01 -0.28874054718E+02  0.33762044338E+02  0.00000000000E+00 0.  1.
         14    1    3    3    0    0  0.38381999385E+02 -0.33666267222E+02 -0.55722615453E+03  0.55956016899E+03  0.00000000000E+00 0. -1.
          1    1    1    2  501    0 -0.21840376200E+02  0.39370590531E+02 -0.33441281562E+02  0.56083551455E+02  0.00000000000E+00 0. -1.
<mgrwt>
<rscale>  1 0.92291893E+02</rscale>
<asrwt>0</asrwt>
<pdfrwt beam="1">  1       21 0.22972517E-02 0.92291893E+02</pdfrwt>
<pdfrwt beam="2">  1        2 0.97611334E-01 0.92291893E+02</pdfrwt>
<totfact> 0.55781371E+05</totfact>
</mgrwt>
</event>
<event>
 6    2  0.9453093E+000  0.8578321E+02  0.7546771E-02  0.1313397E+00
         21   -1    0    0  501  502  0.00000000000E+00  0.00000000000E+00  0.19380245937E+03  0.19380245937E+03  0.00000000000E+00 0. -1.
          2   -1    0    0  502    0 -0.00000000000E+00 -0.00000000000E+00 -0.20997417153E+03  0.20997417153E+03  0.00000000000E+00 0. -1.
         24    2    1    2    0    0 -0.22513403715E+02 -0.23450876442E+02 -0.19972441176E+03  0.21736742920E+03  0.79384895725E+02 0.  0.
        -13    1    3    3    0    0 -0.49084281256E+02 -0.26396450829E+02 -0.10414275996E+03  0.11811754203E+03  0.00000000000E+00 0.  1.
         14    1    3    3    0    0  0.26570877542E+02  0.29455743862E+01 -0.95581651797E+02  0.99249887163E+02  0.00000000000E+00 0. -1.
          1    1    1    2  501    0  0.22513403715E+02  0.23450876442E+02  0.18355269959E+03  0.18640920171E+03  0.00000000000E+00 0. -1.
<mgrwt>
<rscale>  1 0.85783207E+02</rscale>
<asrwt>0</asrwt>
<pdfrwt beam="1">  1       21 0.29815763E-01 0.85783207E+02</pdfrwt>
<pdfrwt beam="2">  1        2 0.32303719E-01 0.85783207E+02</pdfrwt>
<totfact> 0.21618814E+04</totfact>
</mgrwt>
</event>
<event>
 6    2  0.9453093E+000  0.8864330E+02  0.7546771E-02  0.1306171E+00
         21   -1    0    0  501  502  0.00000000000E+00  0.00000000000E+00  0.14959516914E+04  0.14959516914E+04  0.00000000000E+00 0.  1.
         -3   -1    0    0    0  501 -0.00000000000E+00 -0.00000000000E+00 -0.28803773960E+01  0.28803773960E+01  0.00000000000E+00 0.  1.
         24    2    1    2    0    0  0.14860787152E+02 -0.32416542051E+02  0.81118724364E+03  0.81601616344E+03  0.81153925075E+02 0.  0.
        -11    1    3    3    0    0  0.26881037250E+02 -0.47598479507E+02  0.33462055603E+03  0.33905622238E+03  0.00000000000E+00 0.  1.
         12    1    3    3    0    0 -0.12020250098E+02  0.15181937456E+02  0.47656668761E+03  0.47695994106E+03  0.00000000000E+00 0. -1.
         -4    1    1    2    0  502 -0.14860787152E+02  0.32416542051E+02  0.68188407040E+03  0.68281590539E+03  0.00000000000E+00 0.  1.
<mgrwt>
<rscale>  1 0.88643301E+02</rscale>
<asrwt>0</asrwt>
<pdfrwt beam="1">  1       21 0.23014579E+00 0.88643301E+02</pdfrwt>
<pdfrwt beam="2">  1       -3 0.44313618E-03 0.88643301E+02</pdfrwt>
<totfact> 0.38974289E+04</totfact>
</mgrwt>
</event>
<event>
 6    2  0.9453093E+000  0.8400083E+02  0.7546771E-02  0.1318066E+00
         -1   -1    0    0    0  501 -0.00000000000E+00  0.00000000000E+00  0.25251830649E+02  0.25251830649E+02  0.00000000000E+00 0.  1.
         21   -1    0    0  501  502  0.00000000000E+00 -0.00000000000E+00 -0.11000854843E+03  0.11000854843E+03  0.00000000000E+00 0. -1.
         24    2    1    2    0    0 -0.16052099759E+02 -0.13467720938E+02 -0.62570462795E+02  0.10474350958E+03  0.81345501228E+02 0.  0.
        -11    1    3    3    0    0  0.52186045641E+01 -0.42642118716E+02 -0.16060317151E+02  0.45864124424E+02  0.00000000000E+00 0.  1.
         12    1    3    3    0    0 -0.21270704323E+02  0.29174397778E+02 -0.46510145644E+02  0.58879385152E+02  0.00000000000E+00 0. -1.
         -2    1    1    2    0  502  0.16052099759E+02  0.13467720938E+02 -0.22186254981E+02  0.30516869499E+02  0.00000000000E+00 0.  1.
<mgrwt>
<rscale>  1 0.84000833E+02</rscale>
<asrwt>0</asrwt>
<pdfrwt beam="1">  1       21 0.16924392E-01 0.84000833E+02</pdfrwt>
<pdfrwt beam="2">  1       -1 0.38848970E-02 0.84000833E+02</pdfrwt>
<totfact> 0.65451416E+05</totfact>
</mgrwt>
</event>
<event>
 6    2  0.9453093E+000  0.8644776E+02  0.7546771E-02  0.1311689E+00
         21   -1    0    0  501  502  0.00000000000E+00  0.00000000000E+00  0.18268320683E+02  0.18268320683E+02  0.00000000000E+00 0.  1.
          2   -1    0    0  502    0 -0.00000000000E+00 -0.00000000000E+00 -0.19341882133E+03  0.19341882133E+03  0.00000000000E+00 0. -1.
         24    2    1    2    0    0  0.13551365506E+02  0.29052702088E+02 -0.13503127912E+03  0.16033297041E+03  0.80283971326E+02 0.  0.
        -11    1    3    3    0    0 -0.12129097611E+02  0.46126822304E+02 -0.46609042136E+02  0.66687341779E+02  0.00000000000E+00 0.  1.
         12    1    3    3    0    0  0.25680463117E+02 -0.17074120216E+02 -0.88422236989E+02  0.93645628628E+02  0.00000000000E+00 0. -1.
          1    1    1    2  501    0 -0.13551365506E+02 -0.29052702088E+02 -0.40119221519E+02  0.51354171603E+02  0.00000000000E+00 0. -1.
<mgrwt>
<rscale>  1 0.86447759E+02</rscale>
<asrwt>0</asrwt>
<pdfrwt beam="1">  1       21 0.28105110E-02 0.86447759E+02</pdfrwt>
<pdfrwt beam="2">  1        2 0.29756741E-01 0.86447759E+02</pdfrwt>
<totfact> 0.14170212E+06</totfact>
</mgrwt>
</event>
<event>
 6    2  0.9453093E+000  0.8489934E+02  0.7546771E-02  0.1315696E+00
          2   -1    0    0  502    0 -0.00000000000E+00  0.00000000000E+00  0.20745012866E+03  0.20745012866E+03  0.00000000000E+00 0. -1.
         21   -1    0    0  501  502  0.00000000000E+00 -0.00000000000E+00 -0.14140639776E+03  0.14140639776E+03  0.00000000000E+00 0. -1.
         24    2    1    2    0    0 -0.12864287826E+01  0.29108644392E+02  0.19709632773E+03  0.21460396140E+03  0.79742897920E+02 0.  0.
        -13    1    3    3    0    0 -0.29750123817E+02  0.10953349450E+01  0.28046348712E+02  0.40900700506E+02  0.00000000000E+00 0.  1.
         14    1    3    3    0    0  0.28463695034E+02  0.28013309447E+02  0.16904997901E+03  0.17370326089E+03  0.00000000000E+00 0. -1.
          1    1    1    2  501    0  0.12864287826E+01 -0.29108644392E+02 -0.13105259683E+03  0.13425256502E+03  0.00000000000E+00 0. -1.
<mgrwt>
<rscale>  1 0.84899339E+02</rscale>
<asrwt>0</asrwt>
<pdfrwt beam="1">  1       21 0.21754830E-01 0.84899339E+02</pdfrwt>
<pdfrwt beam="2">  1        2 0.31915405E-01 0.84899339E+02</pdfrwt>
<totfact> 0.39507437E+04</totfact>
</mgrwt>
</event>
<event>
 6    2  0.9453093E+000  0.8558264E+02  0.7546771E-02  0.1313916E+00
         21   -1    0    0  501  502  0.00000000000E+00  0.00000000000E+00  0.54210108484E+01  0.54210108484E+01  0.00000000000E+00 0. -1.
          2   -1    0    0  502    0 -0.00000000000E+00 -0.00000000000E+00 -0.15009226471E+04  0.15009226471E+04  0.00000000000E+00 0. -1.
         24    2    1    2    0    0  0.29462101891E+02 -0.23445501970E+02 -0.14137483768E+04  0.14163364224E+04  0.76854938962E+02 0.  0.
        -13    1    3    3    0    0  0.30805847853E+02  0.88359117332E+00 -0.20149667135E+03  0.20383986254E+03  0.00000000000E+00 0.  1.
         14    1    3    3    0    0 -0.13437459616E+01 -0.24329093143E+02 -0.12122517054E+04  0.12124965599E+04  0.00000000000E+00 0. -1.
          1    1    1    2  501    0 -0.29462101891E+02  0.23445501970E+02 -0.81753259412E+02  0.90007235459E+02  0.00000000000E+00 0. -1.
<mgrwt>
<rscale>  1 0.85582642E+02</rscale>
<asrwt>0</asrwt>
<pdfrwt beam="1">  1       21 0.83400219E-03 0.85582642E+02</pdfrwt>
<pdfrwt beam="2">  1        2 0.23091103E+00 0.85582642E+02</pdfrwt>
<totfact> 0.84513651E+05</totfact>
</mgrwt>
</event>
<event>
 6    2  0.9453093E+000  0.7952900E+02  0.7546771E-02  0.1330393E+00
         21   -1    0    0  501  502  0.00000000000E+00  0.00000000000E+00  0.28506871794E+01  0.28506871794E+01  0.00000000000E+00 0.  1.
          2   -1    0    0  502    0 -0.00000000000E+00 -0.00000000000E+00 -0.12005175384E+04  0.12005175384E+04  0.00000000000E+00 0. -1.
         24    2    1    2    0    0 -0.33720796290E+02  0.54412213131E+01 -0.69339698337E+03  0.69794286154E+03  0.71820348348E+02 0.  0.
        -11    1    3    3    0    0  0.94527943007E+01  0.79239042614E+01 -0.22546393804E+02  0.25699872614E+02  0.00000000000E+00 0.  1.
         12    1    3    3    0    0 -0.43173590591E+02 -0.24826829483E+01 -0.67085058957E+03  0.67224298893E+03  0.00000000000E+00 0. -1.
          1    1    1    2  501    0  0.33720796290E+02 -0.54412213131E+01 -0.50426986783E+03  0.50542536402E+03  0.00000000000E+00 0. -1.
<mgrwt>
<rscale>  1 0.79528997E+02</rscale>
<asrwt>0</asrwt>
<pdfrwt beam="1">  1       21 0.43856604E-03 0.79528997E+02</pdfrwt>
<pdfrwt beam="2">  1        2 0.18469552E+00 0.79528997E+02</pdfrwt>
<totfact> 0.32369565E+06</totfact>
</mgrwt>
</event>
<event>
 6    2  0.9453093E+000  0.8387753E+02  0.7546771E-02  0.1318394E+00
         21   -1    0    0  501  502  0.00000000000E+00  0.00000000000E+00  0.35477713008E+01  0.35477713008E+01  0.00000000000E+00 0.  1.
          2   -1    0    0  502    0 -0.00000000000E+00 -0.00000000000E+00 -0.10008081761E+04  0.10008081761E+04  0.00000000000E+00 0. -1.
         24    2    1    2    0    0  0.21456290128E+02  0.34509370146E+00 -0.92954507298E+03  0.93332174692E+03  0.81086059732E+02 0.  0.
        -11    1    3    3    0    0  0.23798642125E+02 -0.29600530167E+02 -0.22862784092E+03  0.23176120555E+03  0.00000000000E+00 0.  1.
         12    1    3    3    0    0 -0.23423519968E+01  0.29945623868E+02 -0.70091723206E+03  0.70156054137E+03  0.00000000000E+00 0. -1.
          1    1    1    2  501    0 -0.21456290128E+02 -0.34509370146E+00 -0.67715331833E+02  0.71034200502E+02  0.00000000000E+00 0. -1.
<mgrwt>
<rscale>  1 0.83877533E+02</rscale>
<asrwt>0</asrwt>
<pdfrwt beam="1">  1       21 0.54581018E-03 0.83877533E+02</pdfrwt>
<pdfrwt beam="2">  1        2 0.15397071E+00 0.83877533E+02</pdfrwt>
<totfact> 0.30141945E+06</totfact>
</mgrwt>
</event>
<event>
 6    2  0.9453093E+000  0.8783039E+02  0.7546771E-02  0.1308192E+00
         21   -1    0    0  501  502  0.00000000000E+00  0.00000000000E+00  0.62531031943E+01  0.62531031943E+01  0.00000000000E+00 0. -1.
          2   -1    0    0  502    0 -0.00000000000E+00 -0.00000000000E+00 -0.21730680866E+04  0.21730680866E+04  0.00000000000E+00 0. -1.
         24    2    1    2    0    0  0.39410524672E+02 -0.57655612721E+01 -0.20977971110E+04  0.20996349434E+04  0.78279917717E+02 0.  0.
        -11    1    3    3    0    0  0.46310660033E+01  0.33941731184E+02 -0.69237068632E+03  0.69321761025E+03  0.00000000000E+00 0.  1.
         12    1    3    3    0    0  0.34779458668E+02 -0.39707292456E+02 -0.14054264246E+04  0.14064173331E+04  0.00000000000E+00 0. -1.
          1    1    1    2  501    0 -0.39410524672E+02  0.57655612721E+01 -0.69017872420E+02  0.79686246399E+02  0.00000000000E+00 0. -1.
<mgrwt>
<rscale>  1 0.87830386E+02</rscale>
<asrwt>0</asrwt>
<pdfrwt beam="1">  1       21 0.96201426E-03 0.87830386E+02</pdfrwt>
<pdfrwt beam="2">  1        2 0.33431873E+00 0.87830386E+02</pdfrwt>
<totfact> 0.31115253E+05</totfact>
</mgrwt>
</event>
<event>
 6    2  0.9453093E+000  0.9623180E+02  0.7546771E-02  0.1288426E+00
          2   -1    0    0  502    0 -0.00000000000E+00  0.00000000000E+00  0.10313940949E+04  0.10313940949E+04  0.00000000000E+00 0. -1.
         21   -1    0    0  501  502  0.00000000000E+00 -0.00000000000E+00 -0.47975757263E+01  0.47975757263E+01  0.00000000000E+00 0.  1.
         24    2    1    2    0    0 -0.93507974653E+01 -0.43047472834E+02  0.66671465594E+03  0.67362377655E+03  0.85557218030E+02 0.  0.
        -13    1    3    3    0    0 -0.32989882346E+02 -0.40694320131E+02  0.21519737981E+03  0.22148199093E+03  0.00000000000E+00 0.  1.
         14    1    3    3    0    0  0.23639084881E+02 -0.23531527031E+01  0.45151727613E+03  0.45214178562E+03  0.00000000000E+00 0. -1.
          1    1    1    2  501    0  0.93507974653E+01  0.43047472834E+02  0.35988186323E+03  0.36256789407E+03  0.00000000000E+00 0. -1.
<mgrwt>
<rscale>  1 0.96231803E+02</rscale>
<asrwt>0</asrwt>
<pdfrwt beam="1">  1       21 0.73808939E-03 0.96231803E+02</pdfrwt>
<pdfrwt beam="2">  1        2 0.15867584E+00 0.96231803E+02</pdfrwt>
<totfact> 0.18413630E+06</totfact>
</mgrwt>
</event>
<event>
 6    2  0.9453093E+000  0.8444559E+02  0.7546771E-02  0.1316889E+00
         -1   -1    0    0    0  501 -0.00000000000E+00  0.00000000000E+00  0.12350618082E+02  0.12350618082E+02  0.00000000000E+00 0.  1.
         21   -1    0    0  501  502  0.00000000000E+00 -0.00000000000E+00 -0.27926940404E+03  0.27926940404E+03  0.00000000000E+00 0. -1.
         24    2    1    2    0    0  0.81843992950E+01  0.27039408369E+02 -0.23081006428E+03  0.24577295267E+03  0.79579799515E+02 0.  0.
        -13    1    3    3    0    0 -0.57750071994E+01  0.53034749809E+02 -0.12459806406E+03  0.13553860322E+03  0.00000000000E+00 0.  1.
         14    1    3    3    0    0  0.13959406494E+02 -0.25995341440E+02 -0.10621200022E+03  0.11023434945E+03  0.00000000000E+00 0. -1.
         -2    1    1    2    0  502 -0.81843992950E+01 -0.27039408369E+02 -0.36108721679E+02  0.45847069460E+02  0.00000000000E+00 0.  1.
<mgrwt>
<rscale>  1 0.84445595E+02</rscale>
<asrwt>0</asrwt>
<pdfrwt beam="1">  1       21 0.42964522E-01 0.84445595E+02</pdfrwt>
<pdfrwt beam="2">  1       -1 0.19000952E-02 0.84445595E+02</pdfrwt>
<totfact> 0.31474198E+05</totfact>
</mgrwt>
</event>
<event>
 6    2  0.9453093E+000  0.8551788E+02  0.7546771E-02  0.1314084E+00
          2   -1    0    0  502    0 -0.00000000000E+00  0.00000000000E+00  0.15755930501E+03  0.15755930501E+03  0.00000000000E+00 0. -1.
         21   -1    0    0  501  502  0.00000000000E+00 -0.00000000000E+00 -0.20790773978E+02  0.20790773978E+02  0.00000000000E+00 0.  1.
         24    2    1    2    0    0  0.27509965055E+02  0.85903765318E+01  0.10592181671E+03  0.13613500430E+03  0.80515311556E+02 0.  0.
        -13    1    3    3    0    0  0.12715103683E+02  0.24447482687E+02 -0.46490032179E+00  0.27560286713E+02  0.00000000000E+00 0.  1.
         14    1    3    3    0    0  0.14794861372E+02 -0.15857106156E+02  0.10638671703E+03  0.10857471759E+03  0.00000000000E+00 0. -1.
          1    1    1    2  501    0 -0.27509965055E+02 -0.85903765318E+01  0.30846714321E+02  0.42215074686E+02  0.00000000000E+00 0. -1.
<mgrwt>
<rscale>  1 0.85517882E+02</rscale>
<asrwt>0</asrwt>
<pdfrwt beam="1">  1       21 0.31985807E-02 0.85517882E+02</pdfrwt>
<pdfrwt beam="2">  1        2 0.24239892E-01 0.85517882E+02</pdfrwt>
<totfact> 0.14312383E+06</totfact>
</mgrwt>
</event>
<event>
 6    2  0.9807424E+000  0.8066971E+02  0.7546771E-02  0.1327162E+00
         -3   -1    0    0    0  501 -0.00000000000E+00  0.00000000000E+00  0.14774482719E+03  0.14774482719E+03  0.00000000000E+00 0.  1.
         21   -1    0    0  501  502  0.00000000000E+00 -0.00000000000E+00 -0.26680729385E+02  0.26680729385E+02  0.00000000000E+00 0. -1.
         24    2    1    2    0    0 -0.27584449526E+02 -0.17064866867E+02  0.46500415342E+02  0.93112247215E+02  0.73861291740E+02 0.  0.
        -11    1    3    3    0    0  0.17474565722E+02  0.76233171556E+01  0.35903836789E+02  0.40651702398E+02  0.00000000000E+00 0.  1.
         12    1    3    3    0    0 -0.45059015248E+02 -0.24688184022E+02  0.10596578553E+02  0.52460544817E+02  0.00000000000E+00 0. -1.
         -4    1    1    2    0  502  0.27584449526E+02  0.17064866867E+02  0.74563682464E+02  0.81313309362E+02  0.00000000000E+00 0.  1.
<mgrwt>
<rscale>  1 0.80669709E+02</rscale>
<asrwt>0</asrwt>
<pdfrwt beam="1">  1       21 0.41047277E-02 0.80669709E+02</pdfrwt>
<pdfrwt beam="2">  1       -3 0.22729973E-01 0.80669709E+02</pdfrwt>
<totfact> 0.29109583E+05</totfact>
</mgrwt>
</event>
<event>
 6    2  0.9453093E+000  0.8530431E+02  0.7546771E-02  0.1314639E+00
         21   -1    0    0  501  502  0.00000000000E+00  0.00000000000E+00  0.69172670612E+02  0.69172670612E+02  0.00000000000E+00 0. -1.
          4   -1    0    0  502    0 -0.00000000000E+00 -0.00000000000E+00 -0.47664867752E+02  0.47664867752E+02  0.00000000000E+00 0. -1.
         24    2    1    2    0    0 -0.38631409446E+01 -0.20539268216E+02  0.34733902440E+02  0.92104663342E+02  0.82704532124E+02 0.  0.
        -11    1    3    3    0    0  0.28803794068E+02  0.18626405855E+02  0.14269577735E+02  0.37151344478E+02  0.00000000000E+00 0.  1.
         12    1    3    3    0    0 -0.32666935012E+02 -0.39165674071E+02  0.20464324705E+02  0.54953318864E+02  0.00000000000E+00 0. -1.
          3    1    1    2  501    0  0.38631409446E+01  0.20539268216E+02 -0.13226099579E+02  0.24732875022E+02  0.00000000000E+00 0. -1.
<mgrwt>
<rscale>  1 0.85304308E+02</rscale>
<asrwt>0</asrwt>
<pdfrwt beam="1">  1       21 0.10641949E-01 0.85304308E+02</pdfrwt>
<pdfrwt beam="2">  1        4 0.73330566E-02 0.85304308E+02</pdfrwt>
<totfact> 0.34060927E+05</totfact>
</mgrwt>
</event>
<event>
 6    2  0.9453093E+000  0.7351598E+02  0.7546771E-02  0.1348529E+00
         21   -1    0    0  501  502  0.00000000000E+00  0.00000000000E+00  0.27606098572E+03  0.27606098572E+03  0.00000000000E+00 0.  1.
         -3   -1    0    0    0  501 -0.00000000000E+00 -0.00000000000E+00 -0.20669001676E+02  0.20669001676E+02  0.00000000000E+00 0.  1.
         24    2    1    2    0    0 -0.21709377135E+02  0.39827061041E+02  0.56467232832E+02  0.92699233609E+02  0.57854193288E+02 0.  0.
        -11    1    3    3    0    0 -0.39406618311E+02  0.30184034892E+02  0.25641686214E+02  0.55869970476E+02  0.00000000000E+00 0.  1.
         12    1    3    3    0    0  0.17697241176E+02  0.96430261494E+01  0.30825546619E+02  0.36829263133E+02  0.00000000000E+00 0. -1.
         -4    1    1    2    0  502  0.21709377135E+02 -0.39827061041E+02  0.19892475121E+03  0.20403075378E+03  0.00000000000E+00 0.  1.
<mgrwt>
<rscale>  1 0.73515981E+02</rscale>
<asrwt>0</asrwt>
<pdfrwt beam="1">  1       21 0.42470918E-01 0.73515981E+02</pdfrwt>
<pdfrwt beam="2">  1       -3 0.31798466E-02 0.73515981E+02</pdfrwt>
<totfact> 0.10981054E+05</totfact>
</mgrwt>
</event>
<event>
 6    2  0.9453093E+000  0.9168777E+02  0.7546771E-02  0.1298815E+00
          2   -1    0    0  502    0 -0.00000000000E+00  0.00000000000E+00  0.90014723531E+03  0.90014723531E+03  0.00000000000E+00 0. -1.
         21   -1    0    0  501  502  0.00000000000E+00 -0.00000000000E+00 -0.53046862781E+01  0.53046862781E+01  0.00000000000E+00 0. -1.
         24    2    1    2    0    0  0.29984796468E+02 -0.32231228167E+02  0.67930056984E+03  0.68546036520E+03  0.80428278521E+02 0.  0.
        -13    1    3    3    0    0 -0.17303184495E+02 -0.63232548654E+01  0.41751029679E+02  0.45634769913E+02  0.00000000000E+00 0.  1.
         14    1    3    3    0    0  0.47287980962E+02 -0.25907973302E+02  0.63754954016E+03  0.63982559529E+03  0.00000000000E+00 0. -1.
          1    1    1    2  501    0 -0.29984796468E+02  0.32231228167E+02  0.21554197919E+03  0.21999155638E+03  0.00000000000E+00 0. -1.
<mgrwt>
<rscale>  1 0.91687775E+02</rscale>
<asrwt>0</asrwt>
<pdfrwt beam="1">  1       21 0.81610630E-03 0.91687775E+02</pdfrwt>
<pdfrwt beam="2">  1        2 0.13848407E+00 0.91687775E+02</pdfrwt>
<totfact> 0.18791499E+06</totfact>
</mgrwt>
</event>
<event>
 6    2  0.9453093E+000  0.9040381E+02  0.7546771E-02  0.1301877E+00
          2   -1    0    0  502    0 -0.00000000000E+00  0.00000000000E+00  0.15296200321E+04  0.15296200321E+04  0.00000000000E+00 0. -1.
         21   -1    0    0  501  502  0.00000000000E+00 -0.00000000000E+00 -0.76981031136E+01  0.76981031136E+01  0.00000000000E+00 0. -1.
         24    2    1    2    0    0 -0.12562809259E+02 -0.36063241181E+02  0.14704503355E+04  0.14732267436E+04  0.81941853694E+02 0.  0.
        -11    1    3    3    0    0 -0.15251427354E+02  0.13944832522E+02  0.11437318185E+03  0.11622516559E+03  0.00000000000E+00 0.  1.
         12    1    3    3    0    0  0.26886180953E+01 -0.50008073703E+02  0.13560771536E+04  0.13570015780E+04  0.00000000000E+00 0. -1.
          1    1    1    2  501    0  0.12562809259E+02  0.36063241181E+02  0.51471593481E+02  0.64091391594E+02  0.00000000000E+00 0. -1.
<mgrwt>
<rscale>  1 0.90403810E+02</rscale>
<asrwt>0</asrwt>
<pdfrwt beam="1">  1       21 0.11843248E-02 0.90403810E+02</pdfrwt>
<pdfrwt beam="2">  1        2 0.23532592E+00 0.90403810E+02</pdfrwt>
<totfact> 0.47393827E+05</totfact>
</mgrwt>
</event>
<event>
 6    2  0.9453093E+000  0.1244302E+03  0.7546771E-02  0.1235962E+00
          2   -1    0    0  502    0 -0.00000000000E+00  0.00000000000E+00  0.13202890959E+04  0.13202890959E+04  0.00000000000E+00 0. -1.
         21   -1    0    0  501  502  0.00000000000E+00 -0.00000000000E+00 -0.23836289702E+02  0.23836289702E+02  0.00000000000E+00 0. -1.
         24    2    1    2    0    0  0.90714310054E+02 -0.51406767758E+01  0.12172426127E+04  0.12235859009E+04  0.85013917836E+02 0.  0.
        -11    1    3    3    0    0 -0.28149713168E+01  0.21044676301E+02  0.10591582908E+03  0.10802298512E+03  0.00000000000E+00 0.  1.
         12    1    3    3    0    0  0.93529281371E+02 -0.26185353077E+02  0.11113267836E+04  0.11155629158E+04  0.00000000000E+00 0. -1.
          1    1    1    2  501    0 -0.90714310054E+02  0.51406767758E+01  0.79210193505E+02  0.12053948466E+03  0.00000000000E+00 0. -1.
<mgrwt>
<rscale>  1 0.12443022E+03</rscale>
<asrwt>0</asrwt>
<pdfrwt beam="1">  1       21 0.36671225E-02 0.12443022E+03</pdfrwt>
<pdfrwt beam="2">  1        2 0.20312134E+00 0.12443022E+03</pdfrwt>
<totfact> 0.99481525E+04</totfact>
</mgrwt>
</event>
<event>
 6    2  0.9453093E+000  0.8357584E+02  0.7546771E-02  0.1319199E+00
         21   -1    0    0  501  502  0.00000000000E+00  0.00000000000E+00  0.92461767639E+01  0.92461767639E+01  0.00000000000E+00 0.  1.
          2   -1    0    0  502    0 -0.00000000000E+00 -0.00000000000E+00 -0.51495832653E+03  0.51495832653E+03  0.00000000000E+00 0. -1.
         24    2    1    2    0    0 -0.43346020537E+01  0.26871961353E+02 -0.19311014400E+03  0.21041969631E+03  0.79019173619E+02 0.  0.
        -13    1    3    3    0    0 -0.25523838453E+02 -0.13831268412E+02 -0.33424867657E+02  0.44271797943E+02  0.00000000000E+00 0.  1.
         14    1    3    3    0    0  0.21189236399E+02  0.40703229764E+02 -0.15968527634E+03  0.16614789837E+03  0.00000000000E+00 0. -1.
          1    1    1    2  501    0  0.43346020537E+01 -0.26871961353E+02 -0.31260200577E+03  0.31378480698E+03  0.00000000000E+00 0. -1.
<mgrwt>
<rscale>  1 0.83575839E+02</rscale>
<asrwt>0</asrwt>
<pdfrwt beam="1">  1       21 0.14224889E-02 0.83575839E+02</pdfrwt>
<pdfrwt beam="2">  1        2 0.79224349E-01 0.83575839E+02</pdfrwt>
<totfact> 0.14940627E+06</totfact>
</mgrwt>
</event>
<event>
 6    2  0.9453093E+000  0.9142061E+02  0.7546771E-02  0.1299448E+00
         21   -1    0    0  501  502  0.00000000000E+00  0.00000000000E+00  0.33833043535E+02  0.33833043535E+02  0.00000000000E+00 0.  1.
          4   -1    0    0  502    0 -0.00000000000E+00 -0.00000000000E+00 -0.17870197195E+03  0.17870197195E+03  0.00000000000E+00 0. -1.
         24    2    1    2    0    0  0.25748615796E+02 -0.39316009044E+02 -0.44431662139E+02  0.10164595273E+03  0.78415478845E+02 0.  0.
        -13    1    3    3    0    0  0.37584486413E+02 -0.22623802816E+02  0.86888256336E+01  0.44720529555E+02  0.00000000000E+00 0.  1.
         14    1    3    3    0    0 -0.11835870617E+02 -0.16692206228E+02 -0.53120487772E+02  0.56925423171E+02  0.00000000000E+00 0. -1.
          3    1    1    2  501    0 -0.25748615796E+02  0.39316009044E+02 -0.10043726628E+03  0.11088906276E+03  0.00000000000E+00 0. -1.
<mgrwt>
<rscale>  1 0.91420605E+02</rscale>
<asrwt>0</asrwt>
<pdfrwt beam="1">  1       21 0.52050835E-02 0.91420605E+02</pdfrwt>
<pdfrwt beam="2">  1        4 0.27492612E-01 0.91420605E+02</pdfrwt>
<totfact> 0.11881409E+05</totfact>
</mgrwt>
</event>
<event>
 6    2  0.9453093E+000  0.1018058E+03  0.7546771E-02  0.1276544E+00
         21   -1    0    0  501  502  0.00000000000E+00  0.00000000000E+00  0.11804091317E+02  0.11804091317E+02  0.00000000000E+00 0. -1.
          2   -1    0    0  502    0 -0.00000000000E+00 -0.00000000000E+00 -0.81695630353E+03  0.81695630353E+03  0.00000000000E+00 0. -1.
         24    2    1    2    0    0  0.31563724260E+01  0.63340984089E+02 -0.24906333008E+03  0.26906682888E+03  0.79639017203E+02 0.  0.
        -13    1    3    3    0    0 -0.15834887780E+02  0.31831325795E+01 -0.48896129908E+01  0.16875553893E+02  0.00000000000E+00 0.  1.
         14    1    3    3    0    0  0.18991260206E+02  0.60157851510E+02 -0.24417371709E+03  0.25219127499E+03  0.00000000000E+00 0. -1.
          1    1    1    2  501    0 -0.31563724260E+01 -0.63340984089E+02 -0.55608888213E+03  0.55969356596E+03  0.00000000000E+00 0. -1.
<mgrwt>
<rscale>  1 0.10180578E+03</rscale>
<asrwt>0</asrwt>
<pdfrwt beam="1">  1       21 0.18160149E-02 0.10180578E+03</pdfrwt>
<pdfrwt beam="2">  1        2 0.12568552E+00 0.10180578E+03</pdfrwt>
<totfact> 0.60730853E+05</totfact>
</mgrwt>
</event>
<event>
 6    2  0.9453093E+000  0.1230064E+03  0.7546771E-02  0.1238218E+00
         21   -1    0    0  501  502  0.00000000000E+00  0.00000000000E+00  0.83915125013E+01  0.83915125013E+01  0.00000000000E+00 0.  1.
          2   -1    0    0  502    0 -0.00000000000E+00 -0.00000000000E+00 -0.14919938341E+04  0.14919938341E+04  0.00000000000E+00 0. -1.
         24    2    1    2    0    0 -0.84194791511E+02  0.33049135336E+02 -0.62183103743E+03  0.63388043924E+03  0.83364044257E+02 0.  0.
        -11    1    3    3    0    0 -0.92375788847E+02  0.42381988404E+02 -0.43826136489E+03  0.44989170171E+03  0.00000000000E+00 0.  1.
         12    1    3    3    0    0  0.81809973352E+01 -0.93328530681E+01 -0.18356967253E+03  0.18398873753E+03  0.00000000000E+00 0. -1.
          1    1    1    2  501    0  0.84194791511E+02 -0.33049135336E+02 -0.86177128412E+03  0.86650490731E+03  0.00000000000E+00 0. -1.
<mgrwt>
<rscale>  1 0.12300639E+03</rscale>
<asrwt>0</asrwt>
<pdfrwt beam="1">  1       21 0.12910009E-02 0.12300639E+03</pdfrwt>
<pdfrwt beam="2">  1        2 0.22953769E+00 0.12300639E+03</pdfrwt>
<totfact> 0.43751482E+05</totfact>
</mgrwt>
</event>
<event>
 6    2  0.9453093E+000  0.8238071E+02  0.7546771E-02  0.1322428E+00
         21   -1    0    0  501  502  0.00000000000E+00  0.00000000000E+00  0.15218180397E+02  0.15218180397E+02  0.00000000000E+00 0.  1.
          2   -1    0    0  502    0 -0.00000000000E+00 -0.00000000000E+00 -0.18216191317E+03  0.18216191317E+03  0.00000000000E+00 0. -1.
         24    2    1    2    0    0 -0.12151570347E+02  0.18738547333E+02 -0.12224530365E+03  0.14741267034E+03  0.79295569193E+02 0.  0.
        -11    1    3    3    0    0  0.10737161782E+02 -0.22155432923E+02 -0.11527418750E+02  0.27185128916E+02  0.00000000000E+00 0.  1.
         12    1    3    3    0    0 -0.22888732129E+02  0.40893980256E+02 -0.11071788490E+03  0.12022754142E+03  0.00000000000E+00 0. -1.
          1    1    1    2  501    0  0.12151570347E+02 -0.18738547333E+02 -0.44698429121E+02  0.49967423227E+02  0.00000000000E+00 0. -1.
<mgrwt>
<rscale>  1 0.82380708E+02</rscale>
<asrwt>0</asrwt>
<pdfrwt beam="1">  1       21 0.23412587E-02 0.82380708E+02</pdfrwt>
<pdfrwt beam="2">  1        2 0.28024907E-01 0.82380708E+02</pdfrwt>
<totfact> 0.20162615E+06</totfact>
</mgrwt>
</event>
<event>
 6    2  0.1251048E+001  0.8929641E+02  0.7546771E-02  0.1304565E+00
         -3   -1    0    0    0  501 -0.00000000000E+00  0.00000000000E+00  0.19192243643E+03  0.19192243643E+03  0.00000000000E+00 0.  1.
         21   -1    0    0  501  502  0.00000000000E+00 -0.00000000000E+00 -0.25644214517E+02  0.25644214517E+02  0.00000000000E+00 0. -1.
         24    2    1    2    0    0  0.37790335662E+02 -0.44043938036E+01  0.68181101457E+02  0.11234995457E+03  0.80785775617E+02 0.  0.
        -13    1    3    3    0    0 -0.57378938175E+01  0.89169059320E+01  0.65925803258E+02  0.66773094672E+02  0.00000000000E+00 0.  1.
         14    1    3    3    0    0  0.43528229480E+02 -0.13321299736E+02  0.22552981986E+01  0.45576859899E+02  0.00000000000E+00 0. -1.
         -4    1    1    2    0  502 -0.37790335662E+02  0.44043938036E+01  0.98097120452E+02  0.10521669637E+03  0.00000000000E+00 0.  1.
<mgrwt>
<rscale>  1 0.89296415E+02</rscale>
<asrwt>0</asrwt>
<pdfrwt beam="1">  1       21 0.39452639E-02 0.89296415E+02</pdfrwt>
<pdfrwt beam="2">  1       -3 0.29526528E-01 0.89296415E+02</pdfrwt>
<totfact> 0.19754387E+05</totfact>
</mgrwt>
</event>
<event>
 6    2  0.9453093E+000  0.8848848E+02  0.7546771E-02  0.1306554E+00
         -1   -1    0    0    0  501 -0.00000000000E+00  0.00000000000E+00  0.11677299307E+04  0.11677299307E+04  0.00000000000E+00 0.  1.
         21   -1    0    0  501  502  0.00000000000E+00 -0.00000000000E+00 -0.37623053096E+01  0.37623053096E+01  0.00000000000E+00 0.  1.
         24    2    1    2    0    0 -0.59941657753E+00 -0.33982151026E+02  0.10073591902E+04  0.10112382256E+04  0.81701070321E+02 0.  0.
        -11    1    3    3    0    0  0.14824934894E+02 -0.52779935991E+02  0.87131937276E+03  0.87304235274E+03  0.00000000000E+00 0.  1.
         12    1    3    3    0    0 -0.15424351472E+02  0.18797784965E+02  0.13603981743E+03  0.13819587282E+03  0.00000000000E+00 0. -1.
         -2    1    1    2    0  502  0.59941657753E+00  0.33982151026E+02  0.15660843525E+03  0.16025401050E+03  0.00000000000E+00 0.  1.
<mgrwt>
<rscale>  1 0.88488478E+02</rscale>
<asrwt>0</asrwt>
<pdfrwt beam="1">  1       21 0.57881713E-03 0.88488478E+02</pdfrwt>
<pdfrwt beam="2">  1       -1 0.17965047E+00 0.88488478E+02</pdfrwt>
<totfact> 0.18542973E+05</totfact>
</mgrwt>
</event>
<event>
 6    2  0.9453093E+000  0.8416766E+02  0.7546771E-02  0.1317624E+00
          4   -1    0    0  502    0 -0.00000000000E+00  0.00000000000E+00  0.17835555015E+02  0.17835555015E+02  0.00000000000E+00 0. -1.
         21   -1    0    0  501  502  0.00000000000E+00 -0.00000000000E+00 -0.19342691521E+03  0.19342691521E+03  0.00000000000E+00 0.  1.
         24    2    1    2    0    0 -0.48776854145E+01 -0.23335345338E+02 -0.16489343426E+03  0.18513249172E+03  0.80720906048E+02 0.  0.
        -13    1    3    3    0    0  0.30004058809E+02 -0.24279209737E+02 -0.13069039932E+03  0.13627070134E+03  0.00000000000E+00 0.  1.
         14    1    3    3    0    0 -0.34881744224E+02  0.94386439891E+00 -0.34203034940E+02  0.48861790380E+02  0.00000000000E+00 0. -1.
          3    1    1    2  501    0  0.48776854145E+01  0.23335345338E+02 -0.10697925934E+02  0.26129978499E+02  0.00000000000E+00 0. -1.
<mgrwt>
<rscale>  1 0.84167659E+02</rscale>
<asrwt>0</asrwt>
<pdfrwt beam="1">  1       21 0.29757985E-01 0.84167659E+02</pdfrwt>
<pdfrwt beam="2">  1        4 0.27439317E-02 0.84167659E+02</pdfrwt>
<totfact> 0.24994651E+05</totfact>
</mgrwt>
</event>
<event>
 6    2  0.9453093E+000  0.8923362E+02  0.7546771E-02  0.1304718E+00
         -1   -1    0    0    0  501 -0.00000000000E+00  0.00000000000E+00  0.27484118171E+03  0.27484118171E+03  0.00000000000E+00 0.  1.
         21   -1    0    0  501  502  0.00000000000E+00 -0.00000000000E+00 -0.16086691586E+02  0.16086691586E+02  0.00000000000E+00 0. -1.
         24    2    1    2    0    0 -0.34950167320E+02 -0.11660012334E+02  0.22022917839E+03  0.23762055928E+03  0.81272191403E+02 0.  0.
        -11    1    3    3    0    0  0.23444489352E+02 -0.17722624391E+02  0.92241375266E+02  0.96810158595E+02  0.00000000000E+00 0.  1.
         12    1    3    3    0    0 -0.58394656672E+02  0.60626120565E+01  0.12798780312E+03  0.14081040069E+03  0.00000000000E+00 0. -1.
         -2    1    1    2    0  502  0.34950167320E+02  0.11660012334E+02  0.38525311735E+02  0.53307314016E+02  0.00000000000E+00 0.  1.
<mgrwt>
<rscale>  1 0.89233621E+02</rscale>
<asrwt>0</asrwt>
<pdfrwt beam="1">  1       21 0.24748758E-02 0.89233621E+02</pdfrwt>
<pdfrwt beam="2">  1       -1 0.42283255E-01 0.89233621E+02</pdfrwt>
<totfact> 0.41911750E+05</totfact>
</mgrwt>
</event>
<event>
 6    2  0.9453093E+000  0.1067034E+03  0.7546771E-02  0.1266799E+00
         21   -1    0    0  501  502  0.00000000000E+00  0.00000000000E+00  0.28580563048E+02  0.28580563048E+02  0.00000000000E+00 0. -1.
          2   -1    0    0  502    0 -0.00000000000E+00 -0.00000000000E+00 -0.61202872516E+03  0.61202872516E+03  0.00000000000E+00 0. -1.
         24    2    1    2    0    0 -0.86107142885E+01  0.70571893027E+02 -0.55311544032E+03  0.56331368356E+03  0.79568079578E+02 0.  0.
        -13    1    3    3    0    0 -0.15002929145E+02 -0.14809190719E+02 -0.11084388095E+03  0.11283069599E+03  0.00000000000E+00 0.  1.
         14    1    3    3    0    0  0.63922148563E+01  0.85381083746E+02 -0.44227155936E+03  0.45048298757E+03  0.00000000000E+00 0. -1.
          1    1    1    2  501    0  0.86107142885E+01 -0.70571893027E+02 -0.30332721798E+02  0.77295604646E+02  0.00000000000E+00 0. -1.
<mgrwt>
<rscale>  1 0.10670340E+03</rscale>
<asrwt>0</asrwt>
<pdfrwt beam="1">  1       21 0.43970101E-02 0.10670340E+03</pdfrwt>
<pdfrwt beam="2">  1        2 0.94158258E-01 0.10670340E+03</pdfrwt>
<totfact> 0.20290885E+05</totfact>
</mgrwt>
</event>
<event>
 6    2  0.9453093E+000  0.1017784E+03  0.7546771E-02  0.1276600E+00
         21   -1    0    0  501  502  0.00000000000E+00  0.00000000000E+00  0.59493683553E+01  0.59493683553E+01  0.00000000000E+00 0.  1.
         -1   -1    0    0    0  501 -0.00000000000E+00 -0.00000000000E+00 -0.14451361243E+04  0.14451361243E+04  0.00000000000E+00 0.  1.
         24    2    1    2    0    0 -0.62197976447E+02 -0.10298911895E+02 -0.11783710644E+04  0.11827583028E+04  0.79901073617E+02 0.  0.
        -11    1    3    3    0    0 -0.45234126859E+02 -0.42401279393E+02 -0.88097476692E+03  0.88315374351E+03  0.00000000000E+00 0.  1.
         12    1    3    3    0    0 -0.16963849588E+02  0.32102367498E+02 -0.29739629747E+03  0.29960455928E+03  0.00000000000E+00 0. -1.
         -2    1    1    2    0  502  0.62197976447E+02  0.10298911895E+02 -0.26081569156E+03  0.26832718988E+03  0.00000000000E+00 0.  1.
<mgrwt>
<rscale>  1 0.10177837E+03</rscale>
<asrwt>0</asrwt>
<pdfrwt beam="1">  1       21 0.91528699E-03 0.10177837E+03</pdfrwt>
<pdfrwt beam="2">  1       -1 0.22232874E+00 0.10177837E+03</pdfrwt>
<totfact> 0.48385720E+04</totfact>
</mgrwt>
</event>
<event>
 6    2  0.9453093E+000  0.7896111E+02  0.7546771E-02  0.1332026E+00
         -1   -1    0    0    0  501 -0.00000000000E+00  0.00000000000E+00  0.36562492779E+03  0.36562492779E+03  0.00000000000E+00 0.  1.
         21   -1    0    0  501  502  0.00000000000E+00 -0.00000000000E+00 -0.80681210568E+01  0.80681210568E+01  0.00000000000E+00 0. -1.
         24    2    1    2    0    0  0.20765483816E+02  0.18410688154E+02  0.23078455585E+03  0.24391877424E+03  0.73923598736E+02 0.  0.
        -13    1    3    3    0    0  0.40697875607E+02 -0.10179955463E+02  0.15367641729E+03  0.15929968551E+03  0.00000000000E+00 0.  1.
         14    1    3    3    0    0 -0.19932391792E+02  0.28590643617E+02  0.77108138561E+02  0.84619088729E+02  0.00000000000E+00 0. -1.
         -2    1    1    2    0  502 -0.20765483816E+02 -0.18410688154E+02  0.12677225088E+03  0.12977427461E+03  0.00000000000E+00 0.  1.
<mgrwt>
<rscale>  1 0.78961112E+02</rscale>
<asrwt>0</asrwt>
<pdfrwt beam="1">  1       21 0.12412497E-02 0.78961112E+02</pdfrwt>
<pdfrwt beam="2">  1       -1 0.56249976E-01 0.78961112E+02</pdfrwt>
<totfact> 0.74187695E+05</totfact>
</mgrwt>
</event>
<event>
 6    2  0.9453093E+000  0.9545544E+02  0.7546771E-02  0.1290154E+00
         21   -1    0    0  501  502  0.00000000000E+00  0.00000000000E+00  0.12388916117E+03  0.12388916117E+03  0.00000000000E+00 0.  1.
          2   -1    0    0  502    0 -0.00000000000E+00 -0.00000000000E+00 -0.71504552513E+02  0.71504552513E+02  0.00000000000E+00 0. -1.
         24    2    1    2    0    0 -0.35706310925E+02  0.14122054784E+02  0.97298394183E+02  0.13630377206E+03  0.87392034507E+02 0.  0.
        -11    1    3    3    0    0 -0.22066177363E+02 -0.36228705736E+02  0.34594722860E+02  0.54737831090E+02  0.00000000000E+00 0.  1.
         12    1    3    3    0    0 -0.13640133562E+02  0.50350760520E+02  0.62703671324E+02  0.81565940968E+02  0.00000000000E+00 0. -1.
          1    1    1    2  501    0  0.35706310925E+02 -0.14122054784E+02 -0.44913785526E+02  0.59089941627E+02  0.00000000000E+00 0. -1.
<mgrwt>
<rscale>  1 0.95455439E+02</rscale>
<asrwt>0</asrwt>
<pdfrwt beam="1">  1       21 0.19059871E-01 0.95455439E+02</pdfrwt>
<pdfrwt beam="2">  1        2 0.11000700E-01 0.95455439E+02</pdfrwt>
<totfact> 0.16806289E+05</totfact>
</mgrwt>
</event>
<event>
 6    2  0.9453093E+000  0.8446257E+02  0.7546771E-02  0.1316844E+00
          2   -1    0    0  502    0 -0.00000000000E+00  0.00000000000E+00  0.53723986681E+02  0.53723986681E+02  0.00000000000E+00 0. -1.
         21   -1    0    0  501  502  0.00000000000E+00 -0.00000000000E+00 -0.64120416498E+02  0.64120416498E+02  0.00000000000E+00 0.  1.
         24    2    1    2    0    0 -0.85635361680E+01  0.23408229143E+02  0.10767204390E+02  0.85146104199E+02  0.80700972897E+02 0.  0.
        -11    1    3    3    0    0 -0.28626208145E+02  0.36627130775E+02 -0.16013589157E+02  0.49167484573E+02  0.00000000000E+00 0.  1.
         12    1    3    3    0    0  0.20062671977E+02 -0.13218901631E+02  0.26780793547E+02  0.35978619626E+02  0.00000000000E+00 0. -1.
          1    1    1    2  501    0  0.85635361680E+01 -0.23408229143E+02 -0.21163634207E+02  0.32698298980E+02  0.00000000000E+00 0. -1.
<mgrwt>
<rscale>  1 0.84462574E+02</rscale>
<asrwt>0</asrwt>
<pdfrwt beam="1">  1       21 0.98646794E-02 0.84462574E+02</pdfrwt>
<pdfrwt beam="2">  1        2 0.82652287E-02 0.84462574E+02</pdfrwt>
<totfact> 0.75751196E+05</totfact>
</mgrwt>
</event>
<event>
 6    2  0.9453093E+000  0.9109783E+02  0.7546771E-02  0.1300215E+00
         21   -1    0    0  501  502  0.00000000000E+00  0.00000000000E+00  0.67873951549E+02  0.67873951549E+02  0.00000000000E+00 0.  1.
         -1   -1    0    0    0  501 -0.00000000000E+00 -0.00000000000E+00 -0.87591203861E+02  0.87591203861E+02  0.00000000000E+00 0.  1.
         24    2    1    2    0    0 -0.28135905121E+02 -0.35051923733E+02 -0.47385025917E+02  0.10268474038E+03  0.79237293691E+02 0.  0.
        -11    1    3    3    0    0 -0.27759861083E+02 -0.57350943332E+02 -0.18805835116E+02  0.66433425494E+02  0.00000000000E+00 0.  1.
         12    1    3    3    0    0 -0.37604403890E+00  0.22299019599E+02 -0.28579190800E+02  0.36251314886E+02  0.00000000000E+00 0. -1.
         -2    1    1    2    0  502  0.28135905121E+02  0.35051923733E+02  0.27667773605E+02  0.52780415029E+02  0.00000000000E+00 0.  1.
<mgrwt>
<rscale>  1 0.91097833E+02</rscale>
<asrwt>0</asrwt>
<pdfrwt beam="1">  1       21 0.10442146E-01 0.91097833E+02</pdfrwt>
<pdfrwt beam="2">  1       -1 0.13475570E-01 0.91097833E+02</pdfrwt>
<totfact> 0.24389500E+05</totfact>
</mgrwt>
</event>
<event>
 6    2  0.9453093E+000  0.8509757E+02  0.7546771E-02  0.1315178E+00
         21   -1    0    0  501  502  0.00000000000E+00  0.00000000000E+00  0.50268400237E+03  0.50268400237E+03  0.00000000000E+00 0. -1.
          4   -1    0    0  502    0 -0.00000000000E+00 -0.00000000000E+00 -0.23733542923E+02  0.23733542923E+02  0.00000000000E+00 0. -1.
         24    2    1    2    0    0  0.17771610775E+02 -0.93296046475E+01  0.53551460313E+02  0.10054528729E+03  0.82696579266E+02 0.  0.
        -13    1    3    3    0    0 -0.21372430903E+02 -0.32892664110E+02  0.28026207273E+02  0.48209713224E+02  0.00000000000E+00 0.  1.
         14    1    3    3    0    0  0.39144041678E+02  0.23563059463E+02  0.25525253040E+02  0.52335574067E+02  0.00000000000E+00 0. -1.
          3    1    1    2  501    0 -0.17771610775E+02  0.93296046475E+01  0.42539899913E+03  0.42587225800E+03  0.00000000000E+00 0. -1.
<mgrwt>
<rscale>  1 0.85097567E+02</rscale>
<asrwt>0</asrwt>
<pdfrwt beam="1">  1       21 0.77335992E-01 0.85097567E+02</pdfrwt>
<pdfrwt beam="2">  1        4 0.36513147E-02 0.85097567E+02</pdfrwt>
<totfact> 0.23038926E+04</totfact>
</mgrwt>
</event>
<event>
 6    2  0.9453093E+000  0.8624131E+02  0.7546771E-02  0.1312218E+00
         21   -1    0    0  501  502  0.00000000000E+00  0.00000000000E+00  0.24921985412E+01  0.24921985412E+01  0.00000000000E+00 0.  1.
          2   -1    0    0  502    0 -0.00000000000E+00 -0.00000000000E+00 -0.15020915697E+04  0.15020915697E+04  0.00000000000E+00 0. -1.
         24    2    1    2    0    0  0.27666966339E+02 -0.14869047325E+02 -0.88787902749E+03  0.89205758231E+03  0.80318199077E+02 0.  0.
        -13    1    3    3    0    0  0.21204317353E+02 -0.22543765540E+02 -0.11437060001E+03  0.11848408579E+03  0.00000000000E+00 0.  1.
         14    1    3    3    0    0  0.64626489859E+01  0.76747182159E+01 -0.77350842747E+03  0.77357349651E+03  0.00000000000E+00 0. -1.
          1    1    1    2  501    0 -0.27666966339E+02  0.14869047325E+02 -0.61172034366E+03  0.61252618592E+03  0.00000000000E+00 0. -1.
<mgrwt>
<rscale>  1 0.86241305E+02</rscale>
<asrwt>0</asrwt>
<pdfrwt beam="1">  1       21 0.38341442E-03 0.86241305E+02</pdfrwt>
<pdfrwt beam="2">  1        2 0.23109146E+00 0.86241305E+02</pdfrwt>
<totfact> 0.27856841E+06</totfact>
</mgrwt>
</event>
<event>
 6    2  0.9453093E+000  0.8565379E+02  0.7546771E-02  0.1313732E+00
         21   -1    0    0  501  502  0.00000000000E+00  0.00000000000E+00  0.20159567789E+01  0.20159567789E+01  0.00000000000E+00 0. -1.
          2   -1    0    0  502    0 -0.00000000000E+00 -0.00000000000E+00 -0.16145281215E+04  0.16145281215E+04  0.00000000000E+00 0. -1.
         24    2    1    2    0    0 -0.25809443103E+02 -0.51124928044E+01 -0.10847294124E+04  0.10881059092E+04  0.81512615486E+02 0.  0.
        -13    1    3    3    0    0  0.18402885858E+02  0.16730978922E+02 -0.14767578916E+03  0.14975556941E+03  0.00000000000E+00 0.  1.
         14    1    3    3    0    0 -0.44212328960E+02 -0.21843471726E+02 -0.93705362325E+03  0.93835033976E+03  0.00000000000E+00 0. -1.
          1    1    1    2  501    0  0.25809443103E+02  0.51124928044E+01 -0.52778275228E+03  0.52843816908E+03  0.00000000000E+00 0. -1.
<mgrwt>
<rscale>  1 0.85653788E+02</rscale>
<asrwt>0</asrwt>
<pdfrwt beam="1">  1       21 0.31014658E-03 0.85653788E+02</pdfrwt>
<pdfrwt beam="2">  1        2 0.24838944E+00 0.85653788E+02</pdfrwt>
<totfact> 0.33679725E+06</totfact>
</mgrwt>
</event>
<event>
 6    2  0.1937212E+001  0.8780932E+02  0.7546771E-02  0.1308245E+00
         21   -1    0    0  501  502  0.00000000000E+00  0.00000000000E+00  0.45323738690E+02  0.45323738690E+02  0.00000000000E+00 0.  1.
         -3   -1    0    0    0  501 -0.00000000000E+00 -0.00000000000E+00 -0.10790763042E+04  0.10790763042E+04  0.00000000000E+00 0.  1.
         24    2    1    2    0    0 -0.20655309816E+02  0.95848462799E+00 -0.10748305053E+04  0.10784113741E+04  0.85340003591E+02 0.  0.
        -11    1    3    3    0    0 -0.30261397545E+02 -0.14305120294E+01 -0.10608436267E+04  0.10612761181E+04  0.00000000000E+00 0.  1.
         12    1    3    3    0    0  0.96060877287E+01  0.23889966574E+01 -0.13986878656E+02  0.17135256082E+02  0.00000000000E+00 0. -1.
         -4    1    1    2    0  502  0.20655309816E+02 -0.95848462799E+00  0.41077939793E+02  0.45988668757E+02  0.00000000000E+00 0.  1.
<mgrwt>
<rscale>  1 0.87809320E+02</rscale>
<asrwt>0</asrwt>
<pdfrwt beam="1">  1       21 0.69728832E-02 0.87809320E+02</pdfrwt>
<pdfrwt beam="2">  1       -3 0.16601173E+00 0.87809320E+02</pdfrwt>
<totfact> 0.19574012E+03</totfact>
</mgrwt>
</event>
<event>
 6    2  0.9453093E+000  0.8701591E+02  0.7546771E-02  0.1310243E+00
          2   -1    0    0  502    0 -0.00000000000E+00  0.00000000000E+00  0.37005670187E+04  0.37005670187E+04  0.00000000000E+00 0. -1.
         21   -1    0    0  501  502  0.00000000000E+00 -0.00000000000E+00 -0.10102696963E+01  0.10102696963E+01  0.00000000000E+00 0.  1.
         24    2    1    2    0    0 -0.33301054867E+02  0.26877564634E+01  0.23590875507E+04  0.23606918138E+04  0.80346647394E+02 0.  0.
        -13    1    3    3    0    0 -0.40187178168E+02  0.14243491901E+02  0.58439923416E+03  0.58595251619E+03  0.00000000000E+00 0.  1.
         14    1    3    3    0    0  0.68861233007E+01 -0.11555735438E+02  0.17746883166E+04  0.17747392977E+04  0.00000000000E+00 0. -1.
          1    1    1    2  501    0  0.33301054867E+02 -0.26877564634E+01  0.13404691983E+04  0.13408854746E+04  0.00000000000E+00 0. -1.
<mgrwt>
<rscale>  1 0.87015907E+02</rscale>
<asrwt>0</asrwt>
<pdfrwt beam="1">  1       21 0.15542907E-03 0.87015907E+02</pdfrwt>
<pdfrwt beam="2">  1        2 0.56930715E+00 0.87015907E+02</pdfrwt>
<totfact> 0.67007747E+05</totfact>
</mgrwt>
</event>
<event>
 6    2  0.9453093E+000  0.9549835E+02  0.7546771E-02  0.1290058E+00
          2   -1    0    0  502    0 -0.00000000000E+00  0.00000000000E+00  0.10023932758E+04  0.10023932758E+04  0.00000000000E+00 0. -1.
         21   -1    0    0  501  502  0.00000000000E+00 -0.00000000000E+00 -0.63573645676E+01  0.63573645676E+01  0.00000000000E+00 0. -1.
         24    2    1    2    0    0  0.42418325543E+02  0.30932235005E+02  0.80456927131E+03  0.81021703689E+03  0.79773535935E+02 0.  0.
        -11    1    3    3    0    0  0.15024841579E+02 -0.23849908693E+02  0.40509325171E+03  0.40607278484E+03  0.00000000000E+00 0.  1.
         12    1    3    3    0    0  0.27393483965E+02  0.54782143698E+02  0.39947601959E+03  0.40414425205E+03  0.00000000000E+00 0. -1.
          1    1    1    2  501    0 -0.42418325543E+02 -0.30932235005E+02  0.19146663992E+03  0.19853360347E+03  0.00000000000E+00 0. -1.
<mgrwt>
<rscale>  1 0.95498348E+02</rscale>
<asrwt>0</asrwt>
<pdfrwt beam="1">  1       21 0.97805688E-03 0.95498348E+02</pdfrwt>
<pdfrwt beam="2">  1        2 0.15421422E+00 0.95498348E+02</pdfrwt>
<totfact> 0.12341484E+06</totfact>
</mgrwt>
</event>
<event>
 6    2  0.9453093E+000  0.7699904E+02  0.7546771E-02  0.1337790E+00
         21   -1    0    0  501  502  0.00000000000E+00  0.00000000000E+00  0.47910865132E+02  0.47910865132E+02  0.00000000000E+00 0. -1.
          2   -1    0    0  502    0 -0.00000000000E+00 -0.00000000000E+00 -0.12535870062E+03  0.12535870062E+03  0.00000000000E+00 0. -1.
         24    2    1    2    0    0 -0.63563102850E+01 -0.19175463764E+02 -0.11041106705E+03  0.13460852947E+03  0.74301758978E+02 0.  0.
        -11    1    3    3    0    0 -0.29996741277E+02 -0.27395998459E+02 -0.30303126659E+02  0.50681601239E+02  0.00000000000E+00 0.  1.
         12    1    3    3    0    0  0.23640430992E+02  0.82205346945E+01 -0.80107940393E+02  0.83926928230E+02  0.00000000000E+00 0. -1.
          1    1    1    2  501    0  0.63563102850E+01  0.19175463764E+02  0.32963231567E+02  0.38661036281E+02  0.00000000000E+00 0. -1.
<mgrwt>
<rscale>  1 0.76999042E+02</rscale>
<asrwt>0</asrwt>
<pdfrwt beam="1">  1       21 0.73709023E-02 0.76999042E+02</pdfrwt>
<pdfrwt beam="2">  1        2 0.19285954E-01 0.76999042E+02</pdfrwt>
<totfact> 0.45621339E+05</totfact>
</mgrwt>
</event>
<event>
 6    2  0.9453093E+000  0.8326904E+02  0.7546771E-02  0.1320022E+00
         21   -1    0    0  501  502  0.00000000000E+00  0.00000000000E+00  0.56447383071E+02  0.56447383071E+02  0.00000000000E+00 0. -1.
          2   -1    0    0  502    0 -0.00000000000E+00 -0.00000000000E+00 -0.56201030431E+02  0.56201030431E+02  0.00000000000E+00 0. -1.
         24    2    1    2    0    0 -0.11922837787E+02 -0.19699564246E+02  0.15941802147E+02  0.84781335657E+02  0.80021915296E+02 0.  0.
        -13    1    3    3    0    0  0.68950690171E+01  0.27656957050E+02  0.18121660813E+02  0.33776379922E+02  0.00000000000E+00 0.  1.
         14    1    3    3    0    0 -0.18817906804E+02 -0.47356521296E+02 -0.21798586661E+01  0.51004955735E+02  0.00000000000E+00 0. -1.
          1    1    1    2  501    0  0.11922837787E+02  0.19699564246E+02 -0.15695449507E+02  0.27867077845E+02  0.00000000000E+00 0. -1.
<mgrwt>
<rscale>  1 0.83269045E+02</rscale>
<asrwt>0</asrwt>
<pdfrwt beam="1">  1       21 0.86842128E-02 0.83269045E+02</pdfrwt>
<pdfrwt beam="2">  1        2 0.86463123E-02 0.83269045E+02</pdfrwt>
<totfact> 0.89092617E+05</totfact>
</mgrwt>
</event>
<event>
 6    2  0.9453093E+000  0.9329381E+02  0.7546771E-02  0.1295066E+00
         21   -1    0    0  501  502  0.00000000000E+00  0.00000000000E+00  0.37019695512E+03  0.37019695512E+03  0.00000000000E+00 0. -1.
          2   -1    0    0  502    0 -0.00000000000E+00 -0.00000000000E+00 -0.18192642046E+02  0.18192642046E+02  0.00000000000E+00 0. -1.
         24    2    1    2    0    0  0.40771701403E+02 -0.26317509065E+02  0.12343373556E+03  0.15472434125E+03  0.79679305857E+02 0.  0.
        -13    1    3    3    0    0 -0.11561920239E+02  0.18375843004E+02  0.47603573667E+02  0.52320644411E+02  0.00000000000E+00 0.  1.
         14    1    3    3    0    0  0.52333621642E+02 -0.44693352069E+02  0.75830161897E+02  0.10240369684E+03  0.00000000000E+00 0. -1.
          1    1    1    2  501    0 -0.40771701403E+02  0.26317509065E+02  0.22857057751E+03  0.23366525591E+03  0.00000000000E+00 0. -1.
<mgrwt>
<rscale>  1 0.93293808E+02</rscale>
<asrwt>0</asrwt>
<pdfrwt beam="1">  1       21 0.56953372E-01 0.93293808E+02</pdfrwt>
<pdfrwt beam="2">  1        2 0.27988683E-02 0.93293808E+02</pdfrwt>
<totfact> 0.11512442E+05</totfact>
</mgrwt>
</event>
<event>
 6    2  0.9453093E+000  0.9234790E+02  0.7546771E-02  0.1297264E+00
          2   -1    0    0  502    0 -0.00000000000E+00  0.00000000000E+00  0.34628307378E+03  0.34628307378E+03  0.00000000000E+00 0. -1.
         21   -1    0    0  501  502  0.00000000000E+00 -0.00000000000E+00 -0.24448665024E+02  0.24448665024E+02  0.00000000000E+00 0. -1.
         24    2    1    2    0    0  0.14786824952E+02 -0.40267345975E+02  0.31377799946E+03  0.32708526043E+03  0.81780347900E+02 0.  0.
        -13    1    3    3    0    0  0.20623215415E+02 -0.73883476224E+01  0.15242107380E+02  0.26687572614E+02  0.00000000000E+00 0.  1.
         14    1    3    3    0    0 -0.58363904630E+01 -0.32878998352E+02  0.29853589208E+03  0.30039768781E+03  0.00000000000E+00 0. -1.
          1    1    1    2  501    0 -0.14786824952E+02  0.40267345975E+02  0.80564093042E+01  0.43646478379E+02  0.00000000000E+00 0. -1.
<mgrwt>
<rscale>  1 0.92347900E+02</rscale>
<asrwt>0</asrwt>
<pdfrwt beam="1">  1       21 0.37613333E-02 0.92347900E+02</pdfrwt>
<pdfrwt beam="2">  1        2 0.53274316E-01 0.92347900E+02</pdfrwt>
<totfact> 0.48072137E+05</totfact>
</mgrwt>
</event>
<event>
 6    2  0.1101147E+001  0.8940845E+02  0.7546771E-02  0.1304291E+00
         21   -1    0    0  501  502  0.00000000000E+00  0.00000000000E+00  0.44997109811E+02  0.44997109811E+02  0.00000000000E+00 0.  1.
         -3   -1    0    0    0  501 -0.00000000000E+00 -0.00000000000E+00 -0.16988144514E+03  0.16988144514E+03  0.00000000000E+00 0.  1.
         24    2    1    2    0    0 -0.42321272757E+02 -0.43539436366E+00 -0.14315354723E+03  0.16878035759E+03  0.78756531973E+02 0.  0.
        -13    1    3    3    0    0 -0.47410706783E+02 -0.19836952069E+02 -0.13913552806E+03  0.14832388531E+03  0.00000000000E+00 0.  1.
         14    1    3    3    0    0  0.50894340261E+01  0.19401557705E+02 -0.40180191679E+01  0.20456472280E+02  0.00000000000E+00 0. -1.
         -4    1    1    2    0  502  0.42321272757E+02  0.43539436366E+00  0.18269211902E+02  0.46098197357E+02  0.00000000000E+00 0.  1.
<mgrwt>
<rscale>  1 0.89408451E+02</rscale>
<asrwt>0</asrwt>
<pdfrwt beam="1">  1       21 0.69226323E-02 0.89408451E+02</pdfrwt>
<pdfrwt beam="2">  1       -3 0.26135607E-01 0.89408451E+02</pdfrwt>
<totfact> 0.96489214E+04</totfact>
</mgrwt>
</event>
<event>
 6    2  0.9453093E+000  0.1119534E+03  0.7546771E-02  0.1256995E+00
         21   -1    0    0  501  502  0.00000000000E+00  0.00000000000E+00  0.27130777619E+02  0.27130777619E+02  0.00000000000E+00 0. -1.
          2   -1    0    0  502    0 -0.00000000000E+00 -0.00000000000E+00 -0.97919033579E+03  0.97919033579E+03  0.00000000000E+00 0. -1.
         24    2    1    2    0    0  0.10335687414E+02 -0.84644233447E+02 -0.89887937752E+03  0.90582432588E+03  0.72540342757E+02 0.  0.
        -13    1    3    3    0    0  0.79858132916E+01  0.10051076834E+02 -0.47943540684E+02  0.49632453624E+02  0.00000000000E+00 0.  1.
         14    1    3    3    0    0  0.23498741225E+01 -0.94695310281E+02 -0.85093583684E+03  0.85619187225E+03  0.00000000000E+00 0. -1.
          1    1    1    2  501    0 -0.10335687414E+02  0.84644233447E+02 -0.53180180651E+02  0.10049678753E+03  0.00000000000E+00 0. -1.
<mgrwt>
<rscale>  1 0.11195345E+03</rscale>
<asrwt>0</asrwt>
<pdfrwt beam="1">  1       21 0.41739662E-02 0.11195345E+03</pdfrwt>
<pdfrwt beam="2">  1        2 0.15064465E+00 0.11195345E+03</pdfrwt>
<totfact> 0.12461667E+05</totfact>
</mgrwt>
</event>
<event>
 6    2  0.9453093E+000  0.8315561E+02  0.7546771E-02  0.1320328E+00
         21   -1    0    0  501  502  0.00000000000E+00  0.00000000000E+00  0.70791485747E+02  0.70791485747E+02  0.00000000000E+00 0.  1.
         -1   -1    0    0    0  501 -0.00000000000E+00 -0.00000000000E+00 -0.72005548414E+02  0.72005548414E+02  0.00000000000E+00 0.  1.
         24    2    1    2    0    0  0.16580937650E+02 -0.19063355122E+02 -0.43266696470E+02  0.93738263165E+02  0.79224465640E+02 0.  0.
        -13    1    3    3    0    0  0.30961513551E+02  0.73093112300E+01 -0.53296876791E+02  0.62069303425E+02  0.00000000000E+00 0.  1.
         14    1    3    3    0    0 -0.14380575901E+02 -0.26372666352E+02  0.10030180320E+02  0.31668959740E+02  0.00000000000E+00 0. -1.
         -2    1    1    2    0  502 -0.16580937650E+02  0.19063355122E+02  0.42052633803E+02  0.49058770996E+02  0.00000000000E+00 0.  1.
<mgrwt>
<rscale>  1 0.83155607E+02</rscale>
<asrwt>0</asrwt>
<pdfrwt beam="1">  1       21 0.10890998E-01 0.83155607E+02</pdfrwt>
<pdfrwt beam="2">  1       -1 0.11077777E-01 0.83155607E+02</pdfrwt>
<totfact> 0.30309028E+05</totfact>
</mgrwt>
</event>
<event>
 6    2  0.9453093E+000  0.9372042E+02  0.7546771E-02  0.1294084E+00
         21   -1    0    0  501  502  0.00000000000E+00  0.00000000000E+00  0.21775551597E+02  0.21775551597E+02  0.00000000000E+00 0. -1.
          2   -1    0    0  502    0 -0.00000000000E+00 -0.00000000000E+00 -0.42689470236E+03  0.42689470236E+03  0.00000000000E+00 0. -1.
         24    2    1    2    0    0 -0.26988713576E+02  0.26793981378E+02 -0.39935597550E+03  0.41020569510E+03  0.85657510059E+02 0.  0.
        -11    1    3    3    0    0  0.46722370953E+01  0.51663019331E+02 -0.18671541829E+03  0.19378737006E+03  0.00000000000E+00 0.  1.
         12    1    3    3    0    0 -0.31660950671E+02 -0.24869037953E+02 -0.21264055720E+03  0.21641832504E+03  0.00000000000E+00 0. -1.
          1    1    1    2  501    0  0.26988713576E+02 -0.26793981378E+02 -0.57631752617E+01  0.38464558852E+02  0.00000000000E+00 0. -1.
<mgrwt>
<rscale>  1 0.93720420E+02</rscale>
<asrwt>0</asrwt>
<pdfrwt beam="1">  1       21 0.33500849E-02 0.93720420E+02</pdfrwt>
<pdfrwt beam="2">  1        2 0.65676107E-01 0.93720420E+02</pdfrwt>
<totfact> 0.46682209E+05</totfact>
</mgrwt>
</event>
<event>
 6    2  0.9453093E+000  0.1402766E+03  0.7546771E-02  0.1212957E+00
          2   -1    0    0  502    0 -0.00000000000E+00  0.00000000000E+00  0.12161337903E+04  0.12161337903E+04  0.00000000000E+00 0. -1.
         21   -1    0    0  501  502  0.00000000000E+00 -0.00000000000E+00 -0.13584010878E+02  0.13584010878E+02  0.00000000000E+00 0. -1.
         24    2    1    2    0    0  0.11638984944E+03 -0.23027987185E+00  0.62320308358E+03  0.63879543398E+03  0.78299891426E+02 0.  0.
        -11    1    3    3    0    0  0.32921312116E+02 -0.19868176204E+02  0.78804986738E+02  0.87685706657E+02  0.00000000000E+00 0.  1.
         12    1    3    3    0    0  0.83468537326E+02  0.19637896333E+02  0.54439809685E+03  0.55110972732E+03  0.00000000000E+00 0. -1.
          1    1    1    2  501    0 -0.11638984944E+03  0.23027987185E+00  0.57934669582E+03  0.59092236718E+03  0.00000000000E+00 0. -1.
<mgrwt>
<rscale>  1 0.14027659E+03</rscale>
<asrwt>0</asrwt>
<pdfrwt beam="1">  1       21 0.20898488E-02 0.14027659E+03</pdfrwt>
<pdfrwt beam="2">  1        2 0.18709742E+00 0.14027659E+03</pdfrwt>
<totfact> 0.28478022E+05</totfact>
</mgrwt>
</event>
<event>
 6    2  0.9453093E+000  0.9284861E+02  0.7546771E-02  0.1296096E+00
         -1   -1    0    0    0  501 -0.00000000000E+00  0.00000000000E+00  0.13873112816E+03  0.13873112816E+03  0.00000000000E+00 0.  1.
         21   -1    0    0  501  502  0.00000000000E+00 -0.00000000000E+00 -0.35941150743E+02  0.35941150743E+02  0.00000000000E+00 0. -1.
         24    2    1    2    0    0 -0.48110803628E+00 -0.47199536277E+02  0.78507011852E+02  0.12159036008E+03  0.79955219115E+02 0.  0.
        -13    1    3    3    0    0 -0.15985848245E+02 -0.32097638157E+01  0.72796177808E+02  0.74599821926E+02  0.00000000000E+00 0.  1.
         14    1    3    3    0    0  0.15504740209E+02 -0.43989772461E+02  0.57108340442E+01  0.46990538150E+02  0.00000000000E+00 0. -1.
         -2    1    1    2    0  502  0.48110803628E+00  0.47199536277E+02  0.24282965563E+02  0.53081918826E+02  0.00000000000E+00 0.  1.
<mgrwt>
<rscale>  1 0.92848612E+02</rscale>
<asrwt>0</asrwt>
<pdfrwt beam="1">  1       21 0.55294079E-02 0.92848612E+02</pdfrwt>
<pdfrwt beam="2">  1       -1 0.21343250E-01 0.92848612E+02</pdfrwt>
<totfact> 0.35127830E+05</totfact>
</mgrwt>
</event>
<event>
 6    2  0.9453093E+000  0.8334034E+02  0.7546771E-02  0.1319831E+00
          2   -1    0    0  502    0 -0.00000000000E+00  0.00000000000E+00  0.49064227803E+03  0.49064227803E+03  0.00000000000E+00 0. -1.
         21   -1    0    0  501  502  0.00000000000E+00 -0.00000000000E+00 -0.60941812788E+01  0.60941812788E+01  0.00000000000E+00 0. -1.
         24    2    1    2    0    0 -0.37861308443E+01 -0.25565859688E+02  0.38148438390E+03  0.39048168588E+03  0.79231710096E+02 0.  0.
        -11    1    3    3    0    0  0.17489052949E+02  0.21459096099E+02  0.81083637124E+02  0.85679145582E+02  0.00000000000E+00 0.  1.
         12    1    3    3    0    0 -0.21275183794E+02 -0.47024955787E+02  0.30040074677E+03  0.30480254030E+03  0.00000000000E+00 0. -1.
          1    1    1    2  501    0  0.37861308443E+01  0.25565859688E+02  0.10306371285E+03  0.10625477342E+03  0.00000000000E+00 0. -1.
<mgrwt>
<rscale>  1 0.83340337E+02</rscale>
<asrwt>0</asrwt>
<pdfrwt beam="1">  1       21 0.93756673E-03 0.83340337E+02</pdfrwt>
<pdfrwt beam="2">  1        2 0.75483396E-01 0.83340337E+02</pdfrwt>
<totfact> 0.30238816E+06</totfact>
</mgrwt>
</event>
<event>
 6    2  0.9453093E+000  0.8608829E+02  0.7546771E-02  0.1312611E+00
          4   -1    0    0  502    0 -0.00000000000E+00  0.00000000000E+00  0.14435500387E+01  0.14435500387E+01  0.00000000000E+00 0. -1.
         21   -1    0    0  501  502  0.00000000000E+00 -0.00000000000E+00 -0.22279983104E+04  0.22279983104E+04  0.00000000000E+00 0.  1.
         24    2    1    2    0    0  0.12035119449E+02  0.18569571923E+02 -0.14365189283E+04  0.14390961835E+04  0.83195678512E+02 0.  0.
        -13    1    3    3    0    0 -0.35576286832E+02  0.12764930775E+02 -0.57150877070E+03  0.57275727026E+03  0.00000000000E+00 0.  1.
         14    1    3    3    0    0  0.47611406281E+02  0.58046411487E+01 -0.86501015762E+03  0.86633891327E+03  0.00000000000E+00 0. -1.
          3    1    1    2  501    0 -0.12035119449E+02 -0.18569571923E+02 -0.79003583207E+03  0.79034567694E+03  0.00000000000E+00 0. -1.
<mgrwt>
<rscale>  1 0.86088292E+02</rscale>
<asrwt>0</asrwt>
<pdfrwt beam="1">  1       21 0.34276798E+00 0.86088292E+02</pdfrwt>
<pdfrwt beam="2">  1        4 0.22208527E-03 0.86088292E+02</pdfrwt>
<totfact> 0.23167022E+04</totfact>
</mgrwt>
</event>
<event>
 6    2  0.9453093E+000  0.9203515E+02  0.7546771E-02  0.1297997E+00
         21   -1    0    0  501  502  0.00000000000E+00  0.00000000000E+00  0.23895210375E+02  0.23895210375E+02  0.00000000000E+00 0.  1.
          4   -1    0    0  502    0 -0.00000000000E+00 -0.00000000000E+00 -0.20007389370E+03  0.20007389370E+03  0.00000000000E+00 0. -1.
         24    2    1    2    0    0  0.41069826758E+02 -0.16130842113E+02 -0.99783408952E+02  0.13574681277E+03  0.80768395655E+02 0.  0.
        -13    1    3    3    0    0  0.60260347153E+02 -0.60866522544E+01 -0.41104780634E+02  0.73198085806E+02  0.00000000000E+00 0.  1.
         14    1    3    3    0    0 -0.19190520395E+02 -0.10044189859E+02 -0.58678628318E+02  0.62548726959E+02  0.00000000000E+00 0. -1.
          3    1    1    2  501    0 -0.41069826758E+02  0.16130842113E+02 -0.76395274370E+02  0.88222291306E+02  0.00000000000E+00 0. -1.
<mgrwt>
<rscale>  1 0.92035148E+02</rscale>
<asrwt>0</asrwt>
<pdfrwt beam="1">  1       21 0.36761861E-02 0.92035148E+02</pdfrwt>
<pdfrwt beam="2">  1        4 0.30780600E-01 0.92035148E+02</pdfrwt>
<totfact> 0.17125606E+05</totfact>
</mgrwt>
</event>
<event>
 6    2  0.9453093E+000  0.9703865E+02  0.7546771E-02  0.1286649E+00
         21   -1    0    0  501  502  0.00000000000E+00  0.00000000000E+00  0.35705745870E+02  0.35705745870E+02  0.00000000000E+00 0.  1.
          2   -1    0    0  502    0 -0.00000000000E+00 -0.00000000000E+00 -0.15758227681E+03  0.15758227681E+03  0.00000000000E+00 0. -1.
         24    2    1    2    0    0 -0.65249907911E+01  0.52579054234E+02 -0.78988632745E+02  0.12512275102E+03  0.81298009025E+02 0.  0.
        -11    1    3    3    0    0 -0.25540552688E+02  0.23143927840E+02  0.43270319907E+01  0.34737363650E+02  0.00000000000E+00 0.  1.
         12    1    3    3    0    0  0.19015561897E+02  0.29435126394E+02 -0.83315664736E+02  0.90385387372E+02  0.00000000000E+00 0. -1.
          1    1    1    2  501    0  0.65249907911E+01 -0.52579054234E+02 -0.42887898199E+02  0.68165271663E+02  0.00000000000E+00 0. -1.
<mgrwt>
<rscale>  1 0.97038645E+02</rscale>
<asrwt>0</asrwt>
<pdfrwt beam="1">  1       21 0.54931918E-02 0.97038645E+02</pdfrwt>
<pdfrwt beam="2">  1        2 0.24243427E-01 0.97038645E+02</pdfrwt>
<totfact> 0.59392951E+05</totfact>
</mgrwt>
</event>
<event>
 6    2  0.9453093E+000  0.9711594E+02  0.7546771E-02  0.1286480E+00
         21   -1    0    0  501  502  0.00000000000E+00  0.00000000000E+00  0.13285214290E+02  0.13285214290E+02  0.00000000000E+00 0.  1.
         -3   -1    0    0    0  501 -0.00000000000E+00 -0.00000000000E+00 -0.47920229805E+03  0.47920229805E+03  0.00000000000E+00 0.  1.
         24    2    1    2    0    0 -0.38745418838E+02  0.36040385302E+02 -0.37423183262E+03  0.38662768932E+03  0.81433339287E+02 0.  0.
        -13    1    3    3    0    0 -0.59359219888E+02  0.64154012306E+01 -0.26280504775E+03  0.26950170219E+03  0.00000000000E+00 0.  1.
         14    1    3    3    0    0  0.20613801050E+02  0.29624984071E+02 -0.11142678487E+03  0.11712598713E+03  0.00000000000E+00 0. -1.
         -4    1    1    2    0  502  0.38745418838E+02 -0.36040385302E+02 -0.91685251135E+02  0.10585982302E+03  0.00000000000E+00 0.  1.
<mgrwt>
<rscale>  1 0.97115939E+02</rscale>
<asrwt>0</asrwt>
<pdfrwt beam="1">  1       21 0.20438791E-02 0.97115939E+02</pdfrwt>
<pdfrwt beam="2">  1       -3 0.73723433E-01 0.97115939E+02</pdfrwt>
<totfact> 0.96544715E+04</totfact>
</mgrwt>
</event>
<event>
 6    2  0.9453093E+000  0.8464527E+02  0.7546771E-02  0.1316363E+00
          2   -1    0    0  502    0 -0.00000000000E+00  0.00000000000E+00  0.44881795687E+03  0.44881795687E+03  0.00000000000E+00 0. -1.
         21   -1    0    0  501  502  0.00000000000E+00 -0.00000000000E+00 -0.78941775097E+01  0.78941775097E+01  0.00000000000E+00 0. -1.
         24    2    1    2    0    0  0.17135472299E+01 -0.27816748742E+02  0.38540766896E+03  0.39459332669E+03  0.79925680611E+02 0.  0.
        -13    1    3    3    0    0 -0.21975976958E+02  0.75134369434E+01  0.27948851462E+03  0.28045182314E+03  0.00000000000E+00 0.  1.
         14    1    3    3    0    0  0.23689524188E+02 -0.35330185685E+02  0.10591915434E+03  0.11414150355E+03  0.00000000000E+00 0. -1.
          1    1    1    2  501    0 -0.17135472299E+01  0.27816748742E+02  0.55516110399E+02  0.62118807688E+02  0.00000000000E+00 0. -1.
<mgrwt>
<rscale>  1 0.84645273E+02</rscale>
<asrwt>0</asrwt>
<pdfrwt beam="1">  1       21 0.12144892E-02 0.84645273E+02</pdfrwt>
<pdfrwt beam="2">  1        2 0.69048896E-01 0.84645273E+02</pdfrwt>
<totfact> 0.22233226E+06</totfact>
</mgrwt>
</event>
<event>
 6    2  0.9453093E+000  0.9016698E+02  0.7546771E-02  0.1302448E+00
          2   -1    0    0  502    0 -0.00000000000E+00  0.00000000000E+00  0.14338838998E+04  0.14338838998E+04  0.00000000000E+00 0. -1.
         21   -1    0    0  501  502  0.00000000000E+00 -0.00000000000E+00 -0.64276222681E+01  0.64276222681E+01  0.00000000000E+00 0. -1.
         24    2    1    2    0    0 -0.36560703294E+02  0.21486099729E+02  0.13408701413E+04  0.13438983668E+04  0.79572276389E+02 0.  0.
        -11    1    3    3    0    0 -0.10821852618E+01 -0.11626424656E+02  0.30947626870E+02  0.33077189786E+02  0.00000000000E+00 0.  1.
         12    1    3    3    0    0 -0.35478518032E+02  0.33112524385E+02  0.13099225144E+04  0.13108211771E+04  0.00000000000E+00 0. -1.
          1    1    1    2  501    0  0.36560703294E+02 -0.21486099729E+02  0.86586136306E+02  0.96413155261E+02  0.00000000000E+00 0. -1.
<mgrwt>
<rscale>  1 0.90166982E+02</rscale>
<asrwt>0</asrwt>
<pdfrwt beam="1">  1       21 0.98886611E-03 0.90166982E+02</pdfrwt>
<pdfrwt beam="2">  1        2 0.22059727E+00 0.90166982E+02</pdfrwt>
<totfact> 0.70375634E+05</totfact>
</mgrwt>
</event>
<event>
 6    2  0.9453093E+000  0.8451860E+02  0.7546771E-02  0.1316696E+00
         21   -1    0    0  501  502  0.00000000000E+00  0.00000000000E+00  0.33655316239E+02  0.33655316239E+02  0.00000000000E+00 0. -1.
          2   -1    0    0  502    0 -0.00000000000E+00 -0.00000000000E+00 -0.93567543524E+03  0.93567543524E+03  0.00000000000E+00 0. -1.
         24    2    1    2    0    0  0.25108534350E+02 -0.83986821853E+01 -0.92823344070E+03  0.93207334157E+03  0.80264670103E+02 0.  0.
        -11    1    3    3    0    0 -0.18581037742E+02 -0.28813078381E+02 -0.28974399587E+03  0.29176537079E+03  0.00000000000E+00 0.  1.
         12    1    3    3    0    0  0.43689572093E+02  0.20414396196E+02 -0.63848944483E+03  0.64030797078E+03  0.00000000000E+00 0. -1.
          1    1    1    2  501    0 -0.25108534350E+02  0.83986821853E+01  0.26213321693E+02  0.37257409919E+02  0.00000000000E+00 0. -1.
<mgrwt>
<rscale>  1 0.84518599E+02</rscale>
<asrwt>0</asrwt>
<pdfrwt beam="1">  1       21 0.51777412E-02 0.84518599E+02</pdfrwt>
<pdfrwt beam="2">  1        2 0.14395006E+00 0.84518599E+02</pdfrwt>
<totfact> 0.91972604E+04</totfact>
</mgrwt>
</event>
<event>
 6    2  0.9453093E+000  0.8358336E+02  0.7546771E-02  0.1319179E+00
          2   -1    0    0  502    0 -0.00000000000E+00  0.00000000000E+00  0.18167651437E+03  0.18167651437E+03  0.00000000000E+00 0. -1.
         21   -1    0    0  501  502  0.00000000000E+00 -0.00000000000E+00 -0.15966328983E+02  0.15966328983E+02  0.00000000000E+00 0. -1.
         24    2    1    2    0    0  0.80353702301E+01  0.21758304620E+02  0.13967936198E+03  0.16277746279E+03  0.80300605441E+02 0.  0.
        -11    1    3    3    0    0 -0.45174732879E+01 -0.28766440965E+02  0.69855098916E+02  0.75681242956E+02  0.00000000000E+00 0.  1.
         12    1    3    3    0    0  0.12552843518E+02  0.50524745585E+02  0.69824263060E+02  0.87096219830E+02  0.00000000000E+00 0. -1.
          1    1    1    2  501    0 -0.80353702301E+01 -0.21758304620E+02  0.26030823413E+02  0.34865380570E+02  0.00000000000E+00 0. -1.
<mgrwt>
<rscale>  1 0.83583361E+02</rscale>
<asrwt>0</asrwt>
<pdfrwt beam="1">  1       21 0.24563584E-02 0.83583361E+02</pdfrwt>
<pdfrwt beam="2">  1        2 0.27950231E-01 0.83583361E+02</pdfrwt>
<totfact> 0.18754206E+06</totfact>
</mgrwt>
</event>
<event>
 6    2  0.9453093E+000  0.8291927E+02  0.7546771E-02  0.1320965E+00
         -1   -1    0    0    0  501 -0.00000000000E+00  0.00000000000E+00  0.69400318115E+02  0.69400318115E+02  0.00000000000E+00 0.  1.
         21   -1    0    0  501  502  0.00000000000E+00 -0.00000000000E+00 -0.38698289296E+02  0.38698289296E+02  0.00000000000E+00 0.  1.
         24    2    1    2    0    0  0.11595761854E+02  0.16548748714E+02  0.20284471059E+02  0.85364309826E+02  0.80419418358E+02 0.  0.
        -11    1    3    3    0    0  0.37451457821E+01  0.48364640981E+02  0.37367560960E+01  0.48653139265E+02  0.00000000000E+00 0.  1.
         12    1    3    3    0    0  0.78506160721E+01 -0.31815892267E+02  0.16547714963E+02  0.36711170561E+02  0.00000000000E+00 0. -1.
         -2    1    1    2    0  502 -0.11595761854E+02 -0.16548748714E+02  0.10417557760E+02  0.22734297584E+02  0.00000000000E+00 0.  1.
<mgrwt>
<rscale>  1 0.82919272E+02</rscale>
<asrwt>0</asrwt>
<pdfrwt beam="1">  1       21 0.59535830E-02 0.82919272E+02</pdfrwt>
<pdfrwt beam="2">  1       -1 0.10676972E-01 0.82919272E+02</pdfrwt>
<totfact> 0.89747336E+05</totfact>
</mgrwt>
</event>
<event>
 6    2  0.9453093E+000  0.8456850E+02  0.7546771E-02  0.1316565E+00
         21   -1    0    0  501  502  0.00000000000E+00  0.00000000000E+00  0.12557077226E+02  0.12557077226E+02  0.00000000000E+00 0.  1.
         -1   -1    0    0    0  501 -0.00000000000E+00 -0.00000000000E+00 -0.35521709216E+03  0.35521709216E+03  0.00000000000E+00 0.  1.
         24    2    1    2    0    0  0.20185771026E+02  0.94382958459E+01 -0.33285301214E+03  0.34342824397E+03  0.81579925762E+02 0.  0.
        -13    1    3    3    0    0  0.21401241600E+01  0.15856756468E+02 -0.31991467000E+03  0.32031455312E+03  0.00000000000E+00 0.  1.
         14    1    3    3    0    0  0.18045646866E+02 -0.64184606225E+01 -0.12938342135E+02  0.23113690851E+02  0.00000000000E+00 0. -1.
         -2    1    1    2    0  502 -0.20185771026E+02 -0.94382958459E+01 -0.98070027931E+01  0.24345925412E+02  0.00000000000E+00 0.  1.
<mgrwt>
<rscale>  1 0.84568499E+02</rscale>
<asrwt>0</asrwt>
<pdfrwt beam="1">  1       21 0.19318581E-02 0.84568499E+02</pdfrwt>
<pdfrwt beam="2">  1       -1 0.54648782E-01 0.84568499E+02</pdfrwt>
<totfact> 0.39164451E+05</totfact>
</mgrwt>
</event>
<event>
 6    2  0.9453093E+000  0.9130237E+02  0.7546771E-02  0.1299728E+00
          2   -1    0    0  502    0 -0.00000000000E+00  0.00000000000E+00  0.11426360444E+04  0.11426360444E+04  0.00000000000E+00 0. -1.
         21   -1    0    0  501  502  0.00000000000E+00 -0.00000000000E+00 -0.58248426743E+01  0.58248426743E+01  0.00000000000E+00 0.  1.
         24    2    1    2    0    0 -0.34673045891E+02  0.21335045798E+02  0.10318397868E+04  0.10358713572E+04  0.81723428152E+02 0.  0.
        -11    1    3    3    0    0 -0.36850040416E+02  0.15923241977E+02  0.19886909998E+03  0.20288024557E+03  0.00000000000E+00 0.  1.
         12    1    3    3    0    0  0.21769945251E+01  0.54118038217E+01  0.83297068682E+03  0.83299111161E+03  0.00000000000E+00 0. -1.
          1    1    1    2  501    0  0.34673045891E+02 -0.21335045798E+02  0.10497141492E+03  0.11258952989E+03  0.00000000000E+00 0. -1.
<mgrwt>
<rscale>  1 0.91302371E+02</rscale>
<asrwt>0</asrwt>
<pdfrwt beam="1">  1       21 0.89613056E-03 0.91302371E+02</pdfrwt>
<pdfrwt beam="2">  1        2 0.17578998E+00 0.91302371E+02</pdfrwt>
<totfact> 0.11731556E+06</totfact>
</mgrwt>
</event>
<event>
 6    2  0.9453093E+000  0.1290371E+03  0.7546771E-02  0.1228891E+00
          2   -1    0    0  502    0 -0.00000000000E+00  0.00000000000E+00  0.16128581730E+04  0.16128581730E+04  0.00000000000E+00 0. -1.
         21   -1    0    0  501  502  0.00000000000E+00 -0.00000000000E+00 -0.91465509361E+01  0.91465509361E+01  0.00000000000E+00 0. -1.
         24    2    1    2    0    0  0.99112790685E+02  0.15430825903E+02  0.62597936006E+03  0.63914062762E+03  0.81173437694E+02 0.  0.
        -13    1    3    3    0    0 -0.85914361666E+01 -0.14850195552E+02  0.83964722005E+02  0.85699566070E+02  0.00000000000E+00 0.  1.
         14    1    3    3    0    0  0.10770422685E+03  0.30281021455E+02  0.54201463806E+03  0.55344106155E+03  0.00000000000E+00 0. -1.
          1    1    1    2  501    0 -0.99112790685E+02 -0.15430825903E+02  0.97773226202E+03  0.98286409633E+03  0.00000000000E+00 0. -1.
<mgrwt>
<rscale>  1 0.12903714E+03</rscale>
<asrwt>0</asrwt>
<pdfrwt beam="1">  1       21 0.14071630E-02 0.12903714E+03</pdfrwt>
<pdfrwt beam="2">  1        2 0.24813180E+00 0.12903714E+03</pdfrwt>
<totfact> 0.33089415E+05</totfact>
</mgrwt>
</event>
<event>
 6    2  0.9453093E+000  0.1017782E+03  0.7546771E-02  0.1276601E+00
         -3   -1    0    0    0  501 -0.00000000000E+00  0.00000000000E+00  0.98017988558E+03  0.98017988558E+03  0.00000000000E+00 0.  1.
         21   -1    0    0  501  502  0.00000000000E+00 -0.00000000000E+00 -0.43539720523E+01  0.43539720523E+01  0.00000000000E+00 0. -1.
         24    2    1    2    0    0 -0.18939364420E+02 -0.76806895783E+01  0.90825533495E+03  0.91394012132E+03  0.99705061946E+02 0.  0.
        -11    1    3    3    0    0  0.41223441205E+02 -0.50914903258E+01  0.38033463019E+03  0.38259603540E+03  0.00000000000E+00 0.  1.
         12    1    3    3    0    0 -0.60162805626E+02 -0.25891992525E+01  0.52792070476E+03  0.53134408592E+03  0.00000000000E+00 0. -1.
         -4    1    1    2    0  502  0.18939364420E+02  0.76806895783E+01  0.67570578572E+02  0.70593736306E+02  0.00000000000E+00 0.  1.
<mgrwt>
<rscale>  1 0.10177815E+03</rscale>
<asrwt>0</asrwt>
<pdfrwt beam="1">  1       21 0.66984263E-03 0.10177815E+03</pdfrwt>
<pdfrwt beam="2">  1       -3 0.15079673E+00 0.10177815E+03</pdfrwt>
<totfact> 0.10989454E+05</totfact>
</mgrwt>
</event>
<event>
 6    2  0.9453093E+000  0.8591778E+02  0.7546771E-02  0.1313050E+00
         21   -1    0    0  501  502  0.00000000000E+00  0.00000000000E+00  0.16372577759E+03  0.16372577759E+03  0.00000000000E+00 0.  1.
          4   -1    0    0  502    0 -0.00000000000E+00 -0.00000000000E+00 -0.24544154676E+02  0.24544154676E+02  0.00000000000E+00 0. -1.
         24    2    1    2    0    0 -0.26405382098E+02  0.12875441148E+02  0.13285999563E+03  0.15822023742E+03  0.80739357829E+02 0.  0.
        -13    1    3    3    0    0 -0.35924371191E+02  0.28638208059E+02  0.13202174224E+03  0.13978715188E+03  0.00000000000E+00 0.  1.
         14    1    3    3    0    0  0.95189890931E+01 -0.15762766910E+02  0.83825339382E+00  0.18433085547E+02  0.00000000000E+00 0. -1.
          3    1    1    2  501    0  0.26405382098E+02 -0.12875441148E+02  0.63216272794E+01  0.30049694840E+02  0.00000000000E+00 0. -1.
<mgrwt>
<rscale>  1 0.85917781E+02</rscale>
<asrwt>0</asrwt>
<pdfrwt beam="1">  1       21 0.25188581E-01 0.85917781E+02</pdfrwt>
<pdfrwt beam="2">  1        4 0.37760239E-02 0.85917781E+02</pdfrwt>
<totfact> 0.20909030E+05</totfact>
</mgrwt>
</event>
<event>
 6    2  0.9453093E+000  0.9318730E+02  0.7546771E-02  0.1295312E+00
         -1   -1    0    0    0  501 -0.00000000000E+00  0.00000000000E+00  0.59489807228E+03  0.59489807228E+03  0.00000000000E+00 0.  1.
         21   -1    0    0  501  502  0.00000000000E+00 -0.00000000000E+00 -0.16952782760E+02  0.16952782760E+02  0.00000000000E+00 0.  1.
         24    2    1    2    0    0  0.61902087936E+01  0.28427571166E+02  0.57511949820E+03  0.58262021044E+03  0.88529243250E+02 0.  0.
        -11    1    3    3    0    0  0.46302093671E+02  0.48283560548E+01  0.30075728732E+03  0.30433886176E+03  0.00000000000E+00 0.  1.
         12    1    3    3    0    0 -0.40111884877E+02  0.23599215111E+02  0.27436221088E+03  0.27828134867E+03  0.00000000000E+00 0. -1.
         -2    1    1    2    0  502 -0.61902087936E+01 -0.28427571166E+02  0.28257913165E+01  0.29230644602E+02  0.00000000000E+00 0.  1.
<mgrwt>
<rscale>  1 0.93187297E+02</rscale>
<asrwt>0</asrwt>
<pdfrwt beam="1">  1       21 0.26081209E-02 0.93187297E+02</pdfrwt>
<pdfrwt beam="2">  1       -1 0.91522764E-01 0.93187297E+02</pdfrwt>
<totfact> 0.88584311E+04</totfact>
</mgrwt>
</event>
<event>
 6    2  0.9453093E+000  0.1010599E+03  0.7546771E-02  0.1278083E+00
          4   -1    0    0  502    0 -0.00000000000E+00  0.00000000000E+00  0.45288799562E+02  0.45288799562E+02  0.00000000000E+00 0. -1.
         21   -1    0    0  501  502  0.00000000000E+00 -0.00000000000E+00 -0.34790811899E+03  0.34790811899E+03  0.00000000000E+00 0. -1.
         24    2    1    2    0    0 -0.57329598833E+02  0.25882174432E+02 -0.19182470509E+02  0.10286432103E+03  0.79098239623E+02 0.  0.
        -13    1    3    3    0    0 -0.62217183949E+02  0.37047683262E+02 -0.36968325654E+02  0.81302926855E+02  0.00000000000E+00 0.  1.
         14    1    3    3    0    0  0.48875851161E+01 -0.11165508830E+02  0.17785855145E+02  0.21561394179E+02  0.00000000000E+00 0. -1.
          3    1    1    2  501    0  0.57329598833E+02 -0.25882174432E+02 -0.28343684892E+03  0.29033259752E+03  0.00000000000E+00 0. -1.
<mgrwt>
<rscale>  1 0.10105989E+03</rscale>
<asrwt>0</asrwt>
<pdfrwt beam="1">  1       21 0.53524325E-01 0.10105989E+03</pdfrwt>
<pdfrwt beam="2">  1        4 0.69675078E-02 0.10105989E+03</pdfrwt>
<totfact> 0.18310073E+04</totfact>
</mgrwt>
</event>
<event>
 6    2  0.9453093E+000  0.9421079E+02  0.7546771E-02  0.1292964E+00
         -1   -1    0    0    0  501 -0.00000000000E+00  0.00000000000E+00  0.44498479387E+03  0.44498479387E+03  0.00000000000E+00 0.  1.
         21   -1    0    0  501  502  0.00000000000E+00 -0.00000000000E+00 -0.15626725768E+02  0.15626725768E+02  0.00000000000E+00 0.  1.
         24    2    1    2    0    0  0.48163744718E+02  0.18009302364E+02  0.37125694175E+03  0.38302400672E+03  0.78940431037E+02 0.  0.
        -11    1    3    3    0    0  0.28866703457E+02  0.36619756369E+02  0.33334673469E+03  0.33659224390E+03  0.00000000000E+00 0.  1.
         12    1    3    3    0    0  0.19297041261E+02 -0.18610454005E+02  0.37910207064E+02  0.46431762828E+02  0.00000000000E+00 0. -1.
         -2    1    1    2    0  502 -0.48163744718E+02 -0.18009302364E+02  0.58101126350E+02  0.77587512913E+02  0.00000000000E+00 0.  1.
<mgrwt>
<rscale>  1 0.94210790E+02</rscale>
<asrwt>0</asrwt>
<pdfrwt beam="1">  1       21 0.24041120E-02 0.94210790E+02</pdfrwt>
<pdfrwt beam="2">  1       -1 0.68459189E-01 0.94210790E+02</pdfrwt>
<totfact> 0.18195643E+05</totfact>
</mgrwt>
</event>
<event>
 6    2  0.9453093E+000  0.8660228E+02  0.7546771E-02  0.1311295E+00
         21   -1    0    0  501  502  0.00000000000E+00  0.00000000000E+00  0.80916538655E+02  0.80916538655E+02  0.00000000000E+00 0. -1.
         -1   -1    0    0    0  501 -0.00000000000E+00 -0.00000000000E+00 -0.42758265733E+02  0.42758265733E+02  0.00000000000E+00 0.  1.
         24    2    1    2    0    0 -0.62720713738E+01 -0.30396066191E+02  0.28430437291E+02  0.91149575637E+02  0.80849833983E+02 0.  0.
        -11    1    3    3    0    0 -0.32545915492E+02 -0.13175847020E+02 -0.14470548978E+02  0.37976786958E+02  0.00000000000E+00 0.  1.
         12    1    3    3    0    0  0.26273844118E+02 -0.17220219171E+02  0.42900986269E+02  0.53172788679E+02  0.00000000000E+00 0. -1.
         -2    1    1    2    0  502  0.62720713738E+01  0.30396066191E+02  0.97278356310E+01  0.32525228750E+02  0.00000000000E+00 0.  1.
<mgrwt>
<rscale>  1 0.86602283E+02</rscale>
<asrwt>0</asrwt>
<pdfrwt beam="1">  1       21 0.12448698E-01 0.86602283E+02</pdfrwt>
<pdfrwt beam="2">  1       -1 0.65781948E-02 0.86602283E+02</pdfrwt>
<totfact> 0.52518447E+05</totfact>
</mgrwt>
</event>
<event>
 6    2  0.9453093E+000  0.7833308E+02  0.7546771E-02  0.1333850E+00
         21   -1    0    0  501  502  0.00000000000E+00  0.00000000000E+00  0.50258095180E+02  0.50258095180E+02  0.00000000000E+00 0.  1.
          2   -1    0    0  502    0 -0.00000000000E+00 -0.00000000000E+00 -0.13284417198E+03  0.13284417198E+03  0.00000000000E+00 0. -1.
         24    2    1    2    0    0 -0.72224384180E+01  0.23057929602E+02 -0.11715232697E+03  0.14092813545E+03  0.74513353912E+02 0.  0.
        -13    1    3    3    0    0 -0.39864646345E+01  0.49966076202E+02 -0.64270110732E+02  0.81505507819E+02  0.00000000000E+00 0.  1.
         14    1    3    3    0    0 -0.32359737835E+01 -0.26908146599E+02 -0.52882216241E+02  0.59422627629E+02  0.00000000000E+00 0. -1.
          1    1    1    2  501    0  0.72224384180E+01 -0.23057929602E+02  0.34566250176E+02  0.42174131710E+02  0.00000000000E+00 0. -1.
<mgrwt>
<rscale>  1 0.78333081E+02</rscale>
<asrwt>0</asrwt>
<pdfrwt beam="1">  1       21 0.77320148E-02 0.78333081E+02</pdfrwt>
<pdfrwt beam="2">  1        2 0.20437564E-01 0.78333081E+02</pdfrwt>
<totfact> 0.39502970E+05</totfact>
</mgrwt>
</event>
<event>
 6    2  0.9453093E+000  0.8215905E+02  0.7546771E-02  0.1323034E+00
         21   -1    0    0  501  502  0.00000000000E+00  0.00000000000E+00  0.90218227896E+01  0.90218227896E+01  0.00000000000E+00 0.  1.
          4   -1    0    0  502    0 -0.00000000000E+00 -0.00000000000E+00 -0.31937152966E+03  0.31937152966E+03  0.00000000000E+00 0. -1.
         24    2    1    2    0    0 -0.13059918487E+02  0.17022041712E+02 -0.20441709387E+03  0.22030991305E+03  0.79308247666E+02 0.  0.
        -13    1    3    3    0    0 -0.10814290627E+02 -0.25708004309E+02 -0.31033467790E+02  0.41724411204E+02  0.00000000000E+00 0.  1.
         14    1    3    3    0    0 -0.22456278593E+01  0.42730046021E+02 -0.17338362608E+03  0.17858550185E+03  0.00000000000E+00 0. -1.
          3    1    1    2  501    0  0.13059918487E+02 -0.17022041712E+02 -0.10593261300E+03  0.10808343939E+03  0.00000000000E+00 0. -1.
<mgrwt>
<rscale>  1 0.82159050E+02</rscale>
<asrwt>0</asrwt>
<pdfrwt beam="1">  1       21 0.13879726E-02 0.82159050E+02</pdfrwt>
<pdfrwt beam="2">  1        4 0.49134086E-01 0.82159050E+02</pdfrwt>
<totfact> 0.32287907E+05</totfact>
</mgrwt>
</event>
<event>
 6    2  0.9453093E+000  0.8330157E+02  0.7546771E-02  0.1319935E+00
         -1   -1    0    0    0  501 -0.00000000000E+00  0.00000000000E+00  0.29780633046E+03  0.29780633046E+03  0.00000000000E+00 0.  1.
         21   -1    0    0  501  502  0.00000000000E+00 -0.00000000000E+00 -0.13083008406E+02  0.13083008406E+02  0.00000000000E+00 0. -1.
         24    2    1    2    0    0 -0.21620425591E+02 -0.79384780575E+01  0.12958080743E+03  0.15404654470E+03  0.80054294355E+02 0.  0.
        -11    1    3    3    0    0  0.16580188268E+02 -0.30398162917E+02  0.82079793614E+02  0.89084473795E+02  0.00000000000E+00 0.  1.
         12    1    3    3    0    0 -0.38200613860E+02  0.22459684859E+02  0.47501013814E+02  0.64962070907E+02  0.00000000000E+00 0. -1.
         -2    1    1    2    0  502  0.21620425591E+02  0.79384780575E+01  0.15514251463E+03  0.15684279416E+03  0.00000000000E+00 0.  1.
<mgrwt>
<rscale>  1 0.83301574E+02</rscale>
<asrwt>0</asrwt>
<pdfrwt beam="1">  1       21 0.20127707E-02 0.83301574E+02</pdfrwt>
<pdfrwt beam="2">  1       -1 0.45816354E-01 0.83301574E+02</pdfrwt>
<totfact> 0.50327897E+05</totfact>
</mgrwt>
</event>
<event>
 6    2  0.9453093E+000  0.1169918E+03  0.7546771E-02  0.1248144E+00
          2   -1    0    0  502    0 -0.00000000000E+00  0.00000000000E+00  0.18657115218E+02  0.18657115218E+02  0.00000000000E+00 0. -1.
         21   -1    0    0  501  502  0.00000000000E+00 -0.00000000000E+00 -0.69431520588E+03  0.69431520588E+03  0.00000000000E+00 0.  1.
         24    2    1    2    0    0  0.82277179828E+02  0.23693481326E+02 -0.54019801298E+03  0.55272143023E+03  0.79725597084E+02 0.  0.
        -11    1    3    3    0    0  0.58315666420E+02 -0.23828467384E+02 -0.32415420853E+03  0.33021881188E+03  0.00000000000E+00 0.  1.
         12    1    3    3    0    0  0.23961513408E+02  0.47521948710E+02 -0.21604380445E+03  0.22250261836E+03  0.00000000000E+00 0. -1.
          1    1    1    2  501    0 -0.82277179828E+02 -0.23693481326E+02 -0.13546007768E+03  0.16025089086E+03  0.00000000000E+00 0. -1.
<mgrwt>
<rscale>  1 0.11699182E+03</rscale>
<asrwt>0</asrwt>
<pdfrwt beam="1">  1       21 0.10681771E+00 0.11699182E+03</pdfrwt>
<pdfrwt beam="2">  1        2 0.28703258E-02 0.11699182E+03</pdfrwt>
<totfact> 0.27826390E+04</totfact>
</mgrwt>
</event>
<event>
 6    2  0.9453093E+000  0.8591899E+02  0.7546771E-02  0.1313047E+00
         21   -1    0    0  501  502  0.00000000000E+00  0.00000000000E+00  0.23902817951E+02  0.23902817951E+02  0.00000000000E+00 0.  1.
          4   -1    0    0  502    0 -0.00000000000E+00 -0.00000000000E+00 -0.15834694265E+03  0.15834694265E+03  0.00000000000E+00 0. -1.
         24    2    1    2    0    0  0.54278539950E+01 -0.26060825535E+02 -0.12913384068E+03  0.15510519682E+03  0.81691156467E+02 0.  0.
        -13    1    3    3    0    0 -0.88241690237E+00 -0.22111217109E+02  0.33773472694E+01  0.22385063239E+02  0.00000000000E+00 0.  1.
         14    1    3    3    0    0  0.63102708973E+01 -0.39496084255E+01 -0.13251118795E+03  0.13272013358E+03  0.00000000000E+00 0. -1.
          3    1    1    2  501    0 -0.54278539950E+01  0.26060825535E+02 -0.53102840178E+01  0.27144563782E+02  0.00000000000E+00 0. -1.
<mgrwt>
<rscale>  1 0.85918992E+02</rscale>
<asrwt>0</asrwt>
<pdfrwt beam="1">  1       21 0.36773566E-02 0.85918992E+02</pdfrwt>
<pdfrwt beam="2">  1        4 0.24361068E-01 0.85918992E+02</pdfrwt>
<totfact> 0.26040002E+05</totfact>
</mgrwt>
</event>
<event>
 6    2  0.9453093E+000  0.8369137E+02  0.7546771E-02  0.1318891E+00
         21   -1    0    0  501  502  0.00000000000E+00  0.00000000000E+00  0.19206188617E+03  0.19206188617E+03  0.00000000000E+00 0.  1.
          2   -1    0    0  502    0 -0.00000000000E+00 -0.00000000000E+00 -0.14582974772E+02  0.14582974772E+02  0.00000000000E+00 0. -1.
         24    2    1    2    0    0  0.11159609728E+02 -0.18162989097E+02  0.13014180539E+03  0.15472923066E+03  0.80930922699E+02 0.  0.
        -11    1    3    3    0    0  0.23657586720E+02 -0.43267037440E+02  0.10891509489E+03  0.11955842017E+03  0.00000000000E+00 0.  1.
         12    1    3    3    0    0 -0.12497976992E+02  0.25104048343E+02  0.21226710497E+02  0.35170810491E+02  0.00000000000E+00 0. -1.
          1    1    1    2  501    0 -0.11159609728E+02  0.18162989097E+02  0.47337106013E+02  0.51915630285E+02  0.00000000000E+00 0. -1.
<mgrwt>
<rscale>  1 0.83691369E+02</rscale>
<asrwt>0</asrwt>
<pdfrwt beam="1">  1       21 0.29547981E-01 0.83691369E+02</pdfrwt>
<pdfrwt beam="2">  1        2 0.22435347E-02 0.83691369E+02</pdfrwt>
<totfact> 0.56497101E+05</totfact>
</mgrwt>
</event>
<event>
 6    2  0.9453093E+000  0.8490707E+02  0.7546771E-02  0.1315676E+00
          2   -1    0    0  502    0 -0.00000000000E+00  0.00000000000E+00  0.32787549244E+02  0.32787549244E+02  0.00000000000E+00 0. -1.
         21   -1    0    0  501  502  0.00000000000E+00 -0.00000000000E+00 -0.15519355279E+03  0.15519355279E+03  0.00000000000E+00 0.  1.
         24    2    1    2    0    0  0.21098336504E+01 -0.21793372946E+02 -0.25530911387E+02  0.88662493590E+02  0.82035405960E+02 0.  0.
        -11    1    3    3    0    0  0.26107388070E+02 -0.44675513058E+02 -0.15129467838E+02  0.53911019058E+02  0.00000000000E+00 0.  1.
         12    1    3    3    0    0 -0.23997554420E+02  0.22882140112E+02 -0.10401443548E+02  0.34751474532E+02  0.00000000000E+00 0. -1.
          1    1    1    2  501    0 -0.21098336504E+01  0.21793372946E+02 -0.96875092161E+02  0.99318608446E+02  0.00000000000E+00 0. -1.
<mgrwt>
<rscale>  1 0.84907069E+02</rscale>
<asrwt>0</asrwt>
<pdfrwt beam="1">  1       21 0.23875932E-01 0.84907069E+02</pdfrwt>
<pdfrwt beam="2">  1        2 0.50442382E-02 0.84907069E+02</pdfrwt>
<totfact> 0.29082482E+05</totfact>
</mgrwt>
</event>
<event>
 6    2  0.9453093E+000  0.8377725E+02  0.7546771E-02  0.1318661E+00
         21   -1    0    0  501  502  0.00000000000E+00  0.00000000000E+00  0.16756300229E+01  0.16756300229E+01  0.00000000000E+00 0. -1.
          2   -1    0    0  502    0 -0.00000000000E+00 -0.00000000000E+00 -0.23506533804E+04  0.23506533804E+04  0.00000000000E+00 0. -1.
         24    2    1    2    0    0  0.15213453530E+01 -0.23141747503E+02 -0.21965492404E+04  0.21981463083E+04  0.80503244508E+02 0.  0.
        -13    1    3    3    0    0 -0.26794252758E+02  0.84626857957E+01 -0.15244037914E+04  0.15246627392E+04  0.00000000000E+00 0.  1.
         14    1    3    3    0    0  0.28315598111E+02 -0.31604433299E+02 -0.67214544898E+03  0.67348356913E+03  0.00000000000E+00 0. -1.
          1    1    1    2  501    0 -0.15213453530E+01  0.23141747503E+02 -0.15242850996E+03  0.15418270207E+03  0.00000000000E+00 0. -1.
<mgrwt>
<rscale>  1 0.83777248E+02</rscale>
<asrwt>0</asrwt>
<pdfrwt beam="1">  1       21 0.25778964E-03 0.83777248E+02</pdfrwt>
<pdfrwt beam="2">  1        2 0.36163841E+00 0.83777248E+02</pdfrwt>
<totfact> 0.18934159E+06</totfact>
</mgrwt>
</event>
<event>
 6    2  0.9453093E+000  0.1042594E+03  0.7546771E-02  0.1271586E+00
          2   -1    0    0  502    0 -0.00000000000E+00  0.00000000000E+00  0.66982572860E+02  0.66982572860E+02  0.00000000000E+00 0. -1.
         21   -1    0    0  501  502  0.00000000000E+00 -0.00000000000E+00 -0.10904208453E+03  0.10904208453E+03  0.00000000000E+00 0.  1.
         24    2    1    2    0    0  0.65253747153E+02  0.19206394072E+01 -0.36671623844E+02  0.11052069027E+03  0.81291294791E+02 0.  0.
        -13    1    3    3    0    0  0.69304681661E+02  0.17702500981E+02 -0.51776775680E+02  0.88302615709E+02  0.00000000000E+00 0.  1.
         14    1    3    3    0    0 -0.40509345087E+01 -0.15781861574E+02  0.15105151836E+02  0.22218074560E+02  0.00000000000E+00 0. -1.
          1    1    1    2  501    0 -0.65253747153E+02 -0.19206394072E+01 -0.53878878236E+01  0.65503967119E+02  0.00000000000E+00 0. -1.
<mgrwt>
<rscale>  1 0.10425936E+03</rscale>
<asrwt>0</asrwt>
<pdfrwt beam="1">  1       21 0.16775705E-01 0.10425936E+03</pdfrwt>
<pdfrwt beam="2">  1        2 0.10305011E-01 0.10425936E+03</pdfrwt>
<totfact> 0.23062591E+05</totfact>
</mgrwt>
</event>
<event>
 6    2  0.9453093E+000  0.8433379E+02  0.7546771E-02  0.1317184E+00
          2   -1    0    0  502    0 -0.00000000000E+00  0.00000000000E+00  0.29564734932E+04  0.29564734932E+04  0.00000000000E+00 0. -1.
         21   -1    0    0  501  502  0.00000000000E+00 -0.00000000000E+00 -0.98240526759E+01  0.98240526759E+01  0.00000000000E+00 0. -1.
         24    2    1    2    0    0  0.24890614694E+02 -0.10537710650E+02  0.29360551746E+04  0.29372661057E+04  0.79884925397E+02 0.  0.
        -11    1    3    3    0    0  0.35260514153E+01  0.43937287812E+01  0.13949043890E+02  0.15043726820E+02  0.00000000000E+00 0.  1.
         12    1    3    3    0    0  0.21364563279E+02 -0.14931439431E+02  0.29221061308E+04  0.29222223789E+04  0.00000000000E+00 0. -1.
          1    1    1    2  501    0 -0.24890614694E+02  0.10537710650E+02  0.10594265840E+02  0.29031440100E+02  0.00000000000E+00 0. -1.
<mgrwt>
<rscale>  1 0.84333785E+02</rscale>
<asrwt>0</asrwt>
<pdfrwt beam="1">  1       21 0.15113951E-02 0.84333785E+02</pdfrwt>
<pdfrwt beam="2">  1        2 0.45484137E+00 0.84333785E+02</pdfrwt>
<totfact> 0.58827247E+04</totfact>
</mgrwt>
</event>
<event>
 6    2  0.9453093E+000  0.9112598E+02  0.7546771E-02  0.1300148E+00
          4   -1    0    0  502    0 -0.00000000000E+00  0.00000000000E+00  0.33463607375E+02  0.33463607375E+02  0.00000000000E+00 0. -1.
         21   -1    0    0  501  502  0.00000000000E+00 -0.00000000000E+00 -0.18282933853E+03  0.18282933853E+03  0.00000000000E+00 0. -1.
         24    2    1    2    0    0 -0.14256342317E+02  0.44001023632E+02 -0.43938443052E+02  0.10116585763E+03  0.78515034204E+02 0.  0.
        -13    1    3    3    0    0 -0.12335832292E+02  0.20828941504E+02 -0.65268170685E+02  0.69612869981E+02  0.00000000000E+00 0.  1.
         14    1    3    3    0    0 -0.19205100246E+01  0.23172082128E+02  0.21329727633E+02  0.31552987652E+02  0.00000000000E+00 0. -1.
          3    1    1    2  501    0  0.14256342317E+02 -0.44001023632E+02 -0.10542728810E+03  0.11512708827E+03  0.00000000000E+00 0. -1.
<mgrwt>
<rscale>  1 0.91125979E+02</rscale>
<asrwt>0</asrwt>
<pdfrwt beam="1">  1       21 0.28127590E-01 0.91125979E+02</pdfrwt>
<pdfrwt beam="2">  1        4 0.51482474E-02 0.91125979E+02</pdfrwt>
<totfact> 0.10506639E+05</totfact>
</mgrwt>
</event>
<event>
 6    2  0.9453093E+000  0.8375243E+02  0.7546771E-02  0.1318728E+00
         21   -1    0    0  501  502  0.00000000000E+00  0.00000000000E+00  0.44187185388E+01  0.44187185388E+01  0.00000000000E+00 0. -1.
          2   -1    0    0  502    0 -0.00000000000E+00 -0.00000000000E+00 -0.91618074150E+03  0.91618074150E+03  0.00000000000E+00 0. -1.
         24    2    1    2    0    0  0.24849869634E+02  0.17996117976E+02 -0.80984528422E+03  0.81416451316E+03  0.77930057235E+02 0.  0.
        -11    1    3    3    0    0  0.14845891525E+02  0.40440343443E+02 -0.24315001524E+03  0.24693673640E+03  0.00000000000E+00 0.  1.
         12    1    3    3    0    0  0.10003978110E+02 -0.22444225467E+02 -0.56669526898E+03  0.56722777675E+03  0.00000000000E+00 0. -1.
          1    1    1    2  501    0 -0.24849869634E+02 -0.17996117976E+02 -0.10191673874E+03  0.10643494689E+03  0.00000000000E+00 0. -1.
<mgrwt>
<rscale>  1 0.83752433E+02</rscale>
<asrwt>0</asrwt>
<pdfrwt beam="1">  1       21 0.67980283E-03 0.83752433E+02</pdfrwt>
<pdfrwt beam="2">  1        2 0.14095089E+00 0.83752433E+02</pdfrwt>
<totfact> 0.24153305E+06</totfact>
</mgrwt>
</event>
<event>
 6    2  0.9453093E+000  0.1275334E+03  0.7546771E-02  0.1231162E+00
          2   -1    0    0  502    0 -0.00000000000E+00  0.00000000000E+00  0.31011411862E+04  0.31011411862E+04  0.00000000000E+00 0. -1.
         21   -1    0    0  501  502  0.00000000000E+00 -0.00000000000E+00 -0.73328720568E+01  0.73328720568E+01  0.00000000000E+00 0. -1.
         24    2    1    2    0    0  0.41666000317E+01 -0.99976482517E+02  0.26687909565E+04  0.26718364374E+04  0.79070356900E+02 0.  0.
        -13    1    3    3    0    0  0.31718741835E+02 -0.18606129480E+02  0.50304471907E+03  0.50438701017E+03  0.00000000000E+00 0.  1.
         14    1    3    3    0    0 -0.27552141803E+02 -0.81370353038E+02  0.21657462374E+04  0.21674494272E+04  0.00000000000E+00 0. -1.
          1    1    1    2  501    0 -0.41666000317E+01  0.99976482517E+02  0.42501735767E+03  0.43663762084E+03  0.00000000000E+00 0. -1.
<mgrwt>
<rscale>  1 0.12753344E+03</rscale>
<asrwt>0</asrwt>
<pdfrwt beam="1">  1       21 0.11281366E-02 0.12753344E+03</pdfrwt>
<pdfrwt beam="2">  1        2 0.47709760E+00 0.12753344E+03</pdfrwt>
<totfact> 0.75718884E+04</totfact>
</mgrwt>
</event>
<event>
 6    2  0.9453093E+000  0.8607325E+02  0.7546771E-02  0.1312649E+00
         21   -1    0    0  501  502  0.00000000000E+00  0.00000000000E+00  0.14232845812E+02  0.14232845812E+02  0.00000000000E+00 0.  1.
         -3   -1    0    0    0  501 -0.00000000000E+00 -0.00000000000E+00 -0.60525472744E+03  0.60525472744E+03  0.00000000000E+00 0.  1.
         24    2    1    2    0    0  0.65154869805E+01 -0.29844369745E+02 -0.58099581244E+03  0.58733698944E+03  0.80470287158E+02 0.  0.
        -11    1    3    3    0    0 -0.47012334806E+01 -0.18685712863E+01 -0.51223877943E+03  0.51226376049E+03  0.00000000000E+00 0.  1.
         12    1    3    3    0    0  0.11216720461E+02 -0.27975798459E+02 -0.68757033014E+02  0.75073228959E+02  0.00000000000E+00 0. -1.
         -4    1    1    2    0  502 -0.65154869805E+01  0.29844369745E+02 -0.10026069188E+02  0.32150583812E+02  0.00000000000E+00 0.  1.
<mgrwt>
<rscale>  1 0.86073254E+02</rscale>
<asrwt>0</asrwt>
<pdfrwt beam="1">  1       21 0.21896685E-02 0.86073254E+02</pdfrwt>
<pdfrwt beam="2">  1       -3 0.93116116E-01 0.86073254E+02</pdfrwt>
<totfact> 0.51311598E+04</totfact>
</mgrwt>
</event>
<event>
 6    2  0.9453093E+000  0.8202418E+02  0.7546771E-02  0.1323403E+00
          2   -1    0    0  502    0 -0.00000000000E+00  0.00000000000E+00  0.13090023645E+04  0.13090023645E+04  0.00000000000E+00 0. -1.
         21   -1    0    0  501  502  0.00000000000E+00 -0.00000000000E+00 -0.22311487632E+01  0.22311487632E+01  0.00000000000E+00 0.  1.
         24    2    1    2    0    0 -0.96410396896E+01  0.23890312892E+02  0.10341160793E+04  0.10373639821E+04  0.77873417234E+02 0.  0.
        -13    1    3    3    0    0 -0.22274422988E+02  0.67559358571E+01  0.88545626477E+02  0.91553921581E+02  0.00000000000E+00 0.  1.
         14    1    3    3    0    0  0.12633383298E+02  0.17134377034E+02  0.94557045284E+03  0.94581006050E+03  0.00000000000E+00 0. -1.
          1    1    1    2  501    0  0.96410396896E+01 -0.23890312892E+02  0.27265513645E+03  0.27386953122E+03  0.00000000000E+00 0. -1.
<mgrwt>
<rscale>  1 0.82024178E+02</rscale>
<asrwt>0</asrwt>
<pdfrwt beam="1">  1       21 0.34325470E-03 0.82024178E+02</pdfrwt>
<pdfrwt beam="2">  1        2 0.20138437E+00 0.82024178E+02</pdfrwt>
<totfact> 0.41252390E+06</totfact>
</mgrwt>
</event>
<event>
 6    2  0.9453093E+000  0.8199597E+02  0.7546771E-02  0.1323481E+00
          2   -1    0    0  502    0 -0.00000000000E+00  0.00000000000E+00  0.55518769300E+03  0.55518769300E+03  0.00000000000E+00 0. -1.
         21   -1    0    0  501  502  0.00000000000E+00 -0.00000000000E+00 -0.50020803708E+01  0.50020803708E+01  0.00000000000E+00 0.  1.
         24    2    1    2    0    0 -0.10922138955E+02  0.20681687606E+02  0.43151811103E+03  0.43923936511E+03  0.78589531094E+02 0.  0.
        -11    1    3    3    0    0 -0.33370877816E+02 -0.77922887700E+01  0.99266296467E+02  0.10501491734E+03  0.00000000000E+00 0.  1.
         12    1    3    3    0    0  0.22448738860E+02  0.28473976376E+02  0.33225181456E+03  0.33422444777E+03  0.00000000000E+00 0. -1.
          1    1    1    2  501    0  0.10922138955E+02 -0.20681687606E+02  0.11866750160E+03  0.12095040826E+03  0.00000000000E+00 0. -1.
<mgrwt>
<rscale>  1 0.81995974E+02</rscale>
<asrwt>0</asrwt>
<pdfrwt beam="1">  1       21 0.76955126E-03 0.81995974E+02</pdfrwt>
<pdfrwt beam="2">  1        2 0.85413443E-01 0.81995974E+02</pdfrwt>
<totfact> 0.35856161E+06</totfact>
</mgrwt>
</event>
<event>
 6    2  0.9453093E+000  0.1702283E+03  0.7546771E-02  0.1177610E+00
          2   -1    0    0  502    0 -0.00000000000E+00  0.00000000000E+00  0.74380519293E+03  0.74380519293E+03  0.00000000000E+00 0. -1.
         21   -1    0    0  501  502  0.00000000000E+00 -0.00000000000E+00 -0.34632658295E+02  0.34632658295E+02  0.00000000000E+00 0. -1.
         24    2    1    2    0    0  0.84005631870E+02  0.12466458822E+03  0.35614075214E+03  0.39473269724E+03  0.79871529316E+02 0.  0.
        -13    1    3    3    0    0  0.59446535397E+01 -0.73332598353E+01  0.32878634202E+01  0.99962818783E+01  0.00000000000E+00 0.  1.
         14    1    3    3    0    0  0.78060978330E+02  0.13199784806E+03  0.35285288872E+03  0.38473641536E+03  0.00000000000E+00 0. -1.
          1    1    1    2  501    0 -0.84005631870E+02 -0.12466458822E+03  0.35303178249E+03  0.38370515398E+03  0.00000000000E+00 0. -1.
<mgrwt>
<rscale>  1 0.17022828E+03</rscale>
<asrwt>0</asrwt>
<pdfrwt beam="1">  1       21 0.53281018E-02 0.17022828E+03</pdfrwt>
<pdfrwt beam="2">  1        2 0.11443156E+00 0.17022828E+03</pdfrwt>
<totfact> 0.11850910E+05</totfact>
</mgrwt>
</event>
<event>
 6    2  0.9453093E+000  0.1638140E+03  0.7546771E-02  0.1184457E+00
          2   -1    0    0  502    0 -0.00000000000E+00  0.00000000000E+00  0.10136476407E+04  0.10136476407E+04  0.00000000000E+00 0. -1.
         21   -1    0    0  501  502  0.00000000000E+00 -0.00000000000E+00 -0.10146646096E+03  0.10146646096E+03  0.00000000000E+00 0.  1.
         24    2    1    2    0    0  0.13813855184E+03 -0.36056391454E+02 -0.26233809075E+02  0.16590126246E+03  0.80328657894E+02 0.  0.
        -13    1    3    3    0    0  0.13857625749E+03 -0.12003822977E+02 -0.16986331898E+02  0.14012853520E+03  0.00000000000E+00 0.  1.
         14    1    3    3    0    0 -0.43770564698E+00 -0.24052568477E+02 -0.92474771775E+01  0.25772727266E+02  0.00000000000E+00 0. -1.
          1    1    1    2  501    0 -0.13813855184E+03  0.36056391454E+02  0.93841498880E+03  0.94921283918E+03  0.00000000000E+00 0. -1.
<mgrwt>
<rscale>  1 0.16381397E+03</rscale>
<asrwt>0</asrwt>
<pdfrwt beam="1">  1       21 0.15610225E-01 0.16381397E+03</pdfrwt>
<pdfrwt beam="2">  1        2 0.15594578E+00 0.16381397E+03</pdfrwt>
<totfact> 0.12052179E+04</totfact>
</mgrwt>
</event>
<event>
 6    2  0.1295293E+001  0.7211420E+02  0.7546771E-02  0.1353048E+00
         -1   -1    0    0    0  501 -0.00000000000E+00  0.00000000000E+00  0.76950189352E+03  0.76950189352E+03  0.00000000000E+00 0.  1.
         21   -1    0    0  501  502  0.00000000000E+00 -0.00000000000E+00 -0.29205598335E+02  0.29205598335E+02  0.00000000000E+00 0.  1.
         24    2    1    2    0    0 -0.15817439676E+02 -0.13328319746E+02  0.76391540092E+03  0.76731166951E+03  0.69084172601E+02 0.  0.
        -13    1    3    3    0    0 -0.32073151873E+01  0.78356988709E+01  0.67481482990E+03  0.67486794242E+03  0.00000000000E+00 0.  1.
         14    1    3    3    0    0 -0.12610124488E+02 -0.21164018617E+02  0.89100571013E+02  0.92443727091E+02  0.00000000000E+00 0. -1.
         -2    1    1    2    0  502  0.15817439676E+02  0.13328319746E+02 -0.23619105731E+02  0.31395822344E+02  0.00000000000E+00 0.  1.
<mgrwt>
<rscale>  1 0.72114204E+02</rscale>
<asrwt>0</asrwt>
<pdfrwt beam="1">  1       21 0.44931696E-02 0.72114204E+02</pdfrwt>
<pdfrwt beam="2">  1       -1 0.11838489E+00 0.72114204E+02</pdfrwt>
<totfact> 0.20467342E+04</totfact>
</mgrwt>
</event>
<event>
 6    2  0.9453093E+000  0.8349917E+02  0.7546771E-02  0.1319405E+00
         21   -1    0    0  501  502  0.00000000000E+00  0.00000000000E+00  0.20716429479E+02  0.20716429479E+02  0.00000000000E+00 0. -1.
          2   -1    0    0  502    0 -0.00000000000E+00 -0.00000000000E+00 -0.66874506051E+03  0.66874506051E+03  0.00000000000E+00 0. -1.
         24    2    1    2    0    0  0.10225029634E+02 -0.21982517969E+02 -0.65797812828E+03  0.66325510102E+03  0.79901998767E+02 0.  0.
        -13    1    3    3    0    0 -0.18505364595E+02 -0.45591244140E+01 -0.39424840921E+02  0.43789864305E+02  0.00000000000E+00 0.  1.
         14    1    3    3    0    0  0.28730394229E+02 -0.17423393555E+02 -0.61855328736E+03  0.61946523671E+03  0.00000000000E+00 0. -1.
          1    1    1    2  501    0 -0.10225029634E+02  0.21982517969E+02  0.99494972488E+01  0.26206388969E+02  0.00000000000E+00 0. -1.
<mgrwt>
<rscale>  1 0.83499172E+02</rscale>
<asrwt>0</asrwt>
<pdfrwt beam="1">  1       21 0.31871434E-02 0.83499172E+02</pdfrwt>
<pdfrwt beam="2">  1        2 0.10288384E+00 0.83499172E+02</pdfrwt>
<totfact> 0.30718113E+05</totfact>
</mgrwt>
</event>
<event>
 6    2  0.9453093E+000  0.9610551E+02  0.7546771E-02  0.1288705E+00
          2   -1    0    0  502    0 -0.00000000000E+00  0.00000000000E+00  0.68593501544E+03  0.68593501544E+03  0.00000000000E+00 0. -1.
         21   -1    0    0  501  502  0.00000000000E+00 -0.00000000000E+00 -0.10659360937E+02  0.10659360937E+02  0.00000000000E+00 0. -1.
         24    2    1    2    0    0  0.36993950427E+02 -0.57114698974E+02  0.29446031855E+03  0.30974691122E+03  0.67864781720E+02 0.  0.
        -11    1    3    3    0    0  0.53033085129E+01 -0.48377311699E+01 -0.16719510166E+01  0.73704914529E+01  0.00000000000E+00 0.  1.
         12    1    3    3    0    0  0.31690641914E+02 -0.52276967804E+02  0.29613226957E+03  0.30237641976E+03  0.00000000000E+00 0. -1.
          1    1    1    2  501    0 -0.36993950427E+02  0.57114698974E+02  0.38081533595E+03  0.38684746516E+03  0.00000000000E+00 0. -1.
<mgrwt>
<rscale>  1 0.96105514E+02</rscale>
<asrwt>0</asrwt>
<pdfrwt beam="1">  1       21 0.16399022E-02 0.96105514E+02</pdfrwt>
<pdfrwt beam="2">  1        2 0.10552843E+00 0.96105514E+02</pdfrwt>
<totfact> 0.87727843E+05</totfact>
</mgrwt>
</event>
<event>
 6    2  0.9453093E+000  0.9642711E+02  0.7546771E-02  0.1287994E+00
         21   -1    0    0  501  502  0.00000000000E+00  0.00000000000E+00  0.73047862052E+01  0.73047862052E+01  0.00000000000E+00 0.  1.
          2   -1    0    0  502    0 -0.00000000000E+00 -0.00000000000E+00 -0.76260351804E+03  0.76260351804E+03  0.00000000000E+00 0. -1.
         24    2    1    2    0    0  0.13327776137E+02  0.50863661467E+02 -0.51032585080E+03  0.51935600608E+03  0.80829730790E+02 0.  0.
        -11    1    3    3    0    0  0.14840614674E+02  0.72005524738E+02 -0.35023786581E+03  0.35787092936E+03  0.00000000000E+00 0.  1.
         12    1    3    3    0    0 -0.15128385363E+01 -0.21141863271E+02 -0.16008798500E+03  0.16148507672E+03  0.00000000000E+00 0. -1.
          1    1    1    2  501    0 -0.13327776137E+02 -0.50863661467E+02 -0.24497288104E+03  0.25055229817E+03  0.00000000000E+00 0. -1.
<mgrwt>
<rscale>  1 0.96427107E+02</rscale>
<asrwt>0</asrwt>
<pdfrwt beam="1">  1       21 0.11238144E-02 0.96427107E+02</pdfrwt>
<pdfrwt beam="2">  1        2 0.11732350E+00 0.96427107E+02</pdfrwt>
<totfact> 0.14070156E+06</totfact>
</mgrwt>
</event>
<event>
 6    2  0.9453093E+000  0.9807601E+02  0.7546771E-02  0.1284395E+00
          4   -1    0    0  502    0 -0.00000000000E+00  0.00000000000E+00  0.63993941128E+03  0.63993941128E+03  0.00000000000E+00 0. -1.
         21   -1    0    0  501  502  0.00000000000E+00 -0.00000000000E+00 -0.90308089769E+01  0.90308089769E+01  0.00000000000E+00 0.  1.
         24    2    1    2    0    0 -0.51122138301E+01  0.52619579361E+02  0.44574715772E+03  0.45640928075E+03  0.82607191455E+02 0.  0.
        -11    1    3    3    0    0 -0.33201950157E+02  0.31879968648E+02  0.11569293298E+03  0.12451327896E+03  0.00000000000E+00 0.  1.
         12    1    3    3    0    0  0.28089736327E+02  0.20739610713E+02  0.33005422474E+03  0.33189600180E+03  0.00000000000E+00 0. -1.
          3    1    1    2  501    0  0.51122138301E+01 -0.52619579361E+02  0.18516144458E+03  0.19256093950E+03  0.00000000000E+00 0. -1.
<mgrwt>
<rscale>  1 0.98076006E+02</rscale>
<asrwt>0</asrwt>
<pdfrwt beam="1">  1       21 0.13893557E-02 0.98076006E+02</pdfrwt>
<pdfrwt beam="2">  1        4 0.98452182E-01 0.98076006E+02</pdfrwt>
<totfact> 0.75387281E+04</totfact>
</mgrwt>
</event>
<event>
 6    2  0.9453093E+000  0.9766913E+02  0.7546771E-02  0.1285275E+00
          4   -1    0    0  502    0 -0.00000000000E+00  0.00000000000E+00  0.97607122692E+02  0.97607122692E+02  0.00000000000E+00 0. -1.
         21   -1    0    0  501  502  0.00000000000E+00 -0.00000000000E+00 -0.12363992180E+03  0.12363992180E+03  0.00000000000E+00 0. -1.
         24    2    1    2    0    0 -0.50495679302E+02  0.12170570684E+02  0.64378148022E+02  0.11697779792E+03  0.82712289567E+02 0.  0.
        -13    1    3    3    0    0  0.17314650083E+02  0.81926906035E+01 -0.50888571144E+01  0.19819529600E+02  0.00000000000E+00 0.  1.
         14    1    3    3    0    0 -0.67810329385E+02  0.39778800800E+01  0.69467005136E+02  0.97158268324E+02  0.00000000000E+00 0. -1.
          3    1    1    2  501    0  0.50495679302E+02 -0.12170570684E+02 -0.90410947130E+02  0.10426924657E+03  0.00000000000E+00 0. -1.
<mgrwt>
<rscale>  1 0.97669132E+02</rscale>
<asrwt>0</asrwt>
<pdfrwt beam="1">  1       21 0.19021526E-01 0.97669132E+02</pdfrwt>
<pdfrwt beam="2">  1        4 0.15016481E-01 0.97669132E+02</pdfrwt>
<totfact> 0.37213210E+04</totfact>
</mgrwt>
</event>
<event>
 6    2  0.1063593E+001  0.9226903E+02  0.7546771E-02  0.1297448E+00
         21   -1    0    0  501  502  0.00000000000E+00  0.00000000000E+00  0.38962588190E+01  0.38962588190E+01  0.00000000000E+00 0.  1.
         -1   -1    0    0    0  501 -0.00000000000E+00 -0.00000000000E+00 -0.12124291961E+04  0.12124291961E+04  0.00000000000E+00 0.  1.
         24    2    1    2    0    0 -0.29100597977E+02  0.28234180553E+02 -0.67868682222E+03  0.68493019770E+03  0.82882804648E+02 0.  0.
        -13    1    3    3    0    0 -0.27035376286E+01  0.44206892658E+02 -0.57620690238E+03  0.57790652603E+03  0.00000000000E+00 0.  1.
         14    1    3    3    0    0 -0.26397060349E+02 -0.15972712105E+02 -0.10247991984E+03  0.10702367167E+03  0.00000000000E+00 0. -1.
         -2    1    1    2    0  502  0.29100597977E+02 -0.28234180553E+02 -0.52984611507E+03  0.53139525723E+03  0.00000000000E+00 0.  1.
<mgrwt>
<rscale>  1 0.92269025E+02</rscale>
<asrwt>0</asrwt>
<pdfrwt beam="1">  1       21 0.59942390E-03 0.92269025E+02</pdfrwt>
<pdfrwt beam="2">  1       -1 0.18652774E+00 0.92269025E+02</pdfrwt>
<totfact> 0.15839139E+05</totfact>
</mgrwt>
</event>
<event>
 6    2  0.9453093E+000  0.9151944E+02  0.7546771E-02  0.1299213E+00
          2   -1    0    0  502    0 -0.00000000000E+00  0.00000000000E+00  0.14536836814E+04  0.14536836814E+04  0.00000000000E+00 0. -1.
         21   -1    0    0  501  502  0.00000000000E+00 -0.00000000000E+00 -0.22965842979E+01  0.22965842979E+01  0.00000000000E+00 0. -1.
         24    2    1    2    0    0 -0.19209665011E+02  0.13645575275E+02  0.12041425720E+04  0.12076154772E+04  0.88434123531E+02 0.  0.
        -11    1    3    3    0    0 -0.15684741915E+02 -0.37261121794E+02  0.51011248699E+03  0.51171198121E+03  0.00000000000E+00 0.  1.
         12    1    3    3    0    0 -0.35249230951E+01  0.50906697070E+02  0.69403008501E+03  0.69590349603E+03  0.00000000000E+00 0. -1.
          1    1    1    2  501    0  0.19209665011E+02 -0.13645575275E+02  0.24724452513E+03  0.24836478849E+03  0.00000000000E+00 0. -1.
<mgrwt>
<rscale>  1 0.91519436E+02</rscale>
<asrwt>0</asrwt>
<pdfrwt beam="1">  1       21 0.35332182E-03 0.91519436E+02</pdfrwt>
<pdfrwt beam="2">  1        2 0.22364291E+00 0.91519436E+02</pdfrwt>
<totfact> 0.33573246E+06</totfact>
</mgrwt>
</event>
<event>
 6    2  0.9453093E+000  0.8600682E+02  0.7546771E-02  0.1312820E+00
          2   -1    0    0  502    0 -0.00000000000E+00  0.00000000000E+00  0.77624864699E+03  0.77624864699E+03  0.00000000000E+00 0. -1.
         21   -1    0    0  501  502  0.00000000000E+00 -0.00000000000E+00 -0.41354101644E+01  0.41354101644E+01  0.00000000000E+00 0.  1.
         24    2    1    2    0    0 -0.19311045795E+02 -0.16995275986E+02  0.53350856517E+03  0.54039667159E+03  0.82069590332E+02 0.  0.
        -13    1    3    3    0    0 -0.15009235912E+02  0.31499319360E+01  0.14910894991E+02  0.21390044958E+02  0.00000000000E+00 0.  1.
         14    1    3    3    0    0 -0.43018098830E+01 -0.20145207922E+02  0.51859767018E+03  0.51900662663E+03  0.00000000000E+00 0. -1.
          1    1    1    2  501    0  0.19311045795E+02  0.16995275986E+02  0.23860467166E+03  0.23998738557E+03  0.00000000000E+00 0. -1.
<mgrwt>
<rscale>  1 0.86006823E+02</rscale>
<asrwt>0</asrwt>
<pdfrwt beam="1">  1       21 0.63621757E-03 0.86006823E+02</pdfrwt>
<pdfrwt beam="2">  1        2 0.11942275E+00 0.86006823E+02</pdfrwt>
<totfact> 0.32976041E+06</totfact>
</mgrwt>
</event>
<event>
 6    2  0.9453093E+000  0.9125633E+02  0.7546771E-02  0.1299838E+00
         21   -1    0    0  501  502  0.00000000000E+00  0.00000000000E+00  0.18675544950E+02  0.18675544950E+02  0.00000000000E+00 0. -1.
          2   -1    0    0  502    0 -0.00000000000E+00 -0.00000000000E+00 -0.12597027742E+04  0.12597027742E+04  0.00000000000E+00 0. -1.
         24    2    1    2    0    0 -0.33078908655E+02 -0.23317828020E+02 -0.12339172037E+04  0.12372871064E+04  0.81791091986E+02 0.  0.
        -11    1    3    3    0    0 -0.28320831489E+01  0.50305435674E+01 -0.49032902300E+01  0.75742536679E+01  0.00000000000E+00 0.  1.
         12    1    3    3    0    0 -0.30246825507E+02 -0.28348371587E+02 -0.12290139135E+04  0.12297128527E+04  0.00000000000E+00 0. -1.
          1    1    1    2  501    0  0.33078908655E+02  0.23317828020E+02 -0.71100255196E+01  0.41091212738E+02  0.00000000000E+00 0. -1.
<mgrwt>
<rscale>  1 0.91256331E+02</rscale>
<asrwt>0</asrwt>
<pdfrwt beam="1">  1       21 0.28731599E-02 0.91256331E+02</pdfrwt>
<pdfrwt beam="2">  1        2 0.19380048E+00 0.91256331E+02</pdfrwt>
<totfact> 0.15920620E+05</totfact>
</mgrwt>
</event>
<event>
 6    2  0.9453093E+000  0.9111812E+02  0.7546771E-02  0.1300166E+00
         21   -1    0    0  501  502  0.00000000000E+00  0.00000000000E+00  0.21188754646E+01  0.21188754646E+01  0.00000000000E+00 0. -1.
          2   -1    0    0  502    0 -0.00000000000E+00 -0.00000000000E+00 -0.21186942316E+04  0.21186942316E+04  0.00000000000E+00 0. -1.
         24    2    1    2    0    0  0.42340982955E+02  0.64058988648E+01 -0.14697909390E+04  0.14726126160E+04  0.80428340989E+02 0.  0.
        -11    1    3    3    0    0 -0.85190989753E+01 -0.25273733060E+02 -0.26664772317E+03  0.26797825453E+03  0.00000000000E+00 0.  1.
         12    1    3    3    0    0  0.50860081930E+02  0.31679631925E+02 -0.12031432158E+04  0.12046343615E+04  0.00000000000E+00 0. -1.
          1    1    1    2  501    0 -0.42340982955E+02 -0.64058988648E+01 -0.64678441718E+03  0.64820049111E+03  0.00000000000E+00 0. -1.
<mgrwt>
<rscale>  1 0.91118123E+02</rscale>
<asrwt>0</asrwt>
<pdfrwt beam="1">  1       21 0.32597965E-03 0.91118123E+02</pdfrwt>
<pdfrwt beam="2">  1        2 0.32595415E+00 0.91118123E+02</pdfrwt>
<totfact> 0.17519508E+06</totfact>
</mgrwt>
</event>
<event>
 6    2  0.9453093E+000  0.9111295E+02  0.7546771E-02  0.1300179E+00
         21   -1    0    0  501  502  0.00000000000E+00  0.00000000000E+00  0.22405034810E+02  0.22405034810E+02  0.00000000000E+00 0. -1.
          2   -1    0    0  502    0 -0.00000000000E+00 -0.00000000000E+00 -0.40436693870E+03  0.40436693870E+03  0.00000000000E+00 0. -1.
         24    2    1    2    0    0 -0.29945572975E+02  0.36848825312E+02 -0.36523710085E+03  0.37643021843E+03  0.77762434635E+02 0.  0.
        -11    1    3    3    0    0  0.47997718082E+00  0.15048738393E+02 -0.76478421977E+01  0.16887403459E+02  0.00000000000E+00 0.  1.
         12    1    3    3    0    0 -0.30425550156E+02  0.21800086920E+02 -0.35758925865E+03  0.35954281497E+03  0.00000000000E+00 0. -1.
          1    1    1    2  501    0  0.29945572975E+02 -0.36848825312E+02 -0.16724803035E+02  0.50341755077E+02  0.00000000000E+00 0. -1.
<mgrwt>
<rscale>  1 0.91112949E+02</rscale>
<asrwt>0</asrwt>
<pdfrwt beam="1">  1       21 0.34469285E-02 0.91112949E+02</pdfrwt>
<pdfrwt beam="2">  1        2 0.62210298E-01 0.91112949E+02</pdfrwt>
<totfact> 0.47083818E+05</totfact>
</mgrwt>
</event>
<event>
 6    2  0.9453093E+000  0.9849289E+02  0.7546771E-02  0.1283497E+00
          2   -1    0    0  502    0 -0.00000000000E+00  0.00000000000E+00  0.39394726634E+03  0.39394726634E+03  0.00000000000E+00 0. -1.
         21   -1    0    0  501  502  0.00000000000E+00 -0.00000000000E+00 -0.20257921628E+02  0.20257921628E+02  0.00000000000E+00 0.  1.
         24    2    1    2    0    0  0.26250488688E+02  0.52303188360E+02  0.31990083094E+03  0.33471986931E+03  0.79222077748E+02 0.  0.
        -11    1    3    3    0    0  0.16283878284E+02  0.48923736982E+02  0.83855426177E+02  0.98439977812E+02  0.00000000000E+00 0.  1.
         12    1    3    3    0    0  0.99666104041E+01  0.33794513785E+01  0.23604540476E+03  0.23627989149E+03  0.00000000000E+00 0. -1.
          1    1    1    2  501    0 -0.26250488688E+02 -0.52303188360E+02  0.53788513772E+02  0.79485318662E+02  0.00000000000E+00 0. -1.
<mgrwt>
<rscale>  1 0.98492889E+02</rscale>
<asrwt>0</asrwt>
<pdfrwt beam="1">  1       21 0.31166036E-02 0.98492889E+02</pdfrwt>
<pdfrwt beam="2">  1        2 0.60607267E-01 0.98492889E+02</pdfrwt>
<totfact> 0.57407158E+05</totfact>
</mgrwt>
</event>
<event>
 6    2  0.9453093E+000  0.1049939E+03  0.7546771E-02  0.1270132E+00
          2   -1    0    0  502    0 -0.00000000000E+00  0.00000000000E+00  0.15165982017E+04  0.15165982017E+04  0.00000000000E+00 0. -1.
         21   -1    0    0  501  502  0.00000000000E+00 -0.00000000000E+00 -0.49400582872E+01  0.49400582872E+01  0.00000000000E+00 0.  1.
         24    2    1    2    0    0 -0.25010632610E+02 -0.60254636707E+02  0.10610257005E+04  0.10662078837E+04  0.82265187648E+02 0.  0.
        -11    1    3    3    0    0 -0.19040893633E+02 -0.78988221558E+02  0.94882025675E+03  0.95229279866E+03  0.00000000000E+00 0.  1.
         12    1    3    3    0    0 -0.59697389770E+01  0.18733584851E+02  0.11220544374E+03  0.11391508500E+03  0.00000000000E+00 0. -1.
          1    1    1    2  501    0  0.25010632610E+02  0.60254636707E+02  0.45063244296E+03  0.45533037636E+03  0.00000000000E+00 0. -1.
<mgrwt>
<rscale>  1 0.10499388E+03</rscale>
<asrwt>0</asrwt>
<pdfrwt beam="1">  1       21 0.76001018E-03 0.10499388E+03</pdfrwt>
<pdfrwt beam="2">  1        2 0.23332243E+00 0.10499388E+03</pdfrwt>
<totfact> 0.96997238E+05</totfact>
</mgrwt>
</event>
<event>
 6    2  0.9453093E+000  0.9871851E+02  0.7546771E-02  0.1283014E+00
         21   -1    0    0  501  502  0.00000000000E+00  0.00000000000E+00  0.15336353325E+03  0.15336353325E+03  0.00000000000E+00 0. -1.
          2   -1    0    0  502    0 -0.00000000000E+00 -0.00000000000E+00 -0.52604902931E+02  0.52604902931E+02  0.00000000000E+00 0. -1.
         24    2    1    2    0    0  0.57547287012E+02 -0.12995764379E+01  0.10987959309E+02  0.99328141193E+02  0.80199533925E+02 0.  0.
        -11    1    3    3    0    0 -0.14363969071E+02 -0.38953726543E+00  0.22298327733E+02  0.26527170344E+02  0.00000000000E+00 0.  1.
         12    1    3    3    0    0  0.71911256083E+02 -0.91003917244E+00 -0.11310368425E+02  0.72800970849E+02  0.00000000000E+00 0. -1.
          1    1    1    2  501    0 -0.57547287012E+02  0.12995764379E+01  0.89770671012E+02  0.10664029499E+03  0.00000000000E+00 0. -1.
<mgrwt>
<rscale>  1 0.98718511E+02</rscale>
<asrwt>0</asrwt>
<pdfrwt beam="1">  1       21 0.23594390E-01 0.98718511E+02</pdfrwt>
<pdfrwt beam="2">  1        2 0.80930620E-02 0.98718511E+02</pdfrwt>
<totfact> 0.16528035E+05</totfact>
</mgrwt>
</event>
<event>
 6    2  0.9453093E+000  0.8633478E+02  0.7546771E-02  0.1311978E+00
         21   -1    0    0  501  502  0.00000000000E+00  0.00000000000E+00  0.40719514093E+01  0.40719514093E+01  0.00000000000E+00 0. -1.
          2   -1    0    0  502    0 -0.00000000000E+00 -0.00000000000E+00 -0.91876437715E+03  0.91876437715E+03  0.00000000000E+00 0. -1.
         24    2    1    2    0    0  0.81004437985E+01 -0.30853052800E+02 -0.76008703214E+03  0.76497450358E+03  0.80225723032E+02 0.  0.
        -13    1    3    3    0    0 -0.23108835571E+02 -0.25326489076E+02 -0.14218495474E+03  0.14626007892E+03  0.00000000000E+00 0.  1.
         14    1    3    3    0    0  0.31209279369E+02 -0.55265637246E+01 -0.61790207740E+03  0.61871442465E+03  0.00000000000E+00 0. -1.
          1    1    1    2  501    0 -0.81004437985E+01  0.30853052800E+02 -0.15460539360E+03  0.15786182498E+03  0.00000000000E+00 0. -1.
<mgrwt>
<rscale>  1 0.86334783E+02</rscale>
<asrwt>0</asrwt>
<pdfrwt beam="1">  1       21 0.62645323E-03 0.86334783E+02</pdfrwt>
<pdfrwt beam="2">  1        2 0.14134855E+00 0.86334783E+02</pdfrwt>
<totfact> 0.27385199E+06</totfact>
</mgrwt>
</event>
<event>
 6    2  0.9453093E+000  0.9039978E+02  0.7546771E-02  0.1301886E+00
          2   -1    0    0  502    0 -0.00000000000E+00  0.00000000000E+00  0.17966248649E+04  0.17966248649E+04  0.00000000000E+00 0. -1.
         21   -1    0    0  501  502  0.00000000000E+00 -0.00000000000E+00 -0.53761423805E+01  0.53761423805E+01  0.00000000000E+00 0. -1.
         24    2    1    2    0    0 -0.91280942368E+01 -0.39447030650E+02  0.16972134597E+04  0.16996192658E+04  0.80825309248E+02 0.  0.
        -13    1    3    3    0    0  0.45305977357E+01  0.24303311893E+02  0.39242176124E+03  0.39319971513E+03  0.00000000000E+00 0.  1.
         14    1    3    3    0    0 -0.13658691972E+02 -0.63750342543E+02  0.13047916985E+04  0.13064195507E+04  0.00000000000E+00 0. -1.
          1    1    1    2  501    0  0.91280942368E+01  0.39447030650E+02  0.94035262804E+02  0.10238174145E+03  0.00000000000E+00 0. -1.
<mgrwt>
<rscale>  1 0.90399784E+02</rscale>
<asrwt>0</asrwt>
<pdfrwt beam="1">  1       21 0.82710026E-03 0.90399784E+02</pdfrwt>
<pdfrwt beam="2">  1        2 0.27640335E+00 0.90399784E+02</pdfrwt>
<totfact> 0.60915631E+05</totfact>
</mgrwt>
</event>
<event>
 6    2  0.9453093E+000  0.8354291E+02  0.7546771E-02  0.1319288E+00
          2   -1    0    0  502    0 -0.00000000000E+00  0.00000000000E+00  0.34724231271E+04  0.34724231271E+04  0.00000000000E+00 0. -1.
         21   -1    0    0  501  502  0.00000000000E+00 -0.00000000000E+00 -0.11808023026E+01  0.11808023026E+01  0.00000000000E+00 0.  1.
         24    2    1    2    0    0 -0.18895359409E+02 -0.92747419395E+01  0.33021379814E+04  0.33031946151E+04  0.80847767901E+02 0.  0.
        -13    1    3    3    0    0 -0.37386597718E+02 -0.27192693629E+02  0.11869920878E+04  0.11878920055E+04  0.00000000000E+00 0.  1.
         14    1    3    3    0    0  0.18491238309E+02  0.17917951689E+02  0.21151458937E+04  0.21153026096E+04  0.00000000000E+00 0. -1.
          1    1    1    2  501    0  0.18895359409E+02  0.92747419395E+01  0.16910434339E+03  0.17040931430E+03  0.00000000000E+00 0. -1.
<mgrwt>
<rscale>  1 0.83542905E+02</rscale>
<asrwt>0</asrwt>
<pdfrwt beam="1">  1       21 0.18166467E-03 0.83542905E+02</pdfrwt>
<pdfrwt beam="2">  1        2 0.53421077E+00 0.83542905E+02</pdfrwt>
<totfact> 0.74767401E+05</totfact>
</mgrwt>
</event>
<event>
 6    2  0.9453093E+000  0.8908144E+02  0.7546771E-02  0.1305091E+00
          2   -1    0    0  502    0 -0.00000000000E+00  0.00000000000E+00  0.13275668223E+04  0.13275668223E+04  0.00000000000E+00 0. -1.
         21   -1    0    0  501  502  0.00000000000E+00 -0.00000000000E+00 -0.25055167631E+01  0.25055167631E+01  0.00000000000E+00 0.  1.
         24    2    1    2    0    0  0.23507463796E+01  0.25690601188E+02  0.97452081641E+03  0.97858383639E+03  0.85264120347E+02 0.  0.
        -11    1    3    3    0    0  0.19378776204E+02  0.53230683857E+02  0.63629882562E+03  0.63881549617E+03  0.00000000000E+00 0.  1.
         12    1    3    3    0    0 -0.17028029824E+02 -0.27540082668E+02  0.33822199079E+03  0.33976834021E+03  0.00000000000E+00 0. -1.
          1    1    1    2  501    0 -0.23507463796E+01 -0.25690601188E+02  0.35054048913E+03  0.35148850269E+03  0.00000000000E+00 0. -1.
<mgrwt>
<rscale>  1 0.89081441E+02</rscale>
<asrwt>0</asrwt>
<pdfrwt beam="1">  1       21 0.38546518E-03 0.89081441E+02</pdfrwt>
<pdfrwt beam="2">  1        2 0.20424049E+00 0.89081441E+02</pdfrwt>
<totfact> 0.34110771E+06</totfact>
</mgrwt>
</event>
<event>
 6    2  0.9453093E+000  0.9061594E+02  0.7546771E-02  0.1301367E+00
         -3   -1    0    0    0  501 -0.00000000000E+00  0.00000000000E+00  0.35165024110E+02  0.35165024110E+02  0.00000000000E+00 0.  1.
         21   -1    0    0  501  502  0.00000000000E+00 -0.00000000000E+00 -0.98061482411E+02  0.98061482411E+02  0.00000000000E+00 0. -1.
         24    2    1    2    0    0 -0.18835281697E+02 -0.13682544321E+02 -0.35618953459E+02  0.97365077016E+02  0.87574359952E+02 0.  0.
        -11    1    3    3    0    0 -0.33294697087E+02  0.26426730893E+02 -0.11245181552E+01  0.42522623401E+02  0.00000000000E+00 0.  1.
         12    1    3    3    0    0  0.14459415390E+02 -0.40109275214E+02 -0.34494435304E+02  0.54842453615E+02  0.00000000000E+00 0. -1.
         -4    1    1    2    0  502  0.18835281697E+02  0.13682544321E+02 -0.27277504843E+02  0.35861429505E+02  0.00000000000E+00 0.  1.
<mgrwt>
<rscale>  1 0.90615939E+02</rscale>
<asrwt>0</asrwt>
<pdfrwt beam="1">  1       21 0.15086382E-01 0.90615939E+02</pdfrwt>
<pdfrwt beam="2">  1       -3 0.54100038E-02 0.90615939E+02</pdfrwt>
<totfact> 0.34592662E+05</totfact>
</mgrwt>
</event>
<event>
 6    2  0.9453093E+000  0.8530252E+02  0.7546771E-02  0.1314643E+00
          2   -1    0    0  502    0 -0.00000000000E+00  0.00000000000E+00  0.24460255924E+03  0.24460255924E+03  0.00000000000E+00 0. -1.
         21   -1    0    0  501  502  0.00000000000E+00 -0.00000000000E+00 -0.12899303089E+02  0.12899303089E+02  0.00000000000E+00 0. -1.
         24    2    1    2    0    0  0.24918940124E+02  0.51642425950E+01  0.19497537276E+03  0.21281897526E+03  0.81418040196E+02 0.  0.
        -13    1    3    3    0    0 -0.11195820546E+02 -0.27233377494E+02  0.11965915685E+03  0.12322871851E+03  0.00000000000E+00 0.  1.
         14    1    3    3    0    0  0.36114760670E+02  0.32397620089E+02  0.75316215915E+02  0.89590256756E+02  0.00000000000E+00 0. -1.
          1    1    1    2  501    0 -0.24918940124E+02 -0.51642425950E+01  0.36727883390E+02  0.44682887069E+02  0.00000000000E+00 0. -1.
<mgrwt>
<rscale>  1 0.85302522E+02</rscale>
<asrwt>0</asrwt>
<pdfrwt beam="1">  1       21 0.19845083E-02 0.85302522E+02</pdfrwt>
<pdfrwt beam="2">  1        2 0.37631160E-01 0.85302522E+02</pdfrwt>
<totfact> 0.19308350E+06</totfact>
</mgrwt>
</event>
<event>
 6    2  0.9453093E+000  0.8792276E+02  0.7546771E-02  0.1307961E+00
          2   -1    0    0  502    0 -0.00000000000E+00  0.00000000000E+00  0.79217186720E+03  0.79217186720E+03  0.00000000000E+00 0. -1.
         21   -1    0    0  501  502  0.00000000000E+00 -0.00000000000E+00 -0.81830462654E+01  0.81830462654E+01  0.00000000000E+00 0. -1.
         24    2    1    2    0    0 -0.66317130992E+01  0.36537441379E+02  0.72724303254E+03  0.73253862677E+03  0.79695966554E+02 0.  0.
        -11    1    3    3    0    0 -0.27802401440E+01 -0.81615623687E+01  0.75853418943E+01  0.11483825461E+02  0.00000000000E+00 0.  1.
         12    1    3    3    0    0 -0.38514729552E+01  0.44699003748E+02  0.71965769065E+03  0.72105480131E+03  0.00000000000E+00 0. -1.
          1    1    1    2  501    0  0.66317130992E+01 -0.36537441379E+02  0.56745788393E+02  0.67816286698E+02  0.00000000000E+00 0. -1.
<mgrwt>
<rscale>  1 0.87922758E+02</rscale>
<asrwt>0</asrwt>
<pdfrwt beam="1">  1       21 0.12589308E-02 0.87922758E+02</pdfrwt>
<pdfrwt beam="2">  1        2 0.12187253E+00 0.87922758E+02</pdfrwt>
<totfact> 0.11147938E+06</totfact>
</mgrwt>
</event>
<event>
 6    2  0.9453093E+000  0.8594377E+02  0.7546771E-02  0.1312983E+00
          2   -1    0    0  502    0 -0.00000000000E+00  0.00000000000E+00  0.97172285096E+03  0.97172285096E+03  0.00000000000E+00 0. -1.
         21   -1    0    0  501  502  0.00000000000E+00 -0.00000000000E+00 -0.24840601718E+02  0.24840601718E+02  0.00000000000E+00 0. -1.
         24    2    1    2    0    0  0.97042734355E+01  0.25318138344E+02  0.96178929742E+03  0.96562155329E+03  0.81554585979E+02 0.  0.
        -11    1    3    3    0    0  0.33708112251E+02  0.42966812731E+02  0.53019023283E+03  0.53299537223E+03  0.00000000000E+00 0.  1.
         12    1    3    3    0    0 -0.24003838815E+02 -0.17648674387E+02  0.43159906459E+03  0.43262618107E+03  0.00000000000E+00 0. -1.
          1    1    1    2  501    0 -0.97042734355E+01 -0.25318138344E+02 -0.14907048181E+02  0.30941899385E+02  0.00000000000E+00 0. -1.
<mgrwt>
<rscale>  1 0.85943770E+02</rscale>
<asrwt>0</asrwt>
<pdfrwt beam="1">  1       21 0.38216318E-02 0.85943770E+02</pdfrwt>
<pdfrwt beam="2">  1        2 0.14949579E+00 0.85943770E+02</pdfrwt>
<totfact> 0.14461202E+05</totfact>
</mgrwt>
</event>
<event>
 6    2  0.9453093E+000  0.1130969E+03  0.7546771E-02  0.1254940E+00
         21   -1    0    0  501  502  0.00000000000E+00  0.00000000000E+00  0.92807810906E+01  0.92807810906E+01  0.00000000000E+00 0.  1.
          2   -1    0    0  502    0 -0.00000000000E+00 -0.00000000000E+00 -0.10947481283E+04  0.10947481283E+04  0.00000000000E+00 0. -1.
         24    2    1    2    0    0 -0.43815735153E+02 -0.63280446688E+02 -0.45341315472E+03  0.46730547192E+03  0.82865442942E+02 0.  0.
        -11    1    3    3    0    0 -0.47263220386E+02 -0.29023088660E+02 -0.12090450729E+03  0.13301898947E+03  0.00000000000E+00 0.  1.
         12    1    3    3    0    0  0.34474852330E+01 -0.34257358028E+02 -0.33250864743E+03  0.33428648245E+03  0.00000000000E+00 0. -1.
          1    1    1    2  501    0  0.43815735153E+02  0.63280446688E+02 -0.63205419250E+03  0.63672343748E+03  0.00000000000E+00 0. -1.
<mgrwt>
<rscale>  1 0.11309693E+03</rscale>
<asrwt>0</asrwt>
<pdfrwt beam="1">  1       21 0.14278127E-02 0.11309693E+03</pdfrwt>
<pdfrwt beam="2">  1        2 0.16842277E+00 0.11309693E+03</pdfrwt>
<totfact> 0.60814349E+05</totfact>
</mgrwt>
</event>
<event>
 6    2  0.9453093E+000  0.8089889E+02  0.7546771E-02  0.1326520E+00
          2   -1    0    0  502    0 -0.00000000000E+00  0.00000000000E+00  0.22361415737E+04  0.22361415737E+04  0.00000000000E+00 0. -1.
         21   -1    0    0  501  502  0.00000000000E+00 -0.00000000000E+00 -0.41067504563E+01  0.41067504563E+01  0.00000000000E+00 0. -1.
         24    2    1    2    0    0 -0.22064593002E+02 -0.11725488061E+02  0.21889345992E+04  0.21904290242E+04  0.76943467233E+02 0.  0.
        -13    1    3    3    0    0 -0.10725555246E+02  0.11388487575E+02  0.90892263284E+02  0.92228730390E+02  0.00000000000E+00 0.  1.
         14    1    3    3    0    0 -0.11339037756E+02 -0.23113975636E+02  0.20980423359E+04  0.20982002938E+04  0.00000000000E+00 0. -1.
          1    1    1    2  501    0  0.22064593002E+02  0.11725488061E+02  0.43100223978E+02  0.49819299890E+02  0.00000000000E+00 0. -1.
<mgrwt>
<rscale>  1 0.80898891E+02</rscale>
<asrwt>0</asrwt>
<pdfrwt beam="1">  1       21 0.63180955E-03 0.80898891E+02</pdfrwt>
<pdfrwt beam="2">  1        2 0.34402081E+00 0.80898891E+02</pdfrwt>
<totfact> 0.55328382E+05</totfact>
</mgrwt>
</event>
<event>
 6    2  0.9453093E+000  0.8312629E+02  0.7546771E-02  0.1320406E+00
          4   -1    0    0  502    0 -0.00000000000E+00  0.00000000000E+00  0.39188069151E+02  0.39188069151E+02  0.00000000000E+00 0. -1.
         21   -1    0    0  501  502  0.00000000000E+00 -0.00000000000E+00 -0.76937922629E+02  0.76937922629E+02  0.00000000000E+00 0.  1.
         24    2    1    2    0    0 -0.23577211781E+02 -0.12370565236E+02 -0.30320850800E+02  0.88483526615E+02  0.78746839234E+02 0.  0.
        -11    1    3    3    0    0 -0.15266569027E+02 -0.33964051378E+02 -0.46998088391E+02  0.59962031556E+02  0.00000000000E+00 0.  1.
         12    1    3    3    0    0 -0.83106427534E+01  0.21593486142E+02  0.16677237591E+02  0.28521495059E+02  0.00000000000E+00 0. -1.
          3    1    1    2  501    0  0.23577211781E+02  0.12370565236E+02 -0.74290026770E+01  0.27642465165E+02  0.00000000000E+00 0. -1.
<mgrwt>
<rscale>  1 0.83126292E+02</rscale>
<asrwt>0</asrwt>
<pdfrwt beam="1">  1       21 0.11836603E-01 0.83126292E+02</pdfrwt>
<pdfrwt beam="2">  1        4 0.60289338E-02 0.83126292E+02</pdfrwt>
<totfact> 0.38649258E+05</totfact>
</mgrwt>
</event>
<event>
 6    2  0.9453093E+000  0.8401362E+02  0.7546771E-02  0.1318032E+00
         21   -1    0    0  501  502  0.00000000000E+00  0.00000000000E+00  0.79026996416E+02  0.79026996416E+02  0.00000000000E+00 0. -1.
         -3   -1    0    0    0  501 -0.00000000000E+00 -0.00000000000E+00 -0.37668667667E+02  0.37668667667E+02  0.00000000000E+00 0.  1.
         24    2    1    2    0    0 -0.22048467348E+02  0.60180381349E+01  0.22262866017E+02  0.86913313734E+02  0.80845143365E+02 0.  0.
        -11    1    3    3    0    0 -0.18379447955E+02 -0.86473343631E+01 -0.27906391320E+02  0.34515897428E+02  0.00000000000E+00 0.  1.
         12    1    3    3    0    0 -0.36690193923E+01  0.14665372498E+02  0.50169257337E+02  0.52397416306E+02  0.00000000000E+00 0. -1.
         -4    1    1    2    0  502  0.22048467348E+02 -0.60180381349E+01  0.19095462731E+02  0.29782350349E+02  0.00000000000E+00 0.  1.
<mgrwt>
<rscale>  1 0.84013623E+02</rscale>
<asrwt>0</asrwt>
<pdfrwt beam="1">  1       21 0.12157999E-01 0.84013623E+02</pdfrwt>
<pdfrwt beam="2">  1       -3 0.57951797E-02 0.84013623E+02</pdfrwt>
<totfact> 0.44890835E+05</totfact>
</mgrwt>
</event>
<event>
 6    2  0.9453093E+000  0.8781539E+02  0.7546771E-02  0.1308230E+00
          2   -1    0    0  502    0 -0.00000000000E+00  0.00000000000E+00  0.77202921557E+02  0.77202921557E+02  0.00000000000E+00 0. -1.
         21   -1    0    0  501  502  0.00000000000E+00 -0.00000000000E+00 -0.73458885734E+02  0.73458885734E+02  0.00000000000E+00 0.  1.
         24    2    1    2    0    0 -0.12545657779E+02  0.33445947525E+02  0.42836875208E+02  0.97706401277E+02  0.80221680598E+02 0.  0.
        -11    1    3    3    0    0  0.45207064976E+01  0.17437726857E+02 -0.22199356846E+02  0.28588853589E+02  0.00000000000E+00 0.  1.
         12    1    3    3    0    0 -0.17066364276E+02  0.16008220667E+02  0.65036232054E+02  0.69117547688E+02  0.00000000000E+00 0. -1.
          1    1    1    2  501    0  0.12545657779E+02 -0.33445947525E+02 -0.39092839385E+02  0.52955406014E+02  0.00000000000E+00 0. -1.
<mgrwt>
<rscale>  1 0.87815391E+02</rscale>
<asrwt>0</asrwt>
<pdfrwt beam="1">  1       21 0.11301367E-01 0.87815391E+02</pdfrwt>
<pdfrwt beam="2">  1        2 0.11877373E-01 0.87815391E+02</pdfrwt>
<totfact> 0.38714228E+05</totfact>
</mgrwt>
</event>
<event>
 6    2  0.9453093E+000  0.6492130E+02  0.7546771E-02  0.1378268E+00
         21   -1    0    0  501  502  0.00000000000E+00  0.00000000000E+00  0.11736488677E+03  0.11736488677E+03  0.00000000000E+00 0.  1.
         -1   -1    0    0    0  501 -0.00000000000E+00 -0.00000000000E+00 -0.12157375283E+03  0.12157375283E+03  0.00000000000E+00 0.  1.
         24    2    1    2    0    0 -0.23210442712E+02  0.23798395654E+02 -0.11017525136E+03  0.12788026260E+03  0.55764569973E+02 0.  0.
        -11    1    3    3    0    0  0.50959574716E+01  0.18946388867E+02 -0.91599572496E+02  0.93677191007E+02  0.00000000000E+00 0.  1.
         12    1    3    3    0    0 -0.28306400183E+02  0.48520067869E+01 -0.18575678863E+02  0.34203071593E+02  0.00000000000E+00 0. -1.
         -2    1    1    2    0  502  0.23210442712E+02 -0.23798395654E+02  0.10596638530E+03  0.11105837699E+03  0.00000000000E+00 0.  1.
<mgrwt>
<rscale>  1 0.64921303E+02</rscale>
<asrwt>0</asrwt>
<pdfrwt beam="1">  1       21 0.18056136E-01 0.64921303E+02</pdfrwt>
<pdfrwt beam="2">  1       -1 0.18703654E-01 0.64921303E+02</pdfrwt>
<totfact> 0.54433555E+04</totfact>
</mgrwt>
</event>
<event>
 6    2  0.9453093E+000  0.8431825E+02  0.7546771E-02  0.1317225E+00
          4   -1    0    0  502    0 -0.00000000000E+00  0.00000000000E+00  0.13498534953E+03  0.13498534953E+03  0.00000000000E+00 0. -1.
         21   -1    0    0  501  502  0.00000000000E+00 -0.00000000000E+00 -0.11015504506E+03  0.11015504506E+03  0.00000000000E+00 0. -1.
         24    2    1    2    0    0  0.17744889405E+02  0.18157419160E+02  0.11998938066E+03  0.14665271642E+03  0.80405191320E+02 0.  0.
        -11    1    3    3    0    0 -0.10072445794E+02  0.41565026086E+02  0.89542643066E+02  0.99232003331E+02  0.00000000000E+00 0.  1.
         12    1    3    3    0    0  0.27817335199E+02 -0.23407606926E+02  0.30446737590E+02  0.47420713085E+02  0.00000000000E+00 0. -1.
          3    1    1    2  501    0 -0.17744889405E+02 -0.18157419160E+02 -0.95159076188E+02  0.98487678171E+02  0.00000000000E+00 0. -1.
<mgrwt>
<rscale>  1 0.84318253E+02</rscale>
<asrwt>0</asrwt>
<pdfrwt beam="1">  1       21 0.16946930E-01 0.84318253E+02</pdfrwt>
<pdfrwt beam="2">  1        4 0.20766977E-01 0.84318253E+02</pdfrwt>
<totfact> 0.25434578E+04</totfact>
</mgrwt>
</event>
<event>
 6    2  0.9453093E+000  0.8385939E+02  0.7546771E-02  0.1318443E+00
         21   -1    0    0  501  502  0.00000000000E+00  0.00000000000E+00  0.71019944498E+01  0.71019944498E+01  0.00000000000E+00 0. -1.
          2   -1    0    0  502    0 -0.00000000000E+00 -0.00000000000E+00 -0.13973592262E+04  0.13973592262E+04  0.00000000000E+00 0. -1.
         24    2    1    2    0    0  0.38715970957E+01 -0.20936285852E+02 -0.13766312149E+04  0.13791830549E+04  0.81111526147E+02 0.  0.
        -11    1    3    3    0    0  0.41082794935E+02 -0.17636141236E+01 -0.58274812954E+03  0.58419713184E+03  0.00000000000E+00 0.  1.
         12    1    3    3    0    0 -0.37211197839E+02 -0.19172671728E+02 -0.79388308536E+03  0.79498592302E+03  0.00000000000E+00 0. -1.
          1    1    1    2  501    0 -0.38715970957E+01  0.20936285852E+02 -0.13626016822E+02  0.25278165751E+02  0.00000000000E+00 0. -1.
<mgrwt>
<rscale>  1 0.83859388E+02</rscale>
<asrwt>0</asrwt>
<pdfrwt beam="1">  1       21 0.10926142E-02 0.83859388E+02</pdfrwt>
<pdfrwt beam="2">  1        2 0.21497842E+00 0.83859388E+02</pdfrwt>
<totfact> 0.62621619E+05</totfact>
</mgrwt>
</event>
<event>
 6    2  0.9453093E+000  0.9062210E+02  0.7546771E-02  0.1301352E+00
          2   -1    0    0  502    0 -0.00000000000E+00  0.00000000000E+00  0.98146415148E+03  0.98146415148E+03  0.00000000000E+00 0. -1.
         21   -1    0    0  501  502  0.00000000000E+00 -0.00000000000E+00 -0.60557832280E+01  0.60557832280E+01  0.00000000000E+00 0. -1.
         24    2    1    2    0    0  0.42192643124E+02 -0.19007721712E+02  0.82982500059E+03  0.83475858633E+03  0.77915680252E+02 0.  0.
        -13    1    3    3    0    0  0.39487857338E+02  0.12952717932E+02  0.20822547772E+03  0.21233208271E+03  0.00000000000E+00 0.  1.
         14    1    3    3    0    0  0.27047857864E+01 -0.31960439645E+02  0.62159952288E+03  0.62242650362E+03  0.00000000000E+00 0. -1.
          1    1    1    2  501    0 -0.42192643124E+02  0.19007721712E+02  0.14558336767E+03  0.15276134838E+03  0.00000000000E+00 0. -1.
<mgrwt>
<rscale>  1 0.90622105E+02</rscale>
<asrwt>0</asrwt>
<pdfrwt beam="1">  1       21 0.93165974E-03 0.90622105E+02</pdfrwt>
<pdfrwt beam="2">  1        2 0.15099436E+00 0.90622105E+02</pdfrwt>
<totfact> 0.13639202E+06</totfact>
</mgrwt>
</event>
<event>
 6    2  0.9453093E+000  0.8570907E+02  0.7546771E-02  0.1313589E+00
         -3   -1    0    0    0  501 -0.00000000000E+00  0.00000000000E+00  0.20067595266E+03  0.20067595266E+03  0.00000000000E+00 0.  1.
         21   -1    0    0  501  502  0.00000000000E+00 -0.00000000000E+00 -0.26795302070E+02  0.26795302070E+02  0.00000000000E+00 0.  1.
         24    2    1    2    0    0  0.43290524305E+01  0.22464759775E+02  0.18359528004E+03  0.20261607113E+03  0.82599269356E+02 0.  0.
        -11    1    3    3    0    0 -0.21673152318E+02  0.43529225654E+02  0.13601965247E+03  0.14445021591E+03  0.00000000000E+00 0.  1.
         12    1    3    3    0    0  0.26002204748E+02 -0.21064465879E+02  0.47575627574E+02  0.58165855221E+02  0.00000000000E+00 0. -1.
         -4    1    1    2    0  502 -0.43290524305E+01 -0.22464759775E+02 -0.97146294506E+01  0.24855183605E+02  0.00000000000E+00 0.  1.
<mgrwt>
<rscale>  1 0.85709074E+02</rscale>
<asrwt>0</asrwt>
<pdfrwt beam="1">  1       21 0.41223543E-02 0.85709074E+02</pdfrwt>
<pdfrwt beam="2">  1       -3 0.30873223E-01 0.85709074E+02</pdfrwt>
<totfact> 0.16826161E+05</totfact>
</mgrwt>
</event>
<event>
 6    2  0.9453093E+000  0.9706464E+02  0.7546771E-02  0.1286593E+00
         -1   -1    0    0    0  501 -0.00000000000E+00  0.00000000000E+00  0.63638029897E+01  0.63638029897E+01  0.00000000000E+00 0.  1.
         21   -1    0    0  501  502  0.00000000000E+00 -0.00000000000E+00 -0.86277622186E+03  0.86277622186E+03  0.00000000000E+00 0.  1.
         24    2    1    2    0    0 -0.39556166298E+02  0.31432026375E+02 -0.59946092968E+03  0.60726843347E+03  0.82878715620E+02 0.  0.
        -13    1    3    3    0    0 -0.50976208064E+01  0.54921660481E+02 -0.32171694160E+03  0.32641103694E+03  0.00000000000E+00 0.  1.
         14    1    3    3    0    0 -0.34458545492E+02 -0.23489634106E+02 -0.27774398809E+03  0.28085739653E+03  0.00000000000E+00 0. -1.
         -2    1    1    2    0  502  0.39556166298E+02 -0.31432026375E+02 -0.25695148919E+03  0.26187159138E+03  0.00000000000E+00 0.  1.
<mgrwt>
<rscale>  1 0.97064639E+02</rscale>
<asrwt>0</asrwt>
<pdfrwt beam="1">  1       21 0.13273484E+00 0.97064639E+02</pdfrwt>
<pdfrwt beam="2">  1       -1 0.97904631E-03 0.97064639E+02</pdfrwt>
<totfact> 0.67843237E+04</totfact>
</mgrwt>
</event>
<event>
 6    2  0.9453093E+000  0.8858561E+02  0.7546771E-02  0.1306313E+00
         21   -1    0    0  501  502  0.00000000000E+00  0.00000000000E+00  0.81941296961E+01  0.81941296961E+01  0.00000000000E+00 0. -1.
          2   -1    0    0  502    0 -0.00000000000E+00 -0.00000000000E+00 -0.81770351452E+03  0.81770351452E+03  0.00000000000E+00 0. -1.
         24    2    1    2    0    0  0.30139723567E+02 -0.10049919835E+02 -0.77055292098E+03  0.77562827083E+03  0.82692240601E+02 0.  0.
        -13    1    3    3    0    0  0.18984667265E+02 -0.20777768961E+02 -0.78339839582E+02  0.83242199273E+02  0.00000000000E+00 0.  1.
         14    1    3    3    0    0  0.11155056302E+02  0.10727849126E+02 -0.69221308140E+03  0.69238607156E+03  0.00000000000E+00 0. -1.
          1    1    1    2  501    0 -0.30139723567E+02  0.10049919835E+02 -0.38956463847E+02  0.50269373388E+02  0.00000000000E+00 0. -1.
<mgrwt>
<rscale>  1 0.88585611E+02</rscale>
<asrwt>0</asrwt>
<pdfrwt beam="1">  1       21 0.12606349E-02 0.88585611E+02</pdfrwt>
<pdfrwt beam="2">  1        2 0.12580059E+00 0.88585611E+02</pdfrwt>
<totfact> 0.10708200E+06</totfact>
</mgrwt>
</event>
<event>
 6    2  0.9453093E+000  0.8715270E+02  0.7546771E-02  0.1309897E+00
         21   -1    0    0  501  502  0.00000000000E+00  0.00000000000E+00  0.13876177146E+03  0.13876177146E+03  0.00000000000E+00 0.  1.
         -3   -1    0    0    0  501 -0.00000000000E+00 -0.00000000000E+00 -0.26101313800E+02  0.26101313800E+02  0.00000000000E+00 0.  1.
         24    2    1    2    0    0 -0.19311769027E+02  0.25190870314E+02  0.70545705992E+02  0.11212622265E+03  0.81166919378E+02 0.  0.
        -11    1    3    3    0    0 -0.18897320339E+02  0.51508778970E+02  0.26773816818E+02  0.61049981932E+02  0.00000000000E+00 0.  1.
         12    1    3    3    0    0 -0.41444868740E+00 -0.26317908656E+02  0.43771889175E+02  0.51076240716E+02  0.00000000000E+00 0. -1.
         -4    1    1    2    0  502  0.19311769027E+02 -0.25190870314E+02  0.42114751664E+02  0.52736862609E+02  0.00000000000E+00 0.  1.
<mgrwt>
<rscale>  1 0.87152700E+02</rscale>
<asrwt>0</asrwt>
<pdfrwt beam="1">  1       21 0.21347964E-01 0.87152700E+02</pdfrwt>
<pdfrwt beam="2">  1       -3 0.40155868E-02 0.87152700E+02</pdfrwt>
<totfact> 0.29179581E+05</totfact>
</mgrwt>
</event>
<event>
 6    2  0.9453093E+000  0.8691526E+02  0.7546771E-02  0.1310499E+00
         21   -1    0    0  501  502  0.00000000000E+00  0.00000000000E+00  0.24360356472E+02  0.24360356472E+02  0.00000000000E+00 0. -1.
          2   -1    0    0  502    0 -0.00000000000E+00 -0.00000000000E+00 -0.38988277891E+03  0.38988277891E+03  0.00000000000E+00 0. -1.
         24    2    1    2    0    0  0.29578826181E+02 -0.13007432315E+02 -0.37137045620E+03  0.38140566056E+03  0.80685574429E+02 0.  0.
        -13    1    3    3    0    0  0.28431406399E+02  0.22487485102E+02 -0.79400996737E+02  0.87284306372E+02  0.00000000000E+00 0.  1.
         14    1    3    3    0    0  0.11474197828E+01 -0.35494917417E+02 -0.29196945946E+03  0.29412135419E+03  0.00000000000E+00 0. -1.
          1    1    1    2  501    0 -0.29578826181E+02  0.13007432315E+02  0.58480337570E+01  0.32837474820E+02  0.00000000000E+00 0. -1.
<mgrwt>
<rscale>  1 0.86915259E+02</rscale>
<asrwt>0</asrwt>
<pdfrwt beam="1">  1       21 0.37477473E-02 0.86915259E+02</pdfrwt>
<pdfrwt beam="2">  1        2 0.59981964E-01 0.86915259E+02</pdfrwt>
<totfact> 0.42496988E+05</totfact>
</mgrwt>
</event>
<event>
 6    2  0.9453093E+000  0.7698524E+02  0.7546771E-02  0.1337831E+00
         21   -1    0    0  501  502  0.00000000000E+00  0.00000000000E+00  0.23821352769E+03  0.23821352769E+03  0.00000000000E+00 0.  1.
          2   -1    0    0  502    0 -0.00000000000E+00 -0.00000000000E+00 -0.13585288370E+02  0.13585288370E+02  0.00000000000E+00 0. -1.
         24    2    1    2    0    0 -0.67399198893E+01 -0.21444422751E+02  0.10569487142E+03  0.13075983149E+03  0.73630414218E+02 0.  0.
        -11    1    3    3    0    0 -0.17845957533E+02  0.22756763210E+02  0.57888432971E+02  0.64710270776E+02  0.00000000000E+00 0.  1.
         12    1    3    3    0    0  0.11106037644E+02 -0.44201185962E+02  0.47806438452E+02  0.66049560710E+02  0.00000000000E+00 0. -1.
          1    1    1    2  501    0  0.67399198893E+01  0.21444422751E+02  0.11893336790E+03  0.12103898457E+03  0.00000000000E+00 0. -1.
<mgrwt>
<rscale>  1 0.76985243E+02</rscale>
<asrwt>0</asrwt>
<pdfrwt beam="1">  1       21 0.36648232E-01 0.76985243E+02</pdfrwt>
<pdfrwt beam="2">  1        2 0.20900445E-02 0.76985243E+02</pdfrwt>
<totfact> 0.40697622E+05</totfact>
</mgrwt>
</event>
<event>
 6    2  0.9453093E+000  0.8466334E+02  0.7546771E-02  0.1316315E+00
          2   -1    0    0  502    0 -0.00000000000E+00  0.00000000000E+00  0.91795491827E+03  0.91795491827E+03  0.00000000000E+00 0. -1.
         21   -1    0    0  501  502  0.00000000000E+00 -0.00000000000E+00 -0.36374928513E+01  0.36374928513E+01  0.00000000000E+00 0. -1.
         24    2    1    2    0    0 -0.21217738192E+02  0.14902355529E+02  0.79470387193E+03  0.79920092942E+03  0.80595340525E+02 0.  0.
        -11    1    3    3    0    0 -0.55464366443E+01  0.35438527147E+01  0.29538354145E+01  0.72143603437E+01  0.00000000000E+00 0.  1.
         12    1    3    3    0    0 -0.15671301548E+02  0.11358502814E+02  0.79175003651E+03  0.79198656908E+03  0.00000000000E+00 0. -1.
          1    1    1    2  501    0  0.21217738192E+02 -0.14902355529E+02  0.11961355349E+03  0.12239148170E+03  0.00000000000E+00 0. -1.
<mgrwt>
<rscale>  1 0.84663342E+02</rscale>
<asrwt>0</asrwt>
<pdfrwt beam="1">  1       21 0.55961502E-03 0.84663342E+02</pdfrwt>
<pdfrwt beam="2">  1        2 0.14122365E+00 0.84663342E+02</pdfrwt>
<totfact> 0.32538840E+06</totfact>
</mgrwt>
</event>
<event>
 6    2  0.9453093E+000  0.9803532E+02  0.7546771E-02  0.1284482E+00
         21   -1    0    0  501  502  0.00000000000E+00  0.00000000000E+00  0.13131109989E+02  0.13131109989E+02  0.00000000000E+00 0. -1.
          2   -1    0    0  502    0 -0.00000000000E+00 -0.00000000000E+00 -0.66006437421E+03  0.66006437421E+03  0.00000000000E+00 0. -1.
         24    2    1    2    0    0  0.33852600019E+02 -0.45008266485E+02 -0.20007688763E+03  0.22280413894E+03  0.80244506275E+02 0.  0.
        -11    1    3    3    0    0  0.32250329834E+02  0.19327178262E+01 -0.23141833855E+02  0.39741208421E+02  0.00000000000E+00 0.  1.
         12    1    3    3    0    0  0.16022701854E+01 -0.46940984312E+02 -0.17693505377E+03  0.18306293052E+03  0.00000000000E+00 0. -1.
          1    1    1    2  501    0 -0.33852600019E+02  0.45008266485E+02 -0.44685637659E+03  0.45039134525E+03  0.00000000000E+00 0. -1.
<mgrwt>
<rscale>  1 0.98035317E+02</rscale>
<asrwt>0</asrwt>
<pdfrwt beam="1">  1       21 0.20201704E-02 0.98035317E+02</pdfrwt>
<pdfrwt beam="2">  1        2 0.10154838E+00 0.98035317E+02</pdfrwt>
<totfact> 0.65838694E+05</totfact>
</mgrwt>
</event>
<event>
 6    2  0.9453093E+000  0.8612173E+02  0.7546771E-02  0.1312525E+00
         21   -1    0    0  501  502  0.00000000000E+00  0.00000000000E+00  0.30797083877E+02  0.30797083877E+02  0.00000000000E+00 0. -1.
          2   -1    0    0  502    0 -0.00000000000E+00 -0.00000000000E+00 -0.31997809711E+03  0.31997809711E+03  0.00000000000E+00 0. -1.
         24    2    1    2    0    0 -0.11046132299E+02  0.47007602229E+02 -0.36526371009E+02  0.93547460973E+02  0.71310728291E+02 0.  0.
        -13    1    3    3    0    0  0.14651572153E+02 -0.13371215278E+02 -0.37117055899E+01  0.20180057556E+02  0.00000000000E+00 0.  1.
         14    1    3    3    0    0 -0.25697704453E+02  0.60378817506E+02 -0.32814665419E+02  0.73367403417E+02  0.00000000000E+00 0. -1.
          1    1    1    2  501    0  0.11046132299E+02 -0.47007602229E+02 -0.25265464222E+03  0.25722772001E+03  0.00000000000E+00 0. -1.
<mgrwt>
<rscale>  1 0.86121726E+02</rscale>
<asrwt>0</asrwt>
<pdfrwt beam="1">  1       21 0.47380130E-02 0.86121726E+02</pdfrwt>
<pdfrwt beam="2">  1        2 0.49227399E-01 0.86121726E+02</pdfrwt>
<totfact> 0.35473203E+05</totfact>
</mgrwt>
</event>
<event>
 6    2  0.9453093E+000  0.9924815E+02  0.7546771E-02  0.1281885E+00
         21   -1    0    0  501  502  0.00000000000E+00  0.00000000000E+00  0.40670954530E+02  0.40670954530E+02  0.00000000000E+00 0. -1.
          2   -1    0    0  502    0 -0.00000000000E+00 -0.00000000000E+00 -0.41609565591E+03  0.41609565591E+03  0.00000000000E+00 0. -1.
         24    2    1    2    0    0  0.59365527343E+02  0.32020885954E+00 -0.38414889485E+03  0.39676261122E+03  0.79535073257E+02 0.  0.
        -13    1    3    3    0    0  0.24797244267E+02 -0.28264685645E+02 -0.70294011200E+02  0.79718528514E+02  0.00000000000E+00 0.  1.
         14    1    3    3    0    0  0.34568283076E+02  0.28584894504E+02 -0.31385488365E+03  0.31704408271E+03  0.00000000000E+00 0. -1.
          1    1    1    2  501    0 -0.59365527343E+02 -0.32020885954E+00  0.87241934710E+01  0.60003999218E+02  0.00000000000E+00 0. -1.
<mgrwt>
<rscale>  1 0.99248155E+02</rscale>
<asrwt>0</asrwt>
<pdfrwt beam="1">  1       21 0.62570703E-02 0.99248155E+02</pdfrwt>
<pdfrwt beam="2">  1        2 0.64014713E-01 0.99248155E+02</pdfrwt>
<totfact> 0.17060814E+05</totfact>
</mgrwt>
</event>
<event>
 6    2  0.9453093E+000  0.1035262E+03  0.7546771E-02  0.1273051E+00
         21   -1    0    0  501  502  0.00000000000E+00  0.00000000000E+00  0.10424212648E+03  0.10424212648E+03  0.00000000000E+00 0.  1.
         -1   -1    0    0    0  501 -0.00000000000E+00 -0.00000000000E+00 -0.71076475868E+02  0.71076475868E+02  0.00000000000E+00 0.  1.
         24    2    1    2    0    0  0.42219019347E+02  0.52101405048E+02  0.85303194889E+01  0.10387700702E+03  0.78871187610E+02 0.  0.
        -11    1    3    3    0    0  0.57246613505E+02  0.46414615928E+02 -0.15169843048E+02  0.75243707163E+02  0.00000000000E+00 0.  1.
         12    1    3    3    0    0 -0.15027594157E+02  0.56867891201E+01  0.23700162537E+02  0.28633299861E+02  0.00000000000E+00 0. -1.
         -2    1    1    2    0  502 -0.42219019347E+02 -0.52101405048E+02  0.24635331120E+02  0.71441595321E+02  0.00000000000E+00 0.  1.
<mgrwt>
<rscale>  1 0.10352616E+03</rscale>
<asrwt>0</asrwt>
<pdfrwt beam="1">  1       21 0.16037250E-01 0.10352616E+03</pdfrwt>
<pdfrwt beam="2">  1       -1 0.10934842E-01 0.10352616E+03</pdfrwt>
<totfact> 0.15878206E+05</totfact>
</mgrwt>
</event>
<event>
 6    2  0.9453093E+000  0.8265631E+02  0.7546771E-02  0.1321678E+00
         21   -1    0    0  501  502  0.00000000000E+00  0.00000000000E+00  0.17457553706E+03  0.17457553706E+03  0.00000000000E+00 0. -1.
          2   -1    0    0  502    0 -0.00000000000E+00 -0.00000000000E+00 -0.47240756174E+02  0.47240756174E+02  0.00000000000E+00 0. -1.
         24    2    1    2    0    0 -0.11099433479E+02  0.17201181691E+02 -0.97337577736E+01  0.83227468412E+02  0.80081130005E+02 0.  0.
        -11    1    3    3    0    0  0.52222352300E+01 -0.19153725638E+02  0.23907404243E+02  0.31075728861E+02  0.00000000000E+00 0.  1.
         12    1    3    3    0    0 -0.16321668709E+02  0.36354907329E+02 -0.33641162017E+02  0.52151739551E+02  0.00000000000E+00 0. -1.
          1    1    1    2  501    0  0.11099433479E+02 -0.17201181691E+02  0.13706853866E+03  0.13858882482E+03  0.00000000000E+00 0. -1.
<mgrwt>
<rscale>  1 0.82656309E+02</rscale>
<asrwt>0</asrwt>
<pdfrwt beam="1">  1       21 0.26857775E-01 0.82656309E+02</pdfrwt>
<pdfrwt beam="2">  1        2 0.72678087E-02 0.82656309E+02</pdfrwt>
<totfact> 0.14662464E+05</totfact>
</mgrwt>
</event>
<event>
 6    2  0.9453093E+000  0.9336816E+02  0.7546771E-02  0.1294894E+00
         21   -1    0    0  501  502  0.00000000000E+00  0.00000000000E+00  0.20150206441E+02  0.20150206441E+02  0.00000000000E+00 0. -1.
          2   -1    0    0  502    0 -0.00000000000E+00 -0.00000000000E+00 -0.79833233386E+03  0.79833233386E+03  0.00000000000E+00 0. -1.
         24    2    1    2    0    0  0.15410602726E+02 -0.38186572599E+02 -0.77105981473E+03  0.77669225027E+03  0.83796853939E+02 0.  0.
        -13    1    3    3    0    0  0.47679460868E+02 -0.64623193663E+01 -0.39542665575E+03  0.39834323471E+03  0.00000000000E+00 0.  1.
         14    1    3    3    0    0 -0.32268858142E+02 -0.31724253233E+02 -0.37563315898E+03  0.37834901556E+03  0.00000000000E+00 0. -1.
          1    1    1    2  501    0 -0.15410602726E+02  0.38186572599E+02 -0.71223126909E+01  0.41790290037E+02  0.00000000000E+00 0. -1.
<mgrwt>
<rscale>  1 0.93368162E+02</rscale>
<asrwt>0</asrwt>
<pdfrwt beam="1">  1       21 0.31000322E-02 0.93368162E+02</pdfrwt>
<pdfrwt beam="2">  1        2 0.12282034E+00 0.93368162E+02</pdfrwt>
<totfact> 0.26230365E+05</totfact>
</mgrwt>
</event>
<event>
 6    2  0.9453093E+000  0.8332243E+02  0.7546771E-02  0.1319879E+00
         21   -1    0    0  501  502  0.00000000000E+00  0.00000000000E+00  0.21038165886E+01  0.21038165886E+01  0.00000000000E+00 0. -1.
          2   -1    0    0  502    0 -0.00000000000E+00 -0.00000000000E+00 -0.13308740384E+04  0.13308740384E+04  0.00000000000E+00 0. -1.
         24    2    1    2    0    0  0.14133510347E+02 -0.17221040184E+02 -0.10824921251E+04  0.10856941692E+04  0.80288901983E+02 0.  0.
        -11    1    3    3    0    0 -0.25679849398E+02 -0.20928111989E+00 -0.14887603891E+03  0.15107472795E+03  0.00000000000E+00 0.  1.
         12    1    3    3    0    0  0.39813359745E+02 -0.17011759064E+02 -0.93361608624E+03  0.93461944129E+03  0.00000000000E+00 0. -1.
          1    1    1    2  501    0 -0.14133510347E+02  0.17221040184E+02 -0.24627809670E+03  0.24728368579E+03  0.00000000000E+00 0. -1.
<mgrwt>
<rscale>  1 0.83322435E+02</rscale>
<asrwt>0</asrwt>
<pdfrwt beam="1">  1       21 0.32366401E-03 0.83322435E+02</pdfrwt>
<pdfrwt beam="2">  1        2 0.20474990E+00 0.83322435E+02</pdfrwt>
<totfact> 0.43988332E+06</totfact>
</mgrwt>
</event>
<event>
 6    2  0.9453093E+000  0.8443281E+02  0.7546771E-02  0.1316922E+00
         21   -1    0    0  501  502  0.00000000000E+00  0.00000000000E+00  0.76625012058E+03  0.76625012058E+03  0.00000000000E+00 0.  1.
          2   -1    0    0  502    0 -0.00000000000E+00 -0.00000000000E+00 -0.38921890599E+01  0.38921890599E+01  0.00000000000E+00 0. -1.
         24    2    1    2    0    0  0.13755688183E+02 -0.20557091536E+02  0.57919634281E+03  0.58531812143E+03  0.80728475623E+02 0.  0.
        -13    1    3    3    0    0 -0.36248121404E+01  0.27516905236E+02  0.31509109758E+03  0.31631111127E+03  0.00000000000E+00 0.  1.
         14    1    3    3    0    0  0.17380500324E+02 -0.48073996772E+02  0.26410524523E+03  0.26900701016E+03  0.00000000000E+00 0. -1.
          1    1    1    2  501    0 -0.13755688183E+02  0.20557091536E+02  0.18316158870E+03  0.18482418821E+03  0.00000000000E+00 0. -1.
<mgrwt>
<rscale>  1 0.84432812E+02</rscale>
<asrwt>0</asrwt>
<pdfrwt beam="1">  1       21 0.11788451E+00 0.84432812E+02</pdfrwt>
<pdfrwt beam="2">  1        2 0.59879893E-03 0.84432812E+02</pdfrwt>
<totfact> 0.18432889E+05</totfact>
</mgrwt>
</event>
<event>
 6    2  0.9453093E+000  0.8378567E+02  0.7546771E-02  0.1318639E+00
         21   -1    0    0  501  502  0.00000000000E+00  0.00000000000E+00  0.86819081265E+02  0.86819081265E+02  0.00000000000E+00 0. -1.
          2   -1    0    0  502    0 -0.00000000000E+00 -0.00000000000E+00 -0.89062598097E+02  0.89062598097E+02  0.00000000000E+00 0. -1.
         24    2    1    2    0    0 -0.16302424661E+02  0.12440702295E+02 -0.67427693307E+02  0.10754781524E+03  0.81237298171E+02 0.  0.
        -11    1    3    3    0    0 -0.53313102622E+01  0.32258262584E+02  0.36960359182E+01  0.32904088737E+02  0.00000000000E+00 0.  1.
         12    1    3    3    0    0 -0.10971114399E+02 -0.19817560289E+02 -0.71123729226E+02  0.74643726501E+02  0.00000000000E+00 0. -1.
          1    1    1    2  501    0  0.16302424661E+02 -0.12440702295E+02  0.65184176475E+02  0.68333864124E+02  0.00000000000E+00 0. -1.
<mgrwt>
<rscale>  1 0.83785671E+02</rscale>
<asrwt>0</asrwt>
<pdfrwt beam="1">  1       21 0.13356782E-01 0.83785671E+02</pdfrwt>
<pdfrwt beam="2">  1        2 0.13701938E-01 0.83785671E+02</pdfrwt>
<totfact> 0.24309112E+05</totfact>
</mgrwt>
</event>
<event>
 6    2  0.9453093E+000  0.8309486E+02  0.7546771E-02  0.1320491E+00
          2   -1    0    0  502    0 -0.00000000000E+00  0.00000000000E+00  0.23662885758E+04  0.23662885758E+04  0.00000000000E+00 0. -1.
         21   -1    0    0  501  502  0.00000000000E+00 -0.00000000000E+00 -0.14465794530E+01  0.14465794530E+01  0.00000000000E+00 0. -1.
         24    2    1    2    0    0  0.16082961141E+02 -0.12192166623E+02  0.22127881130E+04  0.22143477567E+04  0.80606726797E+02 0.  0.
        -13    1    3    3    0    0 -0.27006032987E+02 -0.21436134836E+01  0.35474971084E+03  0.35578262779E+03  0.00000000000E+00 0.  1.
         14    1    3    3    0    0  0.43088994128E+02 -0.10048553140E+02  0.18580384021E+04  0.18585651290E+04  0.00000000000E+00 0. -1.
          1    1    1    2  501    0 -0.16082961141E+02  0.12192166623E+02  0.15205388335E+03  0.15338739847E+03  0.00000000000E+00 0. -1.
<mgrwt>
<rscale>  1 0.83094855E+02</rscale>
<asrwt>0</asrwt>
<pdfrwt beam="1">  1       21 0.22255258E-03 0.83094855E+02</pdfrwt>
<pdfrwt beam="2">  1        2 0.36404130E+00 0.83094855E+02</pdfrwt>
<totfact> 0.23167689E+06</totfact>
</mgrwt>
</event>
<event>
 6    2  0.9453093E+000  0.7547937E+02  0.7546771E-02  0.1342393E+00
          2   -1    0    0  502    0 -0.00000000000E+00  0.00000000000E+00  0.77855111659E+03  0.77855111659E+03  0.00000000000E+00 0. -1.
         21   -1    0    0  501  502  0.00000000000E+00 -0.00000000000E+00 -0.41788062874E+01  0.41788062874E+01  0.00000000000E+00 0.  1.
         24    2    1    2    0    0  0.22783548553E+02 -0.12214522766E+02  0.69867195769E+03  0.70273724798E+03  0.70914389154E+02 0.  0.
        -13    1    3    3    0    0  0.15463897731E+02 -0.20296904470E+02  0.80034048326E+02  0.84003246101E+02  0.00000000000E+00 0.  1.
         14    1    3    3    0    0  0.73196508225E+01  0.80823817041E+01  0.61863790936E+03  0.61873400188E+03  0.00000000000E+00 0. -1.
          1    1    1    2  501    0 -0.22783548553E+02  0.12214522766E+02  0.75700352609E+02  0.79992674891E+02  0.00000000000E+00 0. -1.
<mgrwt>
<rscale>  1 0.75479370E+02</rscale>
<asrwt>0</asrwt>
<pdfrwt beam="1">  1       21 0.64289390E-03 0.75479370E+02</pdfrwt>
<pdfrwt beam="2">  1        2 0.11977698E+00 0.75479370E+02</pdfrwt>
<totfact> 0.31836791E+06</totfact>
</mgrwt>
</event>
<event>
 6    2  0.9453093E+000  0.9257358E+02  0.7546771E-02  0.1296736E+00
          2   -1    0    0  502    0 -0.00000000000E+00  0.00000000000E+00  0.70298065609E+03  0.70298065609E+03  0.00000000000E+00 0. -1.
         21   -1    0    0  501  502  0.00000000000E+00 -0.00000000000E+00 -0.96687591754E+01  0.96687591754E+01  0.00000000000E+00 0.  1.
         24    2    1    2    0    0  0.32242492499E+02 -0.35181633103E+02  0.24673394304E+03  0.26352894756E+03  0.79325543936E+02 0.  0.
        -13    1    3    3    0    0  0.37366211524E+02 -0.57783247284E+02  0.19667989404E+03  0.20837014697E+03  0.00000000000E+00 0.  1.
         14    1    3    3    0    0 -0.51237190251E+01  0.22601614181E+02  0.50054049005E+02  0.55158800586E+02  0.00000000000E+00 0. -1.
          1    1    1    2  501    0 -0.32242492499E+02  0.35181633103E+02  0.44657795387E+03  0.44912046771E+03  0.00000000000E+00 0. -1.
<mgrwt>
<rscale>  1 0.92573579E+02</rscale>
<asrwt>0</asrwt>
<pdfrwt beam="1">  1       21 0.14875020E-02 0.92573579E+02</pdfrwt>
<pdfrwt beam="2">  1        2 0.10815083E+00 0.92573579E+02</pdfrwt>
<totfact> 0.99219851E+05</totfact>
</mgrwt>
</event>
<event>
 6    2  0.9453093E+000  0.8773197E+02  0.7546771E-02  0.1308439E+00
         21   -1    0    0  501  502  0.00000000000E+00  0.00000000000E+00  0.22179854300E+02  0.22179854300E+02  0.00000000000E+00 0.  1.
          2   -1    0    0  502    0 -0.00000000000E+00 -0.00000000000E+00 -0.17977031479E+03  0.17977031479E+03  0.00000000000E+00 0. -1.
         24    2    1    2    0    0  0.23951358192E+02 -0.29458487927E+02 -0.11866854864E+03  0.14757751703E+03  0.79091270225E+02 0.  0.
        -13    1    3    3    0    0  0.13658986925E+02 -0.41142295240E+02 -0.20094386118E+02  0.47781175528E+02  0.00000000000E+00 0.  1.
         14    1    3    3    0    0  0.10292371267E+02  0.11683807314E+02 -0.98574162527E+02  0.99796341504E+02  0.00000000000E+00 0. -1.
          1    1    1    2  501    0 -0.23951358192E+02  0.29458487927E+02 -0.38921911850E+02  0.54372652061E+02  0.00000000000E+00 0. -1.
<mgrwt>
<rscale>  1 0.87731973E+02</rscale>
<asrwt>0</asrwt>
<pdfrwt beam="1">  1       21 0.34122853E-02 0.87731973E+02</pdfrwt>
<pdfrwt beam="2">  1        2 0.27656972E-01 0.87731973E+02</pdfrwt>
<totfact> 0.11198335E+06</totfact>
</mgrwt>
</event>
<event>
 6    2  0.9453093E+000  0.8380024E+02  0.7546771E-02  0.1318600E+00
         21   -1    0    0  501  502  0.00000000000E+00  0.00000000000E+00  0.11629157764E+03  0.11629157764E+03  0.00000000000E+00 0.  1.
          2   -1    0    0  502    0 -0.00000000000E+00 -0.00000000000E+00 -0.28023728844E+02  0.28023728844E+02  0.00000000000E+00 0. -1.
         24    2    1    2    0    0  0.22239104597E+02 -0.16910635891E+02  0.52337975936E+02  0.98801537762E+02  0.79005903321E+02 0.  0.
        -11    1    3    3    0    0  0.28751431189E+02  0.11204986096E+02  0.61260856331E+02  0.68593651508E+02  0.00000000000E+00 0.  1.
         12    1    3    3    0    0 -0.65123265911E+01 -0.28115621987E+02 -0.89228803959E+01  0.30207886254E+02  0.00000000000E+00 0. -1.
          1    1    1    2  501    0 -0.22239104597E+02  0.16910635891E+02  0.35929872862E+02  0.45513768724E+02  0.00000000000E+00 0. -1.
<mgrwt>
<rscale>  1 0.83800239E+02</rscale>
<asrwt>0</asrwt>
<pdfrwt beam="1">  1       21 0.17891012E-01 0.83800239E+02</pdfrwt>
<pdfrwt beam="2">  1        2 0.43113430E-02 0.83800239E+02</pdfrwt>
<totfact> 0.60385593E+05</totfact>
</mgrwt>
</event>
<event>
 6    2  0.9453093E+000  0.7872902E+02  0.7546771E-02  0.1332697E+00
          2   -1    0    0  502    0 -0.00000000000E+00  0.00000000000E+00  0.90379273052E+03  0.90379273052E+03  0.00000000000E+00 0. -1.
         21   -1    0    0  501  502  0.00000000000E+00 -0.00000000000E+00 -0.28722272645E+01  0.28722272645E+01  0.00000000000E+00 0. -1.
         24    2    1    2    0    0 -0.19526175931E+02  0.76733594248E+01  0.77729628206E+03  0.78127317154E+03  0.75882188112E+02 0.  0.
        -11    1    3    3    0    0  0.23890381739E+02 -0.11592240750E+02  0.16355711330E+03  0.16569870155E+03  0.00000000000E+00 0.  1.
         12    1    3    3    0    0 -0.43416557670E+02  0.19265600175E+02  0.61373916876E+03  0.61557446999E+03  0.00000000000E+00 0. -1.
          1    1    1    2  501    0  0.19526175931E+02 -0.76733594248E+01  0.12362422120E+03  0.12539178625E+03  0.00000000000E+00 0. -1.
<mgrwt>
<rscale>  1 0.78729019E+02</rscale>
<asrwt>0</asrwt>
<pdfrwt beam="1">  1       21 0.44188184E-03 0.78729019E+02</pdfrwt>
<pdfrwt beam="2">  1        2 0.13904481E+00 0.78729019E+02</pdfrwt>
<totfact> 0.47221064E+06</totfact>
</mgrwt>
</event>
<event>
 6    2  0.9453093E+000  0.8784125E+02  0.7546771E-02  0.1308165E+00
         -3   -1    0    0    0  501 -0.00000000000E+00  0.00000000000E+00  0.39856862583E+03  0.39856862583E+03  0.00000000000E+00 0.  1.
         21   -1    0    0  501  502  0.00000000000E+00 -0.00000000000E+00 -0.19580435676E+02  0.19580435676E+02  0.00000000000E+00 0.  1.
         24    2    1    2    0    0 -0.23833445487E+02 -0.67759561707E+01  0.38309179976E+03  0.39303360178E+03  0.84274185725E+02 0.  0.
        -11    1    3    3    0    0 -0.34492859346E+02  0.31032608294E+02  0.24985722043E+03  0.25412872865E+03  0.00000000000E+00 0.  1.
         12    1    3    3    0    0  0.10659413860E+02 -0.37808564464E+02  0.13323457933E+03  0.13890487313E+03  0.00000000000E+00 0. -1.
         -4    1    1    2    0  502  0.23833445487E+02  0.67759561707E+01 -0.41036095996E+01  0.25115459732E+02  0.00000000000E+00 0.  1.
<mgrwt>
<rscale>  1 0.87841249E+02</rscale>
<asrwt>0</asrwt>
<pdfrwt beam="1">  1       21 0.30123750E-02 0.87841249E+02</pdfrwt>
<pdfrwt beam="2">  1       -3 0.61318244E-01 0.87841249E+02</pdfrwt>
<totfact> 0.74765818E+04</totfact>
</mgrwt>
</event>
<event>
 6    2  0.9453093E+000  0.9961030E+02  0.7546771E-02  0.1281118E+00
         21   -1    0    0  501  502  0.00000000000E+00  0.00000000000E+00  0.54203212835E+01  0.54203212835E+01  0.00000000000E+00 0.  1.
          2   -1    0    0  502    0 -0.00000000000E+00 -0.00000000000E+00 -0.11961439635E+04  0.11961439635E+04  0.00000000000E+00 0. -1.
         24    2    1    2    0    0 -0.40287387387E+02  0.41362663630E+02 -0.62314049489E+03  0.63105173220E+03  0.81168151498E+02 0.  0.
        -11    1    3    3    0    0 -0.48813785327E+02  0.22785089552E+02 -0.19164166728E+03  0.19906901964E+03  0.00000000000E+00 0.  1.
         12    1    3    3    0    0  0.85263979394E+01  0.18577574078E+02 -0.43149882761E+03  0.43198271256E+03  0.00000000000E+00 0. -1.
          1    1    1    2  501    0  0.40287387387E+02 -0.41362663630E+02 -0.56758314737E+03  0.57051255263E+03  0.00000000000E+00 0. -1.
<mgrwt>
<rscale>  1 0.99610302E+02</rscale>
<asrwt>0</asrwt>
<pdfrwt beam="1">  1       21 0.83389523E-03 0.99610302E+02</pdfrwt>
<pdfrwt beam="2">  1        2 0.18402223E+00 0.99610302E+02</pdfrwt>
<totfact> 0.12344006E+06</totfact>
</mgrwt>
</event>
<event>
 6    2  0.9453093E+000  0.7570078E+02  0.7546771E-02  0.1341715E+00
          2   -1    0    0  502    0 -0.00000000000E+00  0.00000000000E+00  0.62732630513E+03  0.62732630513E+03  0.00000000000E+00 0. -1.
         21   -1    0    0  501  502  0.00000000000E+00 -0.00000000000E+00 -0.58601189534E+01  0.58601189534E+01  0.00000000000E+00 0. -1.
         24    2    1    2    0    0 -0.81059884625E+01  0.43545067201E+02  0.43450425916E+03  0.44104938424E+03  0.61389968096E+02 0.  0.
        -13    1    3    3    0    0 -0.76878565247E+01 -0.13168357674E+02  0.46867152911E+02  0.49285279788E+02  0.00000000000E+00 0.  1.
         14    1    3    3    0    0 -0.41813193780E+00  0.56713424875E+02  0.38763710625E+03  0.39176410445E+03  0.00000000000E+00 0. -1.
          1    1    1    2  501    0  0.81059884625E+01 -0.43545067201E+02  0.18696192702E+03  0.19213703985E+03  0.00000000000E+00 0. -1.
<mgrwt>
<rscale>  1 0.75700780E+02</rscale>
<asrwt>0</asrwt>
<pdfrwt beam="1">  1       21 0.90155726E-03 0.75700780E+02</pdfrwt>
<pdfrwt beam="2">  1        2 0.96511686E-01 0.75700780E+02</pdfrwt>
<totfact> 0.24264222E+06</totfact>
</mgrwt>
</event>
<event>
 6    2  0.9453093E+000  0.8462616E+02  0.7546771E-02  0.1316413E+00
         21   -1    0    0  501  502  0.00000000000E+00  0.00000000000E+00  0.23553237121E+01  0.23553237121E+01  0.00000000000E+00 0.  1.
          4   -1    0    0  502    0 -0.00000000000E+00 -0.00000000000E+00 -0.13870766496E+04  0.13870766496E+04  0.00000000000E+00 0. -1.
         24    2    1    2    0    0 -0.27764907953E+02 -0.25917355673E+01 -0.11373070530E+04  0.11404511917E+04  0.79899815592E+02 0.  0.
        -13    1    3    3    0    0 -0.29427314135E+02  0.35579894408E+02 -0.57877203729E+03  0.58061085665E+03  0.00000000000E+00 0.  1.
         14    1    3    3    0    0  0.16624061816E+01 -0.38171629975E+02 -0.55853501573E+03  0.55984033503E+03  0.00000000000E+00 0. -1.
          3    1    1    2  501    0  0.27764907953E+02  0.25917355673E+01 -0.24741427281E+03  0.24898078158E+03  0.00000000000E+00 0. -1.
<mgrwt>
<rscale>  1 0.84626165E+02</rscale>
<asrwt>0</asrwt>
<pdfrwt beam="1">  1       21 0.36235628E-03 0.84626165E+02</pdfrwt>
<pdfrwt beam="2">  1        4 0.21339713E+00 0.84626165E+02</pdfrwt>
<totfact> 0.83673347E+04</totfact>
</mgrwt>
</event>
<event>
 6    2  0.9453093E+000  0.9326574E+02  0.7546771E-02  0.1295131E+00
         21   -1    0    0  501  502  0.00000000000E+00  0.00000000000E+00  0.21770340923E+02  0.21770340923E+02  0.00000000000E+00 0. -1.
          4   -1    0    0  502    0 -0.00000000000E+00 -0.00000000000E+00 -0.58388406490E+03  0.58388406490E+03  0.00000000000E+00 0. -1.
         24    2    1    2    0    0  0.43698717302E+02 -0.14512236547E+02 -0.55025949856E+03  0.55810752828E+03  0.81106809040E+02 0.  0.
        -11    1    3    3    0    0  0.17142313252E+02 -0.11160030496E+02 -0.25612363392E+02  0.32778016152E+02  0.00000000000E+00 0.  1.
         12    1    3    3    0    0  0.26556404050E+02 -0.33522060511E+01 -0.52464713516E+03  0.52532951213E+03  0.00000000000E+00 0. -1.
          3    1    1    2  501    0 -0.43698717302E+02  0.14512236547E+02 -0.11854225423E+02  0.47546877540E+02  0.00000000000E+00 0. -1.
<mgrwt>
<rscale>  1 0.93265735E+02</rscale>
<asrwt>0</asrwt>
<pdfrwt beam="1">  1       21 0.33492835E-02 0.93265735E+02</pdfrwt>
<pdfrwt beam="2">  1        4 0.89828310E-01 0.93265735E+02</pdfrwt>
<totfact> 0.22382676E+04</totfact>
</mgrwt>
</event>
<event>
 6    2  0.1207023E+001  0.9016537E+02  0.7546771E-02  0.1302452E+00
         -3   -1    0    0    0  501 -0.00000000000E+00  0.00000000000E+00  0.61236047842E+03  0.61236047842E+03  0.00000000000E+00 0.  1.
         21   -1    0    0  501  502  0.00000000000E+00 -0.00000000000E+00 -0.12751012545E+02  0.12751012545E+02  0.00000000000E+00 0.  1.
         24    2    1    2    0    0  0.36222805583E+02  0.19264621631E+02  0.56284742040E+03  0.57002369488E+03  0.80290577107E+02 0.  0.
        -13    1    3    3    0    0  0.25238706383E+02  0.33598114908E+02  0.53613949361E+03  0.53778376903E+03  0.00000000000E+00 0.  1.
         14    1    3    3    0    0  0.10984099200E+02 -0.14333493276E+02  0.26707926794E+02  0.32239925843E+02  0.00000000000E+00 0. -1.
         -4    1    1    2    0  502 -0.36222805583E+02 -0.19264621631E+02  0.36762045472E+02  0.55087796091E+02  0.00000000000E+00 0.  1.
<mgrwt>
<rscale>  1 0.90165371E+02</rscale>
<asrwt>0</asrwt>
<pdfrwt beam="1">  1       21 0.19616947E-02 0.90165371E+02</pdfrwt>
<pdfrwt beam="2">  1       -3 0.94209282E-01 0.90165371E+02</pdfrwt>
<totfact> 0.59990008E+04</totfact>
</mgrwt>
</event>
<event>
 6    2  0.9453093E+000  0.8873193E+02  0.7546771E-02  0.1305952E+00
         -1   -1    0    0    0  501 -0.00000000000E+00  0.00000000000E+00  0.19207298112E+02  0.19207298112E+02  0.00000000000E+00 0.  1.
         21   -1    0    0  501  502  0.00000000000E+00 -0.00000000000E+00 -0.21924815452E+03  0.21924815452E+03  0.00000000000E+00 0.  1.
         24    2    1    2    0    0  0.56088090569E+01  0.36991684540E+02 -0.11270295727E+03  0.14344096905E+03  0.80458135458E+02 0.  0.
        -11    1    3    3    0    0  0.29304764281E+02  0.52071699527E+02 -0.66776405093E+02  0.89606469511E+02  0.00000000000E+00 0.  1.
         12    1    3    3    0    0 -0.23695955224E+02 -0.15080014987E+02 -0.45926552180E+02  0.53834499544E+02  0.00000000000E+00 0. -1.
         -2    1    1    2    0  502 -0.56088090569E+01 -0.36991684540E+02 -0.87337899134E+02  0.95014483576E+02  0.00000000000E+00 0.  1.
<mgrwt>
<rscale>  1 0.88731928E+02</rscale>
<asrwt>0</asrwt>
<pdfrwt beam="1">  1       21 0.33730485E-01 0.88731928E+02</pdfrwt>
<pdfrwt beam="2">  1       -1 0.29549689E-02 0.88731928E+02</pdfrwt>
<totfact> 0.27043930E+05</totfact>
</mgrwt>
</event>
<event>
 6    2  0.9453093E+000  0.8549288E+02  0.7546771E-02  0.1314149E+00
         21   -1    0    0  501  502  0.00000000000E+00  0.00000000000E+00  0.27263899594E+02  0.27263899594E+02  0.00000000000E+00 0. -1.
         -1   -1    0    0    0  501 -0.00000000000E+00 -0.00000000000E+00 -0.11878522713E+03  0.11878522713E+03  0.00000000000E+00 0.  1.
         24    2    1    2    0    0  0.15084942061E+02 -0.22688787891E+02 -0.77570775015E+02  0.11543941440E+03  0.81035157110E+02 0.  0.
        -11    1    3    3    0    0 -0.27104173244E+02 -0.31942223558E+02 -0.43836115082E+02  0.60634535032E+02  0.00000000000E+00 0.  1.
         12    1    3    3    0    0  0.42189115305E+02  0.92534356668E+01 -0.33734659933E+02  0.54804879369E+02  0.00000000000E+00 0. -1.
         -2    1    1    2    0  502 -0.15084942061E+02  0.22688787891E+02 -0.13950552524E+02  0.30609712325E+02  0.00000000000E+00 0.  1.
<mgrwt>
<rscale>  1 0.85492884E+02</rscale>
<asrwt>0</asrwt>
<pdfrwt beam="1">  1       21 0.41944462E-02 0.85492884E+02</pdfrwt>
<pdfrwt beam="2">  1       -1 0.18274650E-01 0.85492884E+02</pdfrwt>
<totfact> 0.70460299E+05</totfact>
</mgrwt>
</event>
<event>
 6    2  0.9453093E+000  0.1058145E+03  0.7546771E-02  0.1268523E+00
         -1   -1    0    0    0  501 -0.00000000000E+00  0.00000000000E+00  0.25806533613E+02  0.25806533613E+02  0.00000000000E+00 0.  1.
         21   -1    0    0  501  502  0.00000000000E+00 -0.00000000000E+00 -0.34337952037E+03  0.34337952037E+03  0.00000000000E+00 0. -1.
         24    2    1    2    0    0 -0.22612523438E+02 -0.64625187220E+02 -0.25638172103E+03  0.27735952165E+03  0.80678227125E+02 0.  0.
        -13    1    3    3    0    0  0.20385321864E+02 -0.28876013091E+02 -0.37854359821E+02  0.51791293062E+02  0.00000000000E+00 0.  1.
         14    1    3    3    0    0 -0.42997845301E+02 -0.35749174128E+02 -0.21852736121E+03  0.22556822859E+03  0.00000000000E+00 0. -1.
         -2    1    1    2    0  502  0.22612523438E+02  0.64625187220E+02 -0.61191265730E+02  0.91826532337E+02  0.00000000000E+00 0.  1.
<mgrwt>
<rscale>  1 0.10581454E+03</rscale>
<asrwt>0</asrwt>
<pdfrwt beam="1">  1       21 0.52827617E-01 0.10581454E+03</pdfrwt>
<pdfrwt beam="2">  1       -1 0.39702360E-02 0.10581454E+03</pdfrwt>
<totfact> 0.72795278E+04</totfact>
</mgrwt>
</event>
<event>
 6    2  0.9453093E+000  0.8417363E+02  0.7546771E-02  0.1317608E+00
          2   -1    0    0  502    0 -0.00000000000E+00  0.00000000000E+00  0.40125830323E+03  0.40125830323E+03  0.00000000000E+00 0. -1.
         21   -1    0    0  501  502  0.00000000000E+00 -0.00000000000E+00 -0.77162796477E+01  0.77162796477E+01  0.00000000000E+00 0.  1.
         24    2    1    2    0    0 -0.64550966761E+01  0.20086830360E+02  0.24763021574E+03  0.26154526186E+03  0.81486509488E+02 0.  0.
        -13    1    3    3    0    0 -0.34740662604E+02  0.19005669934E+01  0.49043084491E+02  0.60131106172E+02  0.00000000000E+00 0.  1.
         14    1    3    3    0    0  0.28285565928E+02  0.18186263367E+02  0.19858713124E+03  0.20141415569E+03  0.00000000000E+00 0. -1.
          1    1    1    2  501    0  0.64550966761E+01 -0.20086830360E+02  0.14591180785E+03  0.14742932102E+03  0.00000000000E+00 0. -1.
<mgrwt>
<rscale>  1 0.84173632E+02</rscale>
<asrwt>0</asrwt>
<pdfrwt beam="1">  1       21 0.11871203E-02 0.84173632E+02</pdfrwt>
<pdfrwt beam="2">  1        2 0.61732030E-01 0.84173632E+02</pdfrwt>
<totfact> 0.25916599E+06</totfact>
</mgrwt>
</event>
<event>
 6    2  0.9453093E+000  0.9583429E+02  0.7546771E-02  0.1289308E+00
         -3   -1    0    0    0  501 -0.00000000000E+00  0.00000000000E+00  0.48230471253E+02  0.48230471253E+02  0.00000000000E+00 0.  1.
         21   -1    0    0  501  502  0.00000000000E+00 -0.00000000000E+00 -0.11783972225E+03  0.11783972225E+03  0.00000000000E+00 0. -1.
         24    2    1    2    0    0  0.23284843607E+02  0.48597574157E+02 -0.53839401462E+02  0.10992220770E+03  0.79248359222E+02 0.  0.
        -13    1    3    3    0    0 -0.13621391847E+02 -0.88930636570E+01  0.76789956665E+01  0.17988770706E+02  0.00000000000E+00 0.  1.
         14    1    3    3    0    0  0.36906235454E+02  0.57490637813E+02 -0.61518397128E+02  0.91933436990E+02  0.00000000000E+00 0. -1.
         -4    1    1    2    0  502 -0.23284843607E+02 -0.48597574157E+02 -0.15769849534E+02  0.56147985806E+02  0.00000000000E+00 0.  1.
<mgrwt>
<rscale>  1 0.95834287E+02</rscale>
<asrwt>0</asrwt>
<pdfrwt beam="1">  1       21 0.18129188E-01 0.95834287E+02</pdfrwt>
<pdfrwt beam="2">  1       -3 0.74200725E-02 0.95834287E+02</pdfrwt>
<totfact> 0.15163316E+05</totfact>
</mgrwt>
</event>
<event>
 6    2  0.9453093E+000  0.8410071E+02  0.7546771E-02  0.1317801E+00
         21   -1    0    0  501  502  0.00000000000E+00  0.00000000000E+00  0.10121215131E+01  0.10121215131E+01  0.00000000000E+00 0.  1.
          2   -1    0    0  502    0 -0.00000000000E+00 -0.00000000000E+00 -0.29053391524E+04  0.29053391524E+04  0.00000000000E+00 0. -1.
         24    2    1    2    0    0 -0.81207260727E+01 -0.22246498275E+02 -0.21221345966E+04  0.21238004084E+04  0.80697433093E+02 0.  0.
        -11    1    3    3    0    0 -0.12261733979E+02 -0.17926375553E+02 -0.14152833632E+03  0.14318510761E+03  0.00000000000E+00 0.  1.
         12    1    3    3    0    0  0.41410079059E+01 -0.43201227226E+01 -0.19806062603E+04  0.19806153008E+04  0.00000000000E+00 0. -1.
          1    1    1    2  501    0  0.81207260727E+01  0.22246498275E+02 -0.78219243431E+03  0.78255086554E+03  0.00000000000E+00 0. -1.
<mgrwt>
<rscale>  1 0.84100705E+02</rscale>
<asrwt>0</asrwt>
<pdfrwt beam="1">  1       21 0.15571659E-03 0.84100705E+02</pdfrwt>
<pdfrwt beam="2">  1        2 0.44695922E+00 0.84100705E+02</pdfrwt>
<totfact> 0.20369711E+06</totfact>
</mgrwt>
</event>
<event>
 6    2  0.9453093E+000  0.9551879E+02  0.7546771E-02  0.1290012E+00
         21   -1    0    0  501  502  0.00000000000E+00  0.00000000000E+00  0.10512250236E+02  0.10512250236E+02  0.00000000000E+00 0.  1.
          2   -1    0    0  502    0 -0.00000000000E+00 -0.00000000000E+00 -0.53587493692E+03  0.53587493692E+03  0.00000000000E+00 0. -1.
         24    2    1    2    0    0 -0.47462230165E+02 -0.26374294596E+02 -0.31826188626E+03  0.33228672419E+03  0.78584808432E+02 0.  0.
        -13    1    3    3    0    0  0.18994506290E+02  0.43567546692E+01 -0.39163456938E+02  0.43744130347E+02  0.00000000000E+00 0.  1.
         14    1    3    3    0    0 -0.66456736455E+02 -0.30731049265E+02 -0.27909842933E+03  0.28854259384E+03  0.00000000000E+00 0. -1.
          1    1    1    2  501    0  0.47462230165E+02  0.26374294596E+02 -0.20710080042E+03  0.21410046296E+03  0.00000000000E+00 0. -1.
<mgrwt>
<rscale>  1 0.95518788E+02</rscale>
<asrwt>0</asrwt>
<pdfrwt beam="1">  1       21 0.16172691E-02 0.95518788E+02</pdfrwt>
<pdfrwt beam="2">  1        2 0.82442305E-01 0.95518788E+02</pdfrwt>
<totfact> 0.11835960E+06</totfact>
</mgrwt>
</event>
<event>
 6    2  0.9453093E+000  0.8682475E+02  0.7546771E-02  0.1310728E+00
          2   -1    0    0  502    0 -0.00000000000E+00  0.00000000000E+00  0.15544218643E+04  0.15544218643E+04  0.00000000000E+00 0. -1.
         21   -1    0    0  501  502  0.00000000000E+00 -0.00000000000E+00 -0.31595708751E+01  0.31595708751E+01  0.00000000000E+00 0. -1.
         24    2    1    2    0    0  0.39986855307E+01  0.24904317922E+02  0.14684121535E+04  0.14709768151E+04  0.83080222728E+02 0.  0.
        -13    1    3    3    0    0 -0.18910936367E+02  0.37450661520E+02  0.39032417956E+03  0.39257246556E+03  0.00000000000E+00 0.  1.
         14    1    3    3    0    0  0.22909621898E+02 -0.12546343598E+02  0.10780879739E+04  0.10784043495E+04  0.00000000000E+00 0. -1.
          1    1    1    2  501    0 -0.39986855307E+01 -0.24904317922E+02  0.82850139960E+02  0.86604620134E+02  0.00000000000E+00 0. -1.
<mgrwt>
<rscale>  1 0.86824754E+02</rscale>
<asrwt>0</asrwt>
<pdfrwt beam="1">  1       21 0.48608907E-03 0.86824754E+02</pdfrwt>
<pdfrwt beam="2">  1        2 0.23914121E+00 0.86824754E+02</pdfrwt>
<totfact> 0.18257492E+06</totfact>
</mgrwt>
</event>
<event>
 6    2  0.9453093E+000  0.8670956E+02  0.7546771E-02  0.1311021E+00
         21   -1    0    0  501  502  0.00000000000E+00  0.00000000000E+00  0.21630916985E+01  0.21630916985E+01  0.00000000000E+00 0.  1.
          2   -1    0    0  502    0 -0.00000000000E+00 -0.00000000000E+00 -0.17141378443E+04  0.17141378443E+04  0.00000000000E+00 0. -1.
         24    2    1    2    0    0 -0.11611130613E+02 -0.26461369903E+02 -0.10042219695E+04  0.10079584874E+04  0.81752834272E+02 0.  0.
        -11    1    3    3    0    0 -0.26907289178E+02 -0.16869305382E+02 -0.14036460653E+03  0.14391246798E+03  0.00000000000E+00 0.  1.
         12    1    3    3    0    0  0.15296158565E+02 -0.95920645211E+01 -0.86385736297E+03  0.86404601945E+03  0.00000000000E+00 0. -1.
          1    1    1    2  501    0  0.11611130613E+02  0.26461369903E+02 -0.70775278315E+03  0.70834244861E+03  0.00000000000E+00 0. -1.
<mgrwt>
<rscale>  1 0.86709563E+02</rscale>
<asrwt>0</asrwt>
<pdfrwt beam="1">  1       21 0.33278386E-03 0.86709563E+02</pdfrwt>
<pdfrwt beam="2">  1        2 0.26371310E+00 0.86709563E+02</pdfrwt>
<totfact> 0.27006459E+06</totfact>
</mgrwt>
</event>
<event>
 6    2  0.9453093E+000  0.8818552E+02  0.7546771E-02  0.1307306E+00
         21   -1    0    0  501  502  0.00000000000E+00  0.00000000000E+00  0.44125653885E+01  0.44125653885E+01  0.00000000000E+00 0. -1.
          2   -1    0    0  502    0 -0.00000000000E+00 -0.00000000000E+00 -0.12077363293E+04  0.12077363293E+04  0.00000000000E+00 0. -1.
         24    2    1    2    0    0  0.38288796442E+02 -0.42343862744E+01 -0.49610744227E+03  0.50388419307E+03  0.79326690287E+02 0.  0.
        -11    1    3    3    0    0 -0.87255258131E+01 -0.23864058769E+02 -0.65213999193E+02  0.69989240547E+02  0.00000000000E+00 0.  1.
         12    1    3    3    0    0  0.47014322255E+02  0.19629672495E+02 -0.43089344308E+03  0.43389495252E+03  0.00000000000E+00 0. -1.
          1    1    1    2  501    0 -0.38288796442E+02  0.42343862744E+01 -0.70721632164E+03  0.70826470162E+03  0.00000000000E+00 0. -1.
<mgrwt>
<rscale>  1 0.88185519E+02</rscale>
<asrwt>0</asrwt>
<pdfrwt beam="1">  1       21 0.67885543E-03 0.88185519E+02</pdfrwt>
<pdfrwt beam="2">  1        2 0.18580580E+00 0.88185519E+02</pdfrwt>
<totfact> 0.16579708E+06</totfact>
</mgrwt>
</event>
<event>
 6    2  0.9453093E+000  0.1018272E+03  0.7546771E-02  0.1276500E+00
          2   -1    0    0  502    0 -0.00000000000E+00  0.00000000000E+00  0.18563069662E+04  0.18563069662E+04  0.00000000000E+00 0. -1.
         21   -1    0    0  501  502  0.00000000000E+00 -0.00000000000E+00 -0.37099585647E+01  0.37099585647E+01  0.00000000000E+00 0. -1.
         24    2    1    2    0    0 -0.50538326068E+01 -0.61132513340E+02  0.98330292261E+03  0.98856128523E+03  0.81277620764E+02 0.  0.
        -11    1    3    3    0    0  0.28983606082E+02 -0.29380742830E+02  0.21981974014E+03  0.22366044716E+03  0.00000000000E+00 0.  1.
         12    1    3    3    0    0 -0.34037438688E+02 -0.31751770510E+02  0.76348318247E+03  0.76490083807E+03  0.00000000000E+00 0. -1.
          1    1    1    2  501    0  0.50538326068E+01  0.61132513340E+02  0.86929408501E+03  0.87145563951E+03  0.00000000000E+00 0. -1.
<mgrwt>
<rscale>  1 0.10182719E+03</rscale>
<asrwt>0</asrwt>
<pdfrwt beam="1">  1       21 0.57076434E-03 0.10182719E+03</pdfrwt>
<pdfrwt beam="2">  1        2 0.28558495E+00 0.10182719E+03</pdfrwt>
<totfact> 0.10149207E+06</totfact>
</mgrwt>
</event>
<event>
 6    2  0.9453093E+000  0.8440243E+02  0.7546771E-02  0.1317003E+00
         21   -1    0    0  501  502  0.00000000000E+00  0.00000000000E+00  0.79983673178E+00  0.79983673178E+00  0.00000000000E+00 0.  1.
          2   -1    0    0  502    0 -0.00000000000E+00 -0.00000000000E+00 -0.34743629181E+04  0.34743629181E+04  0.00000000000E+00 0. -1.
         24    2    1    2    0    0 -0.58582441685E+01 -0.20161888619E+02 -0.27463278880E+04  0.27476245447E+04  0.81749307453E+02 0.  0.
        -11    1    3    3    0    0 -0.42003846090E+02 -0.22978418338E+02 -0.14531155156E+04  0.14539040658E+04  0.00000000000E+00 0.  1.
         12    1    3    3    0    0  0.36145601921E+02  0.28165297197E+01 -0.12932123724E+04  0.12937204789E+04  0.00000000000E+00 0. -1.
          1    1    1    2  501    0  0.58582441685E+01  0.20161888619E+02 -0.72723519336E+03  0.72753821016E+03  0.00000000000E+00 0. -1.
<mgrwt>
<rscale>  1 0.84402429E+02</rscale>
<asrwt>0</asrwt>
<pdfrwt beam="1">  1       21 0.12304817E-03 0.84402429E+02</pdfrwt>
<pdfrwt beam="2">  1        2 0.53453316E+00 0.84402429E+02</pdfrwt>
<totfact> 0.13302006E+06</totfact>
</mgrwt>
</event>
<event>
 6    2  0.9453093E+000  0.8600282E+02  0.7546771E-02  0.1312831E+00
          2   -1    0    0  502    0 -0.00000000000E+00  0.00000000000E+00  0.11767003063E+04  0.11767003063E+04  0.00000000000E+00 0. -1.
         21   -1    0    0  501  502  0.00000000000E+00 -0.00000000000E+00 -0.56773388796E+01  0.56773388796E+01  0.00000000000E+00 0. -1.
         24    2    1    2    0    0 -0.23685900604E+02 -0.21612488522E+02  0.11110287745E+04  0.11143524680E+04  0.79802027545E+02 0.  0.
        -11    1    3    3    0    0 -0.24677209993E+02 -0.46752394092E+02  0.49600684521E+03  0.49881614001E+03  0.00000000000E+00 0.  1.
         12    1    3    3    0    0  0.99130938930E+00  0.25139905570E+02  0.61502192931E+03  0.61553632800E+03  0.00000000000E+00 0. -1.
          1    1    1    2  501    0  0.23685900604E+02  0.21612488522E+02  0.59994192916E+02  0.68025177186E+02  0.00000000000E+00 0. -1.
<mgrwt>
<rscale>  1 0.86002821E+02</rscale>
<asrwt>0</asrwt>
<pdfrwt beam="1">  1       21 0.87343768E-03 0.86002821E+02</pdfrwt>
<pdfrwt beam="2">  1        2 0.18103062E+00 0.86002821E+02</pdfrwt>
<totfact> 0.11639716E+06</totfact>
</mgrwt>
</event>
<event>
 6    2  0.9453093E+000  0.8530209E+02  0.7546771E-02  0.1314644E+00
          2   -1    0    0  502    0 -0.00000000000E+00  0.00000000000E+00  0.85804040465E+03  0.85804040465E+03  0.00000000000E+00 0. -1.
         21   -1    0    0  501  502  0.00000000000E+00 -0.00000000000E+00 -0.48637184273E+01  0.48637184273E+01  0.00000000000E+00 0. -1.
         24    2    1    2    0    0  0.65193557738E+00 -0.24358170826E+02  0.79850217180E+03  0.80304555616E+03  0.81747791370E+02 0.  0.
        -13    1    3    3    0    0  0.38873694731E+02  0.16718160790E+01  0.38861487200E+03  0.39055790589E+03  0.00000000000E+00 0.  1.
         14    1    3    3    0    0 -0.38221759154E+02 -0.26029986905E+02  0.40988729980E+03  0.41248765028E+03  0.00000000000E+00 0. -1.
          1    1    1    2  501    0 -0.65193557738E+00  0.24358170826E+02  0.54674514423E+02  0.59858566917E+02  0.00000000000E+00 0. -1.
<mgrwt>
<rscale>  1 0.85302092E+02</rscale>
<asrwt>0</asrwt>
<pdfrwt beam="1">  1       21 0.74826506E-03 0.85302092E+02</pdfrwt>
<pdfrwt beam="2">  1        2 0.13200610E+00 0.85302092E+02</pdfrwt>
<totfact> 0.22677619E+06</totfact>
</mgrwt>
</event>
<event>
 6    2  0.9453093E+000  0.8788242E+02  0.7546771E-02  0.1308062E+00
         21   -1    0    0  501  502  0.00000000000E+00  0.00000000000E+00  0.86483230705E+01  0.86483230705E+01  0.00000000000E+00 0.  1.
          4   -1    0    0  502    0 -0.00000000000E+00 -0.00000000000E+00 -0.40217250064E+03  0.40217250064E+03  0.00000000000E+00 0. -1.
         24    2    1    2    0    0  0.28227326579E+02 -0.97803338395E+01 -0.30365119238E+03  0.31611290238E+03  0.82649159232E+02 0.  0.
        -11    1    3    3    0    0 -0.12616104297E+02 -0.28642287969E+02 -0.53780555193E+02  0.62224551943E+02  0.00000000000E+00 0.  1.
         12    1    3    3    0    0  0.40843430876E+02  0.18861954129E+02 -0.24987063719E+03  0.25388835044E+03  0.00000000000E+00 0. -1.
          3    1    1    2  501    0 -0.28227326579E+02  0.97803338395E+01 -0.89872985194E+02  0.94707921334E+02  0.00000000000E+00 0. -1.
<mgrwt>
<rscale>  1 0.87882424E+02</rscale>
<asrwt>0</asrwt>
<pdfrwt beam="1">  1       21 0.13305114E-02 0.87882424E+02</pdfrwt>
<pdfrwt beam="2">  1        4 0.61872684E-01 0.87882424E+02</pdfrwt>
<totfact> 0.21819119E+05</totfact>
</mgrwt>
</event>
<event>
 6    2  0.9453093E+000  0.8404072E+02  0.7546771E-02  0.1317960E+00
          2   -1    0    0  502    0 -0.00000000000E+00  0.00000000000E+00  0.21272518738E+04  0.21272518738E+04  0.00000000000E+00 0. -1.
         21   -1    0    0  501  502  0.00000000000E+00 -0.00000000000E+00 -0.14243111394E+01  0.14243111394E+01  0.00000000000E+00 0.  1.
         24    2    1    2    0    0  0.43415131388E+01 -0.22786751650E+02  0.18357165643E+04  0.18376392867E+04  0.80775978264E+02 0.  0.
        -13    1    3    3    0    0 -0.27723875714E+02 -0.23945096290E+02  0.43031261520E+03  0.43186910948E+03  0.00000000000E+00 0.  1.
         14    1    3    3    0    0  0.32065388853E+02  0.11583446403E+01  0.14054039491E+04  0.14057701772E+04  0.00000000000E+00 0. -1.
          1    1    1    2  501    0 -0.43415131388E+01  0.22786751650E+02  0.29011099840E+03  0.29103689831E+03  0.00000000000E+00 0. -1.
<mgrwt>
<rscale>  1 0.84040725E+02</rscale>
<asrwt>0</asrwt>
<pdfrwt beam="1">  1       21 0.21912649E-03 0.84040725E+02</pdfrwt>
<pdfrwt beam="2">  1        2 0.32726698E+00 0.84040725E+02</pdfrwt>
<totfact> 0.31402493E+06</totfact>
</mgrwt>
</event>
<event>
 6    2  0.9453093E+000  0.8885534E+02  0.7546771E-02  0.1305648E+00
         -1   -1    0    0    0  501 -0.00000000000E+00  0.00000000000E+00  0.97891411302E+03  0.97891411302E+03  0.00000000000E+00 0.  1.
         21   -1    0    0  501  502  0.00000000000E+00 -0.00000000000E+00 -0.40380783959E+01  0.40380783959E+01  0.00000000000E+00 0. -1.
         24    2    1    2    0    0 -0.29151830574E+02 -0.22127338526E+02  0.65915030838E+03  0.66511232206E+03  0.80968040549E+02 0.  0.
        -11    1    3    3    0    0 -0.27455871982E+01 -0.49939716244E+02  0.40713839501E+03  0.41019895928E+03  0.00000000000E+00 0.  1.
         12    1    3    3    0    0 -0.26406243376E+02  0.27812377719E+02  0.25201191337E+03  0.25491336278E+03  0.00000000000E+00 0. -1.
         -2    1    1    2    0  502  0.29151830574E+02  0.22127338526E+02  0.31572572625E+03  0.31783986936E+03  0.00000000000E+00 0.  1.
<mgrwt>
<rscale>  1 0.88855343E+02</rscale>
<asrwt>0</asrwt>
<pdfrwt beam="1">  1       21 0.62124361E-03 0.88855343E+02</pdfrwt>
<pdfrwt beam="2">  1       -1 0.15060198E+00 0.88855343E+02</pdfrwt>
<totfact> 0.26707249E+05</totfact>
</mgrwt>
</event>
<event>
 6    2  0.9453093E+000  0.1349835E+03  0.7546771E-02  0.1220243E+00
         21   -1    0    0  501  502  0.00000000000E+00  0.00000000000E+00  0.14235645862E+03  0.14235645862E+03  0.00000000000E+00 0. -1.
          2   -1    0    0  502    0 -0.00000000000E+00 -0.00000000000E+00 -0.38507049179E+03  0.38507049179E+03  0.00000000000E+00 0. -1.
         24    2    1    2    0    0 -0.26877905916E+02  0.10559657946E+03 -0.34962266979E+03  0.37477533397E+03  0.79671075697E+02 0.  0.
        -13    1    3    3    0    0 -0.25977065028E+02  0.41024461301E+02 -0.55933682389E+02  0.74070177251E+02  0.00000000000E+00 0.  1.
         14    1    3    3    0    0 -0.90084088882E+00  0.64572118161E+02 -0.29368898740E+03  0.30070515672E+03  0.00000000000E+00 0. -1.
          1    1    1    2  501    0  0.26877905916E+02 -0.10559657946E+03  0.10690863662E+03  0.15265161645E+03  0.00000000000E+00 0. -1.
<mgrwt>
<rscale>  1 0.13498348E+03</rscale>
<asrwt>0</asrwt>
<pdfrwt beam="1">  1       21 0.21900994E-01 0.13498348E+03</pdfrwt>
<pdfrwt beam="2">  1        2 0.59241613E-01 0.13498348E+03</pdfrwt>
<totfact> 0.20327724E+04</totfact>
</mgrwt>
</event>
<event>
 6    2  0.1113093E+001  0.8431239E+02  0.7546771E-02  0.1317241E+00
         21   -1    0    0  501  502  0.00000000000E+00  0.00000000000E+00  0.29645519997E+02  0.29645519997E+02  0.00000000000E+00 0.  1.
         -1   -1    0    0    0  501 -0.00000000000E+00 -0.00000000000E+00 -0.24780260668E+03  0.24780260668E+03  0.00000000000E+00 0.  1.
         24    2    1    2    0    0  0.21083290894E+02 -0.89049831545E+01 -0.23458463347E+03  0.24927600973E+03  0.81146625831E+02 0.  0.
        -11    1    3    3    0    0  0.31019907064E+02 -0.20745141035E+02 -0.23020532651E+03  0.23321039399E+03  0.00000000000E+00 0.  1.
         12    1    3    3    0    0 -0.99366161701E+01  0.11840157880E+02 -0.43793069617E+01  0.16065615737E+02  0.00000000000E+00 0. -1.
         -2    1    1    2    0  502 -0.21083290894E+02  0.89049831545E+01  0.16427546790E+02  0.28172116950E+02  0.00000000000E+00 0.  1.
<mgrwt>
<rscale>  1 0.84312388E+02</rscale>
<asrwt>0</asrwt>
<pdfrwt beam="1">  1       21 0.45608491E-02 0.84312388E+02</pdfrwt>
<pdfrwt beam="2">  1       -1 0.38123479E-01 0.84312388E+02</pdfrwt>
<totfact> 0.18393545E+05</totfact>
</mgrwt>
</event>
<event>
 6    2  0.9453093E+000  0.8819117E+02  0.7546771E-02  0.1307292E+00
         -3   -1    0    0    0  501 -0.00000000000E+00  0.00000000000E+00  0.12548599186E+03  0.12548599186E+03  0.00000000000E+00 0.  1.
         21   -1    0    0  501  502  0.00000000000E+00 -0.00000000000E+00 -0.31121516836E+03  0.31121516836E+03  0.00000000000E+00 0.  1.
         24    2    1    2    0    0 -0.33433907091E+02  0.98847247220E+01  0.10883482934E+03  0.14008105391E+03  0.81007084021E+02 0.  0.
        -11    1    3    3    0    0  0.37201832431E+01  0.31781000330E+02  0.84963028812E+02  0.90788699794E+02  0.00000000000E+00 0.  1.
         12    1    3    3    0    0 -0.37154090334E+02 -0.21896275608E+02  0.23871800526E+02  0.49292354117E+02  0.00000000000E+00 0. -1.
         -4    1    1    2    0  502  0.33433907091E+02 -0.98847247220E+01 -0.29456400584E+03  0.29662010630E+03  0.00000000000E+00 0.  1.
<mgrwt>
<rscale>  1 0.88191165E+02</rscale>
<asrwt>0</asrwt>
<pdfrwt beam="1">  1       21 0.47879256E-01 0.88191165E+02</pdfrwt>
<pdfrwt beam="2">  1       -3 0.19305537E-01 0.88191165E+02</pdfrwt>
<totfact> 0.47861488E+03</totfact>
</mgrwt>
</event>
<event>
 6    2  0.9453093E+000  0.8870785E+02  0.7546771E-02  0.1306011E+00
         21   -1    0    0  501  502  0.00000000000E+00  0.00000000000E+00  0.13353033099E+01  0.13353033099E+01  0.00000000000E+00 0. -1.
          2   -1    0    0  502    0 -0.00000000000E+00 -0.00000000000E+00 -0.38696889285E+04  0.38696889285E+04  0.00000000000E+00 0. -1.
         24    2    1    2    0    0  0.29827665271E+02 -0.18539444170E+02 -0.16426150961E+04  0.16450086433E+04  0.81459694625E+02 0.  0.
        -11    1    3    3    0    0 -0.47453028122E+01 -0.16310387521E+02 -0.70707310108E+02  0.72719119512E+02  0.00000000000E+00 0.  1.
         12    1    3    3    0    0  0.34572968083E+02 -0.22290566484E+01 -0.15719077860E+04  0.15722895238E+04  0.00000000000E+00 0. -1.
          1    1    1    2  501    0 -0.29827665271E+02  0.18539444170E+02 -0.22257385291E+04  0.22260155885E+04  0.00000000000E+00 0. -1.
<mgrwt>
<rscale>  1 0.88707849E+02</rscale>
<asrwt>0</asrwt>
<pdfrwt beam="1">  1       21 0.20543604E-03 0.88707849E+02</pdfrwt>
<pdfrwt beam="2">  1        2 0.59532296E+00 0.88707849E+02</pdfrwt>
<totfact> 0.33756606E+05</totfact>
</mgrwt>
</event>
<event>
 6    2  0.9453093E+000  0.8336196E+02  0.7546771E-02  0.1319773E+00
          2   -1    0    0  502    0 -0.00000000000E+00  0.00000000000E+00  0.40696323076E+03  0.40696323076E+03  0.00000000000E+00 0. -1.
         21   -1    0    0  501  502  0.00000000000E+00 -0.00000000000E+00 -0.73820702372E+01  0.73820702372E+01  0.00000000000E+00 0.  1.
         24    2    1    2    0    0  0.16588765133E+02  0.12117029704E+02  0.36242329482E+03  0.37188689169E+03  0.80791126019E+02 0.  0.
        -11    1    3    3    0    0  0.24965961215E+02 -0.30762844722E+02  0.16576910829E+03  0.17043781593E+03  0.00000000000E+00 0.  1.
         12    1    3    3    0    0 -0.83771960816E+01  0.42879874426E+02  0.19665418653E+03  0.20144907576E+03  0.00000000000E+00 0. -1.
          1    1    1    2  501    0 -0.16588765133E+02 -0.12117029704E+02  0.37157865703E+02  0.42458409309E+02  0.00000000000E+00 0. -1.
<mgrwt>
<rscale>  1 0.83361955E+02</rscale>
<asrwt>0</asrwt>
<pdfrwt beam="1">  1       21 0.11357034E-02 0.83361955E+02</pdfrwt>
<pdfrwt beam="2">  1        2 0.62609710E-01 0.83361955E+02</pdfrwt>
<totfact> 0.27336433E+06</totfact>
</mgrwt>
</event>
<event>
 6    2  0.9453093E+000  0.1035262E+03  0.7546771E-02  0.1273051E+00
          2   -1    0    0  502    0 -0.00000000000E+00  0.00000000000E+00  0.56482615747E+03  0.56482615747E+03  0.00000000000E+00 0. -1.
         21   -1    0    0  501  502  0.00000000000E+00 -0.00000000000E+00 -0.10387913323E+02  0.10387913323E+02  0.00000000000E+00 0.  1.
         24    2    1    2    0    0 -0.77459950315E+01  0.44157615984E+02  0.44631982895E+03  0.45816926231E+03  0.93315527766E+02 0.  0.
        -13    1    3    3    0    0 -0.25776638249E+02  0.43708653910E+01  0.30975258896E+02  0.40534012969E+02  0.00000000000E+00 0.  1.
         14    1    3    3    0    0  0.18030643218E+02  0.39786750593E+02  0.41534457005E+03  0.41763524934E+03  0.00000000000E+00 0. -1.
          1    1    1    2  501    0  0.77459950315E+01 -0.44157615984E+02  0.10811841520E+03  0.11704480848E+03  0.00000000000E+00 0. -1.
<mgrwt>
<rscale>  1 0.10352624E+03</rscale>
<asrwt>0</asrwt>
<pdfrwt beam="1">  1       21 0.15981409E-02 0.10352624E+03</pdfrwt>
<pdfrwt beam="2">  1        2 0.86896308E-01 0.10352624E+03</pdfrwt>
<totfact> 0.11467914E+06</totfact>
</mgrwt>
</event>
<event>
 6    2  0.9453093E+000  0.8276946E+02  0.7546771E-02  0.1321371E+00
          2   -1    0    0  502    0 -0.00000000000E+00  0.00000000000E+00  0.93146321685E+03  0.93146321685E+03  0.00000000000E+00 0. -1.
         21   -1    0    0  501  502  0.00000000000E+00 -0.00000000000E+00 -0.29924981222E+01  0.29924981222E+01  0.00000000000E+00 0.  1.
         24    2    1    2    0    0 -0.14867885630E+01  0.19995429932E+02  0.81829634347E+03  0.82247169503E+03  0.80304144571E+02 0.  0.
        -13    1    3    3    0    0 -0.24984367589E+02  0.38450498176E+02  0.31860568610E+03  0.32188855626E+03  0.00000000000E+00 0.  1.
         14    1    3    3    0    0  0.23497579026E+02 -0.18455068244E+02  0.49969065737E+03  0.50058313877E+03  0.00000000000E+00 0. -1.
          1    1    1    2  501    0  0.14867885630E+01 -0.19995429932E+02  0.11017437526E+03  0.11198401994E+03  0.00000000000E+00 0. -1.
<mgrwt>
<rscale>  1 0.82769459E+02</rscale>
<asrwt>0</asrwt>
<pdfrwt beam="1">  1       21 0.46038507E-03 0.82769459E+02</pdfrwt>
<pdfrwt beam="2">  1        2 0.14330180E+00 0.82769459E+02</pdfrwt>
<totfact> 0.42931749E+06</totfact>
</mgrwt>
</event>
<event>
 6    2  0.9453093E+000  0.8736418E+02  0.7546771E-02  0.1309363E+00
         21   -1    0    0  501  502  0.00000000000E+00  0.00000000000E+00  0.24934845271E+02  0.24934845271E+02  0.00000000000E+00 0. -1.
         -1   -1    0    0    0  501 -0.00000000000E+00 -0.00000000000E+00 -0.14874177274E+03  0.14874177274E+03  0.00000000000E+00 0.  1.
         24    2    1    2    0    0 -0.29908744931E+02 -0.17068642771E+02 -0.88864350306E+02  0.12461690655E+03  0.80290902688E+02 0.  0.
        -13    1    3    3    0    0  0.46478924416E+01 -0.14489582223E+02 -0.88667348569E+02  0.89963601525E+02  0.00000000000E+00 0.  1.
         14    1    3    3    0    0 -0.34556637372E+02 -0.25790605480E+01 -0.19700173790E+00  0.34653305030E+02  0.00000000000E+00 0. -1.
         -2    1    1    2    0  502  0.29908744931E+02  0.17068642771E+02 -0.34942577162E+02  0.49059711455E+02  0.00000000000E+00 0.  1.
<mgrwt>
<rscale>  1 0.87364184E+02</rscale>
<asrwt>0</asrwt>
<pdfrwt beam="1">  1       21 0.38361300E-02 0.87364184E+02</pdfrwt>
<pdfrwt beam="2">  1       -1 0.22883350E-01 0.87364184E+02</pdfrwt>
<totfact> 0.57219176E+05</totfact>
</mgrwt>
</event>
<event>
 6    2  0.9453093E+000  0.8264307E+02  0.7546771E-02  0.1321714E+00
         21   -1    0    0  501  502  0.00000000000E+00  0.00000000000E+00  0.16984675540E+01  0.16984675540E+01  0.00000000000E+00 0.  1.
          2   -1    0    0  502    0 -0.00000000000E+00 -0.00000000000E+00 -0.17439974747E+04  0.17439974747E+04  0.00000000000E+00 0. -1.
         24    2    1    2    0    0  0.21513174198E+02 -0.64934805554E+01 -0.11472561932E+04  0.11502289554E+04  0.79529209403E+02 0.  0.
        -11    1    3    3    0    0 -0.45879968072E+01  0.14071958211E+02 -0.43058182072E+02  0.45531052765E+02  0.00000000000E+00 0.  1.
         12    1    3    3    0    0  0.26101171005E+02 -0.20565438766E+02 -0.11041980111E+04  0.11046979027E+04  0.00000000000E+00 0. -1.
          1    1    1    2  501    0 -0.21513174198E+02  0.64934805554E+01 -0.59504281394E+03  0.59546698680E+03  0.00000000000E+00 0. -1.
<mgrwt>
<rscale>  1 0.82643071E+02</rscale>
<asrwt>0</asrwt>
<pdfrwt beam="1">  1       21 0.26130090E-03 0.82643071E+02</pdfrwt>
<pdfrwt beam="2">  1        2 0.26830915E+00 0.82643071E+02</pdfrwt>
<totfact> 0.37437277E+06</totfact>
</mgrwt>
</event>
<event>
 6    2  0.9453093E+000  0.1145954E+03  0.7546771E-02  0.1252289E+00
         -1   -1    0    0    0  501 -0.00000000000E+00  0.00000000000E+00  0.75735436814E+03  0.75735436814E+03  0.00000000000E+00 0.  1.
         21   -1    0    0  501  502  0.00000000000E+00 -0.00000000000E+00 -0.13001257592E+02  0.13001257592E+02  0.00000000000E+00 0.  1.
         24    2    1    2    0    0 -0.62631843527E+02 -0.55770850650E+02  0.43066269139E+03  0.44564835037E+03  0.78095856617E+02 0.  0.
        -11    1    3    3    0    0 -0.68433330874E+02 -0.10836735130E+02  0.26175095156E+03  0.27076579593E+03  0.00000000000E+00 0.  1.
         12    1    3    3    0    0  0.58014873471E+01 -0.44934115520E+02  0.16891173984E+03  0.17488255444E+03  0.00000000000E+00 0. -1.
         -2    1    1    2    0  502  0.62631843527E+02  0.55770850650E+02  0.31369041915E+03  0.32470727536E+03  0.00000000000E+00 0.  1.
<mgrwt>
<rscale>  1 0.11459537E+03</rscale>
<asrwt>0</asrwt>
<pdfrwt beam="1">  1       21 0.20001941E-02 0.11459537E+03</pdfrwt>
<pdfrwt beam="2">  1       -1 0.11651602E+00 0.11459537E+03</pdfrwt>
<totfact> 0.80597579E+04</totfact>
</mgrwt>
</event>
<event>
 6    2  0.9453093E+000  0.8394232E+02  0.7546771E-02  0.1318222E+00
         21   -1    0    0  501  502  0.00000000000E+00  0.00000000000E+00  0.25276424819E+01  0.25276424819E+01  0.00000000000E+00 0. -1.
          2   -1    0    0  502    0 -0.00000000000E+00 -0.00000000000E+00 -0.33276077404E+04  0.33276077404E+04  0.00000000000E+00 0. -1.
         24    2    1    2    0    0  0.53736186648E+01  0.24742751665E+02 -0.32463286046E+04  0.32474136974E+04  0.80032705416E+02 0.  0.
        -11    1    3    3    0    0  0.32429697772E+02 -0.12570233937E+02 -0.98123275223E+03  0.98184897521E+03  0.00000000000E+00 0.  1.
         12    1    3    3    0    0 -0.27056079107E+02  0.37312985602E+02 -0.22650958523E+04  0.22655647222E+04  0.00000000000E+00 0. -1.
          1    1    1    2  501    0 -0.53736186648E+01 -0.24742751665E+02 -0.78751493318E+02  0.82721685412E+02  0.00000000000E+00 0. -1.
<mgrwt>
<rscale>  1 0.83942322E+02</rscale>
<asrwt>0</asrwt>
<pdfrwt beam="1">  1       21 0.38886625E-03 0.83942322E+02</pdfrwt>
<pdfrwt beam="2">  1        2 0.51194205E+00 0.83942322E+02</pdfrwt>
<totfact> 0.29221667E+05</totfact>
</mgrwt>
</event>
<event>
 6    2  0.9453093E+000  0.9658901E+02  0.7546771E-02  0.1287637E+00
         21   -1    0    0  501  502  0.00000000000E+00  0.00000000000E+00  0.85088751010E+02  0.85088751010E+02  0.00000000000E+00 0. -1.
          4   -1    0    0  502    0 -0.00000000000E+00 -0.00000000000E+00 -0.13376354934E+03  0.13376354934E+03  0.00000000000E+00 0. -1.
         24    2    1    2    0    0 -0.17973305683E+02  0.38398923744E+02 -0.10866821584E+03  0.14538987998E+03  0.86786629179E+02 0.  0.
        -13    1    3    3    0    0  0.14148203944E+01  0.40514045578E+02 -0.61134782015E+01  0.40997124552E+02  0.00000000000E+00 0.  1.
         14    1    3    3    0    0 -0.19388126077E+02 -0.21151218341E+01 -0.10255473764E+03  0.10439275543E+03  0.00000000000E+00 0. -1.
          3    1    1    2  501    0  0.17973305683E+02 -0.38398923744E+02  0.59993417512E+02  0.73462420370E+02  0.00000000000E+00 0. -1.
<mgrwt>
<rscale>  1 0.96589006E+02</rscale>
<asrwt>0</asrwt>
<pdfrwt beam="1">  1       21 0.13090577E-01 0.96589006E+02</pdfrwt>
<pdfrwt beam="2">  1        4 0.20579007E-01 0.96589006E+02</pdfrwt>
<totfact> 0.41742865E+04</totfact>
</mgrwt>
</event>
<event>
 6    2  0.9453093E+000  0.8956008E+02  0.7546771E-02  0.1303921E+00
         21   -1    0    0  501  502  0.00000000000E+00  0.00000000000E+00  0.11362551082E+02  0.11362551082E+02  0.00000000000E+00 0.  1.
          2   -1    0    0  502    0 -0.00000000000E+00 -0.00000000000E+00 -0.38483620118E+03  0.38483620118E+03  0.00000000000E+00 0. -1.
         24    2    1    2    0    0  0.21840054550E+02 -0.33451244999E+02 -0.21812336966E+03  0.23579400355E+03  0.80156309466E+02 0.  0.
        -11    1    3    3    0    0  0.11121864569E+02 -0.32361819725E+02 -0.25021239108E+02  0.42391575270E+02  0.00000000000E+00 0.  1.
         12    1    3    3    0    0  0.10718189982E+02 -0.10894252746E+01 -0.19310213055E+03  0.19340242828E+03  0.00000000000E+00 0. -1.
          1    1    1    2  501    0 -0.21840054550E+02  0.33451244999E+02 -0.15535028044E+03  0.16040474871E+03  0.00000000000E+00 0. -1.
<mgrwt>
<rscale>  1 0.89560079E+02</rscale>
<asrwt>0</asrwt>
<pdfrwt beam="1">  1       21 0.17480852E-02 0.89560079E+02</pdfrwt>
<pdfrwt beam="2">  1        2 0.59205557E-01 0.89560079E+02</pdfrwt>
<totfact> 0.14801783E+06</totfact>
</mgrwt>
</event>
<event>
 6    2  0.9453093E+000  0.8411086E+02  0.7546771E-02  0.1317774E+00
         21   -1    0    0  501  502  0.00000000000E+00  0.00000000000E+00  0.24515151105E+02  0.24515151105E+02  0.00000000000E+00 0. -1.
          2   -1    0    0  502    0 -0.00000000000E+00 -0.00000000000E+00 -0.14175433825E+03  0.14175433825E+03  0.00000000000E+00 0. -1.
         24    2    1    2    0    0  0.22414471376E+02  0.16430158213E+02 -0.10819604688E+03  0.13704386683E+03  0.79386889663E+02 0.  0.
        -11    1    3    3    0    0 -0.23132210218E+02  0.50917174287E+01 -0.57746212208E+01  0.24379724900E+02  0.00000000000E+00 0.  1.
         12    1    3    3    0    0  0.45546681594E+02  0.11338440784E+02 -0.10242142566E+03  0.11266414193E+03  0.00000000000E+00 0. -1.
          1    1    1    2  501    0 -0.22414471376E+02 -0.16430158213E+02 -0.90431402672E+01  0.29225622523E+02  0.00000000000E+00 0. -1.
<mgrwt>
<rscale>  1 0.84110861E+02</rscale>
<asrwt>0</asrwt>
<pdfrwt beam="1">  1       21 0.37715618E-02 0.84110861E+02</pdfrwt>
<pdfrwt beam="2">  1        2 0.21808359E-01 0.84110861E+02</pdfrwt>
<totfact> 0.12255026E+06</totfact>
</mgrwt>
</event>
<event>
 6    2  0.9453093E+000  0.8870097E+02  0.7546771E-02  0.1306028E+00
          2   -1    0    0  502    0 -0.00000000000E+00  0.00000000000E+00  0.17112151724E+04  0.17112151724E+04  0.00000000000E+00 0. -1.
         21   -1    0    0  501  502  0.00000000000E+00 -0.00000000000E+00 -0.25995207705E+01  0.25995207705E+01  0.00000000000E+00 0.  1.
         24    2    1    2    0    0 -0.37012482588E+02  0.16176978355E+01  0.14297544514E+04  0.14325032825E+04  0.80593561095E+02 0.  0.
        -11    1    3    3    0    0 -0.34964004207E+02  0.68232958632E+01  0.23056552541E+03  0.23330130832E+03  0.00000000000E+00 0.  1.
         12    1    3    3    0    0 -0.20484783810E+01 -0.52055980278E+01  0.11991889260E+04  0.11992019741E+04  0.00000000000E+00 0. -1.
          1    1    1    2  501    0  0.37012482588E+02 -0.16176978355E+01  0.27886120021E+03  0.28131141071E+03  0.00000000000E+00 0. -1.
<mgrwt>
<rscale>  1 0.88700975E+02</rscale>
<asrwt>0</asrwt>
<pdfrwt beam="1">  1       21 0.39992764E-03 0.88700975E+02</pdfrwt>
<pdfrwt beam="2">  1        2 0.26326297E+00 0.88700975E+02</pdfrwt>
<totfact> 0.20532994E+06</totfact>
</mgrwt>
</event>
<event>
 6    2  0.9453093E+000  0.1002675E+03  0.7546771E-02  0.1279734E+00
         21   -1    0    0  501  502  0.00000000000E+00  0.00000000000E+00  0.39084269209E+01  0.39084269209E+01  0.00000000000E+00 0. -1.
          2   -1    0    0  502    0 -0.00000000000E+00 -0.00000000000E+00 -0.98263917480E+03  0.98263917480E+03  0.00000000000E+00 0. -1.
         24    2    1    2    0    0 -0.98065886291E+01 -0.19421005864E+02 -0.86147881482E+03  0.86729425604E+03  0.97878667401E+02 0.  0.
        -13    1    3    3    0    0 -0.30517555768E+02  0.47093539813E+01 -0.89803968698E+02  0.94964477668E+02  0.00000000000E+00 0.  1.
         14    1    3    3    0    0  0.20710967139E+02 -0.24130359845E+02 -0.77167484612E+03  0.77232977837E+03  0.00000000000E+00 0. -1.
          1    1    1    2  501    0  0.98065886291E+01  0.19421005864E+02 -0.11725193306E+03  0.11925334568E+03  0.00000000000E+00 0. -1.
<mgrwt>
<rscale>  1 0.10026753E+03</rscale>
<asrwt>0</asrwt>
<pdfrwt beam="1">  1       21 0.60129698E-03 0.10026753E+03</pdfrwt>
<pdfrwt beam="2">  1        2 0.15117512E+00 0.10026753E+03</pdfrwt>
<totfact> 0.27111258E+06</totfact>
</mgrwt>
</event>
<event>
 6    2  0.9453093E+000  0.8318430E+02  0.7546771E-02  0.1320250E+00
         21   -1    0    0  501  502  0.00000000000E+00  0.00000000000E+00  0.27339873279E+02  0.27339873279E+02  0.00000000000E+00 0.  1.
         -1   -1    0    0    0  501 -0.00000000000E+00 -0.00000000000E+00 -0.82627731007E+03  0.82627731007E+03  0.00000000000E+00 0.  1.
         24    2    1    2    0    0 -0.88791777556E-01 -0.24942318809E+02 -0.81800352748E+03  0.82222223207E+03  0.79356794290E+02 0.  0.
        -11    1    3    3    0    0 -0.39185436793E+02 -0.13196059160E+02 -0.34757166602E+03  0.35002242422E+03  0.00000000000E+00 0.  1.
         12    1    3    3    0    0  0.39096645015E+02 -0.11746259650E+02 -0.47043186146E+03  0.47219980786E+03  0.00000000000E+00 0. -1.
         -2    1    1    2    0  502  0.88791777556E-01  0.24942318809E+02  0.19066090686E+02  0.31394951276E+02  0.00000000000E+00 0.  1.
<mgrwt>
<rscale>  1 0.83184301E+02</rscale>
<asrwt>0</asrwt>
<pdfrwt beam="1">  1       21 0.42061340E-02 0.83184301E+02</pdfrwt>
<pdfrwt beam="2">  1       -1 0.12711960E+00 0.83184301E+02</pdfrwt>
<totfact> 0.19383857E+04</totfact>
</mgrwt>
</event>
<event>
 6    2  0.9453093E+000  0.8152996E+02  0.7546771E-02  0.1324765E+00
         21   -1    0    0  501  502  0.00000000000E+00  0.00000000000E+00  0.81026794647E+01  0.81026794647E+01  0.00000000000E+00 0. -1.
         -3   -1    0    0    0  501 -0.00000000000E+00 -0.00000000000E+00 -0.38802877748E+03  0.38802877748E+03  0.00000000000E+00 0.  1.
         24    2    1    2    0    0  0.25426992960E+02 -0.61821656535E+01 -0.32804531032E+03  0.33802494031E+03  0.77216471740E+02 0.  0.
        -11    1    3    3    0    0 -0.43466198492E+01 -0.56068946926E+01 -0.28816884913E+03  0.28825616382E+03  0.00000000000E+00 0.  1.
         12    1    3    3    0    0  0.29773612810E+02 -0.57527096091E+00 -0.39876461186E+02  0.49768776488E+02  0.00000000000E+00 0. -1.
         -4    1    1    2    0  502 -0.25426992960E+02  0.61821656535E+01 -0.51880787701E+02  0.58106516637E+02  0.00000000000E+00 0.  1.
<mgrwt>
<rscale>  1 0.81529962E+02</rscale>
<asrwt>0</asrwt>
<pdfrwt beam="1">  1       21 0.12465660E-02 0.81529962E+02</pdfrwt>
<pdfrwt beam="2">  1       -3 0.59696737E-01 0.81529962E+02</pdfrwt>
<totfact> 0.31908361E+05</totfact>
</mgrwt>
</event>
<event>
 6    2  0.9453093E+000  0.8906953E+02  0.7546771E-02  0.1305121E+00
         21   -1    0    0  501  502  0.00000000000E+00  0.00000000000E+00  0.13187821650E+02  0.13187821650E+02  0.00000000000E+00 0. -1.
          2   -1    0    0  502    0 -0.00000000000E+00 -0.00000000000E+00 -0.76236708150E+03  0.76236708150E+03  0.00000000000E+00 0. -1.
         24    2    1    2    0    0 -0.32150609984E+01 -0.41058587168E+02 -0.71900206858E+03  0.72449800283E+03  0.78976181752E+02 0.  0.
        -13    1    3    3    0    0  0.69788407075E+01  0.20338721876E+02 -0.95167427632E+02  0.97566424077E+02  0.00000000000E+00 0.  1.
         14    1    3    3    0    0 -0.10193901706E+02 -0.61397309043E+02 -0.62383464095E+03  0.62693157875E+03  0.00000000000E+00 0. -1.
          1    1    1    2  501    0  0.32150609984E+01  0.41058587168E+02 -0.30177191268E+02  0.51056900320E+02  0.00000000000E+00 0. -1.
<mgrwt>
<rscale>  1 0.89069532E+02</rscale>
<asrwt>0</asrwt>
<pdfrwt beam="1">  1       21 0.20288947E-02 0.89069532E+02</pdfrwt>
<pdfrwt beam="2">  1        2 0.11728730E+00 0.89069532E+02</pdfrwt>
<totfact> 0.54826489E+05</totfact>
</mgrwt>
</event>
<event>
 6    2  0.9453093E+000  0.8627401E+02  0.7546771E-02  0.1312134E+00
         21   -1    0    0  501  502  0.00000000000E+00  0.00000000000E+00  0.24416389590E+02  0.24416389590E+02  0.00000000000E+00 0.  1.
          2   -1    0    0  502    0 -0.00000000000E+00 -0.00000000000E+00 -0.12680202009E+03  0.12680202009E+03  0.00000000000E+00 0. -1.
         24    2    1    2    0    0  0.20929892333E+02 -0.10311830785E+02 -0.68923270411E+02  0.11042473627E+03  0.83059080958E+02 0.  0.
        -13    1    3    3    0    0  0.44937844045E+02 -0.12664728325E+02 -0.11417398438E+02  0.48064146285E+02  0.00000000000E+00 0.  1.
         14    1    3    3    0    0 -0.24007951712E+02  0.23528975403E+01 -0.57505871973E+02  0.62360589988E+02  0.00000000000E+00 0. -1.
          1    1    1    2  501    0 -0.20929892333E+02  0.10311830785E+02 -0.33462360085E+02  0.40793673403E+02  0.00000000000E+00 0. -1.
<mgrwt>
<rscale>  1 0.86274012E+02</rscale>
<asrwt>0</asrwt>
<pdfrwt beam="1">  1       21 0.37563676E-02 0.86274012E+02</pdfrwt>
<pdfrwt beam="2">  1        2 0.19508003E-01 0.86274012E+02</pdfrwt>
<totfact> 0.14004371E+06</totfact>
</mgrwt>
</event>
<event>
 6    2  0.9453093E+000  0.9058750E+02  0.7546771E-02  0.1301435E+00
          2   -1    0    0  502    0 -0.00000000000E+00  0.00000000000E+00  0.11750628385E+04  0.11750628385E+04  0.00000000000E+00 0. -1.
         21   -1    0    0  501  502  0.00000000000E+00 -0.00000000000E+00 -0.32278088367E+01  0.32278088367E+01  0.00000000000E+00 0. -1.
         24    2    1    2    0    0  0.30840542157E+02  0.86387787528E+01  0.81395764556E+03  0.81898299421E+03  0.84736819089E+02 0.  0.
        -13    1    3    3    0    0  0.65644903238E+01 -0.32417056833E+02  0.16544187664E+03  0.16871565622E+03  0.00000000000E+00 0.  1.
         14    1    3    3    0    0  0.24276051833E+02  0.41055835585E+02  0.64851576891E+03  0.65026733799E+03  0.00000000000E+00 0. -1.
          1    1    1    2  501    0 -0.30840542157E+02 -0.86387787528E+01  0.35787738407E+03  0.35930765309E+03  0.00000000000E+00 0. -1.
<mgrwt>
<rscale>  1 0.90587505E+02</rscale>
<asrwt>0</asrwt>
<pdfrwt beam="1">  1       21 0.49658691E-03 0.90587505E+02</pdfrwt>
<pdfrwt beam="2">  1        2 0.18077856E+00 0.90587505E+02</pdfrwt>
<totfact> 0.28007887E+06</totfact>
</mgrwt>
</event>
<event>
 6    2  0.9453093E+000  0.7304013E+02  0.7546771E-02  0.1350050E+00
          4   -1    0    0  502    0 -0.00000000000E+00  0.00000000000E+00  0.52154373217E+02  0.52154373217E+02  0.00000000000E+00 0. -1.
         21   -1    0    0  501  502  0.00000000000E+00 -0.00000000000E+00 -0.51452862841E+02  0.51452862841E+02  0.00000000000E+00 0.  1.
         24    2    1    2    0    0  0.11849661171E+02 -0.19579227503E+02  0.17633790259E+02  0.75138609088E+02  0.69362089050E+02 0.  0.
        -13    1    3    3    0    0  0.82708838877E+01 -0.45531638289E+02  0.67361978474E+01  0.46764451959E+02  0.00000000000E+00 0.  1.
         14    1    3    3    0    0  0.35787772830E+01  0.25952410786E+02  0.10897592412E+02  0.28374157130E+02  0.00000000000E+00 0. -1.
          3    1    1    2  501    0 -0.11849661171E+02  0.19579227503E+02 -0.16932279884E+02  0.28468626969E+02  0.00000000000E+00 0. -1.
<mgrwt>
<rscale>  1 0.73040126E+02</rscale>
<asrwt>0</asrwt>
<pdfrwt beam="1">  1       21 0.79158251E-02 0.73040126E+02</pdfrwt>
<pdfrwt beam="2">  1        4 0.80237497E-02 0.73040126E+02</pdfrwt>
<totfact> 0.47315908E+05</totfact>
</mgrwt>
</event>
<event>
 6    2  0.9453093E+000  0.9668850E+02  0.7546771E-02  0.1287418E+00
         21   -1    0    0  501  502  0.00000000000E+00  0.00000000000E+00  0.28419289903E+03  0.28419289903E+03  0.00000000000E+00 0. -1.
          4   -1    0    0  502    0 -0.00000000000E+00 -0.00000000000E+00 -0.24272457331E+02  0.24272457331E+02  0.00000000000E+00 0. -1.
         24    2    1    2    0    0  0.38773540128E+01 -0.54369525700E+02  0.22177629841E+03  0.24193675450E+03  0.79859798649E+02 0.  0.
        -11    1    3    3    0    0 -0.65960405743E+01  0.64069854444E+01  0.13589423795E+03  0.13620499668E+03  0.00000000000E+00 0.  1.
         12    1    3    3    0    0  0.10473394587E+02 -0.60776511145E+02  0.85882060464E+02  0.10573175781E+03  0.00000000000E+00 0. -1.
          3    1    1    2  501    0 -0.38773540128E+01  0.54369525700E+02  0.38144143288E+02  0.66528601865E+02  0.00000000000E+00 0. -1.
<mgrwt>
<rscale>  1 0.96688503E+02</rscale>
<asrwt>0</asrwt>
<pdfrwt beam="1">  1       21 0.43721982E-01 0.96688503E+02</pdfrwt>
<pdfrwt beam="2">  1        4 0.37342244E-02 0.96688503E+02</pdfrwt>
<totfact> 0.74582440E+04</totfact>
</mgrwt>
</event>
<event>
 6    2  0.9453093E+000  0.9081275E+02  0.7546771E-02  0.1300895E+00
         21   -1    0    0  501  502  0.00000000000E+00  0.00000000000E+00  0.23033048799E+01  0.23033048799E+01  0.00000000000E+00 0. -1.
          2   -1    0    0  502    0 -0.00000000000E+00 -0.00000000000E+00 -0.21912903069E+04  0.21912903069E+04  0.00000000000E+00 0. -1.
         24    2    1    2    0    0  0.24429638270E+02  0.39752622866E+02 -0.11600068000E+04  0.11635560715E+04  0.77909416708E+02 0.  0.
        -13    1    3    3    0    0  0.31066788661E+02 -0.15807300266E+02 -0.44750169673E+03  0.44885719853E+03  0.00000000000E+00 0.  1.
         14    1    3    3    0    0 -0.66371503902E+01  0.55559923132E+02 -0.71250510331E+03  0.71469887300E+03  0.00000000000E+00 0. -1.
          1    1    1    2  501    0 -0.24429638270E+02 -0.39752622866E+02 -0.10289802020E+04  0.10300375402E+04  0.00000000000E+00 0. -1.
<mgrwt>
<rscale>  1 0.90812749E+02</rscale>
<asrwt>0</asrwt>
<pdfrwt beam="1">  1       21 0.35435494E-03 0.90812749E+02</pdfrwt>
<pdfrwt beam="2">  1        2 0.33712126E+00 0.90812749E+02</pdfrwt>
<totfact> 0.14178404E+06</totfact>
</mgrwt>
</event>
<event>
 6    2  0.9453093E+000  0.1155241E+03  0.7546771E-02  0.1250669E+00
         21   -1    0    0  501  502  0.00000000000E+00  0.00000000000E+00  0.11136197603E+03  0.11136197603E+03  0.00000000000E+00 0. -1.
          2   -1    0    0  502    0 -0.00000000000E+00 -0.00000000000E+00 -0.97743395069E+02  0.97743395069E+02  0.00000000000E+00 0. -1.
         24    2    1    2    0    0  0.78510734365E+02  0.18332755521E+02 -0.27281258654E+02  0.11870170847E+03  0.82739369014E+02 0.  0.
        -13    1    3    3    0    0  0.29362996302E+02  0.49305922381E+02 -0.15192700060E+02  0.59363942497E+02  0.00000000000E+00 0.  1.
         14    1    3    3    0    0  0.49147738063E+02 -0.30973166860E+02 -0.12088558594E+02  0.59337765975E+02  0.00000000000E+00 0. -1.
          1    1    1    2  501    0 -0.78510734365E+02 -0.18332755521E+02  0.40899839612E+02  0.90403662624E+02  0.00000000000E+00 0. -1.
<mgrwt>
<rscale>  1 0.11552415E+03</rscale>
<asrwt>0</asrwt>
<pdfrwt beam="1">  1       21 0.17132612E-01 0.11552415E+03</pdfrwt>
<pdfrwt beam="2">  1        2 0.15037445E-01 0.11552415E+03</pdfrwt>
<totfact> 0.14248093E+05</totfact>
</mgrwt>
</event>
<event>
 6    2  0.9453093E+000  0.8494108E+02  0.7546771E-02  0.1315587E+00
         21   -1    0    0  501  502  0.00000000000E+00  0.00000000000E+00  0.98422322150E+01  0.98422322150E+01  0.00000000000E+00 0. -1.
          2   -1    0    0  502    0 -0.00000000000E+00 -0.00000000000E+00 -0.40144466612E+03  0.40144466612E+03  0.00000000000E+00 0. -1.
         24    2    1    2    0    0 -0.86348792322E+00  0.30672562161E+02 -0.34633900678E+03  0.35660299288E+03  0.79205020238E+02 0.  0.
        -11    1    3    3    0    0 -0.35952166934E+02  0.18956925948E+02 -0.25224262423E+03  0.25549611509E+03  0.00000000000E+00 0.  1.
         12    1    3    3    0    0  0.35088679011E+02  0.11715636213E+02 -0.94096382553E+02  0.10110687779E+03  0.00000000000E+00 0. -1.
          1    1    1    2  501    0  0.86348792322E+00 -0.30672562161E+02 -0.45263427121E+02  0.54683905453E+02  0.00000000000E+00 0. -1.
<mgrwt>
<rscale>  1 0.84941079E+02</rscale>
<asrwt>0</asrwt>
<pdfrwt beam="1">  1       21 0.15141896E-02 0.84941079E+02</pdfrwt>
<pdfrwt beam="2">  1        2 0.61760715E-01 0.84941079E+02</pdfrwt>
<totfact> 0.17676363E+06</totfact>
</mgrwt>
</event>
<event>
 6    2  0.9453093E+000  0.7843945E+02  0.7546771E-02  0.1333539E+00
         21   -1    0    0  501  502  0.00000000000E+00  0.00000000000E+00  0.12128466347E+02  0.12128466347E+02  0.00000000000E+00 0. -1.
          4   -1    0    0  502    0 -0.00000000000E+00 -0.00000000000E+00 -0.51821795918E+03  0.51821795918E+03  0.00000000000E+00 0. -1.
         24    2    1    2    0    0 -0.71161455224E+01  0.35424401743E+02 -0.47849680173E+03  0.48488342554E+03  0.69621974451E+02 0.  0.
        -11    1    3    3    0    0 -0.36291499299E+02  0.14611519044E+02 -0.17748434055E+03  0.18174504271E+03  0.00000000000E+00 0.  1.
         12    1    3    3    0    0  0.29175353777E+02  0.20812882699E+02 -0.30101246118E+03  0.30313838283E+03  0.00000000000E+00 0. -1.
          3    1    1    2  501    0  0.71161455224E+01 -0.35424401743E+02 -0.27592691101E+02  0.45462999991E+02  0.00000000000E+00 0. -1.
<mgrwt>
<rscale>  1 0.78439449E+02</rscale>
<asrwt>0</asrwt>
<pdfrwt beam="1">  1       21 0.18659174E-02 0.78439449E+02</pdfrwt>
<pdfrwt beam="2">  1        4 0.79725861E-01 0.78439449E+02</pdfrwt>
<totfact> 0.72788144E+04</totfact>
</mgrwt>
</event>
<event>
 6    2  0.9453093E+000  0.7515650E+02  0.7546771E-02  0.1343387E+00
          2   -1    0    0  502    0 -0.00000000000E+00  0.00000000000E+00  0.16500116657E+04  0.16500116657E+04  0.00000000000E+00 0. -1.
         21   -1    0    0  501  502  0.00000000000E+00 -0.00000000000E+00 -0.18579582729E+01  0.18579582729E+01  0.00000000000E+00 0. -1.
         24    2    1    2    0    0  0.14718019113E+02  0.16606180002E+02  0.15163266834E+04  0.15181881011E+04  0.71806087137E+02 0.  0.
        -11    1    3    3    0    0 -0.96884228520E+01 -0.12232227930E+02  0.88733604833E+02  0.90095202781E+02  0.00000000000E+00 0.  1.
         12    1    3    3    0    0  0.24406441965E+02  0.28838407932E+02  0.14275930786E+04  0.14280928983E+04  0.00000000000E+00 0. -1.
          1    1    1    2  501    0 -0.14718019113E+02 -0.16606180002E+02  0.13182702404E+03  0.13368152292E+03  0.00000000000E+00 0. -1.
<mgrwt>
<rscale>  1 0.75156500E+02</rscale>
<asrwt>0</asrwt>
<pdfrwt beam="1">  1       21 0.28584105E-03 0.75156500E+02</pdfrwt>
<pdfrwt beam="2">  1        2 0.25384678E+00 0.75156500E+02</pdfrwt>
<totfact> 0.36121437E+06</totfact>
</mgrwt>
</event>
<event>
 6    2  0.9453093E+000  0.9264778E+02  0.7546771E-02  0.1296563E+00
          2   -1    0    0  502    0 -0.00000000000E+00  0.00000000000E+00  0.13600754847E+04  0.13600754847E+04  0.00000000000E+00 0. -1.
         21   -1    0    0  501  502  0.00000000000E+00 -0.00000000000E+00 -0.36572852562E+01  0.36572852562E+01  0.00000000000E+00 0.  1.
         24    2    1    2    0    0  0.25836384308E+02  0.37538936743E+02  0.77173502958E+03  0.77727637801E+03  0.80665490850E+02 0.  0.
        -13    1    3    3    0    0  0.30468703495E+01  0.38771167022E+02  0.14496919576E+03  0.15009515159E+03  0.00000000000E+00 0.  1.
         14    1    3    3    0    0  0.22789513958E+02 -0.12322302794E+01  0.62676583381E+03  0.62718122642E+03  0.00000000000E+00 0. -1.
          1    1    1    2  501    0 -0.25836384308E+02 -0.37538936743E+02  0.58468316982E+03  0.58645639190E+03  0.00000000000E+00 0. -1.
<mgrwt>
<rscale>  1 0.92647784E+02</rscale>
<asrwt>0</asrwt>
<pdfrwt beam="1">  1       21 0.56266036E-03 0.92647784E+02</pdfrwt>
<pdfrwt beam="2">  1        2 0.20924198E+00 0.92647784E+02</pdfrwt>
<totfact> 0.18453775E+06</totfact>
</mgrwt>
</event>
<event>
 6    2  0.9453093E+000  0.8507678E+02  0.7546771E-02  0.1315232E+00
          2   -1    0    0  502    0 -0.00000000000E+00  0.00000000000E+00  0.14854401977E+03  0.14854401977E+03  0.00000000000E+00 0. -1.
         21   -1    0    0  501  502  0.00000000000E+00 -0.00000000000E+00 -0.49254689400E+02  0.49254689400E+02  0.00000000000E+00 0.  1.
         24    2    1    2    0    0 -0.26273650416E+02 -0.11331698390E+01 -0.97493343430E+01  0.85633566712E+02  0.80910255516E+02 0.  0.
        -11    1    3    3    0    0 -0.13986734124E+02  0.36083430569E+02 -0.22069905935E+02  0.44550235028E+02  0.00000000000E+00 0.  1.
         12    1    3    3    0    0 -0.12286916292E+02 -0.37216600408E+02  0.12320571592E+02  0.41083331684E+02  0.00000000000E+00 0. -1.
          1    1    1    2  501    0  0.26273650416E+02  0.11331698390E+01  0.10903866471E+03  0.11216514246E+03  0.00000000000E+00 0. -1.
<mgrwt>
<rscale>  1 0.85076778E+02</rscale>
<asrwt>0</asrwt>
<pdfrwt beam="1">  1       21 0.75776446E-02 0.85076778E+02</pdfrwt>
<pdfrwt beam="2">  1        2 0.22852926E-01 0.85076778E+02</pdfrwt>
<totfact> 0.36400474E+05</totfact>
</mgrwt>
</event>
<event>
 6    2  0.9453093E+000  0.1035579E+03  0.7546771E-02  0.1272987E+00
         21   -1    0    0  501  502  0.00000000000E+00  0.00000000000E+00  0.62545596731E+01  0.62545596731E+01  0.00000000000E+00 0. -1.
          2   -1    0    0  502    0 -0.00000000000E+00 -0.00000000000E+00 -0.26166584418E+04  0.26166584418E+04  0.00000000000E+00 0. -1.
         24    2    1    2    0    0 -0.66640615314E+01 -0.60438988418E+02 -0.24362377337E+04  0.24384377232E+04  0.83826927386E+02 0.  0.
        -13    1    3    3    0    0 -0.40368688944E+02 -0.51818319599E+02 -0.12889819601E+04  0.12906545870E+04  0.00000000000E+00 0.  1.
         14    1    3    3    0    0  0.33704627412E+02 -0.86206688185E+01 -0.11472557736E+04  0.11477831363E+04  0.00000000000E+00 0. -1.
          1    1    1    2  501    0  0.66640615314E+01  0.60438988418E+02 -0.17416614837E+03  0.18447527822E+03  0.00000000000E+00 0. -1.
<mgrwt>
<rscale>  1 0.10355788E+03</rscale>
<asrwt>0</asrwt>
<pdfrwt beam="1">  1       21 0.96223671E-03 0.10355788E+03</pdfrwt>
<pdfrwt beam="2">  1        2 0.40256419E+00 0.10355788E+03</pdfrwt>
<totfact> 0.18291524E+05</totfact>
</mgrwt>
</event>
<event>
 6    2  0.9453093E+000  0.8781685E+02  0.7546771E-02  0.1308226E+00
         21   -1    0    0  501  502  0.00000000000E+00  0.00000000000E+00  0.87164390531E+01  0.87164390531E+01  0.00000000000E+00 0. -1.
          2   -1    0    0  502    0 -0.00000000000E+00 -0.00000000000E+00 -0.44301966837E+03  0.44301966837E+03  0.00000000000E+00 0. -1.
         24    2    1    2    0    0 -0.73635214428E+01  0.35696532758E+02 -0.31037844804E+03  0.32256252145E+03  0.79895777965E+02 0.  0.
        -13    1    3    3    0    0  0.30018182347E+02 -0.17297337409E+01 -0.16812221723E+03  0.17078982164E+03  0.00000000000E+00 0.  1.
         14    1    3    3    0    0 -0.37381703790E+02  0.37426266499E+02 -0.14225623081E+03  0.15177269981E+03  0.00000000000E+00 0. -1.
          1    1    1    2  501    0  0.73635214428E+01 -0.35696532758E+02 -0.12392478128E+03  0.12917358598E+03  0.00000000000E+00 0. -1.
<mgrwt>
<rscale>  1 0.87816851E+02</rscale>
<asrwt>0</asrwt>
<pdfrwt beam="1">  1       21 0.13409906E-02 0.87816851E+02</pdfrwt>
<pdfrwt beam="2">  1        2 0.68156872E-01 0.87816851E+02</pdfrwt>
<totfact> 0.19373333E+06</totfact>
</mgrwt>
</event>
<event>
 6    2  0.9453093E+000  0.8448668E+02  0.7546771E-02  0.1316780E+00
          2   -1    0    0  502    0 -0.00000000000E+00  0.00000000000E+00  0.37876921238E+02  0.37876921238E+02  0.00000000000E+00 0. -1.
         21   -1    0    0  501  502  0.00000000000E+00 -0.00000000000E+00 -0.90215513826E+02  0.90215513826E+02  0.00000000000E+00 0. -1.
         24    2    1    2    0    0 -0.16859988123E+02  0.19762332226E+02 -0.20383705331E+02  0.86910839732E+02  0.80393965230E+02 0.  0.
        -11    1    3    3    0    0  0.26757724233E+02 -0.12622014086E+02 -0.23843775200E+01  0.29681244951E+02  0.00000000000E+00 0.  1.
         12    1    3    3    0    0 -0.43617712355E+02  0.32384346312E+02 -0.17999327811E+02  0.57229594781E+02  0.00000000000E+00 0. -1.
          1    1    1    2  501    0  0.16859988123E+02 -0.19762332226E+02 -0.31954887257E+02  0.41181595332E+02  0.00000000000E+00 0. -1.
<mgrwt>
<rscale>  1 0.84486677E+02</rscale>
<asrwt>0</asrwt>
<pdfrwt beam="1">  1       21 0.13879310E-01 0.84486677E+02</pdfrwt>
<pdfrwt beam="2">  1        2 0.58272187E-02 0.84486677E+02</pdfrwt>
<totfact> 0.64613220E+05</totfact>
</mgrwt>
</event>
<event>
 6    2  0.9453093E+000  0.8678627E+02  0.7546771E-02  0.1310826E+00
         -3   -1    0    0    0  501 -0.00000000000E+00  0.00000000000E+00  0.73999691428E+01  0.73999691428E+01  0.00000000000E+00 0.  1.
         21   -1    0    0  501  502  0.00000000000E+00 -0.00000000000E+00 -0.55394518821E+03  0.55394518821E+03  0.00000000000E+00 0. -1.
         24    2    1    2    0    0 -0.23717960073E+02  0.21398377696E+02 -0.47678048503E+03  0.48461478323E+03  0.80693401341E+02 0.  0.
        -11    1    3    3    0    0 -0.24347314753E+02 -0.21557700333E+02 -0.94727957522E+02  0.10015444132E+03  0.00000000000E+00 0.  1.
         12    1    3    3    0    0  0.62935468051E+00  0.42956078029E+02 -0.38205252751E+03  0.38446034191E+03  0.00000000000E+00 0. -1.
         -4    1    1    2    0  502  0.23717960073E+02 -0.21398377696E+02 -0.69764734037E+02  0.76730374125E+02  0.00000000000E+00 0.  1.
<mgrwt>
<rscale>  1 0.86786273E+02</rscale>
<asrwt>0</asrwt>
<pdfrwt beam="1">  1       21 0.85222315E-01 0.86786273E+02</pdfrwt>
<pdfrwt beam="2">  1       -3 0.11384571E-02 0.86786273E+02</pdfrwt>
<totfact> 0.12183905E+05</totfact>
</mgrwt>
</event>
<event>
 6    2  0.9453093E+000  0.1010536E+03  0.7546771E-02  0.1278096E+00
         21   -1    0    0  501  502  0.00000000000E+00  0.00000000000E+00  0.20551009692E+01  0.20551009692E+01  0.00000000000E+00 0. -1.
          2   -1    0    0  502    0 -0.00000000000E+00 -0.00000000000E+00 -0.25393106643E+04  0.25393106643E+04  0.00000000000E+00 0. -1.
         24    2    1    2    0    0  0.24307653773E+02  0.35455563977E+02 -0.16864713773E+04  0.16894962387E+04  0.91454224486E+02 0.  0.
        -13    1    3    3    0    0  0.46908916730E+02 -0.12055940413E+02 -0.81824645674E+03  0.81967862979E+03  0.00000000000E+00 0.  1.
         14    1    3    3    0    0 -0.22601262956E+02  0.47511504390E+02 -0.86822492056E+03  0.86981760894E+03  0.00000000000E+00 0. -1.
          1    1    1    2  501    0 -0.24307653773E+02 -0.35455563977E+02 -0.85078418599E+03  0.85186952650E+03  0.00000000000E+00 0. -1.
<mgrwt>
<rscale>  1 0.10105362E+03</rscale>
<asrwt>0</asrwt>
<pdfrwt beam="1">  1       21 0.31617020E-03 0.10105362E+03</pdfrwt>
<pdfrwt beam="2">  1        2 0.39066216E+00 0.10105362E+03</pdfrwt>
<totfact> 0.11178504E+06</totfact>
</mgrwt>
</event>
<event>
 6    2  0.9453093E+000  0.1121930E+03  0.7546771E-02  0.1256562E+00
         21   -1    0    0  501  502  0.00000000000E+00  0.00000000000E+00  0.10251852745E+03  0.10251852745E+03  0.00000000000E+00 0.  1.
         -1   -1    0    0    0  501 -0.00000000000E+00 -0.00000000000E+00 -0.10296979770E+03  0.10296979770E+03  0.00000000000E+00 0.  1.
         24    2    1    2    0    0  0.50625416212E+02 -0.58876252588E+02  0.38503166965E+02  0.11861603920E+03  0.80981016319E+02 0.  0.
        -11    1    3    3    0    0  0.62823598604E+00 -0.60916923006E+02  0.29829128278E+02  0.67830989103E+02  0.00000000000E+00 0.  1.
         12    1    3    3    0    0  0.49997180226E+02  0.20406704180E+01  0.86740386878E+01  0.50785050098E+02  0.00000000000E+00 0. -1.
         -2    1    1    2    0  502 -0.50625416212E+02  0.58876252588E+02 -0.38954437216E+02  0.86872285939E+02  0.00000000000E+00 0.  1.
<mgrwt>
<rscale>  1 0.11219301E+03</rscale>
<asrwt>0</asrwt>
<pdfrwt beam="1">  1       21 0.15772081E-01 0.11219301E+03</pdfrwt>
<pdfrwt beam="2">  1       -1 0.15841507E-01 0.11219301E+03</pdfrwt>
<totfact> 0.92807459E+04</totfact>
</mgrwt>
</event>
<event>
 6    2  0.9453093E+000  0.8413001E+02  0.7546771E-02  0.1317723E+00
          2   -1    0    0  502    0 -0.00000000000E+00  0.00000000000E+00  0.18017723464E+04  0.18017723464E+04  0.00000000000E+00 0. -1.
         21   -1    0    0  501  502  0.00000000000E+00 -0.00000000000E+00 -0.52393958585E+01  0.52393958585E+01  0.00000000000E+00 0. -1.
         24    2    1    2    0    0 -0.46298294440E+01 -0.20889088776E+02  0.17737983197E+04  0.17757923126E+04  0.81363806256E+02 0.  0.
        -13    1    3    3    0    0 -0.38390739929E+02  0.19578641078E+01  0.56462925039E+03  0.56593627957E+03  0.00000000000E+00 0.  1.
         14    1    3    3    0    0  0.33760910485E+02 -0.22846952884E+02  0.12091690694E+04  0.12098560330E+04  0.00000000000E+00 0. -1.
          1    1    1    2  501    0  0.46298294440E+01  0.20889088776E+02  0.22734630744E+02  0.31219429618E+02  0.00000000000E+00 0. -1.
<mgrwt>
<rscale>  1 0.84130008E+02</rscale>
<asrwt>0</asrwt>
<pdfrwt beam="1">  1       21 0.80606234E-03 0.84130008E+02</pdfrwt>
<pdfrwt beam="2">  1        2 0.27719525E+00 0.84130008E+02</pdfrwt>
<totfact> 0.62828156E+05</totfact>
</mgrwt>
</event>
<event>
 6    2  0.9453093E+000  0.8557272E+02  0.7546771E-02  0.1313942E+00
         21   -1    0    0  501  502  0.00000000000E+00  0.00000000000E+00  0.60975704105E+03  0.60975704105E+03  0.00000000000E+00 0.  1.
         -1   -1    0    0    0  501 -0.00000000000E+00 -0.00000000000E+00 -0.57922105316E+01  0.57922105316E+01  0.00000000000E+00 0.  1.
         24    2    1    2    0    0  0.32751775800E+02 -0.56265646437E+01  0.42655214624E+03  0.43505105882E+03  0.78856535999E+02 0.  0.
        -13    1    3    3    0    0  0.15655940507E+02 -0.41849056888E+02  0.19439345079E+03  0.19946244194E+03  0.00000000000E+00 0.  1.
         14    1    3    3    0    0  0.17095835293E+02  0.36222492244E+02  0.23215869546E+03  0.23558861688E+03  0.00000000000E+00 0. -1.
         -2    1    1    2    0  502 -0.32751775800E+02  0.56265646437E+01  0.17741268428E+03  0.18049819276E+03  0.00000000000E+00 0.  1.
<mgrwt>
<rscale>  1 0.85572719E+02</rscale>
<asrwt>0</asrwt>
<pdfrwt beam="1">  1       21 0.93808725E-01 0.85572719E+02</pdfrwt>
<pdfrwt beam="2">  1       -1 0.89110979E-03 0.85572719E+02</pdfrwt>
<totfact> 0.17515095E+05</totfact>
</mgrwt>
</event>
<event>
 6    2  0.9453093E+000  0.9449649E+02  0.7546771E-02  0.1292314E+00
         -3   -1    0    0    0  501 -0.00000000000E+00  0.00000000000E+00  0.31088650497E+02  0.31088650497E+02  0.00000000000E+00 0.  1.
         21   -1    0    0  501  502  0.00000000000E+00 -0.00000000000E+00 -0.88941948109E+03  0.88941948109E+03  0.00000000000E+00 0.  1.
         24    2    1    2    0    0  0.32826489286E+02  0.36376538215E+02 -0.43194852317E+02  0.10390082449E+03  0.80800712440E+02 0.  0.
        -11    1    3    3    0    0  0.52401222299E+02  0.44969937872E+02 -0.19007914039E+02  0.71620417527E+02  0.00000000000E+00 0.  1.
         12    1    3    3    0    0 -0.19574733013E+02 -0.85933996572E+01 -0.24186938278E+02  0.32280406959E+02  0.00000000000E+00 0. -1.
         -4    1    1    2    0  502 -0.32826489286E+02 -0.36376538215E+02 -0.81513597827E+03  0.81660730710E+03  0.00000000000E+00 0.  1.
<mgrwt>
<rscale>  1 0.94496487E+02</rscale>
<asrwt>0</asrwt>
<pdfrwt beam="1">  1       21 0.13683377E+00 0.94496487E+02</pdfrwt>
<pdfrwt beam="2">  1       -3 0.47828692E-02 0.94496487E+02</pdfrwt>
<totfact> 0.45412239E+03</totfact>
</mgrwt>
</event>
<event>
 6    2  0.9453093E+000  0.9174213E+02  0.7546771E-02  0.1298687E+00
          4   -1    0    0  502    0 -0.00000000000E+00  0.00000000000E+00  0.60452721882E+03  0.60452721882E+03  0.00000000000E+00 0. -1.
         21   -1    0    0  501  502  0.00000000000E+00 -0.00000000000E+00 -0.16773017047E+02  0.16773017047E+02  0.00000000000E+00 0.  1.
         24    2    1    2    0    0  0.96710739049E+01 -0.43909883556E+02  0.56209271170E+03  0.56953036415E+03  0.79968816427E+02 0.  0.
        -13    1    3    3    0    0  0.31002668703E+02 -0.53013994186E+02  0.28893113458E+03  0.29538593327E+03  0.00000000000E+00 0.  1.
         14    1    3    3    0    0 -0.21331594798E+02  0.91041106298E+01  0.27316157713E+03  0.27414443088E+03  0.00000000000E+00 0. -1.
          3    1    1    2  501    0 -0.96710739049E+01  0.43909883556E+02  0.25661490070E+02  0.51769871712E+02  0.00000000000E+00 0. -1.
<mgrwt>
<rscale>  1 0.91742134E+02</rscale>
<asrwt>0</asrwt>
<pdfrwt beam="1">  1       21 0.25804646E-02 0.91742134E+02</pdfrwt>
<pdfrwt beam="2">  1        4 0.93004171E-01 0.91742134E+02</pdfrwt>
<totfact> 0.31559609E+04</totfact>
</mgrwt>
</event>
<event>
 6    2  0.9453093E+000  0.8316421E+02  0.7546771E-02  0.1320304E+00
         21   -1    0    0  501  502  0.00000000000E+00  0.00000000000E+00  0.28365714306E+01  0.28365714306E+01  0.00000000000E+00 0.  1.
          2   -1    0    0  502    0 -0.00000000000E+00 -0.00000000000E+00 -0.10566587966E+04  0.10566587966E+04  0.00000000000E+00 0. -1.
         24    2    1    2    0    0  0.15612384480E+02 -0.19685825789E+02 -0.86960485500E+03  0.87357248682E+03  0.79278039838E+02 0.  0.
        -11    1    3    3    0    0  0.65717085092E+01 -0.44134720509E+02 -0.29295343717E+03  0.29633220759E+03  0.00000000000E+00 0.  1.
         12    1    3    3    0    0  0.90406759707E+01  0.24448894721E+02 -0.57665141783E+03  0.57724027923E+03  0.00000000000E+00 0. -1.
          1    1    1    2  501    0 -0.15612384480E+02  0.19685825789E+02 -0.18421737019E+03  0.18592288123E+03  0.00000000000E+00 0. -1.
<mgrwt>
<rscale>  1 0.83164210E+02</rscale>
<asrwt>0</asrwt>
<pdfrwt beam="1">  1       21 0.43639597E-03 0.83164210E+02</pdfrwt>
<pdfrwt beam="2">  1        2 0.16256276E+00 0.83164210E+02</pdfrwt>
<totfact> 0.39365028E+06</totfact>
</mgrwt>
</event>
<event>
 6    2  0.9453093E+000  0.8595313E+02  0.7546771E-02  0.1312959E+00
         21   -1    0    0  501  502  0.00000000000E+00  0.00000000000E+00  0.57719049368E+02  0.57719049368E+02  0.00000000000E+00 0.  1.
          2   -1    0    0  502    0 -0.00000000000E+00 -0.00000000000E+00 -0.62468310854E+02  0.62468310854E+02  0.00000000000E+00 0. -1.
         24    2    1    2    0    0  0.20465358455E+02  0.21005609521E+02 -0.18302457029E+02  0.87880153016E+02  0.80795264915E+02 0.  0.
        -13    1    3    3    0    0  0.13109670127E+02  0.30093555222E+00  0.31132825747E+02  0.33781753241E+02  0.00000000000E+00 0.  1.
         14    1    3    3    0    0  0.73556883278E+01  0.20704673969E+02 -0.49435282777E+02  0.54098399774E+02  0.00000000000E+00 0. -1.
          1    1    1    2  501    0 -0.20465358455E+02 -0.21005609521E+02  0.13553195544E+02  0.32307207207E+02  0.00000000000E+00 0. -1.
<mgrwt>
<rscale>  1 0.85953135E+02</rscale>
<asrwt>0</asrwt>
<pdfrwt beam="1">  1       21 0.88798538E-02 0.85953135E+02</pdfrwt>
<pdfrwt beam="2">  1        2 0.96105093E-02 0.85953135E+02</pdfrwt>
<totfact> 0.75638466E+05</totfact>
</mgrwt>
</event>
<event>
 6    2  0.9453093E+000  0.8862798E+02  0.7546771E-02  0.1306209E+00
          2   -1    0    0  502    0 -0.00000000000E+00  0.00000000000E+00  0.31113964164E+03  0.31113964164E+03  0.00000000000E+00 0. -1.
         21   -1    0    0  501  502  0.00000000000E+00 -0.00000000000E+00 -0.13202241356E+02  0.13202241356E+02  0.00000000000E+00 0. -1.
         24    2    1    2    0    0  0.88467894142E+01  0.38140784391E+02  0.19444663493E+03  0.21369232976E+03  0.79510583238E+02 0.  0.
        -13    1    3    3    0    0  0.15073563187E+02 -0.22557075914E+02  0.70530925670E+02  0.75568812726E+02  0.00000000000E+00 0.  1.
         14    1    3    3    0    0 -0.62267737727E+01  0.60697860305E+02  0.12391570926E+03  0.13812351704E+03  0.00000000000E+00 0. -1.
          1    1    1    2  501    0 -0.88467894142E+01 -0.38140784391E+02  0.10349076535E+03  0.11064955323E+03  0.00000000000E+00 0. -1.
<mgrwt>
<rscale>  1 0.88627975E+02</rscale>
<asrwt>0</asrwt>
<pdfrwt beam="1">  1       21 0.20311143E-02 0.88627975E+02</pdfrwt>
<pdfrwt beam="2">  1        2 0.47867632E-01 0.88627975E+02</pdfrwt>
<totfact> 0.14534484E+06</totfact>
</mgrwt>
</event>
<event>
 6    2  0.9453093E+000  0.8525701E+02  0.7546771E-02  0.1314762E+00
         21   -1    0    0  501  502  0.00000000000E+00  0.00000000000E+00  0.55037807924E+01  0.55037807924E+01  0.00000000000E+00 0.  1.
          2   -1    0    0  502    0 -0.00000000000E+00 -0.00000000000E+00 -0.69472722007E+03  0.69472722007E+03  0.00000000000E+00 0. -1.
         24    2    1    2    0    0  0.11862019108E+02 -0.30952749025E+02 -0.39196322885E+03  0.40112832138E+03  0.78549202885E+02 0.  0.
        -11    1    3    3    0    0 -0.29612525046E+02 -0.22051596203E+02 -0.11095951861E+03  0.11694096504E+03  0.00000000000E+00 0.  1.
         12    1    3    3    0    0  0.41474544154E+02 -0.89011528217E+01 -0.28100371024E+03  0.28418735634E+03  0.00000000000E+00 0. -1.
          1    1    1    2  501    0 -0.11862019108E+02  0.30952749025E+02 -0.29726021043E+03  0.29910267949E+03  0.00000000000E+00 0. -1.
<mgrwt>
<rscale>  1 0.85257008E+02</rscale>
<asrwt>0</asrwt>
<pdfrwt beam="1">  1       21 0.84673530E-03 0.85257008E+02</pdfrwt>
<pdfrwt beam="2">  1        2 0.10688114E+00 0.85257008E+02</pdfrwt>
<totfact> 0.24137489E+06</totfact>
</mgrwt>
</event>
<event>
 6    2  0.9453093E+000  0.9044675E+02  0.7546771E-02  0.1301773E+00
         -1   -1    0    0    0  501 -0.00000000000E+00  0.00000000000E+00  0.35087195366E+02  0.35087195366E+02  0.00000000000E+00 0.  1.
         21   -1    0    0  501  502  0.00000000000E+00 -0.00000000000E+00 -0.13946713018E+03  0.13946713018E+03  0.00000000000E+00 0.  1.
         24    2    1    2    0    0  0.36098902090E+02  0.21377294226E+02 -0.42852880580E+02  0.10008488320E+03  0.80127991554E+02 0.  0.
        -11    1    3    3    0    0  0.60382618824E+02  0.41830305835E+01 -0.31541787818E+02  0.68252785875E+02  0.00000000000E+00 0.  1.
         12    1    3    3    0    0 -0.24283716734E+02  0.17194263643E+02 -0.11311092762E+02  0.31832097325E+02  0.00000000000E+00 0. -1.
         -2    1    1    2    0  502 -0.36098902090E+02 -0.21377294226E+02 -0.61527054230E+02  0.74469442342E+02  0.00000000000E+00 0.  1.
<mgrwt>
<rscale>  1 0.90446749E+02</rscale>
<asrwt>0</asrwt>
<pdfrwt beam="1">  1       21 0.21456482E-01 0.90446749E+02</pdfrwt>
<pdfrwt beam="2">  1       -1 0.53980300E-02 0.90446749E+02</pdfrwt>
<totfact> 0.26518202E+05</totfact>
</mgrwt>
</event>
<event>
 6    2  0.9453093E+000  0.8645809E+02  0.7546771E-02  0.1311663E+00
         21   -1    0    0  501  502  0.00000000000E+00  0.00000000000E+00  0.12129076119E+04  0.12129076119E+04  0.00000000000E+00 0. -1.
          2   -1    0    0  502    0 -0.00000000000E+00 -0.00000000000E+00 -0.72206313347E+01  0.72206313347E+01  0.00000000000E+00 0. -1.
         24    2    1    2    0    0  0.10630549239E+02 -0.31898162756E+02  0.26309508153E+03  0.27693685783E+03  0.79652369318E+02 0.  0.
        -13    1    3    3    0    0 -0.32092309946E+02  0.73807353567E+00  0.11451832391E+03  0.11893236574E+03  0.00000000000E+00 0.  1.
         14    1    3    3    0    0  0.42722859185E+02 -0.32636236292E+02  0.14857675762E+03  0.15800449209E+03  0.00000000000E+00 0. -1.
          1    1    1    2  501    0 -0.10630549239E+02  0.31898162756E+02  0.94259189899E+03  0.94319138535E+03  0.00000000000E+00 0. -1.
<mgrwt>
<rscale>  1 0.86458090E+02</rscale>
<asrwt>0</asrwt>
<pdfrwt beam="1">  1       21 0.18660101E+00 0.86458090E+02</pdfrwt>
<pdfrwt beam="2">  1        2 0.11108673E-02 0.86458090E+02</pdfrwt>
<totfact> 0.24554784E+04</totfact>
</mgrwt>
</event>
<event>
 6    2  0.9453093E+000  0.8339716E+02  0.7546771E-02  0.1319678E+00
         -1   -1    0    0    0  501 -0.00000000000E+00  0.00000000000E+00  0.31828335146E+03  0.31828335146E+03  0.00000000000E+00 0.  1.
         21   -1    0    0  501  502  0.00000000000E+00 -0.00000000000E+00 -0.98334221403E+01  0.98334221403E+01  0.00000000000E+00 0.  1.
         24    2    1    2    0    0 -0.10043995802E+02 -0.21423434827E+02  0.27333109035E+03  0.28577083800E+03  0.79970253764E+02 0.  0.
        -11    1    3    3    0    0  0.12383325833E+02 -0.35133466452E+02  0.24210407506E+03  0.24495324122E+03  0.00000000000E+00 0.  1.
         12    1    3    3    0    0 -0.22427321635E+02  0.13710031625E+02  0.31227015291E+02  0.40817596780E+02  0.00000000000E+00 0. -1.
         -2    1    1    2    0  502  0.10043995802E+02  0.21423434827E+02  0.35118838976E+02  0.42345935607E+02  0.00000000000E+00 0.  1.
<mgrwt>
<rscale>  1 0.83397164E+02</rscale>
<asrwt>0</asrwt>
<pdfrwt beam="1">  1       21 0.15128344E-02 0.83397164E+02</pdfrwt>
<pdfrwt beam="2">  1       -1 0.48966662E-01 0.83397164E+02</pdfrwt>
<totfact> 0.70365861E+05</totfact>
</mgrwt>
</event>
<event>
 6    2  0.9453093E+000  0.9475095E+02  0.7546771E-02  0.1291738E+00
         21   -1    0    0  501  502  0.00000000000E+00  0.00000000000E+00  0.22514775765E+01  0.22514775765E+01  0.00000000000E+00 0. -1.
          2   -1    0    0  502    0 -0.00000000000E+00 -0.00000000000E+00 -0.24574330509E+04  0.24574330509E+04  0.00000000000E+00 0. -1.
         24    2    1    2    0    0 -0.10017416673E+02 -0.50239031937E+02 -0.18065920608E+04  0.18090750721E+04  0.79708427364E+02 0.  0.
        -11    1    3    3    0    0  0.11406422778E+01 -0.54373259450E+01 -0.72168075664E+01  0.91075732053E+01  0.00000000000E+00 0.  1.
         12    1    3    3    0    0 -0.11158058950E+02 -0.44801705992E+02 -0.17993752533E+04  0.17999674989E+04  0.00000000000E+00 0. -1.
          1    1    1    2  501    0  0.10017416673E+02  0.50239031937E+02 -0.64858951248E+03  0.65060945633E+03  0.00000000000E+00 0. -1.
<mgrwt>
<rscale>  1 0.94750949E+02</rscale>
<asrwt>0</asrwt>
<pdfrwt beam="1">  1       21 0.34637925E-03 0.94750949E+02</pdfrwt>
<pdfrwt beam="2">  1        2 0.37806871E+00 0.94750949E+02</pdfrwt>
<totfact> 0.10723236E+06</totfact>
</mgrwt>
</event>
<event>
 6    2  0.9453093E+000  0.1692145E+03  0.7546771E-02  0.1178670E+00
          2   -1    0    0  502    0 -0.00000000000E+00  0.00000000000E+00  0.46652680538E+03  0.46652680538E+03  0.00000000000E+00 0. -1.
         21   -1    0    0  501  502  0.00000000000E+00 -0.00000000000E+00 -0.59049247885E+02  0.59049247885E+02  0.00000000000E+00 0. -1.
         24    2    1    2    0    0  0.65217920721E+02 -0.13404264252E+03  0.29009736529E+03  0.33584224837E+03  0.80079505768E+02 0.  0.
        -11    1    3    3    0    0  0.31098854761E+02 -0.13947195719E+02  0.23322959866E+02  0.41299194820E+02  0.00000000000E+00 0.  1.
         12    1    3    3    0    0  0.34119065960E+02 -0.12009544680E+03  0.26677440543E+03  0.29454305355E+03  0.00000000000E+00 0. -1.
          1    1    1    2  501    0 -0.65217920721E+02  0.13404264252E+03  0.11738019220E+03  0.18973380489E+03  0.00000000000E+00 0. -1.
<mgrwt>
<rscale>  1 0.16921446E+03</rscale>
<asrwt>0</asrwt>
<pdfrwt beam="1">  1       21 0.90845000E-02 0.16921446E+03</pdfrwt>
<pdfrwt beam="2">  1        2 0.71773352E-01 0.16921446E+03</pdfrwt>
<totfact> 0.80793617E+04</totfact>
</mgrwt>
</event>
<event>
 6    2  0.9453093E+000  0.7986958E+02  0.7546771E-02  0.1329422E+00
         21   -1    0    0  501  502  0.00000000000E+00  0.00000000000E+00  0.17877911831E+02  0.17877911831E+02  0.00000000000E+00 0. -1.
          2   -1    0    0  502    0 -0.00000000000E+00 -0.00000000000E+00 -0.27667561500E+03  0.27667561500E+03  0.00000000000E+00 0. -1.
         24    2    1    2    0    0 -0.37174552906E+00  0.26239844068E+02 -0.25599096788E+03  0.26816138076E+03  0.75435289379E+02 0.  0.
        -11    1    3    3    0    0 -0.28617938642E+02  0.18230287032E+02 -0.52150694166E+02  0.62217559253E+02  0.00000000000E+00 0.  1.
         12    1    3    3    0    0  0.28246193113E+02  0.80095570360E+01 -0.20384027371E+03  0.20594382151E+03  0.00000000000E+00 0. -1.
          1    1    1    2  501    0  0.37174552906E+00 -0.26239844068E+02 -0.28067352927E+01  0.26392146075E+02  0.00000000000E+00 0. -1.
<mgrwt>
<rscale>  1 0.79869584E+02</rscale>
<asrwt>0</asrwt>
<pdfrwt beam="1">  1       21 0.27504479E-02 0.79869584E+02</pdfrwt>
<pdfrwt beam="2">  1        2 0.42565480E-01 0.79869584E+02</pdfrwt>
<totfact> 0.99744822E+05</totfact>
</mgrwt>
</event>
<event>
 6    2  0.9453093E+000  0.1023416E+03  0.7546771E-02  0.1275448E+00
          2   -1    0    0  502    0 -0.00000000000E+00  0.00000000000E+00  0.22642756761E+03  0.22642756761E+03  0.00000000000E+00 0. -1.
         21   -1    0    0  501  502  0.00000000000E+00 -0.00000000000E+00 -0.30553188425E+02  0.30553188425E+02  0.00000000000E+00 0.  1.
         24    2    1    2    0    0 -0.45990868704E+02 -0.41811057593E+02  0.10277532721E+03  0.14503988763E+03  0.81304837365E+02 0.  0.
        -11    1    3    3    0    0 -0.91412555847E+01 -0.54831648766E+02  0.31868185530E+02  0.64075373655E+02  0.00000000000E+00 0.  1.
         12    1    3    3    0    0 -0.36849613119E+02  0.13020591173E+02  0.70907141684E+02  0.80964513976E+02  0.00000000000E+00 0. -1.
          1    1    1    2  501    0  0.45990868704E+02  0.41811057593E+02  0.93099051973E+02  0.11194086841E+03  0.00000000000E+00 0. -1.
<mgrwt>
<rscale>  1 0.10234159E+03</rscale>
<asrwt>0</asrwt>
<pdfrwt beam="1">  1       21 0.47004907E-02 0.10234159E+03</pdfrwt>
<pdfrwt beam="2">  1        2 0.34835009E-01 0.10234159E+03</pdfrwt>
<totfact> 0.52395426E+05</totfact>
</mgrwt>
</event>
<event>
 6    2  0.9453093E+000  0.8420986E+02  0.7546771E-02  0.1317512E+00
         21   -1    0    0  501  502  0.00000000000E+00  0.00000000000E+00  0.10623971247E+02  0.10623971247E+02  0.00000000000E+00 0. -1.
          2   -1    0    0  502    0 -0.00000000000E+00 -0.00000000000E+00 -0.87203057907E+03  0.87203057907E+03  0.00000000000E+00 0. -1.
         24    2    1    2    0    0 -0.11494894059E+02  0.17977412687E+02 -0.85666744144E+03  0.86079637898E+03  0.81461530060E+02 0.  0.
        -11    1    3    3    0    0  0.16556503653E+02  0.39016748064E+02 -0.29424502712E+03  0.29728195443E+03  0.00000000000E+00 0.  1.
         12    1    3    3    0    0 -0.28051397713E+02 -0.21039335377E+02 -0.56242241432E+03  0.56351442455E+03  0.00000000000E+00 0. -1.
          1    1    1    2  501    0  0.11494894059E+02 -0.17977412687E+02 -0.47391663844E+01  0.21858171341E+02  0.00000000000E+00 0. -1.
<mgrwt>
<rscale>  1 0.84209862E+02</rscale>
<asrwt>0</asrwt>
<pdfrwt beam="1">  1       21 0.16344570E-02 0.84209862E+02</pdfrwt>
<pdfrwt beam="2">  1        2 0.13415856E+00 0.84209862E+02</pdfrwt>
<totfact> 0.65312356E+05</totfact>
</mgrwt>
</event>
<event>
 6    2  0.9453093E+000  0.1066786E+03  0.7546771E-02  0.1266847E+00
         -1   -1    0    0    0  501 -0.00000000000E+00  0.00000000000E+00  0.26674270146E+03  0.26674270146E+03  0.00000000000E+00 0.  1.
         21   -1    0    0  501  502  0.00000000000E+00 -0.00000000000E+00 -0.29796274508E+02  0.29796274508E+02  0.00000000000E+00 0.  1.
         24    2    1    2    0    0 -0.52832833658E+02 -0.38188620681E+02  0.18343397890E+03  0.21219882444E+03  0.84443101673E+02 0.  0.
        -11    1    3    3    0    0 -0.14944602427E+02 -0.59734347602E+02  0.12453837352E+03  0.13892926223E+03  0.00000000000E+00 0.  1.
         12    1    3    3    0    0 -0.37888231231E+02  0.21545726921E+02  0.58895605380E+02  0.73269562216E+02  0.00000000000E+00 0. -1.
         -2    1    1    2    0  502  0.52832833658E+02  0.38188620681E+02  0.53512448055E+02  0.84340151521E+02  0.00000000000E+00 0.  1.
<mgrwt>
<rscale>  1 0.10667857E+03</rscale>
<asrwt>0</asrwt>
<pdfrwt beam="1">  1       21 0.45840424E-02 0.10667857E+03</pdfrwt>
<pdfrwt beam="2">  1       -1 0.41037337E-01 0.10667857E+03</pdfrwt>
<totfact> 0.16344126E+05</totfact>
</mgrwt>
</event>
<event>
 6    2  0.9453093E+000  0.8782228E+02  0.7546771E-02  0.1308213E+00
         21   -1    0    0  501  502  0.00000000000E+00  0.00000000000E+00  0.24372308825E+03  0.24372308825E+03  0.00000000000E+00 0.  1.
          2   -1    0    0  502    0 -0.00000000000E+00 -0.00000000000E+00 -0.17546575692E+02  0.17546575692E+02  0.00000000000E+00 0. -1.
         24    2    1    2    0    0 -0.30751229157E+02  0.17387692253E+02  0.19612491051E+03  0.21489004857E+03  0.80403871272E+02 0.  0.
        -13    1    3    3    0    0 -0.10826092189E+02 -0.28517092856E+02  0.11980217335E+03  0.12362438917E+03  0.00000000000E+00 0.  1.
         14    1    3    3    0    0 -0.19925136968E+02  0.45904785109E+02  0.76322737156E+02  0.91265659402E+02  0.00000000000E+00 0. -1.
          1    1    1    2  501    0  0.30751229157E+02 -0.17387692253E+02  0.30051602056E+02  0.46379615378E+02  0.00000000000E+00 0. -1.
<mgrwt>
<rscale>  1 0.87822278E+02</rscale>
<asrwt>0</asrwt>
<pdfrwt beam="1">  1       21 0.37495857E-01 0.87822278E+02</pdfrwt>
<pdfrwt beam="2">  1        2 0.26994734E-02 0.87822278E+02</pdfrwt>
<totfact> 0.27988678E+05</totfact>
</mgrwt>
</event>
<event>
 6    2  0.9453093E+000  0.8387434E+02  0.7546771E-02  0.1318403E+00
         21   -1    0    0  501  502  0.00000000000E+00  0.00000000000E+00  0.81039729621E+01  0.81039729621E+01  0.00000000000E+00 0.  1.
         -1   -1    0    0    0  501 -0.00000000000E+00 -0.00000000000E+00 -0.37094657580E+03  0.37094657580E+03  0.00000000000E+00 0.  1.
         24    2    1    2    0    0  0.20513731815E+01  0.22823584907E+02 -0.31542487511E+03  0.32638590158E+03  0.80683212332E+02 0.  0.
        -13    1    3    3    0    0  0.22574609213E+02  0.39098951594E+02 -0.10443208928E+03  0.11377346909E+03  0.00000000000E+00 0.  1.
         14    1    3    3    0    0 -0.20523236031E+02 -0.16275366687E+02 -0.21099278583E+03  0.21261243249E+03  0.00000000000E+00 0. -1.
         -2    1    1    2    0  502 -0.20513731815E+01 -0.22823584907E+02 -0.47417727729E+02  0.52664647183E+02  0.00000000000E+00 0.  1.
<mgrwt>
<rscale>  1 0.83874340E+02</rscale>
<asrwt>0</asrwt>
<pdfrwt beam="1">  1       21 0.12467650E-02 0.83874340E+02</pdfrwt>
<pdfrwt beam="2">  1       -1 0.57068708E-01 0.83874340E+02</pdfrwt>
<totfact> 0.72244658E+05</totfact>
</mgrwt>
</event>
<event>
 6    2  0.9453093E+000  0.8380010E+02  0.7546771E-02  0.1318601E+00
          4   -1    0    0  502    0 -0.00000000000E+00  0.00000000000E+00  0.96764699840E+01  0.96764699840E+01  0.00000000000E+00 0. -1.
         21   -1    0    0  501  502  0.00000000000E+00 -0.00000000000E+00 -0.37325520228E+03  0.37325520228E+03  0.00000000000E+00 0.  1.
         24    2    1    2    0    0 -0.17187026010E+02 -0.12982742888E+02 -0.34318935890E+03  0.35327240688E+03  0.80984640025E+02 0.  0.
        -11    1    3    3    0    0  0.14170235754E+02  0.20824502293E+02 -0.22501755248E+03  0.22642295467E+03  0.00000000000E+00 0.  1.
         12    1    3    3    0    0 -0.31357261764E+02 -0.33807245181E+02 -0.11817180643E+03  0.12684945221E+03  0.00000000000E+00 0. -1.
          3    1    1    2  501    0  0.17187026010E+02  0.12982742888E+02 -0.20389373392E+02  0.29659265386E+02  0.00000000000E+00 0. -1.
<mgrwt>
<rscale>  1 0.83800104E+02</rscale>
<asrwt>0</asrwt>
<pdfrwt beam="1">  1       21 0.57423878E-01 0.83800104E+02</pdfrwt>
<pdfrwt beam="2">  1        4 0.14886877E-02 0.83800104E+02</pdfrwt>
<totfact> 0.17203452E+05</totfact>
</mgrwt>
</event>
<event>
 6    2  0.9453093E+000  0.8808150E+02  0.7546771E-02  0.1307565E+00
          2   -1    0    0  502    0 -0.00000000000E+00  0.00000000000E+00  0.70062940481E+03  0.70062940481E+03  0.00000000000E+00 0. -1.
         21   -1    0    0  501  502  0.00000000000E+00 -0.00000000000E+00 -0.54269803122E+01  0.54269803122E+01  0.00000000000E+00 0. -1.
         24    2    1    2    0    0  0.20873025268E+01  0.23411291410E+02  0.64036117356E+03  0.64639058083E+03  0.84887602077E+02 0.  0.
        -11    1    3    3    0    0 -0.33442545309E+02  0.22520104842E+02  0.49914231352E+03  0.50076801826E+03  0.00000000000E+00 0.  1.
         12    1    3    3    0    0  0.35529847836E+02  0.89118656814E+00  0.14121886003E+03  0.14562256257E+03  0.00000000000E+00 0. -1.
          1    1    1    2  501    0 -0.20873025268E+01 -0.23411291410E+02  0.54841250941E+02  0.59665804294E+02  0.00000000000E+00 0. -1.
<mgrwt>
<rscale>  1 0.88081499E+02</rscale>
<asrwt>0</asrwt>
<pdfrwt beam="1">  1       21 0.83492060E-03 0.88081499E+02</pdfrwt>
<pdfrwt beam="2">  1        2 0.10778907E+00 0.88081499E+02</pdfrwt>
<totfact> 0.24518786E+06</totfact>
</mgrwt>
</event>
<event>
 6    2  0.9453093E+000  0.8779029E+02  0.7546771E-02  0.1308293E+00
          2   -1    0    0  502    0 -0.00000000000E+00  0.00000000000E+00  0.27099898224E+04  0.27099898224E+04  0.00000000000E+00 0. -1.
         21   -1    0    0  501  502  0.00000000000E+00 -0.00000000000E+00 -0.18606667446E+01  0.18606667446E+01  0.00000000000E+00 0. -1.
         24    2    1    2    0    0  0.35830650591E+02  0.74177257438E+01  0.23920531130E+04  0.23936635584E+04  0.79801485332E+02 0.  0.
        -13    1    3    3    0    0  0.24459628203E+02  0.43394944554E+01  0.19463678072E+03  0.19621564931E+03  0.00000000000E+00 0.  1.
         14    1    3    3    0    0  0.11371022387E+02  0.30782312885E+01  0.21974163323E+04  0.21974479091E+04  0.00000000000E+00 0. -1.
          1    1    1    2  501    0 -0.35830650591E+02 -0.74177257438E+01  0.31607604257E+03  0.31818693069E+03  0.00000000000E+00 0. -1.
<mgrwt>
<rscale>  1 0.87790291E+02</rscale>
<asrwt>0</asrwt>
<pdfrwt beam="1">  1       21 0.28625859E-03 0.87790291E+02</pdfrwt>
<pdfrwt beam="2">  1        2 0.41691835E+00 0.87790291E+02</pdfrwt>
<totfact> 0.10483352E+06</totfact>
</mgrwt>
</event>
<event>
 6    2  0.9453093E+000  0.8484080E+02  0.7546771E-02  0.1315849E+00
         21   -1    0    0  501  502  0.00000000000E+00  0.00000000000E+00  0.28970690754E+02  0.28970690754E+02  0.00000000000E+00 0.  1.
          2   -1    0    0  502    0 -0.00000000000E+00 -0.00000000000E+00 -0.11696882652E+03  0.11696882652E+03  0.00000000000E+00 0. -1.
         24    2    1    2    0    0  0.23639239432E+02  0.20934880733E+02 -0.63410573288E+02  0.10591913371E+03  0.78745661522E+02 0.  0.
        -13    1    3    3    0    0 -0.93392070732E+01  0.38494601594E+02 -0.10203410743E+02  0.40904336341E+02  0.00000000000E+00 0.  1.
         14    1    3    3    0    0  0.32978446505E+02 -0.17559720862E+02 -0.53207162544E+02  0.65014797367E+02  0.00000000000E+00 0. -1.
          1    1    1    2  501    0 -0.23639239432E+02 -0.20934880733E+02 -0.24587562481E+02  0.40020383568E+02  0.00000000000E+00 0. -1.
<mgrwt>
<rscale>  1 0.84840804E+02</rscale>
<asrwt>0</asrwt>
<pdfrwt beam="1">  1       21 0.44570294E-02 0.84840804E+02</pdfrwt>
<pdfrwt beam="2">  1        2 0.17995204E-01 0.84840804E+02</pdfrwt>
<totfact> 0.11548688E+06</totfact>
</mgrwt>
</event>
<event>
 6    2  0.9453093E+000  0.8537825E+02  0.7546771E-02  0.1314446E+00
         -1   -1    0    0    0  501 -0.00000000000E+00  0.00000000000E+00  0.39034243052E+03  0.39034243052E+03  0.00000000000E+00 0.  1.
         21   -1    0    0  501  502  0.00000000000E+00 -0.00000000000E+00 -0.21201914454E+02  0.21201914454E+02  0.00000000000E+00 0.  1.
         24    2    1    2    0    0  0.14523881210E+02  0.21631043544E+02  0.37520238042E+03  0.38479380536E+03  0.81305603759E+02 0.  0.
        -11    1    3    3    0    0 -0.10255627488E+02 -0.52259082919E+01  0.30868820727E+03  0.30890273117E+03  0.00000000000E+00 0.  1.
         12    1    3    3    0    0  0.24779508698E+02  0.26856951836E+02  0.66514173145E+02  0.75891074195E+02  0.00000000000E+00 0. -1.
         -2    1    1    2    0  502 -0.14523881210E+02 -0.21631043544E+02 -0.60618643514E+01  0.26750539614E+02  0.00000000000E+00 0.  1.
<mgrwt>
<rscale>  1 0.85378255E+02</rscale>
<asrwt>0</asrwt>
<pdfrwt beam="1">  1       21 0.32618333E-02 0.85378255E+02</pdfrwt>
<pdfrwt beam="2">  1       -1 0.60052676E-01 0.85378255E+02</pdfrwt>
<totfact> 0.14146354E+05</totfact>
</mgrwt>
</event>
<event>
 6    2  0.9453093E+000  0.8326586E+02  0.7546771E-02  0.1320031E+00
         21   -1    0    0  501  502  0.00000000000E+00  0.00000000000E+00  0.74647979789E+01  0.74647979789E+01  0.00000000000E+00 0. -1.
         -3   -1    0    0    0  501 -0.00000000000E+00 -0.00000000000E+00 -0.81474082801E+03  0.81474082801E+03  0.00000000000E+00 0.  1.
         24    2    1    2    0    0 -0.22337127337E+02  0.71456301313E+01 -0.78643642490E+03  0.79083212715E+03  0.79894903630E+02 0.  0.
        -13    1    3    3    0    0  0.22974711167E+02  0.25421278639E+02 -0.30165758264E+03  0.30359739117E+03  0.00000000000E+00 0.  1.
         14    1    3    3    0    0 -0.45311838504E+02 -0.18275648508E+02 -0.48477884227E+03  0.48723473598E+03  0.00000000000E+00 0. -1.
         -4    1    1    2    0  502  0.22337127337E+02 -0.71456301313E+01 -0.20839605126E+02  0.31373498840E+02  0.00000000000E+00 0.  1.
<mgrwt>
<rscale>  1 0.83265857E+02</rscale>
<asrwt>0</asrwt>
<pdfrwt beam="1">  1       21 0.11484311E-02 0.83265857E+02</pdfrwt>
<pdfrwt beam="2">  1       -3 0.12534468E+00 0.83265857E+02</pdfrwt>
<totfact> 0.72100251E+04</totfact>
</mgrwt>
</event>
<event>
 6    2  0.9453093E+000  0.9662097E+02  0.7546771E-02  0.1287566E+00
         21   -1    0    0  501  502  0.00000000000E+00  0.00000000000E+00  0.26870592415E+03  0.26870592415E+03  0.00000000000E+00 0.  1.
         -3   -1    0    0    0  501 -0.00000000000E+00 -0.00000000000E+00 -0.25956700142E+02  0.25956700142E+02  0.00000000000E+00 0.  1.
         24    2    1    2    0    0 -0.36074516434E+02 -0.48463902717E+01  0.73113910169E+02  0.12116623258E+03  0.89502814613E+02 0.  0.
        -13    1    3    3    0    0  0.42042913760E+01 -0.34297110501E+01 -0.19458443860E+02  0.20200743088E+02  0.00000000000E+00 0.  1.
         14    1    3    3    0    0 -0.40278807810E+02 -0.14166792215E+01  0.92572354029E+02  0.10096548950E+03  0.00000000000E+00 0. -1.
         -4    1    1    2    0  502  0.36074516434E+02  0.48463902717E+01  0.16963531384E+03  0.17349639171E+03  0.00000000000E+00 0.  1.
<mgrwt>
<rscale>  1 0.96620971E+02</rscale>
<asrwt>0</asrwt>
<pdfrwt beam="1">  1       21 0.41339371E-01 0.96620971E+02</pdfrwt>
<pdfrwt beam="2">  1       -3 0.39933387E-02 0.96620971E+02</pdfrwt>
<totfact> 0.84444914E+04</totfact>
</mgrwt>
</event>
<event>
 6    2  0.9453093E+000  0.8313664E+02  0.7546771E-02  0.1320379E+00
         21   -1    0    0  501  502  0.00000000000E+00  0.00000000000E+00  0.32065077722E+02  0.32065077722E+02  0.00000000000E+00 0.  1.
         -3   -1    0    0    0  501 -0.00000000000E+00 -0.00000000000E+00 -0.88319356634E+02  0.88319356634E+02  0.00000000000E+00 0.  1.
         24    2    1    2    0    0  0.71783718684E+00 -0.21223207073E+02 -0.34581123143E+02  0.90041964291E+02  0.80378861941E+02 0.  0.
        -11    1    3    3    0    0  0.35022270246E+02 -0.31724544318E+02 -0.20199796251E+02  0.51391029314E+02  0.00000000000E+00 0.  1.
         12    1    3    3    0    0 -0.34304433059E+02  0.10501337245E+02 -0.14381326892E+02  0.38650934977E+02  0.00000000000E+00 0. -1.
         -4    1    1    2    0  502 -0.71783718684E+00  0.21223207073E+02 -0.21673155768E+02  0.30342470065E+02  0.00000000000E+00 0.  1.
<mgrwt>
<rscale>  1 0.83136642E+02</rscale>
<asrwt>0</asrwt>
<pdfrwt beam="1">  1       21 0.49330889E-02 0.83136642E+02</pdfrwt>
<pdfrwt beam="2">  1       -3 0.13587593E-01 0.83136642E+02</pdfrwt>
<totfact> 0.52274611E+05</totfact>
</mgrwt>
</event>
<event>
 6    2  0.9453093E+000  0.9691223E+02  0.7546771E-02  0.1286926E+00
         21   -1    0    0  501  502  0.00000000000E+00  0.00000000000E+00  0.86496652121E+01  0.86496652121E+01  0.00000000000E+00 0.  1.
          2   -1    0    0  502    0 -0.00000000000E+00 -0.00000000000E+00 -0.48274497781E+03  0.48274497781E+03  0.00000000000E+00 0. -1.
         24    2    1    2    0    0  0.11779494313E+02  0.22252428469E+02 -0.29432234361E+03  0.30986710396E+03  0.93584470451E+02 0.  0.
        -13    1    3    3    0    0  0.30968730411E+02  0.13734074938E+02 -0.31664890979E+02  0.46371892331E+02  0.00000000000E+00 0.  1.
         14    1    3    3    0    0 -0.19189236098E+02  0.85183535315E+01 -0.26265745263E+03  0.26349521163E+03  0.00000000000E+00 0. -1.
          1    1    1    2  501    0 -0.11779494313E+02 -0.22252428469E+02 -0.17977296898E+03  0.18152753906E+03  0.00000000000E+00 0. -1.
<mgrwt>
<rscale>  1 0.96912229E+02</rscale>
<asrwt>0</asrwt>
<pdfrwt beam="1">  1       21 0.13307179E-02 0.96912229E+02</pdfrwt>
<pdfrwt beam="2">  1        2 0.74268448E-01 0.96912229E+02</pdfrwt>
<totfact> 0.18085546E+06</totfact>
</mgrwt>
</event>
<event>
 6    2  0.9453093E+000  0.7748992E+02  0.7546771E-02  0.1336329E+00
          2   -1    0    0  502    0 -0.00000000000E+00  0.00000000000E+00  0.10668407758E+03  0.10668407758E+03  0.00000000000E+00 0. -1.
         21   -1    0    0  501  502  0.00000000000E+00 -0.00000000000E+00 -0.11995778469E+03  0.11995778469E+03  0.00000000000E+00 0. -1.
         24    2    1    2    0    0  0.50942779016E+01  0.21189153351E+02  0.91340297141E+02  0.11978203926E+03  0.74362323521E+02 0.  0.
        -11    1    3    3    0    0  0.93693505201E+01 -0.26259452102E+02  0.21350769385E+02  0.35116931916E+02  0.00000000000E+00 0.  1.
         12    1    3    3    0    0 -0.42750726185E+01  0.47448605453E+02  0.69989527756E+02  0.84665107340E+02  0.00000000000E+00 0. -1.
          1    1    1    2  501    0 -0.50942779016E+01 -0.21189153351E+02 -0.10461400425E+03  0.10685982301E+03  0.00000000000E+00 0. -1.
<mgrwt>
<rscale>  1 0.77489916E+02</rscale>
<asrwt>0</asrwt>
<pdfrwt beam="1">  1       21 0.18455044E-01 0.77489916E+02</pdfrwt>
<pdfrwt beam="2">  1        2 0.16412935E-01 0.77489916E+02</pdfrwt>
<totfact> 0.11026937E+05</totfact>
</mgrwt>
</event>
<event>
 6    2  0.9453093E+000  0.9116250E+02  0.7546771E-02  0.1300061E+00
          4   -1    0    0  502    0 -0.00000000000E+00  0.00000000000E+00  0.12727741359E+03  0.12727741359E+03  0.00000000000E+00 0. -1.
         21   -1    0    0  501  502  0.00000000000E+00 -0.00000000000E+00 -0.48183992490E+02  0.48183992490E+02  0.00000000000E+00 0. -1.
         24    2    1    2    0    0  0.31546064201E+01  0.46051828299E+02  0.89921408062E+02  0.12804866799E+03  0.78612208441E+02 0.  0.
        -13    1    3    3    0    0 -0.56462557152E+01 -0.20859823036E+02  0.34553053010E+02  0.40754458566E+02  0.00000000000E+00 0.  1.
         14    1    3    3    0    0  0.88008621353E+01  0.66911651335E+02  0.55368355052E+02  0.87294209429E+02  0.00000000000E+00 0. -1.
          3    1    1    2  501    0 -0.31546064201E+01 -0.46051828299E+02 -0.10827986960E+02  0.47412738088E+02  0.00000000000E+00 0. -1.
<mgrwt>
<rscale>  1 0.91162502E+02</rscale>
<asrwt>0</asrwt>
<pdfrwt beam="1">  1       21 0.74129220E-02 0.91162502E+02</pdfrwt>
<pdfrwt beam="2">  1        4 0.19581140E-01 0.91162502E+02</pdfrwt>
<totfact> 0.12118712E+05</totfact>
</mgrwt>
</event>
<event>
 6    2  0.9453093E+000  0.9791942E+02  0.7546771E-02  0.1284733E+00
          4   -1    0    0  502    0 -0.00000000000E+00  0.00000000000E+00  0.50062612045E+02  0.50062612045E+02  0.00000000000E+00 0. -1.
         21   -1    0    0  501  502  0.00000000000E+00 -0.00000000000E+00 -0.12355011224E+03  0.12355011224E+03  0.00000000000E+00 0. -1.
         24    2    1    2    0    0 -0.37261951557E+02  0.37980099793E+02 -0.69854140591E+02  0.12028222348E+03  0.82202623525E+02 0.  0.
        -13    1    3    3    0    0 -0.78434654530E+01  0.41819936891E+02  0.19464762184E+01  0.42593612685E+02  0.00000000000E+00 0.  1.
         14    1    3    3    0    0 -0.29418486104E+02 -0.38398370986E+01 -0.71800616809E+02  0.77688610798E+02  0.00000000000E+00 0. -1.
          3    1    1    2  501    0  0.37261951557E+02 -0.37980099793E+02 -0.36333596079E+01  0.53330500805E+02  0.00000000000E+00 0. -1.
<mgrwt>
<rscale>  1 0.97919418E+02</rscale>
<asrwt>0</asrwt>
<pdfrwt beam="1">  1       21 0.19007709E-01 0.97919418E+02</pdfrwt>
<pdfrwt beam="2">  1        4 0.77019404E-02 0.97919418E+02</pdfrwt>
<totfact> 0.11475499E+05</totfact>
</mgrwt>
</event>
<event>
 6    2  0.9453093E+000  0.8581438E+02  0.7546771E-02  0.1313316E+00
         21   -1    0    0  501  502  0.00000000000E+00  0.00000000000E+00  0.19488116007E+01  0.19488116007E+01  0.00000000000E+00 0.  1.
          2   -1    0    0  502    0 -0.00000000000E+00 -0.00000000000E+00 -0.20192656320E+04  0.20192656320E+04  0.00000000000E+00 0. -1.
         24    2    1    2    0    0  0.22734267143E+02 -0.19011108640E+02 -0.17779940595E+04  0.17800637583E+04  0.80534704995E+02 0.  0.
        -11    1    3    3    0    0  0.46769308623E+02 -0.30778937208E+02 -0.95932700587E+03  0.96095942443E+03  0.00000000000E+00 0.  1.
         12    1    3    3    0    0 -0.24035041480E+02  0.11767828568E+02 -0.81866705367E+03  0.81910433387E+03  0.00000000000E+00 0. -1.
          1    1    1    2  501    0 -0.22734267143E+02  0.19011108640E+02 -0.23932276082E+03  0.24115068526E+03  0.00000000000E+00 0. -1.
<mgrwt>
<rscale>  1 0.85814380E+02</rscale>
<asrwt>0</asrwt>
<pdfrwt beam="1">  1       21 0.29981625E-03 0.85814380E+02</pdfrwt>
<pdfrwt beam="2">  1        2 0.31065720E+00 0.85814380E+02</pdfrwt>
<totfact> 0.22231919E+06</totfact>
</mgrwt>
</event>
<event>
 6    2  0.9453093E+000  0.1393643E+03  0.7546771E-02  0.1214187E+00
          2   -1    0    0  502    0 -0.00000000000E+00  0.00000000000E+00  0.14230811631E+04  0.14230811631E+04  0.00000000000E+00 0. -1.
         21   -1    0    0  501  502  0.00000000000E+00 -0.00000000000E+00 -0.11612728929E+02  0.11612728929E+02  0.00000000000E+00 0.  1.
         24    2    1    2    0    0  0.11219851655E+03 -0.17723995794E+01  0.63152171275E+03  0.64671639440E+03  0.82648488144E+02 0.  0.
        -13    1    3    3    0    0  0.11304437418E+03  0.88729201009E+01  0.42340401922E+03  0.43832490545E+03  0.00000000000E+00 0.  1.
         14    1    3    3    0    0 -0.84585763123E+00 -0.10645319680E+02  0.20811769353E+03  0.20839148895E+03  0.00000000000E+00 0. -1.
          1    1    1    2  501    0 -0.11219851655E+03  0.17723995794E+01  0.77994672146E+03  0.78797749767E+03  0.00000000000E+00 0. -1.
<mgrwt>
<rscale>  1 0.13936435E+03</rscale>
<asrwt>0</asrwt>
<pdfrwt beam="1">  1       21 0.17865748E-02 0.13936435E+03</pdfrwt>
<pdfrwt beam="2">  1        2 0.21893543E+00 0.13936435E+03</pdfrwt>
<totfact> 0.28379851E+05</totfact>
</mgrwt>
</event>
<event>
 6    2  0.9453093E+000  0.8311620E+02  0.7546771E-02  0.1320434E+00
         -1   -1    0    0    0  501 -0.00000000000E+00  0.00000000000E+00  0.74176003282E+02  0.74176003282E+02  0.00000000000E+00 0.  1.
         21   -1    0    0  501  502  0.00000000000E+00 -0.00000000000E+00 -0.53566691914E+02  0.53566691914E+02  0.00000000000E+00 0.  1.
         24    2    1    2    0    0 -0.25485071069E+02 -0.21563309371E+01  0.43151650839E+02  0.93650237388E+02  0.79083268662E+02 0.  0.
        -13    1    3    3    0    0 -0.33846258928E+02  0.14329018395E+02  0.58859789450E+02  0.69392829786E+02  0.00000000000E+00 0.  1.
         14    1    3    3    0    0  0.83611878586E+01 -0.16485349332E+02 -0.15708138610E+02  0.24257407603E+02  0.00000000000E+00 0. -1.
         -2    1    1    2    0  502  0.25485071069E+02  0.21563309371E+01 -0.22542339471E+02  0.34092457808E+02  0.00000000000E+00 0.  1.
<mgrwt>
<rscale>  1 0.83116196E+02</rscale>
<asrwt>0</asrwt>
<pdfrwt beam="1">  1       21 0.82410295E-02 0.83116196E+02</pdfrwt>
<pdfrwt beam="2">  1       -1 0.11411693E-01 0.83116196E+02</pdfrwt>
<totfact> 0.46836729E+05</totfact>
</mgrwt>
</event>
<event>
 6    2  0.9453093E+000  0.7645242E+02  0.7546771E-02  0.1339431E+00
         21   -1    0    0  501  502  0.00000000000E+00  0.00000000000E+00  0.20713103615E+01  0.20713103615E+01  0.00000000000E+00 0. -1.
          2   -1    0    0  502    0 -0.00000000000E+00 -0.00000000000E+00 -0.15324618098E+04  0.15324618098E+04  0.00000000000E+00 0. -1.
         24    2    1    2    0    0  0.22671783957E+02 -0.27161987084E+01 -0.14051357158E+04  0.14072140394E+04  0.72962902248E+02 0.  0.
        -11    1    3    3    0    0  0.18458389869E+01  0.13478460260E+00  0.69071959716E-01  0.18520419515E+01  0.00000000000E+00 0.  1.
         12    1    3    3    0    0  0.20825944970E+02 -0.28509833110E+01 -0.14052047878E+04  0.14053619974E+04  0.00000000000E+00 0. -1.
          1    1    1    2  501    0 -0.22671783957E+02  0.27161987084E+01 -0.12525478361E+03  0.12731908082E+03  0.00000000000E+00 0. -1.
<mgrwt>
<rscale>  1 0.76452421E+02</rscale>
<asrwt>0</asrwt>
<pdfrwt beam="1">  1       21 0.31866307E-03 0.76452421E+02</pdfrwt>
<pdfrwt beam="2">  1        2 0.23576340E+00 0.76452421E+02</pdfrwt>
<totfact> 0.35183631E+06</totfact>
</mgrwt>
</event>
<event>
 6    2  0.9453093E+000  0.2368013E+03  0.7546771E-02  0.1121942E+00
          2   -1    0    0  502    0 -0.00000000000E+00  0.00000000000E+00  0.72878636898E+03  0.72878636898E+03  0.00000000000E+00 0. -1.
         21   -1    0    0  501  502  0.00000000000E+00 -0.00000000000E+00 -0.83886979478E+02  0.83886979478E+02  0.00000000000E+00 0.  1.
         24    2    1    2    0    0 -0.10546414339E+03  0.19614832312E+03  0.48109573170E+03  0.53621632013E+03  0.80485953499E+02 0.  0.
        -11    1    3    3    0    0 -0.80345195894E+02  0.15209037129E+03  0.27822436333E+03  0.32710186165E+03  0.00000000000E+00 0.  1.
         12    1    3    3    0    0 -0.25118947492E+02  0.44057951831E+02  0.20287136837E+03  0.20911445849E+03  0.00000000000E+00 0. -1.
          1    1    1    2  501    0  0.10546414339E+03 -0.19614832312E+03  0.16380365780E+03  0.27645702832E+03  0.00000000000E+00 0. -1.
<mgrwt>
<rscale>  1 0.23680126E+03</rscale>
<asrwt>0</asrwt>
<pdfrwt beam="1">  1       21 0.12905690E-01 0.23680126E+03</pdfrwt>
<pdfrwt beam="2">  1        2 0.11212098E+00 0.23680126E+03</pdfrwt>
<totfact> 0.25764499E+04</totfact>
</mgrwt>
</event>
<event>
 6    2  0.9453093E+000  0.8257680E+02  0.7546771E-02  0.1321894E+00
         -3   -1    0    0    0  501 -0.00000000000E+00  0.00000000000E+00  0.11225697474E+03  0.11225697474E+03  0.00000000000E+00 0.  1.
         21   -1    0    0  501  502  0.00000000000E+00 -0.00000000000E+00 -0.64010480814E+02  0.64010480814E+02  0.00000000000E+00 0.  1.
         24    2    1    2    0    0 -0.19342164612E+02  0.51214615756E+01  0.94724904734E+02  0.12566516932E+03  0.80116031491E+02 0.  0.
        -11    1    3    3    0    0 -0.28100671323E+02 -0.30323967757E+02  0.70883687047E+02  0.82059050925E+02  0.00000000000E+00 0.  1.
         12    1    3    3    0    0  0.87585067105E+01  0.35445429333E+02  0.23841217687E+02  0.43606118391E+02  0.00000000000E+00 0. -1.
         -4    1    1    2    0  502  0.19342164612E+02 -0.51214615756E+01 -0.46478410811E+02  0.50602286234E+02  0.00000000000E+00 0.  1.
<mgrwt>
<rscale>  1 0.82576796E+02</rscale>
<asrwt>0</asrwt>
<pdfrwt beam="1">  1       21 0.98477663E-02 0.82576796E+02</pdfrwt>
<pdfrwt beam="2">  1       -3 0.17270304E-01 0.82576796E+02</pdfrwt>
<totfact> 0.10806076E+05</totfact>
</mgrwt>
</event>
<event>
 6    2  0.9453093E+000  0.8912015E+02  0.7546771E-02  0.1304996E+00
         21   -1    0    0  501  502  0.00000000000E+00  0.00000000000E+00  0.10253079812E+03  0.10253079812E+03  0.00000000000E+00 0. -1.
          2   -1    0    0  502    0 -0.00000000000E+00 -0.00000000000E+00 -0.36226853075E+02  0.36226853075E+02  0.00000000000E+00 0. -1.
         24    2    1    2    0    0 -0.12518937685E+02 -0.29021852938E+02  0.57079405731E+02  0.10583222221E+03  0.83327120136E+02 0.  0.
        -11    1    3    3    0    0 -0.12329423033E+02  0.24062360524E+02 -0.11188329148E+01  0.27060370534E+02  0.00000000000E+00 0.  1.
         12    1    3    3    0    0 -0.18951465184E+00 -0.53084213462E+02  0.58198238646E+02  0.78771851674E+02  0.00000000000E+00 0. -1.
          1    1    1    2  501    0  0.12518937685E+02  0.29021852938E+02  0.92245393183E+01  0.32925428992E+02  0.00000000000E+00 0. -1.
<mgrwt>
<rscale>  1 0.89120148E+02</rscale>
<asrwt>0</asrwt>
<pdfrwt beam="1">  1       21 0.15773969E-01 0.89120148E+02</pdfrwt>
<pdfrwt beam="2">  1        2 0.55733620E-02 0.89120148E+02</pdfrwt>
<totfact> 0.54756314E+05</totfact>
</mgrwt>
</event>
<event>
 6    2  0.9453093E+000  0.8805791E+02  0.7546771E-02  0.1307624E+00
         21   -1    0    0  501  502  0.00000000000E+00  0.00000000000E+00  0.87764553043E+03  0.87764553043E+03  0.00000000000E+00 0.  1.
         -1   -1    0    0    0  501 -0.00000000000E+00 -0.00000000000E+00 -0.60346407753E+01  0.60346407753E+01  0.00000000000E+00 0.  1.
         24    2    1    2    0    0  0.25387444071E+02  0.28884584673E+02  0.35950629987E+03  0.37013372499E+03  0.79217126785E+02 0.  0.
        -13    1    3    3    0    0  0.33737895993E+02 -0.48515910684E+01  0.63282044797E+02  0.71877679119E+02  0.00000000000E+00 0.  1.
         14    1    3    3    0    0 -0.83504519220E+01  0.33736175742E+02  0.29622425508E+03  0.29825604587E+03  0.00000000000E+00 0. -1.
         -2    1    1    2    0  502 -0.25387444071E+02 -0.28884584673E+02  0.51210458978E+03  0.51354644622E+03  0.00000000000E+00 0.  1.
<mgrwt>
<rscale>  1 0.88057906E+02</rscale>
<asrwt>0</asrwt>
<pdfrwt beam="1">  1       21 0.13502229E+00 0.88057906E+02</pdfrwt>
<pdfrwt beam="2">  1       -1 0.92840697E-03 0.88057906E+02</pdfrwt>
<totfact> 0.69841328E+04</totfact>
</mgrwt>
</event>
<event>
 6    2  0.9453093E+000  0.1047054E+03  0.7546771E-02  0.1270701E+00
          4   -1    0    0  502    0 -0.00000000000E+00  0.00000000000E+00  0.11791351036E+02  0.11791351036E+02  0.00000000000E+00 0. -1.
         21   -1    0    0  501  502  0.00000000000E+00 -0.00000000000E+00 -0.64592169196E+03  0.64592169196E+03  0.00000000000E+00 0. -1.
         24    2    1    2    0    0  0.10251437386E+02 -0.68084284351E+02 -0.34767417995E+03  0.36309855947E+03  0.78883881369E+02 0.  0.
        -11    1    3    3    0    0 -0.24124196990E+02 -0.15068941171E+02 -0.20624189567E+03  0.20819406668E+03  0.00000000000E+00 0.  1.
         12    1    3    3    0    0  0.34375634376E+02 -0.53015343181E+02 -0.14143228428E+03  0.15490449280E+03  0.00000000000E+00 0. -1.
          3    1    1    2  501    0 -0.10251437386E+02  0.68084284351E+02 -0.28645616098E+03  0.29461448353E+03  0.00000000000E+00 0. -1.
<mgrwt>
<rscale>  1 0.10470544E+03</rscale>
<asrwt>0</asrwt>
<pdfrwt beam="1">  1       21 0.99372582E-01 0.10470544E+03</pdfrwt>
<pdfrwt beam="2">  1        4 0.18140538E-02 0.10470544E+03</pdfrwt>
<totfact> 0.39446830E+04</totfact>
</mgrwt>
</event>
<event>
 6    2  0.9453093E+000  0.8461190E+02  0.7546771E-02  0.1316451E+00
         21   -1    0    0  501  502  0.00000000000E+00  0.00000000000E+00  0.81326988759E+01  0.81326988759E+01  0.00000000000E+00 0. -1.
          2   -1    0    0  502    0 -0.00000000000E+00 -0.00000000000E+00 -0.14284063235E+04  0.14284063235E+04  0.00000000000E+00 0. -1.
         24    2    1    2    0    0  0.54176864692E+01  0.32895030744E+02 -0.13865120961E+04  0.13890914178E+04  0.77767215816E+02 0.  0.
        -11    1    3    3    0    0  0.24619811703E+02  0.13177617034E+02 -0.17079001263E+03  0.17305783175E+03  0.00000000000E+00 0.  1.
         12    1    3    3    0    0 -0.19202125233E+02  0.19717413710E+02 -0.12157220835E+04  0.12160335860E+04  0.00000000000E+00 0. -1.
          1    1    1    2  501    0 -0.54176864692E+01 -0.32895030744E+02 -0.33761528439E+02  0.47447604543E+02  0.00000000000E+00 0. -1.
<mgrwt>
<rscale>  1 0.84611904E+02</rscale>
<asrwt>0</asrwt>
<pdfrwt beam="1">  1       21 0.12511858E-02 0.84611904E+02</pdfrwt>
<pdfrwt beam="2">  1        2 0.21975458E+00 0.84611904E+02</pdfrwt>
<totfact> 0.48826491E+05</totfact>
</mgrwt>
</event>
<event>
 6    2  0.9453093E+000  0.9823716E+02  0.7546771E-02  0.1284047E+00
          2   -1    0    0  502    0 -0.00000000000E+00  0.00000000000E+00  0.20229116804E+03  0.20229116804E+03  0.00000000000E+00 0. -1.
         21   -1    0    0  501  502  0.00000000000E+00 -0.00000000000E+00 -0.35919498810E+02  0.35919498810E+02  0.00000000000E+00 0.  1.
         24    2    1    2    0    0  0.53774241234E+02  0.11844113561E+00  0.15458679813E+03  0.18316008797E+03  0.82212265622E+02 0.  0.
        -13    1    3    3    0    0  0.44204294954E+02  0.37158749217E+02  0.73251790808E+02  0.93277098970E+02  0.00000000000E+00 0.  1.
         14    1    3    3    0    0  0.95699462797E+01 -0.37040308081E+02  0.81335007326E+02  0.89882988998E+02  0.00000000000E+00 0. -1.
          1    1    1    2  501    0 -0.53774241234E+02 -0.11844113561E+00  0.11784871097E+02  0.55050578883E+02  0.00000000000E+00 0. -1.
<mgrwt>
<rscale>  1 0.98237160E+02</rscale>
<asrwt>0</asrwt>
<pdfrwt beam="1">  1       21 0.55260769E-02 0.98237160E+02</pdfrwt>
<pdfrwt beam="2">  1        2 0.31121717E-01 0.98237160E+02</pdfrwt>
<totfact> 0.44932965E+05</totfact>
</mgrwt>
</event>
<event>
 6    2  0.9453093E+000  0.8878264E+02  0.7546771E-02  0.1305827E+00
          2   -1    0    0  502    0 -0.00000000000E+00  0.00000000000E+00  0.62937929366E+02  0.62937929366E+02  0.00000000000E+00 0. -1.
         21   -1    0    0  501  502  0.00000000000E+00 -0.00000000000E+00 -0.66989316850E+02  0.66989316850E+02  0.00000000000E+00 0.  1.
         24    2    1    2    0    0 -0.25086568173E+02 -0.26081470502E+02  0.13336208457E+02  0.89778678385E+02  0.81072668825E+02 0.  0.
        -11    1    3    3    0    0 -0.62963875271E+01 -0.47852592641E+02 -0.13840896169E+02  0.50210412517E+02  0.00000000000E+00 0.  1.
         12    1    3    3    0    0 -0.18790180646E+02  0.21771122140E+02  0.27177104627E+02  0.39568265868E+02  0.00000000000E+00 0. -1.
          1    1    1    2  501    0  0.25086568173E+02  0.26081470502E+02 -0.17387595942E+02  0.40148567830E+02  0.00000000000E+00 0. -1.
<mgrwt>
<rscale>  1 0.88782637E+02</rscale>
<asrwt>0</asrwt>
<pdfrwt beam="1">  1       21 0.10306049E-01 0.88782637E+02</pdfrwt>
<pdfrwt beam="2">  1        2 0.96827584E-02 0.88782637E+02</pdfrwt>
<totfact> 0.58158950E+05</totfact>
</mgrwt>
</event>
<event>
 6    2  0.9453093E+000  0.9688996E+02  0.7546771E-02  0.1286975E+00
         21   -1    0    0  501  502  0.00000000000E+00  0.00000000000E+00  0.15598678227E+02  0.15598678227E+02  0.00000000000E+00 0.  1.
          2   -1    0    0  502    0 -0.00000000000E+00 -0.00000000000E+00 -0.35728278935E+03  0.35728278935E+03  0.00000000000E+00 0. -1.
         24    2    1    2    0    0  0.46114609987E+02 -0.16261008675E+02 -0.18635637100E+03  0.21003895314E+03  0.83646202339E+02 0.  0.
        -11    1    3    3    0    0  0.18995805880E+02 -0.40453038944E+02 -0.42534091998E+02  0.61696336868E+02  0.00000000000E+00 0.  1.
         12    1    3    3    0    0  0.27118804107E+02  0.24192030269E+02 -0.14382227900E+03  0.14834261627E+03  0.00000000000E+00 0. -1.
          1    1    1    2  501    0 -0.46114609987E+02  0.16261008675E+02 -0.15532774013E+03  0.16284251444E+03  0.00000000000E+00 0. -1.
<mgrwt>
<rscale>  1 0.96889962E+02</rscale>
<asrwt>0</asrwt>
<pdfrwt beam="1">  1       21 0.23997966E-02 0.96889962E+02</pdfrwt>
<pdfrwt beam="2">  1        2 0.54966585E-01 0.96889962E+02</pdfrwt>
<totfact> 0.97085905E+05</totfact>
</mgrwt>
</event>
<event>
 6    2  0.9453093E+000  0.9358057E+02  0.7546771E-02  0.1294405E+00
         21   -1    0    0  501  502  0.00000000000E+00  0.00000000000E+00  0.22925058210E+02  0.22925058210E+02  0.00000000000E+00 0.  1.
         -1   -1    0    0    0  501 -0.00000000000E+00 -0.00000000000E+00 -0.18753439700E+03  0.18753439700E+03  0.00000000000E+00 0.  1.
         24    2    1    2    0    0  0.35026308440E+02  0.32609764922E+01 -0.10043045395E+03  0.13727198695E+03  0.86717046021E+02 0.  0.
        -13    1    3    3    0    0  0.55821292687E+02 -0.21962283501E+02 -0.73824719611E+02  0.95123329628E+02  0.00000000000E+00 0.  1.
         14    1    3    3    0    0 -0.20794984247E+02  0.25223259993E+02 -0.26605734338E+02  0.42148657324E+02  0.00000000000E+00 0. -1.
         -2    1    1    2    0  502 -0.35026308440E+02 -0.32609764922E+01 -0.64178884838E+02  0.73187468255E+02  0.00000000000E+00 0.  1.
<mgrwt>
<rscale>  1 0.93580566E+02</rscale>
<asrwt>0</asrwt>
<pdfrwt beam="1">  1       21 0.35269320E-02 0.93580566E+02</pdfrwt>
<pdfrwt beam="2">  1       -1 0.28851446E-01 0.93580566E+02</pdfrwt>
<totfact> 0.45341401E+05</totfact>
</mgrwt>
</event>
<event>
 6    2  0.9453093E+000  0.8903592E+02  0.7546771E-02  0.1305203E+00
          2   -1    0    0  502    0 -0.00000000000E+00  0.00000000000E+00  0.82369351600E+02  0.82369351600E+02  0.00000000000E+00 0. -1.
         21   -1    0    0  501  502  0.00000000000E+00 -0.00000000000E+00 -0.54166098592E+02  0.54166098592E+02  0.00000000000E+00 0.  1.
         24    2    1    2    0    0  0.24517698353E+01 -0.40502827944E+02  0.34473674414E+02  0.95476852660E+02  0.79252160346E+02 0.  0.
        -11    1    3    3    0    0 -0.24024380611E+01 -0.64503835958E+02  0.25118763799E+02  0.69263762941E+02  0.00000000000E+00 0.  1.
         12    1    3    3    0    0  0.48542078964E+01  0.24001008014E+02  0.93549106143E+01  0.26213089719E+02  0.00000000000E+00 0. -1.
          1    1    1    2  501    0 -0.24517698353E+01  0.40502827944E+02 -0.62704214052E+01  0.41058597533E+02  0.00000000000E+00 0. -1.
<mgrwt>
<rscale>  1 0.89035921E+02</rscale>
<asrwt>0</asrwt>
<pdfrwt beam="1">  1       21 0.83332460E-02 0.89035921E+02</pdfrwt>
<pdfrwt beam="2">  1        2 0.12672208E-01 0.89035921E+02</pdfrwt>
<totfact> 0.60793089E+05</totfact>
</mgrwt>
</event>
<event>
 6    2  0.9453093E+000  0.8380595E+02  0.7546771E-02  0.1318585E+00
         21   -1    0    0  501  502  0.00000000000E+00  0.00000000000E+00  0.16273449422E+02  0.16273449422E+02  0.00000000000E+00 0.  1.
          2   -1    0    0  502    0 -0.00000000000E+00 -0.00000000000E+00 -0.19025779279E+03  0.19025779279E+03  0.00000000000E+00 0. -1.
         24    2    1    2    0    0 -0.77209632292E+00  0.27435793586E+02 -0.13322034561E+03  0.15738836465E+03  0.79184076297E+02 0.  0.
        -13    1    3    3    0    0  0.12142424784E+02 -0.10392752292E+02  0.22532504139E+01  0.16140784283E+02  0.00000000000E+00 0.  1.
         14    1    3    3    0    0 -0.12914521107E+02  0.37828545878E+02 -0.13547359603E+03  0.14124758036E+03  0.00000000000E+00 0. -1.
          1    1    1    2  501    0  0.77209632292E+00 -0.27435793586E+02 -0.40763997760E+02  0.49142877570E+02  0.00000000000E+00 0. -1.
<mgrwt>
<rscale>  1 0.83805948E+02</rscale>
<asrwt>0</asrwt>
<pdfrwt beam="1">  1       21 0.25036075E-02 0.83805948E+02</pdfrwt>
<pdfrwt beam="2">  1        2 0.29270430E-01 0.83805948E+02</pdfrwt>
<totfact> 0.17316647E+06</totfact>
</mgrwt>
</event>
<event>
 6    2  0.9453093E+000  0.8013085E+02  0.7546771E-02  0.1328681E+00
         21   -1    0    0  501  502  0.00000000000E+00  0.00000000000E+00  0.93210194014E+02  0.93210194014E+02  0.00000000000E+00 0. -1.
          2   -1    0    0  502    0 -0.00000000000E+00 -0.00000000000E+00 -0.32679262799E+02  0.32679262799E+02  0.00000000000E+00 0. -1.
         24    2    1    2    0    0  0.63915179501E+01 -0.28161733288E+02  0.35377794817E+02  0.87593047136E+02  0.74746363236E+02 0.  0.
        -11    1    3    3    0    0  0.84159625605E+01  0.25128108423E+02  0.82059870328E+01  0.27741457819E+02  0.00000000000E+00 0.  1.
         12    1    3    3    0    0 -0.20244446104E+01 -0.53289841711E+02  0.27171807784E+02  0.59851589318E+02  0.00000000000E+00 0. -1.
          1    1    1    2  501    0 -0.63915179501E+01  0.28161733288E+02  0.25153136398E+02  0.38296409678E+02  0.00000000000E+00 0. -1.
<mgrwt>
<rscale>  1 0.80130853E+02</rscale>
<asrwt>0</asrwt>
<pdfrwt beam="1">  1       21 0.14340030E-01 0.80130853E+02</pdfrwt>
<pdfrwt beam="2">  1        2 0.50275789E-02 0.80130853E+02</pdfrwt>
<totfact> 0.73210655E+05</totfact>
</mgrwt>
</event>
<event>
 6    2  0.9453093E+000  0.8746953E+02  0.7546771E-02  0.1309098E+00
         21   -1    0    0  501  502  0.00000000000E+00  0.00000000000E+00  0.22969119320E+03  0.22969119320E+03  0.00000000000E+00 0.  1.
          2   -1    0    0  502    0 -0.00000000000E+00 -0.00000000000E+00 -0.13918215309E+02  0.13918215309E+02  0.00000000000E+00 0. -1.
         24    2    1    2    0    0  0.16617833749E+02 -0.12826110158E+02  0.14083925291E+03  0.16579087190E+03  0.84913229505E+02 0.  0.
        -11    1    3    3    0    0  0.50814273679E+01 -0.43979231107E+02  0.11644135957E+03  0.12457360833E+03  0.00000000000E+00 0.  1.
         12    1    3    3    0    0  0.11536406381E+02  0.31153120950E+02  0.24397893339E+02  0.41217263573E+02  0.00000000000E+00 0. -1.
          1    1    1    2  501    0 -0.16617833749E+02  0.12826110158E+02  0.74933724979E+02  0.77818536606E+02  0.00000000000E+00 0. -1.
<mgrwt>
<rscale>  1 0.87469526E+02</rscale>
<asrwt>0</asrwt>
<pdfrwt beam="1">  1       21 0.35337104E-01 0.87469526E+02</pdfrwt>
<pdfrwt beam="2">  1        2 0.21412641E-02 0.87469526E+02</pdfrwt>
<totfact> 0.42830676E+05</totfact>
</mgrwt>
</event>
<event>
 6    2  0.9453093E+000  0.1141202E+03  0.7546771E-02  0.1253125E+00
          2   -1    0    0  502    0 -0.00000000000E+00  0.00000000000E+00  0.20714706282E+03  0.20714706282E+03  0.00000000000E+00 0. -1.
         21   -1    0    0  501  502  0.00000000000E+00 -0.00000000000E+00 -0.56283680018E+02  0.56283680018E+02  0.00000000000E+00 0. -1.
         24    2    1    2    0    0 -0.70515278996E+02 -0.43030670043E+02  0.31712248769E+02  0.11844441287E+03  0.78736072304E+02 0.  0.
        -11    1    3    3    0    0  0.50940185904E+01 -0.27264487523E+02  0.30463634560E+02  0.41198717648E+02  0.00000000000E+00 0.  1.
         12    1    3    3    0    0 -0.75609297587E+02 -0.15766182521E+02  0.12486142092E+01  0.77245695222E+02  0.00000000000E+00 0. -1.
          1    1    1    2  501    0  0.70515278996E+02  0.43030670043E+02  0.11915113403E+03  0.14498632997E+03  0.00000000000E+00 0. -1.
<mgrwt>
<rscale>  1 0.11412017E+03</rscale>
<asrwt>0</asrwt>
<pdfrwt beam="1">  1       21 0.86590278E-02 0.11412017E+03</pdfrwt>
<pdfrwt beam="2">  1        2 0.31868779E-01 0.11412017E+03</pdfrwt>
<totfact> 0.20617588E+05</totfact>
</mgrwt>
</event>
<event>
 6    2  0.9453093E+000  0.1009636E+03  0.7546771E-02  0.1278283E+00
          2   -1    0    0  502    0 -0.00000000000E+00  0.00000000000E+00  0.97320476436E+03  0.97320476436E+03  0.00000000000E+00 0. -1.
         21   -1    0    0  501  502  0.00000000000E+00 -0.00000000000E+00 -0.11096247831E+02  0.11096247831E+02  0.00000000000E+00 0. -1.
         24    2    1    2    0    0  0.57213412703E+02 -0.23563543492E+02  0.85230005807E+03  0.85825930193E+03  0.79781108029E+02 0.  0.
        -13    1    3    3    0    0  0.55936351393E+02  0.16951161793E+02  0.58351157892E+03  0.58643156466E+03  0.00000000000E+00 0.  1.
         14    1    3    3    0    0  0.12770613092E+01 -0.40514705285E+02  0.26878847915E+03  0.27182773727E+03  0.00000000000E+00 0. -1.
          1    1    1    2  501    0 -0.57213412703E+02  0.23563543492E+02  0.10980845846E+03  0.12604171026E+03  0.00000000000E+00 0. -1.
<mgrwt>
<rscale>  1 0.10096356E+03</rscale>
<asrwt>0</asrwt>
<pdfrwt beam="1">  1       21 0.17071158E-02 0.10096356E+03</pdfrwt>
<pdfrwt beam="2">  1        2 0.14972374E+00 0.10096356E+03</pdfrwt>
<totfact> 0.53501733E+05</totfact>
</mgrwt>
</event>
<event>
 6    2  0.9453093E+000  0.8500706E+02  0.7546771E-02  0.1315414E+00
         21   -1    0    0  501  502  0.00000000000E+00  0.00000000000E+00  0.32297140853E+01  0.32297140853E+01  0.00000000000E+00 0.  1.
          2   -1    0    0  502    0 -0.00000000000E+00 -0.00000000000E+00 -0.13861158161E+04  0.13861158161E+04  0.00000000000E+00 0. -1.
         24    2    1    2    0    0 -0.17677585503E+02  0.26836098742E+02 -0.12390859547E+04  0.12419984718E+04  0.78698969370E+02 0.  0.
        -13    1    3    3    0    0 -0.42959169036E+02  0.24446025141E+02 -0.49099586293E+03  0.49347749266E+03  0.00000000000E+00 0.  1.
         14    1    3    3    0    0  0.25281583533E+02  0.23900736002E+01 -0.74809009173E+03  0.74852097918E+03  0.00000000000E+00 0. -1.
          1    1    1    2  501    0  0.17677585503E+02 -0.26836098742E+02 -0.14380014731E+03  0.14734705830E+03  0.00000000000E+00 0. -1.
<mgrwt>
<rscale>  1 0.85007064E+02</rscale>
<asrwt>0</asrwt>
<pdfrwt beam="1">  1       21 0.49688029E-03 0.85007064E+02</pdfrwt>
<pdfrwt beam="2">  1        2 0.21324807E+00 0.85007064E+02</pdfrwt>
<totfact> 0.21490143E+06</totfact>
</mgrwt>
</event>
<event>
 6    2  0.9683387E+000  0.9203919E+02  0.7546771E-02  0.1297987E+00
         -3   -1    0    0    0  501 -0.00000000000E+00  0.00000000000E+00  0.16359769187E+03  0.16359769187E+03  0.00000000000E+00 0.  1.
         21   -1    0    0  501  502  0.00000000000E+00 -0.00000000000E+00 -0.28639896043E+02  0.28639896043E+02  0.00000000000E+00 0. -1.
         24    2    1    2    0    0  0.29089173575E+02  0.33671528591E+02  0.97423038815E+02  0.13402410287E+03  0.80568354839E+02 0.  0.
        -13    1    3    3    0    0  0.23788920701E+02  0.16839306095E+02  0.10905884838E+03  0.11288625863E+03  0.00000000000E+00 0.  1.
         14    1    3    3    0    0  0.53002528740E+01  0.16832222496E+02 -0.11635809568E+02  0.21137844237E+02  0.00000000000E+00 0. -1.
         -4    1    1    2    0  502 -0.29089173575E+02 -0.33671528591E+02  0.37534757013E+02  0.58213485043E+02  0.00000000000E+00 0.  1.
<mgrwt>
<rscale>  1 0.92039185E+02</rscale>
<asrwt>0</asrwt>
<pdfrwt beam="1">  1       21 0.44061380E-02 0.92039185E+02</pdfrwt>
<pdfrwt beam="2">  1       -3 0.25168875E-01 0.92039185E+02</pdfrwt>
<totfact> 0.22082668E+05</totfact>
</mgrwt>
</event>
<event>
 6    2  0.9453093E+000  0.8827651E+02  0.7546771E-02  0.1307080E+00
         -1   -1    0    0    0  501 -0.00000000000E+00  0.00000000000E+00  0.82710689821E+01  0.82710689821E+01  0.00000000000E+00 0.  1.
         21   -1    0    0  501  502  0.00000000000E+00 -0.00000000000E+00 -0.11997053910E+04  0.11997053910E+04  0.00000000000E+00 0.  1.
         24    2    1    2    0    0  0.33365617683E+02  0.16477388314E+02 -0.23845034787E+03  0.25426621901E+03  0.80049815471E+02 0.  0.
        -13    1    3    3    0    0  0.57340131348E+02  0.25337109262E+02 -0.16641303252E+03  0.17782901102E+03  0.00000000000E+00 0.  1.
         14    1    3    3    0    0 -0.23974513665E+02 -0.88597209475E+01 -0.72037315359E+02  0.76437207987E+02  0.00000000000E+00 0. -1.
         -2    1    1    2    0  502 -0.33365617683E+02 -0.16477388314E+02 -0.95298397413E+03  0.95371024096E+03  0.00000000000E+00 0.  1.
<mgrwt>
<rscale>  1 0.88276507E+02</rscale>
<asrwt>0</asrwt>
<pdfrwt beam="1">  1       21 0.18457000E+00 0.88276507E+02</pdfrwt>
<pdfrwt beam="2">  1       -1 0.12724726E-02 0.88276507E+02</pdfrwt>
<totfact> 0.19887361E+04</totfact>
</mgrwt>
</event>
<event>
 6    2  0.9453093E+000  0.9607915E+02  0.7546771E-02  0.1288764E+00
         21   -1    0    0  501  502  0.00000000000E+00  0.00000000000E+00  0.98481169155E+03  0.98481169155E+03  0.00000000000E+00 0.  1.
          2   -1    0    0  502    0 -0.00000000000E+00 -0.00000000000E+00 -0.53924056635E+01  0.53924056635E+01  0.00000000000E+00 0. -1.
         24    2    1    2    0    0 -0.67444722288E+01  0.30664638605E+02  0.46472187631E+03  0.47454991912E+03  0.90804159838E+02 0.  0.
        -13    1    3    3    0    0  0.21293233927E+02  0.35786922984E+02  0.41618644724E+03  0.41826458676E+03  0.00000000000E+00 0.  1.
         14    1    3    3    0    0 -0.28037706156E+02 -0.51222843791E+01  0.48535429073E+02  0.56285332362E+02  0.00000000000E+00 0. -1.
          1    1    1    2  501    0  0.67444722288E+01 -0.30664638605E+02  0.51469740958E+03  0.51565417810E+03  0.00000000000E+00 0. -1.
<mgrwt>
<rscale>  1 0.96079152E+02</rscale>
<asrwt>0</asrwt>
<pdfrwt beam="1">  1       21 0.15150935E+00 0.96079152E+02</pdfrwt>
<pdfrwt beam="2">  1        2 0.82960166E-03 0.96079152E+02</pdfrwt>
<totfact> 0.63693840E+04</totfact>
</mgrwt>
</event>
<event>
 6    2  0.9453093E+000  0.8331910E+02  0.7546771E-02  0.1319888E+00
         21   -1    0    0  501  502  0.00000000000E+00  0.00000000000E+00  0.86395193429E+01  0.86395193429E+01  0.00000000000E+00 0.  1.
         -1   -1    0    0    0  501 -0.00000000000E+00 -0.00000000000E+00 -0.34257523606E+03  0.34257523606E+03  0.00000000000E+00 0.  1.
         24    2    1    2    0    0 -0.17987244449E+02  0.18029752601E+02 -0.25294834194E+03  0.26631735959E+03  0.79331326659E+02 0.  0.
        -13    1    3    3    0    0 -0.16898831765E+00  0.46839847573E+02 -0.17816759183E+03  0.18422185173E+03  0.00000000000E+00 0.  1.
         14    1    3    3    0    0 -0.17818256132E+02 -0.28810094972E+02 -0.74780750106E+02  0.82095507857E+02  0.00000000000E+00 0. -1.
         -2    1    1    2    0  502  0.17987244449E+02 -0.18029752601E+02 -0.80987374781E+02  0.84897395812E+02  0.00000000000E+00 0.  1.
<mgrwt>
<rscale>  1 0.83319099E+02</rscale>
<asrwt>0</asrwt>
<pdfrwt beam="1">  1       21 0.13291567E-02 0.83319099E+02</pdfrwt>
<pdfrwt beam="2">  1       -1 0.52703889E-01 0.83319099E+02</pdfrwt>
<totfact> 0.75551471E+05</totfact>
</mgrwt>
</event>
<event>
 6    2  0.9453093E+000  0.8609473E+02  0.7546771E-02  0.1312594E+00
          2   -1    0    0  502    0 -0.00000000000E+00  0.00000000000E+00  0.85450389193E+01  0.85450389193E+01  0.00000000000E+00 0. -1.
         21   -1    0    0  501  502  0.00000000000E+00 -0.00000000000E+00 -0.40052308325E+03  0.40052308325E+03  0.00000000000E+00 0.  1.
         24    2    1    2    0    0  0.30376412083E+02 -0.47399742298E+01 -0.29814894698E+03  0.31033062536E+03  0.80418335494E+02 0.  0.
        -13    1    3    3    0    0  0.14548343157E+01  0.52669243641E+01 -0.26559069737E+03  0.26564690016E+03  0.00000000000E+00 0.  1.
         14    1    3    3    0    0  0.28921577767E+02 -0.10006898594E+02 -0.32558249611E+02  0.44683725200E+02  0.00000000000E+00 0. -1.
          1    1    1    2  501    0 -0.30376412083E+02  0.47399742298E+01 -0.93829097350E+02  0.98737496810E+02  0.00000000000E+00 0. -1.
<mgrwt>
<rscale>  1 0.86094730E+02</rscale>
<asrwt>0</asrwt>
<pdfrwt beam="1">  1       21 0.61618947E-01 0.86094730E+02</pdfrwt>
<pdfrwt beam="2">  1        2 0.13146211E-02 0.86094730E+02</pdfrwt>
<totfact> 0.26890573E+05</totfact>
</mgrwt>
</event>
<event>
 6    2  0.9453093E+000  0.7591154E+02  0.7546771E-02  0.1341071E+00
         21   -1    0    0  501  502  0.00000000000E+00  0.00000000000E+00  0.96914059608E+01  0.96914059608E+01  0.00000000000E+00 0. -1.
         -1   -1    0    0    0  501 -0.00000000000E+00 -0.00000000000E+00 -0.27312679346E+03  0.27312679346E+03  0.00000000000E+00 0.  1.
         24    2    1    2    0    0 -0.81819629371E+01  0.18552055227E+02 -0.24054506414E+03  0.25223895525E+03  0.73153533014E+02 0.  0.
        -13    1    3    3    0    0 -0.40620307799E+02  0.63871468016E+01 -0.13834886259E+03  0.14433022147E+03  0.00000000000E+00 0.  1.
         14    1    3    3    0    0  0.32438344862E+02  0.12164908426E+02 -0.10219620156E+03  0.10790873378E+03  0.00000000000E+00 0. -1.
         -2    1    1    2    0  502  0.81819629371E+01 -0.18552055227E+02 -0.22890323362E+02  0.30579244174E+02  0.00000000000E+00 0.  1.
<mgrwt>
<rscale>  1 0.75911545E+02</rscale>
<asrwt>0</asrwt>
<pdfrwt beam="1">  1       21 0.14909853E-02 0.75911545E+02</pdfrwt>
<pdfrwt beam="2">  1       -1 0.42019513E-01 0.75911545E+02</pdfrwt>
<totfact> 0.93273497E+05</totfact>
</mgrwt>
</event>
<event>
 6    2  0.9453093E+000  0.8360978E+02  0.7546771E-02  0.1319109E+00
         21   -1    0    0  501  502  0.00000000000E+00  0.00000000000E+00  0.14017107259E+02  0.14017107259E+02  0.00000000000E+00 0.  1.
         -3   -1    0    0    0  501 -0.00000000000E+00 -0.00000000000E+00 -0.39398667144E+03  0.39398667144E+03  0.00000000000E+00 0.  1.
         24    2    1    2    0    0 -0.21440769005E+02 -0.48396020433E+01 -0.37659667561E+03  0.38576631704E+03  0.80668872310E+02 0.  0.
        -11    1    3    3    0    0  0.13327778040E+01 -0.12704165788E+02 -0.34858312762E+03  0.34881709962E+03  0.00000000000E+00 0.  1.
         12    1    3    3    0    0 -0.22773546809E+02  0.78645637445E+01 -0.28013547990E+02  0.36949217422E+02  0.00000000000E+00 0. -1.
         -4    1    1    2    0  502  0.21440769005E+02  0.48396020433E+01 -0.33728885669E+01  0.22237461653E+02  0.00000000000E+00 0.  1.
<mgrwt>
<rscale>  1 0.83609780E+02</rscale>
<asrwt>0</asrwt>
<pdfrwt beam="1">  1       21 0.21564785E-02 0.83609780E+02</pdfrwt>
<pdfrwt beam="2">  1       -3 0.60613322E-01 0.83609780E+02</pdfrwt>
<totfact> 0.13030118E+05</totfact>
</mgrwt>
</event>
<event>
 6    2  0.9453093E+000  0.9011796E+02  0.7546771E-02  0.1302566E+00
          2   -1    0    0  502    0 -0.00000000000E+00  0.00000000000E+00  0.89596108353E+01  0.89596108353E+01  0.00000000000E+00 0. -1.
         21   -1    0    0  501  502  0.00000000000E+00 -0.00000000000E+00 -0.61511938653E+03  0.61511938653E+03  0.00000000000E+00 0. -1.
         24    2    1    2    0    0  0.26508912716E+02 -0.30257468997E+02 -0.25175045066E+03  0.26739397308E+03  0.80641245926E+02 0.  0.
        -13    1    3    3    0    0 -0.28007217019E+02 -0.73123277236E+01 -0.11118316692E+03  0.11488938571E+03  0.00000000000E+00 0.  1.
         14    1    3    3    0    0  0.54516129735E+02 -0.22945141273E+02 -0.14056728374E+03  0.15250458737E+03  0.00000000000E+00 0. -1.
          1    1    1    2  501    0 -0.26508912716E+02  0.30257468997E+02 -0.35440932503E+03  0.35668502429E+03  0.00000000000E+00 0. -1.
<mgrwt>
<rscale>  1 0.90117964E+02</rscale>
<asrwt>0</asrwt>
<pdfrwt beam="1">  1       21 0.94633755E-01 0.90117964E+02</pdfrwt>
<pdfrwt beam="2">  1        2 0.13784016E-02 0.90117964E+02</pdfrwt>
<totfact> 0.98786645E+04</totfact>
</mgrwt>
</event>
<event>
 6    2  0.9453093E+000  0.1319160E+03  0.7546771E-02  0.1224640E+00
          4   -1    0    0  502    0 -0.00000000000E+00  0.00000000000E+00  0.50235481207E+02  0.50235481207E+02  0.00000000000E+00 0. -1.
         21   -1    0    0  501  502  0.00000000000E+00 -0.00000000000E+00 -0.28309481975E+03  0.28309481975E+03  0.00000000000E+00 0. -1.
         24    2    1    2    0    0  0.93496064693E+02  0.46878769485E+02 -0.15105775656E+03  0.20054991100E+03  0.80390844281E+02 0.  0.
        -13    1    3    3    0    0  0.54594299980E+00  0.38553999741E+02 -0.42052934006E+02  0.57053993798E+02  0.00000000000E+00 0.  1.
         14    1    3    3    0    0  0.92950121693E+02  0.83247697444E+01 -0.10900482255E+03  0.14349591720E+03  0.00000000000E+00 0. -1.
          3    1    1    2  501    0 -0.93496064693E+02 -0.46878769485E+02 -0.81801581980E+02  0.13278038995E+03  0.00000000000E+00 0. -1.
<mgrwt>
<rscale>  1 0.13191596E+03</rscale>
<asrwt>0</asrwt>
<pdfrwt beam="1">  1       21 0.43553049E-01 0.13191596E+03</pdfrwt>
<pdfrwt beam="2">  1        4 0.77285356E-02 0.13191596E+03</pdfrwt>
<totfact> 0.24173468E+04</totfact>
</mgrwt>
</event>
<event>
 6    2  0.9453093E+000  0.8565058E+02  0.7546771E-02  0.1313740E+00
         -3   -1    0    0    0  501 -0.00000000000E+00  0.00000000000E+00  0.39988674161E+02  0.39988674161E+02  0.00000000000E+00 0.  1.
         21   -1    0    0  501  502  0.00000000000E+00 -0.00000000000E+00 -0.99576205554E+02  0.99576205554E+02  0.00000000000E+00 0. -1.
         24    2    1    2    0    0 -0.25448752448E+02 -0.15819943130E+02 -0.16727575306E+02  0.87268747568E+02  0.80237852193E+02 0.  0.
        -13    1    3    3    0    0  0.23652736080E+02  0.11750594536E+02  0.50550138634E+01  0.26890175923E+02  0.00000000000E+00 0.  1.
         14    1    3    3    0    0 -0.49101488528E+02 -0.27570537667E+02 -0.21782589170E+02  0.60378571644E+02  0.00000000000E+00 0. -1.
         -4    1    1    2    0  502  0.25448752448E+02  0.15819943130E+02 -0.42859956086E+02  0.52296132147E+02  0.00000000000E+00 0.  1.
<mgrwt>
<rscale>  1 0.85650584E+02</rscale>
<asrwt>0</asrwt>
<pdfrwt beam="1">  1       21 0.15319416E-01 0.85650584E+02</pdfrwt>
<pdfrwt beam="2">  1       -3 0.61521037E-02 0.85650584E+02</pdfrwt>
<totfact> 0.27226980E+05</totfact>
</mgrwt>
</event>
<event>
 6    2  0.9453093E+000  0.8537647E+02  0.7546771E-02  0.1314451E+00
          2   -1    0    0  502    0 -0.00000000000E+00  0.00000000000E+00  0.16440782412E+04  0.16440782412E+04  0.00000000000E+00 0. -1.
         21   -1    0    0  501  502  0.00000000000E+00 -0.00000000000E+00 -0.76002877882E+01  0.76002877882E+01  0.00000000000E+00 0. -1.
         24    2    1    2    0    0 -0.30893541087E+02 -0.22968448946E+01  0.16058408902E+04  0.16081088604E+04  0.79557878166E+02 0.  0.
        -11    1    3    3    0    0 -0.30506599145E+01  0.36410922076E+02  0.56877643892E+03  0.56994885669E+03  0.00000000000E+00 0.  1.
         12    1    3    3    0    0 -0.27842881173E+02 -0.38707766971E+02  0.10370644513E+04  0.10381600037E+04  0.00000000000E+00 0. -1.
          1    1    1    2  501    0  0.30893541087E+02  0.22968448946E+01  0.30637063264E+02  0.43569668610E+02  0.00000000000E+00 0. -1.
<mgrwt>
<rscale>  1 0.85376474E+02</rscale>
<asrwt>0</asrwt>
<pdfrwt beam="1">  1       21 0.11692764E-02 0.85376474E+02</pdfrwt>
<pdfrwt beam="2">  1        2 0.25293483E+00 0.85376474E+02</pdfrwt>
<totfact> 0.42219383E+05</totfact>
</mgrwt>
</event>
<event>
 6    2  0.9453093E+000  0.7827986E+02  0.7546771E-02  0.1334005E+00
          2   -1    0    0  502    0 -0.00000000000E+00  0.00000000000E+00  0.56661703329E+03  0.56661703329E+03  0.00000000000E+00 0. -1.
         21   -1    0    0  501  502  0.00000000000E+00 -0.00000000000E+00 -0.51595980987E+01  0.51595980987E+01  0.00000000000E+00 0. -1.
         24    2    1    2    0    0  0.25686391716E+02  0.12988181809E+02  0.37217765038E+03  0.38032083878E+03  0.72795970906E+02 0.  0.
        -11    1    3    3    0    0  0.72018887056E+01 -0.21970261286E+02  0.26625964509E+03  0.26726159130E+03  0.00000000000E+00 0.  1.
         12    1    3    3    0    0  0.18484503011E+02  0.34958443095E+02  0.10591800529E+03  0.11305924748E+03  0.00000000000E+00 0. -1.
          1    1    1    2  501    0 -0.25686391716E+02 -0.12988181809E+02  0.18927978482E+03  0.19145579261E+03  0.00000000000E+00 0. -1.
<mgrwt>
<rscale>  1 0.78279863E+02</rscale>
<asrwt>0</asrwt>
<pdfrwt beam="1">  1       21 0.79378477E-03 0.78279863E+02</pdfrwt>
<pdfrwt beam="2">  1        2 0.87171802E-01 0.78279863E+02</pdfrwt>
<totfact> 0.33223142E+06</totfact>
</mgrwt>
</event>
<event>
 6    2  0.9453093E+000  0.8978262E+02  0.7546771E-02  0.1303379E+00
         -1   -1    0    0    0  501 -0.00000000000E+00  0.00000000000E+00  0.11841196589E+02  0.11841196589E+02  0.00000000000E+00 0.  1.
         21   -1    0    0  501  502  0.00000000000E+00 -0.00000000000E+00 -0.35882704242E+03  0.35882704242E+03  0.00000000000E+00 0.  1.
         24    2    1    2    0    0 -0.35325041436E+02 -0.15516982437E+02 -0.21082471087E+03  0.22914619136E+03  0.81069618266E+02 0.  0.
        -11    1    3    3    0    0 -0.33354881308E+02  0.29548330611E+02 -0.11053185070E+03  0.11917609646E+03  0.00000000000E+00 0.  1.
         12    1    3    3    0    0 -0.19701601282E+01 -0.45065313048E+02 -0.10029286017E+03  0.10997009490E+03  0.00000000000E+00 0. -1.
         -2    1    1    2    0  502  0.35325041436E+02  0.15516982437E+02 -0.13616113496E+03  0.14152204764E+03  0.00000000000E+00 0.  1.
<mgrwt>
<rscale>  1 0.89782617E+02</rscale>
<asrwt>0</asrwt>
<pdfrwt beam="1">  1       21 0.55204172E-01 0.89782617E+02</pdfrwt>
<pdfrwt beam="2">  1       -1 0.18217222E-02 0.89782617E+02</pdfrwt>
<totfact> 0.20189552E+05</totfact>
</mgrwt>
</event>
<event>
 6    2  0.9453093E+000  0.1035744E+03  0.7546771E-02  0.1272954E+00
          2   -1    0    0  502    0 -0.00000000000E+00  0.00000000000E+00  0.10151313636E+04  0.10151313636E+04  0.00000000000E+00 0. -1.
         21   -1    0    0  501  502  0.00000000000E+00 -0.00000000000E+00 -0.66014421973E+01  0.66014421973E+01  0.00000000000E+00 0. -1.
         24    2    1    2    0    0 -0.10288176736E+02  0.59037290302E+02  0.61289158258E+03  0.62158165514E+03  0.84477297428E+02 0.  0.
        -13    1    3    3    0    0 -0.33402079242E+02 -0.52544557955E+01  0.25448203237E+03  0.25671854822E+03  0.00000000000E+00 0.  1.
         14    1    3    3    0    0  0.23113902506E+02  0.64291746097E+02  0.35840955021E+03  0.36486310692E+03  0.00000000000E+00 0. -1.
          1    1    1    2  501    0  0.10288176736E+02 -0.59037290302E+02  0.39563833878E+03  0.40015115062E+03  0.00000000000E+00 0. -1.
<mgrwt>
<rscale>  1 0.10357443E+03</rscale>
<asrwt>0</asrwt>
<pdfrwt beam="1">  1       21 0.10156073E-02 0.10357443E+03</pdfrwt>
<pdfrwt beam="2">  1        2 0.15617393E+00 0.10357443E+03</pdfrwt>
<totfact> 0.11508550E+06</totfact>
</mgrwt>
</event>
<event>
 6    2  0.9453093E+000  0.1267731E+03  0.7546771E-02  0.1232324E+00
          2   -1    0    0  502    0 -0.00000000000E+00  0.00000000000E+00  0.11442321421E+04  0.11442321421E+04  0.00000000000E+00 0. -1.
         21   -1    0    0  501  502  0.00000000000E+00 -0.00000000000E+00 -0.25989691977E+02  0.25989691977E+02  0.00000000000E+00 0. -1.
         24    2    1    2    0    0 -0.10662895740E+02 -0.97373673640E+02  0.10318598943E+04  0.10396183287E+04  0.80474208730E+02 0.  0.
        -11    1    3    3    0    0  0.11427759096E+02  0.61400016527E+01  0.38319216204E+02  0.40455600709E+02  0.00000000000E+00 0.  1.
         12    1    3    3    0    0 -0.22090654836E+02 -0.10351367529E+03  0.99354067811E+03  0.99916272802E+03  0.00000000000E+00 0. -1.
          1    1    1    2  501    0  0.10662895740E+02  0.97373673640E+02  0.86382555840E+02  0.13060350538E+03  0.00000000000E+00 0. -1.
<mgrwt>
<rscale>  1 0.12677314E+03</rscale>
<asrwt>0</asrwt>
<pdfrwt beam="1">  1       21 0.39984150E-02 0.12677314E+03</pdfrwt>
<pdfrwt beam="2">  1        2 0.17603568E+00 0.12677314E+03</pdfrwt>
<totfact> 0.10761146E+05</totfact>
</mgrwt>
</event>
<event>
 6    2  0.9453093E+000  0.9338980E+02  0.7546771E-02  0.1294844E+00
         21   -1    0    0  501  502  0.00000000000E+00  0.00000000000E+00  0.73673060373E+02  0.73673060373E+02  0.00000000000E+00 0. -1.
          2   -1    0    0  502    0 -0.00000000000E+00 -0.00000000000E+00 -0.95121979631E+02  0.95121979631E+02  0.00000000000E+00 0. -1.
         24    2    1    2    0    0 -0.12663114134E+02  0.17796889273E+02 -0.69234375923E+02  0.11625425969E+03  0.90799616514E+02 0.  0.
        -13    1    3    3    0    0  0.24781971981E+02 -0.10257104617E+02  0.61624070945E+01  0.27519621938E+02  0.00000000000E+00 0.  1.
         14    1    3    3    0    0 -0.37445086116E+02  0.28053993890E+02 -0.75396783018E+02  0.88734637751E+02  0.00000000000E+00 0. -1.
          1    1    1    2  501    0  0.12663114134E+02 -0.17796889273E+02  0.47785456665E+02  0.52540780315E+02  0.00000000000E+00 0. -1.
<mgrwt>
<rscale>  1 0.93389796E+02</rscale>
<asrwt>0</asrwt>
<pdfrwt beam="1">  1       21 0.11334317E-01 0.93389796E+02</pdfrwt>
<pdfrwt beam="2">  1        2 0.14634151E-01 0.93389796E+02</pdfrwt>
<totfact> 0.30299567E+05</totfact>
</mgrwt>
</event>
<event>
 6    2  0.9453093E+000  0.8630515E+02  0.7546771E-02  0.1312054E+00
         21   -1    0    0  501  502  0.00000000000E+00  0.00000000000E+00  0.44765167119E+02  0.44765167119E+02  0.00000000000E+00 0.  1.
         -1   -1    0    0    0  501 -0.00000000000E+00 -0.00000000000E+00 -0.73182672213E+02  0.73182672213E+02  0.00000000000E+00 0.  1.
         24    2    1    2    0    0 -0.21407399933E+02 -0.16120806900E+02 -0.29276637821E+02  0.91135616447E+02  0.82039148436E+02 0.  0.
        -13    1    3    3    0    0 -0.48230816303E+02 -0.29297588364E+01 -0.36293167626E+02  0.60431689902E+02  0.00000000000E+00 0.  1.
         14    1    3    3    0    0  0.26823416370E+02 -0.13191048063E+02  0.70165298044E+01  0.30703926545E+02  0.00000000000E+00 0. -1.
         -2    1    1    2    0  502  0.21407399933E+02  0.16120806900E+02  0.85913272816E+00  0.26812222885E+02  0.00000000000E+00 0.  1.
<mgrwt>
<rscale>  1 0.86305151E+02</rscale>
<asrwt>0</asrwt>
<pdfrwt beam="1">  1       21 0.68869488E-02 0.86305151E+02</pdfrwt>
<pdfrwt beam="2">  1       -1 0.11258873E-01 0.86305151E+02</pdfrwt>
<totfact> 0.65132085E+05</totfact>
</mgrwt>
</event>
<event>
 6    2  0.9453093E+000  0.1036027E+03  0.7546771E-02  0.1272897E+00
         21   -1    0    0  501  502  0.00000000000E+00  0.00000000000E+00  0.71710196000E+01  0.71710196000E+01  0.00000000000E+00 0.  1.
          2   -1    0    0  502    0 -0.00000000000E+00 -0.00000000000E+00 -0.10558371843E+04  0.10558371843E+04  0.00000000000E+00 0. -1.
         24    2    1    2    0    0  0.54528289650E+01  0.69926054980E+02 -0.59505865155E+03  0.60401020554E+03  0.76250528574E+02 0.  0.
        -13    1    3    3    0    0  0.36544396948E+01  0.31009167502E+02 -0.60947183421E+02  0.68479796770E+02  0.00000000000E+00 0.  1.
         14    1    3    3    0    0  0.17983892702E+01  0.38916887478E+02 -0.53411146813E+03  0.53553040877E+03  0.00000000000E+00 0. -1.
          1    1    1    2  501    0 -0.54528289650E+01 -0.69926054980E+02 -0.45360751316E+03  0.45899799837E+03  0.00000000000E+00 0. -1.
<mgrwt>
<rscale>  1 0.10360275E+03</rscale>
<asrwt>0</asrwt>
<pdfrwt beam="1">  1       21 0.11032340E-02 0.10360275E+03</pdfrwt>
<pdfrwt beam="2">  1        2 0.16243646E+00 0.10360275E+03</pdfrwt>
<totfact> 0.95707259E+05</totfact>
</mgrwt>
</event>
<event>
 6    2  0.9453093E+000  0.8649521E+02  0.7546771E-02  0.1311568E+00
         21   -1    0    0  501  502  0.00000000000E+00  0.00000000000E+00  0.10336180422E+02  0.10336180422E+02  0.00000000000E+00 0.  1.
          2   -1    0    0  502    0 -0.00000000000E+00 -0.00000000000E+00 -0.34042497220E+03  0.34042497220E+03  0.00000000000E+00 0. -1.
         24    2    1    2    0    0 -0.21958185679E+02 -0.22002972615E+02 -0.22079066224E+03  0.23712852596E+03  0.80716346350E+02 0.  0.
        -13    1    3    3    0    0  0.25036981985E+02 -0.22197601874E+02 -0.51335745671E+02  0.61277587905E+02  0.00000000000E+00 0.  1.
         14    1    3    3    0    0 -0.46995167664E+02  0.19462925825E+00 -0.16945491657E+03  0.17585093805E+03  0.00000000000E+00 0. -1.
          1    1    1    2  501    0  0.21958185679E+02  0.22002972615E+02 -0.10929812954E+03  0.11363262667E+03  0.00000000000E+00 0. -1.
<mgrwt>
<rscale>  1 0.86495210E+02</rscale>
<asrwt>0</asrwt>
<pdfrwt beam="1">  1       21 0.15901818E-02 0.86495210E+02</pdfrwt>
<pdfrwt beam="2">  1        2 0.52373066E-01 0.86495210E+02</pdfrwt>
<totfact> 0.19480862E+06</totfact>
</mgrwt>
</event>
<event>
 6    2  0.9453093E+000  0.1424956E+03  0.7546771E-02  0.1210010E+00
         -1   -1    0    0    0  501 -0.00000000000E+00  0.00000000000E+00  0.17722005523E+03  0.17722005523E+03  0.00000000000E+00 0.  1.
         21   -1    0    0  501  502  0.00000000000E+00 -0.00000000000E+00 -0.10179420102E+03  0.10179420102E+03  0.00000000000E+00 0. -1.
         24    2    1    2    0    0 -0.99641411804E+02  0.62663844172E+02  0.65721734468E+01  0.14264711334E+03  0.80310878261E+02 0.  0.
        -11    1    3    3    0    0 -0.54418446927E+02  0.13652123788E+02  0.39163191668E+02  0.68421512929E+02  0.00000000000E+00 0.  1.
         12    1    3    3    0    0 -0.45222964877E+02  0.49011720384E+02 -0.32591018222E+02  0.74225600409E+02  0.00000000000E+00 0. -1.
         -2    1    1    2    0  502  0.99641411804E+02 -0.62663844172E+02  0.68853680758E+02  0.13636714291E+03  0.00000000000E+00 0.  1.
<mgrwt>
<rscale>  1 0.14249563E+03</rscale>
<asrwt>0</asrwt>
<pdfrwt beam="1">  1       21 0.15660646E-01 0.14249563E+03</pdfrwt>
<pdfrwt beam="2">  1       -1 0.27264624E-01 0.14249563E+03</pdfrwt>
<totfact> 0.39584413E+04</totfact>
</mgrwt>
</event>
<event>
 6    2  0.9453093E+000  0.8200119E+02  0.7546771E-02  0.1323466E+00
         21   -1    0    0  501  502  0.00000000000E+00  0.00000000000E+00  0.13676620033E+03  0.13676620033E+03  0.00000000000E+00 0.  1.
          4   -1    0    0  502    0 -0.00000000000E+00 -0.00000000000E+00 -0.39020204980E+02  0.39020204980E+02  0.00000000000E+00 0. -1.
         24    2    1    2    0    0  0.13825621150E+02  0.31425568505E+02  0.11304819451E+02  0.82776776524E+02  0.74467990659E+02 0.  0.
        -13    1    3    3    0    0  0.12041066934E+02 -0.80660514668E+01  0.34164362344E+02  0.37111347773E+02  0.00000000000E+00 0.  1.
         14    1    3    3    0    0  0.17845542165E+01  0.39491619972E+02 -0.22859542893E+02  0.45665428751E+02  0.00000000000E+00 0. -1.
          3    1    1    2  501    0 -0.13825621150E+02 -0.31425568505E+02  0.86441175900E+02  0.93009628787E+02  0.00000000000E+00 0. -1.
<mgrwt>
<rscale>  1 0.82001194E+02</rscale>
<asrwt>0</asrwt>
<pdfrwt beam="1">  1       21 0.21040954E-01 0.82001194E+02</pdfrwt>
<pdfrwt beam="2">  1        4 0.60031085E-02 0.82001194E+02</pdfrwt>
<totfact> 0.13868118E+05</totfact>
</mgrwt>
</event>
<event>
 6    2  0.9453093E+000  0.8617463E+02  0.7546771E-02  0.1312389E+00
         21   -1    0    0  501  502  0.00000000000E+00  0.00000000000E+00  0.19221810974E+02  0.19221810974E+02  0.00000000000E+00 0. -1.
         -1   -1    0    0    0  501 -0.00000000000E+00 -0.00000000000E+00 -0.19383015515E+03  0.19383015515E+03  0.00000000000E+00 0.  1.
         24    2    1    2    0    0  0.16874213799E+01  0.29212213761E+02 -0.15645431072E+03  0.17861695844E+03  0.81054707903E+02 0.  0.
        -11    1    3    3    0    0 -0.12004484311E+02  0.72336158036E+00 -0.14422475211E+03  0.14472529156E+03  0.00000000000E+00 0.  1.
         12    1    3    3    0    0  0.13691905691E+02  0.28488852181E+02 -0.12229558618E+02  0.33891666882E+02  0.00000000000E+00 0. -1.
         -2    1    1    2    0  502 -0.16874213799E+01 -0.29212213761E+02 -0.18154033447E+02  0.34435007683E+02  0.00000000000E+00 0.  1.
<mgrwt>
<rscale>  1 0.86174628E+02</rscale>
<asrwt>0</asrwt>
<pdfrwt beam="1">  1       21 0.29572016E-02 0.86174628E+02</pdfrwt>
<pdfrwt beam="2">  1       -1 0.29820024E-01 0.86174628E+02</pdfrwt>
<totfact> 0.56708658E+05</totfact>
</mgrwt>
</event>
<event>
 6    2  0.9453093E+000  0.8297107E+02  0.7546771E-02  0.1320825E+00
         -1   -1    0    0    0  501 -0.00000000000E+00  0.00000000000E+00  0.72229473667E+01  0.72229473667E+01  0.00000000000E+00 0.  1.
         21   -1    0    0  501  502  0.00000000000E+00 -0.00000000000E+00 -0.15885163159E+04  0.15885163159E+04  0.00000000000E+00 0.  1.
         24    2    1    2    0    0  0.19119503943E+02 -0.20210596936E+02 -0.23603723919E+03  0.25019547833E+03  0.78167611134E+02 0.  0.
        -13    1    3    3    0    0  0.58653511533E+01 -0.20458438987E+02 -0.95609781169E+01  0.23331574582E+02  0.00000000000E+00 0.  1.
         14    1    3    3    0    0  0.13254152790E+02  0.24784205093E+00 -0.22647626108E+03  0.22686390375E+03  0.00000000000E+00 0. -1.
         -2    1    1    2    0  502 -0.19119503943E+02  0.20210596936E+02 -0.13452561294E+04  0.13455437850E+04  0.00000000000E+00 0.  1.
<mgrwt>
<rscale>  1 0.82971074E+02</rscale>
<asrwt>0</asrwt>
<pdfrwt beam="1">  1       21 0.24438724E+00 0.82971074E+02</pdfrwt>
<pdfrwt beam="2">  1       -1 0.11112222E-02 0.82971074E+02</pdfrwt>
<totfact> 0.10626777E+04</totfact>
</mgrwt>
</event>
<event>
 6    2  0.9453093E+000  0.8555573E+02  0.7546771E-02  0.1313986E+00
          2   -1    0    0  502    0 -0.00000000000E+00  0.00000000000E+00  0.81362776936E+02  0.81362776936E+02  0.00000000000E+00 0. -1.
         21   -1    0    0  501  502  0.00000000000E+00 -0.00000000000E+00 -0.39302608500E+02  0.39302608500E+02  0.00000000000E+00 0.  1.
         24    2    1    2    0    0  0.17888698611E+02  0.20708950868E+02  0.28944375171E+02  0.90319212414E+02  0.81061193509E+02 0.  0.
        -11    1    3    3    0    0  0.47489473194E+02  0.27738564158E+02  0.16196522006E+02  0.57332410823E+02  0.00000000000E+00 0.  1.
         12    1    3    3    0    0 -0.29600774583E+02 -0.70296132900E+01  0.12747853165E+02  0.32986801591E+02  0.00000000000E+00 0. -1.
          1    1    1    2  501    0 -0.17888698611E+02 -0.20708950868E+02  0.13115793265E+02  0.30346173021E+02  0.00000000000E+00 0. -1.
<mgrwt>
<rscale>  1 0.85555732E+02</rscale>
<asrwt>0</asrwt>
<pdfrwt beam="1">  1       21 0.60465552E-02 0.85555732E+02</pdfrwt>
<pdfrwt beam="2">  1        2 0.12517350E-01 0.85555732E+02</pdfrwt>
<totfact> 0.10576342E+06</totfact>
</mgrwt>
</event>
<event>
 6    2  0.9453093E+000  0.8403111E+02  0.7546771E-02  0.1317986E+00
         -1   -1    0    0    0  501 -0.00000000000E+00  0.00000000000E+00  0.44668208461E+03  0.44668208461E+03  0.00000000000E+00 0.  1.
         21   -1    0    0  501  502  0.00000000000E+00 -0.00000000000E+00 -0.15237460045E+02  0.15237460045E+02  0.00000000000E+00 0.  1.
         24    2    1    2    0    0  0.14466914236E+02 -0.19975273236E+02  0.42898014110E+03  0.43713291868E+03  0.80330093933E+02 0.  0.
        -11    1    3    3    0    0 -0.10485745655E+01 -0.47717896625E+02  0.32239484653E+03  0.32590878207E+03  0.00000000000E+00 0.  1.
         12    1    3    3    0    0  0.15515488802E+02  0.27742623388E+02  0.10658529457E+03  0.11122413661E+03  0.00000000000E+00 0. -1.
         -2    1    1    2    0  502 -0.14466914236E+02  0.19975273236E+02  0.24644834676E+01  0.24786625974E+02  0.00000000000E+00 0.  1.
<mgrwt>
<rscale>  1 0.84031108E+02</rscale>
<asrwt>0</asrwt>
<pdfrwt beam="1">  1       21 0.23442250E-02 0.84031108E+02</pdfrwt>
<pdfrwt beam="2">  1       -1 0.68720311E-01 0.84031108E+02</pdfrwt>
<totfact> 0.18640283E+05</totfact>
</mgrwt>
</event>
<event>
 6    2  0.9453093E+000  0.1001520E+03  0.7546771E-02  0.1279977E+00
         21   -1    0    0  501  502  0.00000000000E+00  0.00000000000E+00  0.10029482398E+02  0.10029482398E+02  0.00000000000E+00 0.  1.
          2   -1    0    0  502    0 -0.00000000000E+00 -0.00000000000E+00 -0.72018680859E+03  0.72018680859E+03  0.00000000000E+00 0. -1.
         24    2    1    2    0    0 -0.57334952302E+02 -0.19259526001E+02 -0.54947107847E+03  0.55852384414E+03  0.79826012686E+02 0.  0.
        -13    1    3    3    0    0 -0.72560038772E+02 -0.31181192151E+02 -0.47812376876E+03  0.48460248062E+03  0.00000000000E+00 0.  1.
         14    1    3    3    0    0  0.15225086470E+02  0.11921666150E+02 -0.71347309712E+02  0.73921363522E+02  0.00000000000E+00 0. -1.
          1    1    1    2  501    0  0.57334952302E+02  0.19259526001E+02 -0.16068624772E+03  0.17169244685E+03  0.00000000000E+00 0. -1.
<mgrwt>
<rscale>  1 0.10015198E+03</rscale>
<asrwt>0</asrwt>
<pdfrwt beam="1">  1       21 0.15429976E-02 0.10015198E+03</pdfrwt>
<pdfrwt beam="2">  1        2 0.11079795E+00 0.10015198E+03</pdfrwt>
<totfact> 0.91590744E+05</totfact>
</mgrwt>
</event>
<event>
 6    2  0.9453093E+000  0.7771822E+02  0.7546771E-02  0.1335654E+00
         21   -1    0    0  501  502  0.00000000000E+00  0.00000000000E+00  0.56718909951E+01  0.56718909951E+01  0.00000000000E+00 0. -1.
          2   -1    0    0  502    0 -0.00000000000E+00 -0.00000000000E+00 -0.20268082743E+04  0.20268082743E+04  0.00000000000E+00 0. -1.
         24    2    1    2    0    0 -0.13639758407E+02  0.19743437957E+02 -0.19967676698E+04  0.19982795725E+04  0.73920742239E+02 0.  0.
        -11    1    3    3    0    0 -0.34743133223E+02  0.28562887258E+01 -0.47722571419E+03  0.47849725807E+03  0.00000000000E+00 0.  1.
         12    1    3    3    0    0  0.21103374816E+02  0.16887149231E+02 -0.15195419557E+04  0.15197823144E+04  0.00000000000E+00 0. -1.
          1    1    1    2  501    0  0.13639758407E+02 -0.19743437957E+02 -0.24368713415E+02  0.34200592762E+02  0.00000000000E+00 0. -1.
<mgrwt>
<rscale>  1 0.77718225E+02</rscale>
<asrwt>0</asrwt>
<pdfrwt beam="1">  1       21 0.87260084E-03 0.77718225E+02</pdfrwt>
<pdfrwt beam="2">  1        2 0.31181586E+00 0.77718225E+02</pdfrwt>
<totfact> 0.42770290E+05</totfact>
</mgrwt>
</event>
<event>
 6    2  0.9453093E+000  0.8364929E+02  0.7546771E-02  0.1319003E+00
         21   -1    0    0  501  502  0.00000000000E+00  0.00000000000E+00  0.32855668921E+01  0.32855668921E+01  0.00000000000E+00 0.  1.
         -1   -1    0    0    0  501 -0.00000000000E+00 -0.00000000000E+00 -0.21334714043E+04  0.21334714043E+04  0.00000000000E+00 0.  1.
         24    2    1    2    0    0 -0.22332572521E+02  0.48105871357E+01 -0.20792591140E+04  0.20809410532E+04  0.80469361848E+02 0.  0.
        -13    1    3    3    0    0 -0.48212656753E+02 -0.14589175489E+02 -0.11098028538E+04  0.11109453986E+04  0.00000000000E+00 0.  1.
         14    1    3    3    0    0  0.25880084233E+02  0.19399762624E+02 -0.96945626019E+03  0.96999565462E+03  0.00000000000E+00 0. -1.
         -2    1    1    2    0  502  0.22332572521E+02 -0.48105871357E+01 -0.50926723380E+02  0.55815917964E+02  0.00000000000E+00 0.  1.
<mgrwt>
<rscale>  1 0.83649290E+02</rscale>
<asrwt>0</asrwt>
<pdfrwt beam="1">  1       21 0.50547042E-03 0.83649290E+02</pdfrwt>
<pdfrwt beam="2">  1       -1 0.32822729E+00 0.83649290E+02</pdfrwt>
<totfact> 0.27101112E+04</totfact>
</mgrwt>
</event>
<event>
 6    2  0.9453093E+000  0.8974246E+02  0.7546771E-02  0.1303477E+00
          2   -1    0    0  502    0 -0.00000000000E+00  0.00000000000E+00  0.16806871013E+04  0.16806871013E+04  0.00000000000E+00 0. -1.
         21   -1    0    0  501  502  0.00000000000E+00 -0.00000000000E+00 -0.24517927158E+01  0.24517927158E+01  0.00000000000E+00 0.  1.
         24    2    1    2    0    0  0.38219256291E+02 -0.18110613085E+01  0.12339188723E+04  0.12371780358E+04  0.81177074302E+02 0.  0.
        -13    1    3    3    0    0  0.34918767856E+02 -0.29667938428E+02  0.37322245105E+03  0.37602460676E+03  0.00000000000E+00 0.  1.
         14    1    3    3    0    0  0.33004884347E+01  0.27856877120E+02  0.86069642121E+03  0.86115342901E+03  0.00000000000E+00 0. -1.
          1    1    1    2  501    0 -0.38219256291E+02  0.18110613085E+01  0.44431643637E+03  0.44596085828E+03  0.00000000000E+00 0. -1.
<mgrwt>
<rscale>  1 0.89742459E+02</rscale>
<asrwt>0</asrwt>
<pdfrwt beam="1">  1       21 0.37720022E-03 0.89742459E+02</pdfrwt>
<pdfrwt beam="2">  1        2 0.25856633E+00 0.89742459E+02</pdfrwt>
<totfact> 0.23272631E+06</totfact>
</mgrwt>
</event>
<event>
 6    2  0.9453093E+000  0.9373560E+02  0.7546771E-02  0.1294049E+00
          2   -1    0    0  502    0 -0.00000000000E+00  0.00000000000E+00  0.69155958539E+03  0.69155958539E+03  0.00000000000E+00 0. -1.
         21   -1    0    0  501  502  0.00000000000E+00 -0.00000000000E+00 -0.76556263533E+01  0.76556263533E+01  0.00000000000E+00 0.  1.
         24    2    1    2    0    0  0.37569818469E+02 -0.28650050868E+02  0.52989614842E+03  0.53812293258E+03  0.80957061368E+02 0.  0.
        -11    1    3    3    0    0  0.53436527394E+02 -0.14042031843E+02  0.19908478635E+03  0.20660927683E+03  0.00000000000E+00 0.  1.
         12    1    3    3    0    0 -0.15866708925E+02 -0.14608019025E+02  0.33081136207E+03  0.33151365575E+03  0.00000000000E+00 0. -1.
          1    1    1    2  501    0 -0.37569818469E+02  0.28650050868E+02  0.15400781061E+03  0.16109227916E+03  0.00000000000E+00 0. -1.
<mgrwt>
<rscale>  1 0.93735599E+02</rscale>
<asrwt>0</asrwt>
<pdfrwt beam="1">  1       21 0.11777892E-02 0.93735599E+02</pdfrwt>
<pdfrwt beam="2">  1        2 0.10639373E+00 0.93735599E+02</pdfrwt>
<totfact> 0.14634660E+06</totfact>
</mgrwt>
</event>
<event>
 6    2  0.9453093E+000  0.9616573E+02  0.7546771E-02  0.1288572E+00
          2   -1    0    0  502    0 -0.00000000000E+00  0.00000000000E+00  0.13567323289E+03  0.13567323289E+03  0.00000000000E+00 0. -1.
         21   -1    0    0  501  502  0.00000000000E+00 -0.00000000000E+00 -0.55676182773E+02  0.55676182773E+02  0.00000000000E+00 0. -1.
         24    2    1    2    0    0 -0.54545974317E+02 -0.38446782194E+01  0.94449134154E+02  0.13479052955E+03  0.79106276930E+02 0.  0.
        -13    1    3    3    0    0 -0.33711495001E+01  0.30771114834E+02  0.15733410413E+02  0.34724146646E+02  0.00000000000E+00 0.  1.
         14    1    3    3    0    0 -0.51174824817E+02 -0.34615793054E+02  0.78715723741E+02  0.10006638291E+03  0.00000000000E+00 0. -1.
          1    1    1    2  501    0  0.54545974317E+02  0.38446782194E+01 -0.14452084039E+02  0.56558886109E+02  0.00000000000E+00 0. -1.
<mgrwt>
<rscale>  1 0.96165731E+02</rscale>
<asrwt>0</asrwt>
<pdfrwt beam="1">  1       21 0.85655666E-02 0.96165731E+02</pdfrwt>
<pdfrwt beam="2">  1        2 0.20872805E-01 0.96165731E+02</pdfrwt>
<totfact> 0.32956872E+05</totfact>
</mgrwt>
</event>
<event>
 6    2  0.9453093E+000  0.8290784E+02  0.7546771E-02  0.1320996E+00
          2   -1    0    0  502    0 -0.00000000000E+00  0.00000000000E+00  0.31076200757E+02  0.31076200757E+02  0.00000000000E+00 0. -1.
         21   -1    0    0  501  502  0.00000000000E+00 -0.00000000000E+00 -0.11940894015E+03  0.11940894015E+03  0.00000000000E+00 0. -1.
         24    2    1    2    0    0 -0.21921080370E+02 -0.88018814003E+01 -0.31064850117E+02  0.88536629845E+02  0.79471397564E+02 0.  0.
        -11    1    3    3    0    0  0.20169307738E+02 -0.14810578200E+02 -0.37958483643E+02  0.45464279184E+02  0.00000000000E+00 0.  1.
         12    1    3    3    0    0 -0.42090388108E+02  0.60086967993E+01  0.68936335255E+01  0.43072350661E+02  0.00000000000E+00 0. -1.
          1    1    1    2  501    0  0.21921080370E+02  0.88018814003E+01 -0.57267889277E+02  0.61948511064E+02  0.00000000000E+00 0. -1.
<mgrwt>
<rscale>  1 0.82907840E+02</rscale>
<asrwt>0</asrwt>
<pdfrwt beam="1">  1       21 0.18370606E-01 0.82907840E+02</pdfrwt>
<pdfrwt beam="2">  1        2 0.47809539E-02 0.82907840E+02</pdfrwt>
<totfact> 0.50296498E+05</totfact>
</mgrwt>
</event>
<event>
 6    2  0.9453093E+000  0.1105206E+03  0.7546771E-02  0.1259609E+00
          4   -1    0    0  502    0 -0.00000000000E+00  0.00000000000E+00  0.45547325401E+03  0.45547325401E+03  0.00000000000E+00 0. -1.
         21   -1    0    0  501  502  0.00000000000E+00 -0.00000000000E+00 -0.42648243581E+02  0.42648243581E+02  0.00000000000E+00 0. -1.
         24    2    1    2    0    0  0.71994565985E+02  0.17995695814E+02  0.40915734072E+03  0.42382133339E+03  0.81900736086E+02 0.  0.
        -13    1    3    3    0    0  0.27501864782E+02  0.15503772056E+02  0.35465265484E+02  0.47481623501E+02  0.00000000000E+00 0.  1.
         14    1    3    3    0    0  0.44492701203E+02  0.24919237574E+01  0.37369207524E+03  0.37633970989E+03  0.00000000000E+00 0. -1.
          3    1    1    2  501    0 -0.71994565985E+02 -0.17995695814E+02  0.36676697082E+01  0.74300164201E+02  0.00000000000E+00 0. -1.
<mgrwt>
<rscale>  1 0.11052056E+03</rscale>
<asrwt>0</asrwt>
<pdfrwt beam="1">  1       21 0.65612686E-02 0.11052056E+03</pdfrwt>
<pdfrwt beam="2">  1        4 0.70072805E-01 0.11052056E+03</pdfrwt>
<totfact> 0.12859342E+04</totfact>
</mgrwt>
</event>
<event>
 6    2  0.9453093E+000  0.8672328E+02  0.7546771E-02  0.1310987E+00
          2   -1    0    0  502    0 -0.00000000000E+00  0.00000000000E+00  0.16029407980E+04  0.16029407980E+04  0.00000000000E+00 0. -1.
         21   -1    0    0  501  502  0.00000000000E+00 -0.00000000000E+00 -0.21961151251E+01  0.21961151251E+01  0.00000000000E+00 0.  1.
         24    2    1    2    0    0  0.16138939735E+02  0.20133748079E+02  0.97141070994E+03  0.97527416404E+03  0.82795497957E+02 0.  0.
        -13    1    3    3    0    0  0.38590410332E+02  0.40695665905E+02  0.59772269184E+03  0.60034804350E+03  0.00000000000E+00 0.  1.
         14    1    3    3    0    0 -0.22451470596E+02 -0.20561917826E+02  0.37368801810E+03  0.37492612055E+03  0.00000000000E+00 0. -1.
          1    1    1    2  501    0 -0.16138939735E+02 -0.20133748079E+02  0.62933397289E+03  0.62986274904E+03  0.00000000000E+00 0. -1.
<mgrwt>
<rscale>  1 0.86723282E+02</rscale>
<asrwt>0</asrwt>
<pdfrwt beam="1">  1       21 0.33786515E-03 0.86723282E+02</pdfrwt>
<pdfrwt beam="2">  1        2 0.24660534E+00 0.86723282E+02</pdfrwt>
<totfact> 0.30019769E+06</totfact>
</mgrwt>
</event>
<event>
 6    2  0.9453093E+000  0.8497792E+02  0.7546771E-02  0.1315490E+00
         21   -1    0    0  501  502  0.00000000000E+00  0.00000000000E+00  0.35037464545E+02  0.35037464545E+02  0.00000000000E+00 0.  1.
          2   -1    0    0  502    0 -0.00000000000E+00 -0.00000000000E+00 -0.96067802026E+02  0.96067802026E+02  0.00000000000E+00 0. -1.
         24    2    1    2    0    0 -0.24424780538E+02 -0.53034009262E+01 -0.27565628451E+02  0.89337064358E+02  0.81219155563E+02 0.  0.
        -11    1    3    3    0    0 -0.44587137850E+02 -0.73737957911E+01  0.10333010918E+02  0.46358999565E+02  0.00000000000E+00 0.  1.
         12    1    3    3    0    0  0.20162357312E+02  0.20703948648E+01 -0.37898639369E+02  0.42978064792E+02  0.00000000000E+00 0. -1.
          1    1    1    2  501    0  0.24424780538E+02  0.53034009262E+01 -0.33464709030E+02  0.41768202214E+02  0.00000000000E+00 0. -1.
<mgrwt>
<rscale>  1 0.84977922E+02</rscale>
<asrwt>0</asrwt>
<pdfrwt beam="1">  1       21 0.53903792E-02 0.84977922E+02</pdfrwt>
<pdfrwt beam="2">  1        2 0.14779662E-01 0.84977922E+02</pdfrwt>
<totfact> 0.10548943E+06</totfact>
</mgrwt>
</event>
<event>
 6    2  0.9453093E+000  0.8902434E+02  0.7546771E-02  0.1305232E+00
          2   -1    0    0  502    0 -0.00000000000E+00  0.00000000000E+00  0.15097666584E+04  0.15097666584E+04  0.00000000000E+00 0. -1.
         21   -1    0    0  501  502  0.00000000000E+00 -0.00000000000E+00 -0.26249013297E+01  0.26249013297E+01  0.00000000000E+00 0.  1.
         24    2    1    2    0    0  0.64515945802E+01 -0.34878438949E+02  0.96837694397E+03  0.97246040448E+03  0.81652949056E+02 0.  0.
        -13    1    3    3    0    0 -0.23711026849E+02 -0.43120355301E+02  0.36878486416E+03  0.37205356317E+03  0.00000000000E+00 0.  1.
         14    1    3    3    0    0  0.30162621430E+02  0.82419163513E+01  0.59959207981E+03  0.60040684130E+03  0.00000000000E+00 0. -1.
          1    1    1    2  501    0 -0.64515945802E+01  0.34878438949E+02  0.53876481315E+03  0.53993115530E+03  0.00000000000E+00 0. -1.
<mgrwt>
<rscale>  1 0.89024337E+02</rscale>
<asrwt>0</asrwt>
<pdfrwt beam="1">  1       21 0.40383218E-03 0.89024337E+02</pdfrwt>
<pdfrwt beam="2">  1        2 0.23227110E+00 0.89024337E+02</pdfrwt>
<totfact> 0.25581884E+06</totfact>
</mgrwt>
</event>
<event>
 6    2  0.9453093E+000  0.8343012E+02  0.7546771E-02  0.1319590E+00
         21   -1    0    0  501  502  0.00000000000E+00  0.00000000000E+00  0.47210341659E+01  0.47210341659E+01  0.00000000000E+00 0.  1.
          2   -1    0    0  502    0 -0.00000000000E+00 -0.00000000000E+00 -0.59380039789E+03  0.59380039789E+03  0.00000000000E+00 0. -1.
         24    2    1    2    0    0 -0.22113299008E+02 -0.30002519099E+01 -0.47717912929E+03  0.48441769868E+03  0.80390209959E+02 0.  0.
        -13    1    3    3    0    0  0.12066652509E+02  0.36122402560E+01 -0.10378597075E+02  0.16320773870E+02  0.00000000000E+00 0.  1.
         14    1    3    3    0    0 -0.34179951517E+02 -0.66124921658E+01 -0.46680053221E+03  0.46809692481E+03  0.00000000000E+00 0. -1.
          1    1    1    2  501    0  0.22113299008E+02  0.30002519099E+01 -0.11190023443E+03  0.11410373338E+03  0.00000000000E+00 0. -1.
<mgrwt>
<rscale>  1 0.83430123E+02</rscale>
<asrwt>0</asrwt>
<pdfrwt beam="1">  1       21 0.72631301E-03 0.83430123E+02</pdfrwt>
<pdfrwt beam="2">  1        2 0.91353899E-01 0.83430123E+02</pdfrwt>
<totfact> 0.36487508E+06</totfact>
</mgrwt>
</event>
<event>
 6    2  0.9453093E+000  0.8039760E+02  0.7546771E-02  0.1327927E+00
         21   -1    0    0  501  502  0.00000000000E+00  0.00000000000E+00  0.86627373226E+01  0.86627373226E+01  0.00000000000E+00 0. -1.
          2   -1    0    0  502    0 -0.00000000000E+00 -0.00000000000E+00 -0.36616339281E+03  0.36616339281E+03  0.00000000000E+00 0. -1.
         24    2    1    2    0    0 -0.12021818129E+02 -0.27970472299E+02 -0.22685877544E+03  0.24068377197E+03  0.74410366634E+02 0.  0.
        -13    1    3    3    0    0 -0.26457297245E+02  0.34626125514E+01 -0.27391521581E+02  0.38239687730E+02  0.00000000000E+00 0.  1.
         14    1    3    3    0    0  0.14435479116E+02 -0.31433084850E+02 -0.19946725386E+03  0.20244408424E+03  0.00000000000E+00 0. -1.
          1    1    1    2  501    0  0.12021818129E+02  0.27970472299E+02 -0.13064188004E+03  0.13414235816E+03  0.00000000000E+00 0. -1.
<mgrwt>
<rscale>  1 0.80397600E+02</rscale>
<asrwt>0</asrwt>
<pdfrwt beam="1">  1       21 0.13327292E-02 0.80397600E+02</pdfrwt>
<pdfrwt beam="2">  1        2 0.56332815E-01 0.80397600E+02</pdfrwt>
<totfact> 0.23644110E+06</totfact>
</mgrwt>
</event>
<event>
 6    2  0.9453093E+000  0.9282242E+02  0.7546771E-02  0.1296157E+00
         21   -1    0    0  501  502  0.00000000000E+00  0.00000000000E+00  0.22509238381E+03  0.22509238381E+03  0.00000000000E+00 0.  1.
          2   -1    0    0  502    0 -0.00000000000E+00 -0.00000000000E+00 -0.21722973056E+02  0.21722973056E+02  0.00000000000E+00 0. -1.
         24    2    1    2    0    0  0.28770794203E+02 -0.31575930612E+02  0.16538246492E+03  0.18965062957E+03  0.82408759247E+02 0.  0.
        -11    1    3    3    0    0  0.35276246678E+02 -0.56529008013E+02  0.11100109427E+03  0.12946499626E+03  0.00000000000E+00 0.  1.
         12    1    3    3    0    0 -0.65054524747E+01  0.24953077401E+02  0.54381370650E+02  0.60185633314E+02  0.00000000000E+00 0. -1.
          1    1    1    2  501    0 -0.28770794203E+02  0.31575930612E+02  0.37986945835E+02  0.57164727297E+02  0.00000000000E+00 0. -1.
<mgrwt>
<rscale>  1 0.92822420E+02</rscale>
<asrwt>0</asrwt>
<pdfrwt beam="1">  1       21 0.34629596E-01 0.92822420E+02</pdfrwt>
<pdfrwt beam="2">  1        2 0.33419960E-02 0.92822420E+02</pdfrwt>
<totfact> 0.24731778E+05</totfact>
</mgrwt>
</event>
<event>
 6    2  0.9453093E+000  0.8086434E+02  0.7546771E-02  0.1326616E+00
          2   -1    0    0  502    0 -0.00000000000E+00  0.00000000000E+00  0.13972952135E+04  0.13972952135E+04  0.00000000000E+00 0. -1.
         21   -1    0    0  501  502  0.00000000000E+00 -0.00000000000E+00 -0.52429482284E+01  0.52429482284E+01  0.00000000000E+00 0. -1.
         24    2    1    2    0    0  0.79490199763E+01  0.19457575889E+02  0.13688294118E+04  0.13712158837E+04  0.78084934265E+02 0.  0.
        -13    1    3    3    0    0 -0.10074277174E+02  0.41648242197E+02  0.47482119751E+03  0.47675070712E+03  0.00000000000E+00 0.  1.
         14    1    3    3    0    0  0.18023297150E+02 -0.22190666308E+02  0.89400821425E+03  0.89446517655E+03  0.00000000000E+00 0. -1.
          1    1    1    2  501    0 -0.79490199763E+01 -0.19457575889E+02  0.23222853554E+02  0.31322278098E+02  0.00000000000E+00 0. -1.
<mgrwt>
<rscale>  1 0.80864338E+02</rscale>
<asrwt>0</asrwt>
<pdfrwt beam="1">  1       21 0.80660853E-03 0.80864338E+02</pdfrwt>
<pdfrwt beam="2">  1        2 0.21496820E+00 0.80864338E+02</pdfrwt>
<totfact> 0.10020700E+06</totfact>
</mgrwt>
</event>
<event>
 6    2  0.9453093E+000  0.8422621E+02  0.7546771E-02  0.1317469E+00
         21   -1    0    0  501  502  0.00000000000E+00  0.00000000000E+00  0.23830415270E+01  0.23830415270E+01  0.00000000000E+00 0.  1.
          2   -1    0    0  502    0 -0.00000000000E+00 -0.00000000000E+00 -0.12275672647E+04  0.12275672647E+04  0.00000000000E+00 0. -1.
         24    2    1    2    0    0 -0.12042014183E+02  0.19572005856E+02 -0.88871318470E+03  0.89269545712E+03  0.81030740923E+02 0.  0.
        -13    1    3    3    0    0 -0.37003089191E+01  0.10874508655E+02 -0.14970335936E+02  0.18869504037E+02  0.00000000000E+00 0.  1.
         14    1    3    3    0    0 -0.83417052641E+01  0.86974972005E+01 -0.87374284877E+03  0.87382595308E+03  0.00000000000E+00 0. -1.
          1    1    1    2  501    0  0.12042014183E+02 -0.19572005856E+02 -0.33647103849E+03  0.33725484913E+03  0.00000000000E+00 0. -1.
<mgrwt>
<rscale>  1 0.84226210E+02</rscale>
<asrwt>0</asrwt>
<pdfrwt beam="1">  1       21 0.36662196E-03 0.84226210E+02</pdfrwt>
<pdfrwt beam="2">  1        2 0.18885641E+00 0.84226210E+02</pdfrwt>
<totfact> 0.41355049E+06</totfact>
</mgrwt>
</event>
<event>
 6    2  0.1252974E+001  0.9311642E+02  0.7546771E-02  0.1295476E+00
         21   -1    0    0  501  502  0.00000000000E+00  0.00000000000E+00  0.59629057043E+01  0.59629057043E+01  0.00000000000E+00 0. -1.
         -1   -1    0    0    0  501 -0.00000000000E+00 -0.00000000000E+00 -0.84917230876E+03  0.84917230876E+03  0.00000000000E+00 0.  1.
         24    2    1    2    0    0 -0.17184428202E+02  0.46093815250E+02 -0.54749332444E+03  0.55535538938E+03  0.79061519261E+02 0.  0.
        -13    1    3    3    0    0 -0.17159499600E+02  0.15717782359E+02 -0.48801379303E+03  0.48856827496E+03  0.00000000000E+00 0.  1.
         14    1    3    3    0    0 -0.24928602434E-01  0.30376032890E+02 -0.59479531403E+02  0.66787114413E+02  0.00000000000E+00 0. -1.
         -2    1    1    2    0  502  0.17184428202E+02 -0.46093815250E+02 -0.29571607862E+03  0.29977982509E+03  0.00000000000E+00 0.  1.
<mgrwt>
<rscale>  1 0.93116423E+02</rscale>
<asrwt>0</asrwt>
<pdfrwt beam="1">  1       21 0.91737070E-03 0.93116423E+02</pdfrwt>
<pdfrwt beam="2">  1       -1 0.13064181E+00 0.93116423E+02</pdfrwt>
<totfact> 0.20862892E+05</totfact>
</mgrwt>
</event>
<event>
 6    2  0.9453093E+000  0.8746480E+02  0.7546771E-02  0.1309110E+00
          2   -1    0    0  502    0 -0.00000000000E+00  0.00000000000E+00  0.71687329472E+03  0.71687329472E+03  0.00000000000E+00 0. -1.
         21   -1    0    0  501  502  0.00000000000E+00 -0.00000000000E+00 -0.11990257392E+02  0.11990257392E+02  0.00000000000E+00 0. -1.
         24    2    1    2    0    0 -0.14758385328E+02 -0.30870372380E+02  0.68226127233E+03  0.68784484808E+03  0.80494108423E+02 0.  0.
        -11    1    3    3    0    0  0.18651144421E+02 -0.46839631130E+02  0.40031346568E+03  0.40347575769E+03  0.00000000000E+00 0.  1.
         12    1    3    3    0    0 -0.33409529750E+02  0.15969258750E+02  0.28194780664E+03  0.28436909040E+03  0.00000000000E+00 0. -1.
          1    1    1    2  501    0  0.14758385328E+02  0.30870372380E+02  0.22621765005E+02  0.41018704030E+02  0.00000000000E+00 0. -1.
<mgrwt>
<rscale>  1 0.87464800E+02</rscale>
<asrwt>0</asrwt>
<pdfrwt beam="1">  1       21 0.18446555E-02 0.87464800E+02</pdfrwt>
<pdfrwt beam="2">  1        2 0.11028817E+00 0.87464800E+02</pdfrwt>
<totfact> 0.68562116E+05</totfact>
</mgrwt>
</event>
<event>
 6    2  0.9453093E+000  0.8557082E+02  0.7546771E-02  0.1313947E+00
          4   -1    0    0  502    0 -0.00000000000E+00  0.00000000000E+00  0.16815420639E+03  0.16815420639E+03  0.00000000000E+00 0. -1.
         21   -1    0    0  501  502  0.00000000000E+00 -0.00000000000E+00 -0.20037899059E+02  0.20037899059E+02  0.00000000000E+00 0.  1.
         24    2    1    2    0    0  0.79230941903E+01  0.28942478651E+02  0.10156555663E+03  0.13280785784E+03  0.80136897365E+02 0.  0.
        -11    1    3    3    0    0 -0.10319537874E+02  0.47099743532E+02  0.30081250679E+02  0.56830980505E+02  0.00000000000E+00 0.  1.
         12    1    3    3    0    0  0.18242632065E+02 -0.18157264882E+02  0.71484305953E+02  0.75976877340E+02  0.00000000000E+00 0. -1.
          3    1    1    2  501    0 -0.79230941903E+01 -0.28942478651E+02  0.46550750697E+02  0.55384247602E+02  0.00000000000E+00 0. -1.
<mgrwt>
<rscale>  1 0.85570818E+02</rscale>
<asrwt>0</asrwt>
<pdfrwt beam="1">  1       21 0.30827538E-02 0.85570818E+02</pdfrwt>
<pdfrwt beam="2">  1        4 0.25869877E-01 0.85570818E+02</pdfrwt>
<totfact> 0.31083863E+05</totfact>
</mgrwt>
</event>
<event>
 6    2  0.9453093E+000  0.8462690E+02  0.7546771E-02  0.1316411E+00
         21   -1    0    0  501  502  0.00000000000E+00  0.00000000000E+00  0.10003353759E+03  0.10003353759E+03  0.00000000000E+00 0. -1.
          2   -1    0    0  502    0 -0.00000000000E+00 -0.00000000000E+00 -0.92879305819E+02  0.92879305819E+02  0.00000000000E+00 0. -1.
         24    2    1    2    0    0 -0.24049886089E+02 -0.58533933026E+01 -0.71292308980E+02  0.11065398984E+03  0.80926218956E+02 0.  0.
        -13    1    3    3    0    0  0.13157800541E+02 -0.16034416265E+02  0.81938424758E+01  0.22301777386E+02  0.00000000000E+00 0.  1.
         14    1    3    3    0    0 -0.37207686630E+02  0.10181022962E+02 -0.79486151455E+02  0.88352212457E+02  0.00000000000E+00 0. -1.
          1    1    1    2  501    0  0.24049886089E+02  0.58533933026E+01  0.78446540747E+02  0.82258853561E+02  0.00000000000E+00 0. -1.
<mgrwt>
<rscale>  1 0.84626900E+02</rscale>
<asrwt>0</asrwt>
<pdfrwt beam="1">  1       21 0.15389775E-01 0.84626900E+02</pdfrwt>
<pdfrwt beam="2">  1        2 0.14289124E-01 0.84626900E+02</pdfrwt>
<totfact> 0.18015179E+05</totfact>
</mgrwt>
</event>
<event>
 6    2  0.9453093E+000  0.9029906E+02  0.7546771E-02  0.1302129E+00
         21   -1    0    0  501  502  0.00000000000E+00  0.00000000000E+00  0.26076376438E+02  0.26076376438E+02  0.00000000000E+00 0.  1.
          2   -1    0    0  502    0 -0.00000000000E+00 -0.00000000000E+00 -0.15927845607E+03  0.15927845607E+03  0.00000000000E+00 0. -1.
         24    2    1    2    0    0  0.29713786836E+02  0.65787375564E+01 -0.66834501968E+02  0.11234220154E+03  0.85016061291E+02 0.  0.
        -11    1    3    3    0    0  0.31837633252E+02  0.17079562132E+02  0.77839491571E+01  0.36958574082E+02  0.00000000000E+00 0.  1.
         12    1    3    3    0    0 -0.21238464162E+01 -0.10500824575E+02 -0.74618451125E+02  0.75383627457E+02  0.00000000000E+00 0. -1.
          1    1    1    2  501    0 -0.29713786836E+02 -0.65787375564E+01 -0.66367577660E+02  0.73012630965E+02  0.00000000000E+00 0. -1.
<mgrwt>
<rscale>  1 0.90299056E+02</rscale>
<asrwt>0</asrwt>
<pdfrwt beam="1">  1       21 0.40117503E-02 0.90299056E+02</pdfrwt>
<pdfrwt beam="2">  1        2 0.24504377E-01 0.90299056E+02</pdfrwt>
<totfact> 0.98236433E+05</totfact>
</mgrwt>
</event>
<event>
 6    2  0.9453093E+000  0.8131709E+02  0.7546771E-02  0.1325355E+00
         -3   -1    0    0    0  501 -0.00000000000E+00  0.00000000000E+00  0.61341362104E+02  0.61341362104E+02  0.00000000000E+00 0.  1.
         21   -1    0    0  501  502  0.00000000000E+00 -0.00000000000E+00 -0.49791044600E+02  0.49791044600E+02  0.00000000000E+00 0.  1.
         24    2    1    2    0    0  0.23539608410E+02  0.77414497890E+01  0.21998092517E+02  0.84240043259E+02  0.77449503582E+02 0.  0.
        -11    1    3    3    0    0  0.47184686991E+02  0.16797308197E+02  0.29122720878E+02  0.57936837335E+02  0.00000000000E+00 0.  1.
         12    1    3    3    0    0 -0.23645078581E+02 -0.90558584076E+01 -0.71246283603E+01  0.26303205924E+02  0.00000000000E+00 0. -1.
         -4    1    1    2    0  502 -0.23539608410E+02 -0.77414497890E+01 -0.10447775013E+02  0.26892363445E+02  0.00000000000E+00 0.  1.
<mgrwt>
<rscale>  1 0.81317088E+02</rscale>
<asrwt>0</asrwt>
<pdfrwt beam="1">  1       21 0.76601607E-02 0.81317088E+02</pdfrwt>
<pdfrwt beam="2">  1       -3 0.94371326E-02 0.81317088E+02</pdfrwt>
<totfact> 0.45379912E+05</totfact>
</mgrwt>
</event>
<event>
 6    2  0.9453093E+000  0.1018844E+03  0.7546771E-02  0.1276382E+00
         21   -1    0    0  501  502  0.00000000000E+00  0.00000000000E+00  0.11704020738E+03  0.11704020738E+03  0.00000000000E+00 0. -1.
          2   -1    0    0  502    0 -0.00000000000E+00 -0.00000000000E+00 -0.28324457279E+03  0.28324457279E+03  0.00000000000E+00 0. -1.
         24    2    1    2    0    0 -0.26188575422E+02 -0.56691134550E+02 -0.26471687160E+03  0.28364670707E+03  0.80502832895E+02 0.  0.
        -13    1    3    3    0    0  0.15435656212E+01 -0.17640943865E+02 -0.34693207796E+01  0.18044990495E+02  0.00000000000E+00 0.  1.
         14    1    3    3    0    0 -0.27732141043E+02 -0.39050190685E+02 -0.26124755082E+03  0.26560171658E+03  0.00000000000E+00 0. -1.
          1    1    1    2  501    0  0.26188575422E+02  0.56691134550E+02  0.98512506190E+02  0.11663807309E+03  0.00000000000E+00 0. -1.
<mgrwt>
<rscale>  1 0.10188441E+03</rscale>
<asrwt>0</asrwt>
<pdfrwt beam="1">  1       21 0.18006186E-01 0.10188441E+03</pdfrwt>
<pdfrwt beam="2">  1        2 0.43576088E-01 0.10188441E+03</pdfrwt>
<totfact> 0.40335639E+04</totfact>
</mgrwt>
</event>
<event>
 6    2  0.9453093E+000  0.1055786E+03  0.7546771E-02  0.1268984E+00
          2   -1    0    0  502    0 -0.00000000000E+00  0.00000000000E+00  0.81016313085E+02  0.81016313085E+02  0.00000000000E+00 0. -1.
         21   -1    0    0  501  502  0.00000000000E+00 -0.00000000000E+00 -0.93274042182E+02  0.93274042182E+02  0.00000000000E+00 0. -1.
         24    2    1    2    0    0  0.19563260734E+02  0.64793573205E+02 -0.41427297071E+00  0.10557939725E+03  0.81030298046E+02 0.  0.
        -13    1    3    3    0    0  0.32814074028E+02  0.19374887209E+02 -0.31100369135E+02  0.49187220586E+02  0.00000000000E+00 0.  1.
         14    1    3    3    0    0 -0.13250813294E+02  0.45418685996E+02  0.30686096164E+02  0.56392176659E+02  0.00000000000E+00 0. -1.
          1    1    1    2  501    0 -0.19563260734E+02 -0.64793573205E+02 -0.11843456127E+02  0.68710958021E+02  0.00000000000E+00 0. -1.
<mgrwt>
<rscale>  1 0.10557858E+03</rscale>
<asrwt>0</asrwt>
<pdfrwt beam="1">  1       21 0.14349852E-01 0.10557858E+03</pdfrwt>
<pdfrwt beam="2">  1        2 0.12464048E-01 0.10557858E+03</pdfrwt>
<totfact> 0.24324684E+05</totfact>
</mgrwt>
</event>
<event>
 6    2  0.9453093E+000  0.8569036E+02  0.7546771E-02  0.1313637E+00
         21   -1    0    0  501  502  0.00000000000E+00  0.00000000000E+00  0.33021490406E+02  0.33021490406E+02  0.00000000000E+00 0. -1.
         -1   -1    0    0    0  501 -0.00000000000E+00 -0.00000000000E+00 -0.10145598608E+03  0.10145598608E+03  0.00000000000E+00 0.  1.
         24    2    1    2    0    0 -0.28970770008E+02 -0.57392455158E+01 -0.45076038531E+02  0.96822968467E+02  0.80439999498E+02 0.  0.
        -13    1    3    3    0    0  0.49915438161E+01  0.32050375997E+02 -0.66283784890E+01  0.33107061371E+02  0.00000000000E+00 0.  1.
         14    1    3    3    0    0 -0.33962313824E+02 -0.37789621513E+02 -0.38447660042E+02  0.63715907096E+02  0.00000000000E+00 0. -1.
         -2    1    1    2    0  502  0.28970770008E+02  0.57392455158E+01 -0.23358457138E+02  0.37654508015E+02  0.00000000000E+00 0.  1.
<mgrwt>
<rscale>  1 0.85690361E+02</rscale>
<asrwt>0</asrwt>
<pdfrwt beam="1">  1       21 0.50802293E-02 0.85690361E+02</pdfrwt>
<pdfrwt beam="2">  1       -1 0.15608613E-01 0.85690361E+02</pdfrwt>
<totfact> 0.65660573E+05</totfact>
</mgrwt>
</event>
<event>
 6    2  0.9453093E+000  0.8194660E+02  0.7546771E-02  0.1323616E+00
          2   -1    0    0  502    0 -0.00000000000E+00  0.00000000000E+00  0.32024307778E+04  0.32024307778E+04  0.00000000000E+00 0. -1.
         21   -1    0    0  501  502  0.00000000000E+00 -0.00000000000E+00 -0.15684543458E+02  0.15684543458E+02  0.00000000000E+00 0. -1.
         24    2    1    2    0    0  0.16165988312E+02  0.12742460432E+02  0.31949177236E+04  0.31959684769E+04  0.79319198986E+02 0.  0.
        -11    1    3    3    0    0  0.46762378738E+02 -0.17539044767E+01  0.21250613935E+04  0.21255765623E+04  0.00000000000E+00 0.  1.
         12    1    3    3    0    0 -0.30596390426E+02  0.14496364908E+02  0.10698563301E+04  0.10703919146E+04  0.00000000000E+00 0. -1.
          1    1    1    2  501    0 -0.16165988312E+02 -0.12742460432E+02 -0.81714892924E+01  0.22146844317E+02  0.00000000000E+00 0. -1.
<mgrwt>
<rscale>  1 0.81946597E+02</rscale>
<asrwt>0</asrwt>
<pdfrwt beam="1">  1       21 0.24130092E-02 0.81946597E+02</pdfrwt>
<pdfrwt beam="2">  1        2 0.49268114E+00 0.81946597E+02</pdfrwt>
<totfact> 0.20166692E+04</totfact>
</mgrwt>
</event>
<event>
 6    2  0.9453093E+000  0.9554204E+02  0.7546771E-02  0.1289960E+00
          2   -1    0    0  502    0 -0.00000000000E+00  0.00000000000E+00  0.20989149058E+04  0.20989149058E+04  0.00000000000E+00 0. -1.
         21   -1    0    0  501  502  0.00000000000E+00 -0.00000000000E+00 -0.25987622073E+01  0.25987622073E+01  0.00000000000E+00 0.  1.
         24    2    1    2    0    0 -0.22541398720E+02  0.46700391571E+02  0.12922681046E+04  0.12957951748E+04  0.80244873569E+02 0.  0.
        -13    1    3    3    0    0 -0.39968048531E+02  0.91921423870E+01  0.31583720665E+03  0.31848874625E+03  0.00000000000E+00 0.  1.
         14    1    3    3    0    0  0.17426649810E+02  0.37508249184E+02  0.97643089792E+03  0.97730642856E+03  0.00000000000E+00 0. -1.
          1    1    1    2  501    0  0.22541398720E+02 -0.46700391571E+02  0.80404803902E+03  0.80571849319E+03  0.00000000000E+00 0. -1.
<mgrwt>
<rscale>  1 0.95542038E+02</rscale>
<asrwt>0</asrwt>
<pdfrwt beam="1">  1       21 0.39981125E-03 0.95542038E+02</pdfrwt>
<pdfrwt beam="2">  1        2 0.32290863E+00 0.95542038E+02</pdfrwt>
<totfact> 0.13176576E+06</totfact>
</mgrwt>
</event>
<event>
 6    2  0.9453093E+000  0.8600838E+02  0.7546771E-02  0.1312816E+00
         21   -1    0    0  501  502  0.00000000000E+00  0.00000000000E+00  0.27115988032E+02  0.27115988032E+02  0.00000000000E+00 0. -1.
         -3   -1    0    0    0  501 -0.00000000000E+00 -0.00000000000E+00 -0.11618871262E+03  0.11618871262E+03  0.00000000000E+00 0.  1.
         24    2    1    2    0    0 -0.72709644046E+01  0.24804863282E+02 -0.73438725283E+02  0.11309592544E+03  0.82032273001E+02 0.  0.
        -11    1    3    3    0    0 -0.29966122708E+02  0.18352473502E+02 -0.81020990860E+02  0.88312981796E+02  0.00000000000E+00 0.  1.
         12    1    3    3    0    0  0.22695158303E+02  0.64523897801E+01  0.75822655772E+01  0.24782943642E+02  0.00000000000E+00 0. -1.
         -4    1    1    2    0  502  0.72709644046E+01 -0.24804863282E+02 -0.15633999307E+02  0.30208775217E+02  0.00000000000E+00 0.  1.
<mgrwt>
<rscale>  1 0.86008383E+02</rscale>
<asrwt>0</asrwt>
<pdfrwt beam="1">  1       21 0.41716904E-02 0.86008383E+02</pdfrwt>
<pdfrwt beam="2">  1       -3 0.17875187E-01 0.86008383E+02</pdfrwt>
<totfact> 0.43568191E+05</totfact>
</mgrwt>
</event>
<event>
 6    2  0.9453093E+000  0.9895854E+02  0.7546771E-02  0.1282501E+00
          2   -1    0    0  502    0 -0.00000000000E+00  0.00000000000E+00  0.67545304785E+03  0.67545304785E+03  0.00000000000E+00 0. -1.
         21   -1    0    0  501  502  0.00000000000E+00 -0.00000000000E+00 -0.10464420009E+02  0.10464420009E+02  0.00000000000E+00 0.  1.
         24    2    1    2    0    0  0.49696328148E+02  0.25717441989E+02  0.28192293144E+03  0.29878643111E+03  0.81619117189E+02 0.  0.
        -13    1    3    3    0    0 -0.62558939530E+01 -0.23548159344E+02  0.73312047169E+02  0.77254826890E+02  0.00000000000E+00 0.  1.
         14    1    3    3    0    0  0.55952222101E+02  0.49265601332E+02  0.20861088427E+03  0.22153160422E+03  0.00000000000E+00 0. -1.
          1    1    1    2  501    0 -0.49696328148E+02 -0.25717441989E+02  0.38306569640E+03  0.38713103674E+03  0.00000000000E+00 0. -1.
<mgrwt>
<rscale>  1 0.98958538E+02</rscale>
<asrwt>0</asrwt>
<pdfrwt beam="1">  1       21 0.16099113E-02 0.98958538E+02</pdfrwt>
<pdfrwt beam="2">  1        2 0.10391582E+00 0.98958538E+02</pdfrwt>
<totfact> 0.92193352E+05</totfact>
</mgrwt>
</event>
<event>
 6    2  0.9453093E+000  0.8412256E+02  0.7546771E-02  0.1317743E+00
          2   -1    0    0  502    0 -0.00000000000E+00  0.00000000000E+00  0.30399146278E+03  0.30399146278E+03  0.00000000000E+00 0. -1.
         21   -1    0    0  501  502  0.00000000000E+00 -0.00000000000E+00 -0.13315761256E+02  0.13315761256E+02  0.00000000000E+00 0.  1.
         24    2    1    2    0    0  0.27127614792E+02  0.39476930791E+01  0.13375129897E+03  0.15800637695E+03  0.79530581642E+02 0.  0.
        -11    1    3    3    0    0  0.45319839244E+02  0.11856467570E+02  0.38281352995E+02  0.60497319275E+02  0.00000000000E+00 0.  1.
         12    1    3    3    0    0 -0.18192224452E+02 -0.79087744909E+01  0.95469945977E+02  0.97509057678E+02  0.00000000000E+00 0. -1.
          1    1    1    2  501    0 -0.27127614792E+02 -0.39476930791E+01  0.15692440256E+03  0.15930084709E+03  0.00000000000E+00 0. -1.
<mgrwt>
<rscale>  1 0.84122560E+02</rscale>
<asrwt>0</asrwt>
<pdfrwt beam="1">  1       21 0.20485789E-02 0.84122560E+02</pdfrwt>
<pdfrwt beam="2">  1        2 0.46767912E-01 0.84122560E+02</pdfrwt>
<totfact> 0.14600383E+06</totfact>
</mgrwt>
</event>
<event>
 6    2  0.9453093E+000  0.8332998E+02  0.7546771E-02  0.1319858E+00
         21   -1    0    0  501  502  0.00000000000E+00  0.00000000000E+00  0.11045383227E+02  0.11045383227E+02  0.00000000000E+00 0.  1.
          2   -1    0    0  502    0 -0.00000000000E+00 -0.00000000000E+00 -0.24679896053E+03  0.24679896053E+03  0.00000000000E+00 0. -1.
         24    2    1    2    0    0 -0.18103333519E+02  0.10633606006E+02 -0.19262813992E+03  0.20987969416E+03  0.80641685696E+02 0.  0.
        -13    1    3    3    0    0 -0.29401782733E+02 -0.26526742460E+02 -0.61721422067E+02  0.73332576904E+02  0.00000000000E+00 0.  1.
         14    1    3    3    0    0  0.11298449214E+02  0.37160348466E+02 -0.13090671785E+03  0.13654711726E+03  0.00000000000E+00 0. -1.
          1    1    1    2  501    0  0.18103333519E+02 -0.10633606006E+02 -0.43125437379E+02  0.47964649591E+02  0.00000000000E+00 0. -1.
<mgrwt>
<rscale>  1 0.83329981E+02</rscale>
<asrwt>0</asrwt>
<pdfrwt beam="1">  1       21 0.16992897E-02 0.83329981E+02</pdfrwt>
<pdfrwt beam="2">  1        2 0.37969071E-01 0.83329981E+02</pdfrwt>
<totfact> 0.24413804E+06</totfact>
</mgrwt>
</event>
<event>
 6    2  0.9453093E+000  0.8413566E+02  0.7546771E-02  0.1317708E+00
         21   -1    0    0  501  502  0.00000000000E+00  0.00000000000E+00  0.45621999487E+01  0.45621999487E+01  0.00000000000E+00 0. -1.
          2   -1    0    0  502    0 -0.00000000000E+00 -0.00000000000E+00 -0.12103531747E+04  0.12103531747E+04  0.00000000000E+00 0. -1.
         24    2    1    2    0    0  0.52419429913E+01 -0.26111513644E+02 -0.11502105427E+04  0.11532836171E+04  0.79809271657E+02 0.  0.
        -11    1    3    3    0    0 -0.23025651126E+01  0.25854196585E+02 -0.20838186768E+03  0.20999224763E+03  0.00000000000E+00 0.  1.
         12    1    3    3    0    0  0.75445081039E+01 -0.51965710230E+02 -0.94182867500E+03  0.94329136946E+03  0.00000000000E+00 0. -1.
          1    1    1    2  501    0 -0.52419429913E+01  0.26111513644E+02 -0.55580432108E+02  0.61631757597E+02  0.00000000000E+00 0. -1.
<mgrwt>
<rscale>  1 0.84135658E+02</rscale>
<asrwt>0</asrwt>
<pdfrwt beam="1">  1       21 0.70187696E-03 0.84135658E+02</pdfrwt>
<pdfrwt beam="2">  1        2 0.18620817E+00 0.84135658E+02</pdfrwt>
<totfact> 0.15633330E+06</totfact>
</mgrwt>
</event>
<event>
 6    2  0.9453093E+000  0.8830237E+02  0.7546771E-02  0.1307016E+00
         21   -1    0    0  501  502  0.00000000000E+00  0.00000000000E+00  0.12291279837E+03  0.12291279837E+03  0.00000000000E+00 0. -1.
         -3   -1    0    0    0  501 -0.00000000000E+00 -0.00000000000E+00 -0.51386193088E+02  0.51386193088E+02  0.00000000000E+00 0.  1.
         24    2    1    2    0    0 -0.27164822718E+02 -0.18008490209E+02 -0.76931331938E+01  0.88636862853E+02  0.82067507853E+02 0.  0.
        -13    1    3    3    0    0  0.32106256715E+01  0.11200864923E+01 -0.40119237092E+02  0.40263083535E+02  0.00000000000E+00 0.  1.
         14    1    3    3    0    0 -0.30375448389E+02 -0.19128576701E+02  0.32426103898E+02  0.48373779318E+02  0.00000000000E+00 0. -1.
         -4    1    1    2    0  502  0.27164822718E+02  0.18008490209E+02  0.79219738474E+02  0.85662128603E+02  0.00000000000E+00 0.  1.
<mgrwt>
<rscale>  1 0.88302373E+02</rscale>
<asrwt>0</asrwt>
<pdfrwt beam="1">  1       21 0.18909661E-01 0.88302373E+02</pdfrwt>
<pdfrwt beam="2">  1       -3 0.79055682E-02 0.88302373E+02</pdfrwt>
<totfact> 0.12543786E+05</totfact>
</mgrwt>
</event>
<event>
 6    2  0.9453093E+000  0.8436548E+02  0.7546771E-02  0.1317100E+00
         21   -1    0    0  501  502  0.00000000000E+00  0.00000000000E+00  0.28325395154E+01  0.28325395154E+01  0.00000000000E+00 0.  1.
          2   -1    0    0  502    0 -0.00000000000E+00 -0.00000000000E+00 -0.15036641467E+04  0.15036641467E+04  0.00000000000E+00 0. -1.
         24    2    1    2    0    0  0.17653276588E+02 -0.14544322118E+02 -0.66210980463E+03  0.66746305306E+03  0.81205654588E+02 0.  0.
        -13    1    3    3    0    0  0.18474706369E+02  0.20943455240E+02 -0.89546060490E+02  0.93800000225E+02  0.00000000000E+00 0.  1.
         14    1    3    3    0    0 -0.82142978161E+00 -0.35487777358E+02 -0.57256374414E+03  0.57366305284E+03  0.00000000000E+00 0. -1.
          1    1    1    2  501    0 -0.17653276588E+02  0.14544322118E+02 -0.83872180258E+03  0.83903363318E+03  0.00000000000E+00 0. -1.
<mgrwt>
<rscale>  1 0.84365478E+02</rscale>
<asrwt>0</asrwt>
<pdfrwt beam="1">  1       21 0.43577636E-03 0.84365478E+02</pdfrwt>
<pdfrwt beam="2">  1        2 0.23133239E+00 0.84365478E+02</pdfrwt>
<totfact> 0.22838785E+06</totfact>
</mgrwt>
</event>
<event>
 6    2  0.9453093E+000  0.9217353E+02  0.7546771E-02  0.1297672E+00
          2   -1    0    0  502    0 -0.00000000000E+00  0.00000000000E+00  0.14396609842E+04  0.14396609842E+04  0.00000000000E+00 0. -1.
         21   -1    0    0  501  502  0.00000000000E+00 -0.00000000000E+00 -0.35949231988E+01  0.35949231988E+01  0.00000000000E+00 0. -1.
         24    2    1    2    0    0 -0.34030471024E+02 -0.36005502093E+02  0.10467024886E+04  0.10507530913E+04  0.77727022832E+02 0.  0.
        -11    1    3    3    0    0 -0.87114105169E+00 -0.80402615088E+01  0.88274812542E+01  0.11972013914E+02  0.00000000000E+00 0.  1.
         12    1    3    3    0    0 -0.33159329972E+02 -0.27965240585E+02  0.10378750073E+04  0.10387810774E+04  0.00000000000E+00 0. -1.
          1    1    1    2  501    0  0.34030471024E+02  0.36005502093E+02  0.38936357242E+03  0.39250281613E+03  0.00000000000E+00 0. -1.
<mgrwt>
<rscale>  1 0.92173528E+02</rscale>
<asrwt>0</asrwt>
<pdfrwt beam="1">  1       21 0.55306626E-03 0.92173528E+02</pdfrwt>
<pdfrwt beam="2">  1        2 0.22148585E+00 0.92173528E+02</pdfrwt>
<totfact> 0.17222323E+06</totfact>
</mgrwt>
</event>
<event>
 6    2  0.9453093E+000  0.1064315E+03  0.7546771E-02  0.1267325E+00
         -3   -1    0    0    0  501 -0.00000000000E+00  0.00000000000E+00  0.33777296061E+03  0.33777296061E+03  0.00000000000E+00 0.  1.
         21   -1    0    0  501  502  0.00000000000E+00 -0.00000000000E+00 -0.24782298929E+02  0.24782298929E+02  0.00000000000E+00 0.  1.
         24    2    1    2    0    0 -0.27505716483E+02 -0.68735142544E+02  0.21331870411E+03  0.23839575170E+03  0.76462936432E+02 0.  0.
        -13    1    3    3    0    0  0.15086871129E+02 -0.60728942574E+02  0.11428980191E+03  0.13029879879E+03  0.00000000000E+00 0.  1.
         14    1    3    3    0    0 -0.42592587612E+02 -0.80061999700E+01  0.99028902203E+02  0.10809695291E+03  0.00000000000E+00 0. -1.
         -4    1    1    2    0  502  0.27505716483E+02  0.68735142544E+02  0.99671957573E+02  0.12415950784E+03  0.00000000000E+00 0.  1.
<mgrwt>
<rscale>  1 0.10643150E+03</rscale>
<asrwt>0</asrwt>
<pdfrwt beam="1">  1       21 0.38126616E-02 0.10643150E+03</pdfrwt>
<pdfrwt beam="2">  1       -3 0.51965067E-01 0.10643150E+03</pdfrwt>
<totfact> 0.72810323E+04</totfact>
</mgrwt>
</event>
<event>
 6    2  0.9453093E+000  0.8280644E+02  0.7546771E-02  0.1321271E+00
          4   -1    0    0  502    0 -0.00000000000E+00  0.00000000000E+00  0.32307462675E+03  0.32307462675E+03  0.00000000000E+00 0. -1.
         21   -1    0    0  501  502  0.00000000000E+00 -0.00000000000E+00 -0.17497007567E+02  0.17497007567E+02  0.00000000000E+00 0. -1.
         24    2    1    2    0    0  0.72233431466E+01 -0.21867064490E+02  0.30653490024E+03  0.31752252191E+03  0.79539686088E+02 0.  0.
        -13    1    3    3    0    0 -0.24423973854E+01 -0.11644444848E+01 -0.47144294618E+01  0.54357226839E+01  0.00000000000E+00 0.  1.
         14    1    3    3    0    0  0.96657405319E+01 -0.20702620005E+02  0.31124932970E+03  0.31208679923E+03  0.00000000000E+00 0. -1.
          3    1    1    2  501    0 -0.72233431466E+01  0.21867064490E+02 -0.95728105305E+00  0.23049112405E+02  0.00000000000E+00 0. -1.
<mgrwt>
<rscale>  1 0.82806442E+02</rscale>
<asrwt>0</asrwt>
<pdfrwt beam="1">  1       21 0.26918476E-02 0.82806442E+02</pdfrwt>
<pdfrwt beam="2">  1        4 0.49703784E-01 0.82806442E+02</pdfrwt>
<totfact> 0.10989325E+05</totfact>
</mgrwt>
</event>
<event>
 6    2  0.9453093E+000  0.9275151E+02  0.7546771E-02  0.1296322E+00
         21   -1    0    0  501  502  0.00000000000E+00  0.00000000000E+00  0.78468616796E+01  0.78468616796E+01  0.00000000000E+00 0.  1.
          2   -1    0    0  502    0 -0.00000000000E+00 -0.00000000000E+00 -0.71001910309E+03  0.71001910309E+03  0.00000000000E+00 0. -1.
         24    2    1    2    0    0  0.23112513266E+02  0.34225875428E+02 -0.31146229610E+03  0.32497939058E+03  0.83049645322E+02 0.  0.
        -11    1    3    3    0    0  0.49560779444E+02  0.12118534930E+01 -0.14564104153E+03  0.15384749730E+03  0.00000000000E+00 0.  1.
         12    1    3    3    0    0 -0.26448266178E+02  0.33014021935E+02 -0.16582125457E+03  0.17113189328E+03  0.00000000000E+00 0. -1.
          1    1    1    2  501    0 -0.23112513266E+02 -0.34225875428E+02 -0.39070994531E+03  0.39288657420E+03  0.00000000000E+00 0. -1.
<mgrwt>
<rscale>  1 0.92751509E+02</rscale>
<asrwt>0</asrwt>
<pdfrwt beam="1">  1       21 0.12072095E-02 0.92751509E+02</pdfrwt>
<pdfrwt beam="2">  1        2 0.10923370E+00 0.92751509E+02</pdfrwt>
<totfact> 0.13637506E+06</totfact>
</mgrwt>
</event>
<event>
 6    2  0.9453093E+000  0.8077475E+02  0.7546771E-02  0.1326867E+00
         21   -1    0    0  501  502  0.00000000000E+00  0.00000000000E+00  0.20188236244E+01  0.20188236244E+01  0.00000000000E+00 0. -1.
          2   -1    0    0  502    0 -0.00000000000E+00 -0.00000000000E+00 -0.16455289563E+04  0.16455289563E+04  0.00000000000E+00 0. -1.
         24    2    1    2    0    0 -0.16485570287E+02 -0.13872852233E+02 -0.15220193054E+04  0.15241611876E+04  0.77848119277E+02 0.  0.
        -13    1    3    3    0    0 -0.65134996822E+00 -0.45406754767E+02 -0.88936314287E+03  0.89052175579E+03  0.00000000000E+00 0.  1.
         14    1    3    3    0    0 -0.15834220319E+02  0.31533902534E+02 -0.63265616254E+03  0.63363943181E+03  0.00000000000E+00 0. -1.
          1    1    1    2  501    0  0.16485570287E+02  0.13872852233E+02 -0.12149082724E+03  0.12338659230E+03  0.00000000000E+00 0. -1.
<mgrwt>
<rscale>  1 0.80774747E+02</rscale>
<asrwt>0</asrwt>
<pdfrwt beam="1">  1       21 0.31058912E-03 0.80774747E+02</pdfrwt>
<pdfrwt beam="2">  1        2 0.25315759E+00 0.80774747E+02</pdfrwt>
<totfact> 0.32252827E+06</totfact>
</mgrwt>
</event>
<event>
 6    2  0.9453093E+000  0.8456169E+02  0.7546771E-02  0.1316583E+00
          2   -1    0    0  502    0 -0.00000000000E+00  0.00000000000E+00  0.35303112527E+03  0.35303112527E+03  0.00000000000E+00 0. -1.
         21   -1    0    0  501  502  0.00000000000E+00 -0.00000000000E+00 -0.76153568722E+02  0.76153568722E+02  0.00000000000E+00 0. -1.
         24    2    1    2    0    0  0.29931047365E+02 -0.33078786306E+01  0.34473013087E+03  0.35495005586E+03  0.79018158460E+02 0.  0.
        -11    1    3    3    0    0 -0.22744036931E+02 -0.11159176351E+02  0.57637675163E+02  0.62959669877E+02  0.00000000000E+00 0.  1.
         12    1    3    3    0    0  0.52675084296E+02  0.78512977208E+01  0.28709245571E+03  0.29199038598E+03  0.00000000000E+00 0. -1.
          1    1    1    2  501    0 -0.29931047365E+02  0.33078786306E+01 -0.67852574320E+02  0.74234638136E+02  0.00000000000E+00 0. -1.
<mgrwt>
<rscale>  1 0.84561688E+02</rscale>
<asrwt>0</asrwt>
<pdfrwt beam="1">  1       21 0.11715934E-01 0.84561688E+02</pdfrwt>
<pdfrwt beam="2">  1        2 0.54312480E-01 0.84561688E+02</pdfrwt>
<totfact> 0.68638119E+04</totfact>
</mgrwt>
</event>
<event>
 6    2  0.9453093E+000  0.8268678E+02  0.7546771E-02  0.1321595E+00
         21   -1    0    0  501  502  0.00000000000E+00  0.00000000000E+00  0.25719582960E+02  0.25719582960E+02  0.00000000000E+00 0.  1.
          2   -1    0    0  502    0 -0.00000000000E+00 -0.00000000000E+00 -0.11740752140E+03  0.11740752140E+03  0.00000000000E+00 0. -1.
         24    2    1    2    0    0  0.18071739068E+02  0.92829067297E+01 -0.49678171224E+02  0.96462549804E+02  0.80151997532E+02 0.  0.
        -13    1    3    3    0    0  0.13972535119E+01 -0.14131226746E+02  0.18003560806E+02  0.22929720636E+02  0.00000000000E+00 0.  1.
         14    1    3    3    0    0  0.16674485556E+02  0.23414133476E+02 -0.67681732030E+02  0.73532829169E+02  0.00000000000E+00 0. -1.
          1    1    1    2  501    0 -0.18071739068E+02 -0.92829067297E+01 -0.42009767217E+02  0.46664554556E+02  0.00000000000E+00 0. -1.
<mgrwt>
<rscale>  1 0.82686775E+02</rscale>
<asrwt>0</asrwt>
<pdfrwt beam="1">  1       21 0.39568590E-02 0.82686775E+02</pdfrwt>
<pdfrwt beam="2">  1        2 0.18062695E-01 0.82686775E+02</pdfrwt>
<totfact> 0.13947093E+06</totfact>
</mgrwt>
</event>
<event>
 6    2  0.9453093E+000  0.8827894E+02  0.7546771E-02  0.1307074E+00
          2   -1    0    0  502    0 -0.00000000000E+00  0.00000000000E+00  0.33072783591E+03  0.33072783591E+03  0.00000000000E+00 0. -1.
         21   -1    0    0  501  502  0.00000000000E+00 -0.00000000000E+00 -0.14922058246E+02  0.14922058246E+02  0.00000000000E+00 0.  1.
         24    2    1    2    0    0  0.12645635200E+02 -0.44796100301E+02  0.24933866196E+03  0.26450508433E+03  0.75010456586E+02 0.  0.
        -11    1    3    3    0    0  0.11335665970E+02 -0.63298317265E+02  0.14627982307E+03  0.15979036557E+03  0.00000000000E+00 0.  1.
         12    1    3    3    0    0  0.13099692297E+01  0.18502216964E+02  0.10305883888E+03  0.10471471875E+03  0.00000000000E+00 0. -1.
          1    1    1    2  501    0 -0.12645635200E+02  0.44796100301E+02  0.66467115714E+02  0.81144809835E+02  0.00000000000E+00 0. -1.
<mgrwt>
<rscale>  1 0.88278940E+02</rscale>
<asrwt>0</asrwt>
<pdfrwt beam="1">  1       21 0.22957015E-02 0.88278940E+02</pdfrwt>
<pdfrwt beam="2">  1        2 0.50881200E-01 0.88278940E+02</pdfrwt>
<totfact> 0.11200648E+06</totfact>
</mgrwt>
</event>
<event>
 6    2  0.9453093E+000  0.8759219E+02  0.7546771E-02  0.1308790E+00
         -1   -1    0    0    0  501 -0.00000000000E+00  0.00000000000E+00  0.79918454963E+02  0.79918454963E+02  0.00000000000E+00 0.  1.
         21   -1    0    0  501  502  0.00000000000E+00 -0.00000000000E+00 -0.47421614682E+02  0.47421614682E+02  0.00000000000E+00 0. -1.
         24    2    1    2    0    0 -0.27979737901E+02  0.21579647709E+02  0.26391499399E+02  0.91481707782E+02  0.80148890759E+02 0.  0.
        -13    1    3    3    0    0  0.70841914645E+01 -0.15526545554E+02 -0.17288644776E+02  0.24293139438E+02  0.00000000000E+00 0.  1.
         14    1    3    3    0    0 -0.35063929365E+02  0.37106193262E+02  0.43680144176E+02  0.67188568344E+02  0.00000000000E+00 0. -1.
         -2    1    1    2    0  502  0.27979737901E+02 -0.21579647709E+02  0.61053408813E+01  0.35858361863E+02  0.00000000000E+00 0.  1.
<mgrwt>
<rscale>  1 0.87592189E+02</rscale>
<asrwt>0</asrwt>
<pdfrwt beam="1">  1       21 0.72956330E-02 0.87592189E+02</pdfrwt>
<pdfrwt beam="2">  1       -1 0.12295147E-01 0.87592189E+02</pdfrwt>
<totfact> 0.51748968E+05</totfact>
</mgrwt>
</event>
<event>
 6    2  0.9453093E+000  0.8272382E+02  0.7546771E-02  0.1321495E+00
         21   -1    0    0  501  502  0.00000000000E+00  0.00000000000E+00  0.44912082007E+01  0.44912082007E+01  0.00000000000E+00 0.  1.
          2   -1    0    0  502    0 -0.00000000000E+00 -0.00000000000E+00 -0.13369316469E+04  0.13369316469E+04  0.00000000000E+00 0. -1.
         24    2    1    2    0    0 -0.10245076626E+02 -0.28248416104E+02 -0.39832991345E+03  0.40682914231E+03  0.77073318831E+02 0.  0.
        -11    1    3    3    0    0  0.16920503726E+02 -0.13194305445E+02 -0.28382490183E+02  0.35580316068E+02  0.00000000000E+00 0.  1.
         12    1    3    3    0    0 -0.27165580352E+02 -0.15054110658E+02 -0.36994742327E+03  0.37124882624E+03  0.00000000000E+00 0. -1.
          1    1    1    2  501    0  0.10245076626E+02  0.28248416104E+02 -0.93411052530E+03  0.93459371284E+03  0.00000000000E+00 0. -1.
<mgrwt>
<rscale>  1 0.82723824E+02</rscale>
<asrwt>0</asrwt>
<pdfrwt beam="1">  1       21 0.69095521E-03 0.82723824E+02</pdfrwt>
<pdfrwt beam="2">  1        2 0.20568176E+00 0.82723824E+02</pdfrwt>
<totfact> 0.13703992E+06</totfact>
</mgrwt>
</event>
<event>
 6    2  0.9453093E+000  0.8850231E+02  0.7546771E-02  0.1306520E+00
          4   -1    0    0  502    0 -0.00000000000E+00  0.00000000000E+00  0.21821552145E+03  0.21821552145E+03  0.00000000000E+00 0. -1.
         21   -1    0    0  501  502  0.00000000000E+00 -0.00000000000E+00 -0.16442358763E+02  0.16442358763E+02  0.00000000000E+00 0.  1.
         24    2    1    2    0    0 -0.30245756353E+02 -0.75035839333E+01  0.15400038670E+03  0.17761975547E+03  0.82834466729E+02 0.  0.
        -11    1    3    3    0    0 -0.34511982647E+02  0.20464266431E+02  0.29124613016E+02  0.49579292352E+02  0.00000000000E+00 0.  1.
         12    1    3    3    0    0  0.42662262941E+01 -0.27967850364E+02  0.12487577369E+03  0.12804046311E+03  0.00000000000E+00 0. -1.
          3    1    1    2  501    0  0.30245756353E+02  0.75035839333E+01  0.47772775986E+02  0.57038124747E+02  0.00000000000E+00 0. -1.
<mgrwt>
<rscale>  1 0.88502307E+02</rscale>
<asrwt>0</asrwt>
<pdfrwt beam="1">  1       21 0.25295938E-02 0.88502307E+02</pdfrwt>
<pdfrwt beam="2">  1        4 0.33571617E-01 0.88502307E+02</pdfrwt>
<totfact> 0.26499046E+05</totfact>
</mgrwt>
</event>
<event>
 6    2  0.9453093E+000  0.8819200E+02  0.7546771E-02  0.1307290E+00
         -1   -1    0    0    0  501 -0.00000000000E+00  0.00000000000E+00  0.12392269367E+02  0.12392269367E+02  0.00000000000E+00 0.  1.
         21   -1    0    0  501  502  0.00000000000E+00 -0.00000000000E+00 -0.32706404330E+03  0.32706404330E+03  0.00000000000E+00 0.  1.
         24    2    1    2    0    0 -0.35424468757E+02 -0.13767607772E+01 -0.18372818733E+03  0.20379861355E+03  0.80752954183E+02 0.  0.
        -13    1    3    3    0    0 -0.30249572338E+02  0.37941841652E+02 -0.99581246371E+02  0.11077474714E+03  0.00000000000E+00 0.  1.
         14    1    3    3    0    0 -0.51748964182E+01 -0.39318602429E+02 -0.84146940961E+02  0.93023866417E+02  0.00000000000E+00 0. -1.
         -2    1    1    2    0  502  0.35424468757E+02  0.13767607772E+01 -0.13094358660E+03  0.13565769911E+03  0.00000000000E+00 0.  1.
<mgrwt>
<rscale>  1 0.88191995E+02</rscale>
<asrwt>0</asrwt>
<pdfrwt beam="1">  1       21 0.50317536E-01 0.88191995E+02</pdfrwt>
<pdfrwt beam="2">  1       -1 0.19065033E-02 0.88191995E+02</pdfrwt>
<totfact> 0.22863876E+05</totfact>
</mgrwt>
</event>
<event>
 6    2  0.9894375E+000  0.9472518E+02  0.7546771E-02  0.1291796E+00
         21   -1    0    0  501  502  0.00000000000E+00  0.00000000000E+00  0.79602397328E+02  0.79602397328E+02  0.00000000000E+00 0. -1.
         -3   -1    0    0    0  501 -0.00000000000E+00 -0.00000000000E+00 -0.79383223713E+02  0.79383223713E+02  0.00000000000E+00 0.  1.
         24    2    1    2    0    0 -0.45729864260E+02 -0.12311516056E+02  0.34186612734E+02  0.10070542858E+03  0.82036973023E+02 0.  0.
        -11    1    3    3    0    0  0.10624244639E+02 -0.15790594502E+02 -0.16228388959E+02  0.25011558470E+02  0.00000000000E+00 0.  1.
         12    1    3    3    0    0 -0.56354108899E+02  0.34790784462E+01  0.50415001694E+02  0.75693870111E+02  0.00000000000E+00 0. -1.
         -4    1    1    2    0  502  0.45729864260E+02  0.12311516056E+02 -0.33967439119E+02  0.58280192459E+02  0.00000000000E+00 0.  1.
<mgrwt>
<rscale>  1 0.94725175E+02</rscale>
<asrwt>0</asrwt>
<pdfrwt beam="1">  1       21 0.12246523E-01 0.94725175E+02</pdfrwt>
<pdfrwt beam="2">  1       -3 0.12212804E-01 0.94725175E+02</pdfrwt>
<totfact> 0.13523613E+05</totfact>
</mgrwt>
</event>
<event>
 6    2  0.9453093E+000  0.8289813E+02  0.7546771E-02  0.1321022E+00
         21   -1    0    0  501  502  0.00000000000E+00  0.00000000000E+00  0.23871093000E+02  0.23871093000E+02  0.00000000000E+00 0. -1.
          2   -1    0    0  502    0 -0.00000000000E+00 -0.00000000000E+00 -0.14797283236E+03  0.14797283236E+03  0.00000000000E+00 0. -1.
         24    2    1    2    0    0  0.24263250578E+02  0.50410442961E+01 -0.12127702319E+03  0.14690206341E+03  0.79107410679E+02 0.  0.
        -11    1    3    3    0    0 -0.22774189295E+02  0.22265384288E+02 -0.58301145163E+02  0.66433685453E+02  0.00000000000E+00 0.  1.
         12    1    3    3    0    0  0.47037439872E+02 -0.17224339992E+02 -0.62975878022E+02  0.80468377954E+02  0.00000000000E+00 0. -1.
          1    1    1    2  501    0 -0.24263250578E+02 -0.50410442961E+01 -0.28247161738E+01  0.24941861952E+02  0.00000000000E+00 0. -1.
<mgrwt>
<rscale>  1 0.82898130E+02</rscale>
<asrwt>0</asrwt>
<pdfrwt beam="1">  1       21 0.36724758E-02 0.82898130E+02</pdfrwt>
<pdfrwt beam="2">  1        2 0.22765051E-01 0.82898130E+02</pdfrwt>
<totfact> 0.12189732E+06</totfact>
</mgrwt>
</event>
<event>
 6    2  0.1294836E+001  0.9570224E+02  0.7546771E-02  0.1289602E+00
         -1   -1    0    0    0  501 -0.00000000000E+00  0.00000000000E+00  0.42516190906E+03  0.42516190906E+03  0.00000000000E+00 0.  1.
         21   -1    0    0  501  502  0.00000000000E+00 -0.00000000000E+00 -0.36368354055E+02  0.36368354055E+02  0.00000000000E+00 0.  1.
         24    2    1    2    0    0 -0.49831704400E+02  0.46951519789E+01  0.39911163636E+03  0.41042540994E+03  0.81570065821E+02 0.  0.
        -13    1    3    3    0    0 -0.63608194893E+02  0.23500190545E+01  0.38616371978E+03  0.39137442881E+03  0.00000000000E+00 0.  1.
         14    1    3    3    0    0  0.13776490493E+02  0.23451329243E+01  0.12947916572E+02  0.19050981137E+02  0.00000000000E+00 0. -1.
         -2    1    1    2    0  502  0.49831704400E+02 -0.46951519789E+01 -0.10318081345E+02  0.51104853176E+02  0.00000000000E+00 0.  1.
<mgrwt>
<rscale>  1 0.95702241E+02</rscale>
<asrwt>0</asrwt>
<pdfrwt beam="1">  1       21 0.55951317E-02 0.95702241E+02</pdfrwt>
<pdfrwt beam="2">  1       -1 0.65409521E-01 0.95702241E+02</pdfrwt>
<totfact> 0.49649916E+04</totfact>
</mgrwt>
</event>
<event>
 6    2  0.9453093E+000  0.9770103E+02  0.7546771E-02  0.1285206E+00
         21   -1    0    0  501  502  0.00000000000E+00  0.00000000000E+00  0.32253140275E+01  0.32253140275E+01  0.00000000000E+00 0. -1.
          2   -1    0    0  502    0 -0.00000000000E+00 -0.00000000000E+00 -0.15487349550E+04  0.15487349550E+04  0.00000000000E+00 0. -1.
         24    2    1    2    0    0  0.33842220595E+02  0.19672168647E+02 -0.90573740720E+03  0.91099162609E+03  0.89516489559E+02 0.  0.
        -13    1    3    3    0    0 -0.18269892534E+02  0.25640667215E+02 -0.14168484648E+03  0.14514071969E+03  0.00000000000E+00 0.  1.
         14    1    3    3    0    0  0.52112113129E+02 -0.59684985686E+01 -0.76405256071E+03  0.76585090640E+03  0.00000000000E+00 0. -1.
          1    1    1    2  501    0 -0.33842220595E+02 -0.19672168647E+02 -0.63977223374E+03  0.64096864290E+03  0.00000000000E+00 0. -1.
<mgrwt>
<rscale>  1 0.97701034E+02</rscale>
<asrwt>0</asrwt>
<pdfrwt beam="1">  1       21 0.49619958E-03 0.97701034E+02</pdfrwt>
<pdfrwt beam="2">  1        2 0.23826816E+00 0.97701034E+02</pdfrwt>
<totfact> 0.17964334E+06</totfact>
</mgrwt>
</event>
<event>
 6    2  0.9453093E+000  0.1771464E+03  0.7546771E-02  0.1170594E+00
         21   -1    0    0  501  502  0.00000000000E+00  0.00000000000E+00  0.27773253133E+03  0.27773253133E+03  0.00000000000E+00 0.  1.
          2   -1    0    0  502    0 -0.00000000000E+00 -0.00000000000E+00 -0.17524495004E+03  0.17524495004E+03  0.00000000000E+00 0. -1.
         24    2    1    2    0    0  0.13881744421E+03 -0.74792502523E+02 -0.94400417312E+02  0.20072941846E+03  0.80725828542E+02 0.  0.
        -11    1    3    3    0    0  0.14936808223E+03 -0.67076077021E+02 -0.84011728456E+02  0.18403259118E+03  0.00000000000E+00 0.  1.
         12    1    3    3    0    0 -0.10550638015E+02 -0.77164255024E+01 -0.10388688857E+02  0.16696827280E+02  0.00000000000E+00 0. -1.
          1    1    1    2  501    0 -0.13881744421E+03  0.74792502523E+02  0.19688799860E+03  0.25224806291E+03  0.00000000000E+00 0. -1.
<mgrwt>
<rscale>  1 0.17714644E+03</rscale>
<asrwt>0</asrwt>
<pdfrwt beam="1">  1       21 0.42728082E-01 0.17714644E+03</pdfrwt>
<pdfrwt beam="2">  1        2 0.26960761E-01 0.17714644E+03</pdfrwt>
<totfact> 0.12827399E+04</totfact>
</mgrwt>
</event>
<event>
 6    2  0.9453093E+000  0.9123318E+02  0.7546771E-02  0.1299893E+00
          4   -1    0    0  502    0 -0.00000000000E+00  0.00000000000E+00  0.46888732837E+03  0.46888732837E+03  0.00000000000E+00 0. -1.
         21   -1    0    0  501  502  0.00000000000E+00 -0.00000000000E+00 -0.12844923460E+02  0.12844923460E+02  0.00000000000E+00 0. -1.
         24    2    1    2    0    0  0.42359343606E+02  0.17844625001E+01  0.40609495391E+03  0.41621701575E+03  0.80783626507E+02 0.  0.
        -11    1    3    3    0    0 -0.11832437451E+02  0.10866222819E+02  0.17496732623E+02  0.23753252974E+02  0.00000000000E+00 0.  1.
         12    1    3    3    0    0  0.54191781057E+02 -0.90817603188E+01  0.38859822129E+03  0.39246376278E+03  0.00000000000E+00 0. -1.
          3    1    1    2  501    0 -0.42359343606E+02 -0.17844625001E+01  0.49947450997E+02  0.65515236077E+02  0.00000000000E+00 0. -1.
<mgrwt>
<rscale>  1 0.91233177E+02</rscale>
<asrwt>0</asrwt>
<pdfrwt beam="1">  1       21 0.19761424E-02 0.91233177E+02</pdfrwt>
<pdfrwt beam="2">  1        4 0.72136499E-01 0.91233177E+02</pdfrwt>
<totfact> 0.84691410E+04</totfact>
</mgrwt>
</event>
<event>
 6    2  0.9453093E+000  0.1213614E+03  0.7546771E-02  0.1240868E+00
         21   -1    0    0  501  502  0.00000000000E+00  0.00000000000E+00  0.47527686426E+02  0.47527686426E+02  0.00000000000E+00 0. -1.
          2   -1    0    0  502    0 -0.00000000000E+00 -0.00000000000E+00 -0.23184659232E+03  0.23184659232E+03  0.00000000000E+00 0. -1.
         24    2    1    2    0    0  0.74871734660E+02 -0.47258861126E+02 -0.10937442176E+03  0.16337491535E+03  0.83002543479E+02 0.  0.
        -13    1    3    3    0    0  0.45275555472E+02 -0.20378685605E+01 -0.46908152411E+01  0.45563500515E+02  0.00000000000E+00 0.  1.
         14    1    3    3    0    0  0.29596179188E+02 -0.45220992566E+02 -0.10468360652E+03  0.11781141484E+03  0.00000000000E+00 0. -1.
          1    1    1    2  501    0 -0.74871734660E+02  0.47258861126E+02 -0.74944484128E+02  0.11599936339E+03  0.00000000000E+00 0. -1.
<mgrwt>
<rscale>  1 0.12136144E+03</rscale>
<asrwt>0</asrwt>
<pdfrwt beam="1">  1       21 0.73119517E-02 0.12136144E+03</pdfrwt>
<pdfrwt beam="2">  1        2 0.35668707E-01 0.12136144E+03</pdfrwt>
<totfact> 0.24531574E+05</totfact>
</mgrwt>
</event>
<event>
 6    2  0.9453093E+000  0.9345836E+02  0.7546771E-02  0.1294686E+00
          2   -1    0    0  502    0 -0.00000000000E+00  0.00000000000E+00  0.93975458911E+02  0.93975458911E+02  0.00000000000E+00 0. -1.
         21   -1    0    0  501  502  0.00000000000E+00 -0.00000000000E+00 -0.42748233134E+02  0.42748233134E+02  0.00000000000E+00 0. -1.
         24    2    1    2    0    0 -0.10174298467E+02 -0.26246002292E+02  0.54814318270E+02  0.10834700763E+03  0.89118435748E+02 0.  0.
        -13    1    3    3    0    0  0.25304409572E+02 -0.46231000312E+02  0.29449874862E+02  0.60373120369E+02  0.00000000000E+00 0.  1.
         14    1    3    3    0    0 -0.35478708039E+02  0.19984998020E+02  0.25364443407E+02  0.47973887265E+02  0.00000000000E+00 0. -1.
          1    1    1    2  501    0  0.10174298467E+02  0.26246002292E+02 -0.35870924921E+01  0.28376684411E+02  0.00000000000E+00 0. -1.
<mgrwt>
<rscale>  1 0.93458357E+02</rscale>
<asrwt>0</asrwt>
<pdfrwt beam="1">  1       21 0.65766513E-02 0.93458357E+02</pdfrwt>
<pdfrwt beam="2">  1        2 0.14457763E-01 0.93458357E+02</pdfrwt>
<totfact> 0.78310348E+05</totfact>
</mgrwt>
</event>
<event>
 6    2  0.9453093E+000  0.7742320E+02  0.7546771E-02  0.1336527E+00
          2   -1    0    0  502    0 -0.00000000000E+00  0.00000000000E+00  0.21912562580E+04  0.21912562580E+04  0.00000000000E+00 0. -1.
         21   -1    0    0  501  502  0.00000000000E+00 -0.00000000000E+00 -0.35320762848E+01  0.35320762848E+01  0.00000000000E+00 0. -1.
         24    2    1    2    0    0 -0.93672056465E+01  0.19128775735E+02  0.21505614103E+04  0.21519546305E+04  0.74435862062E+02 0.  0.
        -11    1    3    3    0    0  0.12178621964E+02 -0.12291289041E+02  0.14461465170E+03  0.14564611943E+03  0.00000000000E+00 0.  1.
         12    1    3    3    0    0 -0.21545827611E+02  0.31420064776E+02  0.20059467586E+04  0.20063085110E+04  0.00000000000E+00 0. -1.
          1    1    1    2  501    0  0.93672056465E+01 -0.19128775735E+02  0.37162771431E+02  0.42833703823E+02  0.00000000000E+00 0. -1.
<mgrwt>
<rscale>  1 0.77423202E+02</rscale>
<asrwt>0</asrwt>
<pdfrwt beam="1">  1       21 0.54339810E-03 0.77423202E+02</pdfrwt>
<pdfrwt beam="2">  1        2 0.33711526E+00 0.77423202E+02</pdfrwt>
<totfact> 0.73349205E+05</totfact>
</mgrwt>
</event>
<event>
 6    2  0.9453093E+000  0.1073251E+03  0.7546771E-02  0.1265605E+00
          2   -1    0    0  502    0 -0.00000000000E+00  0.00000000000E+00  0.11141233410E+04  0.11141233410E+04  0.00000000000E+00 0. -1.
         21   -1    0    0  501  502  0.00000000000E+00 -0.00000000000E+00 -0.91658293288E+01  0.91658293288E+01  0.00000000000E+00 0.  1.
         24    2    1    2    0    0 -0.42796008057E+01 -0.69799924122E+02  0.37696294706E+03  0.39194354034E+03  0.81414562412E+02 0.  0.
        -11    1    3    3    0    0 -0.20092333999E+02 -0.40174821921E+02  0.70155177626E+02  0.83303464212E+02  0.00000000000E+00 0.  1.
         12    1    3    3    0    0  0.15812733194E+02 -0.29625102201E+02  0.30680776943E+03  0.30864007613E+03  0.00000000000E+00 0. -1.
          1    1    1    2  501    0  0.42796008057E+01  0.69799924122E+02  0.72799456459E+03  0.73134562996E+03  0.00000000000E+00 0. -1.
<mgrwt>
<rscale>  1 0.10732509E+03</rscale>
<asrwt>0</asrwt>
<pdfrwt beam="1">  1       21 0.14101285E-02 0.10732509E+03</pdfrwt>
<pdfrwt beam="2">  1        2 0.17140348E+00 0.10732509E+03</pdfrwt>
<totfact> 0.60308744E+05</totfact>
</mgrwt>
</event>
<event>
 6    2  0.9453093E+000  0.1071313E+03  0.7546771E-02  0.1265976E+00
         21   -1    0    0  501  502  0.00000000000E+00  0.00000000000E+00  0.19641610321E+02  0.19641610321E+02  0.00000000000E+00 0. -1.
          2   -1    0    0  502    0 -0.00000000000E+00 -0.00000000000E+00 -0.38034237847E+03  0.38034237847E+03  0.00000000000E+00 0. -1.
         24    2    1    2    0    0  0.43911356117E+02 -0.47728401924E+02 -0.20471387340E+03  0.23105169798E+03  0.85269628997E+02 0.  0.
        -13    1    3    3    0    0  0.47818647995E+02  0.85905970134E+01 -0.72322811355E+02  0.87126405271E+02  0.00000000000E+00 0.  1.
         14    1    3    3    0    0 -0.39072918779E+01 -0.56318998937E+02 -0.13239106205E+03  0.14392529271E+03  0.00000000000E+00 0. -1.
          1    1    1    2  501    0 -0.43911356117E+02  0.47728401924E+02 -0.15598689475E+03  0.16893229081E+03  0.00000000000E+00 0. -1.
<mgrwt>
<rscale>  1 0.10713131E+03</rscale>
<asrwt>0</asrwt>
<pdfrwt beam="1">  1       21 0.30217862E-02 0.10713131E+03</pdfrwt>
<pdfrwt beam="2">  1        2 0.58514212E-01 0.10713131E+03</pdfrwt>
<totfact> 0.63091836E+05</totfact>
</mgrwt>
</event>
<event>
 6    2  0.9453093E+000  0.1057149E+03  0.7546771E-02  0.1268717E+00
          2   -1    0    0  502    0 -0.00000000000E+00  0.00000000000E+00  0.54603436814E+03  0.54603436814E+03  0.00000000000E+00 0. -1.
         21   -1    0    0  501  502  0.00000000000E+00 -0.00000000000E+00 -0.27122310656E+02  0.27122310656E+02  0.00000000000E+00 0. -1.
         24    2    1    2    0    0 -0.57449899526E+02 -0.37672609260E+02  0.48528887443E+03  0.49666985063E+03  0.80348817258E+02 0.  0.
        -11    1    3    3    0    0 -0.39912883223E+01 -0.47111902592E+02  0.15846164694E+03  0.16536491557E+03  0.00000000000E+00 0.  1.
         12    1    3    3    0    0 -0.53458611204E+02  0.94392933321E+01  0.32682722748E+03  0.33130493506E+03  0.00000000000E+00 0. -1.
          1    1    1    2  501    0  0.57449899526E+02  0.37672609260E+02  0.33623183051E+02  0.76486828163E+02  0.00000000000E+00 0. -1.
<mgrwt>
<rscale>  1 0.10571494E+03</rscale>
<asrwt>0</asrwt>
<pdfrwt beam="1">  1       21 0.41726636E-02 0.10571494E+03</pdfrwt>
<pdfrwt beam="2">  1        2 0.84005279E-01 0.10571494E+03</pdfrwt>
<totfact> 0.25129294E+05</totfact>
</mgrwt>
</event>
<event>
 6    2  0.9453093E+000  0.6490386E+02  0.7546771E-02  0.1378334E+00
         21   -1    0    0  501  502  0.00000000000E+00  0.00000000000E+00  0.10368965729E+01  0.10368965729E+01  0.00000000000E+00 0.  1.
          2   -1    0    0  502    0 -0.00000000000E+00 -0.00000000000E+00 -0.24479808705E+04  0.24479808705E+04  0.00000000000E+00 0. -1.
         24    2    1    2    0    0  0.25188391128E+02  0.16034158554E+02 -0.20139152131E+04  0.20149607928E+04  0.57627782547E+02 0.  0.
        -11    1    3    3    0    0  0.41367765601E+02  0.22797375007E+02 -0.14091708002E+04  0.14099621827E+04  0.00000000000E+00 0.  1.
         12    1    3    3    0    0 -0.16179374473E+02 -0.67632164529E+01 -0.60474441291E+03  0.60499861008E+03  0.00000000000E+00 0. -1.
          1    1    1    2  501    0 -0.25188391128E+02 -0.16034158554E+02 -0.43302876078E+03  0.43405697432E+03  0.00000000000E+00 0. -1.
<mgrwt>
<rscale>  1 0.64903857E+02</rscale>
<asrwt>0</asrwt>
<pdfrwt beam="1">  1       21 0.15952521E-03 0.64903857E+02</pdfrwt>
<pdfrwt beam="2">  1        2 0.37660617E+00 0.64903857E+02</pdfrwt>
<totfact> 0.33945737E+06</totfact>
</mgrwt>
</event>
<event>
 6    2  0.9453093E+000  0.8498299E+02  0.7546771E-02  0.1315477E+00
         21   -1    0    0  501  502  0.00000000000E+00  0.00000000000E+00  0.13467844727E+03  0.13467844727E+03  0.00000000000E+00 0.  1.
         -3   -1    0    0    0  501 -0.00000000000E+00 -0.00000000000E+00 -0.14562830146E+03  0.14562830146E+03  0.00000000000E+00 0.  1.
         24    2    1    2    0    0 -0.28687898300E+02  0.14105495592E+02 -0.13095689766E+03  0.15611475626E+03  0.78741015758E+02 0.  0.
        -11    1    3    3    0    0 -0.17940438960E+01  0.60356956867E+01 -0.12769193272E+03  0.12784708795E+03  0.00000000000E+00 0.  1.
         12    1    3    3    0    0 -0.26893854404E+02  0.80697999050E+01 -0.32649649330E+01  0.28267668302E+02  0.00000000000E+00 0. -1.
         -4    1    1    2    0  502  0.28687898300E+02 -0.14105495592E+02  0.12000704346E+03  0.12419199247E+03  0.00000000000E+00 0.  1.
<mgrwt>
<rscale>  1 0.84982987E+02</rscale>
<asrwt>0</asrwt>
<pdfrwt beam="1">  1       21 0.20719761E-01 0.84982987E+02</pdfrwt>
<pdfrwt beam="2">  1       -3 0.22404354E-01 0.84982987E+02</pdfrwt>
<totfact> 0.18402059E+04</totfact>
</mgrwt>
</event>
<event>
 6    2  0.9453093E+000  0.8760266E+02  0.7546771E-02  0.1308763E+00
         21   -1    0    0  501  502  0.00000000000E+00  0.00000000000E+00  0.26124808989E+03  0.26124808989E+03  0.00000000000E+00 0.  1.
         -1   -1    0    0    0  501 -0.00000000000E+00 -0.00000000000E+00 -0.12798379811E+03  0.12798379811E+03  0.00000000000E+00 0.  1.
         24    2    1    2    0    0 -0.29053128058E+02  0.22081730034E+02 -0.11148022741E+03  0.14178175823E+03  0.79640057836E+02 0.  0.
        -13    1    3    3    0    0 -0.27686391992E+02  0.43056156075E+02 -0.10924611989E+03  0.12064445113E+03  0.00000000000E+00 0.  1.
         14    1    3    3    0    0 -0.13667360661E+01 -0.20974426041E+02 -0.22341075257E+01  0.21137307105E+02  0.00000000000E+00 0. -1.
         -2    1    1    2    0  502  0.29053128058E+02 -0.22081730034E+02  0.24474451919E+03  0.24745012977E+03  0.00000000000E+00 0.  1.
<mgrwt>
<rscale>  1 0.87602659E+02</rscale>
<asrwt>0</asrwt>
<pdfrwt beam="1">  1       21 0.40192014E-01 0.87602659E+02</pdfrwt>
<pdfrwt beam="2">  1       -1 0.19689815E-01 0.87602659E+02</pdfrwt>
<totfact> 0.11251603E+04</totfact>
</mgrwt>
</event>
<event>
 6    2  0.1157926E+001  0.8937285E+02  0.7546771E-02  0.1304378E+00
         -3   -1    0    0    0  501 -0.00000000000E+00  0.00000000000E+00  0.24805341947E+03  0.24805341947E+03  0.00000000000E+00 0.  1.
         21   -1    0    0  501  502  0.00000000000E+00 -0.00000000000E+00 -0.76151167125E+02  0.76151167125E+02  0.00000000000E+00 0.  1.
         24    2    1    2    0    0  0.84239070776E+01 -0.39237410928E+02  0.23387661097E+03  0.25037127601E+03  0.79855933172E+02 0.  0.
        -13    1    3    3    0    0  0.18180615163E+02 -0.39423772396E+02  0.23635004094E+03  0.24030420398E+03  0.00000000000E+00 0.  1.
         14    1    3    3    0    0 -0.97567080853E+01  0.18636146811E+00 -0.24734299741E+01  0.10067072022E+02  0.00000000000E+00 0. -1.
         -4    1    1    2    0  502 -0.84239070776E+01  0.39237410928E+02 -0.61974358621E+02  0.73833310594E+02  0.00000000000E+00 0.  1.
<mgrwt>
<rscale>  1 0.89372852E+02</rscale>
<asrwt>0</asrwt>
<pdfrwt beam="1">  1       21 0.11715564E-01 0.89372852E+02</pdfrwt>
<pdfrwt beam="2">  1       -3 0.38162064E-01 0.89372852E+02</pdfrwt>
<totfact> 0.19404489E+04</totfact>
</mgrwt>
</event>
<event>
 6    2  0.9453093E+000  0.8250267E+02  0.7546771E-02  0.1322096E+00
         21   -1    0    0  501  502  0.00000000000E+00  0.00000000000E+00  0.17051141922E+02  0.17051141922E+02  0.00000000000E+00 0. -1.
          2   -1    0    0  502    0 -0.00000000000E+00 -0.00000000000E+00 -0.26025472058E+03  0.26025472058E+03  0.00000000000E+00 0. -1.
         24    2    1    2    0    0 -0.61625669118E+01  0.19955706025E+02 -0.24278071502E+03  0.25641600258E+03  0.79815307797E+02 0.  0.
        -11    1    3    3    0    0 -0.27513628104E+02  0.28700578857E+02 -0.58713523053E+02  0.70908396876E+02  0.00000000000E+00 0.  1.
         12    1    3    3    0    0  0.21351061192E+02 -0.87448728319E+01 -0.18406719197E+03  0.18550760570E+03  0.00000000000E+00 0. -1.
          1    1    1    2  501    0  0.61625669118E+01 -0.19955706025E+02 -0.42286363721E+00  0.20889859922E+02  0.00000000000E+00 0. -1.
<mgrwt>
<rscale>  1 0.82502671E+02</rscale>
<asrwt>0</asrwt>
<pdfrwt beam="1">  1       21 0.26232527E-02 0.82502671E+02</pdfrwt>
<pdfrwt beam="2">  1        2 0.40039186E-01 0.82502671E+02</pdfrwt>
<totfact> 0.11516436E+06</totfact>
</mgrwt>
</event>
<event>
 6    2  0.9453093E+000  0.8280447E+02  0.7546771E-02  0.1321276E+00
         -1   -1    0    0    0  501 -0.00000000000E+00  0.00000000000E+00  0.14072338595E+03  0.14072338595E+03  0.00000000000E+00 0.  1.
         21   -1    0    0  501  502  0.00000000000E+00 -0.00000000000E+00 -0.11899218143E+03  0.11899218143E+03  0.00000000000E+00 0. -1.
         24    2    1    2    0    0  0.29443684797E+02  0.66581748523E+01 -0.10255787324E+03  0.13181311737E+03  0.77105892645E+02 0.  0.
        -13    1    3    3    0    0 -0.89049585012E+01 -0.28894077033E+02 -0.42847446517E+02  0.52441106458E+02  0.00000000000E+00 0.  1.
         14    1    3    3    0    0  0.38348643298E+02  0.35552251885E+02 -0.59710426726E+02  0.79372010915E+02  0.00000000000E+00 0. -1.
         -2    1    1    2    0  502 -0.29443684797E+02 -0.66581748523E+01  0.12428907776E+03  0.12790245001E+03  0.00000000000E+00 0.  1.
<mgrwt>
<rscale>  1 0.82804472E+02</rscale>
<asrwt>0</asrwt>
<pdfrwt beam="1">  1       21 0.18306490E-01 0.82804472E+02</pdfrwt>
<pdfrwt beam="2">  1       -1 0.21649751E-01 0.82804472E+02</pdfrwt>
<totfact> 0.42650596E+04</totfact>
</mgrwt>
</event>
<event>
 6    2  0.9453093E+000  0.8422821E+02  0.7546771E-02  0.1317463E+00
         21   -1    0    0  501  502  0.00000000000E+00  0.00000000000E+00  0.28156625177E+02  0.28156625177E+02  0.00000000000E+00 0. -1.
          2   -1    0    0  502    0 -0.00000000000E+00 -0.00000000000E+00 -0.34886803828E+03  0.34886803828E+03  0.00000000000E+00 0. -1.
         24    2    1    2    0    0 -0.33702702791E+02  0.44762765987E+01 -0.33096409726E+03  0.34151372487E+03  0.77061542761E+02 0.  0.
        -13    1    3    3    0    0 -0.10707877699E+02  0.39402686581E+02 -0.13066674829E+03  0.13689787969E+03  0.00000000000E+00 0.  1.
         14    1    3    3    0    0 -0.22994825092E+02 -0.34926409982E+02 -0.20029734897E+03  0.20461584518E+03  0.00000000000E+00 0. -1.
          1    1    1    2  501    0  0.33702702791E+02 -0.44762765987E+01  0.10252684148E+02  0.35510938594E+02  0.00000000000E+00 0. -1.
<mgrwt>
<rscale>  1 0.84228205E+02</rscale>
<asrwt>0</asrwt>
<pdfrwt beam="1">  1       21 0.43317884E-02 0.84228205E+02</pdfrwt>
<pdfrwt beam="2">  1        2 0.53672007E-01 0.84228205E+02</pdfrwt>
<totfact> 0.37528095E+05</totfact>
</mgrwt>
</event>
<event>
 6    2  0.9453093E+000  0.8515571E+02  0.7546771E-02  0.1315026E+00
         21   -1    0    0  501  502  0.00000000000E+00  0.00000000000E+00  0.51795448320E+01  0.51795448320E+01  0.00000000000E+00 0. -1.
          2   -1    0    0  502    0 -0.00000000000E+00 -0.00000000000E+00 -0.11843434475E+04  0.11843434475E+04  0.00000000000E+00 0. -1.
         24    2    1    2    0    0 -0.86405488649E+00 -0.27343321947E+02 -0.11304520671E+04  0.11336548729E+04  0.80641744639E+02 0.  0.
        -11    1    3    3    0    0 -0.54416755788E+01 -0.44327879143E+01 -0.68414102813E+01  0.98013436035E+01  0.00000000000E+00 0.  1.
         12    1    3    3    0    0  0.45776206923E+01 -0.22910534033E+02 -0.11236106568E+04  0.11238535293E+04  0.00000000000E+00 0. -1.
          1    1    1    2  501    0  0.86405488649E+00  0.27343321947E+02 -0.48711835621E+02  0.55868119492E+02  0.00000000000E+00 0. -1.
<mgrwt>
<rscale>  1 0.85155709E+02</rscale>
<asrwt>0</asrwt>
<pdfrwt beam="1">  1       21 0.79685300E-03 0.85155709E+02</pdfrwt>
<pdfrwt beam="2">  1        2 0.18220670E+00 0.85155709E+02</pdfrwt>
<totfact> 0.13283125E+06</totfact>
</mgrwt>
</event>
<event>
 6    2  0.9453093E+000  0.9297054E+02  0.7546771E-02  0.1295813E+00
         21   -1    0    0  501  502  0.00000000000E+00  0.00000000000E+00  0.23246680471E+02  0.23246680471E+02  0.00000000000E+00 0. -1.
          2   -1    0    0  502    0 -0.00000000000E+00 -0.00000000000E+00 -0.15198894480E+04  0.15198894480E+04  0.00000000000E+00 0. -1.
         24    2    1    2    0    0 -0.52558587469E+01 -0.28121868491E+02 -0.15090797695E+04  0.15119408955E+04  0.88459352945E+02 0.  0.
        -11    1    3    3    0    0  0.38176767621E+02 -0.81477864211E+01 -0.41933839170E+03  0.42115144398E+03  0.00000000000E+00 0.  1.
         12    1    3    3    0    0 -0.43432626368E+02 -0.19974082070E+02 -0.10897413778E+04  0.10907894515E+04  0.00000000000E+00 0. -1.
          1    1    1    2  501    0  0.52558587469E+01  0.28121868491E+02  0.12437002037E+02  0.31195232942E+02  0.00000000000E+00 0. -1.
<mgrwt>
<rscale>  1 0.92970537E+02</rscale>
<asrwt>0</asrwt>
<pdfrwt beam="1">  1       21 0.35764115E-02 0.92970537E+02</pdfrwt>
<pdfrwt beam="2">  1        2 0.23382920E+00 0.92970537E+02</pdfrwt>
<totfact> 0.81561091E+04</totfact>
</mgrwt>
</event>
<event>
 6    2  0.9453093E+000  0.8967472E+02  0.7546771E-02  0.1303641E+00
          2   -1    0    0  502    0 -0.00000000000E+00  0.00000000000E+00  0.60147836438E+03  0.60147836438E+03  0.00000000000E+00 0. -1.
         21   -1    0    0  501  502  0.00000000000E+00 -0.00000000000E+00 -0.74447518189E+01  0.74447518189E+01  0.00000000000E+00 0.  1.
         24    2    1    2    0    0  0.15787511144E+02 -0.17772709960E+02  0.28041197526E+03  0.29440181945E+03  0.86466413692E+02 0.  0.
        -11    1    3    3    0    0  0.43288707353E+02 -0.21848911353E+02  0.92449894488E+02  0.10439478005E+03  0.00000000000E+00 0.  1.
         12    1    3    3    0    0 -0.27501196209E+02  0.40762013933E+01  0.18796208077E+03  0.19000703939E+03  0.00000000000E+00 0. -1.
          1    1    1    2  501    0 -0.15787511144E+02  0.17772709960E+02  0.31362163730E+03  0.31452129675E+03  0.00000000000E+00 0. -1.
<mgrwt>
<rscale>  1 0.89674720E+02</rscale>
<asrwt>0</asrwt>
<pdfrwt beam="1">  1       21 0.11453469E-02 0.89674720E+02</pdfrwt>
<pdfrwt beam="2">  1        2 0.92535094E-01 0.89674720E+02</pdfrwt>
<totfact> 0.17849378E+06</totfact>
</mgrwt>
</event>
<event>
 6    2  0.9453093E+000  0.8818438E+02  0.7546771E-02  0.1307309E+00
         -1   -1    0    0    0  501 -0.00000000000E+00  0.00000000000E+00  0.60047613157E+03  0.60047613157E+03  0.00000000000E+00 0.  1.
         21   -1    0    0  501  502  0.00000000000E+00 -0.00000000000E+00 -0.13349867142E+02  0.13349867142E+02  0.00000000000E+00 0.  1.
         24    2    1    2    0    0  0.38341841593E+02 -0.76126497841E+00  0.55988209794E+03  0.56678430499E+03  0.79409120656E+02 0.  0.
        -11    1    3    3    0    0  0.15475691820E+02 -0.38862836186E+02  0.21310365816E+03  0.21717040819E+03  0.00000000000E+00 0.  1.
         12    1    3    3    0    0  0.22866149773E+02  0.38101571208E+02  0.34677843978E+03  0.34961389679E+03  0.00000000000E+00 0. -1.
         -2    1    1    2    0  502 -0.38341841593E+02  0.76126497841E+00  0.27244166489E+02  0.47041693728E+02  0.00000000000E+00 0.  1.
<mgrwt>
<rscale>  1 0.88184379E+02</rscale>
<asrwt>0</asrwt>
<pdfrwt beam="1">  1       21 0.20538262E-02 0.88184379E+02</pdfrwt>
<pdfrwt beam="2">  1       -1 0.92380923E-01 0.88184379E+02</pdfrwt>
<totfact> 0.12711635E+05</totfact>
</mgrwt>
</event>
<event>
 6    2  0.9453093E+000  0.7264201E+02  0.7546771E-02  0.1351332E+00
         21   -1    0    0  501  502  0.00000000000E+00  0.00000000000E+00  0.15698445509E+01  0.15698445509E+01  0.00000000000E+00 0.  1.
          2   -1    0    0  502    0 -0.00000000000E+00 -0.00000000000E+00 -0.15497458813E+04  0.15497458813E+04  0.00000000000E+00 0. -1.
         24    2    1    2    0    0 -0.22094020401E+02 -0.12825421960E+02 -0.12076135864E+04  0.12097964441E+04  0.68001654639E+02 0.  0.
        -11    1    3    3    0    0 -0.20276643645E+02 -0.31199223632E+01 -0.97314276252E+02  0.99453227980E+02  0.00000000000E+00 0.  1.
         12    1    3    3    0    0 -0.18173767559E+01 -0.97054995964E+01 -0.11102993101E+04  0.11103432161E+04  0.00000000000E+00 0. -1.
          1    1    1    2  501    0  0.22094020401E+02  0.12825421960E+02 -0.34056245041E+03  0.34151928176E+03  0.00000000000E+00 0. -1.
<mgrwt>
<rscale>  1 0.72642014E+02</rscale>
<asrwt>0</asrwt>
<pdfrwt beam="1">  1       21 0.24151430E-03 0.72642014E+02</pdfrwt>
<pdfrwt beam="2">  1        2 0.23842269E+00 0.72642014E+02</pdfrwt>
<totfact> 0.52032797E+06</totfact>
</mgrwt>
</event>
<event>
 6    2  0.9453093E+000  0.8316481E+02  0.7546771E-02  0.1320303E+00
         21   -1    0    0  501  502  0.00000000000E+00  0.00000000000E+00  0.29283674825E+03  0.29283674825E+03  0.00000000000E+00 0. -1.
         -1   -1    0    0    0  501 -0.00000000000E+00 -0.00000000000E+00 -0.92772395544E+01  0.92772395544E+01  0.00000000000E+00 0.  1.
         24    2    1    2    0    0 -0.10872116662E+02 -0.17795013052E+02  0.21837366487E+03  0.23367379753E+03  0.80507892351E+02 0.  0.
        -11    1    3    3    0    0 -0.41394494416E+02  0.53128650391E+01  0.81733378331E+02  0.91771868437E+02  0.00000000000E+00 0.  1.
         12    1    3    3    0    0  0.30522377754E+02 -0.23107878091E+02  0.13664028654E+03  0.14190192909E+03  0.00000000000E+00 0. -1.
         -2    1    1    2    0  502  0.10872116662E+02  0.17795013052E+02  0.65185843824E+02  0.68440190278E+02  0.00000000000E+00 0.  1.
<mgrwt>
<rscale>  1 0.83164813E+02</rscale>
<asrwt>0</asrwt>
<pdfrwt beam="1">  1       21 0.45051800E-01 0.83164813E+02</pdfrwt>
<pdfrwt beam="2">  1       -1 0.14272678E-02 0.83164813E+02</pdfrwt>
<totfact> 0.42886380E+05</totfact>
</mgrwt>
</event>
<event>
 6    2  0.9453093E+000  0.8297995E+02  0.7546771E-02  0.1320801E+00
          2   -1    0    0  502    0 -0.00000000000E+00  0.00000000000E+00  0.32397555102E+04  0.32397555102E+04  0.00000000000E+00 0. -1.
         21   -1    0    0  501  502  0.00000000000E+00 -0.00000000000E+00 -0.16000937348E+01  0.16000937348E+01  0.00000000000E+00 0. -1.
         24    2    1    2    0    0 -0.76665765308E+01 -0.18569241163E+02  0.31433472319E+04  0.31444423181E+04  0.80511355585E+02 0.  0.
        -13    1    3    3    0    0 -0.35394095667E+01 -0.33963512994E+02  0.55687085639E+03  0.55791683819E+03  0.00000000000E+00 0.  1.
         14    1    3    3    0    0 -0.41271669641E+01  0.15394271831E+02  0.25864763755E+04  0.25865254799E+04  0.00000000000E+00 0. -1.
          1    1    1    2  501    0  0.76665765308E+01  0.18569241163E+02  0.94808184581E+02  0.96913285863E+02  0.00000000000E+00 0. -1.
<mgrwt>
<rscale>  1 0.82979946E+02</rscale>
<asrwt>0</asrwt>
<pdfrwt beam="1">  1       21 0.24617086E-03 0.82979946E+02</pdfrwt>
<pdfrwt beam="2">  1        2 0.49841867E+00 0.82979946E+02</pdfrwt>
<totfact> 0.65880950E+05</totfact>
</mgrwt>
</event>
<event>
 6    2  0.9453093E+000  0.9043756E+02  0.7546771E-02  0.1301796E+00
         21   -1    0    0  501  502  0.00000000000E+00  0.00000000000E+00  0.27024669588E+01  0.27024669588E+01  0.00000000000E+00 0. -1.
          2   -1    0    0  502    0 -0.00000000000E+00 -0.00000000000E+00 -0.18821361244E+04  0.18821361244E+04  0.00000000000E+00 0. -1.
         24    2    1    2    0    0 -0.38636648050E+02 -0.87053154051E+01 -0.16068175331E+04  0.16093605989E+04  0.81304240141E+02 0.  0.
        -11    1    3    3    0    0 -0.26958803162E+01 -0.14552390699E+02 -0.50672689140E+02  0.52789783770E+02  0.00000000000E+00 0.  1.
         12    1    3    3    0    0 -0.35940767734E+02  0.58470752940E+01 -0.15561448439E+04  0.15565708151E+04  0.00000000000E+00 0. -1.
          1    1    1    2  501    0  0.38636648050E+02  0.87053154051E+01 -0.27261612438E+03  0.27547799252E+03  0.00000000000E+00 0. -1.
<mgrwt>
<rscale>  1 0.90437562E+02</rscale>
<asrwt>0</asrwt>
<pdfrwt beam="1">  1       21 0.41576537E-03 0.90437562E+02</pdfrwt>
<pdfrwt beam="2">  1        2 0.28955855E+00 0.90437562E+02</pdfrwt>
<totfact> 0.15909491E+06</totfact>
</mgrwt>
</event>
<event>
 6    2  0.9453093E+000  0.1403357E+03  0.7546771E-02  0.1212878E+00
         -1   -1    0    0    0  501 -0.00000000000E+00  0.00000000000E+00  0.16250283354E+03  0.16250283354E+03  0.00000000000E+00 0.  1.
         21   -1    0    0  501  502  0.00000000000E+00 -0.00000000000E+00 -0.10428517571E+03  0.10428517571E+03  0.00000000000E+00 0.  1.
         24    2    1    2    0    0 -0.94599482851E+02  0.66441623663E+02  0.56197176635E+02  0.15116952519E+03  0.79564760879E+02 0.  0.
        -11    1    3    3    0    0 -0.10766768329E+03  0.65610217593E+02  0.44788905160E+02  0.13380237929E+03  0.00000000000E+00 0.  1.
         12    1    3    3    0    0  0.13068200438E+02  0.83140607049E+00  0.11408271475E+02  0.17367145903E+02  0.00000000000E+00 0. -1.
         -2    1    1    2    0  502  0.94599482851E+02 -0.66441623663E+02  0.20204811992E+01  0.11561848405E+03  0.00000000000E+00 0.  1.
<mgrwt>
<rscale>  1 0.14033568E+03</rscale>
<asrwt>0</asrwt>
<pdfrwt beam="1">  1       21 0.16043873E-01 0.14033568E+03</pdfrwt>
<pdfrwt beam="2">  1       -1 0.25000436E-01 0.14033568E+03</pdfrwt>
<totfact> 0.43703618E+04</totfact>
</mgrwt>
</event>
<event>
 6    2  0.9453093E+000  0.8392667E+02  0.7546771E-02  0.1318263E+00
         21   -1    0    0  501  502  0.00000000000E+00  0.00000000000E+00  0.53124162656E+02  0.53124162656E+02  0.00000000000E+00 0. -1.
          2   -1    0    0  502    0 -0.00000000000E+00 -0.00000000000E+00 -0.14346447121E+03  0.14346447121E+03  0.00000000000E+00 0. -1.
         24    2    1    2    0    0 -0.38089035888E+01  0.19972007301E+02 -0.12842491969E+03  0.15341657777E+03  0.81426638854E+02 0.  0.
        -13    1    3    3    0    0  0.24721690763E+02 -0.91868747495E+01 -0.10073988384E+02  0.28232001413E+02  0.00000000000E+00 0.  1.
         14    1    3    3    0    0 -0.28530594352E+02  0.29158882051E+02 -0.11835093131E+03  0.12518457636E+03  0.00000000000E+00 0. -1.
          1    1    1    2  501    0  0.38089035888E+01 -0.19972007301E+02  0.38084611136E+02  0.43172056096E+02  0.00000000000E+00 0. -1.
<mgrwt>
<rscale>  1 0.83926672E+02</rscale>
<asrwt>0</asrwt>
<pdfrwt beam="1">  1       21 0.81729482E-02 0.83926672E+02</pdfrwt>
<pdfrwt beam="2">  1        2 0.22071457E-01 0.83926672E+02</pdfrwt>
<totfact> 0.33211192E+05</totfact>
</mgrwt>
</event>
<event>
 6    2  0.9453093E+000  0.8437133E+02  0.7546771E-02  0.1317085E+00
          2   -1    0    0  502    0 -0.00000000000E+00  0.00000000000E+00  0.33928063050E+03  0.33928063050E+03  0.00000000000E+00 0. -1.
         21   -1    0    0  501  502  0.00000000000E+00 -0.00000000000E+00 -0.15484111961E+02  0.15484111961E+02  0.00000000000E+00 0. -1.
         24    2    1    2    0    0  0.60454574903E+01  0.23060702593E+02  0.31961157575E+03  0.33056025308E+03  0.80933169953E+02 0.  0.
        -13    1    3    3    0    0 -0.25576700079E+02  0.36812731976E+02  0.12225445711E+03  0.13021327546E+03  0.00000000000E+00 0.  1.
         14    1    3    3    0    0  0.31622157570E+02 -0.13752029383E+02  0.19735711864E+03  0.20034697762E+03  0.00000000000E+00 0. -1.
          1    1    1    2  501    0 -0.60454574903E+01 -0.23060702593E+02  0.41849427897E+01  0.24204489387E+02  0.00000000000E+00 0. -1.
<mgrwt>
<rscale>  1 0.84371331E+02</rscale>
<asrwt>0</asrwt>
<pdfrwt beam="1">  1       21 0.23821713E-02 0.84371331E+02</pdfrwt>
<pdfrwt beam="2">  1        2 0.52197014E-01 0.84371331E+02</pdfrwt>
<totfact> 0.10227395E+06</totfact>
</mgrwt>
</event>
<event>
 6    2  0.9453093E+000  0.8258488E+02  0.7546771E-02  0.1321872E+00
         21   -1    0    0  501  502  0.00000000000E+00  0.00000000000E+00  0.26610413075E+02  0.26610413075E+02  0.00000000000E+00 0. -1.
          2   -1    0    0  502    0 -0.00000000000E+00 -0.00000000000E+00 -0.41069392850E+03  0.41069392850E+03  0.00000000000E+00 0. -1.
         24    2    1    2    0    0 -0.21079146994E+02  0.17235845727E+02 -0.39817229538E+03  0.40664657688E+03  0.77967024202E+02 0.  0.
        -13    1    3    3    0    0 -0.35286855395E+02 -0.48908896067E+01 -0.82269797905E+02  0.89651562240E+02  0.00000000000E+00 0.  1.
         14    1    3    3    0    0  0.14207708401E+02  0.22126735333E+02 -0.31590249748E+03  0.31699501464E+03  0.00000000000E+00 0. -1.
          1    1    1    2  501    0  0.21079146994E+02 -0.17235845727E+02  0.14088779951E+02  0.30657764700E+02  0.00000000000E+00 0. -1.
<mgrwt>
<rscale>  1 0.82584876E+02</rscale>
<asrwt>0</asrwt>
<pdfrwt beam="1">  1       21 0.40939099E-02 0.82584876E+02</pdfrwt>
<pdfrwt beam="2">  1        2 0.63183679E-01 0.82584876E+02</pdfrwt>
<totfact> 0.34668452E+05</totfact>
</mgrwt>
</event>
<event>
 6    2  0.9453093E+000  0.8676194E+02  0.7546771E-02  0.1310888E+00
          2   -1    0    0  502    0 -0.00000000000E+00  0.00000000000E+00  0.13965611055E+04  0.13965611055E+04  0.00000000000E+00 0. -1.
         21   -1    0    0  501  502  0.00000000000E+00 -0.00000000000E+00 -0.17947224031E+02  0.17947224031E+02  0.00000000000E+00 0. -1.
         24    2    1    2    0    0 -0.11518910455E+02  0.23950745296E+02  0.13845589909E+04  0.13872747506E+04  0.82591227675E+02 0.  0.
        -13    1    3    3    0    0  0.25461663250E+02  0.37256830567E+02  0.57805074543E+03  0.57980947906E+03  0.00000000000E+00 0.  1.
         14    1    3    3    0    0 -0.36980573705E+02 -0.13306085271E+02  0.80650824544E+03  0.80746527152E+03  0.00000000000E+00 0. -1.
          1    1    1    2  501    0  0.11518910455E+02 -0.23950745296E+02 -0.59451093792E+01  0.27233578976E+02  0.00000000000E+00 0. -1.
<mgrwt>
<rscale>  1 0.86761941E+02</rscale>
<asrwt>0</asrwt>
<pdfrwt beam="1">  1       21 0.27611125E-02 0.86761941E+02</pdfrwt>
<pdfrwt beam="2">  1        2 0.21485547E+00 0.86761941E+02</pdfrwt>
<totfact> 0.14373513E+05</totfact>
</mgrwt>
</event>
<event>
 6    2  0.9453093E+000  0.1074305E+03  0.7546771E-02  0.1265403E+00
         21   -1    0    0  501  502  0.00000000000E+00  0.00000000000E+00  0.38691813206E+01  0.38691813206E+01  0.00000000000E+00 0.  1.
          2   -1    0    0  502    0 -0.00000000000E+00 -0.00000000000E+00 -0.20761603156E+04  0.20761603156E+04  0.00000000000E+00 0. -1.
         24    2    1    2    0    0  0.21255238231E+02  0.67713772969E+02 -0.13450806552E+04  0.13493640324E+04  0.80649753024E+02 0.  0.
        -13    1    3    3    0    0 -0.10737921383E+01  0.22586436329E+02 -0.76184692708E+02  0.79469538432E+02  0.00000000000E+00 0.  1.
         14    1    3    3    0    0  0.22329030369E+02  0.45127336640E+02 -0.12688959625E+04  0.12698944939E+04  0.00000000000E+00 0. -1.
          1    1    1    2  501    0 -0.21255238231E+02 -0.67713772969E+02 -0.72721047910E+03  0.73066546457E+03  0.00000000000E+00 0. -1.
<mgrwt>
<rscale>  1 0.10743055E+03</rscale>
<asrwt>0</asrwt>
<pdfrwt beam="1">  1       21 0.59526092E-03 0.10743055E+03</pdfrwt>
<pdfrwt beam="2">  1        2 0.31940807E+00 0.10743055E+03</pdfrwt>
<totfact> 0.73795144E+05</totfact>
</mgrwt>
</event>
<event>
 6    2  0.9453093E+000  0.8330563E+02  0.7546771E-02  0.1319924E+00
         -1   -1    0    0    0  501 -0.00000000000E+00  0.00000000000E+00  0.78353144571E+02  0.78353144571E+02  0.00000000000E+00 0.  1.
         21   -1    0    0  501  502  0.00000000000E+00 -0.00000000000E+00 -0.48734333044E+03  0.48734333044E+03  0.00000000000E+00 0.  1.
         24    2    1    2    0    0 -0.17099163265E+02 -0.10773160266E+02  0.55928619224E+02  0.10033861519E+03  0.80816983883E+02 0.  0.
        -13    1    3    3    0    0  0.12848937022E+02 -0.70655069401E+01  0.66703282694E+02  0.68296006421E+02  0.00000000000E+00 0.  1.
         14    1    3    3    0    0 -0.29948100287E+02 -0.37076533264E+01 -0.10774663470E+02  0.32042608772E+02  0.00000000000E+00 0. -1.
         -2    1    1    2    0  502  0.17099163265E+02  0.10773160266E+02 -0.46491880509E+03  0.46535785981E+03  0.00000000000E+00 0.  1.
<mgrwt>
<rscale>  1 0.83305626E+02</rscale>
<asrwt>0</asrwt>
<pdfrwt beam="1">  1       21 0.74975895E-01 0.83305626E+02</pdfrwt>
<pdfrwt beam="2">  1       -1 0.12054330E-01 0.83305626E+02</pdfrwt>
<totfact> 0.66242223E+03</totfact>
</mgrwt>
</event>
<event>
 6    2  0.9453093E+000  0.8228378E+02  0.7546771E-02  0.1322693E+00
         -1   -1    0    0    0  501 -0.00000000000E+00  0.00000000000E+00  0.54497215840E+03  0.54497215840E+03  0.00000000000E+00 0.  1.
         21   -1    0    0  501  502  0.00000000000E+00 -0.00000000000E+00 -0.87768830908E+01  0.87768830908E+01  0.00000000000E+00 0. -1.
         24    2    1    2    0    0 -0.14164671276E+02 -0.24485847667E+02  0.50491180006E+03  0.51157262069E+03  0.77268530116E+02 0.  0.
        -11    1    3    3    0    0 -0.32391603779E+02  0.64340884285E+01  0.38475258109E+03  0.38616727223E+03  0.00000000000E+00 0.  1.
         12    1    3    3    0    0  0.18226932503E+02 -0.30919936095E+02  0.12015921897E+03  0.12540534845E+03  0.00000000000E+00 0. -1.
         -2    1    1    2    0  502  0.14164671276E+02  0.24485847667E+02  0.31283475249E+02  0.42176420806E+02  0.00000000000E+00 0.  1.
<mgrwt>
<rscale>  1 0.82283780E+02</rscale>
<asrwt>0</asrwt>
<pdfrwt beam="1">  1       21 0.13502901E-02 0.82283780E+02</pdfrwt>
<pdfrwt beam="2">  1       -1 0.83841844E-01 0.82283780E+02</pdfrwt>
<totfact> 0.30094179E+05</totfact>
</mgrwt>
</event>
<event>
 6    2  0.9453093E+000  0.9352366E+02  0.7546771E-02  0.1294536E+00
         21   -1    0    0  501  502  0.00000000000E+00  0.00000000000E+00  0.11411744048E+03  0.11411744048E+03  0.00000000000E+00 0.  1.
         -1   -1    0    0    0  501 -0.00000000000E+00 -0.00000000000E+00 -0.66005920255E+02  0.66005920255E+02  0.00000000000E+00 0.  1.
         24    2    1    2    0    0 -0.37599435915E+02  0.29803691176E+02 -0.21132404690E+02  0.95881454735E+02  0.80278871723E+02 0.  0.
        -11    1    3    3    0    0 -0.55612706157E+02  0.42295831404E+02 -0.23770896939E+02  0.73802208514E+02  0.00000000000E+00 0.  1.
         12    1    3    3    0    0  0.18013270242E+02 -0.12492140228E+02  0.26384922487E+01  0.22079246220E+02  0.00000000000E+00 0. -1.
         -2    1    1    2    0  502  0.37599435915E+02 -0.29803691176E+02  0.69243924917E+02  0.84241906001E+02  0.00000000000E+00 0.  1.
<mgrwt>
<rscale>  1 0.93523659E+02</rscale>
<asrwt>0</asrwt>
<pdfrwt beam="1">  1       21 0.17556529E-01 0.93523659E+02</pdfrwt>
<pdfrwt beam="2">  1       -1 0.10154757E-01 0.93523659E+02</pdfrwt>
<totfact> 0.14977484E+05</totfact>
</mgrwt>
</event>
<event>
 6    2  0.9453093E+000  0.8618298E+02  0.7546771E-02  0.1312368E+00
         21   -1    0    0  501  502  0.00000000000E+00  0.00000000000E+00  0.42885200345E+03  0.42885200345E+03  0.00000000000E+00 0.  1.
          2   -1    0    0  502    0 -0.00000000000E+00 -0.00000000000E+00 -0.83551442617E+01  0.83551442617E+01  0.00000000000E+00 0. -1.
         24    2    1    2    0    0  0.26898561375E+02 -0.17258925606E+02  0.33574115640E+03  0.34662606651E+03  0.80038133186E+02 0.  0.
        -13    1    3    3    0    0  0.23893108096E+02 -0.48860504275E+02  0.20630555412E+03  0.21335466049E+03  0.00000000000E+00 0.  1.
         14    1    3    3    0    0  0.30054532796E+01  0.31601578669E+02  0.12943560228E+03  0.13327140601E+03  0.00000000000E+00 0. -1.
          1    1    1    2  501    0 -0.26898561375E+02  0.17258925606E+02  0.84755702785E+02  0.90581081202E+02  0.00000000000E+00 0. -1.
<mgrwt>
<rscale>  1 0.86182979E+02</rscale>
<asrwt>0</asrwt>
<pdfrwt beam="1">  1       21 0.65977214E-01 0.86182979E+02</pdfrwt>
<pdfrwt beam="2">  1        2 0.12854071E-02 0.86182979E+02</pdfrwt>
<totfact> 0.23988462E+05</totfact>
</mgrwt>
</event>
<event>
 6    2  0.9453093E+000  0.1236854E+03  0.7546771E-02  0.1237138E+00
          2   -1    0    0  502    0 -0.00000000000E+00  0.00000000000E+00  0.27938569665E+04  0.27938569665E+04  0.00000000000E+00 0. -1.
         21   -1    0    0  501  502  0.00000000000E+00 -0.00000000000E+00 -0.77069410021E+01  0.77069410021E+01  0.00000000000E+00 0. -1.
         24    2    1    2    0    0  0.63615277148E+02  0.62067760060E+02  0.24717538980E+04  0.24748465445E+04  0.86016138169E+02 0.  0.
        -13    1    3    3    0    0  0.89779248811E+01 -0.21014644965E+02  0.33371763563E+03  0.33449914614E+03  0.00000000000E+00 0.  1.
         14    1    3    3    0    0  0.54637352267E+02  0.83082405025E+02  0.21380362624E+04  0.21403473984E+04  0.00000000000E+00 0. -1.
          1    1    1    2  501    0 -0.63615277148E+02 -0.62067760060E+02  0.31439612744E+03  0.32671736298E+03  0.00000000000E+00 0. -1.
<mgrwt>
<rscale>  1 0.12368543E+03</rscale>
<asrwt>0</asrwt>
<pdfrwt beam="1">  1       21 0.11856855E-02 0.12368543E+03</pdfrwt>
<pdfrwt beam="2">  1        2 0.42982334E+00 0.12368543E+03</pdfrwt>
<totfact> 0.10498095E+05</totfact>
</mgrwt>
</event>
<event>
 6    2  0.9453093E+000  0.8365395E+02  0.7546771E-02  0.1318991E+00
         21   -1    0    0  501  502  0.00000000000E+00  0.00000000000E+00  0.14499754456E+02  0.14499754456E+02  0.00000000000E+00 0.  1.
         -1   -1    0    0    0  501 -0.00000000000E+00 -0.00000000000E+00 -0.28617166922E+03  0.28617166922E+03  0.00000000000E+00 0.  1.
         24    2    1    2    0    0  0.19736695765E+02 -0.96145399370E+01 -0.11357598056E+03  0.14105845130E+03  0.80721786314E+02 0.  0.
        -11    1    3    3    0    0  0.14481395851E+02 -0.45245345392E+02 -0.68488786977E+02  0.83352060844E+02  0.00000000000E+00 0.  1.
         12    1    3    3    0    0  0.52552999141E+01  0.35630805455E+02 -0.45087193579E+02  0.57706390455E+02  0.00000000000E+00 0. -1.
         -2    1    1    2    0  502 -0.19736695765E+02  0.96145399370E+01 -0.15809593421E+03  0.15961297238E+03  0.00000000000E+00 0.  1.
<mgrwt>
<rscale>  1 0.83653950E+02</rscale>
<asrwt>0</asrwt>
<pdfrwt beam="1">  1       21 0.22307315E-02 0.83653950E+02</pdfrwt>
<pdfrwt beam="2">  1       -1 0.44026409E-01 0.83653950E+02</pdfrwt>
<totfact> 0.45826438E+05</totfact>
</mgrwt>
</event>
<event>
 6    2  0.9453093E+000  0.9575999E+02  0.7546771E-02  0.1289474E+00
         21   -1    0    0  501  502  0.00000000000E+00  0.00000000000E+00  0.35596334512E+01  0.35596334512E+01  0.00000000000E+00 0.  1.
          2   -1    0    0  502    0 -0.00000000000E+00 -0.00000000000E+00 -0.15798881189E+04  0.15798881189E+04  0.00000000000E+00 0. -1.
         24    2    1    2    0    0  0.12709791519E+02 -0.51306782888E+02 -0.90937813863E+03  0.91440613191E+03  0.79850173900E+02 0.  0.
        -11    1    3    3    0    0 -0.28886906716E+02 -0.30808059268E+02 -0.26326132382E+03  0.26662729515E+03  0.00000000000E+00 0.  1.
         12    1    3    3    0    0  0.41596698235E+02 -0.20498723620E+02 -0.64611681481E+03  0.64777883676E+03  0.00000000000E+00 0. -1.
          1    1    1    2  501    0 -0.12709791519E+02  0.51306782888E+02 -0.66695034677E+03  0.66904162040E+03  0.00000000000E+00 0. -1.
<mgrwt>
<rscale>  1 0.95759987E+02</rscale>
<asrwt>0</asrwt>
<pdfrwt beam="1">  1       21 0.54763628E-03 0.95759987E+02</pdfrwt>
<pdfrwt beam="2">  1        2 0.24305955E+00 0.95759987E+02</pdfrwt>
<totfact> 0.14864108E+06</totfact>
</mgrwt>
</event>
<event>
 6    2  0.9453093E+000  0.8405654E+02  0.7546771E-02  0.1317918E+00
         21   -1    0    0  501  502  0.00000000000E+00  0.00000000000E+00  0.54031595041E+01  0.54031595041E+01  0.00000000000E+00 0. -1.
         -3   -1    0    0    0  501 -0.00000000000E+00 -0.00000000000E+00 -0.73215470072E+03  0.73215470072E+03  0.00000000000E+00 0.  1.
         24    2    1    2    0    0 -0.30339626555E+01  0.26741743238E+02 -0.66371339200E+03  0.66901492465E+03  0.79631507085E+02 0.  0.
        -13    1    3    3    0    0  0.12393708698E+02  0.42158797580E+02 -0.60124141102E+03  0.60284509001E+03  0.00000000000E+00 0.  1.
         14    1    3    3    0    0 -0.15427671353E+02 -0.15417054342E+02 -0.62471980989E+02  0.66169834643E+02  0.00000000000E+00 0. -1.
         -4    1    1    2    0  502  0.30339626555E+01 -0.26741743238E+02 -0.63038149211E+02  0.68542935571E+02  0.00000000000E+00 0.  1.
<mgrwt>
<rscale>  1 0.84056545E+02</rscale>
<asrwt>0</asrwt>
<pdfrwt beam="1">  1       21 0.83125535E-03 0.84056545E+02</pdfrwt>
<pdfrwt beam="2">  1       -3 0.11263918E+00 0.84056545E+02</pdfrwt>
<totfact> 0.15318670E+05</totfact>
</mgrwt>
</event>
<event>
 6    2  0.9453093E+000  0.9304044E+02  0.7546771E-02  0.1295651E+00
         21   -1    0    0  501  502  0.00000000000E+00  0.00000000000E+00  0.42662448277E+03  0.42662448277E+03  0.00000000000E+00 0. -1.
          4   -1    0    0  502    0 -0.00000000000E+00 -0.00000000000E+00 -0.13752390512E+02  0.13752390512E+02  0.00000000000E+00 0. -1.
         24    2    1    2    0    0  0.46353678059E+02 -0.24737917399E+02  0.32440439912E+03  0.33748294364E+03  0.76784731926E+02 0.  0.
        -13    1    3    3    0    0 -0.16395681725E+02 -0.80998050440E+01  0.15484466819E+03  0.15592080197E+03  0.00000000000E+00 0.  1.
         14    1    3    3    0    0  0.62749359784E+02 -0.16638112355E+02  0.16955973093E+03  0.18156214167E+03  0.00000000000E+00 0. -1.
          3    1    1    2  501    0 -0.46353678059E+02  0.24737917399E+02  0.88467693142E+02  0.10289392964E+03  0.00000000000E+00 0. -1.
<mgrwt>
<rscale>  1 0.93040438E+02</rscale>
<asrwt>0</asrwt>
<pdfrwt beam="1">  1       21 0.65634526E-01 0.93040438E+02</pdfrwt>
<pdfrwt beam="2">  1        4 0.21157527E-02 0.93040438E+02</pdfrwt>
<totfact> 0.77272477E+04</totfact>
</mgrwt>
</event>
<event>
 6    2  0.9453093E+000  0.8461580E+02  0.7546771E-02  0.1316440E+00
         21   -1    0    0  501  502  0.00000000000E+00  0.00000000000E+00  0.48463641812E+02  0.48463641812E+02  0.00000000000E+00 0. -1.
         -1   -1    0    0    0  501 -0.00000000000E+00 -0.00000000000E+00 -0.73646442339E+02  0.73646442339E+02  0.00000000000E+00 0.  1.
         24    2    1    2    0    0 -0.33245328505E+02  0.56135846697E+01 -0.25560097257E+02  0.88392039233E+02  0.77608439153E+02 0.  0.
        -13    1    3    3    0    0 -0.46231065556E+02 -0.83474880119E+00 -0.44745660688E+02  0.64344248993E+02  0.00000000000E+00 0.  1.
         14    1    3    3    0    0  0.12985737051E+02  0.64483334709E+01  0.19185563431E+02  0.24047790241E+02  0.00000000000E+00 0. -1.
         -2    1    1    2    0  502  0.33245328505E+02 -0.56135846697E+01  0.37729672997E+00  0.33718044918E+02  0.00000000000E+00 0.  1.
<mgrwt>
<rscale>  1 0.84615802E+02</rscale>
<asrwt>0</asrwt>
<pdfrwt beam="1">  1       21 0.74559449E-02 0.84615802E+02</pdfrwt>
<pdfrwt beam="2">  1       -1 0.11330222E-01 0.84615802E+02</pdfrwt>
<totfact> 0.56260683E+05</totfact>
</mgrwt>
</event>
<event>
 6    2  0.9453093E+000  0.8424541E+02  0.7546771E-02  0.1317418E+00
         -1   -1    0    0    0  501 -0.00000000000E+00  0.00000000000E+00  0.31879887109E+03  0.31879887109E+03  0.00000000000E+00 0.  1.
         21   -1    0    0  501  502  0.00000000000E+00 -0.00000000000E+00 -0.12467337286E+02  0.12467337286E+02  0.00000000000E+00 0. -1.
         24    2    1    2    0    0 -0.12715539047E+02  0.20501098936E+02  0.29035861295E+03  0.30233328264E+03  0.80717468300E+02 0.  0.
        -11    1    3    3    0    0  0.94642503802E+01 -0.18453549391E+02  0.20383369984E+03  0.20488602371E+03  0.00000000000E+00 0.  1.
         12    1    3    3    0    0 -0.22179789427E+02  0.38954648327E+02  0.86524913108E+02  0.97447258934E+02  0.00000000000E+00 0. -1.
         -2    1    1    2    0  502  0.12715539047E+02 -0.20501098936E+02  0.15972920852E+02  0.28932925731E+02  0.00000000000E+00 0.  1.
<mgrwt>
<rscale>  1 0.84245413E+02</rscale>
<asrwt>0</asrwt>
<pdfrwt beam="1">  1       21 0.19180521E-02 0.84245413E+02</pdfrwt>
<pdfrwt beam="2">  1       -1 0.49045974E-01 0.84245413E+02</pdfrwt>
<totfact> 0.48191391E+05</totfact>
</mgrwt>
</event>
<event>
 6    2  0.9453093E+000  0.8405101E+02  0.7546771E-02  0.1317933E+00
         21   -1    0    0  501  502  0.00000000000E+00  0.00000000000E+00  0.33420178895E+02  0.33420178895E+02  0.00000000000E+00 0.  1.
          2   -1    0    0  502    0 -0.00000000000E+00 -0.00000000000E+00 -0.26976439458E+03  0.26976439458E+03  0.00000000000E+00 0. -1.
         24    2    1    2    0    0  0.13656942647E+02  0.25848229191E+02 -0.22036070197E+02  0.86891660375E+02  0.78803104116E+02 0.  0.
        -11    1    3    3    0    0  0.69550058290E+01 -0.26996388736E+02  0.29900834975E+01  0.28037790751E+02  0.00000000000E+00 0.  1.
         12    1    3    3    0    0  0.67019368177E+01  0.52844617927E+02 -0.25026153695E+02  0.58853869624E+02  0.00000000000E+00 0. -1.
          1    1    1    2  501    0 -0.13656942647E+02 -0.25848229191E+02 -0.21430814549E+03  0.21629291310E+03  0.00000000000E+00 0. -1.
<mgrwt>
<rscale>  1 0.84051010E+02</rscale>
<asrwt>0</asrwt>
<pdfrwt beam="1">  1       21 0.51415657E-02 0.84051010E+02</pdfrwt>
<pdfrwt beam="2">  1        2 0.41502217E-01 0.84051010E+02</pdfrwt>
<totfact> 0.36932317E+05</totfact>
</mgrwt>
</event>
<event>
 6    2  0.9453093E+000  0.8401692E+02  0.7546771E-02  0.1318024E+00
         21   -1    0    0  501  502  0.00000000000E+00  0.00000000000E+00  0.14803451695E+01  0.14803451695E+01  0.00000000000E+00 0.  1.
          2   -1    0    0  502    0 -0.00000000000E+00 -0.00000000000E+00 -0.21927215819E+04  0.21927215819E+04  0.00000000000E+00 0. -1.
         24    2    1    2    0    0  0.68308613934E+01  0.23726661023E+02 -0.19205981090E+04  0.19224348987E+04  0.80307088160E+02 0.  0.
        -11    1    3    3    0    0  0.47040321019E+01  0.49483997270E+02 -0.80240125892E+03  0.80393940954E+03  0.00000000000E+00 0.  1.
         12    1    3    3    0    0  0.21268292915E+01 -0.25757336247E+02 -0.11181968501E+04  0.11184954892E+04  0.00000000000E+00 0. -1.
          1    1    1    2  501    0 -0.68308613934E+01 -0.23726661023E+02 -0.27064312778E+03  0.27176702840E+03  0.00000000000E+00 0. -1.
<mgrwt>
<rscale>  1 0.84016924E+02</rscale>
<asrwt>0</asrwt>
<pdfrwt beam="1">  1       21 0.22774548E-03 0.84016924E+02</pdfrwt>
<pdfrwt beam="2">  1        2 0.33734168E+00 0.84016924E+02</pdfrwt>
<totfact> 0.27462169E+06</totfact>
</mgrwt>
</event>
<event>
 6    2  0.9453093E+000  0.8073077E+02  0.7546771E-02  0.1326990E+00
         21   -1    0    0  501  502  0.00000000000E+00  0.00000000000E+00  0.85865421580E+01  0.85865421580E+01  0.00000000000E+00 0.  1.
          2   -1    0    0  502    0 -0.00000000000E+00 -0.00000000000E+00 -0.30508681952E+03  0.30508681952E+03  0.00000000000E+00 0. -1.
         24    2    1    2    0    0 -0.19269538646E+02 -0.83888413858E+01 -0.22023645466E+03  0.23456673470E+03  0.77947221151E+02 0.  0.
        -11    1    3    3    0    0 -0.13504726903E+02 -0.32843584835E+02 -0.19754534589E+03  0.20071183921E+03  0.00000000000E+00 0.  1.
         12    1    3    3    0    0 -0.57648117430E+01  0.24454743449E+02 -0.22691108770E+02  0.33854895492E+02  0.00000000000E+00 0. -1.
          1    1    1    2  501    0  0.19269538646E+02  0.83888413858E+01 -0.76263822701E+02  0.79106626981E+02  0.00000000000E+00 0. -1.
<mgrwt>
<rscale>  1 0.80730769E+02</rscale>
<asrwt>0</asrwt>
<pdfrwt beam="1">  1       21 0.13210063E-02 0.80730769E+02</pdfrwt>
<pdfrwt beam="2">  1        2 0.46936441E-01 0.80730769E+02</pdfrwt>
<totfact> 0.29008550E+06</totfact>
</mgrwt>
</event>
<event>
 6    2  0.9453093E+000  0.1048548E+03  0.7546771E-02  0.1270406E+00
         21   -1    0    0  501  502  0.00000000000E+00  0.00000000000E+00  0.10998688921E+04  0.10998688921E+04  0.00000000000E+00 0.  1.
         -3   -1    0    0    0  501 -0.00000000000E+00 -0.00000000000E+00 -0.82685828499E+01  0.82685828499E+01  0.00000000000E+00 0.  1.
         24    2    1    2    0    0  0.41722417574E+02 -0.52915014032E+02  0.40929126716E+03  0.42250901305E+03  0.80335334091E+02 0.  0.
        -11    1    3    3    0    0  0.48569226173E+02 -0.45653564751E+02  0.16419356109E+03  0.17720819171E+03  0.00000000000E+00 0.  1.
         12    1    3    3    0    0 -0.68468085984E+01 -0.72614492815E+01  0.24509770607E+03  0.24530082134E+03  0.00000000000E+00 0. -1.
         -4    1    1    2    0  502 -0.41722417574E+02  0.52915014032E+02  0.68230904211E+03  0.68562846191E+03  0.00000000000E+00 0.  1.
<mgrwt>
<rscale>  1 0.10485478E+03</rscale>
<asrwt>0</asrwt>
<pdfrwt beam="1">  1       21 0.16921048E+00 0.10485478E+03</pdfrwt>
<pdfrwt beam="2">  1       -3 0.12720905E-02 0.10485478E+03</pdfrwt>
<totfact> 0.19873500E+04</totfact>
</mgrwt>
</event>
<event>
 6    2  0.9453093E+000  0.8112705E+02  0.7546771E-02  0.1325883E+00
         21   -1    0    0  501  502  0.00000000000E+00  0.00000000000E+00  0.43211251785E+02  0.43211251785E+02  0.00000000000E+00 0. -1.
          2   -1    0    0  502    0 -0.00000000000E+00 -0.00000000000E+00 -0.12168895990E+03  0.12168895990E+03  0.00000000000E+00 0. -1.
         24    2    1    2    0    0 -0.26778632556E+02 -0.12555887477E+02 -0.99671394001E+02  0.12851453053E+03  0.75543711217E+02 0.  0.
        -11    1    3    3    0    0 -0.24869200860E+02  0.15875238754E+02 -0.53532984587E+01  0.29985966072E+02  0.00000000000E+00 0.  1.
         12    1    3    3    0    0 -0.19094316957E+01 -0.28431126231E+02 -0.94318095542E+02  0.98528564462E+02  0.00000000000E+00 0. -1.
          1    1    1    2  501    0  0.26778632556E+02  0.12555887477E+02  0.21193685882E+02  0.36385681155E+02  0.00000000000E+00 0. -1.
<mgrwt>
<rscale>  1 0.81127047E+02</rscale>
<asrwt>0</asrwt>
<pdfrwt beam="1">  1       21 0.66478849E-02 0.81127047E+02</pdfrwt>
<pdfrwt beam="2">  1        2 0.18721378E-01 0.81127047E+02</pdfrwt>
<totfact> 0.56425458E+05</totfact>
</mgrwt>
</event>
<event>
 6    2  0.9453093E+000  0.8471320E+02  0.7546771E-02  0.1316184E+00
         21   -1    0    0  501  502  0.00000000000E+00  0.00000000000E+00  0.11400234215E+02  0.11400234215E+02  0.00000000000E+00 0. -1.
         -3   -1    0    0    0  501 -0.00000000000E+00 -0.00000000000E+00 -0.44935337394E+03  0.44935337394E+03  0.00000000000E+00 0.  1.
         24    2    1    2    0    0  0.11010283577E+02 -0.24406713866E+02 -0.42013758162E+03  0.42859294684E+03  0.80370470689E+02 0.  0.
        -13    1    3    3    0    0  0.17948853021E+02  0.18924081157E+02 -0.29173722778E+03  0.29290082322E+03  0.00000000000E+00 0.  1.
         14    1    3    3    0    0 -0.69385694439E+01 -0.43330795023E+02 -0.12840035384E+03  0.13569212361E+03  0.00000000000E+00 0. -1.
         -4    1    1    2    0  502 -0.11010283577E+02  0.24406713866E+02 -0.17815558107E+02  0.32160661325E+02  0.00000000000E+00 0.  1.
<mgrwt>
<rscale>  1 0.84713202E+02</rscale>
<asrwt>0</asrwt>
<pdfrwt beam="1">  1       21 0.17538822E-02 0.84713202E+02</pdfrwt>
<pdfrwt beam="2">  1       -3 0.69131289E-01 0.84713202E+02</pdfrwt>
<totfact> 0.13838107E+05</totfact>
</mgrwt>
</event>
<event>
 6    2  0.9453093E+000  0.8598744E+02  0.7546771E-02  0.1312870E+00
         -1   -1    0    0    0  501 -0.00000000000E+00  0.00000000000E+00  0.97550960228E+01  0.97550960228E+01  0.00000000000E+00 0.  1.
         21   -1    0    0  501  502  0.00000000000E+00 -0.00000000000E+00 -0.36052110684E+03  0.36052110684E+03  0.00000000000E+00 0.  1.
         24    2    1    2    0    0 -0.17271215801E+02 -0.23008872941E+02 -0.21626047192E+03  0.23272823624E+03  0.81031704271E+02 0.  0.
        -11    1    3    3    0    0 -0.35117760966E+02 -0.44193688517E+02 -0.16607109960E+03  0.17540225016E+03  0.00000000000E+00 0.  1.
         12    1    3    3    0    0  0.17846545165E+02  0.21184815576E+02 -0.50189372324E+02  0.57325986076E+02  0.00000000000E+00 0. -1.
         -2    1    1    2    0  502  0.17271215801E+02  0.23008872941E+02 -0.13450553890E+03  0.13754796663E+03  0.00000000000E+00 0.  1.
<mgrwt>
<rscale>  1 0.85987442E+02</rscale>
<asrwt>0</asrwt>
<pdfrwt beam="1">  1       21 0.55464791E-01 0.85987442E+02</pdfrwt>
<pdfrwt beam="2">  1       -1 0.15007838E-02 0.85987442E+02</pdfrwt>
<totfact> 0.26230880E+05</totfact>
</mgrwt>
</event>
<event>
 6    2  0.9453093E+000  0.8111601E+02  0.7546771E-02  0.1325914E+00
          2   -1    0    0  502    0 -0.00000000000E+00  0.00000000000E+00  0.12149487616E+04  0.12149487616E+04  0.00000000000E+00 0. -1.
         21   -1    0    0  501  502  0.00000000000E+00 -0.00000000000E+00 -0.34492685669E+01  0.34492685669E+01  0.00000000000E+00 0.  1.
         24    2    1    2    0    0  0.21052700620E+02 -0.68396331152E+01  0.49861888434E+03  0.50517383047E+03  0.78037237171E+02 0.  0.
        -11    1    3    3    0    0  0.10893866336E+02 -0.23732740542E+02  0.52657214722E+02  0.58776709330E+02  0.00000000000E+00 0.  1.
         12    1    3    3    0    0  0.10158834284E+02  0.16893107426E+02  0.44596166962E+03  0.44639712114E+03  0.00000000000E+00 0. -1.
          1    1    1    2  501    0 -0.21052700620E+02  0.68396331152E+01  0.71288060873E+03  0.71322419973E+03  0.00000000000E+00 0. -1.
<mgrwt>
<rscale>  1 0.81116011E+02</rscale>
<asrwt>0</asrwt>
<pdfrwt beam="1">  1       21 0.53065767E-03 0.81116011E+02</pdfrwt>
<pdfrwt beam="2">  1        2 0.18691485E+00 0.81116011E+02</pdfrwt>
<totfact> 0.23814843E+06</totfact>
</mgrwt>
</event>
<event>
 6    2  0.9453093E+000  0.8512607E+02  0.7546771E-02  0.1315103E+00
         21   -1    0    0  501  502  0.00000000000E+00  0.00000000000E+00  0.24953409016E+02  0.24953409016E+02  0.00000000000E+00 0.  1.
          2   -1    0    0  502    0 -0.00000000000E+00 -0.00000000000E+00 -0.14573614125E+03  0.14573614125E+03  0.00000000000E+00 0. -1.
         24    2    1    2    0    0 -0.26579013319E+02  0.89516562778E+01 -0.61219035555E+02  0.10485331358E+03  0.80373322407E+02 0.  0.
        -11    1    3    3    0    0 -0.80341478231E+01  0.44382367465E+02 -0.33877538713E+02  0.56409482379E+02  0.00000000000E+00 0.  1.
         12    1    3    3    0    0 -0.18544865496E+02 -0.35430711188E+02 -0.27341496843E+02  0.48443831198E+02  0.00000000000E+00 0. -1.
          1    1    1    2  501    0  0.26579013319E+02 -0.89516562778E+01 -0.59563696677E+02  0.65836236686E+02  0.00000000000E+00 0. -1.
<mgrwt>
<rscale>  1 0.85126066E+02</rscale>
<asrwt>0</asrwt>
<pdfrwt beam="1">  1       21 0.38389860E-02 0.85126066E+02</pdfrwt>
<pdfrwt beam="2">  1        2 0.22420945E-01 0.85126066E+02</pdfrwt>
<totfact> 0.11562685E+06</totfact>
</mgrwt>
</event>
<event>
 6    2  0.9453093E+000  0.8187489E+02  0.7546771E-02  0.1323813E+00
         -1   -1    0    0    0  501 -0.00000000000E+00  0.00000000000E+00  0.23839566532E+03  0.23839566532E+03  0.00000000000E+00 0.  1.
         21   -1    0    0  501  502  0.00000000000E+00 -0.00000000000E+00 -0.11830408399E+02  0.11830408399E+02  0.00000000000E+00 0. -1.
         24    2    1    2    0    0 -0.11347396136E+02  0.17515555522E+02  0.20218232640E+03  0.21813113042E+03  0.79170315569E+02 0.  0.
        -13    1    3    3    0    0 -0.36915414168E+02 -0.14255799367E+02  0.12054742192E+03  0.12687654059E+03  0.00000000000E+00 0.  1.
         14    1    3    3    0    0  0.25568018032E+02  0.31771354889E+02  0.81634904474E+02  0.91254589835E+02  0.00000000000E+00 0. -1.
         -2    1    1    2    0  502  0.11347396136E+02 -0.17515555522E+02  0.24382930524E+02  0.32094943297E+02  0.00000000000E+00 0.  1.
<mgrwt>
<rscale>  1 0.81874886E+02</rscale>
<asrwt>0</asrwt>
<pdfrwt beam="1">  1       21 0.18200630E-02 0.81874886E+02</pdfrwt>
<pdfrwt beam="2">  1       -1 0.36676253E-01 0.81874886E+02</pdfrwt>
<totfact> 0.86791291E+05</totfact>
</mgrwt>
</event>
<event>
 6    2  0.9453093E+000  0.8823068E+02  0.7546771E-02  0.1307194E+00
         -1   -1    0    0    0  501 -0.00000000000E+00  0.00000000000E+00  0.10438965879E+03  0.10438965879E+03  0.00000000000E+00 0.  1.
         21   -1    0    0  501  502  0.00000000000E+00 -0.00000000000E+00 -0.40940470402E+02  0.40940470402E+02  0.00000000000E+00 0.  1.
         24    2    1    2    0    0 -0.31431230035E+02 -0.72946283085E+01  0.69729219853E+02  0.11245806478E+03  0.82118928449E+02 0.  0.
        -13    1    3    3    0    0 -0.56024826779E+02  0.84755347639E+01  0.57680031611E+02  0.80855438604E+02  0.00000000000E+00 0.  1.
         14    1    3    3    0    0  0.24593596744E+02 -0.15770163072E+02  0.12049188242E+02  0.31602626179E+02  0.00000000000E+00 0. -1.
         -2    1    1    2    0  502  0.31431230035E+02  0.72946283085E+01 -0.62800314599E+01  0.32872064414E+02  0.00000000000E+00 0.  1.
<mgrwt>
<rscale>  1 0.88230676E+02</rscale>
<asrwt>0</asrwt>
<pdfrwt beam="1">  1       21 0.62985339E-02 0.88230676E+02</pdfrwt>
<pdfrwt beam="2">  1       -1 0.16059947E-01 0.88230676E+02</pdfrwt>
<totfact> 0.43984028E+05</totfact>
</mgrwt>
</event>
<event>
 6    2  0.9453093E+000  0.8779326E+02  0.7546771E-02  0.1308285E+00
         21   -1    0    0  501  502  0.00000000000E+00  0.00000000000E+00  0.98270962506E+03  0.98270962506E+03  0.00000000000E+00 0.  1.
          2   -1    0    0  502    0 -0.00000000000E+00 -0.00000000000E+00 -0.10904082364E+02  0.10904082364E+02  0.00000000000E+00 0. -1.
         24    2    1    2    0    0  0.33771770925E+02 -0.77044807698E+01  0.94687312805E+03  0.95093447553E+03  0.80670717001E+02 0.  0.
        -13    1    3    3    0    0  0.18867893837E+02  0.19044403532E+02  0.81927997235E+03  0.81971846375E+03  0.00000000000E+00 0.  1.
         14    1    3    3    0    0  0.14903877088E+02 -0.26748884301E+02  0.12759315571E+03  0.13121601178E+03  0.00000000000E+00 0. -1.
          1    1    1    2  501    0 -0.33771770925E+02  0.77044807698E+01  0.24932414643E+02  0.42679231896E+02  0.00000000000E+00 0. -1.
<mgrwt>
<rscale>  1 0.87793258E+02</rscale>
<asrwt>0</asrwt>
<pdfrwt beam="1">  1       21 0.15118603E+00 0.87793258E+02</pdfrwt>
<pdfrwt beam="2">  1        2 0.16775519E-02 0.87793258E+02</pdfrwt>
<totfact> 0.24460440E+04</totfact>
</mgrwt>
</event>
<event>
 6    2  0.9453093E+000  0.1102010E+03  0.7546771E-02  0.1260198E+00
         21   -1    0    0  501  502  0.00000000000E+00  0.00000000000E+00  0.23337660599E+02  0.23337660599E+02  0.00000000000E+00 0. -1.
          2   -1    0    0  502    0 -0.00000000000E+00 -0.00000000000E+00 -0.12660302105E+04  0.12660302105E+04  0.00000000000E+00 0. -1.
         24    2    1    2    0    0 -0.71047278953E+02  0.22982567056E+02 -0.11964978185E+04  0.12015620202E+04  0.81045323940E+02 0.  0.
        -13    1    3    3    0    0  0.17313989801E+02  0.31664325286E+01 -0.29586171272E+03  0.29638480661E+03  0.00000000000E+00 0.  1.
         14    1    3    3    0    0 -0.88361268754E+02  0.19816134527E+02 -0.90063610578E+03  0.90517721361E+03  0.00000000000E+00 0. -1.
          1    1    1    2  501    0  0.71047278953E+02 -0.22982567056E+02 -0.46194731357E+02  0.87805850831E+02  0.00000000000E+00 0. -1.
<mgrwt>
<rscale>  1 0.11020099E+03</rscale>
<asrwt>0</asrwt>
<pdfrwt beam="1">  1       21 0.35904096E-02 0.11020099E+03</pdfrwt>
<pdfrwt beam="2">  1        2 0.19477387E+00 0.11020099E+03</pdfrwt>
<totfact> 0.11007693E+05</totfact>
</mgrwt>
</event>
<event>
 6    2  0.9453093E+000  0.8358186E+02  0.7546771E-02  0.1319183E+00
         21   -1    0    0  501  502  0.00000000000E+00  0.00000000000E+00  0.84349844963E+02  0.84349844963E+02  0.00000000000E+00 0.  1.
         -1   -1    0    0    0  501 -0.00000000000E+00 -0.00000000000E+00 -0.21291318106E+03  0.21291318106E+03  0.00000000000E+00 0.  1.
         24    2    1    2    0    0  0.23838518011E+02 -0.36438756421E+01 -0.20272492228E+03  0.21927909412E+03  0.80027334299E+02 0.  0.
        -11    1    3    3    0    0  0.35836160268E+02 -0.23004898916E+02 -0.53759222593E+02  0.68582138860E+02  0.00000000000E+00 0.  1.
         12    1    3    3    0    0 -0.11997642257E+02  0.19361023274E+02 -0.14896569969E+03  0.15069695526E+03  0.00000000000E+00 0. -1.
         -2    1    1    2    0  502 -0.23838518011E+02  0.36438756421E+01  0.74161586179E+02  0.77983931904E+02  0.00000000000E+00 0.  1.
<mgrwt>
<rscale>  1 0.83581858E+02</rscale>
<asrwt>0</asrwt>
<pdfrwt beam="1">  1       21 0.12976899E-01 0.83581858E+02</pdfrwt>
<pdfrwt beam="2">  1       -1 0.32755874E-01 0.83581858E+02</pdfrwt>
<totfact> 0.40080174E+04</totfact>
</mgrwt>
</event>
<event>
 6    2  0.9453093E+000  0.8470246E+02  0.7546771E-02  0.1316212E+00
         -3   -1    0    0    0  501 -0.00000000000E+00  0.00000000000E+00  0.16821981232E+03  0.16821981232E+03  0.00000000000E+00 0.  1.
         21   -1    0    0  501  502  0.00000000000E+00 -0.00000000000E+00 -0.19147631800E+02  0.19147631800E+02  0.00000000000E+00 0. -1.
         24    2    1    2    0    0  0.27194754877E+02  0.79140704514E+01  0.11889029567E+03  0.14597742870E+03  0.79826813039E+02 0.  0.
        -11    1    3    3    0    0  0.40952090605E+02  0.35120833779E+02  0.70308571247E+02  0.88621904071E+02  0.00000000000E+00 0.  1.
         12    1    3    3    0    0 -0.13757335728E+02 -0.27206763327E+02  0.48581724424E+02  0.57355524626E+02  0.00000000000E+00 0. -1.
         -4    1    1    2    0  502 -0.27194754877E+02 -0.79140704514E+01  0.30181884853E+02  0.41390015429E+02  0.00000000000E+00 0.  1.
<mgrwt>
<rscale>  1 0.84702463E+02</rscale>
<asrwt>0</asrwt>
<pdfrwt beam="1">  1       21 0.29457896E-02 0.84702463E+02</pdfrwt>
<pdfrwt beam="2">  1       -3 0.25879970E-01 0.84702463E+02</pdfrwt>
<totfact> 0.40053420E+05</totfact>
</mgrwt>
</event>
<event>
 6    2  0.9453093E+000  0.1119101E+03  0.7546771E-02  0.1257073E+00
          2   -1    0    0  502    0 -0.00000000000E+00  0.00000000000E+00  0.12919476187E+04  0.12919476187E+04  0.00000000000E+00 0. -1.
         21   -1    0    0  501  502  0.00000000000E+00 -0.00000000000E+00 -0.76454102659E+01  0.76454102659E+01  0.00000000000E+00 0. -1.
         24    2    1    2    0    0  0.14812806986E+02  0.76181169411E+02  0.55480122990E+03  0.56597550771E+03  0.80628039762E+02 0.  0.
        -13    1    3    3    0    0  0.26521032466E+02  0.32234450794E+02  0.92977624300E+02  0.10191792581E+03  0.00000000000E+00 0.  1.
         14    1    3    3    0    0 -0.11708225480E+02  0.43946718617E+02  0.46182360560E+03  0.46405758190E+03  0.00000000000E+00 0. -1.
          1    1    1    2  501    0 -0.14812806986E+02 -0.76181169411E+02  0.72950097849E+03  0.73361752122E+03  0.00000000000E+00 0. -1.
<mgrwt>
<rscale>  1 0.11191010E+03</rscale>
<asrwt>0</asrwt>
<pdfrwt beam="1">  1       21 0.11762180E-02 0.11191010E+03</pdfrwt>
<pdfrwt beam="2">  1        2 0.19876100E+00 0.11191010E+03</pdfrwt>
<totfact> 0.64352019E+05</totfact>
</mgrwt>
</event>
<event>
 6    2  0.1035293E+001  0.8211333E+02  0.7546771E-02  0.1323159E+00
         -3   -1    0    0    0  501 -0.00000000000E+00  0.00000000000E+00  0.23563022961E+03  0.23563022961E+03  0.00000000000E+00 0.  1.
         21   -1    0    0  501  502  0.00000000000E+00 -0.00000000000E+00 -0.36189814921E+02  0.36189814921E+02  0.00000000000E+00 0.  1.
         24    2    1    2    0    0  0.22456928735E+02 -0.38379427713E+01  0.22384700308E+03  0.23843254673E+03  0.78889511993E+02 0.  0.
        -13    1    3    3    0    0  0.22306122747E+02 -0.16672236602E+02  0.22387191533E+03  0.22559734275E+03  0.00000000000E+00 0.  1.
         14    1    3    3    0    0  0.15080598780E+00  0.12834293831E+02 -0.24912250201E-01  0.12835203980E+02  0.00000000000E+00 0. -1.
         -4    1    1    2    0  502 -0.22456928735E+02  0.38379427713E+01 -0.24406588384E+02  0.33387497802E+02  0.00000000000E+00 0.  1.
<mgrwt>
<rscale>  1 0.82113328E+02</rscale>
<asrwt>0</asrwt>
<pdfrwt beam="1">  1       21 0.55676640E-02 0.82113328E+02</pdfrwt>
<pdfrwt beam="2">  1       -3 0.36250804E-01 0.82113328E+02</pdfrwt>
<totfact> 0.75414890E+04</totfact>
</mgrwt>
</event>
<event>
 6    2  0.9453093E+000  0.8859472E+02  0.7546771E-02  0.1306291E+00
         21   -1    0    0  501  502  0.00000000000E+00  0.00000000000E+00  0.93855230674E+01  0.93855230674E+01  0.00000000000E+00 0.  1.
          2   -1    0    0  502    0 -0.00000000000E+00 -0.00000000000E+00 -0.64681013154E+03  0.64681013154E+03  0.00000000000E+00 0. -1.
         24    2    1    2    0    0  0.30505142255E+02 -0.14308710916E+02 -0.59714509460E+03  0.60368144558E+03  0.81937298093E+02 0.  0.
        -11    1    3    3    0    0 -0.17308361685E+02 -0.27200411937E+02 -0.13081704829E+03  0.13473136946E+03  0.00000000000E+00 0.  1.
         12    1    3    3    0    0  0.47813503940E+02  0.12891701021E+02 -0.46632804631E+03  0.46895007612E+03  0.00000000000E+00 0. -1.
          1    1    1    2  501    0 -0.30505142255E+02  0.14308710916E+02 -0.40279513871E+02  0.52514209028E+02  0.00000000000E+00 0. -1.
<mgrwt>
<rscale>  1 0.88594716E+02</rscale>
<asrwt>0</asrwt>
<pdfrwt beam="1">  1       21 0.14439265E-02 0.88594716E+02</pdfrwt>
<pdfrwt beam="2">  1        2 0.99509257E-01 0.88594716E+02</pdfrwt>
<totfact> 0.11403064E+06</totfact>
</mgrwt>
</event>
<event>
 6    2  0.9453093E+000  0.1055868E+03  0.7546771E-02  0.1268968E+00
          2   -1    0    0  502    0 -0.00000000000E+00  0.00000000000E+00  0.67160011126E+03  0.67160011126E+03  0.00000000000E+00 0. -1.
         21   -1    0    0  501  502  0.00000000000E+00 -0.00000000000E+00 -0.21919795634E+02  0.21919795634E+02  0.00000000000E+00 0.  1.
         24    2    1    2    0    0 -0.64913003721E+02  0.22766747594E+02  0.59859509861E+03  0.60783605634E+03  0.80103411042E+02 0.  0.
        -11    1    3    3    0    0 -0.41862390343E+02  0.51160578813E+02  0.44872973821E+03  0.45357275327E+03  0.00000000000E+00 0.  1.
         12    1    3    3    0    0 -0.23050613378E+02 -0.28393831219E+02  0.14986536039E+03  0.15426330307E+03  0.00000000000E+00 0. -1.
          1    1    1    2  501    0  0.64913003721E+02 -0.22766747594E+02  0.51085217019E+02  0.85683850556E+02  0.00000000000E+00 0. -1.
<mgrwt>
<rscale>  1 0.10558683E+03</rscale>
<asrwt>0</asrwt>
<pdfrwt beam="1">  1       21 0.33722768E-02 0.10558683E+03</pdfrwt>
<pdfrwt beam="2">  1        2 0.10332308E+00 0.10558683E+03</pdfrwt>
<totfact> 0.28251145E+05</totfact>
</mgrwt>
</event>
<event>
 6    2  0.9453093E+000  0.9232638E+02  0.7546771E-02  0.1297314E+00
          4   -1    0    0  502    0 -0.00000000000E+00  0.00000000000E+00  0.78936631064E+02  0.78936631064E+02  0.00000000000E+00 0. -1.
         21   -1    0    0  501  502  0.00000000000E+00 -0.00000000000E+00 -0.60653918365E+02  0.60653918365E+02  0.00000000000E+00 0.  1.
         24    2    1    2    0    0  0.17069806713E+02 -0.36505201336E+02  0.30904133341E+02  0.97361314475E+02  0.83067153995E+02 0.  0.
        -11    1    3    3    0    0 -0.15763758094E+02 -0.29947655173E+02 -0.17815389631E+02  0.38245865493E+02  0.00000000000E+00 0.  1.
         12    1    3    3    0    0  0.32833564807E+02 -0.65575461633E+01  0.48719522972E+02  0.59115448981E+02  0.00000000000E+00 0. -1.
          3    1    1    2  501    0 -0.17069806713E+02  0.36505201336E+02 -0.12621420643E+02  0.42229234955E+02  0.00000000000E+00 0. -1.
<mgrwt>
<rscale>  1 0.92326378E+02</rscale>
<asrwt>0</asrwt>
<pdfrwt beam="1">  1       21 0.93313721E-02 0.92326378E+02</pdfrwt>
<pdfrwt beam="2">  1        4 0.12144097E-01 0.92326378E+02</pdfrwt>
<totfact> 0.18769272E+05</totfact>
</mgrwt>
</event>
<event>
 6    2  0.9453093E+000  0.1082238E+03  0.7546771E-02  0.1263895E+00
          4   -1    0    0  502    0 -0.00000000000E+00  0.00000000000E+00  0.31110551088E+03  0.31110551088E+03  0.00000000000E+00 0. -1.
         21   -1    0    0  501  502  0.00000000000E+00 -0.00000000000E+00 -0.27399274455E+02  0.27399274455E+02  0.00000000000E+00 0. -1.
         24    2    1    2    0    0  0.19126472033E+02  0.70599141854E+02  0.13712398975E+03  0.17468654519E+03  0.79764276109E+02 0.  0.
        -13    1    3    3    0    0  0.69932368629E+01 -0.12238879023E+02  0.84182853326E-01  0.14096191270E+02  0.00000000000E+00 0.  1.
         14    1    3    3    0    0  0.12133235171E+02  0.82838020877E+02  0.13703980689E+03  0.16059035392E+03  0.00000000000E+00 0. -1.
          3    1    1    2  501    0 -0.19126472033E+02 -0.70599141854E+02  0.14658224668E+03  0.16381824015E+03  0.00000000000E+00 0. -1.
<mgrwt>
<rscale>  1 0.10822384E+03</rscale>
<asrwt>0</asrwt>
<pdfrwt beam="1">  1       21 0.42152732E-02 0.10822384E+03</pdfrwt>
<pdfrwt beam="2">  1        4 0.47862384E-01 0.10822384E+03</pdfrwt>
<totfact> 0.59490061E+04</totfact>
</mgrwt>
</event>
<event>
 6    2  0.9453093E+000  0.8112713E+02  0.7546771E-02  0.1325883E+00
         21   -1    0    0  501  502  0.00000000000E+00  0.00000000000E+00  0.53157444243E+01  0.53157444243E+01  0.00000000000E+00 0.  1.
         -3   -1    0    0    0  501 -0.00000000000E+00 -0.00000000000E+00 -0.53735764367E+03  0.53735764367E+03  0.00000000000E+00 0.  1.
         24    2    1    2    0    0  0.18911446651E+02 -0.88344780433E+01 -0.34209200178E+03  0.35158007486E+03  0.78395921693E+02 0.  0.
        -11    1    3    3    0    0  0.35731736705E+02  0.20190965778E+02 -0.25441857481E+03  0.25770767027E+03  0.00000000000E+00 0.  1.
         12    1    3    3    0    0 -0.16820290055E+02 -0.29025443821E+02 -0.87673426971E+02  0.93872404590E+02  0.00000000000E+00 0. -1.
         -4    1    1    2    0  502 -0.18911446651E+02  0.88344780433E+01 -0.18994989746E+03  0.19109331324E+03  0.00000000000E+00 0.  1.
<mgrwt>
<rscale>  1 0.81127131E+02</rscale>
<asrwt>0</asrwt>
<pdfrwt beam="1">  1       21 0.81780713E-03 0.81127131E+02</pdfrwt>
<pdfrwt beam="2">  1       -3 0.82670377E-01 0.81127131E+02</pdfrwt>
<totfact> 0.31104231E+05</totfact>
</mgrwt>
</event>
<event>
 6    2  0.9453093E+000  0.8405035E+02  0.7546771E-02  0.1317935E+00
          4   -1    0    0  502    0 -0.00000000000E+00  0.00000000000E+00  0.53946740289E+01  0.53946740289E+01  0.00000000000E+00 0. -1.
         21   -1    0    0  501  502  0.00000000000E+00 -0.00000000000E+00 -0.58030737277E+03  0.58030737277E+03  0.00000000000E+00 0.  1.
         24    2    1    2    0    0  0.61815427795E+01 -0.26636647820E+02 -0.45649251064E+03  0.46416578296E+03  0.79477917193E+02 0.  0.
        -11    1    3    3    0    0 -0.92458553279E+01 -0.30624163304E+02 -0.44025547847E+03  0.44141614328E+03  0.00000000000E+00 0.  1.
         12    1    3    3    0    0  0.15427398107E+02  0.39875154838E+01 -0.16237032164E+02  0.22749639681E+02  0.00000000000E+00 0. -1.
          3    1    1    2  501    0 -0.61815427795E+01  0.26636647820E+02 -0.11842018810E+03  0.12153626384E+03  0.00000000000E+00 0. -1.
<mgrwt>
<rscale>  1 0.84050353E+02</rscale>
<asrwt>0</asrwt>
<pdfrwt beam="1">  1       21 0.89278041E-01 0.84050353E+02</pdfrwt>
<pdfrwt beam="2">  1        4 0.82995001E-03 0.84050353E+02</pdfrwt>
<totfact> 0.15878491E+05</totfact>
</mgrwt>
</event>
<event>
 6    2  0.9453093E+000  0.8380374E+02  0.7546771E-02  0.1318591E+00
          4   -1    0    0  502    0 -0.00000000000E+00  0.00000000000E+00  0.62753943864E+01  0.62753943864E+01  0.00000000000E+00 0. -1.
         21   -1    0    0  501  502  0.00000000000E+00 -0.00000000000E+00 -0.67023110639E+03  0.67023110639E+03  0.00000000000E+00 0.  1.
         24    2    1    2    0    0 -0.19902622037E+02  0.22977634127E+01 -0.63914924716E+03  0.64461990832E+03  0.81373656494E+02 0.  0.
        -11    1    3    3    0    0 -0.11559272046E+02  0.15219566963E+01 -0.63528583423E+03  0.63539281102E+03  0.00000000000E+00 0.  1.
         12    1    3    3    0    0 -0.83433499910E+01  0.77580671636E+00 -0.38634129388E+01  0.92270973046E+01  0.00000000000E+00 0. -1.
          3    1    1    2  501    0  0.19902622037E+02 -0.22977634127E+01 -0.24806464839E+02  0.31886592456E+02  0.00000000000E+00 0. -1.
<mgrwt>
<rscale>  1 0.83803735E+02</rscale>
<asrwt>0</asrwt>
<pdfrwt beam="1">  1       21 0.10311246E+00 0.83803735E+02</pdfrwt>
<pdfrwt beam="2">  1        4 0.96544545E-03 0.83803735E+02</pdfrwt>
<totfact> 0.91200939E+04</totfact>
</mgrwt>
</event>
<event>
 6    2  0.9453093E+000  0.8573288E+02  0.7546771E-02  0.1313527E+00
         -1   -1    0    0    0  501 -0.00000000000E+00  0.00000000000E+00  0.13663475912E+03  0.13663475912E+03  0.00000000000E+00 0.  1.
         21   -1    0    0  501  502  0.00000000000E+00 -0.00000000000E+00 -0.25509260746E+02  0.25509260746E+02  0.00000000000E+00 0.  1.
         24    2    1    2    0    0  0.28985996093E+02  0.69644166531E+01  0.66607217605E+02  0.10856633429E+03  0.80383060626E+02 0.  0.
        -11    1    3    3    0    0  0.24950394717E+02  0.31615070953E+02  0.31824305111E+01  0.40400034306E+02  0.00000000000E+00 0.  1.
         12    1    3    3    0    0  0.40356013757E+01 -0.24650654300E+02  0.63424787094E+02  0.68166299986E+02  0.00000000000E+00 0. -1.
         -2    1    1    2    0  502 -0.28985996093E+02 -0.69644166531E+01  0.44518280768E+02  0.53577685573E+02  0.00000000000E+00 0.  1.
<mgrwt>
<rscale>  1 0.85732885E+02</rscale>
<asrwt>0</asrwt>
<pdfrwt beam="1">  1       21 0.39245017E-02 0.85732885E+02</pdfrwt>
<pdfrwt beam="2">  1       -1 0.21020732E-01 0.85732885E+02</pdfrwt>
<totfact> 0.63004540E+05</totfact>
</mgrwt>
</event>
<event>
 6    2  0.9453093E+000  0.1019199E+03  0.7546771E-02  0.1276310E+00
         21   -1    0    0  501  502  0.00000000000E+00  0.00000000000E+00  0.33367538423E+01  0.33367538423E+01  0.00000000000E+00 0.  1.
          2   -1    0    0  502    0 -0.00000000000E+00 -0.00000000000E+00 -0.23619839855E+04  0.23619839855E+04  0.00000000000E+00 0. -1.
         24    2    1    2    0    0 -0.43800076048E+02  0.49233224722E+02 -0.10272283864E+04  0.10322721661E+04  0.77751591817E+02 0.  0.
        -11    1    3    3    0    0  0.57371245384E+01  0.43049925546E+02 -0.27693577311E+03  0.28032058989E+03  0.00000000000E+00 0.  1.
         12    1    3    3    0    0 -0.49537200587E+02  0.61832991760E+01 -0.75029261332E+03  0.75195157625E+03  0.00000000000E+00 0. -1.
          1    1    1    2  501    0  0.43800076048E+02 -0.49233224722E+02 -0.13314188453E+04  0.13330485732E+04  0.00000000000E+00 0. -1.
<mgrwt>
<rscale>  1 0.10191991E+03</rscale>
<asrwt>0</asrwt>
<pdfrwt beam="1">  1       21 0.51334700E-03 0.10191991E+03</pdfrwt>
<pdfrwt beam="2">  1        2 0.36338197E+00 0.10191991E+03</pdfrwt>
<totfact> 0.66046751E+05</totfact>
</mgrwt>
</event>
<event>
 6    2  0.9453093E+000  0.1022650E+03  0.7546771E-02  0.1275604E+00
         21   -1    0    0  501  502  0.00000000000E+00  0.00000000000E+00  0.61896136704E+03  0.61896136704E+03  0.00000000000E+00 0.  1.
         -1   -1    0    0    0  501 -0.00000000000E+00 -0.00000000000E+00 -0.11026142107E+02  0.11026142107E+02  0.00000000000E+00 0.  1.
         24    2    1    2    0    0 -0.46591036255E+02 -0.41630489985E+02  0.35369582802E+03  0.36818320571E+03  0.80958704613E+02 0.  0.
        -13    1    3    3    0    0 -0.44690637130E+02 -0.44398861830E+02  0.12997201683E+03  0.14443419657E+03  0.00000000000E+00 0.  1.
         14    1    3    3    0    0 -0.19003991244E+01  0.27683718449E+01  0.22372381119E+03  0.22374900914E+03  0.00000000000E+00 0. -1.
         -2    1    1    2    0  502  0.46591036255E+02  0.41630489985E+02  0.25423939691E+03  0.26180430343E+03  0.00000000000E+00 0.  1.
<mgrwt>
<rscale>  1 0.10226502E+03</rscale>
<asrwt>0</asrwt>
<pdfrwt beam="1">  1       21 0.95224799E-01 0.10226502E+03</pdfrwt>
<pdfrwt beam="2">  1       -1 0.16963300E-02 0.10226502E+03</pdfrwt>
<totfact> 0.68727921E+04</totfact>
</mgrwt>
</event>
<event>
 6    2  0.9453093E+000  0.8872749E+02  0.7546771E-02  0.1305963E+00
          4   -1    0    0  502    0 -0.00000000000E+00  0.00000000000E+00  0.10798858358E+04  0.10798858358E+04  0.00000000000E+00 0. -1.
         21   -1    0    0  501  502  0.00000000000E+00 -0.00000000000E+00 -0.12651850269E+02  0.12651850269E+02  0.00000000000E+00 0. -1.
         24    2    1    2    0    0 -0.35459525137E+02  0.54835515395E+01  0.10481471264E+04  0.10518958917E+04  0.81148758974E+02 0.  0.
        -13    1    3    3    0    0  0.10751571208E+02  0.33161777735E+02  0.41318008007E+03  0.41464813801E+03  0.00000000000E+00 0.  1.
         14    1    3    3    0    0 -0.46211096345E+02 -0.27678226195E+02  0.63496704637E+03  0.63724775371E+03  0.00000000000E+00 0. -1.
          3    1    1    2  501    0  0.35459525137E+02 -0.54835515395E+01  0.19086859141E+02  0.40641794403E+02  0.00000000000E+00 0. -1.
<mgrwt>
<rscale>  1 0.88727495E+02</rscale>
<asrwt>0</asrwt>
<pdfrwt beam="1">  1       21 0.19464394E-02 0.88727495E+02</pdfrwt>
<pdfrwt beam="2">  1        4 0.16613621E+00 0.88727495E+02</pdfrwt>
<totfact> 0.12244322E+04</totfact>
</mgrwt>
</event>
<event>
 6    2  0.9453093E+000  0.1058966E+03  0.7546771E-02  0.1268363E+00
         21   -1    0    0  501  502  0.00000000000E+00  0.00000000000E+00  0.14089467684E+02  0.14089467684E+02  0.00000000000E+00 0. -1.
          2   -1    0    0  502    0 -0.00000000000E+00 -0.00000000000E+00 -0.78032461863E+03  0.78032461863E+03  0.00000000000E+00 0. -1.
         24    2    1    2    0    0  0.29253721090E+02 -0.21682263134E+02 -0.74452916706E+03  0.75202245425E+03  0.99439380356E+02 0.  0.
        -13    1    3    3    0    0  0.25799642124E+02  0.26239537209E+02 -0.11685612316E+03  0.12251321711E+03  0.00000000000E+00 0.  1.
         14    1    3    3    0    0  0.34540789654E+01 -0.47921800343E+02 -0.62767304390E+03  0.62950923714E+03  0.00000000000E+00 0. -1.
          1    1    1    2  501    0 -0.29253721090E+02  0.21682263134E+02 -0.21705983884E+02  0.42391632058E+02  0.00000000000E+00 0. -1.
<mgrwt>
<rscale>  1 0.10589661E+03</rscale>
<asrwt>0</asrwt>
<pdfrwt beam="1">  1       21 0.21676102E-02 0.10589661E+03</pdfrwt>
<pdfrwt beam="2">  1        2 0.12004996E+00 0.10589661E+03</pdfrwt>
<totfact> 0.48489828E+05</totfact>
</mgrwt>
</event>
<event>
 6    2  0.9453093E+000  0.8826917E+02  0.7546771E-02  0.1307098E+00
         21   -1    0    0  501  502  0.00000000000E+00  0.00000000000E+00  0.22898780535E+02  0.22898780535E+02  0.00000000000E+00 0.  1.
          2   -1    0    0  502    0 -0.00000000000E+00 -0.00000000000E+00 -0.17568175528E+03  0.17568175528E+03  0.00000000000E+00 0. -1.
         24    2    1    2    0    0 -0.22466076695E+02  0.29686342718E+02 -0.93552527024E+02  0.12862162299E+03  0.80034011786E+02 0.  0.
        -13    1    3    3    0    0  0.39010935771E+01  0.15816601179E+02  0.11164377483E+02  0.19749094373E+02  0.00000000000E+00 0.  1.
         14    1    3    3    0    0 -0.26367170272E+02  0.13869741539E+02 -0.10471690451E+03  0.10887252862E+03  0.00000000000E+00 0. -1.
          1    1    1    2  501    0  0.22466076695E+02 -0.29686342718E+02 -0.59230447722E+02  0.69958912823E+02  0.00000000000E+00 0. -1.
<mgrwt>
<rscale>  1 0.88269171E+02</rscale>
<asrwt>0</asrwt>
<pdfrwt beam="1">  1       21 0.35228894E-02 0.88269171E+02</pdfrwt>
<pdfrwt beam="2">  1        2 0.27027962E-01 0.88269171E+02</pdfrwt>
<totfact> 0.10903675E+06</totfact>
</mgrwt>
</event>
<event>
 6    2  0.9453093E+000  0.8912056E+02  0.7546771E-02  0.1304995E+00
         -3   -1    0    0    0  501 -0.00000000000E+00  0.00000000000E+00  0.92948508314E+01  0.92948508314E+01  0.00000000000E+00 0.  1.
         21   -1    0    0  501  502  0.00000000000E+00 -0.00000000000E+00 -0.21673166308E+04  0.21673166308E+04  0.00000000000E+00 0.  1.
         24    2    1    2    0    0 -0.28485130871E+02 -0.27183136490E+02 -0.20920001057E+03  0.22739199310E+03  0.79950913148E+02 0.  0.
        -13    1    3    3    0    0 -0.50942231310E+02 -0.27273760059E+02 -0.96511087565E+02  0.11248715012E+03  0.00000000000E+00 0.  1.
         14    1    3    3    0    0  0.22457100439E+02  0.90623569323E-01 -0.11268892301E+03  0.11490484299E+03  0.00000000000E+00 0. -1.
         -4    1    1    2    0  502  0.28485130871E+02  0.27183136490E+02 -0.19488217694E+04  0.19492194885E+04  0.00000000000E+00 0.  1.
<mgrwt>
<rscale>  1 0.89120559E+02</rscale>
<asrwt>0</asrwt>
<pdfrwt beam="1">  1       21 0.33343319E+00 0.89120559E+02</pdfrwt>
<pdfrwt beam="2">  1       -3 0.14299776E-02 0.89120559E+02</pdfrwt>
<totfact> 0.18599583E+03</totfact>
</mgrwt>
</event>
<event>
 6    2  0.9453093E+000  0.8287997E+02  0.7546771E-02  0.1321072E+00
         -3   -1    0    0    0  501 -0.00000000000E+00  0.00000000000E+00  0.20213529708E+03  0.20213529708E+03  0.00000000000E+00 0.  1.
         21   -1    0    0  501  502  0.00000000000E+00 -0.00000000000E+00 -0.19119820675E+02  0.19119820675E+02  0.00000000000E+00 0.  1.
         24    2    1    2    0    0  0.22748706023E+02  0.89525036631E+01  0.17792847241E+03  0.19628456395E+03  0.79192410014E+02 0.  0.
        -11    1    3    3    0    0  0.51165279325E+02  0.50910076277E+01  0.88297187317E+02  0.10217728444E+03  0.00000000000E+00 0.  1.
         12    1    3    3    0    0 -0.28416573302E+02  0.38614960354E+01  0.89631285096E+02  0.94107279516E+02  0.00000000000E+00 0. -1.
         -4    1    1    2    0  502 -0.22748706023E+02 -0.89525036631E+01  0.50870039928E+01  0.24970553802E+02  0.00000000000E+00 0.  1.
<mgrwt>
<rscale>  1 0.82879966E+02</rscale>
<asrwt>0</asrwt>
<pdfrwt beam="1">  1       21 0.29415110E-02 0.82879966E+02</pdfrwt>
<pdfrwt beam="2">  1       -3 0.31097737E-01 0.82879966E+02</pdfrwt>
<totfact> 0.28655493E+05</totfact>
</mgrwt>
</event>
<event>
 6    2  0.1413685E+001  0.1014315E+03  0.7546771E-02  0.1277314E+00
         -3   -1    0    0    0  501 -0.00000000000E+00  0.00000000000E+00  0.12328426927E+04  0.12328426927E+04  0.00000000000E+00 0.  1.
         21   -1    0    0  501  502  0.00000000000E+00 -0.00000000000E+00 -0.72229735828E+01  0.72229735828E+01  0.00000000000E+00 0.  1.
         24    2    1    2    0    0  0.17441607725E+02 -0.54988608785E+02  0.10569006820E+04  0.10617567482E+04  0.83428915851E+02 0.  0.
        -11    1    3    3    0    0  0.24220345487E+02 -0.71530994708E+02  0.97535867563E+03  0.97827800469E+03  0.00000000000E+00 0.  1.
         12    1    3    3    0    0 -0.67787377618E+01  0.16542385923E+02  0.81542006326E+02  0.83478743482E+02  0.00000000000E+00 0. -1.
         -4    1    1    2    0  502 -0.17441607725E+02  0.54988608785E+02  0.16871903716E+03  0.17830891811E+03  0.00000000000E+00 0.  1.
<mgrwt>
<rscale>  1 0.10143146E+03</rscale>
<asrwt>0</asrwt>
<pdfrwt beam="1">  1       21 0.11112277E-02 0.10143146E+03</pdfrwt>
<pdfrwt beam="2">  1       -3 0.18966794E+00 0.10143146E+03</pdfrwt>
<totfact> 0.27685588E+04</totfact>
</mgrwt>
</event>
<event>
 6    2  0.9453093E+000  0.8722817E+02  0.7546771E-02  0.1309706E+00
         21   -1    0    0  501  502  0.00000000000E+00  0.00000000000E+00  0.15010882632E+02  0.15010882632E+02  0.00000000000E+00 0. -1.
          2   -1    0    0  502    0 -0.00000000000E+00 -0.00000000000E+00 -0.65643301588E+03  0.65643301588E+03  0.00000000000E+00 0. -1.
         24    2    1    2    0    0 -0.10985424825E+02  0.26664554444E+02 -0.63618038699E+03  0.64213257090E+03  0.82322996806E+02 0.  0.
        -11    1    3    3    0    0 -0.21060050324E+01 -0.82284281094E+01 -0.48589867375E+01  0.97852970554E+01  0.00000000000E+00 0.  1.
         12    1    3    3    0    0 -0.88794197929E+01  0.34892982553E+02 -0.63132140025E+03  0.63234727385E+03  0.00000000000E+00 0. -1.
          1    1    1    2  501    0  0.10985424825E+02 -0.26664554444E+02 -0.52417462566E+01  0.29311327607E+02  0.00000000000E+00 0. -1.
<mgrwt>
<rscale>  1 0.87228171E+02</rscale>
<asrwt>0</asrwt>
<pdfrwt beam="1">  1       21 0.23093665E-02 0.87228171E+02</pdfrwt>
<pdfrwt beam="2">  1        2 0.10098970E+00 0.87228171E+02</pdfrwt>
<totfact> 0.52980773E+05</totfact>
</mgrwt>
</event>
<event>
 6    2  0.9453093E+000  0.8458491E+02  0.7546771E-02  0.1316522E+00
         -1   -1    0    0    0  501 -0.00000000000E+00  0.00000000000E+00  0.22815176174E+02  0.22815176174E+02  0.00000000000E+00 0.  1.
         21   -1    0    0  501  502  0.00000000000E+00 -0.00000000000E+00 -0.16801121206E+03  0.16801121206E+03  0.00000000000E+00 0.  1.
         24    2    1    2    0    0  0.17254583358E+02  0.20130123529E+02 -0.65931905922E+02  0.10724562000E+03  0.80322252645E+02 0.  0.
        -13    1    3    3    0    0  0.42049276203E+02  0.90979691393E+01 -0.86824940719E+01  0.43889638583E+02  0.00000000000E+00 0.  1.
         14    1    3    3    0    0 -0.24794692845E+02  0.11032154390E+02 -0.57249411850E+02  0.63355981414E+02  0.00000000000E+00 0. -1.
         -2    1    1    2    0  502 -0.17254583358E+02 -0.20130123529E+02 -0.79264129966E+02  0.83580768239E+02  0.00000000000E+00 0.  1.
<mgrwt>
<rscale>  1 0.84584909E+02</rscale>
<asrwt>0</asrwt>
<pdfrwt beam="1">  1       21 0.25847879E-01 0.84584909E+02</pdfrwt>
<pdfrwt beam="2">  1       -1 0.35100271E-02 0.84584909E+02</pdfrwt>
<totfact> 0.34867533E+05</totfact>
</mgrwt>
</event>
<event>
 6    2  0.9453093E+000  0.9604450E+02  0.7546771E-02  0.1288841E+00
         21   -1    0    0  501  502  0.00000000000E+00  0.00000000000E+00  0.98594426804E+03  0.98594426804E+03  0.00000000000E+00 0. -1.
          2   -1    0    0  502    0 -0.00000000000E+00 -0.00000000000E+00 -0.98132639141E+01  0.98132639141E+01  0.00000000000E+00 0. -1.
         24    2    1    2    0    0  0.43502654636E+02  0.31452269358E+02  0.25268353257E+03  0.27032113205E+03  0.79641826898E+02 0.  0.
        -13    1    3    3    0    0  0.11429321070E+02  0.12499320612E+02  0.22032646182E+03  0.22097649689E+03  0.00000000000E+00 0.  1.
         14    1    3    3    0    0  0.32073333566E+02  0.18952948746E+02  0.32357070749E+02  0.49344635166E+02  0.00000000000E+00 0. -1.
          1    1    1    2  501    0 -0.43502654636E+02 -0.31452269358E+02  0.72344747155E+03  0.72543639990E+03  0.00000000000E+00 0. -1.
<mgrwt>
<rscale>  1 0.96044504E+02</rscale>
<asrwt>0</asrwt>
<pdfrwt beam="1">  1       21 0.15168366E+00 0.96044504E+02</pdfrwt>
<pdfrwt beam="2">  1        2 0.15097337E-02 0.96044504E+02</pdfrwt>
<totfact> 0.27987087E+04</totfact>
</mgrwt>
</event>
<event>
 6    2  0.9453093E+000  0.8604340E+02  0.7546771E-02  0.1312726E+00
          2   -1    0    0  502    0 -0.00000000000E+00  0.00000000000E+00  0.20116995908E+04  0.20116995908E+04  0.00000000000E+00 0. -1.
         21   -1    0    0  501  502  0.00000000000E+00 -0.00000000000E+00 -0.23155706398E+01  0.23155706398E+01  0.00000000000E+00 0. -1.
         24    2    1    2    0    0 -0.17594073270E+02 -0.27140905730E+02  0.18083415624E+04  0.18103874374E+04  0.79732596799E+02 0.  0.
        -11    1    3    3    0    0  0.53244290856E+00  0.49184980542E+01  0.64951812453E+01  0.81647105258E+01  0.00000000000E+00 0.  1.
         12    1    3    3    0    0 -0.18126516178E+02 -0.32059403784E+02  0.18018463812E+04  0.18022227269E+04  0.00000000000E+00 0. -1.
          1    1    1    2  501    0  0.17594073270E+02  0.27140905730E+02  0.20104245780E+03  0.20362772409E+03  0.00000000000E+00 0. -1.
<mgrwt>
<rscale>  1 0.86043403E+02</rscale>
<asrwt>0</asrwt>
<pdfrwt beam="1">  1       21 0.35624325E-03 0.86043403E+02</pdfrwt>
<pdfrwt beam="2">  1        2 0.30949085E+00 0.86043403E+02</pdfrwt>
<totfact> 0.17276495E+06</totfact>
</mgrwt>
</event>
<event>
 6    2  0.9453093E+000  0.9316063E+02  0.7546771E-02  0.1295373E+00
         21   -1    0    0  501  502  0.00000000000E+00  0.00000000000E+00  0.88942787566E+02  0.88942787566E+02  0.00000000000E+00 0.  1.
          2   -1    0    0  502    0 -0.00000000000E+00 -0.00000000000E+00 -0.68395504382E+02  0.68395504382E+02  0.00000000000E+00 0. -1.
         24    2    1    2    0    0 -0.96276468511E+01 -0.44611162829E+02 -0.21137317977E+02  0.95528475521E+02  0.81216106723E+02 0.  0.
        -13    1    3    3    0    0  0.26917136719E+02 -0.57483459620E+01  0.14756898270E+02  0.31230462324E+02  0.00000000000E+00 0.  1.
         14    1    3    3    0    0 -0.36544783570E+02 -0.38862816867E+02 -0.35894216247E+02  0.64298013196E+02  0.00000000000E+00 0. -1.
          1    1    1    2  501    0  0.96276468511E+01  0.44611162829E+02  0.41684601161E+02  0.61809816427E+02  0.00000000000E+00 0. -1.
<mgrwt>
<rscale>  1 0.93160632E+02</rscale>
<asrwt>0</asrwt>
<pdfrwt beam="1">  1       21 0.13683506E-01 0.93160632E+02</pdfrwt>
<pdfrwt beam="2">  1        2 0.10522385E-01 0.93160632E+02</pdfrwt>
<totfact> 0.32125253E+05</totfact>
</mgrwt>
</event>
<event>
 6    2  0.9453093E+000  0.8531572E+02  0.7546771E-02  0.1314609E+00
         21   -1    0    0  501  502  0.00000000000E+00  0.00000000000E+00  0.64445962262E+03  0.64445962262E+03  0.00000000000E+00 0.  1.
          2   -1    0    0  502    0 -0.00000000000E+00 -0.00000000000E+00 -0.57369167045E+01  0.57369167045E+01  0.00000000000E+00 0. -1.
         24    2    1    2    0    0  0.92714703147E+01  0.35089364908E+02  0.44847924630E+03  0.45652207632E+03  0.77211062157E+02 0.  0.
        -11    1    3    3    0    0  0.17931823089E+02  0.54467396511E+02  0.23106039274E+03  0.23806963824E+03  0.00000000000E+00 0.  1.
         12    1    3    3    0    0 -0.86603527744E+01 -0.19378031603E+02  0.21741885356E+03  0.21845243808E+03  0.00000000000E+00 0. -1.
          1    1    1    2  501    0 -0.92714703147E+01 -0.35089364908E+02  0.19024345962E+03  0.19367446300E+03  0.00000000000E+00 0. -1.
<mgrwt>
<rscale>  1 0.85315718E+02</rscale>
<asrwt>0</asrwt>
<pdfrwt beam="1">  1       21 0.99147577E-01 0.85315718E+02</pdfrwt>
<pdfrwt beam="2">  1        2 0.88260308E-03 0.85315718E+02</pdfrwt>
<totfact> 0.16264276E+05</totfact>
</mgrwt>
</event>
<event>
 6    2  0.9453093E+000  0.8719750E+02  0.7546771E-02  0.1309784E+00
          2   -1    0    0  502    0 -0.00000000000E+00  0.00000000000E+00  0.16287304082E+04  0.16287304082E+04  0.00000000000E+00 0. -1.
         21   -1    0    0  501  502  0.00000000000E+00 -0.00000000000E+00 -0.26423602977E+01  0.26423602977E+01  0.00000000000E+00 0. -1.
         24    2    1    2    0    0  0.14648204839E+02 -0.29281239778E+02  0.14223899141E+04  0.14250601644E+04  0.80817346100E+02 0.  0.
        -11    1    3    3    0    0  0.16622146383E+02 -0.52809480329E+00  0.57263498110E+02  0.59629546790E+02  0.00000000000E+00 0.  1.
         12    1    3    3    0    0 -0.19739415445E+01 -0.28753144974E+02  0.13651264160E+04  0.13654306176E+04  0.00000000000E+00 0. -1.
          1    1    1    2  501    0 -0.14648204839E+02  0.29281239778E+02  0.20369813384E+03  0.20631260416E+03  0.00000000000E+00 0. -1.
<mgrwt>
<rscale>  1 0.87197502E+02</rscale>
<asrwt>0</asrwt>
<pdfrwt beam="1">  1       21 0.40651827E-03 0.87197502E+02</pdfrwt>
<pdfrwt beam="2">  1        2 0.25057311E+00 0.87197502E+02</pdfrwt>
<totfact> 0.22006199E+06</totfact>
</mgrwt>
</event>
<event>
 6    2  0.9453093E+000  0.1086596E+03  0.7546771E-02  0.1263072E+00
         21   -1    0    0  501  502  0.00000000000E+00  0.00000000000E+00  0.18252015320E+02  0.18252015320E+02  0.00000000000E+00 0. -1.
          2   -1    0    0  502    0 -0.00000000000E+00 -0.00000000000E+00 -0.45174354135E+03  0.45174354135E+03  0.00000000000E+00 0. -1.
         24    2    1    2    0    0 -0.72081217824E+02  0.19969250427E+01 -0.23807897975E+03  0.26170308701E+03  0.81284780126E+02 0.  0.
        -13    1    3    3    0    0  0.30736470994E+01 -0.27684347093E+02 -0.60438059768E+02  0.66547948495E+02  0.00000000000E+00 0.  1.
         14    1    3    3    0    0 -0.75154864923E+02  0.29681272136E+02 -0.17764091998E+03  0.19515513852E+03  0.00000000000E+00 0. -1.
          1    1    1    2  501    0  0.72081217824E+02 -0.19969250427E+01 -0.19541254628E+03  0.20829246966E+03  0.00000000000E+00 0. -1.
<mgrwt>
<rscale>  1 0.10865958E+03</rscale>
<asrwt>0</asrwt>
<pdfrwt beam="1">  1       21 0.28080027E-02 0.10865958E+03</pdfrwt>
<pdfrwt beam="2">  1        2 0.69498999E-01 0.10865958E+03</pdfrwt>
<totfact> 0.59289434E+05</totfact>
</mgrwt>
</event>
<event>
 6    2  0.9453093E+000  0.8483674E+02  0.7546771E-02  0.1315860E+00
          4   -1    0    0  502    0 -0.00000000000E+00  0.00000000000E+00  0.18538077593E+03  0.18538077593E+03  0.00000000000E+00 0. -1.
         21   -1    0    0  501  502  0.00000000000E+00 -0.00000000000E+00 -0.24507215038E+02  0.24507215038E+02  0.00000000000E+00 0. -1.
         24    2    1    2    0    0 -0.61976862249E+01  0.27108522148E+02  0.16110711705E+03  0.18207903852E+03  0.80149796115E+02 0.  0.
        -13    1    3    3    0    0 -0.75067874692E+01  0.18980916938E+02 -0.34777257601E+00  0.20414406964E+02  0.00000000000E+00 0.  1.
         14    1    3    3    0    0  0.13091012443E+01  0.81276052098E+01  0.16145488963E+03  0.16166463156E+03  0.00000000000E+00 0. -1.
          3    1    1    2  501    0  0.61976862249E+01 -0.27108522148E+02 -0.23355615994E+00  0.27808952445E+02  0.00000000000E+00 0. -1.
<mgrwt>
<rscale>  1 0.84836744E+02</rscale>
<asrwt>0</asrwt>
<pdfrwt beam="1">  1       21 0.37703409E-02 0.84836744E+02</pdfrwt>
<pdfrwt beam="2">  1        4 0.28520118E-01 0.84836744E+02</pdfrwt>
<totfact> 0.18658123E+05</totfact>
</mgrwt>
</event>
<event>
 6    2  0.9453093E+000  0.1168474E+03  0.7546771E-02  0.1248390E+00
         21   -1    0    0  501  502  0.00000000000E+00  0.00000000000E+00  0.33608376238E+02  0.33608376238E+02  0.00000000000E+00 0.  1.
          2   -1    0    0  502    0 -0.00000000000E+00 -0.00000000000E+00 -0.38329076117E+03  0.38329076117E+03  0.00000000000E+00 0. -1.
         24    2    1    2    0    0  0.79815500011E+02  0.23740857360E+02 -0.10033419858E+03  0.15401387653E+03  0.81970606980E+02 0.  0.
        -13    1    3    3    0    0  0.58179443511E+02  0.27749678992E+02 -0.15395888579E+02  0.66271605659E+02  0.00000000000E+00 0.  1.
         14    1    3    3    0    0  0.21636056499E+02 -0.40088216328E+01 -0.84938309998E+02  0.87742270868E+02  0.00000000000E+00 0. -1.
          1    1    1    2  501    0 -0.79815500011E+02 -0.23740857360E+02 -0.24934818636E+03  0.26288526088E+03  0.00000000000E+00 0. -1.
<mgrwt>
<rscale>  1 0.11684743E+03</rscale>
<asrwt>0</asrwt>
<pdfrwt beam="1">  1       21 0.51705193E-02 0.11684743E+03</pdfrwt>
<pdfrwt beam="2">  1        2 0.58967811E-01 0.11684743E+03</pdfrwt>
<totfact> 0.25878078E+05</totfact>
</mgrwt>
</event>
<event>
 6    2  0.9453093E+000  0.8687100E+02  0.7546771E-02  0.1310611E+00
          2   -1    0    0  502    0 -0.00000000000E+00  0.00000000000E+00  0.88355784999E+02  0.88355784999E+02  0.00000000000E+00 0. -1.
         21   -1    0    0  501  502  0.00000000000E+00 -0.00000000000E+00 -0.46934857692E+02  0.46934857692E+02  0.00000000000E+00 0.  1.
         24    2    1    2    0    0 -0.21501090132E+02 -0.21694918734E+02  0.39678440970E+01  0.86961564304E+02  0.81324064726E+02 0.  0.
        -13    1    3    3    0    0 -0.25471228738E+02 -0.38532678273E+02 -0.25521758845E+02  0.52772255616E+02  0.00000000000E+00 0.  1.
         14    1    3    3    0    0  0.39701386056E+01  0.16837759539E+02  0.29489602942E+02  0.34189308687E+02  0.00000000000E+00 0. -1.
          1    1    1    2  501    0  0.21501090132E+02  0.21694918734E+02  0.37453083211E+02  0.48329078387E+02  0.00000000000E+00 0. -1.
<mgrwt>
<rscale>  1 0.86870996E+02</rscale>
<asrwt>0</asrwt>
<pdfrwt beam="1">  1       21 0.72207474E-02 0.86870996E+02</pdfrwt>
<pdfrwt beam="2">  1        2 0.13593198E-01 0.86870996E+02</pdfrwt>
<totfact> 0.71285778E+05</totfact>
</mgrwt>
</event>
<event>
 6    2  0.9453093E+000  0.8927550E+02  0.7546771E-02  0.1304616E+00
         21   -1    0    0  501  502  0.00000000000E+00  0.00000000000E+00  0.19253183671E+01  0.19253183671E+01  0.00000000000E+00 0. -1.
          2   -1    0    0  502    0 -0.00000000000E+00 -0.00000000000E+00 -0.23441066963E+04  0.23441066963E+04  0.00000000000E+00 0. -1.
         24    2    1    2    0    0 -0.38488959008E+02  0.54435331957E+01 -0.19169137288E+04  0.19189914950E+04  0.80368415982E+02 0.  0.
        -11    1    3    3    0    0  0.22394870668E+02  0.11981544901E+02 -0.79737513296E+03  0.79777953741E+03  0.00000000000E+00 0.  1.
         12    1    3    3    0    0 -0.60883829676E+02 -0.65380117054E+01 -0.11195385958E+04  0.11212119576E+04  0.00000000000E+00 0. -1.
          1    1    1    2  501    0  0.38488959008E+02 -0.54435331957E+01 -0.42526764911E+03  0.42704051962E+03  0.00000000000E+00 0. -1.
<mgrwt>
<rscale>  1 0.89275497E+02</rscale>
<asrwt>0</asrwt>
<pdfrwt beam="1">  1       21 0.29620181E-03 0.89275497E+02</pdfrwt>
<pdfrwt beam="2">  1        2 0.36063303E+00 0.89275497E+02</pdfrwt>
<totfact> 0.15526259E+06</totfact>
</mgrwt>
</event>
<event>
 6    2  0.9453093E+000  0.8254993E+02  0.7546771E-02  0.1321967E+00
         21   -1    0    0  501  502  0.00000000000E+00  0.00000000000E+00  0.13339151782E+03  0.13339151782E+03  0.00000000000E+00 0. -1.
         -3   -1    0    0    0  501 -0.00000000000E+00 -0.00000000000E+00 -0.21813572907E+02  0.21813572907E+02  0.00000000000E+00 0.  1.
         24    2    1    2    0    0 -0.20092898546E+02  0.30372763503E+01  0.67374220289E+02  0.10655410009E+03  0.80009631085E+02 0.  0.
        -13    1    3    3    0    0  0.30847024819E+02  0.21992320169E+01  0.18974022045E+02  0.36282076487E+02  0.00000000000E+00 0.  1.
         14    1    3    3    0    0 -0.50939923365E+02  0.83804433338E+00  0.48400198244E+02  0.70272023600E+02  0.00000000000E+00 0. -1.
         -4    1    1    2    0  502  0.20092898546E+02 -0.30372763503E+01  0.44203724621E+02  0.48650990637E+02  0.00000000000E+00 0.  1.
<mgrwt>
<rscale>  1 0.82549928E+02</rscale>
<asrwt>0</asrwt>
<pdfrwt beam="1">  1       21 0.20521771E-01 0.82549928E+02</pdfrwt>
<pdfrwt beam="2">  1       -3 0.33559344E-02 0.82549928E+02</pdfrwt>
<totfact> 0.41003623E+05</totfact>
</mgrwt>
</event>
<event>
 6    2  0.9453093E+000  0.8396099E+02  0.7546771E-02  0.1318172E+00
          2   -1    0    0  502    0 -0.00000000000E+00  0.00000000000E+00  0.80227231540E+03  0.80227231540E+03  0.00000000000E+00 0. -1.
         21   -1    0    0  501  502  0.00000000000E+00 -0.00000000000E+00 -0.40357496061E+01  0.40357496061E+01  0.00000000000E+00 0. -1.
         24    2    1    2    0    0 -0.25457403109E+02  0.14292507914E+02  0.62771835984E+03  0.63330860340E+03  0.78721615204E+02 0.  0.
        -13    1    3    3    0    0  0.22746620579E+02 -0.11439350485E+02  0.29875567932E+03  0.29983866231E+03  0.00000000000E+00 0.  1.
         14    1    3    3    0    0 -0.48204023687E+02  0.25731858398E+02  0.32896268052E+03  0.33346994109E+03  0.00000000000E+00 0. -1.
          1    1    1    2  501    0  0.25457403109E+02 -0.14292507914E+02  0.17051820595E+03  0.17299946161E+03  0.00000000000E+00 0. -1.
<mgrwt>
<rscale>  1 0.83960990E+02</rscale>
<asrwt>0</asrwt>
<pdfrwt beam="1">  1       21 0.62088519E-03 0.83960990E+02</pdfrwt>
<pdfrwt beam="2">  1        2 0.12342638E+00 0.83960990E+02</pdfrwt>
<totfact> 0.32804342E+06</totfact>
</mgrwt>
</event>
<event>
 6    2  0.9453093E+000  0.8114513E+02  0.7546771E-02  0.1325833E+00
         21   -1    0    0  501  502  0.00000000000E+00  0.00000000000E+00  0.21172884950E+02  0.21172884950E+02  0.00000000000E+00 0.  1.
         -3   -1    0    0    0  501 -0.00000000000E+00 -0.00000000000E+00 -0.14331987841E+03  0.14331987841E+03  0.00000000000E+00 0.  1.
         24    2    1    2    0    0 -0.27946566511E+02 -0.76729050202E+01 -0.87870957779E+02  0.11960701202E+03  0.75793456530E+02 0.  0.
        -11    1    3    3    0    0 -0.13653837828E+02 -0.41595212383E+02 -0.40720478761E+02  0.59789182727E+02  0.00000000000E+00 0.  1.
         12    1    3    3    0    0 -0.14292728682E+02  0.33922307363E+02 -0.47150479017E+02  0.59817829295E+02  0.00000000000E+00 0. -1.
         -4    1    1    2    0  502  0.27946566511E+02  0.76729050202E+01 -0.34276035680E+02  0.44885751338E+02  0.00000000000E+00 0.  1.
<mgrwt>
<rscale>  1 0.81145130E+02</rscale>
<asrwt>0</asrwt>
<pdfrwt beam="1">  1       21 0.32573669E-02 0.81145130E+02</pdfrwt>
<pdfrwt beam="2">  1       -3 0.22049212E-01 0.81145130E+02</pdfrwt>
<totfact> 0.44866004E+05</totfact>
</mgrwt>
</event>
<event>
 6    2  0.9453093E+000  0.8800187E+02  0.7546771E-02  0.1307764E+00
         21   -1    0    0  501  502  0.00000000000E+00  0.00000000000E+00  0.42295178809E+02  0.42295178809E+02  0.00000000000E+00 0.  1.
         -3   -1    0    0    0  501 -0.00000000000E+00 -0.00000000000E+00 -0.99338630782E+02  0.99338630782E+02  0.00000000000E+00 0.  1.
         24    2    1    2    0    0  0.31922006650E+02  0.19147666256E+02 -0.56168243616E+02  0.10439923398E+03  0.79741337035E+02 0.  0.
        -11    1    3    3    0    0  0.57234596649E+02  0.63634480287E+01 -0.47776913178E+02  0.74825971141E+02  0.00000000000E+00 0.  1.
         12    1    3    3    0    0 -0.25312589999E+02  0.12784218228E+02 -0.83913304381E+01  0.29573262834E+02  0.00000000000E+00 0. -1.
         -4    1    1    2    0  502 -0.31922006650E+02 -0.19147666256E+02 -0.87520835793E+00  0.37234575616E+02  0.00000000000E+00 0.  1.
<mgrwt>
<rscale>  1 0.88001866E+02</rscale>
<asrwt>0</asrwt>
<pdfrwt beam="1">  1       21 0.65069507E-02 0.88001866E+02</pdfrwt>
<pdfrwt beam="2">  1       -3 0.15282866E-01 0.88001866E+02</pdfrwt>
<totfact> 0.27252175E+05</totfact>
</mgrwt>
</event>
<event>
 6    2  0.9453093E+000  0.8340873E+02  0.7546771E-02  0.1319647E+00
         21   -1    0    0  501  502  0.00000000000E+00  0.00000000000E+00  0.11956455584E+01  0.11956455584E+01  0.00000000000E+00 0.  1.
          2   -1    0    0  502    0 -0.00000000000E+00 -0.00000000000E+00 -0.25903186288E+04  0.25903186288E+04  0.00000000000E+00 0. -1.
         24    2    1    2    0    0 -0.25609387837E+02  0.10081730137E+02 -0.18508439500E+04  0.18527224140E+04  0.78737119632E+02 0.  0.
        -13    1    3    3    0    0 -0.34803872907E+02  0.94845661698E+01 -0.35073666840E+03  0.35258683629E+03  0.00000000000E+00 0.  1.
         14    1    3    3    0    0  0.91944850702E+01  0.59716396695E+00 -0.15001072816E+04  0.15001355777E+04  0.00000000000E+00 0. -1.
          1    1    1    2  501    0  0.25609387837E+02 -0.10081730137E+02 -0.73827903322E+03  0.73879186035E+03  0.00000000000E+00 0. -1.
<mgrwt>
<rscale>  1 0.83408729E+02</rscale>
<asrwt>0</asrwt>
<pdfrwt beam="1">  1       21 0.18394745E-03 0.83408729E+02</pdfrwt>
<pdfrwt beam="2">  1        2 0.39850628E+00 0.83408729E+02</pdfrwt>
<totfact> 0.23544814E+06</totfact>
</mgrwt>
</event>
<event>
 6    2  0.9453093E+000  0.8584529E+02  0.7546771E-02  0.1313237E+00
         21   -1    0    0  501  502  0.00000000000E+00  0.00000000000E+00  0.22968319825E+01  0.22968319825E+01  0.00000000000E+00 0.  1.
          2   -1    0    0  502    0 -0.00000000000E+00 -0.00000000000E+00 -0.28098057104E+04  0.28098057104E+04  0.00000000000E+00 0. -1.
         24    2    1    2    0    0 -0.36792651484E+01 -0.29529305075E+02 -0.26713867463E+04  0.26727657142E+04  0.80522652507E+02 0.  0.
        -13    1    3    3    0    0 -0.11679272793E+02 -0.36622682630E+02 -0.54575180860E+03  0.54710388674E+03  0.00000000000E+00 0.  1.
         14    1    3    3    0    0  0.80000076450E+01  0.70933775546E+01 -0.21256349377E+04  0.21256618274E+04  0.00000000000E+00 0. -1.
          1    1    1    2  501    0  0.36792651484E+01  0.29529305075E+02 -0.13612213211E+03  0.13933682823E+03  0.00000000000E+00 0. -1.
<mgrwt>
<rscale>  1 0.85845294E+02</rscale>
<asrwt>0</asrwt>
<pdfrwt beam="1">  1       21 0.35335749E-03 0.85845294E+02</pdfrwt>
<pdfrwt beam="2">  1        2 0.43227936E+00 0.85845294E+02</pdfrwt>
<totfact> 0.67219679E+05</totfact>
</mgrwt>
</event>
<event>
 6    2  0.9453093E+000  0.8337174E+02  0.7546771E-02  0.1319746E+00
         21   -1    0    0  501  502  0.00000000000E+00  0.00000000000E+00  0.39245160797E+01  0.39245160797E+01  0.00000000000E+00 0.  1.
         -3   -1    0    0    0  501 -0.00000000000E+00 -0.00000000000E+00 -0.15852641927E+04  0.15852641927E+04  0.00000000000E+00 0.  1.
         24    2    1    2    0    0  0.20072466303E+02 -0.81429206103E+01 -0.15422231640E+04  0.15444750350E+04  0.80508603318E+02 0.  0.
        -13    1    3    3    0    0  0.18726763870E+02 -0.42389939981E+02 -0.10738896627E+04  0.10748891136E+04  0.00000000000E+00 0.  1.
         14    1    3    3    0    0  0.13457024329E+01  0.34247019370E+02 -0.46833350127E+03  0.46958592149E+03  0.00000000000E+00 0. -1.
         -4    1    1    2    0  502 -0.20072466303E+02  0.81429206103E+01 -0.39116512565E+02  0.44713673690E+02  0.00000000000E+00 0.  1.
<mgrwt>
<rscale>  1 0.83371735E+02</rscale>
<asrwt>0</asrwt>
<pdfrwt beam="1">  1       21 0.60377123E-03 0.83371735E+02</pdfrwt>
<pdfrwt beam="2">  1       -3 0.24388699E+00 0.83371735E+02</pdfrwt>
<totfact> 0.34479029E+04</totfact>
</mgrwt>
</event>
<event>
 6    2  0.9453093E+000  0.8811467E+02  0.7546771E-02  0.1307483E+00
         21   -1    0    0  501  502  0.00000000000E+00  0.00000000000E+00  0.65552533227E+02  0.65552533227E+02  0.00000000000E+00 0.  1.
          2   -1    0    0  502    0 -0.00000000000E+00 -0.00000000000E+00 -0.88414831208E+02  0.88414831208E+02  0.00000000000E+00 0. -1.
         24    2    1    2    0    0  0.73514032384E+01  0.33738641707E+02  0.28030786895E+02  0.92465777772E+02  0.81066984470E+02 0.  0.
        -13    1    3    3    0    0  0.35707413981E+02  0.18927261222E+02  0.41343826518E+02  0.57814986134E+02  0.00000000000E+00 0.  1.
         14    1    3    3    0    0 -0.28356010742E+02  0.14811380486E+02 -0.13313039622E+02  0.34650791638E+02  0.00000000000E+00 0. -1.
          1    1    1    2  501    0 -0.73514032384E+01 -0.33738641707E+02 -0.50893084876E+02  0.61501586663E+02  0.00000000000E+00 0. -1.
<mgrwt>
<rscale>  1 0.88114670E+02</rscale>
<asrwt>0</asrwt>
<pdfrwt beam="1">  1       21 0.10085005E-01 0.88114670E+02</pdfrwt>
<pdfrwt beam="2">  1        2 0.13602282E-01 0.88114670E+02</pdfrwt>
<totfact> 0.40236819E+05</totfact>
</mgrwt>
</event>
<event>
 6    2  0.9453093E+000  0.7975858E+02  0.7546771E-02  0.1329738E+00
         21   -1    0    0  501  502  0.00000000000E+00  0.00000000000E+00  0.14781238448E+01  0.14781238448E+01  0.00000000000E+00 0.  1.
          2   -1    0    0  502    0 -0.00000000000E+00 -0.00000000000E+00 -0.20486139044E+04  0.20486139044E+04  0.00000000000E+00 0. -1.
         24    2    1    2    0    0  0.80306051425E+01 -0.24393642218E+02 -0.12495548025E+04  0.12520976943E+04  0.75510868780E+02 0.  0.
        -11    1    3    3    0    0  0.24371892233E+02 -0.46121568341E+02 -0.87938724409E+03  0.88093309239E+03  0.00000000000E+00 0.  1.
         12    1    3    3    0    0 -0.16341287090E+02  0.21727926123E+02 -0.37016755840E+03  0.37116460193E+03  0.00000000000E+00 0. -1.
          1    1    1    2  501    0 -0.80306051425E+01  0.24393642218E+02 -0.79758097810E+03  0.79799433396E+03  0.00000000000E+00 0. -1.
<mgrwt>
<rscale>  1 0.79758584E+02</rscale>
<asrwt>0</asrwt>
<pdfrwt beam="1">  1       21 0.22740313E-03 0.79758584E+02</pdfrwt>
<pdfrwt beam="2">  1        2 0.31517211E+00 0.79758584E+02</pdfrwt>
<totfact> 0.32403234E+06</totfact>
</mgrwt>
</event>
<event>
 6    2  0.9453093E+000  0.8942363E+02  0.7546771E-02  0.1304253E+00
         -3   -1    0    0    0  501 -0.00000000000E+00  0.00000000000E+00  0.35119173237E+02  0.35119173237E+02  0.00000000000E+00 0.  1.
         21   -1    0    0  501  502  0.00000000000E+00 -0.00000000000E+00 -0.11904561199E+03  0.11904561199E+03  0.00000000000E+00 0. -1.
         24    2    1    2    0    0 -0.31153670254E+02  0.24684432619E+02 -0.54675435997E+02  0.10481406541E+03  0.80104385790E+02 0.  0.
        -13    1    3    3    0    0 -0.21633995125E+02  0.37424118766E+02  0.45728683915E+01  0.43468442988E+02  0.00000000000E+00 0.  1.
         14    1    3    3    0    0 -0.95196751293E+01 -0.12739686147E+02 -0.59248304388E+02  0.61345622424E+02  0.00000000000E+00 0. -1.
         -4    1    1    2    0  502  0.31153670254E+02 -0.24684432619E+02 -0.29251002755E+02  0.49350719814E+02  0.00000000000E+00 0.  1.
<mgrwt>
<rscale>  1 0.89423627E+02</rscale>
<asrwt>0</asrwt>
<pdfrwt beam="1">  1       21 0.18314710E-01 0.89423627E+02</pdfrwt>
<pdfrwt beam="2">  1       -3 0.54029497E-02 0.89423627E+02</pdfrwt>
<totfact> 0.24397064E+05</totfact>
</mgrwt>
</event>
<event>
 6    2  0.9453093E+000  0.1441288E+03  0.7546771E-02  0.1207879E+00
          2   -1    0    0  502    0 -0.00000000000E+00  0.00000000000E+00  0.12347227393E+04  0.12347227393E+04  0.00000000000E+00 0. -1.
         21   -1    0    0  501  502  0.00000000000E+00 -0.00000000000E+00 -0.14839385400E+02  0.14839385400E+02  0.00000000000E+00 0. -1.
         24    2    1    2    0    0 -0.26749459102E+02 -0.11622735450E+03  0.80820415066E+03  0.82095496438E+03  0.80924488894E+02 0.  0.
        -11    1    3    3    0    0  0.43984536384E+01 -0.28997638580E+02  0.57400153112E+02  0.64459188755E+02  0.00000000000E+00 0.  1.
         12    1    3    3    0    0 -0.31147912741E+02 -0.87229715922E+02  0.75080399755E+03  0.75649577563E+03  0.00000000000E+00 0. -1.
          1    1    1    2  501    0  0.26749459102E+02  0.11622735450E+03  0.41167920326E+03  0.42860716034E+03  0.00000000000E+00 0. -1.
<mgrwt>
<rscale>  1 0.14412878E+03</rscale>
<asrwt>0</asrwt>
<pdfrwt beam="1">  1       21 0.22829833E-02 0.14412878E+03</pdfrwt>
<pdfrwt beam="2">  1        2 0.18995726E+00 0.14412878E+03</pdfrwt>
<totfact> 0.24114026E+05</totfact>
</mgrwt>
</event>
<event>
 6    2  0.9453093E+000  0.7949589E+02  0.7546771E-02  0.1330488E+00
         -1   -1    0    0    0  501 -0.00000000000E+00  0.00000000000E+00  0.22177556445E+03  0.22177556445E+03  0.00000000000E+00 0.  1.
         21   -1    0    0  501  502  0.00000000000E+00 -0.00000000000E+00 -0.14692143400E+02  0.14692143400E+02  0.00000000000E+00 0. -1.
         24    2    1    2    0    0 -0.42111246820E-02 -0.20880417126E+02  0.19861850847E+03  0.21393669407E+03  0.76704662983E+02 0.  0.
        -11    1    3    3    0    0 -0.24012076149E+01 -0.41688815273E+02  0.18327552049E+03  0.18797244353E+03  0.00000000000E+00 0.  1.
         12    1    3    3    0    0  0.23969964902E+01  0.20808398147E+02  0.15342987987E+02  0.25964250538E+02  0.00000000000E+00 0. -1.
         -2    1    1    2    0  502  0.42111246820E-02  0.20880417126E+02  0.84649125751E+01  0.22531013780E+02  0.00000000000E+00 0.  1.
<mgrwt>
<rscale>  1 0.79495894E+02</rscale>
<asrwt>0</asrwt>
<pdfrwt beam="1">  1       21 0.22603299E-02 0.79495894E+02</pdfrwt>
<pdfrwt beam="2">  1       -1 0.34119315E-01 0.79495894E+02</pdfrwt>
<totfact> 0.69175090E+05</totfact>
</mgrwt>
</event>
<event>
 6    2  0.1188135E+001  0.9162643E+02  0.7546771E-02  0.1298960E+00
         21   -1    0    0  501  502  0.00000000000E+00  0.00000000000E+00  0.12640357361E+02  0.12640357361E+02  0.00000000000E+00 0. -1.
         -1   -1    0    0    0  501 -0.00000000000E+00 -0.00000000000E+00 -0.53528942233E+03  0.53528942233E+03  0.00000000000E+00 0.  1.
         24    2    1    2    0    0  0.32226405604E+02  0.28057417654E+02 -0.17379901619E+03  0.19647264655E+03  0.81053333735E+02 0.  0.
        -13    1    3    3    0    0  0.42349028109E+02  0.20764235669E+02 -0.17733889300E+03  0.18350388725E+03  0.00000000000E+00 0.  1.
         14    1    3    3    0    0 -0.10122622505E+02  0.72931819852E+01  0.35398768137E+01  0.12968759297E+02  0.00000000000E+00 0. -1.
         -2    1    1    2    0  502 -0.32226405604E+02 -0.28057417654E+02 -0.34885004878E+03  0.35145713314E+03  0.00000000000E+00 0.  1.
<mgrwt>
<rscale>  1 0.91626431E+02</rscale>
<asrwt>0</asrwt>
<pdfrwt beam="1">  1       21 0.19446708E-02 0.91626431E+02</pdfrwt>
<pdfrwt beam="2">  1       -1 0.82352201E-01 0.91626431E+02</pdfrwt>
<totfact> 0.17666259E+05</totfact>
</mgrwt>
</event>
<event>
 6    2  0.9453093E+000  0.8544878E+02  0.7546771E-02  0.1314263E+00
         -1   -1    0    0    0  501 -0.00000000000E+00  0.00000000000E+00  0.80923992057E+03  0.80923992057E+03  0.00000000000E+00 0.  1.
         21   -1    0    0  501  502  0.00000000000E+00 -0.00000000000E+00 -0.43374714394E+01  0.43374714394E+01  0.00000000000E+00 0.  1.
         24    2    1    2    0    0  0.31205542600E+02  0.84655336540E+01  0.54204991940E+03  0.54874366392E+03  0.79095147890E+02 0.  0.
        -11    1    3    3    0    0  0.34412310623E+02  0.40561285121E+02  0.33621970850E+03  0.34040140622E+03  0.00000000000E+00 0.  1.
         12    1    3    3    0    0 -0.32067680235E+01 -0.32095751467E+02  0.20583021090E+03  0.20834225770E+03  0.00000000000E+00 0. -1.
         -2    1    1    2    0  502 -0.31205542600E+02 -0.84655336540E+01  0.26285252974E+03  0.26483372810E+03  0.00000000000E+00 0.  1.
<mgrwt>
<rscale>  1 0.85448777E+02</rscale>
<asrwt>0</asrwt>
<pdfrwt beam="1">  1       21 0.66730394E-03 0.85448777E+02</pdfrwt>
<pdfrwt beam="2">  1       -1 0.12449833E+00 0.85448777E+02</pdfrwt>
<totfact> 0.38051276E+05</totfact>
</mgrwt>
</event>
<event>
 6    2  0.9453093E+000  0.9053934E+02  0.7546771E-02  0.1301551E+00
         -3   -1    0    0    0  501 -0.00000000000E+00  0.00000000000E+00  0.48872502571E+02  0.48872502571E+02  0.00000000000E+00 0.  1.
         21   -1    0    0  501  502  0.00000000000E+00 -0.00000000000E+00 -0.11067275490E+03  0.11067275490E+03  0.00000000000E+00 0.  1.
         24    2    1    2    0    0 -0.16826920160E+02 -0.39558588675E+02 -0.71628944385E+02  0.11544729417E+03  0.79682776538E+02 0.  0.
        -13    1    3    3    0    0 -0.29233315709E+02 -0.37694135578E+02 -0.53605197755E+01  0.48001768473E+02  0.00000000000E+00 0.  1.
         14    1    3    3    0    0  0.12406395549E+02 -0.18644530976E+01 -0.66268424610E+02  0.67445525694E+02  0.00000000000E+00 0. -1.
         -4    1    1    2    0  502  0.16826920160E+02  0.39558588675E+02  0.98286920567E+01  0.44097963304E+02  0.00000000000E+00 0.  1.
<mgrwt>
<rscale>  1 0.90539340E+02</rscale>
<asrwt>0</asrwt>
<pdfrwt beam="1">  1       21 0.17026577E-01 0.90539340E+02</pdfrwt>
<pdfrwt beam="2">  1       -3 0.75188467E-02 0.90539340E+02</pdfrwt>
<totfact> 0.16501162E+05</totfact>
</mgrwt>
</event>
<event>
 6    2  0.9453093E+000  0.8023988E+02  0.7546771E-02  0.1328372E+00
         21   -1    0    0  501  502  0.00000000000E+00  0.00000000000E+00  0.32127690182E+03  0.32127690182E+03  0.00000000000E+00 0.  1.
         -1   -1    0    0    0  501 -0.00000000000E+00 -0.00000000000E+00 -0.15390199031E+02  0.15390199031E+02  0.00000000000E+00 0.  1.
         24    2    1    2    0    0 -0.25838623589E+01  0.22383611230E+02  0.94017472227E+02  0.12360308874E+03  0.77011272335E+02 0.  0.
        -13    1    3    3    0    0  0.36394411211E+02  0.38590904819E+01  0.36426818226E+02  0.51636797275E+02  0.00000000000E+00 0.  1.
         14    1    3    3    0    0 -0.38978273570E+02  0.18524520749E+02  0.57590654001E+02  0.71966291469E+02  0.00000000000E+00 0. -1.
         -2    1    1    2    0  502  0.25838623589E+01 -0.22383611230E+02  0.21186923056E+03  0.21306401210E+03  0.00000000000E+00 0.  1.
<mgrwt>
<rscale>  1 0.80239881E+02</rscale>
<asrwt>0</asrwt>
<pdfrwt beam="1">  1       21 0.49427211E-01 0.80239881E+02</pdfrwt>
<pdfrwt beam="2">  1       -1 0.23677232E-02 0.80239881E+02</pdfrwt>
<totfact> 0.17273730E+05</totfact>
</mgrwt>
</event>
<event>
 6    2  0.9453093E+000  0.1149740E+03  0.7546771E-02  0.1251626E+00
         21   -1    0    0  501  502  0.00000000000E+00  0.00000000000E+00  0.46385847853E+02  0.46385847853E+02  0.00000000000E+00 0. -1.
         -3   -1    0    0    0  501 -0.00000000000E+00 -0.00000000000E+00 -0.26464156157E+03  0.26464156157E+03  0.00000000000E+00 0.  1.
         24    2    1    2    0    0 -0.75398506164E+02  0.35971444519E+02 -0.54593798255E+02  0.12727730160E+03  0.78994614639E+02 0.  0.
        -13    1    3    3    0    0 -0.30474041149E+02 -0.59788661954E+01 -0.57921571847E+02  0.65721552859E+02  0.00000000000E+00 0.  1.
         14    1    3    3    0    0 -0.44924465015E+02  0.41950310715E+02  0.33277735923E+01  0.61555748741E+02  0.00000000000E+00 0. -1.
         -4    1    1    2    0  502  0.75398506164E+02 -0.35971444519E+02 -0.16366191546E+03  0.18375010782E+03  0.00000000000E+00 0.  1.
<mgrwt>
<rscale>  1 0.11497403E+03</rscale>
<asrwt>0</asrwt>
<pdfrwt beam="1">  1       21 0.71362843E-02 0.11497403E+03</pdfrwt>
<pdfrwt beam="2">  1       -3 0.40714086E-01 0.11497403E+03</pdfrwt>
<totfact> 0.41400292E+04</totfact>
</mgrwt>
</event>
<event>
 6    2  0.9453093E+000  0.9138075E+02  0.7546771E-02  0.1299542E+00
          2   -1    0    0  502    0 -0.00000000000E+00  0.00000000000E+00  0.21144470930E+04  0.21144470930E+04  0.00000000000E+00 0. -1.
         21   -1    0    0  501  502  0.00000000000E+00 -0.00000000000E+00 -0.15155618878E+01  0.15155618878E+01  0.00000000000E+00 0.  1.
         24    2    1    2    0    0  0.92419963422E+01  0.17933544160E+02  0.18515835686E+04  0.18538371429E+04  0.89125835461E+02 0.  0.
        -13    1    3    3    0    0  0.37662037687E+02 -0.72532828129E+01  0.41936885823E+03  0.42111907871E+03  0.00000000000E+00 0.  1.
         14    1    3    3    0    0 -0.28420041345E+02  0.25186826973E+02  0.14322147103E+04  0.14327180642E+04  0.00000000000E+00 0. -1.
          1    1    1    2  501    0 -0.92419963422E+01 -0.17933544160E+02  0.26134796250E+03  0.26212551193E+03  0.00000000000E+00 0. -1.
<mgrwt>
<rscale>  1 0.91380748E+02</rscale>
<asrwt>0</asrwt>
<pdfrwt beam="1">  1       21 0.23316506E-03 0.91380748E+02</pdfrwt>
<pdfrwt beam="2">  1        2 0.32529719E+00 0.91380748E+02</pdfrwt>
<totfact> 0.29208181E+06</totfact>
</mgrwt>
</event>
<event>
 6    2  0.9453093E+000  0.8239160E+02  0.7546771E-02  0.1322398E+00
         -3   -1    0    0    0  501 -0.00000000000E+00  0.00000000000E+00  0.14062426856E+03  0.14062426856E+03  0.00000000000E+00 0.  1.
         21   -1    0    0  501  502  0.00000000000E+00 -0.00000000000E+00 -0.27736323050E+02  0.27736323050E+02  0.00000000000E+00 0.  1.
         24    2    1    2    0    0  0.16070459599E+02  0.12180491770E+02  0.12119718733E+03  0.14655078760E+03  0.79885862806E+02 0.  0.
        -13    1    3    3    0    0  0.16760616225E+02  0.36729369542E+02  0.11403242391E+03  0.12096841963E+03  0.00000000000E+00 0.  1.
         14    1    3    3    0    0 -0.69015662556E+00 -0.24548877772E+02  0.71647634170E+01  0.25582367968E+02  0.00000000000E+00 0. -1.
         -4    1    1    2    0  502 -0.16070459599E+02 -0.12180491770E+02 -0.83092418226E+01  0.21809804014E+02  0.00000000000E+00 0.  1.
<mgrwt>
<rscale>  1 0.82391596E+02</rscale>
<asrwt>0</asrwt>
<pdfrwt beam="1">  1       21 0.42671267E-02 0.82391596E+02</pdfrwt>
<pdfrwt beam="2">  1       -3 0.21634502E-01 0.82391596E+02</pdfrwt>
<totfact> 0.29897531E+05</totfact>
</mgrwt>
</event>
<event>
 6    2  0.9453093E+000  0.8547390E+02  0.7546771E-02  0.1314198E+00
          2   -1    0    0  502    0 -0.00000000000E+00  0.00000000000E+00  0.22790209944E+03  0.22790209944E+03  0.00000000000E+00 0. -1.
         21   -1    0    0  501  502  0.00000000000E+00 -0.00000000000E+00 -0.28678680330E+02  0.28678680330E+02  0.00000000000E+00 0. -1.
         24    2    1    2    0    0 -0.21756943038E+02 -0.20329271767E+02  0.20854318675E+03  0.22537978733E+03  0.80119560258E+02 0.  0.
        -13    1    3    3    0    0  0.24819098952E+02  0.30707576201E+01  0.12046968607E+03  0.12303805301E+03  0.00000000000E+00 0.  1.
         14    1    3    3    0    0 -0.46576041990E+02 -0.23400029387E+02  0.88073500676E+02  0.10234173432E+03  0.00000000000E+00 0. -1.
          1    1    1    2  501    0  0.21756943038E+02  0.20329271767E+02 -0.93197676341E+01  0.31200992447E+02  0.00000000000E+00 0. -1.
<mgrwt>
<rscale>  1 0.85473901E+02</rscale>
<asrwt>0</asrwt>
<pdfrwt beam="1">  1       21 0.44121048E-02 0.85473901E+02</pdfrwt>
<pdfrwt beam="2">  1        2 0.35061860E-01 0.85473901E+02</pdfrwt>
<totfact> 0.56888296E+05</totfact>
</mgrwt>
</event>
<event>
 6    2  0.9453093E+000  0.8573188E+02  0.7546771E-02  0.1313530E+00
          2   -1    0    0  502    0 -0.00000000000E+00  0.00000000000E+00  0.51895644138E+03  0.51895644138E+03  0.00000000000E+00 0. -1.
         21   -1    0    0  501  502  0.00000000000E+00 -0.00000000000E+00 -0.65831115968E+01  0.65831115968E+01  0.00000000000E+00 0.  1.
         24    2    1    2    0    0 -0.30075072384E+02  0.82340025984E+00  0.34565541170E+03  0.35612865552E+03  0.80279310402E+02 0.  0.
        -13    1    3    3    0    0 -0.21791815602E+02  0.33728042855E+02  0.94304701004E+02  0.10249800356E+03  0.00000000000E+00 0.  1.
         14    1    3    3    0    0 -0.82832567817E+01 -0.32904642595E+02  0.25135071070E+03  0.25363065196E+03  0.00000000000E+00 0. -1.
          1    1    1    2  501    0  0.30075072384E+02 -0.82340025984E+00  0.16671791808E+03  0.16941089746E+03  0.00000000000E+00 0. -1.
<mgrwt>
<rscale>  1 0.85731882E+02</rscale>
<asrwt>0</asrwt>
<pdfrwt beam="1">  1       21 0.10127868E-02 0.85731882E+02</pdfrwt>
<pdfrwt beam="2">  1        2 0.79839420E-01 0.85731882E+02</pdfrwt>
<totfact> 0.25324285E+06</totfact>
</mgrwt>
</event>
<event>
 6    2  0.9453093E+000  0.9265651E+02  0.7546771E-02  0.1296543E+00
          2   -1    0    0  502    0 -0.00000000000E+00  0.00000000000E+00  0.58091764039E+03  0.58091764039E+03  0.00000000000E+00 0. -1.
         21   -1    0    0  501  502  0.00000000000E+00 -0.00000000000E+00 -0.90057596631E+01  0.90057596631E+01  0.00000000000E+00 0.  1.
         24    2    1    2    0    0  0.32369395151E+02 -0.29433404277E+02  0.46953552410E+03  0.47859046950E+03  0.81676961700E+02 0.  0.
        -13    1    3    3    0    0  0.16964471404E+02 -0.55518410500E+02  0.37064823269E+03  0.37516689565E+03  0.00000000000E+00 0.  1.
         14    1    3    3    0    0  0.15404923748E+02  0.26085006223E+02  0.98887291410E+02  0.10342357385E+03  0.00000000000E+00 0. -1.
          1    1    1    2  501    0 -0.32369395151E+02  0.29433404277E+02  0.10237635663E+03  0.11133293056E+03  0.00000000000E+00 0. -1.
<mgrwt>
<rscale>  1 0.92656511E+02</rscale>
<asrwt>0</asrwt>
<pdfrwt beam="1">  1       21 0.13855019E-02 0.92656511E+02</pdfrwt>
<pdfrwt beam="2">  1        2 0.89371915E-01 0.92656511E+02</pdfrwt>
<totfact> 0.13796071E+06</totfact>
</mgrwt>
</event>
<event>
 6    2  0.9453093E+000  0.8570361E+02  0.7546771E-02  0.1313603E+00
          2   -1    0    0  502    0 -0.00000000000E+00  0.00000000000E+00  0.30169752505E+03  0.30169752505E+03  0.00000000000E+00 0. -1.
         21   -1    0    0  501  502  0.00000000000E+00 -0.00000000000E+00 -0.12044610069E+02  0.12044610069E+02  0.00000000000E+00 0.  1.
         24    2    1    2    0    0  0.19462813945E+02  0.26175611861E+02  0.18038371425E+03  0.19970827167E+03  0.79253678948E+02 0.  0.
        -11    1    3    3    0    0  0.22010976278E+02  0.70447334325E+01  0.54914203235E+01  0.23754305779E+02  0.00000000000E+00 0.  1.
         12    1    3    3    0    0 -0.25481623329E+01  0.19130878429E+02  0.17489229392E+03  0.17595396590E+03  0.00000000000E+00 0. -1.
          1    1    1    2  501    0 -0.19462813945E+02 -0.26175611861E+02  0.10926920074E+03  0.11403386345E+03  0.00000000000E+00 0. -1.
<mgrwt>
<rscale>  1 0.85703614E+02</rscale>
<asrwt>0</asrwt>
<pdfrwt beam="1">  1       21 0.18530172E-02 0.85703614E+02</pdfrwt>
<pdfrwt beam="2">  1        2 0.46414998E-01 0.85703614E+02</pdfrwt>
<totfact> 0.17309017E+06</totfact>
</mgrwt>
</event>
<event>
 6    2  0.9453093E+000  0.9181009E+02  0.7546771E-02  0.1298527E+00
         21   -1    0    0  501  502  0.00000000000E+00  0.00000000000E+00  0.94689101530E+02  0.94689101530E+02  0.00000000000E+00 0. -1.
          2   -1    0    0  502    0 -0.00000000000E+00 -0.00000000000E+00 -0.67652177417E+02  0.67652177417E+02  0.00000000000E+00 0. -1.
         24    2    1    2    0    0 -0.41666237400E+02 -0.13493013012E+02 -0.24191019594E+02  0.94943660623E+02  0.80690498352E+02 0.  0.
        -13    1    3    3    0    0 -0.95138592248E+01  0.18717198390E+02  0.21781809336E+02  0.30253830350E+02  0.00000000000E+00 0.  1.
         14    1    3    3    0    0 -0.32152378175E+02 -0.32210211402E+02 -0.45972828930E+02  0.64689830273E+02  0.00000000000E+00 0. -1.
          1    1    1    2  501    0  0.41666237400E+02  0.13493013012E+02  0.51227943707E+02  0.67397618323E+02  0.00000000000E+00 0. -1.
<mgrwt>
<rscale>  1 0.91810093E+02</rscale>
<asrwt>0</asrwt>
<pdfrwt beam="1">  1       21 0.14567554E-01 0.91810093E+02</pdfrwt>
<pdfrwt beam="2">  1        2 0.10408027E-01 0.91810093E+02</pdfrwt>
<totfact> 0.29089716E+05</totfact>
</mgrwt>
</event>
<event>
 6    2  0.9453093E+000  0.8798498E+02  0.7546771E-02  0.1307806E+00
          2   -1    0    0  502    0 -0.00000000000E+00  0.00000000000E+00  0.12782508623E+04  0.12782508623E+04  0.00000000000E+00 0. -1.
         21   -1    0    0  501  502  0.00000000000E+00 -0.00000000000E+00 -0.28375308569E+01  0.28375308569E+01  0.00000000000E+00 0.  1.
         24    2    1    2    0    0  0.20392103990E+02 -0.19523752226E+02  0.10891067914E+04  0.10926550053E+04  0.83332722681E+02 0.  0.
        -11    1    3    3    0    0  0.33046470425E+02 -0.13715098526E+01  0.16494929973E+03  0.16823264169E+03  0.00000000000E+00 0.  1.
         12    1    3    3    0    0 -0.12654366435E+02 -0.18152242374E+02  0.92415749169E+03  0.92442236361E+03  0.00000000000E+00 0. -1.
          1    1    1    2  501    0 -0.20392103990E+02  0.19523752226E+02  0.18630653998E+03  0.18843338782E+03  0.00000000000E+00 0. -1.
<mgrwt>
<rscale>  1 0.87984984E+02</rscale>
<asrwt>0</asrwt>
<pdfrwt beam="1">  1       21 0.43654423E-03 0.87984984E+02</pdfrwt>
<pdfrwt beam="2">  1        2 0.19665352E+00 0.87984984E+02</pdfrwt>
<totfact> 0.29926401E+06</totfact>
</mgrwt>
</event>
<event>
 6    2  0.9453093E+000  0.7343189E+02  0.7546771E-02  0.1348797E+00
         -1   -1    0    0    0  501 -0.00000000000E+00  0.00000000000E+00  0.74065658506E+02  0.74065658506E+02  0.00000000000E+00 0.  1.
         21   -1    0    0  501  502  0.00000000000E+00 -0.00000000000E+00 -0.45213448087E+02  0.45213448087E+02  0.00000000000E+00 0. -1.
         24    2    1    2    0    0  0.24575158251E+02 -0.23486669001E+02 -0.18757810735E+01  0.73455843014E+02  0.65089786406E+02 0.  0.
        -11    1    3    3    0    0 -0.22100570500E+02 -0.12431444467E+02  0.12434462404E+01  0.25387441512E+02  0.00000000000E+00 0.  1.
         12    1    3    3    0    0  0.46675728751E+02 -0.11055224534E+02 -0.31192273139E+01  0.48068401502E+02  0.00000000000E+00 0. -1.
         -2    1    1    2    0  502 -0.24575158251E+02  0.23486669001E+02  0.30727991492E+02  0.45823263579E+02  0.00000000000E+00 0.  1.
<mgrwt>
<rscale>  1 0.73431889E+02</rscale>
<asrwt>0</asrwt>
<pdfrwt beam="1">  1       21 0.69559151E-02 0.73431889E+02</pdfrwt>
<pdfrwt beam="2">  1       -1 0.11394717E-01 0.73431889E+02</pdfrwt>
<totfact> 0.61679988E+05</totfact>
</mgrwt>
</event>
<event>
 6    2  0.9453093E+000  0.8466002E+02  0.7546771E-02  0.1316324E+00
         21   -1    0    0  501  502  0.00000000000E+00  0.00000000000E+00  0.18758339911E+01  0.18758339911E+01  0.00000000000E+00 0. -1.
          2   -1    0    0  502    0 -0.00000000000E+00 -0.00000000000E+00 -0.18201549568E+04  0.18201549568E+04  0.00000000000E+00 0. -1.
         24    2    1    2    0    0  0.23920983364E+01 -0.26797381882E+02 -0.15738787418E+04  0.15761540574E+04  0.80271394671E+02 0.  0.
        -11    1    3    3    0    0 -0.14404643521E+02  0.18288655058E+02 -0.18736071066E+03  0.18880149512E+03  0.00000000000E+00 0.  1.
         12    1    3    3    0    0  0.16796741857E+02 -0.45086036940E+02 -0.13865180312E+04  0.13873525623E+04  0.00000000000E+00 0. -1.
          1    1    1    2  501    0 -0.23920983364E+01  0.26797381882E+02 -0.24440038100E+03  0.24587673343E+03  0.00000000000E+00 0. -1.
<mgrwt>
<rscale>  1 0.84660018E+02</rscale>
<asrwt>0</asrwt>
<pdfrwt beam="1">  1       21 0.28858999E-03 0.84660018E+02</pdfrwt>
<pdfrwt beam="2">  1        2 0.28002370E+00 0.84660018E+02</pdfrwt>
<totfact> 0.29591025E+06</totfact>
</mgrwt>
</event>
<event>
 6    2  0.9453093E+000  0.8541929E+02  0.7546771E-02  0.1314340E+00
         -3   -1    0    0    0  501 -0.00000000000E+00  0.00000000000E+00  0.17751926123E+02  0.17751926123E+02  0.00000000000E+00 0.  1.
         21   -1    0    0  501  502  0.00000000000E+00 -0.00000000000E+00 -0.35656435460E+03  0.35656435460E+03  0.00000000000E+00 0.  1.
         24    2    1    2    0    0 -0.60708227144E+01  0.26274448106E+02 -0.90132842276E+02  0.12417884229E+03  0.81050935247E+02 0.  0.
        -13    1    3    3    0    0 -0.13999348385E+02  0.54216557046E+02 -0.64767933443E+02  0.85617182946E+02  0.00000000000E+00 0.  1.
         14    1    3    3    0    0  0.79285256703E+01 -0.27942108940E+02 -0.25364908833E+02  0.38561659345E+02  0.00000000000E+00 0. -1.
         -4    1    1    2    0  502  0.60708227144E+01 -0.26274448106E+02 -0.24867958620E+03  0.25013743843E+03  0.00000000000E+00 0.  1.
<mgrwt>
<rscale>  1 0.85419293E+02</rscale>
<asrwt>0</asrwt>
<pdfrwt beam="1">  1       21 0.54856055E-01 0.85419293E+02</pdfrwt>
<pdfrwt beam="2">  1       -3 0.27310655E-02 0.85419293E+02</pdfrwt>
<totfact> 0.84107030E+04</totfact>
</mgrwt>
</event>
<event>
 6    2  0.9453093E+000  0.8517406E+02  0.7546771E-02  0.1314978E+00
          2   -1    0    0  502    0 -0.00000000000E+00  0.00000000000E+00  0.49467310703E+02  0.49467310703E+02  0.00000000000E+00 0. -1.
         21   -1    0    0  501  502  0.00000000000E+00 -0.00000000000E+00 -0.83891710925E+02  0.83891710925E+02  0.00000000000E+00 0.  1.
         24    2    1    2    0    0  0.31043025655E+02  0.14159831673E+02 -0.40192190205E+00  0.85175006582E+02  0.78041334754E+02 0.  0.
        -11    1    3    3    0    0 -0.67715468054E+01  0.16338544726E+01 -0.32984332269E+02  0.33711859958E+02  0.00000000000E+00 0.  1.
         12    1    3    3    0    0  0.37814572461E+02  0.12525977200E+02  0.32582410367E+02  0.51463146625E+02  0.00000000000E+00 0. -1.
          1    1    1    2  501    0 -0.31043025655E+02 -0.14159831673E+02 -0.34022478321E+02  0.48184015046E+02  0.00000000000E+00 0. -1.
<mgrwt>
<rscale>  1 0.85174058E+02</rscale>
<asrwt>0</asrwt>
<pdfrwt beam="1">  1       21 0.12906417E-01 0.85174058E+02</pdfrwt>
<pdfrwt beam="2">  1        2 0.76103557E-02 0.85174058E+02</pdfrwt>
<totfact> 0.52551919E+05</totfact>
</mgrwt>
</event>
<event>
 6    2  0.9453093E+000  0.8847400E+02  0.7546771E-02  0.1306590E+00
          4   -1    0    0  502    0 -0.00000000000E+00  0.00000000000E+00  0.73670023485E+02  0.73670023485E+02  0.00000000000E+00 0. -1.
         21   -1    0    0  501  502  0.00000000000E+00 -0.00000000000E+00 -0.19064097809E+03  0.19064097809E+03  0.00000000000E+00 0. -1.
         24    2    1    2    0    0 -0.15668935663E+02  0.30911801309E+02  0.44589656938E+02  0.99075151328E+02  0.81403888727E+02 0.  0.
        -13    1    3    3    0    0 -0.26869421249E+02  0.38411963246E+02 -0.55045775499E+01  0.47198994615E+02  0.00000000000E+00 0.  1.
         14    1    3    3    0    0  0.11200485586E+02 -0.75001619368E+01  0.50094234488E+02  0.51876156713E+02  0.00000000000E+00 0. -1.
          3    1    1    2  501    0  0.15668935663E+02 -0.30911801309E+02 -0.16156061154E+03  0.16523585024E+03  0.00000000000E+00 0. -1.
<mgrwt>
<rscale>  1 0.88473997E+02</rscale>
<asrwt>0</asrwt>
<pdfrwt beam="1">  1       21 0.29329381E-01 0.88473997E+02</pdfrwt>
<pdfrwt beam="2">  1        4 0.11333850E-01 0.88473997E+02</pdfrwt>
<totfact> 0.26531031E+04</totfact>
</mgrwt>
</event>
<event>
 6    2  0.9453093E+000  0.1431650E+03  0.7546771E-02  0.1209133E+00
          4   -1    0    0  502    0 -0.00000000000E+00  0.00000000000E+00  0.16119787198E+02  0.16119787198E+02  0.00000000000E+00 0. -1.
         21   -1    0    0  501  502  0.00000000000E+00 -0.00000000000E+00 -0.10781220460E+04  0.10781220460E+04  0.00000000000E+00 0. -1.
         24    2    1    2    0    0 -0.89453247199E+02  0.66668699909E+02 -0.73265948890E+03  0.74651599425E+03  0.89719585488E+02 0.  0.
        -11    1    3    3    0    0 -0.91228143373E+01  0.14348270284E+02 -0.39887692182E+03  0.39923914808E+03  0.00000000000E+00 0.  1.
         12    1    3    3    0    0 -0.80330432862E+02  0.52320429625E+02 -0.33378256707E+03  0.34727684617E+03  0.00000000000E+00 0. -1.
          3    1    1    2  501    0  0.89453247199E+02 -0.66668699909E+02 -0.32934276990E+03  0.34772583894E+03  0.00000000000E+00 0. -1.
<mgrwt>
<rscale>  1 0.14316495E+03</rscale>
<asrwt>0</asrwt>
<pdfrwt beam="1">  1       21 0.16586499E+00 0.14316495E+03</pdfrwt>
<pdfrwt beam="2">  1        4 0.24799663E-02 0.14316495E+03</pdfrwt>
<totfact> 0.69623818E+03</totfact>
</mgrwt>
</event>
<event>
 6    2  0.9453093E+000  0.1109971E+03  0.7546771E-02  0.1258734E+00
         21   -1    0    0  501  502  0.00000000000E+00  0.00000000000E+00  0.52120213044E+03  0.52120213044E+03  0.00000000000E+00 0.  1.
          4   -1    0    0  502    0 -0.00000000000E+00 -0.00000000000E+00 -0.19085886735E+02  0.19085886735E+02  0.00000000000E+00 0. -1.
         24    2    1    2    0    0 -0.50838343009E+02  0.56610129549E+02  0.19998458374E+03  0.22872296163E+03  0.80815317565E+02 0.  0.
        -11    1    3    3    0    0 -0.14197138390E+02  0.16648565706E+02  0.15966420670E+03  0.16115642208E+03  0.00000000000E+00 0.  1.
         12    1    3    3    0    0 -0.36641204619E+02  0.39961563843E+02  0.40320377044E+02  0.67566539542E+02  0.00000000000E+00 0. -1.
          3    1    1    2  501    0  0.50838343009E+02 -0.56610129549E+02  0.30213165997E+03  0.31156505555E+03  0.00000000000E+00 0. -1.
<mgrwt>
<rscale>  1 0.11099711E+03</rscale>
<asrwt>0</asrwt>
<pdfrwt beam="1">  1       21 0.80184932E-01 0.11099711E+03</pdfrwt>
<pdfrwt beam="2">  1        4 0.29362907E-02 0.11099711E+03</pdfrwt>
<totfact> 0.30738081E+04</totfact>
</mgrwt>
</event>
<event>
 6    2  0.9453093E+000  0.8656012E+02  0.7546771E-02  0.1311402E+00
         21   -1    0    0  501  502  0.00000000000E+00  0.00000000000E+00  0.12441026773E+01  0.12441026773E+01  0.00000000000E+00 0.  1.
          2   -1    0    0  502    0 -0.00000000000E+00 -0.00000000000E+00 -0.27658348166E+04  0.27658348166E+04  0.00000000000E+00 0. -1.
         24    2    1    2    0    0 -0.22794665467E+02 -0.51398906987E+01 -0.24871860919E+04  0.24886918873E+04  0.83346499343E+02 0.  0.
        -11    1    3    3    0    0  0.97374439064E+01 -0.22642641939E+02 -0.25242542251E+03  0.25362590754E+03  0.00000000000E+00 0.  1.
         12    1    3    3    0    0 -0.32532109373E+02  0.17502751240E+02 -0.22347606694E+04  0.22350659797E+04  0.00000000000E+00 0. -1.
          1    1    1    2  501    0  0.22794665467E+02  0.51398906987E+01 -0.27740462203E+03  0.27838703198E+03  0.00000000000E+00 0. -1.
<mgrwt>
<rscale>  1 0.86560119E+02</rscale>
<asrwt>0</asrwt>
<pdfrwt beam="1">  1       21 0.19140369E-03 0.86560119E+02</pdfrwt>
<pdfrwt beam="2">  1        2 0.42550576E+00 0.86560119E+02</pdfrwt>
<totfact> 0.17892705E+06</totfact>
</mgrwt>
</event>
<event>
 6    2  0.9453093E+000  0.1617700E+03  0.7546771E-02  0.1186713E+00
         21   -1    0    0  501  502  0.00000000000E+00  0.00000000000E+00  0.77962658188E+02  0.77962658188E+02  0.00000000000E+00 0. -1.
          2   -1    0    0  502    0 -0.00000000000E+00 -0.00000000000E+00 -0.43118710175E+03  0.43118710175E+03  0.00000000000E+00 0. -1.
         24    2    1    2    0    0 -0.12033704660E+03  0.71830484838E+02 -0.32942012357E+03  0.36699748599E+03  0.80801692910E+02 0.  0.
        -13    1    3    3    0    0 -0.55327572296E+02  0.78756007902E+02 -0.18849298896E+03  0.21164417290E+03  0.00000000000E+00 0.  1.
         14    1    3    3    0    0 -0.65009474308E+02 -0.69255230643E+01 -0.14092713460E+03  0.15535331309E+03  0.00000000000E+00 0. -1.
          1    1    1    2  501    0  0.12033704660E+03 -0.71830484838E+02 -0.23804319996E+02  0.14215227395E+03  0.00000000000E+00 0. -1.
<mgrwt>
<rscale>  1 0.16177001E+03</rscale>
<asrwt>0</asrwt>
<pdfrwt beam="1">  1       21 0.11994255E-01 0.16177001E+03</pdfrwt>
<pdfrwt beam="2">  1        2 0.66336476E-01 0.16177001E+03</pdfrwt>
<totfact> 0.53891334E+04</totfact>
</mgrwt>
</event>
<event>
 6    2  0.9453093E+000  0.8421751E+02  0.7546771E-02  0.1317492E+00
         21   -1    0    0  501  502  0.00000000000E+00  0.00000000000E+00  0.65107180413E+01  0.65107180413E+01  0.00000000000E+00 0. -1.
          2   -1    0    0  502    0 -0.00000000000E+00 -0.00000000000E+00 -0.25448989633E+04  0.25448989633E+04  0.00000000000E+00 0. -1.
         24    2    1    2    0    0 -0.21204858632E+02  0.23631179850E+01 -0.25246037530E+04  0.25260080557E+04  0.81469980945E+02 0.  0.
        -11    1    3    3    0    0  0.19974227456E+02 -0.45090168026E+01 -0.20324358521E+03  0.20427250408E+03  0.00000000000E+00 0.  1.
         12    1    3    3    0    0 -0.41179086087E+02  0.68721347875E+01 -0.23213601677E+04  0.23217355516E+04  0.00000000000E+00 0. -1.
          1    1    1    2  501    0  0.21204858632E+02 -0.23631179850E+01 -0.13784492317E+02  0.25401625630E+02  0.00000000000E+00 0. -1.
<mgrwt>
<rscale>  1 0.84217505E+02</rscale>
<asrwt>0</asrwt>
<pdfrwt beam="1">  1       21 0.10016500E-02 0.84217505E+02</pdfrwt>
<pdfrwt beam="2">  1        2 0.39152249E+00 0.84217505E+02</pdfrwt>
<totfact> 0.18785285E+05</totfact>
</mgrwt>
</event>
<event>
 6    2  0.9453093E+000  0.9937528E+02  0.7546771E-02  0.1281615E+00
         21   -1    0    0  501  502  0.00000000000E+00  0.00000000000E+00  0.18662680848E+02  0.18662680848E+02  0.00000000000E+00 0. -1.
          2   -1    0    0  502    0 -0.00000000000E+00 -0.00000000000E+00 -0.57120041506E+03  0.57120041506E+03  0.00000000000E+00 0. -1.
         24    2    1    2    0    0 -0.59006145505E+02 -0.11545974549E+02 -0.50073170839E+03  0.51049749223E+03  0.79122759363E+02 0.  0.
        -13    1    3    3    0    0 -0.39835531792E+02  0.45194553990E+01 -0.84641321063E+02  0.93656010493E+02  0.00000000000E+00 0.  1.
         14    1    3    3    0    0 -0.19170613713E+02 -0.16065429948E+02 -0.41609038733E+03  0.41684148174E+03  0.00000000000E+00 0. -1.
          1    1    1    2  501    0  0.59006145505E+02  0.11545974549E+02 -0.51806025817E+02  0.79365603675E+02  0.00000000000E+00 0. -1.
<mgrwt>
<rscale>  1 0.99375278E+02</rscale>
<asrwt>0</asrwt>
<pdfrwt beam="1">  1       21 0.28711819E-02 0.99375278E+02</pdfrwt>
<pdfrwt beam="2">  1        2 0.87876979E-01 0.99375278E+02</pdfrwt>
<totfact> 0.43985337E+05</totfact>
</mgrwt>
</event>
<event>
 6    2  0.9453093E+000  0.8553937E+02  0.7546771E-02  0.1314028E+00
          2   -1    0    0  502    0 -0.00000000000E+00  0.00000000000E+00  0.12641199816E+04  0.12641199816E+04  0.00000000000E+00 0. -1.
         21   -1    0    0  501  502  0.00000000000E+00 -0.00000000000E+00 -0.12316395831E+02  0.12316395831E+02  0.00000000000E+00 0. -1.
         24    2    1    2    0    0  0.27361348949E+02 -0.45760344837E+01  0.12449179681E+04  0.12478532489E+04  0.80916004542E+02 0.  0.
        -11    1    3    3    0    0  0.30449076218E+02  0.34148483556E+02  0.58022359908E+03  0.58202464733E+03  0.00000000000E+00 0.  1.
         12    1    3    3    0    0 -0.30877272692E+01 -0.38724518039E+02  0.66469436906E+03  0.66582860153E+03  0.00000000000E+00 0. -1.
          1    1    1    2  501    0 -0.27361348949E+02  0.45760344837E+01  0.68856176122E+01  0.28583128551E+02  0.00000000000E+00 0. -1.
<mgrwt>
<rscale>  1 0.85539367E+02</rscale>
<asrwt>0</asrwt>
<pdfrwt beam="1">  1       21 0.18948311E-02 0.85539367E+02</pdfrwt>
<pdfrwt beam="2">  1        2 0.19447989E+00 0.85539367E+02</pdfrwt>
<totfact> 0.30861491E+05</totfact>
</mgrwt>
</event>
<event>
 6    2  0.9453093E+000  0.1423676E+03  0.7546771E-02  0.1210178E+00
         21   -1    0    0  501  502  0.00000000000E+00  0.00000000000E+00  0.31267615442E+03  0.31267615442E+03  0.00000000000E+00 0.  1.
         -3   -1    0    0    0  501 -0.00000000000E+00 -0.00000000000E+00 -0.66121104544E+02  0.66121104544E+02  0.00000000000E+00 0.  1.
         24    2    1    2    0    0  0.64667986799E+02 -0.96886673150E+02  0.51094497448E+02  0.15125868310E+03  0.81850874110E+02 0.  0.
        -13    1    3    3    0    0  0.62258419646E+02 -0.91185389777E+02  0.11303807978E+02  0.11098946887E+03  0.00000000000E+00 0.  1.
         14    1    3    3    0    0  0.24095671532E+01 -0.57012833733E+01  0.39790689470E+02  0.40269214227E+02  0.00000000000E+00 0. -1.
         -4    1    1    2    0  502 -0.64667986799E+02  0.96886673150E+02  0.19546055243E+03  0.22753857586E+03  0.00000000000E+00 0.  1.
<mgrwt>
<rscale>  1 0.14236763E+03</rscale>
<asrwt>0</asrwt>
<pdfrwt beam="1">  1       21 0.48104023E-01 0.14236763E+03</pdfrwt>
<pdfrwt beam="2">  1       -3 0.10172478E-01 0.14236763E+03</pdfrwt>
<totfact> 0.14378284E+04</totfact>
</mgrwt>
</event>
<event>
 6    2  0.9453093E+000  0.8298146E+02  0.7546771E-02  0.1320797E+00
          2   -1    0    0  502    0 -0.00000000000E+00  0.00000000000E+00  0.80778698753E+02  0.80778698753E+02  0.00000000000E+00 0. -1.
         21   -1    0    0  501  502  0.00000000000E+00 -0.00000000000E+00 -0.16166967849E+03  0.16166967849E+03  0.00000000000E+00 0.  1.
         24    2    1    2    0    0  0.17579542221E+02 -0.11298914486E+02  0.58481122703E+02  0.10151829276E+03  0.80307012643E+02 0.  0.
        -11    1    3    3    0    0  0.23492180309E+02 -0.84795846892E+01 -0.14073945433E+02  0.28668132695E+02  0.00000000000E+00 0.  1.
         12    1    3    3    0    0 -0.59126380886E+01 -0.28193297972E+01  0.72555068135E+02  0.72850160067E+02  0.00000000000E+00 0. -1.
          1    1    1    2  501    0 -0.17579542221E+02  0.11298914486E+02 -0.13937210244E+03  0.14093008448E+03  0.00000000000E+00 0. -1.
<mgrwt>
<rscale>  1 0.82981456E+02</rscale>
<asrwt>0</asrwt>
<pdfrwt beam="1">  1       21 0.24872258E-01 0.82981456E+02</pdfrwt>
<pdfrwt beam="2">  1        2 0.12427492E-01 0.82981456E+02</pdfrwt>
<totfact> 0.88277970E+04</totfact>
</mgrwt>
</event>
<event>
 6    2  0.9453093E+000  0.8632108E+02  0.7546771E-02  0.1312013E+00
         21   -1    0    0  501  502  0.00000000000E+00  0.00000000000E+00  0.76637214056E+02  0.76637214056E+02  0.00000000000E+00 0. -1.
          2   -1    0    0  502    0 -0.00000000000E+00 -0.00000000000E+00 -0.69802637642E+02  0.69802637642E+02  0.00000000000E+00 0. -1.
         24    2    1    2    0    0  0.21233674097E+02  0.18888893527E+02 -0.37228536298E+02  0.94006874324E+02  0.81508706841E+02 0.  0.
        -13    1    3    3    0    0 -0.16209757407E+02 -0.22566165070E+02 -0.23726008589E+02  0.36536441051E+02  0.00000000000E+00 0.  1.
         14    1    3    3    0    0  0.37443431503E+02  0.41455058597E+02 -0.13502527709E+02  0.57470433273E+02  0.00000000000E+00 0. -1.
          1    1    1    2  501    0 -0.21233674097E+02 -0.18888893527E+02  0.44063112713E+02  0.52432977374E+02  0.00000000000E+00 0. -1.
<mgrwt>
<rscale>  1 0.86321078E+02</rscale>
<asrwt>0</asrwt>
<pdfrwt beam="1">  1       21 0.11790341E-01 0.86321078E+02</pdfrwt>
<pdfrwt beam="2">  1        2 0.10738867E-01 0.86321078E+02</pdfrwt>
<totfact> 0.40485241E+05</totfact>
</mgrwt>
</event>
<event>
 6    2  0.9453093E+000  0.8580353E+02  0.7546771E-02  0.1313345E+00
         21   -1    0    0  501  502  0.00000000000E+00  0.00000000000E+00  0.34833019433E+03  0.34833019433E+03  0.00000000000E+00 0.  1.
          4   -1    0    0  502    0 -0.00000000000E+00 -0.00000000000E+00 -0.11894403582E+02  0.11894403582E+02  0.00000000000E+00 0. -1.
         24    2    1    2    0    0  0.68687774349E+01  0.32501968497E+02  0.29438827678E+03  0.30663773860E+03  0.79111864919E+02 0.  0.
        -11    1    3    3    0    0 -0.27260977980E+02  0.33225525094E+02  0.22769306040E+03  0.23171367287E+03  0.00000000000E+00 0.  1.
         12    1    3    3    0    0  0.34129755415E+02 -0.72355659712E+00  0.66695216377E+02  0.74924065736E+02  0.00000000000E+00 0. -1.
          3    1    1    2  501    0 -0.68687774349E+01 -0.32501968497E+02  0.42047513969E+02  0.53586859309E+02  0.00000000000E+00 0. -1.
<mgrwt>
<rscale>  1 0.85803527E+02</rscale>
<asrwt>0</asrwt>
<pdfrwt beam="1">  1       21 0.53589253E-01 0.85803527E+02</pdfrwt>
<pdfrwt beam="2">  1        4 0.18299085E-02 0.85803527E+02</pdfrwt>
<totfact> 0.14577307E+05</totfact>
</mgrwt>
</event>
<event>
 6    2  0.1024351E+001  0.9343057E+02  0.7546771E-02  0.1294750E+00
         -1   -1    0    0    0  501 -0.00000000000E+00  0.00000000000E+00  0.26514990127E+03  0.26514990127E+03  0.00000000000E+00 0.  1.
         21   -1    0    0  501  502  0.00000000000E+00 -0.00000000000E+00 -0.54499445475E+02  0.54499445475E+02  0.00000000000E+00 0.  1.
         24    2    1    2    0    0  0.19933002283E+02  0.43108580814E+02  0.24422504289E+03  0.26148640994E+03  0.80458664496E+02 0.  0.
        -11    1    3    3    0    0  0.39825770840E+02  0.26967799295E+02  0.22326506726E+03  0.22838704972E+03  0.00000000000E+00 0.  1.
         12    1    3    3    0    0 -0.19892768557E+02  0.16140781519E+02  0.20959975629E+02  0.33099360225E+02  0.00000000000E+00 0. -1.
         -2    1    1    2    0  502 -0.19933002283E+02 -0.43108580814E+02 -0.33574587087E+02  0.58162936806E+02  0.00000000000E+00 0.  1.
<mgrwt>
<rscale>  1 0.93430568E+02</rscale>
<asrwt>0</asrwt>
<pdfrwt beam="1">  1       21 0.83845302E-02 0.93430568E+02</pdfrwt>
<pdfrwt beam="2">  1       -1 0.40792292E-01 0.93430568E+02</pdfrwt>
<totfact> 0.59128180E+04</totfact>
</mgrwt>
</event>
<event>
 6    2  0.9453093E+000  0.8597626E+02  0.7546771E-02  0.1312899E+00
         21   -1    0    0  501  502  0.00000000000E+00  0.00000000000E+00  0.91159251742E+03  0.91159251742E+03  0.00000000000E+00 0.  1.
         -1   -1    0    0    0  501 -0.00000000000E+00 -0.00000000000E+00 -0.21266377378E+02  0.21266377378E+02  0.00000000000E+00 0.  1.
         24    2    1    2    0    0  0.96407715666E+01 -0.31138121002E+02  0.67291567476E+02  0.10917908158E+03  0.79557461915E+02 0.  0.
        -11    1    3    3    0    0 -0.30416739939E+02 -0.34205768213E+02  0.37225258338E+02  0.58999428013E+02  0.00000000000E+00 0.  1.
         12    1    3    3    0    0  0.40057511505E+02  0.30676472106E+01  0.30066309138E+02  0.50179653572E+02  0.00000000000E+00 0. -1.
         -2    1    1    2    0  502 -0.96407715666E+01  0.31138121002E+02  0.82303457256E+03  0.82367981321E+03  0.00000000000E+00 0.  1.
<mgrwt>
<rscale>  1 0.85976257E+02</rscale>
<asrwt>0</asrwt>
<pdfrwt beam="1">  1       21 0.14024497E+00 0.85976257E+02</pdfrwt>
<pdfrwt beam="2">  1       -1 0.32717511E-02 0.85976257E+02</pdfrwt>
<totfact> 0.10589896E+04</totfact>
</mgrwt>
</event>
<event>
 6    2  0.9453093E+000  0.9011657E+02  0.7546771E-02  0.1302570E+00
         -1   -1    0    0    0  501 -0.00000000000E+00  0.00000000000E+00  0.10598726823E+02  0.10598726823E+02  0.00000000000E+00 0.  1.
         21   -1    0    0  501  502  0.00000000000E+00 -0.00000000000E+00 -0.40747000811E+03  0.40747000811E+03  0.00000000000E+00 0. -1.
         24    2    1    2    0    0 -0.24857825724E+02  0.31783622330E+02 -0.29644148086E+03  0.30983632314E+03  0.80578442625E+02 0.  0.
        -11    1    3    3    0    0  0.26980096412E+02 -0.24635863445E+00 -0.62221765647E+02  0.67819867408E+02  0.00000000000E+00 0.  1.
         12    1    3    3    0    0 -0.51837922136E+02  0.32029980964E+02 -0.23421971521E+03  0.24201645573E+03  0.00000000000E+00 0. -1.
         -2    1    1    2    0  502  0.24857825724E+02 -0.31783622330E+02 -0.10042980042E+03  0.10823241179E+03  0.00000000000E+00 0.  1.
<mgrwt>
<rscale>  1 0.90116567E+02</rscale>
<asrwt>0</asrwt>
<pdfrwt beam="1">  1       21 0.62687690E-01 0.90116567E+02</pdfrwt>
<pdfrwt beam="2">  1       -1 0.16305734E-02 0.90116567E+02</pdfrwt>
<totfact> 0.18117061E+05</totfact>
</mgrwt>
</event>
<event>
 6    2  0.9453093E+000  0.9135478E+02  0.7546771E-02  0.1299604E+00
         21   -1    0    0  501  502  0.00000000000E+00  0.00000000000E+00  0.63150466774E+01  0.63150466774E+01  0.00000000000E+00 0.  1.
          2   -1    0    0  502    0 -0.00000000000E+00 -0.00000000000E+00 -0.95326704299E+03  0.95326704299E+03  0.00000000000E+00 0. -1.
         24    2    1    2    0    0  0.39595056259E+02  0.15004102930E+02 -0.83340538398E+03  0.83839741755E+03  0.80949392317E+02 0.  0.
        -11    1    3    3    0    0  0.58598316323E+02  0.79556813988E+01 -0.38320862376E+03  0.38774463873E+03  0.00000000000E+00 0.  1.
         12    1    3    3    0    0 -0.19003260064E+02  0.70484215310E+01 -0.45019676022E+03  0.45065277882E+03  0.00000000000E+00 0. -1.
          1    1    1    2  501    0 -0.39595056259E+02 -0.15004102930E+02 -0.11354661233E+03  0.12118467212E+03  0.00000000000E+00 0. -1.
<mgrwt>
<rscale>  1 0.91354779E+02</rscale>
<asrwt>0</asrwt>
<pdfrwt beam="1">  1       21 0.97154516E-03 0.91354779E+02</pdfrwt>
<pdfrwt beam="2">  1        2 0.14665654E+00 0.91354779E+02</pdfrwt>
<totfact> 0.13288687E+06</totfact>
</mgrwt>
</event>
<event>
 6    2  0.9453093E+000  0.8582606E+02  0.7546771E-02  0.1313286E+00
         21   -1    0    0  501  502  0.00000000000E+00  0.00000000000E+00  0.16186011714E+02  0.16186011714E+02  0.00000000000E+00 0. -1.
          4   -1    0    0  502    0 -0.00000000000E+00 -0.00000000000E+00 -0.22019164418E+03  0.22019164418E+03  0.00000000000E+00 0. -1.
         24    2    1    2    0    0  0.25525391048E+02  0.21794128267E+02 -0.14795423326E+03  0.17104551244E+03  0.78991028427E+02 0.  0.
        -13    1    3    3    0    0 -0.13121747931E+02 -0.20167495467E+02 -0.21289648451E+02  0.32127204568E+02  0.00000000000E+00 0.  1.
         14    1    3    3    0    0  0.38647138979E+02  0.41961623734E+02 -0.12666458481E+03  0.13891830787E+03  0.00000000000E+00 0. -1.
          3    1    1    2  501    0 -0.25525391048E+02 -0.21794128267E+02 -0.56051399209E+02  0.65332143454E+02  0.00000000000E+00 0. -1.
<mgrwt>
<rscale>  1 0.85826058E+02</rscale>
<asrwt>0</asrwt>
<pdfrwt beam="1">  1       21 0.24901559E-02 0.85826058E+02</pdfrwt>
<pdfrwt beam="2">  1        4 0.33875634E-01 0.85826058E+02</pdfrwt>
<totfact> 0.26552011E+05</totfact>
</mgrwt>
</event>
<event>
 6    2  0.9453093E+000  0.1220067E+03  0.7546771E-02  0.1239823E+00
          2   -1    0    0  502    0 -0.00000000000E+00  0.00000000000E+00  0.17911446980E+04  0.17911446980E+04  0.00000000000E+00 0. -1.
         21   -1    0    0  501  502  0.00000000000E+00 -0.00000000000E+00 -0.67718995133E+02  0.67718995133E+02  0.00000000000E+00 0. -1.
         24    2    1    2    0    0 -0.55495479964E+02  0.10905560877E+02  0.17768677386E+04  0.17810515428E+04  0.10810623457E+03 0.  0.
        -11    1    3    3    0    0 -0.17025864853E+02 -0.87886080926E+01  0.48557731478E+02  0.52201273859E+02  0.00000000000E+00 0.  1.
         12    1    3    3    0    0 -0.38469615111E+02  0.19694168970E+02  0.17283100071E+04  0.17288502689E+04  0.00000000000E+00 0. -1.
          1    1    1    2  501    0  0.55495479964E+02 -0.10905560877E+02 -0.53442035761E+02  0.77812150341E+02  0.00000000000E+00 0. -1.
<mgrwt>
<rscale>  1 0.12200671E+03</rscale>
<asrwt>0</asrwt>
<pdfrwt beam="1">  1       21 0.10418308E-01 0.12200671E+03</pdfrwt>
<pdfrwt beam="2">  1        2 0.27556069E+00 0.12200671E+03</pdfrwt>
<totfact> 0.96430148E+03</totfact>
</mgrwt>
</event>
<event>
 6    2  0.9453093E+000  0.9013293E+02  0.7546771E-02  0.1302530E+00
         21   -1    0    0  501  502  0.00000000000E+00  0.00000000000E+00  0.72314772527E+01  0.72314772527E+01  0.00000000000E+00 0. -1.
          2   -1    0    0  502    0 -0.00000000000E+00 -0.00000000000E+00 -0.26657210228E+04  0.26657210228E+04  0.00000000000E+00 0. -1.
         24    2    1    2    0    0 -0.34395780635E+02  0.23207600708E+02 -0.25982087290E+04  0.25997716330E+04  0.80014261036E+02 0.  0.
        -11    1    3    3    0    0 -0.19078640014E+02  0.35251655767E+02 -0.54559615904E+03  0.54706657959E+03  0.00000000000E+00 0.  1.
         12    1    3    3    0    0 -0.15317140621E+02 -0.12044055059E+02 -0.20526125699E+04  0.20527050534E+04  0.00000000000E+00 0. -1.
          1    1    1    2  501    0  0.34395780635E+02 -0.23207600708E+02 -0.60280816574E+02  0.73180867055E+02  0.00000000000E+00 0. -1.
<mgrwt>
<rscale>  1 0.90132926E+02</rscale>
<asrwt>0</asrwt>
<pdfrwt beam="1">  1       21 0.11125357E-02 0.90132926E+02</pdfrwt>
<pdfrwt beam="2">  1        2 0.41011065E+00 0.90132926E+02</pdfrwt>
<totfact> 0.13738918E+05</totfact>
</mgrwt>
</event>
<event>
 6    2  0.9453093E+000  0.8662293E+02  0.7546771E-02  0.1311242E+00
         21   -1    0    0  501  502  0.00000000000E+00  0.00000000000E+00  0.62223759830E+02  0.62223759830E+02  0.00000000000E+00 0. -1.
          2   -1    0    0  502    0 -0.00000000000E+00 -0.00000000000E+00 -0.25876036902E+04  0.25876036902E+04  0.00000000000E+00 0. -1.
         24    2    1    2    0    0 -0.90949977686E+01  0.18516061579E+02 -0.25851482752E+04  0.25865991451E+04  0.84130667808E+02 0.  0.
        -11    1    3    3    0    0 -0.26452955402E+02  0.36357186943E+02 -0.79010593813E+03  0.79138422866E+03  0.00000000000E+00 0.  1.
         12    1    3    3    0    0  0.17357957633E+02 -0.17841125365E+02 -0.17950423370E+04  0.17952149164E+04  0.00000000000E+00 0. -1.
          1    1    1    2  501    0  0.90949977686E+01 -0.18516061579E+02  0.59768344736E+02  0.63228305001E+02  0.00000000000E+00 0. -1.
<mgrwt>
<rscale>  1 0.86622935E+02</rscale>
<asrwt>0</asrwt>
<pdfrwt beam="1">  1       21 0.95728885E-02 0.86622935E+02</pdfrwt>
<pdfrwt beam="2">  1        2 0.39809278E+00 0.86622935E+02</pdfrwt>
<totfact> 0.44833310E+03</totfact>
</mgrwt>
</event>
<event>
 6    2  0.9453093E+000  0.8935421E+02  0.7546771E-02  0.1304423E+00
         21   -1    0    0  501  502  0.00000000000E+00  0.00000000000E+00  0.20483210312E+02  0.20483210312E+02  0.00000000000E+00 0. -1.
         -1   -1    0    0    0  501 -0.00000000000E+00 -0.00000000000E+00 -0.18674072627E+03  0.18674072627E+03  0.00000000000E+00 0.  1.
         24    2    1    2    0    0  0.10803870208E+02 -0.31943685297E+02 -0.12957282575E+03  0.15739533899E+03  0.82746920924E+02 0.  0.
        -13    1    3    3    0    0 -0.20371707480E+02 -0.72671199526E+01 -0.11174935360E+03  0.11382326444E+03  0.00000000000E+00 0.  1.
         14    1    3    3    0    0  0.31175577687E+02 -0.24676565344E+02 -0.17823472148E+02  0.43572074552E+02  0.00000000000E+00 0. -1.
         -2    1    1    2    0  502 -0.10803870208E+02  0.31943685297E+02 -0.36684690208E+02  0.49828597586E+02  0.00000000000E+00 0.  1.
<mgrwt>
<rscale>  1 0.89354214E+02</rscale>
<asrwt>0</asrwt>
<pdfrwt beam="1">  1       21 0.31512631E-02 0.89354214E+02</pdfrwt>
<pdfrwt beam="2">  1       -1 0.28729343E-01 0.89354214E+02</pdfrwt>
<totfact> 0.54617305E+05</totfact>
</mgrwt>
</event>
<event>
 6    2  0.9453093E+000  0.8273748E+02  0.7546771E-02  0.1321458E+00
         21   -1    0    0  501  502  0.00000000000E+00  0.00000000000E+00  0.10990981209E+04  0.10990981209E+04  0.00000000000E+00 0. -1.
          2   -1    0    0  502    0 -0.00000000000E+00 -0.00000000000E+00 -0.96990262941E+01  0.96990262941E+01  0.00000000000E+00 0. -1.
         24    2    1    2    0    0  0.21679359249E+02 -0.79548967338E+00  0.16923362610E+03  0.18837598444E+03  0.79842744744E+02 0.  0.
        -13    1    3    3    0    0  0.33261151340E+02 -0.32599136883E+02  0.11914236063E+03  0.12792149940E+03  0.00000000000E+00 0.  1.
         14    1    3    3    0    0 -0.11581792091E+02  0.31803647210E+02  0.50091265474E+02  0.60454485033E+02  0.00000000000E+00 0. -1.
          1    1    1    2  501    0 -0.21679359249E+02  0.79548967338E+00  0.92016546846E+03  0.92042116272E+03  0.00000000000E+00 0. -1.
<mgrwt>
<rscale>  1 0.82737484E+02</rscale>
<asrwt>0</asrwt>
<pdfrwt beam="1">  1       21 0.16909192E+00 0.82737484E+02</pdfrwt>
<pdfrwt beam="2">  1        2 0.14921588E-02 0.82737484E+02</pdfrwt>
<totfact> 0.21442303E+04</totfact>
</mgrwt>
</event>
<event>
 6    2  0.1015259E+001  0.1279586E+03  0.7546771E-02  0.1230517E+00
         21   -1    0    0  501  502  0.00000000000E+00  0.00000000000E+00  0.22947368624E+03  0.22947368624E+03  0.00000000000E+00 0.  1.
         -3   -1    0    0    0  501 -0.00000000000E+00 -0.00000000000E+00 -0.42167295877E+02  0.42167295877E+02  0.00000000000E+00 0.  1.
         24    2    1    2    0    0  0.42234204464E+02  0.51337261107E+02  0.14224948336E+03  0.19133302937E+03  0.10933512798E+03 0.  0.
        -11    1    3    3    0    0 -0.43713754759E+01  0.48194546189E+02  0.78212913442E+01  0.49020361118E+02  0.00000000000E+00 0.  1.
         12    1    3    3    0    0  0.46605579940E+02  0.31427149182E+01  0.13442819201E+03  0.14231266826E+03  0.00000000000E+00 0. -1.
         -4    1    1    2    0  502 -0.42234204464E+02 -0.51337261107E+02  0.45056907004E+02  0.80307952741E+02  0.00000000000E+00 0.  1.
<mgrwt>
<rscale>  1 0.12795864E+03</rscale>
<asrwt>0</asrwt>
<pdfrwt beam="1">  1       21 0.35303643E-01 0.12795864E+03</pdfrwt>
<pdfrwt beam="2">  1       -3 0.64872765E-02 0.12795864E+03</pdfrwt>
<totfact> 0.55279764E+04</totfact>
</mgrwt>
</event>
<event>
 6    2  0.9453093E+000  0.8173685E+02  0.7546771E-02  0.1324194E+00
          2   -1    0    0  502    0 -0.00000000000E+00  0.00000000000E+00  0.21257930036E+02  0.21257930036E+02  0.00000000000E+00 0. -1.
         21   -1    0    0  501  502  0.00000000000E+00 -0.00000000000E+00 -0.25844909577E+03  0.25844909577E+03  0.00000000000E+00 0. -1.
         24    2    1    2    0    0 -0.18066374362E+02 -0.13997167314E+02 -0.60873005896E+02  0.10191386490E+03  0.78476738190E+02 0.  0.
        -11    1    3    3    0    0 -0.30811719950E+02 -0.18490281746E+02 -0.74505366586E+02  0.82718209939E+02  0.00000000000E+00 0.  1.
         12    1    3    3    0    0  0.12745345588E+02  0.44931144319E+01  0.13632360690E+02  0.19195654963E+02  0.00000000000E+00 0. -1.
          1    1    1    2  501    0  0.18066374362E+02  0.13997167314E+02 -0.17631815984E+03  0.17779316090E+03  0.00000000000E+00 0. -1.
<mgrwt>
<rscale>  1 0.81736852E+02</rscale>
<asrwt>0</asrwt>
<pdfrwt beam="1">  1       21 0.39761398E-01 0.81736852E+02</pdfrwt>
<pdfrwt beam="2">  1        2 0.32704509E-02 0.81736852E+02</pdfrwt>
<totfact> 0.19229591E+05</totfact>
</mgrwt>
</event>
<event>
 6    2  0.9453093E+000  0.1001156E+03  0.7546771E-02  0.1280053E+00
          2   -1    0    0  502    0 -0.00000000000E+00  0.00000000000E+00  0.16242235730E+04  0.16242235730E+04  0.00000000000E+00 0. -1.
         21   -1    0    0  501  502  0.00000000000E+00 -0.00000000000E+00 -0.38988972306E+01  0.38988972306E+01  0.00000000000E+00 0.  1.
         24    2    1    2    0    0  0.54092861977E+02 -0.23635579128E+02  0.10279069233E+04  0.10327709172E+04  0.80860658046E+02 0.  0.
        -13    1    3    3    0    0  0.67485347277E+01  0.17455981184E+02  0.60350554669E+02  0.63185785181E+02  0.00000000000E+00 0.  1.
         14    1    3    3    0    0  0.47344327249E+02 -0.41091560312E+02  0.96755636866E+03  0.96958513200E+03  0.00000000000E+00 0. -1.
          1    1    1    2  501    0 -0.54092861977E+02  0.23635579128E+02  0.59241775240E+03  0.59535155302E+03  0.00000000000E+00 0. -1.
<mgrwt>
<rscale>  1 0.10011555E+03</rscale>
<asrwt>0</asrwt>
<pdfrwt beam="1">  1       21 0.59983164E-03 0.10011555E+03</pdfrwt>
<pdfrwt beam="2">  1        2 0.24988001E+00 0.10011555E+03</pdfrwt>
<totfact> 0.12300726E+06</totfact>
</mgrwt>
</event>
<event>
 6    2  0.1065371E+001  0.8334740E+02  0.7546771E-02  0.1319812E+00
         21   -1    0    0  501  502  0.00000000000E+00  0.00000000000E+00  0.45405027356E+01  0.45405027356E+01  0.00000000000E+00 0.  1.
         -1   -1    0    0    0  501 -0.00000000000E+00 -0.00000000000E+00 -0.12641915156E+04  0.12641915156E+04  0.00000000000E+00 0.  1.
         24    2    1    2    0    0 -0.21785199322E+02  0.13460634025E+00 -0.12247963533E+04  0.12276289732E+04  0.80449833428E+02 0.  0.
        -13    1    3    3    0    0 -0.15564142181E+02 -0.28540301496E+02 -0.10408133509E+04  0.10413209029E+04  0.00000000000E+00 0.  1.
         14    1    3    3    0    0 -0.62210571410E+01  0.28674907836E+02 -0.18398300239E+03  0.18630807030E+03  0.00000000000E+00 0. -1.
         -2    1    1    2    0  502  0.21785199322E+02 -0.13460634025E+00 -0.34854659600E+02  0.41103045194E+02  0.00000000000E+00 0.  1.
<mgrwt>
<rscale>  1 0.83347398E+02</rscale>
<asrwt>0</asrwt>
<pdfrwt beam="1">  1       21 0.69853829E-03 0.83347398E+02</pdfrwt>
<pdfrwt beam="2">  1       -1 0.19449117E+00 0.83347398E+02</pdfrwt>
<totfact> 0.11001874E+05</totfact>
</mgrwt>
</event>
<event>
 6    2  0.9453093E+000  0.8730316E+02  0.7546771E-02  0.1309517E+00
         21   -1    0    0  501  502  0.00000000000E+00  0.00000000000E+00  0.45696774173E+02  0.45696774173E+02  0.00000000000E+00 0. -1.
         -1   -1    0    0    0  501 -0.00000000000E+00 -0.00000000000E+00 -0.81017693016E+02  0.81017693016E+02  0.00000000000E+00 0.  1.
         24    2    1    2    0    0  0.29222672860E+02 -0.17961107528E+02 -0.23179158779E+02  0.90327816750E+02  0.80282470593E+02 0.  0.
        -11    1    3    3    0    0  0.11016496656E+02  0.17230229912E+02 -0.41810359583E+02  0.46544067182E+02  0.00000000000E+00 0.  1.
         12    1    3    3    0    0  0.18206176205E+02 -0.35191337441E+02  0.18631200804E+02  0.43783749568E+02  0.00000000000E+00 0. -1.
         -2    1    1    2    0  502 -0.29222672860E+02  0.17961107528E+02 -0.12141760063E+02  0.36386650439E+02  0.00000000000E+00 0.  1.
<mgrwt>
<rscale>  1 0.87303156E+02</rscale>
<asrwt>0</asrwt>
<pdfrwt beam="1">  1       21 0.70302730E-02 0.87303156E+02</pdfrwt>
<pdfrwt beam="2">  1       -1 0.12464260E-01 0.87303156E+02</pdfrwt>
<totfact> 0.53945838E+05</totfact>
</mgrwt>
</event>
<event>
 6    2  0.9453093E+000  0.8667749E+02  0.7546771E-02  0.1311103E+00
          4   -1    0    0  502    0 -0.00000000000E+00  0.00000000000E+00  0.15315163014E+02  0.15315163014E+02  0.00000000000E+00 0. -1.
         21   -1    0    0  501  502  0.00000000000E+00 -0.00000000000E+00 -0.24032179030E+03  0.24032179030E+03  0.00000000000E+00 0.  1.
         24    2    1    2    0    0  0.23384520047E+02 -0.25140467225E+02 -0.16931601608E+03  0.19021277547E+03  0.79587108132E+02 0.  0.
        -11    1    3    3    0    0 -0.19141510159E+02  0.17707313414E+02 -0.44855456214E+02  0.51884085341E+02  0.00000000000E+00 0.  1.
         12    1    3    3    0    0  0.42526030206E+02 -0.42847780639E+02 -0.12446055987E+03  0.13832869013E+03  0.00000000000E+00 0. -1.
          3    1    1    2  501    0 -0.23384520047E+02  0.25140467225E+02 -0.55690611204E+02  0.65424177843E+02  0.00000000000E+00 0. -1.
<mgrwt>
<rscale>  1 0.86677486E+02</rscale>
<asrwt>0</asrwt>
<pdfrwt beam="1">  1       21 0.36972584E-01 0.86677486E+02</pdfrwt>
<pdfrwt beam="2">  1        4 0.23561789E-02 0.86677486E+02</pdfrwt>
<totfact> 0.20897529E+05</totfact>
</mgrwt>
</event>
<event>
 6    2  0.9453093E+000  0.1139585E+03  0.7546771E-02  0.1253410E+00
          2   -1    0    0  502    0 -0.00000000000E+00  0.00000000000E+00  0.13121728500E+04  0.13121728500E+04  0.00000000000E+00 0. -1.
         21   -1    0    0  501  502  0.00000000000E+00 -0.00000000000E+00 -0.75025590181E+01  0.75025590181E+01  0.00000000000E+00 0. -1.
         24    2    1    2    0    0  0.16397196267E+02  0.81559522879E+02  0.82703897095E+03  0.83485327494E+03  0.77882651390E+02 0.  0.
        -11    1    3    3    0    0 -0.72973153284E+01  0.96816326794E+01  0.14962521811E+02  0.19257774568E+02  0.00000000000E+00 0.  1.
         12    1    3    3    0    0  0.23694511596E+02  0.71877890200E+02  0.81207644914E+03  0.81559550037E+03  0.00000000000E+00 0. -1.
          1    1    1    2  501    0 -0.16397196267E+02 -0.81559522879E+02  0.47763131999E+03  0.48482213404E+03  0.00000000000E+00 0. -1.
<mgrwt>
<rscale>  1 0.11395846E+03</rscale>
<asrwt>0</asrwt>
<pdfrwt beam="1">  1       21 0.11542409E-02 0.11395846E+03</pdfrwt>
<pdfrwt beam="2">  1        2 0.20187256E+00 0.11395846E+03</pdfrwt>
<totfact> 0.64725364E+05</totfact>
</mgrwt>
</event>
<event>
 6    2  0.9453093E+000  0.1114341E+03  0.7546771E-02  0.1257937E+00
          2   -1    0    0  502    0 -0.00000000000E+00  0.00000000000E+00  0.13186223918E+04  0.13186223918E+04  0.00000000000E+00 0. -1.
         21   -1    0    0  501  502  0.00000000000E+00 -0.00000000000E+00 -0.83579666750E+01  0.83579666750E+01  0.00000000000E+00 0.  1.
         24    2    1    2    0    0 -0.65393594500E+02 -0.41021184532E+02  0.46361722914E+03  0.47682123558E+03  0.80364766889E+02 0.  0.
        -13    1    3    3    0    0 -0.61943147055E+02 -0.29724107749E+02  0.17560984025E+03  0.18857171591E+03  0.00000000000E+00 0.  1.
         14    1    3    3    0    0 -0.34504474450E+01 -0.11297076783E+02  0.28800738890E+03  0.28824951967E+03  0.00000000000E+00 0. -1.
          1    1    1    2  501    0  0.65393594500E+02  0.41021184532E+02  0.84664719594E+03  0.85015912285E+03  0.00000000000E+00 0. -1.
<mgrwt>
<rscale>  1 0.11143409E+03</rscale>
<asrwt>0</asrwt>
<pdfrwt beam="1">  1       21 0.12858421E-02 0.11143409E+03</pdfrwt>
<pdfrwt beam="2">  1        2 0.20286482E+00 0.11143409E+03</pdfrwt>
<totfact> 0.54082596E+05</totfact>
</mgrwt>
</event>
<event>
 6    2  0.9453093E+000  0.8361643E+02  0.7546771E-02  0.1319091E+00
         21   -1    0    0  501  502  0.00000000000E+00  0.00000000000E+00  0.21617937354E+01  0.21617937354E+01  0.00000000000E+00 0.  1.
          2   -1    0    0  502    0 -0.00000000000E+00 -0.00000000000E+00 -0.14576340331E+04  0.14576340331E+04  0.00000000000E+00 0. -1.
         24    2    1    2    0    0 -0.51201743244E+01  0.19530658283E+02 -0.87848816308E+03  0.88245858822E+03  0.81142125100E+02 0.  0.
        -11    1    3    3    0    0 -0.99157564778E+01  0.21194862824E+02 -0.67252512350E+02  0.71207056210E+02  0.00000000000E+00 0.  1.
         12    1    3    3    0    0  0.47955821534E+01 -0.16642045418E+01 -0.81123565073E+03  0.81125153201E+03  0.00000000000E+00 0. -1.
          1    1    1    2  501    0  0.51201743244E+01 -0.19530658283E+02 -0.57698407632E+03  0.57733723864E+03  0.00000000000E+00 0. -1.
<mgrwt>
<rscale>  1 0.83616429E+02</rscale>
<asrwt>0</asrwt>
<pdfrwt beam="1">  1       21 0.33258317E-03 0.83616429E+02</pdfrwt>
<pdfrwt beam="2">  1        2 0.22425171E+00 0.83616429E+02</pdfrwt>
<totfact> 0.36315426E+06</totfact>
</mgrwt>
</event>
<event>
 6    2  0.9453093E+000  0.8512790E+02  0.7546771E-02  0.1315098E+00
         21   -1    0    0  501  502  0.00000000000E+00  0.00000000000E+00  0.38621405629E+03  0.38621405629E+03  0.00000000000E+00 0.  1.
          2   -1    0    0  502    0 -0.00000000000E+00 -0.00000000000E+00 -0.91097563078E+01  0.91097563078E+01  0.00000000000E+00 0. -1.
         24    2    1    2    0    0 -0.47301966131E+01  0.32728941806E+02  0.25581506004E+03  0.26960731362E+03  0.78442336896E+02 0.  0.
        -13    1    3    3    0    0 -0.51232549227E+01  0.27128274376E+02  0.26070453619E+03  0.26216225167E+03  0.00000000000E+00 0.  1.
         14    1    3    3    0    0  0.39305830961E+00  0.56006674293E+01 -0.48894761406E+01  0.74450619486E+01  0.00000000000E+00 0. -1.
          1    1    1    2  501    0  0.47301966131E+01 -0.32728941806E+02  0.12128923994E+03  0.12571649898E+03  0.00000000000E+00 0. -1.
<mgrwt>
<rscale>  1 0.85127896E+02</rscale>
<asrwt>0</asrwt>
<pdfrwt beam="1">  1       21 0.59417534E-01 0.85127896E+02</pdfrwt>
<pdfrwt beam="2">  1        2 0.14015013E-02 0.85127896E+02</pdfrwt>
<totfact> 0.26582846E+05</totfact>
</mgrwt>
</event>
<event>
 6    2  0.9453093E+000  0.1393290E+03  0.7546771E-02  0.1214235E+00
         21   -1    0    0  501  502  0.00000000000E+00  0.00000000000E+00  0.19738369084E+02  0.19738369084E+02  0.00000000000E+00 0.  1.
          2   -1    0    0  502    0 -0.00000000000E+00 -0.00000000000E+00 -0.80899345877E+03  0.80899345877E+03  0.00000000000E+00 0. -1.
         24    2    1    2    0    0  0.31171488814E+02  0.10880404961E+03 -0.45263644605E+03  0.47359510183E+03  0.81256293665E+02 0.  0.
        -13    1    3    3    0    0  0.40206435000E+02  0.26677034352E+02 -0.95153336170E+02  0.10668823254E+03  0.00000000000E+00 0.  1.
         14    1    3    3    0    0 -0.90349461861E+01  0.82127015258E+02 -0.35748310988E+03  0.36690686929E+03  0.00000000000E+00 0. -1.
          1    1    1    2  501    0 -0.31171488814E+02 -0.10880404961E+03 -0.33661864364E+03  0.35513672603E+03  0.00000000000E+00 0. -1.
<mgrwt>
<rscale>  1 0.13932899E+03</rscale>
<asrwt>0</asrwt>
<pdfrwt beam="1">  1       21 0.30366713E-02 0.13932899E+03</pdfrwt>
<pdfrwt beam="2">  1        2 0.12446057E+00 0.13932899E+03</pdfrwt>
<totfact> 0.27164989E+05</totfact>
</mgrwt>
</event>
<event>
 6    2  0.9453093E+000  0.8581623E+02  0.7546771E-02  0.1313312E+00
          2   -1    0    0  502    0 -0.00000000000E+00  0.00000000000E+00  0.56499192920E+03  0.56499192920E+03  0.00000000000E+00 0. -1.
         21   -1    0    0  501  502  0.00000000000E+00 -0.00000000000E+00 -0.14803007552E+02  0.14803007552E+02  0.00000000000E+00 0. -1.
         24    2    1    2    0    0 -0.25577531331E+02 -0.13824107838E+02  0.11426119415E+03  0.14289872520E+03  0.80741000171E+02 0.  0.
        -11    1    3    3    0    0  0.15291200087E+02 -0.26246102901E+02  0.87185572751E+02  0.92325526337E+02  0.00000000000E+00 0.  1.
         12    1    3    3    0    0 -0.40868731418E+02  0.12421995063E+02  0.27075621400E+02  0.50573198863E+02  0.00000000000E+00 0. -1.
          1    1    1    2  501    0  0.25577531331E+02  0.13824107838E+02  0.43592772750E+03  0.43689621155E+03  0.00000000000E+00 0. -1.
<mgrwt>
<rscale>  1 0.85816229E+02</rscale>
<asrwt>0</asrwt>
<pdfrwt beam="1">  1       21 0.22773862E-02 0.85816229E+02</pdfrwt>
<pdfrwt beam="2">  1        2 0.86921818E-01 0.85816229E+02</pdfrwt>
<totfact> 0.64018678E+05</totfact>
</mgrwt>
</event>
<event>
 6    2  0.9453093E+000  0.8723383E+02  0.7546771E-02  0.1309692E+00
          2   -1    0    0  502    0 -0.00000000000E+00  0.00000000000E+00  0.28134934580E+03  0.28134934580E+03  0.00000000000E+00 0. -1.
         21   -1    0    0  501  502  0.00000000000E+00 -0.00000000000E+00 -0.13652077218E+02  0.13652077218E+02  0.00000000000E+00 0.  1.
         24    2    1    2    0    0 -0.69686244548E+01 -0.32643401565E+02  0.22106445448E+03  0.23765360053E+03  0.80595207178E+02 0.  0.
        -11    1    3    3    0    0 -0.18826807358E+02 -0.50448707862E+02  0.20181582457E+03  0.20887591495E+03  0.00000000000E+00 0.  1.
         12    1    3    3    0    0  0.11858182904E+02  0.17805306297E+02  0.19248629910E+02  0.28777685583E+02  0.00000000000E+00 0. -1.
          1    1    1    2  501    0  0.69686244548E+01  0.32643401565E+02  0.46632814101E+02  0.57347822482E+02  0.00000000000E+00 0. -1.
<mgrwt>
<rscale>  1 0.87233828E+02</rscale>
<asrwt>0</asrwt>
<pdfrwt beam="1">  1       21 0.21003198E-02 0.87233828E+02</pdfrwt>
<pdfrwt beam="2">  1        2 0.43284510E-01 0.87233828E+02</pdfrwt>
<totfact> 0.15272934E+06</totfact>
</mgrwt>
</event>
<event>
 6    2  0.9453093E+000  0.8690854E+02  0.7546771E-02  0.1310516E+00
         21   -1    0    0  501  502  0.00000000000E+00  0.00000000000E+00  0.90696241181E+03  0.90696241181E+03  0.00000000000E+00 0. -1.
          2   -1    0    0  502    0 -0.00000000000E+00 -0.00000000000E+00 -0.19972268122E+02  0.19972268122E+02  0.00000000000E+00 0. -1.
         24    2    1    2    0    0  0.23639839449E+02 -0.24732394876E+02  0.76673717720E+02  0.11589630627E+03  0.79890934726E+02 0.  0.
        -13    1    3    3    0    0 -0.37456666242E+01 -0.36760692378E+02  0.77624480508E+02  0.85970567619E+02  0.00000000000E+00 0.  1.
         14    1    3    3    0    0  0.27385506073E+02  0.12028297502E+02 -0.95076278737E+00  0.29925738647E+02  0.00000000000E+00 0. -1.
          1    1    1    2  501    0 -0.23639839449E+02  0.24732394876E+02  0.81031642597E+03  0.81103837367E+03  0.00000000000E+00 0. -1.
<mgrwt>
<rscale>  1 0.86908543E+02</rscale>
<asrwt>0</asrwt>
<pdfrwt beam="1">  1       21 0.13953265E+00 0.86908543E+02</pdfrwt>
<pdfrwt beam="2">  1        2 0.30726573E-02 0.86908543E+02</pdfrwt>
<totfact> 0.13309181E+04</totfact>
</mgrwt>
</event>
<event>
 6    2  0.1283165E+001  0.8188445E+02  0.7546771E-02  0.1323787E+00
         21   -1    0    0  501  502  0.00000000000E+00  0.00000000000E+00  0.80717863006E+01  0.80717863006E+01  0.00000000000E+00 0.  1.
         -1   -1    0    0    0  501 -0.00000000000E+00 -0.00000000000E+00 -0.10231127930E+04  0.10231127930E+04  0.00000000000E+00 0.  1.
         24    2    1    2    0    0 -0.12315068564E+02  0.24265431915E+02 -0.99243674666E+03  0.99580909809E+03  0.77230768534E+02 0.  0.
        -13    1    3    3    0    0  0.12649502824E+02  0.25719033269E+02 -0.88641080277E+03  0.88687405524E+03  0.00000000000E+00 0.  1.
         14    1    3    3    0    0 -0.24964571389E+02 -0.14536013543E+01 -0.10602594389E+03  0.10893504285E+03  0.00000000000E+00 0. -1.
         -2    1    1    2    0  502  0.12315068564E+02 -0.24265431915E+02 -0.22604260058E+02  0.35375481234E+02  0.00000000000E+00 0.  1.
<mgrwt>
<rscale>  1 0.81884453E+02</rscale>
<asrwt>0</asrwt>
<pdfrwt beam="1">  1       21 0.12418140E-02 0.81884453E+02</pdfrwt>
<pdfrwt beam="2">  1       -1 0.15740188E+00 0.81884453E+02</pdfrwt>
<totfact> 0.80659946E+04</totfact>
</mgrwt>
</event>
<event>
 6    2  0.9453093E+000  0.8513799E+02  0.7546771E-02  0.1315072E+00
         -3   -1    0    0    0  501 -0.00000000000E+00  0.00000000000E+00  0.32394462006E+02  0.32394462006E+02  0.00000000000E+00 0.  1.
         21   -1    0    0  501  502  0.00000000000E+00 -0.00000000000E+00 -0.91984163777E+02  0.91984163777E+02  0.00000000000E+00 0. -1.
         24    2    1    2    0    0 -0.18651636245E+02  0.14950709106E+02 -0.43949462831E+02  0.95812486536E+02  0.81713340745E+02 0.  0.
        -11    1    3    3    0    0 -0.30364028712E+02 -0.12766642074E+02  0.96682974328E+01  0.34328375504E+02  0.00000000000E+00 0.  1.
         12    1    3    3    0    0  0.11712392467E+02  0.27717351179E+02 -0.53617760264E+02  0.61484111032E+02  0.00000000000E+00 0. -1.
         -4    1    1    2    0  502  0.18651636245E+02 -0.14950709106E+02 -0.15640238940E+02  0.28566139247E+02  0.00000000000E+00 0.  1.
<mgrwt>
<rscale>  1 0.85137990E+02</rscale>
<asrwt>0</asrwt>
<pdfrwt beam="1">  1       21 0.14151410E-01 0.85137990E+02</pdfrwt>
<pdfrwt beam="2">  1       -3 0.49837634E-02 0.85137990E+02</pdfrwt>
<totfact> 0.43628886E+05</totfact>
</mgrwt>
</event>
<event>
 6    2  0.9453093E+000  0.9324983E+02  0.7546771E-02  0.1295167E+00
         21   -1    0    0  501  502  0.00000000000E+00  0.00000000000E+00  0.29044321943E+03  0.29044321943E+03  0.00000000000E+00 0. -1.
         -1   -1    0    0    0  501 -0.00000000000E+00 -0.00000000000E+00 -0.21475736840E+02  0.21475736840E+02  0.00000000000E+00 0.  1.
         24    2    1    2    0    0 -0.26774276148E+02  0.82628173402E+01  0.86109744097E+02  0.12692682525E+03  0.88940400974E+02 0.  0.
        -13    1    3    3    0    0  0.16954940342E+02 -0.28867076632E+02  0.18465510553E+02  0.38232881075E+02  0.00000000000E+00 0.  1.
         14    1    3    3    0    0 -0.43729216490E+02  0.37129893973E+02  0.67644233545E+02  0.88693944174E+02  0.00000000000E+00 0. -1.
         -2    1    1    2    0  502  0.26774276148E+02 -0.82628173402E+01  0.18285773850E+03  0.18499213103E+03  0.00000000000E+00 0.  1.
<mgrwt>
<rscale>  1 0.93249831E+02</rscale>
<asrwt>0</asrwt>
<pdfrwt beam="1">  1       21 0.44683569E-01 0.93249831E+02</pdfrwt>
<pdfrwt beam="2">  1       -1 0.33039597E-02 0.93249831E+02</pdfrwt>
<totfact> 0.13275721E+05</totfact>
</mgrwt>
</event>
<event>
 6    2  0.9453093E+000  0.1774955E+03  0.7546771E-02  0.1170249E+00
          2   -1    0    0  502    0 -0.00000000000E+00  0.00000000000E+00  0.79016903821E+03  0.79016903821E+03  0.00000000000E+00 0. -1.
         21   -1    0    0  501  502  0.00000000000E+00 -0.00000000000E+00 -0.46262777132E+02  0.46262777132E+02  0.00000000000E+00 0. -1.
         24    2    1    2    0    0  0.38958449940E+01  0.15810634653E+03  0.58857044346E+03  0.61475184183E+03  0.80572114905E+02 0.  0.
        -11    1    3    3    0    0 -0.90421090545E+00  0.78140430924E+01  0.63477775340E+00  0.78917558000E+01  0.00000000000E+00 0.  1.
         12    1    3    3    0    0  0.48000558994E+01  0.15029230343E+03  0.58793566571E+03  0.60686008603E+03  0.00000000000E+00 0. -1.
          1    1    1    2  501    0 -0.38958449940E+01 -0.15810634653E+03  0.15533581761E+03  0.22167997351E+03  0.00000000000E+00 0. -1.
<mgrwt>
<rscale>  1 0.17749552E+03</rscale>
<asrwt>0</asrwt>
<pdfrwt beam="1">  1       21 0.71173509E-02 0.17749552E+03</pdfrwt>
<pdfrwt beam="2">  1        2 0.12156446E+00 0.17749552E+03</pdfrwt>
<totfact> 0.67022865E+04</totfact>
</mgrwt>
</event>
<event>
 6    2  0.9453093E+000  0.8629087E+02  0.7546771E-02  0.1312091E+00
         -3   -1    0    0    0  501 -0.00000000000E+00  0.00000000000E+00  0.47845163665E+01  0.47845163665E+01  0.00000000000E+00 0.  1.
         21   -1    0    0  501  502  0.00000000000E+00 -0.00000000000E+00 -0.62809391886E+03  0.62809391886E+03  0.00000000000E+00 0. -1.
         24    2    1    2    0    0 -0.22959470192E+02 -0.39708441331E+01 -0.48306158881E+03  0.49070827620E+03  0.83085551529E+02 0.  0.
        -13    1    3    3    0    0  0.27384367394E+02  0.14533995253E+02 -0.22548857938E+03  0.22760984167E+03  0.00000000000E+00 0.  1.
         14    1    3    3    0    0 -0.50343837587E+02 -0.18504839387E+02 -0.25757300943E+03  0.26309843453E+03  0.00000000000E+00 0. -1.
         -4    1    1    2    0  502  0.22959470192E+02  0.39708441331E+01 -0.14024781368E+03  0.14217015903E+03  0.00000000000E+00 0.  1.
<mgrwt>
<rscale>  1 0.86290867E+02</rscale>
<asrwt>0</asrwt>
<pdfrwt beam="1">  1       21 0.96629805E-01 0.86290867E+02</pdfrwt>
<pdfrwt beam="2">  1       -3 0.73607966E-03 0.86290867E+02</pdfrwt>
<totfact> 0.17443014E+05</totfact>
</mgrwt>
</event>
<event>
 6    2  0.9453093E+000  0.8190664E+02  0.7546771E-02  0.1323726E+00
          2   -1    0    0  502    0 -0.00000000000E+00  0.00000000000E+00  0.17035965389E+03  0.17035965389E+03  0.00000000000E+00 0. -1.
         21   -1    0    0  501  502  0.00000000000E+00 -0.00000000000E+00 -0.32002804473E+02  0.32002804473E+02  0.00000000000E+00 0. -1.
         24    2    1    2    0    0 -0.20038666448E+02 -0.11489662992E+02  0.15402646899E+03  0.17445014053E+03  0.78582045498E+02 0.  0.
        -11    1    3    3    0    0  0.14282826926E+02 -0.20946341144E+02  0.12035483002E+02  0.28064233526E+02  0.00000000000E+00 0.  1.
         12    1    3    3    0    0 -0.34321493374E+02  0.94566781519E+01  0.14199098599E+03  0.14638590701E+03  0.00000000000E+00 0. -1.
          1    1    1    2  501    0  0.20038666448E+02  0.11489662992E+02 -0.15669619577E+02  0.27912317825E+02  0.00000000000E+00 0. -1.
<mgrwt>
<rscale>  1 0.81906644E+02</rscale>
<asrwt>0</asrwt>
<pdfrwt beam="1">  1       21 0.49235085E-02 0.81906644E+02</pdfrwt>
<pdfrwt beam="2">  1        2 0.26209177E-01 0.81906644E+02</pdfrwt>
<totfact> 0.64433275E+05</totfact>
</mgrwt>
</event>
<event>
 6    2  0.9453093E+000  0.1060415E+03  0.7546771E-02  0.1268081E+00
         21   -1    0    0  501  502  0.00000000000E+00  0.00000000000E+00  0.18094914629E+03  0.18094914629E+03  0.00000000000E+00 0.  1.
         -1   -1    0    0    0  501 -0.00000000000E+00 -0.00000000000E+00 -0.45434446012E+02  0.45434446012E+02  0.00000000000E+00 0.  1.
         24    2    1    2    0    0  0.63194364350E+02 -0.26861422348E+02  0.51523871925E+02  0.11789616011E+03  0.80806754014E+02 0.  0.
        -13    1    3    3    0    0  0.77330065047E+02 -0.30234310870E+01  0.30810507573E+02  0.83296863522E+02  0.00000000000E+00 0.  1.
         14    1    3    3    0    0 -0.14135700697E+02 -0.23837991261E+02  0.20713364352E+02  0.34599296588E+02  0.00000000000E+00 0. -1.
         -2    1    1    2    0  502 -0.63194364350E+02  0.26861422348E+02  0.83990828348E+02  0.10848743219E+03  0.00000000000E+00 0.  1.
<mgrwt>
<rscale>  1 0.10604148E+03</rscale>
<asrwt>0</asrwt>
<pdfrwt beam="1">  1       21 0.27838330E-01 0.10604148E+03</pdfrwt>
<pdfrwt beam="2">  1       -1 0.69899149E-02 0.10604148E+03</pdfrwt>
<totfact> 0.11250018E+05</totfact>
</mgrwt>
</event>
<event>
 6    2  0.9453093E+000  0.8931549E+02  0.7546771E-02  0.1304518E+00
          2   -1    0    0  502    0 -0.00000000000E+00  0.00000000000E+00  0.13334891618E+04  0.13334891618E+04  0.00000000000E+00 0. -1.
         21   -1    0    0  501  502  0.00000000000E+00 -0.00000000000E+00 -0.43083426359E+01  0.43083426359E+01  0.00000000000E+00 0. -1.
         24    2    1    2    0    0 -0.19438482247E+01 -0.40869549767E+02  0.11713237365E+04  0.11747240326E+04  0.79392434258E+02 0.  0.
        -11    1    3    3    0    0 -0.14204079623E+01 -0.26014196249E+01  0.19524855379E+00  0.29703644291E+01  0.00000000000E+00 0.  1.
         12    1    3    3    0    0 -0.52344026247E+00 -0.38268130142E+02  0.11711284879E+04  0.11717536682E+04  0.00000000000E+00 0. -1.
          1    1    1    2  501    0  0.19438482247E+01  0.40869549767E+02  0.15785708266E+03  0.16307347176E+03  0.00000000000E+00 0. -1.
<mgrwt>
<rscale>  1 0.89315493E+02</rscale>
<asrwt>0</asrwt>
<pdfrwt beam="1">  1       21 0.66282301E-03 0.89315493E+02</pdfrwt>
<pdfrwt beam="2">  1        2 0.20515185E+00 0.89315493E+02</pdfrwt>
<totfact> 0.14761274E+06</totfact>
</mgrwt>
</event>
<event>
 6    2  0.9453093E+000  0.8345400E+02  0.7546771E-02  0.1319526E+00
         -3   -1    0    0    0  501 -0.00000000000E+00  0.00000000000E+00  0.65501087893E+02  0.65501087893E+02  0.00000000000E+00 0.  1.
         21   -1    0    0  501  502  0.00000000000E+00 -0.00000000000E+00 -0.73162379784E+02  0.73162379784E+02  0.00000000000E+00 0.  1.
         24    2    1    2    0    0 -0.21570776577E+02 -0.72028124460E+01  0.34860431096E+02  0.90442353680E+02  0.80295646045E+02 0.  0.
        -11    1    3    3    0    0 -0.11722938482E+02 -0.34694129211E+02  0.46341316529E+02  0.59064604511E+02  0.00000000000E+00 0.  1.
         12    1    3    3    0    0 -0.98478380951E+01  0.27491316765E+02 -0.11480885433E+02  0.31377749169E+02  0.00000000000E+00 0. -1.
         -4    1    1    2    0  502  0.21570776577E+02  0.72028124460E+01 -0.42521722987E+02  0.48221113997E+02  0.00000000000E+00 0.  1.
<mgrwt>
<rscale>  1 0.83453997E+02</rscale>
<asrwt>0</asrwt>
<pdfrwt beam="1">  1       21 0.11255751E-01 0.83453997E+02</pdfrwt>
<pdfrwt beam="2">  1       -3 0.10077090E-01 0.83453997E+02</pdfrwt>
<totfact> 0.21126104E+05</totfact>
</mgrwt>
</event>
<event>
 6    2  0.9453093E+000  0.8135444E+02  0.7546771E-02  0.1325251E+00
          2   -1    0    0  502    0 -0.00000000000E+00  0.00000000000E+00  0.15199307701E+04  0.15199307701E+04  0.00000000000E+00 0. -1.
         21   -1    0    0  501  502  0.00000000000E+00 -0.00000000000E+00 -0.31260456693E+02  0.31260456693E+02  0.00000000000E+00 0. -1.
         24    2    1    2    0    0  0.55910246006E+00 -0.29257665932E+02  0.15117404464E+04  0.15139279117E+04  0.75909295088E+02 0.  0.
        -13    1    3    3    0    0  0.28657073018E+02 -0.23630292706E+01  0.26033478911E+03  0.26191795311E+03  0.00000000000E+00 0.  1.
         14    1    3    3    0    0 -0.28097970558E+02 -0.26894636661E+02  0.12514056573E+04  0.12520099586E+04  0.00000000000E+00 0. -1.
          1    1    1    2  501    0 -0.55910246006E+00  0.29257665932E+02 -0.23070132996E+02  0.37263315040E+02  0.00000000000E+00 0. -1.
<mgrwt>
<rscale>  1 0.81354439E+02</rscale>
<asrwt>0</asrwt>
<pdfrwt beam="1">  1       21 0.48093022E-02 0.81354439E+02</pdfrwt>
<pdfrwt beam="2">  1        2 0.23383545E+00 0.81354439E+02</pdfrwt>
<totfact> 0.50102943E+04</totfact>
</mgrwt>
</event>
<event>
 6    2  0.9453093E+000  0.9260139E+02  0.7546771E-02  0.1296672E+00
          2   -1    0    0  502    0 -0.00000000000E+00  0.00000000000E+00  0.75011106252E+03  0.75011106252E+03  0.00000000000E+00 0. -1.
         21   -1    0    0  501  502  0.00000000000E+00 -0.00000000000E+00 -0.75448705497E+01  0.75448705497E+01  0.00000000000E+00 0. -1.
         24    2    1    2    0    0  0.42407220647E+02  0.20136774851E+02  0.61073810220E+03  0.61771842089E+03  0.79819521139E+02 0.  0.
        -11    1    3    3    0    0  0.32367485912E+02 -0.19509810268E+02  0.13394669477E+03  0.13917616132E+03  0.00000000000E+00 0.  1.
         12    1    3    3    0    0  0.10039734735E+02  0.39646585119E+02  0.47679140743E+03  0.47854225956E+03  0.00000000000E+00 0. -1.
          1    1    1    2  501    0 -0.42407220647E+02 -0.20136774851E+02  0.13182808976E+03  0.13993751218E+03  0.00000000000E+00 0. -1.
<mgrwt>
<rscale>  1 0.92601393E+02</rscale>
<asrwt>0</asrwt>
<pdfrwt beam="1">  1       21 0.11607499E-02 0.92601393E+02</pdfrwt>
<pdfrwt beam="2">  1        2 0.11540164E+00 0.92601393E+02</pdfrwt>
<totfact> 0.13590483E+06</totfact>
</mgrwt>
</event>
<event>
 6    2  0.9453093E+000  0.7679585E+02  0.7546771E-02  0.1338398E+00
         21   -1    0    0  501  502  0.00000000000E+00  0.00000000000E+00  0.29654737182E+03  0.29654737182E+03  0.00000000000E+00 0. -1.
         -3   -1    0    0    0  501 -0.00000000000E+00 -0.00000000000E+00 -0.10532720724E+02  0.10532720724E+02  0.00000000000E+00 0.  1.
         24    2    1    2    0    0 -0.30847557999E+02  0.38632994939E+01  0.16280092018E+03  0.18000483766E+03  0.70221827460E+02 0.  0.
        -13    1    3    3    0    0 -0.14290038191E+02 -0.20090493841E+02  0.13939587164E+02  0.28322168430E+02  0.00000000000E+00 0.  1.
         14    1    3    3    0    0 -0.16557519808E+02  0.23953793334E+02  0.14886133302E+03  0.15168266923E+03  0.00000000000E+00 0. -1.
         -4    1    1    2    0  502  0.30847557999E+02 -0.38632994939E+01  0.12321373091E+03  0.12707525488E+03  0.00000000000E+00 0.  1.
<mgrwt>
<rscale>  1 0.76795846E+02</rscale>
<asrwt>0</asrwt>
<pdfrwt beam="1">  1       21 0.45622666E-01 0.76795846E+02</pdfrwt>
<pdfrwt beam="2">  1       -3 0.16204188E-02 0.76795846E+02</pdfrwt>
<totfact> 0.26507456E+05</totfact>
</mgrwt>
</event>
<event>
 6    2  0.9453093E+000  0.8377202E+02  0.7546771E-02  0.1318675E+00
         -1   -1    0    0    0  501 -0.00000000000E+00  0.00000000000E+00  0.23342100897E+02  0.23342100897E+02  0.00000000000E+00 0.  1.
         21   -1    0    0  501  502  0.00000000000E+00 -0.00000000000E+00 -0.22721976413E+03  0.22721976413E+03  0.00000000000E+00 0.  1.
         24    2    1    2    0    0 -0.22112967611E+02  0.32558110127E+00 -0.55371180846E+02  0.10041771879E+03  0.80800131425E+02 0.  0.
        -13    1    3    3    0    0 -0.43348558494E+02 -0.11311262818E+02 -0.57036024367E+01  0.45161634944E+02  0.00000000000E+00 0.  1.
         14    1    3    3    0    0  0.21235590883E+02  0.11636843919E+02 -0.49667578410E+02  0.55256083843E+02  0.00000000000E+00 0. -1.
         -2    1    1    2    0  502  0.22112967611E+02 -0.32558110127E+00 -0.14850648239E+03  0.15014414624E+03  0.00000000000E+00 0.  1.
<mgrwt>
<rscale>  1 0.83772015E+02</rscale>
<asrwt>0</asrwt>
<pdfrwt beam="1">  1       21 0.34956887E-01 0.83772015E+02</pdfrwt>
<pdfrwt beam="2">  1       -1 0.35910924E-02 0.83772015E+02</pdfrwt>
<totfact> 0.18957126E+05</totfact>
</mgrwt>
</event>
<event>
 6    2  0.9453093E+000  0.9936366E+02  0.7546771E-02  0.1281640E+00
          2   -1    0    0  502    0 -0.00000000000E+00  0.00000000000E+00  0.74628057434E+03  0.74628057434E+03  0.00000000000E+00 0. -1.
         21   -1    0    0  501  502  0.00000000000E+00 -0.00000000000E+00 -0.11393890914E+02  0.11393890914E+02  0.00000000000E+00 0. -1.
         24    2    1    2    0    0 -0.23920737620E+02 -0.53634008773E+02  0.24655431979E+03  0.26582356716E+03  0.80151903678E+02 0.  0.
        -13    1    3    3    0    0  0.27433171685E+02 -0.49562859225E+01  0.84953004155E+02  0.89410047500E+02  0.00000000000E+00 0.  1.
         14    1    3    3    0    0 -0.51353909305E+02 -0.48677722851E+02  0.16160131564E+03  0.17641351966E+03  0.00000000000E+00 0. -1.
          1    1    1    2  501    0  0.23920737620E+02  0.53634008773E+02  0.48833236363E+03  0.49185089809E+03  0.00000000000E+00 0. -1.
<mgrwt>
<rscale>  1 0.99363657E+02</rscale>
<asrwt>0</asrwt>
<pdfrwt beam="1">  1       21 0.17529069E-02 0.99363657E+02</pdfrwt>
<pdfrwt beam="2">  1        2 0.11481236E+00 0.99363657E+02</pdfrwt>
<totfact> 0.71613408E+05</totfact>
</mgrwt>
</event>
<event>
 6    2  0.9453093E+000  0.1563368E+03  0.7546771E-02  0.1192896E+00
         21   -1    0    0  501  502  0.00000000000E+00  0.00000000000E+00  0.28765672278E+03  0.28765672278E+03  0.00000000000E+00 0.  1.
          2   -1    0    0  502    0 -0.00000000000E+00 -0.00000000000E+00 -0.80935087328E+02  0.80935087328E+02  0.00000000000E+00 0. -1.
         24    2    1    2    0    0  0.95531632606E+02 -0.94242658866E+02  0.16674083127E+03  0.22856882527E+03  0.80207427931E+02 0.  0.
        -11    1    3    3    0    0  0.87093938772E+02 -0.10886233396E+03  0.14704004586E+03  0.20262560799E+03  0.00000000000E+00 0.  1.
         12    1    3    3    0    0  0.84376938344E+01  0.14619675097E+02  0.19700785413E+02  0.25943217284E+02  0.00000000000E+00 0. -1.
          1    1    1    2  501    0 -0.95531632606E+02  0.94242658866E+02  0.39980804177E+02  0.14002298483E+03  0.00000000000E+00 0. -1.
<mgrwt>
<rscale>  1 0.15633683E+03</rscale>
<asrwt>0</asrwt>
<pdfrwt beam="1">  1       21 0.44254880E-01 0.15633683E+03</pdfrwt>
<pdfrwt beam="2">  1        2 0.12451552E-01 0.15633683E+03</pdfrwt>
<totfact> 0.29104603E+04</totfact>
</mgrwt>
</event>
<event>
 6    2  0.9453093E+000  0.7924009E+02  0.7546771E-02  0.1331222E+00
         21   -1    0    0  501  502  0.00000000000E+00  0.00000000000E+00  0.38990084434E+01  0.38990084434E+01  0.00000000000E+00 0. -1.
          2   -1    0    0  502    0 -0.00000000000E+00 -0.00000000000E+00 -0.92982976783E+03  0.92982976783E+03  0.00000000000E+00 0. -1.
         24    2    1    2    0    0 -0.21082122826E+02  0.35364902690E+02 -0.60338764364E+03  0.60856851769E+03  0.67704209495E+02 0.  0.
        -13    1    3    3    0    0  0.18336189671E+02 -0.85339088077E+01 -0.15943566180E+03  0.16071332772E+03  0.00000000000E+00 0.  1.
         14    1    3    3    0    0 -0.39418312496E+02  0.43898811498E+02 -0.44395198184E+03  0.44785518998E+03  0.00000000000E+00 0. -1.
          1    1    1    2  501    0  0.21082122826E+02 -0.35364902690E+02 -0.32254311574E+03  0.32516025858E+03  0.00000000000E+00 0. -1.
<mgrwt>
<rscale>  1 0.79240092E+02</rscale>
<asrwt>0</asrwt>
<pdfrwt beam="1">  1       21 0.59984785E-03 0.79240092E+02</pdfrwt>
<pdfrwt beam="2">  1        2 0.14305064E+00 0.79240092E+02</pdfrwt>
<totfact> 0.28555851E+06</totfact>
</mgrwt>
</event>
<event>
 6    2  0.9453093E+000  0.9866249E+02  0.7546771E-02  0.1283134E+00
         21   -1    0    0  501  502  0.00000000000E+00  0.00000000000E+00  0.10136660417E+03  0.10136660417E+03  0.00000000000E+00 0. -1.
         -3   -1    0    0    0  501 -0.00000000000E+00 -0.00000000000E+00 -0.58024123971E+02  0.58024123971E+02  0.00000000000E+00 0.  1.
         24    2    1    2    0    0 -0.49133141824E+02 -0.20358394880E+02  0.17280391278E+02  0.10016436284E+03  0.83100889243E+02 0.  0.
        -11    1    3    3    0    0 -0.77097378543E+01  0.17164814766E+01 -0.31496077817E+02  0.32471360987E+02  0.00000000000E+00 0.  1.
         12    1    3    3    0    0 -0.41423403970E+02 -0.22074876357E+02  0.48776469095E+02  0.67693001854E+02  0.00000000000E+00 0. -1.
         -4    1    1    2    0  502  0.49133141824E+02  0.20358394880E+02  0.26062088918E+02  0.59226365298E+02  0.00000000000E+00 0.  1.
<mgrwt>
<rscale>  1 0.98662494E+02</rscale>
<asrwt>0</asrwt>
<pdfrwt beam="1">  1       21 0.15594862E-01 0.98662494E+02</pdfrwt>
<pdfrwt beam="2">  1       -3 0.89267883E-02 0.98662494E+02</pdfrwt>
<totfact> 0.14820987E+05</totfact>
</mgrwt>
</event>
<event>
 6    2  0.9453093E+000  0.9315175E+02  0.7546771E-02  0.1295394E+00
         21   -1    0    0  501  502  0.00000000000E+00  0.00000000000E+00  0.11314391743E+03  0.11314391743E+03  0.00000000000E+00 0.  1.
          2   -1    0    0  502    0 -0.00000000000E+00 -0.00000000000E+00 -0.49109561344E+02  0.49109561344E+02  0.00000000000E+00 0. -1.
         24    2    1    2    0    0 -0.35749078581E+02  0.29401456130E+02  0.68681630442E+02  0.11573424188E+03  0.80838147813E+02 0.  0.
        -11    1    3    3    0    0 -0.50268270212E+02 -0.97054225406E+01  0.33697844291E+02  0.61291426209E+02  0.00000000000E+00 0.  1.
         12    1    3    3    0    0  0.14519191631E+02  0.39106878671E+02  0.34983786150E+02  0.54442815673E+02  0.00000000000E+00 0. -1.
          1    1    1    2  501    0  0.35749078581E+02 -0.29401456130E+02 -0.46472743562E+01  0.46519236891E+02  0.00000000000E+00 0. -1.
<mgrwt>
<rscale>  1 0.93151749E+02</rscale>
<asrwt>0</asrwt>
<pdfrwt beam="1">  1       21 0.17406757E-01 0.93151749E+02</pdfrwt>
<pdfrwt beam="2">  1        2 0.75553171E-02 0.93151749E+02</pdfrwt>
<totfact> 0.31347221E+05</totfact>
</mgrwt>
</event>
<event>
 6    2  0.9453093E+000  0.8425704E+02  0.7546771E-02  0.1317387E+00
          2   -1    0    0  502    0 -0.00000000000E+00  0.00000000000E+00  0.18641322851E+03  0.18641322851E+03  0.00000000000E+00 0. -1.
         21   -1    0    0  501  502  0.00000000000E+00 -0.00000000000E+00 -0.23808348689E+02  0.23808348689E+02  0.00000000000E+00 0. -1.
         24    2    1    2    0    0  0.14364710524E+01  0.38224456085E+02  0.14589995063E+03  0.16848158257E+03  0.75073800900E+02 0.  0.
        -11    1    3    3    0    0  0.11198192890E+02 -0.37018541651E+00 -0.51083612840E+01  0.12313891191E+02  0.00000000000E+00 0.  1.
         12    1    3    3    0    0 -0.97617218377E+01  0.38594641501E+02  0.15100831191E+03  0.15616769138E+03  0.00000000000E+00 0. -1.
          1    1    1    2  501    0 -0.14364710524E+01 -0.38224456085E+02  0.16704929198E+02  0.41739994628E+02  0.00000000000E+00 0. -1.
<mgrwt>
<rscale>  1 0.84257036E+02</rscale>
<asrwt>0</asrwt>
<pdfrwt beam="1">  1       21 0.36628230E-02 0.84257036E+02</pdfrwt>
<pdfrwt beam="2">  1        2 0.28678957E-01 0.84257036E+02</pdfrwt>
<totfact> 0.95492940E+05</totfact>
</mgrwt>
</event>
<event>
 6    2  0.9453093E+000  0.8583251E+02  0.7546771E-02  0.1313270E+00
         -3   -1    0    0    0  501 -0.00000000000E+00  0.00000000000E+00  0.12301270625E+04  0.12301270625E+04  0.00000000000E+00 0.  1.
         21   -1    0    0  501  502  0.00000000000E+00 -0.00000000000E+00 -0.28738243025E+01  0.28738243025E+01  0.00000000000E+00 0. -1.
         24    2    1    2    0    0  0.22137512767E+02  0.15626366592E+02  0.10693786500E+04  0.10728177466E+04  0.81443032582E+02 0.  0.
        -13    1    3    3    0    0 -0.20293812863E+01  0.44616862252E+02  0.72565331564E+03  0.72702649009E+03  0.00000000000E+00 0.  1.
         14    1    3    3    0    0  0.24166894053E+02 -0.28990495660E+02  0.34372533434E+03  0.34579125650E+03  0.00000000000E+00 0. -1.
         -4    1    1    2    0  502 -0.22137512767E+02 -0.15626366592E+02  0.15787458825E+03  0.16018314025E+03  0.00000000000E+00 0.  1.
<mgrwt>
<rscale>  1 0.85832513E+02</rscale>
<asrwt>0</asrwt>
<pdfrwt beam="1">  1       21 0.44212780E-03 0.85832513E+02</pdfrwt>
<pdfrwt beam="2">  1       -3 0.18924990E+00 0.85832513E+02</pdfrwt>
<totfact> 0.11376523E+05</totfact>
</mgrwt>
</event>
<event>
 6    2  0.9453093E+000  0.9839761E+02  0.7546771E-02  0.1283702E+00
         -3   -1    0    0    0  501 -0.00000000000E+00  0.00000000000E+00  0.12691683090E+03  0.12691683090E+03  0.00000000000E+00 0.  1.
         21   -1    0    0  501  502  0.00000000000E+00 -0.00000000000E+00 -0.47623200836E+02  0.47623200836E+02  0.00000000000E+00 0.  1.
         24    2    1    2    0    0  0.36011731924E+02  0.21246739997E+02  0.87796010108E+02  0.13187201956E+03  0.89072000965E+02 0.  0.
        -11    1    3    3    0    0  0.65875865654E+02  0.14385742242E+02  0.55272020554E+02  0.87187014582E+02  0.00000000000E+00 0.  1.
         12    1    3    3    0    0 -0.29864133730E+02  0.68609977549E+01  0.32523989553E+02  0.44685004980E+02  0.00000000000E+00 0. -1.
         -4    1    1    2    0  502 -0.36011731924E+02 -0.21246739997E+02 -0.85023800416E+01  0.42668012176E+02  0.00000000000E+00 0.  1.
<mgrwt>
<rscale>  1 0.98397613E+02</rscale>
<asrwt>0</asrwt>
<pdfrwt beam="1">  1       21 0.73266463E-02 0.98397613E+02</pdfrwt>
<pdfrwt beam="2">  1       -3 0.19525666E-01 0.98397613E+02</pdfrwt>
<totfact> 0.14875959E+05</totfact>
</mgrwt>
</event>
<event>
 6    2  0.9453093E+000  0.8503186E+02  0.7546771E-02  0.1315349E+00
          2   -1    0    0  502    0 -0.00000000000E+00  0.00000000000E+00  0.17329272340E+02  0.17329272340E+02  0.00000000000E+00 0. -1.
         21   -1    0    0  501  502  0.00000000000E+00 -0.00000000000E+00 -0.24458322851E+03  0.24458322851E+03  0.00000000000E+00 0.  1.
         24    2    1    2    0    0  0.25578726081E+02 -0.32394258675E+01 -0.96402854935E+02  0.12854542919E+03  0.81028709843E+02 0.  0.
        -11    1    3    3    0    0  0.16195830967E+02 -0.24935176509E+01 -0.11043756443E+03  0.11164666680E+03  0.00000000000E+00 0.  1.
         12    1    3    3    0    0  0.93828951146E+01 -0.74590821663E+00  0.14034709493E+02  0.16898762392E+02  0.00000000000E+00 0. -1.
          1    1    1    2  501    0 -0.25578726081E+02  0.32394258675E+01 -0.13085110123E+03  0.13336707166E+03  0.00000000000E+00 0. -1.
<mgrwt>
<rscale>  1 0.85031858E+02</rscale>
<asrwt>0</asrwt>
<pdfrwt beam="1">  1       21 0.37628186E-01 0.85031858E+02</pdfrwt>
<pdfrwt beam="2">  1        2 0.26660421E-02 0.85031858E+02</pdfrwt>
<totfact> 0.28183272E+05</totfact>
</mgrwt>
</event>
<event>
 6    2  0.9453093E+000  0.9860249E+02  0.7546771E-02  0.1283262E+00
         21   -1    0    0  501  502  0.00000000000E+00  0.00000000000E+00  0.13869761783E+02  0.13869761783E+02  0.00000000000E+00 0. -1.
          4   -1    0    0  502    0 -0.00000000000E+00 -0.00000000000E+00 -0.53303510085E+03  0.53303510085E+03  0.00000000000E+00 0. -1.
         24    2    1    2    0    0  0.46345066334E+02  0.30935945213E+02 -0.43450594858E+03  0.44555344293E+03  0.81348345212E+02 0.  0.
        -11    1    3    3    0    0 -0.59649235308E+01 -0.10823830623E+02 -0.10267843134E+02  0.16067489683E+02  0.00000000000E+00 0.  1.
         12    1    3    3    0    0  0.52309989865E+02  0.41759775836E+02 -0.42423810545E+03  0.42948595324E+03  0.00000000000E+00 0. -1.
          3    1    1    2  501    0 -0.46345066334E+02 -0.30935945213E+02 -0.84659390486E+02  0.10135141971E+03  0.00000000000E+00 0. -1.
<mgrwt>
<rscale>  1 0.98602491E+02</rscale>
<asrwt>0</asrwt>
<pdfrwt beam="1">  1       21 0.21338094E-02 0.98602491E+02</pdfrwt>
<pdfrwt beam="2">  1        4 0.82005404E-01 0.98602491E+02</pdfrwt>
<totfact> 0.57345776E+04</totfact>
</mgrwt>
</event>
<event>
 6    2  0.9453093E+000  0.8329463E+02  0.7546771E-02  0.1319953E+00
         21   -1    0    0  501  502  0.00000000000E+00  0.00000000000E+00  0.84531523661E+01  0.84531523661E+01  0.00000000000E+00 0.  1.
          2   -1    0    0  502    0 -0.00000000000E+00 -0.00000000000E+00 -0.42840035197E+03  0.42840035197E+03  0.00000000000E+00 0. -1.
         24    2    1    2    0    0 -0.28116908243E+01 -0.23948389022E+02 -0.21629961195E+03  0.23178334342E+03  0.79728070426E+02 0.  0.
        -11    1    3    3    0    0  0.13656201020E+02  0.37997841249E+01 -0.11433637710E+01  0.14221021989E+02  0.00000000000E+00 0.  1.
         12    1    3    3    0    0 -0.16467891844E+02 -0.27748173147E+02 -0.21515624818E+03  0.21756232143E+03  0.00000000000E+00 0. -1.
          1    1    1    2  501    0  0.28116908243E+01  0.23948389022E+02 -0.20364758765E+03  0.20507016092E+03  0.00000000000E+00 0. -1.
<mgrwt>
<rscale>  1 0.83294635E+02</rscale>
<asrwt>0</asrwt>
<pdfrwt beam="1">  1       21 0.13004853E-02 0.83294635E+02</pdfrwt>
<pdfrwt beam="2">  1        2 0.65907729E-01 0.83294635E+02</pdfrwt>
<totfact> 0.20935351E+06</totfact>
</mgrwt>
</event>
<event>
 6    2  0.9453093E+000  0.8367520E+02  0.7546771E-02  0.1318934E+00
         -1   -1    0    0    0  501 -0.00000000000E+00  0.00000000000E+00  0.98320869758E+02  0.98320869758E+02  0.00000000000E+00 0.  1.
         21   -1    0    0  501  502  0.00000000000E+00 -0.00000000000E+00 -0.55385448967E+02  0.55385448967E+02  0.00000000000E+00 0.  1.
         24    2    1    2    0    0  0.60371796266E+01 -0.21114666919E+02  0.76646250433E+02  0.11347328836E+03  0.80741951733E+02 0.  0.
        -11    1    3    3    0    0 -0.30479454608E+02 -0.19170222008E+02  0.66337725041E+02  0.75479721308E+02  0.00000000000E+00 0.  1.
         12    1    3    3    0    0  0.36516634235E+02 -0.19444449109E+01  0.10308525391E+02  0.37993567055E+02  0.00000000000E+00 0. -1.
         -2    1    1    2    0  502 -0.60371796266E+01  0.21114666919E+02 -0.33710829641E+02  0.40233030361E+02  0.00000000000E+00 0.  1.
<mgrwt>
<rscale>  1 0.83675202E+02</rscale>
<asrwt>0</asrwt>
<pdfrwt beam="1">  1       21 0.85208383E-02 0.83675202E+02</pdfrwt>
<pdfrwt beam="2">  1       -1 0.15126288E-01 0.83675202E+02</pdfrwt>
<totfact> 0.28747538E+05</totfact>
</mgrwt>
</event>
<event>
 6    2  0.9453093E+000  0.8759494E+02  0.7546771E-02  0.1308783E+00
          2   -1    0    0  502    0 -0.00000000000E+00  0.00000000000E+00  0.35928176210E+03  0.35928176210E+03  0.00000000000E+00 0. -1.
         21   -1    0    0  501  502  0.00000000000E+00 -0.00000000000E+00 -0.93798486566E+01  0.93798486566E+01  0.00000000000E+00 0.  1.
         24    2    1    2    0    0  0.25749985875E+02  0.93296719167E+01  0.28664295279E+03  0.29972830492E+03  0.83203184046E+02 0.  0.
        -11    1    3    3    0    0  0.41728133400E+02  0.36843730438E+02  0.18958101075E+03  0.19758455716E+03  0.00000000000E+00 0.  1.
         12    1    3    3    0    0 -0.15978147525E+02 -0.27514058522E+02  0.97061942043E+02  0.10214374777E+03  0.00000000000E+00 0. -1.
          1    1    1    2  501    0 -0.25749985875E+02 -0.93296719167E+01  0.63258960655E+02  0.68933305838E+02  0.00000000000E+00 0. -1.
<mgrwt>
<rscale>  1 0.87594945E+02</rscale>
<asrwt>0</asrwt>
<pdfrwt beam="1">  1       21 0.14430539E-02 0.87594945E+02</pdfrwt>
<pdfrwt beam="2">  1        2 0.55274107E-01 0.87594945E+02</pdfrwt>
<totfact> 0.21504549E+06</totfact>
</mgrwt>
</event>
<event>
 6    2  0.9453093E+000  0.1829002E+03  0.7546771E-02  0.1165025E+00
         21   -1    0    0  501  502  0.00000000000E+00  0.00000000000E+00  0.17437813629E+03  0.17437813629E+03  0.00000000000E+00 0.  1.
         -3   -1    0    0    0  501 -0.00000000000E+00 -0.00000000000E+00 -0.22459530209E+03  0.22459530209E+03  0.00000000000E+00 0.  1.
         24    2    1    2    0    0  0.15315500703E+03 -0.51764365173E+02 -0.12430111119E+03  0.22114082988E+03  0.85536511000E+02 0.  0.
        -13    1    3    3    0    0  0.15298684150E+03 -0.58206694127E+02 -0.13258449205E+03  0.21064577007E+03  0.00000000000E+00 0.  1.
         14    1    3    3    0    0  0.16816552757E+00  0.64423289541E+01  0.82833808572E+01  0.10495059810E+02  0.00000000000E+00 0. -1.
         -4    1    1    2    0  502 -0.15315500703E+03  0.51764365173E+02  0.74083945399E+02  0.17783260850E+03  0.00000000000E+00 0.  1.
<mgrwt>
<rscale>  1 0.18290025E+03</rscale>
<asrwt>0</asrwt>
<pdfrwt beam="1">  1       21 0.26827406E-01 0.18290025E+03</pdfrwt>
<pdfrwt beam="2">  1       -3 0.34553123E-01 0.18290025E+03</pdfrwt>
<totfact> 0.53635681E+03</totfact>
</mgrwt>
</event>
<event>
 6    2  0.9453093E+000  0.1107565E+03  0.7546771E-02  0.1259175E+00
          2   -1    0    0  502    0 -0.00000000000E+00  0.00000000000E+00  0.27506340052E+04  0.27506340052E+04  0.00000000000E+00 0. -1.
         21   -1    0    0  501  502  0.00000000000E+00 -0.00000000000E+00 -0.33123766073E+01  0.33123766073E+01  0.00000000000E+00 0. -1.
         24    2    1    2    0    0 -0.11443115169E+02 -0.77118491983E+02  0.14022732704E+04  0.14066404430E+04  0.78668955123E+02 0.  0.
        -11    1    3    3    0    0  0.10523505778E+02  0.12002501623E+02  0.11553339702E+03  0.11663091376E+03  0.00000000000E+00 0.  1.
         12    1    3    3    0    0 -0.21966620947E+02 -0.89120993605E+02  0.12867398733E+04  0.12900095293E+04  0.00000000000E+00 0. -1.
          1    1    1    2  501    0  0.11443115169E+02  0.77118491983E+02  0.13450483582E+04  0.13473059388E+04  0.00000000000E+00 0. -1.
<mgrwt>
<rscale>  1 0.11075654E+03</rscale>
<asrwt>0</asrwt>
<pdfrwt beam="1">  1       21 0.50959860E-03 0.11075654E+03</pdfrwt>
<pdfrwt beam="2">  1        2 0.42317263E+00 0.11075654E+03</pdfrwt>
<totfact> 0.41503028E+05</totfact>
</mgrwt>
</event>
<event>
 6    2  0.9453093E+000  0.9500396E+02  0.7546771E-02  0.1291167E+00
         21   -1    0    0  501  502  0.00000000000E+00  0.00000000000E+00  0.39043725844E+02  0.39043725844E+02  0.00000000000E+00 0.  1.
         -3   -1    0    0    0  501 -0.00000000000E+00 -0.00000000000E+00 -0.20617949845E+03  0.20617949845E+03  0.00000000000E+00 0.  1.
         24    2    1    2    0    0  0.42296264838E+02 -0.24888264458E+02 -0.17139397570E+03  0.19596338243E+03  0.81347111925E+02 0.  0.
        -13    1    3    3    0    0 -0.10267951410E+02  0.13943226000E+02 -0.89650021660E+02  0.91307013756E+02  0.00000000000E+00 0.  1.
         14    1    3    3    0    0  0.52564216249E+02 -0.38831490458E+02 -0.81743954041E+02  0.10465636867E+03  0.00000000000E+00 0. -1.
         -4    1    1    2    0  502 -0.42296264838E+02  0.24888264458E+02  0.42582030976E+01  0.49259841865E+02  0.00000000000E+00 0.  1.
<mgrwt>
<rscale>  1 0.95003960E+02</rscale>
<asrwt>0</asrwt>
<pdfrwt beam="1">  1       21 0.60067271E-02 0.95003960E+02</pdfrwt>
<pdfrwt beam="2">  1       -3 0.31719922E-01 0.95003960E+02</pdfrwt>
<totfact> 0.86828241E+04</totfact>
</mgrwt>
</event>
<event>
 6    2  0.9453093E+000  0.8364196E+02  0.7546771E-02  0.1319023E+00
         -3   -1    0    0    0  501 -0.00000000000E+00  0.00000000000E+00  0.45610011728E+03  0.45610011728E+03  0.00000000000E+00 0.  1.
         21   -1    0    0  501  502  0.00000000000E+00 -0.00000000000E+00 -0.80002026074E+02  0.80002026074E+02  0.00000000000E+00 0.  1.
         24    2    1    2    0    0  0.29997198795E+02  0.20410911520E+02  0.44790579841E+03  0.45564852903E+03  0.75362726264E+02 0.  0.
        -13    1    3    3    0    0  0.34407540914E+00  0.14541913697E+02  0.39049584375E+03  0.39076666904E+03  0.00000000000E+00 0.  1.
         14    1    3    3    0    0  0.29653123386E+02  0.58689978228E+01  0.57409954659E+02  0.64881859991E+02  0.00000000000E+00 0. -1.
         -4    1    1    2    0  502 -0.29997198795E+02 -0.20410911520E+02 -0.71807707203E+02  0.80453614328E+02  0.00000000000E+00 0.  1.
<mgrwt>
<rscale>  1 0.83641962E+02</rscale>
<asrwt>0</asrwt>
<pdfrwt beam="1">  1       21 0.12308004E-01 0.83641962E+02</pdfrwt>
<pdfrwt beam="2">  1       -3 0.70169247E-01 0.83641962E+02</pdfrwt>
<totfact> 0.52693916E+03</totfact>
</mgrwt>
</event>
<event>
 6    2  0.9453093E+000  0.8375668E+02  0.7546771E-02  0.1318716E+00
          2   -1    0    0  502    0 -0.00000000000E+00  0.00000000000E+00  0.11249074264E+03  0.11249074264E+03  0.00000000000E+00 0. -1.
         21   -1    0    0  501  502  0.00000000000E+00 -0.00000000000E+00 -0.28347891070E+02  0.28347891070E+02  0.00000000000E+00 0.  1.
         24    2    1    2    0    0 -0.18173757179E+02 -0.17500455812E+02  0.78905771124E+02  0.11507085509E+03  0.79866323130E+02 0.  0.
        -11    1    3    3    0    0 -0.24866811123E+02 -0.20838543217E+02 -0.32217981250E+01  0.32603422550E+02  0.00000000000E+00 0.  1.
         12    1    3    3    0    0  0.66930539438E+01  0.33380874043E+01  0.82127569249E+02  0.82467432538E+02  0.00000000000E+00 0. -1.
          1    1    1    2  501    0  0.18173757179E+02  0.17500455812E+02  0.52370804496E+01  0.25767778625E+02  0.00000000000E+00 0. -1.
<mgrwt>
<rscale>  1 0.83756677E+02</rscale>
<asrwt>0</asrwt>
<pdfrwt beam="1">  1       21 0.43612141E-02 0.83756677E+02</pdfrwt>
<pdfrwt beam="2">  1        2 0.17306268E-01 0.83756677E+02</pdfrwt>
<totfact> 0.12491967E+06</totfact>
</mgrwt>
</event>
<event>
 6    2  0.9453093E+000  0.8300020E+02  0.7546771E-02  0.1320747E+00
          2   -1    0    0  502    0 -0.00000000000E+00  0.00000000000E+00  0.28525110810E+02  0.28525110810E+02  0.00000000000E+00 0. -1.
         21   -1    0    0  501  502  0.00000000000E+00 -0.00000000000E+00 -0.18967116914E+03  0.18967116914E+03  0.00000000000E+00 0. -1.
         24    2    1    2    0    0  0.14518414944E+02 -0.20446293817E+02 -0.35843369593E+02  0.90408960126E+02  0.79121410654E+02 0.  0.
        -11    1    3    3    0    0  0.46402553064E+02 -0.34625895748E+01 -0.24233719182E+02  0.52463888560E+02  0.00000000000E+00 0.  1.
         12    1    3    3    0    0 -0.31884138121E+02 -0.16983704243E+02 -0.11609650411E+02  0.37945071566E+02  0.00000000000E+00 0. -1.
          1    1    1    2  501    0 -0.14518414944E+02  0.20446293817E+02 -0.12530268873E+03  0.12778731982E+03  0.00000000000E+00 0. -1.
<mgrwt>
<rscale>  1 0.83000198E+02</rscale>
<asrwt>0</asrwt>
<pdfrwt beam="1">  1       21 0.29180180E-01 0.83000198E+02</pdfrwt>
<pdfrwt beam="2">  1        2 0.43884786E-02 0.83000198E+02</pdfrwt>
<totfact> 0.23838675E+05</totfact>
</mgrwt>
</event>
<event>
 6    2  0.1067491E+001  0.8498414E+02  0.7546771E-02  0.1315474E+00
         -1   -1    0    0    0  501 -0.00000000000E+00  0.00000000000E+00  0.35036406450E+03  0.35036406450E+03  0.00000000000E+00 0.  1.
         21   -1    0    0  501  502  0.00000000000E+00 -0.00000000000E+00 -0.16661267823E+02  0.16661267823E+02  0.00000000000E+00 0.  1.
         24    2    1    2    0    0 -0.19931457205E+02 -0.30569861022E+02  0.31451594551E+03  0.32579531113E+03  0.76749758230E+02 0.  0.
        -11    1    3    3    0    0 -0.10310496619E+02 -0.43900262963E+02  0.30142676396E+03  0.30478128791E+03  0.00000000000E+00 0.  1.
         12    1    3    3    0    0 -0.96209605858E+01  0.13330401940E+02  0.13089181552E+02  0.21014023227E+02  0.00000000000E+00 0. -1.
         -2    1    1    2    0  502  0.19931457205E+02  0.30569861022E+02  0.19186851164E+02  0.41230021184E+02  0.00000000000E+00 0.  1.
<mgrwt>
<rscale>  1 0.84984144E+02</rscale>
<asrwt>0</asrwt>
<pdfrwt beam="1">  1       21 0.25632722E-02 0.84984144E+02</pdfrwt>
<pdfrwt beam="2">  1       -1 0.53902158E-01 0.84984144E+02</pdfrwt>
<totfact> 0.25531987E+05</totfact>
</mgrwt>
</event>
<event>
 6    2  0.9453093E+000  0.1023691E+03  0.7546771E-02  0.1275392E+00
         21   -1    0    0  501  502  0.00000000000E+00  0.00000000000E+00  0.28409915873E+02  0.28409915873E+02  0.00000000000E+00 0. -1.
          2   -1    0    0  502    0 -0.00000000000E+00 -0.00000000000E+00 -0.25002344732E+03  0.25002344732E+03  0.00000000000E+00 0. -1.
         24    2    1    2    0    0  0.62637138539E+02 -0.12174175288E+02 -0.11309346009E+03  0.15254361955E+03  0.80048756898E+02 0.  0.
        -13    1    3    3    0    0  0.74274365379E+01 -0.15924379472E+02  0.80743374744E+01  0.19337724808E+02  0.00000000000E+00 0.  1.
         14    1    3    3    0    0  0.55209702001E+02  0.37502041842E+01 -0.12116779756E+03  0.13320589474E+03  0.00000000000E+00 0. -1.
          1    1    1    2  501    0 -0.62637138539E+02  0.12174175288E+02 -0.10852007136E+03  0.12588974365E+03  0.00000000000E+00 0. -1.
<mgrwt>
<rscale>  1 0.10236906E+03</rscale>
<asrwt>0</asrwt>
<pdfrwt beam="1">  1       21 0.43707561E-02 0.10236906E+03</pdfrwt>
<pdfrwt beam="2">  1        2 0.38465148E-01 0.10236906E+03</pdfrwt>
<totfact> 0.53237274E+05</totfact>
</mgrwt>
</event>
<event>
 6    2  0.9453093E+000  0.7885057E+02  0.7546771E-02  0.1332345E+00
         21   -1    0    0  501  502  0.00000000000E+00  0.00000000000E+00  0.16621749817E+02  0.16621749817E+02  0.00000000000E+00 0. -1.
          2   -1    0    0  502    0 -0.00000000000E+00 -0.00000000000E+00 -0.33404685269E+03  0.33404685269E+03  0.00000000000E+00 0. -1.
         24    2    1    2    0    0  0.20759951807E+02 -0.27133022900E+01 -0.32000254974E+03  0.32957403352E+03  0.76020221778E+02 0.  0.
        -13    1    3    3    0    0  0.19177727079E+02 -0.34782722777E+02 -0.24173502231E+03  0.24497641525E+03  0.00000000000E+00 0.  1.
         14    1    3    3    0    0  0.15822247279E+01  0.32069420487E+02 -0.78267527438E+02  0.84597618269E+02  0.00000000000E+00 0. -1.
          1    1    1    2  501    0 -0.20759951807E+02  0.27133022900E+01  0.25774468732E+01  0.21094568987E+02  0.00000000000E+00 0. -1.
<mgrwt>
<rscale>  1 0.78850566E+02</rscale>
<asrwt>0</asrwt>
<pdfrwt beam="1">  1       21 0.25571926E-02 0.78850566E+02</pdfrwt>
<pdfrwt beam="2">  1        2 0.51391818E-01 0.78850566E+02</pdfrwt>
<totfact> 0.92087988E+05</totfact>
</mgrwt>
</event>
<event>
 6    2  0.9453093E+000  0.8313381E+02  0.7546771E-02  0.1320386E+00
          2   -1    0    0  502    0 -0.00000000000E+00  0.00000000000E+00  0.15597861205E+03  0.15597861205E+03  0.00000000000E+00 0. -1.
         21   -1    0    0  501  502  0.00000000000E+00 -0.00000000000E+00 -0.18403950803E+02  0.18403950803E+02  0.00000000000E+00 0.  1.
         24    2    1    2    0    0  0.20956291539E+02  0.64569036521E+01  0.12138914098E+03  0.14712767657E+03  0.80189599738E+02 0.  0.
        -11    1    3    3    0    0 -0.13410547654E+02  0.20877247409E+02  0.55306658480E+01  0.25422244442E+02  0.00000000000E+00 0.  1.
         12    1    3    3    0    0  0.34366839193E+02 -0.14420343757E+02  0.11585847513E+03  0.12170543213E+03  0.00000000000E+00 0. -1.
          1    1    1    2  501    0 -0.20956291539E+02 -0.64569036521E+01  0.16185520266E+02  0.27254886279E+02  0.00000000000E+00 0. -1.
<mgrwt>
<rscale>  1 0.83133806E+02</rscale>
<asrwt>0</asrwt>
<pdfrwt beam="1">  1       21 0.28313772E-02 0.83133806E+02</pdfrwt>
<pdfrwt beam="2">  1        2 0.23996709E-01 0.83133806E+02</pdfrwt>
<totfact> 0.17575707E+06</totfact>
</mgrwt>
</event>
<event>
 6    2  0.9453093E+000  0.9210278E+02  0.7546771E-02  0.1297838E+00
         21   -1    0    0  501  502  0.00000000000E+00  0.00000000000E+00  0.12664286526E+03  0.12664286526E+03  0.00000000000E+00 0. -1.
          2   -1    0    0  502    0 -0.00000000000E+00 -0.00000000000E+00 -0.44673948997E+03  0.44673948997E+03  0.00000000000E+00 0. -1.
         24    2    1    2    0    0 -0.26146897019E+02 -0.36818578889E+02 -0.43776353716E+03  0.44734755741E+03  0.80272378035E+02 0.  0.
        -11    1    3    3    0    0  0.11275267929E+02  0.93171871586E+01 -0.17065347527E+02  0.22475936679E+02  0.00000000000E+00 0.  1.
         12    1    3    3    0    0 -0.37422164948E+02 -0.46135766048E+02 -0.42069818964E+03  0.42487162073E+03  0.00000000000E+00 0. -1.
          1    1    1    2  501    0  0.26146897019E+02  0.36818578889E+02  0.11766691246E+03  0.12603479782E+03  0.00000000000E+00 0. -1.
<mgrwt>
<rscale>  1 0.92102783E+02</rscale>
<asrwt>0</asrwt>
<pdfrwt beam="1">  1       21 0.19483518E-01 0.92102783E+02</pdfrwt>
<pdfrwt beam="2">  1        2 0.68729153E-01 0.92102783E+02</pdfrwt>
<totfact> 0.21624094E+04</totfact>
</mgrwt>
</event>
<event>
 6    2  0.9453093E+000  0.1140431E+03  0.7546771E-02  0.1253261E+00
         21   -1    0    0  501  502  0.00000000000E+00  0.00000000000E+00  0.36985916995E+02  0.36985916995E+02  0.00000000000E+00 0. -1.
          2   -1    0    0  502    0 -0.00000000000E+00 -0.00000000000E+00 -0.27391088838E+03  0.27391088838E+03  0.00000000000E+00 0. -1.
         24    2    1    2    0    0 -0.60407225381E+02  0.54770732397E+02 -0.17335788696E+03  0.20750608903E+03  0.79730508616E+02 0.  0.
        -11    1    3    3    0    0  0.18335964570E+02  0.18020500026E+02 -0.54615625142E+02  0.60364000261E+02  0.00000000000E+00 0.  1.
         12    1    3    3    0    0 -0.78743189952E+02  0.36750232371E+02 -0.11874226182E+03  0.14714208876E+03  0.00000000000E+00 0. -1.
          1    1    1    2  501    0  0.60407225381E+02 -0.54770732397E+02 -0.63567084417E+02  0.10339071635E+03  0.00000000000E+00 0. -1.
<mgrwt>
<rscale>  1 0.11404306E+03</rscale>
<asrwt>0</asrwt>
<pdfrwt beam="1">  1       21 0.56901409E-02 0.11404306E+03</pdfrwt>
<pdfrwt beam="2">  1        2 0.42140138E-01 0.11404306E+03</pdfrwt>
<totfact> 0.31358091E+05</totfact>
</mgrwt>
</event>
<event>
 6    2  0.9453093E+000  0.8186163E+02  0.7546771E-02  0.1323850E+00
         21   -1    0    0  501  502  0.00000000000E+00  0.00000000000E+00  0.87245292553E+02  0.87245292553E+02  0.00000000000E+00 0. -1.
         -3   -1    0    0    0  501 -0.00000000000E+00 -0.00000000000E+00 -0.33782901653E+02  0.33782901653E+02  0.00000000000E+00 0.  1.
         24    2    1    2    0    0  0.23312823448E+02 -0.62034193093E+01  0.29470101479E+02  0.87004671461E+02  0.78226311600E+02 0.  0.
        -13    1    3    3    0    0 -0.12535805973E+02 -0.19310757179E+01 -0.21250247141E+02  0.24747696628E+02  0.00000000000E+00 0.  1.
         14    1    3    3    0    0  0.35848629422E+02 -0.42723435913E+01  0.50720348620E+02  0.62256974833E+02  0.00000000000E+00 0. -1.
         -4    1    1    2    0  502 -0.23312823448E+02  0.62034193093E+01  0.23992289421E+02  0.34023522744E+02  0.00000000000E+00 0.  1.
<mgrwt>
<rscale>  1 0.81861627E+02</rscale>
<asrwt>0</asrwt>
<pdfrwt beam="1">  1       21 0.13422353E-01 0.81861627E+02</pdfrwt>
<pdfrwt beam="2">  1       -3 0.51973695E-02 0.81861627E+02</pdfrwt>
<totfact> 0.44556929E+05</totfact>
</mgrwt>
</event>
<event>
 6    2  0.9453093E+000  0.8508760E+02  0.7546771E-02  0.1315204E+00
         21   -1    0    0  501  502  0.00000000000E+00  0.00000000000E+00  0.21406311647E+03  0.21406311647E+03  0.00000000000E+00 0. -1.
          2   -1    0    0  502    0 -0.00000000000E+00 -0.00000000000E+00 -0.43936926412E+02  0.43936926412E+02  0.00000000000E+00 0. -1.
         24    2    1    2    0    0  0.53203315207E+01  0.20243589446E+02 -0.15013873473E+01  0.85100840550E+02  0.82472965615E+02 0.  0.
        -13    1    3    3    0    0 -0.23351855003E+02 -0.15958382817E+02  0.19514648427E+02  0.34362779536E+02  0.00000000000E+00 0.  1.
         14    1    3    3    0    0  0.28672186523E+02  0.36201972264E+02 -0.21016035775E+02  0.50738061014E+02  0.00000000000E+00 0. -1.
          1    1    1    2  501    0 -0.53203315207E+01 -0.20243589446E+02  0.17162757741E+03  0.17289920233E+03  0.00000000000E+00 0. -1.
<mgrwt>
<rscale>  1 0.85087595E+02</rscale>
<asrwt>0</asrwt>
<pdfrwt beam="1">  1       21 0.32932787E-01 0.85087595E+02</pdfrwt>
<pdfrwt beam="2">  1        2 0.67595272E-02 0.85087595E+02</pdfrwt>
<totfact> 0.10908934E+05</totfact>
</mgrwt>
</event>
<event>
 6    2  0.9453093E+000  0.9029536E+02  0.7546771E-02  0.1302138E+00
          2   -1    0    0  502    0 -0.00000000000E+00  0.00000000000E+00  0.22086413446E+04  0.22086413446E+04  0.00000000000E+00 0. -1.
         21   -1    0    0  501  502  0.00000000000E+00 -0.00000000000E+00 -0.21872324615E+01  0.21872324615E+01  0.00000000000E+00 0.  1.
         24    2    1    2    0    0 -0.26997393146E+02 -0.34178686240E+02  0.17413641344E+04  0.17437036161E+04  0.79096208106E+02 0.  0.
        -13    1    3    3    0    0 -0.27672333683E+02  0.55471964190E+01  0.21773210705E+03  0.21955363782E+03  0.00000000000E+00 0.  1.
         14    1    3    3    0    0  0.67494053649E+00 -0.39725882659E+02  0.15236320274E+04  0.15241499782E+04  0.00000000000E+00 0. -1.
          1    1    1    2  501    0  0.26997393146E+02  0.34178686240E+02  0.46508997770E+03  0.46712496100E+03  0.00000000000E+00 0. -1.
<mgrwt>
<rscale>  1 0.90295360E+02</rscale>
<asrwt>0</asrwt>
<pdfrwt beam="1">  1       21 0.33649907E-03 0.90295360E+02</pdfrwt>
<pdfrwt beam="2">  1        2 0.33978919E+00 0.90295360E+02</pdfrwt>
<totfact> 0.15023443E+06</totfact>
</mgrwt>
</event>
<event>
 6    2  0.9453093E+000  0.1026491E+03  0.7546771E-02  0.1274822E+00
         21   -1    0    0  501  502  0.00000000000E+00  0.00000000000E+00  0.40537205232E+03  0.40537205232E+03  0.00000000000E+00 0.  1.
         -1   -1    0    0    0  501 -0.00000000000E+00 -0.00000000000E+00 -0.21508314482E+02  0.21508314482E+02  0.00000000000E+00 0.  1.
         24    2    1    2    0    0 -0.43432892579E+02  0.46804810440E+02  0.13292941026E+03  0.16794959769E+03  0.80372463024E+02 0.  0.
        -13    1    3    3    0    0 -0.25920425890E+02  0.97466354208E+01 -0.11790102736E+01  0.27717421337E+02  0.00000000000E+00 0.  1.
         14    1    3    3    0    0 -0.17512466689E+02  0.37058175019E+02  0.13410842054E+03  0.14023217635E+03  0.00000000000E+00 0. -1.
         -2    1    1    2    0  502  0.43432892579E+02 -0.46804810440E+02  0.25093432758E+03  0.25893076911E+03  0.00000000000E+00 0.  1.
<mgrwt>
<rscale>  1 0.10264911E+03</rscale>
<asrwt>0</asrwt>
<pdfrwt beam="1">  1       21 0.62364925E-01 0.10264911E+03</pdfrwt>
<pdfrwt beam="2">  1       -1 0.33089718E-02 0.10264911E+03</pdfrwt>
<totfact> 0.66907072E+04</totfact>
</mgrwt>
</event>
<event>
 6    2  0.9453093E+000  0.9872364E+02  0.7546771E-02  0.1283003E+00
         21   -1    0    0  501  502  0.00000000000E+00  0.00000000000E+00  0.12170433455E+03  0.12170433455E+03  0.00000000000E+00 0. -1.
         -3   -1    0    0    0  501 -0.00000000000E+00 -0.00000000000E+00 -0.10228185588E+03  0.10228185588E+03  0.00000000000E+00 0.  1.
         24    2    1    2    0    0  0.46040211319E+02  0.17037997107E+02 -0.70653446354E+02  0.12140126622E+03  0.85652574717E+02 0.  0.
        -11    1    3    3    0    0  0.15255836956E+02 -0.34964812866E+02 -0.30557312357E+02  0.48877684463E+02  0.00000000000E+00 0.  1.
         12    1    3    3    0    0  0.30784374363E+02  0.52002809974E+02 -0.40096133997E+02  0.72523581762E+02  0.00000000000E+00 0. -1.
         -4    1    1    2    0  502 -0.46040211319E+02 -0.17037997107E+02  0.90075925030E+02  0.10258492420E+03  0.00000000000E+00 0.  1.
<mgrwt>
<rscale>  1 0.98723644E+02</rscale>
<asrwt>0</asrwt>
<pdfrwt beam="1">  1       21 0.18723744E-01 0.98723644E+02</pdfrwt>
<pdfrwt beam="2">  1       -3 0.15735670E-01 0.98723644E+02</pdfrwt>
<totfact> 0.41461512E+04</totfact>
</mgrwt>
</event>
<event>
 6    2  0.9453093E+000  0.1449924E+03  0.7546771E-02  0.1206765E+00
          2   -1    0    0  502    0 -0.00000000000E+00  0.00000000000E+00  0.76083743209E+03  0.76083743209E+03  0.00000000000E+00 0. -1.
         21   -1    0    0  501  502  0.00000000000E+00 -0.00000000000E+00 -0.23078956437E+02  0.23078956437E+02  0.00000000000E+00 0. -1.
         24    2    1    2    0    0  0.11715102315E+03 -0.24949349831E+02  0.38690840180E+03  0.41318386148E+03  0.81706546425E+02 0.  0.
        -13    1    3    3    0    0 -0.99735903931E+00  0.18926722151E+02  0.49216685956E+02  0.52739906266E+02  0.00000000000E+00 0.  1.
         14    1    3    3    0    0  0.11814838219E+03 -0.43876071982E+02  0.33769171584E+03  0.36044395522E+03  0.00000000000E+00 0. -1.
          1    1    1    2  501    0 -0.11715102315E+03  0.24949349831E+02  0.35085007385E+03  0.37073252704E+03  0.00000000000E+00 0. -1.
<mgrwt>
<rscale>  1 0.14499239E+03</rscale>
<asrwt>0</asrwt>
<pdfrwt beam="1">  1       21 0.35506093E-02 0.14499239E+03</pdfrwt>
<pdfrwt beam="2">  1        2 0.11705189E+00 0.14499239E+03</pdfrwt>
<totfact> 0.22674683E+05</totfact>
</mgrwt>
</event>
<event>
 6    2  0.9453093E+000  0.1216198E+03  0.7546771E-02  0.1240449E+00
         21   -1    0    0  501  502  0.00000000000E+00  0.00000000000E+00  0.38801726057E+02  0.38801726057E+02  0.00000000000E+00 0. -1.
          2   -1    0    0  502    0 -0.00000000000E+00 -0.00000000000E+00 -0.28555310726E+03  0.28555310726E+03  0.00000000000E+00 0. -1.
         24    2    1    2    0    0  0.27768796167E+02  0.83184942043E+02 -0.16024577108E+03  0.20117179387E+03  0.84264719058E+02 0.  0.
        -11    1    3    3    0    0  0.39530999771E+02  0.73879302823E+01 -0.83430410541E+02  0.92617033313E+02  0.00000000000E+00 0.  1.
         12    1    3    3    0    0 -0.11762203604E+02  0.75797011761E+02 -0.76815360538E+02  0.10855476056E+03  0.00000000000E+00 0. -1.
          1    1    1    2  501    0 -0.27768796167E+02 -0.83184942043E+02 -0.86505610120E+02  0.12318303944E+03  0.00000000000E+00 0. -1.
<mgrwt>
<rscale>  1 0.12161983E+03</rscale>
<asrwt>0</asrwt>
<pdfrwt beam="1">  1       21 0.59694962E-02 0.12161983E+03</pdfrwt>
<pdfrwt beam="2">  1        2 0.43931248E-01 0.12161983E+03</pdfrwt>
<totfact> 0.27786518E+05</totfact>
</mgrwt>
</event>
<event>
 6    2  0.9453093E+000  0.8972840E+02  0.7546771E-02  0.1303511E+00
          2   -1    0    0  502    0 -0.00000000000E+00  0.00000000000E+00  0.12372597553E+04  0.12372597553E+04  0.00000000000E+00 0. -1.
         21   -1    0    0  501  502  0.00000000000E+00 -0.00000000000E+00 -0.33637169710E+01  0.33637169710E+01  0.00000000000E+00 0.  1.
         24    2    1    2    0    0 -0.28987549049E+02  0.19530180273E+02  0.72556472997E+03  0.73109189818E+03  0.82640669538E+02 0.  0.
        -11    1    3    3    0    0  0.75489111847E+01  0.36722153519E+00  0.43946138938E+01  0.87426279234E+01  0.00000000000E+00 0.  1.
         12    1    3    3    0    0 -0.36536460233E+02  0.19162958738E+02  0.72117011608E+03  0.72234927026E+03  0.00000000000E+00 0. -1.
          1    1    1    2  501    0  0.28987549049E+02 -0.19530180273E+02  0.50833130838E+03  0.50953157411E+03  0.00000000000E+00 0. -1.
<mgrwt>
<rscale>  1 0.89728402E+02</rscale>
<asrwt>0</asrwt>
<pdfrwt beam="1">  1       21 0.51749590E-03 0.89728402E+02</pdfrwt>
<pdfrwt beam="2">  1        2 0.19034729E+00 0.89728402E+02</pdfrwt>
<totfact> 0.24306625E+06</totfact>
</mgrwt>
</event>
<event>
 6    2  0.9453093E+000  0.8634438E+02  0.7546771E-02  0.1311954E+00
         21   -1    0    0  501  502  0.00000000000E+00  0.00000000000E+00  0.20077685378E+02  0.20077685378E+02  0.00000000000E+00 0. -1.
          2   -1    0    0  502    0 -0.00000000000E+00 -0.00000000000E+00 -0.22978990644E+03  0.22978990644E+03  0.00000000000E+00 0. -1.
         24    2    1    2    0    0  0.18389755259E+02 -0.25753539841E+02 -0.19820379375E+03  0.21619457871E+03  0.80336318642E+02 0.  0.
        -11    1    3    3    0    0 -0.14952924793E+02 -0.39919171561E+02 -0.61895923176E+02  0.75154743855E+02  0.00000000000E+00 0.  1.
         12    1    3    3    0    0  0.33342680052E+02  0.14165631720E+02 -0.13630787057E+03  0.14103983485E+03  0.00000000000E+00 0. -1.
          1    1    1    2  501    0 -0.18389755259E+02  0.25753539841E+02 -0.11508427313E+02  0.33673013112E+02  0.00000000000E+00 0. -1.
<mgrwt>
<rscale>  1 0.86344380E+02</rscale>
<asrwt>0</asrwt>
<pdfrwt beam="1">  1       21 0.30888748E-02 0.86344380E+02</pdfrwt>
<pdfrwt beam="2">  1        2 0.35352292E-01 0.86344380E+02</pdfrwt>
<totfact> 0.10124576E+06</totfact>
</mgrwt>
</event>
<event>
 6    2  0.9453093E+000  0.1126069E+03  0.7546771E-02  0.1255817E+00
          2   -1    0    0  502    0 -0.00000000000E+00  0.00000000000E+00  0.51584156087E+03  0.51584156087E+03  0.00000000000E+00 0. -1.
         21   -1    0    0  501  502  0.00000000000E+00 -0.00000000000E+00 -0.20573788815E+02  0.20573788815E+02  0.00000000000E+00 0. -1.
         24    2    1    2    0    0  0.24163839112E+02 -0.38403181902E+01  0.49910393676E+03  0.51164933821E+03  0.10991663402E+03 0.  0.
        -13    1    3    3    0    0 -0.31210443140E+02  0.31580559578E+02  0.15096651109E+03  0.15736044921E+03  0.00000000000E+00 0.  1.
         14    1    3    3    0    0  0.55374282252E+02 -0.35420877769E+02  0.34813742567E+03  0.35428888900E+03  0.00000000000E+00 0. -1.
          1    1    1    2  501    0 -0.24163839112E+02  0.38403181902E+01 -0.38361647125E+01  0.24766011470E+02  0.00000000000E+00 0. -1.
<mgrwt>
<rscale>  1 0.11260686E+03</rscale>
<asrwt>0</asrwt>
<pdfrwt beam="1">  1       21 0.31651987E-02 0.11260686E+03</pdfrwt>
<pdfrwt beam="2">  1        2 0.79360230E-01 0.11260686E+03</pdfrwt>
<totfact> 0.42330509E+05</totfact>
</mgrwt>
</event>
<event>
 6    2  0.9453093E+000  0.8151221E+02  0.7546771E-02  0.1324814E+00
          2   -1    0    0  502    0 -0.00000000000E+00  0.00000000000E+00  0.30507035647E+02  0.30507035647E+02  0.00000000000E+00 0. -1.
         21   -1    0    0  501  502  0.00000000000E+00 -0.00000000000E+00 -0.93169997332E+02  0.93169997332E+02  0.00000000000E+00 0.  1.
         24    2    1    2    0    0  0.19296726521E+02 -0.67233850213E+01 -0.33637798123E+02  0.88180164379E+02  0.78909266673E+02 0.  0.
        -11    1    3    3    0    0 -0.23739531758E+02 -0.36526364441E+01 -0.37851687952E+02  0.44829202557E+02  0.00000000000E+00 0.  1.
         12    1    3    3    0    0  0.43036258279E+02 -0.30707485772E+01  0.42138898290E+01  0.43350961822E+02  0.00000000000E+00 0. -1.
          1    1    1    2  501    0 -0.19296726521E+02  0.67233850213E+01 -0.29025163562E+02  0.35496868599E+02  0.00000000000E+00 0. -1.
<mgrwt>
<rscale>  1 0.81512207E+02</rscale>
<asrwt>0</asrwt>
<pdfrwt beam="1">  1       21 0.14333845E-01 0.81512207E+02</pdfrwt>
<pdfrwt beam="2">  1        2 0.46933902E-02 0.81512207E+02</pdfrwt>
<totfact> 0.80206123E+05</totfact>
</mgrwt>
</event>
<event>
 6    2  0.2494581E+001  0.1188137E+03  0.7546771E-02  0.1245067E+00
         -1   -1    0    0    0  501 -0.00000000000E+00  0.00000000000E+00  0.14042621683E+04  0.14042621683E+04  0.00000000000E+00 0.  1.
         21   -1    0    0  501  502  0.00000000000E+00 -0.00000000000E+00 -0.46261739322E+01  0.46261739322E+01  0.00000000000E+00 0. -1.
         24    2    1    2    0    0 -0.26521852841E+02  0.33060134110E+02  0.10350982763E+04  0.10418949785E+04  0.11099695236E+03 0.  0.
        -13    1    3    3    0    0 -0.12280879431E+02  0.35756291677E+02  0.10209188072E+04  0.10216185899E+04  0.00000000000E+00 0.  1.
         14    1    3    3    0    0 -0.14240973411E+02 -0.26961575672E+01  0.14179469157E+02  0.20276388606E+02  0.00000000000E+00 0. -1.
         -2    1    1    2    0  502  0.26521852841E+02 -0.33060134110E+02  0.36453771799E+03  0.36699336368E+03  0.00000000000E+00 0.  1.
<mgrwt>
<rscale>  1 0.11881374E+03</rscale>
<asrwt>0</asrwt>
<pdfrwt beam="1">  1       21 0.71172019E-03 0.11881374E+03</pdfrwt>
<pdfrwt beam="2">  1       -1 0.21603999E+00 0.11881374E+03</pdfrwt>
<totfact> 0.79014168E+04</totfact>
</mgrwt>
</event>
<event>
 6    2  0.9453093E+000  0.7457815E+02  0.7546771E-02  0.1345182E+00
          2   -1    0    0  502    0 -0.00000000000E+00  0.00000000000E+00  0.18423112133E+04  0.18423112133E+04  0.00000000000E+00 0. -1.
         21   -1    0    0  501  502  0.00000000000E+00 -0.00000000000E+00 -0.41250892237E+01  0.41250892237E+01  0.00000000000E+00 0. -1.
         24    2    1    2    0    0  0.24741554088E+02  0.66103964866E+01  0.17925887174E+04  0.17941394064E+04  0.70043260234E+02 0.  0.
        -13    1    3    3    0    0  0.10565943305E+02 -0.31556586605E+02  0.69602722052E+03  0.69682232242E+03  0.00000000000E+00 0.  1.
         14    1    3    3    0    0  0.14175610783E+02  0.38166983091E+02  0.10965614968E+04  0.10973170840E+04  0.00000000000E+00 0. -1.
          1    1    1    2  501    0 -0.24741554088E+02 -0.66103964866E+01  0.45597406713E+02  0.52296896078E+02  0.00000000000E+00 0. -1.
<mgrwt>
<rscale>  1 0.74578148E+02</rscale>
<asrwt>0</asrwt>
<pdfrwt beam="1">  1       21 0.63463058E-03 0.74578148E+02</pdfrwt>
<pdfrwt beam="2">  1        2 0.28343184E+00 0.74578148E+02</pdfrwt>
<totfact> 0.86204147E+05</totfact>
</mgrwt>
</event>
<event>
 6    2  0.9453093E+000  0.7676860E+02  0.7546771E-02  0.1338480E+00
         21   -1    0    0  501  502  0.00000000000E+00  0.00000000000E+00  0.12715836020E+02  0.12715836020E+02  0.00000000000E+00 0. -1.
          2   -1    0    0  502    0 -0.00000000000E+00 -0.00000000000E+00 -0.36129558962E+03  0.36129558962E+03  0.00000000000E+00 0. -1.
         24    2    1    2    0    0 -0.21970989720E+02  0.84560304570E+00 -0.34278108034E+03  0.35127238333E+03  0.73552558159E+02 0.  0.
        -11    1    3    3    0    0  0.14774496532E+02  0.14826990805E+02 -0.33494067251E+02  0.39496556117E+02  0.00000000000E+00 0.  1.
         12    1    3    3    0    0 -0.36745486251E+02 -0.13981387760E+02 -0.30928701309E+03  0.31177582721E+03  0.00000000000E+00 0. -1.
          1    1    1    2  501    0  0.21970989720E+02 -0.84560304570E+00 -0.57986732538E+01  0.22739042312E+02  0.00000000000E+00 0. -1.
<mgrwt>
<rscale>  1 0.76768602E+02</rscale>
<asrwt>0</asrwt>
<pdfrwt beam="1">  1       21 0.19562824E-02 0.76768602E+02</pdfrwt>
<pdfrwt beam="2">  1        2 0.55583938E-01 0.76768602E+02</pdfrwt>
<totfact> 0.12992212E+06</totfact>
</mgrwt>
</event>
<event>
 6    2  0.9453093E+000  0.9100208E+02  0.7546771E-02  0.1300443E+00
         21   -1    0    0  501  502  0.00000000000E+00  0.00000000000E+00  0.20882952902E+02  0.20882952902E+02  0.00000000000E+00 0.  1.
         -3   -1    0    0    0  501 -0.00000000000E+00 -0.00000000000E+00 -0.20911195177E+03  0.20911195177E+03  0.00000000000E+00 0.  1.
         24    2    1    2    0    0 -0.25326442118E+01  0.39458113121E+02 -0.11376095494E+03  0.14568092870E+03  0.81963535430E+02 0.  0.
        -11    1    3    3    0    0  0.49857161672E+01  0.58335800258E+02 -0.11056670918E+03  0.12511163070E+03  0.00000000000E+00 0.  1.
         12    1    3    3    0    0 -0.75183603790E+01 -0.18877687137E+02 -0.31942457672E+01  0.20569298006E+02  0.00000000000E+00 0. -1.
         -4    1    1    2    0  502  0.25326442118E+01 -0.39458113121E+02 -0.74468043927E+02  0.84313975971E+02  0.00000000000E+00 0.  1.
<mgrwt>
<rscale>  1 0.91002078E+02</rscale>
<asrwt>0</asrwt>
<pdfrwt beam="1">  1       21 0.32127620E-02 0.91002078E+02</pdfrwt>
<pdfrwt beam="2">  1       -3 0.32171069E-01 0.91002078E+02</pdfrwt>
<totfact> 0.23690436E+05</totfact>
</mgrwt>
</event>
<event>
 6    2  0.9453093E+000  0.1127219E+03  0.7546771E-02  0.1255611E+00
         21   -1    0    0  501  502  0.00000000000E+00  0.00000000000E+00  0.31626392346E+02  0.31626392346E+02  0.00000000000E+00 0. -1.
         -1   -1    0    0    0  501 -0.00000000000E+00 -0.00000000000E+00 -0.33572247489E+03  0.33572247489E+03  0.00000000000E+00 0.  1.
         24    2    1    2    0    0  0.24186594554E+02 -0.75369287822E+02 -0.10898476824E+03  0.15679259003E+03  0.80254069528E+02 0.  0.
        -11    1    3    3    0    0 -0.23610538747E+02 -0.43796700605E+02 -0.26513275686E+02  0.56378739888E+02  0.00000000000E+00 0.  1.
         12    1    3    3    0    0  0.47797133302E+02 -0.31572587217E+02 -0.82471492552E+02  0.10041385014E+03  0.00000000000E+00 0. -1.
         -2    1    1    2    0  502 -0.24186594554E+02  0.75369287822E+02 -0.19511131430E+03  0.21055627721E+03  0.00000000000E+00 0.  1.
<mgrwt>
<rscale>  1 0.11272194E+03</rscale>
<asrwt>0</asrwt>
<pdfrwt beam="1">  1       21 0.48655990E-02 0.11272194E+03</pdfrwt>
<pdfrwt beam="2">  1       -1 0.51649610E-01 0.11272194E+03</pdfrwt>
<totfact> 0.98424233E+04</totfact>
</mgrwt>
</event>
<event>
 6    2  0.9453093E+000  0.9314361E+02  0.7546771E-02  0.1295413E+00
          2   -1    0    0  502    0 -0.00000000000E+00  0.00000000000E+00  0.33119936240E+02  0.33119936240E+02  0.00000000000E+00 0. -1.
         21   -1    0    0  501  502  0.00000000000E+00 -0.00000000000E+00 -0.21201851937E+03  0.21201851937E+03  0.00000000000E+00 0. -1.
         24    2    1    2    0    0 -0.43560235878E+02 -0.19525119279E+02 -0.45912874156E+02  0.10384470761E+03  0.79981290641E+02 0.  0.
        -13    1    3    3    0    0  0.16231575162E+02  0.33368431852E+01 -0.35247905320E+02  0.38948856006E+02  0.00000000000E+00 0.  1.
         14    1    3    3    0    0 -0.59791811040E+02 -0.22861962465E+02 -0.10664968836E+02  0.64895851604E+02  0.00000000000E+00 0. -1.
          1    1    1    2  501    0  0.43560235878E+02  0.19525119279E+02 -0.13298570897E+03  0.14129374800E+03  0.00000000000E+00 0. -1.
<mgrwt>
<rscale>  1 0.93143606E+02</rscale>
<asrwt>0</asrwt>
<pdfrwt beam="1">  1       21 0.32618234E-01 0.93143606E+02</pdfrwt>
<pdfrwt beam="2">  1        2 0.50953747E-02 0.93143606E+02</pdfrwt>
<totfact> 0.16011111E+05</totfact>
</mgrwt>
</event>
<event>
 6    2  0.1026817E+001  0.9664756E+02  0.7546771E-02  0.1287508E+00
         -1   -1    0    0    0  501 -0.00000000000E+00  0.00000000000E+00  0.11275487761E+04  0.11275487761E+04  0.00000000000E+00 0.  1.
         21   -1    0    0  501  502  0.00000000000E+00 -0.00000000000E+00 -0.50698607635E+01  0.50698607635E+01  0.00000000000E+00 0. -1.
         24    2    1    2    0    0  0.12965545345E+02 -0.52586090589E+02  0.67866481262E+03  0.68551198286E+03  0.80045914688E+02 0.  0.
        -13    1    3    3    0    0 -0.15141762892E+02 -0.39484435444E+02  0.59123412837E+03  0.59274453871E+03  0.00000000000E+00 0.  1.
         14    1    3    3    0    0  0.28107308237E+02 -0.13101655145E+02  0.87430684256E+02  0.92767444146E+02  0.00000000000E+00 0. -1.
         -2    1    1    2    0  502 -0.12965545345E+02  0.52586090589E+02  0.44381410271E+03  0.44710665400E+03  0.00000000000E+00 0.  1.
<mgrwt>
<rscale>  1 0.96647559E+02</rscale>
<asrwt>0</asrwt>
<pdfrwt beam="1">  1       21 0.77997948E-03 0.96647559E+02</pdfrwt>
<pdfrwt beam="2">  1       -1 0.17346884E+00 0.96647559E+02</pdfrwt>
<totfact> 0.12972795E+05</totfact>
</mgrwt>
</event>
<event>
 6    2  0.9453093E+000  0.1111874E+03  0.7546771E-02  0.1258387E+00
         21   -1    0    0  501  502  0.00000000000E+00  0.00000000000E+00  0.77284676381E+01  0.77284676381E+01  0.00000000000E+00 0.  1.
          2   -1    0    0  502    0 -0.00000000000E+00 -0.00000000000E+00 -0.11804345973E+04  0.11804345973E+04  0.00000000000E+00 0. -1.
         24    2    1    2    0    0  0.67834869172E+02  0.25307235286E+02 -0.54001426002E+03  0.55134203235E+03  0.84383706837E+02 0.  0.
        -11    1    3    3    0    0  0.11514652449E+02 -0.21229948131E+02 -0.46001210560E+02  0.51955839822E+02  0.00000000000E+00 0.  1.
         12    1    3    3    0    0  0.56320216723E+02  0.46537183418E+02 -0.49401304946E+03  0.49938619253E+03  0.00000000000E+00 0. -1.
          1    1    1    2  501    0 -0.67834869172E+02 -0.25307235286E+02 -0.63269186968E+03  0.63682103262E+03  0.00000000000E+00 0. -1.
<mgrwt>
<rscale>  1 0.11118739E+03</rscale>
<asrwt>0</asrwt>
<pdfrwt beam="1">  1       21 0.11889952E-02 0.11118739E+03</pdfrwt>
<pdfrwt beam="2">  1        2 0.18160530E+00 0.11118739E+03</pdfrwt>
<totfact> 0.72703991E+05</totfact>
</mgrwt>
</event>
<event>
 6    2  0.9453093E+000  0.8466205E+02  0.7546771E-02  0.1316319E+00
         21   -1    0    0  501  502  0.00000000000E+00  0.00000000000E+00  0.78233786001E+02  0.78233786001E+02  0.00000000000E+00 0. -1.
          2   -1    0    0  502    0 -0.00000000000E+00 -0.00000000000E+00 -0.66354333178E+02  0.66354333178E+02  0.00000000000E+00 0. -1.
         24    2    1    2    0    0  0.26782499721E+02 -0.10004420932E+02 -0.33421233761E+02  0.91020004274E+02  0.79688591294E+02 0.  0.
        -11    1    3    3    0    0 -0.14702472234E+02  0.24307032144E+02 -0.15330940543E+01  0.28448987307E+02  0.00000000000E+00 0.  1.
         12    1    3    3    0    0  0.41484971954E+02 -0.34311453076E+02 -0.31888139707E+02  0.62571016966E+02  0.00000000000E+00 0. -1.
          1    1    1    2  501    0 -0.26782499721E+02  0.10004420932E+02  0.45300686584E+02  0.53568114905E+02  0.00000000000E+00 0. -1.
<mgrwt>
<rscale>  1 0.84662048E+02</rscale>
<asrwt>0</asrwt>
<pdfrwt beam="1">  1       21 0.12035967E-01 0.84662048E+02</pdfrwt>
<pdfrwt beam="2">  1        2 0.10208359E-01 0.84662048E+02</pdfrwt>
<totfact> 0.41430625E+05</totfact>
</mgrwt>
</event>
<event>
 6    2  0.9453093E+000  0.8537268E+02  0.7546771E-02  0.1314461E+00
          2   -1    0    0  502    0 -0.00000000000E+00  0.00000000000E+00  0.32762008496E+04  0.32762008496E+04  0.00000000000E+00 0. -1.
         21   -1    0    0  501  502  0.00000000000E+00 -0.00000000000E+00 -0.13797314822E+01  0.13797314822E+01  0.00000000000E+00 0. -1.
         24    2    1    2    0    0  0.24610477392E+02 -0.22223840528E+00  0.30836698852E+04  0.30848514477E+04  0.81748203860E+02 0.  0.
        -13    1    3    3    0    0  0.11334813602E+02 -0.38782669360E+02  0.20124082772E+04  0.20128138631E+04  0.00000000000E+00 0.  1.
         14    1    3    3    0    0  0.13275663790E+02  0.38560430954E+02  0.10712616080E+04  0.10720375846E+04  0.00000000000E+00 0. -1.
          1    1    1    2  501    0 -0.24610477392E+02  0.22223840528E+00  0.19115123293E+03  0.19272913334E+03  0.00000000000E+00 0. -1.
<mgrwt>
<rscale>  1 0.85372676E+02</rscale>
<asrwt>0</asrwt>
<pdfrwt beam="1">  1       21 0.21226900E-03 0.85372676E+02</pdfrwt>
<pdfrwt beam="2">  1        2 0.50402467E+00 0.85372676E+02</pdfrwt>
<totfact> 0.78272691E+05</totfact>
</mgrwt>
</event>
<event>
 6    2  0.9453093E+000  0.1141700E+03  0.7546771E-02  0.1253037E+00
          2   -1    0    0  502    0 -0.00000000000E+00  0.00000000000E+00  0.68629080767E+02  0.68629080767E+02  0.00000000000E+00 0. -1.
         21   -1    0    0  501  502  0.00000000000E+00 -0.00000000000E+00 -0.14938411013E+03  0.14938411013E+03  0.00000000000E+00 0. -1.
         24    2    1    2    0    0  0.41875591637E+02 -0.69862175685E+02 -0.18869093619E+02  0.11571872472E+03  0.80003073638E+02 0.  0.
        -11    1    3    3    0    0  0.84139434140E+01 -0.41817088053E+02  0.28498214000E+02  0.51299234870E+02  0.00000000000E+00 0.  1.
         12    1    3    3    0    0  0.33461648223E+02 -0.28045087631E+02 -0.47367307619E+02  0.64419489855E+02  0.00000000000E+00 0. -1.
          1    1    1    2  501    0 -0.41875591637E+02  0.69862175685E+02 -0.61885935742E+02  0.10229446617E+03  0.00000000000E+00 0. -1.
<mgrwt>
<rscale>  1 0.11416996E+03</rscale>
<asrwt>0</asrwt>
<pdfrwt beam="1">  1       21 0.22982171E-01 0.11416996E+03</pdfrwt>
<pdfrwt beam="2">  1        2 0.10558320E-01 0.11416996E+03</pdfrwt>
<totfact> 0.12623548E+05</totfact>
</mgrwt>
</event>
<event>
 6    2  0.9453093E+000  0.7726077E+02  0.7546771E-02  0.1337010E+00
          2   -1    0    0  502    0 -0.00000000000E+00  0.00000000000E+00  0.56638693536E+03  0.56638693536E+03  0.00000000000E+00 0. -1.
         21   -1    0    0  501  502  0.00000000000E+00 -0.00000000000E+00 -0.88513343659E+01  0.88513343659E+01  0.00000000000E+00 0. -1.
         24    2    1    2    0    0  0.20872450054E+02  0.14939030384E+02  0.53654883036E+03  0.54208290301E+03  0.72872440457E+02 0.  0.
        -11    1    3    3    0    0  0.21402793001E+02 -0.24977776457E+02  0.15502468134E+03  0.15847593094E+03  0.00000000000E+00 0.  1.
         12    1    3    3    0    0 -0.53034294644E+00  0.39916806841E+02  0.38152414902E+03  0.38360697207E+03  0.00000000000E+00 0. -1.
          1    1    1    2  501    0 -0.20872450054E+02 -0.14939030384E+02  0.20986770628E+02  0.33155366707E+02  0.00000000000E+00 0. -1.
<mgrwt>
<rscale>  1 0.77260769E+02</rscale>
<asrwt>0</asrwt>
<pdfrwt beam="1">  1       21 0.13617442E-02 0.77260769E+02</pdfrwt>
<pdfrwt beam="2">  1        2 0.87136423E-01 0.77260769E+02</pdfrwt>
<totfact> 0.14305835E+06</totfact>
</mgrwt>
</event>
<event>
 6    2  0.9453093E+000  0.8333683E+02  0.7546771E-02  0.1319840E+00
         21   -1    0    0  501  502  0.00000000000E+00  0.00000000000E+00  0.10366861755E+04  0.10366861755E+04  0.00000000000E+00 0.  1.
         -1   -1    0    0    0  501 -0.00000000000E+00 -0.00000000000E+00 -0.14954615182E+02  0.14954615182E+02  0.00000000000E+00 0.  1.
         24    2    1    2    0    0  0.71014447502E+01  0.26588140413E+02  0.10297510277E+03  0.13247225988E+03  0.78661732243E+02 0.  0.
        -11    1    3    3    0    0 -0.24210243918E+02  0.30405568653E+02  0.20014954816E+02  0.43717650119E+02  0.00000000000E+00 0.  1.
         12    1    3    3    0    0  0.31311688668E+02 -0.38174282400E+01  0.82960147952E+02  0.88754609761E+02  0.00000000000E+00 0. -1.
         -2    1    1    2    0  502 -0.71014447502E+01 -0.26588140413E+02  0.91875645760E+03  0.91916853085E+03  0.00000000000E+00 0.  1.
<mgrwt>
<rscale>  1 0.83336834E+02</rscale>
<asrwt>0</asrwt>
<pdfrwt beam="1">  1       21 0.15949012E+00 0.83336834E+02</pdfrwt>
<pdfrwt beam="2">  1       -1 0.23007108E-02 0.83336834E+02</pdfrwt>
<totfact> 0.12659613E+04</totfact>
</mgrwt>
</event>
<event>
 6    2  0.9453093E+000  0.9107371E+02  0.7546771E-02  0.1300272E+00
         21   -1    0    0  501  502  0.00000000000E+00  0.00000000000E+00  0.67715280272E+01  0.67715280272E+01  0.00000000000E+00 0. -1.
          2   -1    0    0  502    0 -0.00000000000E+00 -0.00000000000E+00 -0.75161939940E+03  0.75161939940E+03  0.00000000000E+00 0. -1.
         24    2    1    2    0    0 -0.43924284652E+02 -0.72224073918E+01 -0.37628378647E+03  0.38714843170E+03  0.79453849873E+02 0.  0.
        -11    1    3    3    0    0  0.21007042657E+02  0.10878346509E+02 -0.10029161607E+03  0.10304388636E+03  0.00000000000E+00 0.  1.
         12    1    3    3    0    0 -0.64931327310E+02 -0.18100753901E+02 -0.27599217040E+03  0.28410454533E+03  0.00000000000E+00 0. -1.
          1    1    1    2  501    0  0.43924284652E+02  0.72224073918E+01 -0.36856408491E+03  0.37124249573E+03  0.00000000000E+00 0. -1.
<mgrwt>
<rscale>  1 0.91073708E+02</rscale>
<asrwt>0</asrwt>
<pdfrwt beam="1">  1       21 0.10417740E-02 0.91073708E+02</pdfrwt>
<pdfrwt beam="2">  1        2 0.11563371E+00 0.91073708E+02</pdfrwt>
<totfact> 0.16038692E+06</totfact>
</mgrwt>
</event>
<event>
 6    2  0.9453093E+000  0.8520579E+02  0.7546771E-02  0.1314895E+00
         -3   -1    0    0    0  501 -0.00000000000E+00  0.00000000000E+00  0.94928555596E+02  0.94928555596E+02  0.00000000000E+00 0.  1.
         21   -1    0    0  501  502  0.00000000000E+00 -0.00000000000E+00 -0.13933271277E+03  0.13933271277E+03  0.00000000000E+00 0.  1.
         24    2    1    2    0    0  0.22516204783E+02 -0.14338769158E+02  0.74019185730E+02  0.11286659005E+03  0.80916299439E+02 0.  0.
        -13    1    3    3    0    0  0.25762076269E+02  0.10875889949E+02  0.81664213119E+02  0.86319251967E+02  0.00000000000E+00 0.  1.
         14    1    3    3    0    0 -0.32458714867E+01 -0.25214659106E+02 -0.76450273888E+01  0.26547338084E+02  0.00000000000E+00 0. -1.
         -4    1    1    2    0  502 -0.22516204783E+02  0.14338769158E+02 -0.11842334290E+03  0.12139467831E+03  0.00000000000E+00 0.  1.
<mgrwt>
<rscale>  1 0.85205794E+02</rscale>
<asrwt>0</asrwt>
<pdfrwt beam="1">  1       21 0.21435802E-01 0.85205794E+02</pdfrwt>
<pdfrwt beam="2">  1       -3 0.14604393E-01 0.85205794E+02</pdfrwt>
<totfact> 0.36161704E+04</totfact>
</mgrwt>
</event>
<event>
 6    2  0.9453093E+000  0.9195974E+02  0.7546771E-02  0.1298174E+00
         21   -1    0    0  501  502  0.00000000000E+00  0.00000000000E+00  0.28133121765E+01  0.28133121765E+01  0.00000000000E+00 0.  1.
          2   -1    0    0  502    0 -0.00000000000E+00 -0.00000000000E+00 -0.17344150110E+04  0.17344150110E+04  0.00000000000E+00 0. -1.
         24    2    1    2    0    0  0.42449646388E+02 -0.15482005864E+02 -0.13063816046E+04  0.13096142524E+04  0.80093247531E+02 0.  0.
        -13    1    3    3    0    0  0.26256603274E+02 -0.47532317042E+02 -0.65682989571E+03  0.65907074149E+03  0.00000000000E+00 0.  1.
         14    1    3    3    0    0  0.16193043114E+02  0.32050311178E+02 -0.64955170892E+03  0.65054351096E+03  0.00000000000E+00 0. -1.
          1    1    1    2  501    0 -0.42449646388E+02  0.15482005864E+02 -0.42522009418E+03  0.42761407073E+03  0.00000000000E+00 0. -1.
<mgrwt>
<rscale>  1 0.91959737E+02</rscale>
<asrwt>0</asrwt>
<pdfrwt beam="1">  1       21 0.43281758E-03 0.91959737E+02</pdfrwt>
<pdfrwt beam="2">  1        2 0.26683288E+00 0.91959737E+02</pdfrwt>
<totfact> 0.17765127E+06</totfact>
</mgrwt>
</event>
<event>
 6    2  0.9453093E+000  0.9409481E+02  0.7546771E-02  0.1293228E+00
         21   -1    0    0  501  502  0.00000000000E+00  0.00000000000E+00  0.65994650556E+01  0.65994650556E+01  0.00000000000E+00 0.  1.
          2   -1    0    0  502    0 -0.00000000000E+00 -0.00000000000E+00 -0.87582837547E+03  0.87582837547E+03  0.00000000000E+00 0. -1.
         24    2    1    2    0    0  0.49673566867E+02  0.29865539045E+01 -0.41781839998E+03  0.42828267466E+03  0.79858946284E+02 0.  0.
        -11    1    3    3    0    0  0.65209746236E+02  0.56075682660E+01 -0.21226957560E+03  0.22213088158E+03  0.00000000000E+00 0.  1.
         12    1    3    3    0    0 -0.15536179369E+02 -0.26210143615E+01 -0.20554882438E+03  0.20615179308E+03  0.00000000000E+00 0. -1.
          1    1    1    2  501    0 -0.49673566867E+02 -0.29865539045E+01 -0.45141051044E+03  0.45414516587E+03  0.00000000000E+00 0. -1.
<mgrwt>
<rscale>  1 0.94094814E+02</rscale>
<asrwt>0</asrwt>
<pdfrwt beam="1">  1       21 0.10153030E-02 0.94094814E+02</pdfrwt>
<pdfrwt beam="2">  1        2 0.13474274E+00 0.94094814E+02</pdfrwt>
<totfact> 0.13875607E+06</totfact>
</mgrwt>
</event>
<event>
 6    2  0.9453093E+000  0.9203827E+02  0.7546771E-02  0.1297989E+00
          2   -1    0    0  502    0 -0.00000000000E+00  0.00000000000E+00  0.32360361217E+03  0.32360361217E+03  0.00000000000E+00 0. -1.
         21   -1    0    0  501  502  0.00000000000E+00 -0.00000000000E+00 -0.17891605606E+02  0.17891605606E+02  0.00000000000E+00 0. -1.
         24    2    1    2    0    0 -0.19471791882E+02 -0.41527115542E+02  0.26368593793E+03  0.27928716003E+03  0.79795939043E+02 0.  0.
        -11    1    3    3    0    0 -0.40480228802E+02 -0.10735179246E-01  0.16908029534E+03  0.17385854972E+03  0.00000000000E+00 0.  1.
         12    1    3    3    0    0  0.21008436921E+02 -0.41516380363E+02  0.94605642591E+02  0.10542861030E+03  0.00000000000E+00 0. -1.
          1    1    1    2  501    0  0.19471791882E+02  0.41527115542E+02  0.42026068631E+02  0.62208057749E+02  0.00000000000E+00 0. -1.
<mgrwt>
<rscale>  1 0.92038274E+02</rscale>
<asrwt>0</asrwt>
<pdfrwt beam="1">  1       21 0.27525549E-02 0.92038274E+02</pdfrwt>
<pdfrwt beam="2">  1        2 0.49785167E-01 0.92038274E+02</pdfrwt>
<totfact> 0.85858404E+05</totfact>
</mgrwt>
</event>
<event>
 6    2  0.9453093E+000  0.1002115E+03  0.7546771E-02  0.1279852E+00
         21   -1    0    0  501  502  0.00000000000E+00  0.00000000000E+00  0.28428029707E+02  0.28428029707E+02  0.00000000000E+00 0.  1.
         -1   -1    0    0    0  501 -0.00000000000E+00 -0.00000000000E+00 -0.25711917582E+03  0.25711917582E+03  0.00000000000E+00 0.  1.
         24    2    1    2    0    0  0.28489594713E+02 -0.46475491050E+02 -0.20056398740E+03  0.22420582200E+03  0.84087509782E+02 0.  0.
        -13    1    3    3    0    0  0.36832445782E+02  0.13577969851E+02 -0.70137178431E+02  0.80375457235E+02  0.00000000000E+00 0.  1.
         14    1    3    3    0    0 -0.83428510688E+01 -0.60053460901E+02 -0.13042680897E+03  0.14383036477E+03  0.00000000000E+00 0. -1.
         -2    1    1    2    0  502 -0.28489594713E+02  0.46475491050E+02 -0.28127158705E+02  0.61341383519E+02  0.00000000000E+00 0.  1.
<mgrwt>
<rscale>  1 0.10021146E+03</rscale>
<asrwt>0</asrwt>
<pdfrwt beam="1">  1       21 0.43735431E-02 0.10021146E+03</pdfrwt>
<pdfrwt beam="2">  1       -1 0.39556796E-01 0.10021146E+03</pdfrwt>
<totfact> 0.18753710E+05</totfact>
</mgrwt>
</event>
<event>
 6    2  0.9453093E+000  0.8832317E+02  0.7546771E-02  0.1306964E+00
         21   -1    0    0  501  502  0.00000000000E+00  0.00000000000E+00  0.26468674506E+01  0.26468674506E+01  0.00000000000E+00 0.  1.
          2   -1    0    0  502    0 -0.00000000000E+00 -0.00000000000E+00 -0.15013915593E+04  0.15013915593E+04  0.00000000000E+00 0. -1.
         24    2    1    2    0    0  0.32619440594E+01 -0.36757455783E+02 -0.11327163072E+04  0.11361545739E+04  0.80244827340E+02 0.  0.
        -11    1    3    3    0    0  0.23740867472E+02  0.16558324054E+01 -0.11152862442E+03  0.11403948717E+03  0.00000000000E+00 0.  1.
         12    1    3    3    0    0 -0.20478923413E+02 -0.38413288188E+02 -0.10211876828E+04  0.10221150867E+04  0.00000000000E+00 0. -1.
          1    1    1    2  501    0 -0.32619440594E+01  0.36757455783E+02 -0.36602838468E+03  0.36788385291E+03  0.00000000000E+00 0. -1.
<mgrwt>
<rscale>  1 0.88323174E+02</rscale>
<asrwt>0</asrwt>
<pdfrwt beam="1">  1       21 0.40721049E-03 0.88323174E+02</pdfrwt>
<pdfrwt beam="2">  1        2 0.23098325E+00 0.88323174E+02</pdfrwt>
<totfact> 0.25491585E+06</totfact>
</mgrwt>
</event>
<event>
 6    2  0.9453093E+000  0.8408196E+02  0.7546771E-02  0.1317851E+00
         21   -1    0    0  501  502  0.00000000000E+00  0.00000000000E+00  0.71551478489E+01  0.71551478489E+01  0.00000000000E+00 0. -1.
          4   -1    0    0  502    0 -0.00000000000E+00 -0.00000000000E+00 -0.39277193749E+03  0.39277193749E+03  0.00000000000E+00 0. -1.
         24    2    1    2    0    0 -0.21718622908E+02 -0.14247459265E+01 -0.31531323817E+03  0.32633144802E+03  0.81216053363E+02 0.  0.
        -13    1    3    3    0    0  0.24653481350E+02 -0.78105739050E+00 -0.38944507741E+02  0.46098577815E+02  0.00000000000E+00 0.  1.
         14    1    3    3    0    0 -0.46372104259E+02 -0.64368853600E+00 -0.27636873043E+03  0.28023287021E+03  0.00000000000E+00 0. -1.
          3    1    1    2  501    0  0.21718622908E+02  0.14247459265E+01 -0.70303551479E+02  0.73595637320E+02  0.00000000000E+00 0. -1.
<mgrwt>
<rscale>  1 0.84081959E+02</rscale>
<asrwt>0</asrwt>
<pdfrwt beam="1">  1       21 0.11007917E-02 0.84081959E+02</pdfrwt>
<pdfrwt beam="2">  1        4 0.60426467E-01 0.84081959E+02</pdfrwt>
<totfact> 0.30591668E+05</totfact>
</mgrwt>
</event>
<event>
 6    2  0.9453093E+000  0.9790496E+02  0.7546771E-02  0.1284764E+00
         21   -1    0    0  501  502  0.00000000000E+00  0.00000000000E+00  0.92194403573E+01  0.92194403573E+01  0.00000000000E+00 0.  1.
          2   -1    0    0  502    0 -0.00000000000E+00 -0.00000000000E+00 -0.58976793420E+03  0.58976793420E+03  0.00000000000E+00 0. -1.
         24    2    1    2    0    0 -0.31996744504E+02 -0.37672216809E+02 -0.39813716588E+03  0.40999827395E+03  0.84512686688E+02 0.  0.
        -11    1    3    3    0    0 -0.22493286311E+02 -0.46249645658E+01 -0.20452032624E+02  0.30750997785E+02  0.00000000000E+00 0.  1.
         12    1    3    3    0    0 -0.95034581933E+01 -0.33047252243E+02 -0.37768513325E+03  0.37924727616E+03  0.00000000000E+00 0. -1.
          1    1    1    2  501    0  0.31996744504E+02  0.37672216809E+02 -0.18241132796E+03  0.18898910061E+03  0.00000000000E+00 0. -1.
<mgrwt>
<rscale>  1 0.97904963E+02</rscale>
<asrwt>0</asrwt>
<pdfrwt beam="1">  1       21 0.14183752E-02 0.97904963E+02</pdfrwt>
<pdfrwt beam="2">  1        2 0.90733543E-01 0.97904963E+02</pdfrwt>
<totfact> 0.13140710E+06</totfact>
</mgrwt>
</event>
<event>
 6    2  0.9453093E+000  0.8846284E+02  0.7546771E-02  0.1306617E+00
         21   -1    0    0  501  502  0.00000000000E+00  0.00000000000E+00  0.18178631360E+02  0.18178631360E+02  0.00000000000E+00 0. -1.
          2   -1    0    0  502    0 -0.00000000000E+00 -0.00000000000E+00 -0.22198635859E+03  0.22198635859E+03  0.00000000000E+00 0. -1.
         24    2    1    2    0    0  0.26229457611E+02  0.26853361936E+02 -0.12830401316E+03  0.15584477688E+03  0.80103602877E+02 0.  0.
        -13    1    3    3    0    0 -0.22790533851E+02  0.21620438194E+02 -0.83555355012E+02  0.89265610019E+02  0.00000000000E+00 0.  1.
         14    1    3    3    0    0  0.49019991462E+02  0.52329237424E+01 -0.44748658152E+02  0.66579166864E+02  0.00000000000E+00 0. -1.
          1    1    1    2  501    0 -0.26229457611E+02 -0.26853361936E+02 -0.75503714064E+02  0.84320213065E+02  0.00000000000E+00 0. -1.
<mgrwt>
<rscale>  1 0.88462844E+02</rscale>
<asrwt>0</asrwt>
<pdfrwt beam="1">  1       21 0.27967125E-02 0.88462844E+02</pdfrwt>
<pdfrwt beam="2">  1        2 0.34151748E-01 0.88462844E+02</pdfrwt>
<totfact> 0.12371671E+06</totfact>
</mgrwt>
</event>
<event>
 6    2  0.9453093E+000  0.9341507E+02  0.7546771E-02  0.1294786E+00
          2   -1    0    0  502    0 -0.00000000000E+00  0.00000000000E+00  0.20123189657E+04  0.20123189657E+04  0.00000000000E+00 0. -1.
         21   -1    0    0  501  502  0.00000000000E+00 -0.00000000000E+00 -0.24192672981E+01  0.24192672981E+01  0.00000000000E+00 0. -1.
         24    2    1    2    0    0  0.45940143757E+02 -0.40437388188E+01  0.13590008369E+04  0.13622076387E+04  0.81237476077E+02 0.  0.
        -11    1    3    3    0    0  0.23217308572E+02  0.23565161713E+02  0.11253881414E+04  0.11258742510E+04  0.00000000000E+00 0.  1.
         12    1    3    3    0    0  0.22722835184E+02 -0.27608900532E+02  0.23361269550E+03  0.23633338766E+03  0.00000000000E+00 0. -1.
          1    1    1    2  501    0 -0.45940143757E+02  0.40437388188E+01  0.65089886155E+03  0.65253059438E+03  0.00000000000E+00 0. -1.
<mgrwt>
<rscale>  1 0.93415075E+02</rscale>
<asrwt>0</asrwt>
<pdfrwt beam="1">  1       21 0.37219658E-03 0.93415075E+02</pdfrwt>
<pdfrwt beam="2">  1        2 0.30958620E+00 0.93415075E+02</pdfrwt>
<totfact> 0.16231548E+06</totfact>
</mgrwt>
</event>
<event>
 6    2  0.9453093E+000  0.1108412E+03  0.7546771E-02  0.1259020E+00
          2   -1    0    0  502    0 -0.00000000000E+00  0.00000000000E+00  0.10559703887E+04  0.10559703887E+04  0.00000000000E+00 0. -1.
         21   -1    0    0  501  502  0.00000000000E+00 -0.00000000000E+00 -0.59862106584E+01  0.59862106584E+01  0.00000000000E+00 0. -1.
         24    2    1    2    0    0 -0.20738230330E+01  0.44894535060E+02  0.83503436754E+03  0.84235869168E+03  0.10132102675E+03 0.  0.
        -11    1    3    3    0    0  0.12145551661E+02 -0.30827955918E+02  0.21092696388E+03  0.21351360936E+03  0.00000000000E+00 0.  1.
         12    1    3    3    0    0 -0.14219374694E+02  0.75722490978E+02  0.62410740366E+03  0.62884508232E+03  0.00000000000E+00 0. -1.
          1    1    1    2  501    0  0.20738230330E+01 -0.44894535060E+02  0.21494981047E+03  0.21959790765E+03  0.00000000000E+00 0. -1.
<mgrwt>
<rscale>  1 0.11084119E+03</rscale>
<asrwt>0</asrwt>
<pdfrwt beam="1">  1       21 0.92095633E-03 0.11084119E+03</pdfrwt>
<pdfrwt beam="2">  1        2 0.16245683E+00 0.11084119E+03</pdfrwt>
<totfact> 0.12767521E+06</totfact>
</mgrwt>
</event>
<event>
 6    2  0.9453093E+000  0.8680111E+02  0.7546771E-02  0.1310789E+00
         21   -1    0    0  501  502  0.00000000000E+00  0.00000000000E+00  0.21928155940E+01  0.21928155940E+01  0.00000000000E+00 0. -1.
          2   -1    0    0  502    0 -0.00000000000E+00 -0.00000000000E+00 -0.20775313041E+04  0.20775313041E+04  0.00000000000E+00 0. -1.
         24    2    1    2    0    0 -0.25648773658E+02  0.22784577971E+02 -0.18228507514E+04  0.18249162431E+04  0.79733530478E+02 0.  0.
        -13    1    3    3    0    0  0.22343991338E+02  0.17728161895E+02 -0.31367596158E+03  0.31497007881E+03  0.00000000000E+00 0.  1.
         14    1    3    3    0    0 -0.47992764996E+02  0.50564160762E+01 -0.15091747898E+04  0.15099461643E+04  0.00000000000E+00 0. -1.
          1    1    1    2  501    0  0.25648773658E+02 -0.22784577971E+02 -0.25248773715E+03  0.25480787663E+03  0.00000000000E+00 0. -1.
<mgrwt>
<rscale>  1 0.86801109E+02</rscale>
<asrwt>0</asrwt>
<pdfrwt beam="1">  1       21 0.33735549E-03 0.86801109E+02</pdfrwt>
<pdfrwt beam="2">  1        2 0.31962092E+00 0.86801109E+02</pdfrwt>
<totfact> 0.17397334E+06</totfact>
</mgrwt>
</event>
<event>
 6    2  0.9453093E+000  0.8983897E+02  0.7546771E-02  0.1303242E+00
          2   -1    0    0  502    0 -0.00000000000E+00  0.00000000000E+00  0.94990527178E+02  0.94990527178E+02  0.00000000000E+00 0. -1.
         21   -1    0    0  501  502  0.00000000000E+00 -0.00000000000E+00 -0.26496939018E+03  0.26496939018E+03  0.00000000000E+00 0. -1.
         24    2    1    2    0    0 -0.27309381363E+02  0.38456968503E+02  0.70937906642E+02  0.11446932562E+03  0.76461095808E+02 0.  0.
        -13    1    3    3    0    0 -0.21763076812E+02 -0.14869778328E+02  0.10416641030E+01  0.26378530738E+02  0.00000000000E+00 0.  1.
         14    1    3    3    0    0 -0.55463045512E+01  0.53326746831E+02  0.69896242539E+02  0.88090794881E+02  0.00000000000E+00 0. -1.
          1    1    1    2  501    0  0.27309381363E+02 -0.38456968503E+02 -0.24091676964E+03  0.24549059174E+03  0.00000000000E+00 0. -1.
<mgrwt>
<rscale>  1 0.89838967E+02</rscale>
<asrwt>0</asrwt>
<pdfrwt beam="1">  1       21 0.40764522E-01 0.89838967E+02</pdfrwt>
<pdfrwt beam="2">  1        2 0.14613927E-01 0.89838967E+02</pdfrwt>
<totfact> 0.28330790E+04</totfact>
</mgrwt>
</event>
<event>
 6    2  0.9453093E+000  0.7719944E+02  0.7546771E-02  0.1337192E+00
         21   -1    0    0  501  502  0.00000000000E+00  0.00000000000E+00  0.67026081597E+01  0.67026081597E+01  0.00000000000E+00 0.  1.
          2   -1    0    0  502    0 -0.00000000000E+00 -0.00000000000E+00 -0.40250802281E+03  0.40250802281E+03  0.00000000000E+00 0. -1.
         24    2    1    2    0    0  0.17759328513E+02 -0.15503472398E+02 -0.25446293363E+03  0.26591566125E+03  0.73511923534E+02 0.  0.
        -11    1    3    3    0    0  0.16212894935E+02 -0.23541033784E+02 -0.30490227430E+02  0.41793446886E+02  0.00000000000E+00 0.  1.
         12    1    3    3    0    0  0.15464335774E+01  0.80375613869E+01 -0.22397270620E+03  0.22412221437E+03  0.00000000000E+00 0. -1.
          1    1    1    2  501    0 -0.17759328513E+02  0.15503472398E+02 -0.14134248102E+03  0.14329496972E+03  0.00000000000E+00 0. -1.
<mgrwt>
<rscale>  1 0.77199445E+02</rscale>
<asrwt>0</asrwt>
<pdfrwt beam="1">  1       21 0.10311702E-02 0.77199445E+02</pdfrwt>
<pdfrwt beam="2">  1        2 0.61924326E-01 0.77199445E+02</pdfrwt>
<totfact> 0.31835239E+06</totfact>
</mgrwt>
</event>
<event>
 6    2  0.9453093E+000  0.1005598E+03  0.7546771E-02  0.1279123E+00
         21   -1    0    0  501  502  0.00000000000E+00  0.00000000000E+00  0.40167564832E+03  0.40167564832E+03  0.00000000000E+00 0.  1.
         -1   -1    0    0    0  501 -0.00000000000E+00 -0.00000000000E+00 -0.20179730514E+02  0.20179730514E+02  0.00000000000E+00 0.  1.
         24    2    1    2    0    0  0.24054459245E+02  0.55657492908E+02  0.13694854209E+03  0.16990341417E+03  0.80224020349E+02 0.  0.
        -13    1    3    3    0    0 -0.54061090975E+01  0.64103987623E+02  0.63843241328E+02  0.90633915882E+02  0.00000000000E+00 0.  1.
         14    1    3    3    0    0  0.29460568343E+02 -0.84464947153E+01  0.73105300758E+02  0.79269498289E+02  0.00000000000E+00 0. -1.
         -2    1    1    2    0  502 -0.24054459245E+02 -0.55657492908E+02  0.24454737572E+03  0.25195196466E+03  0.00000000000E+00 0.  1.
<mgrwt>
<rscale>  1 0.10055977E+03</rscale>
<asrwt>0</asrwt>
<pdfrwt beam="1">  1       21 0.61796248E-01 0.10055977E+03</pdfrwt>
<pdfrwt beam="2">  1       -1 0.31045742E-02 0.10055977E+03</pdfrwt>
<totfact> 0.74743857E+04</totfact>
</mgrwt>
</event>
<event>
 6    2  0.9453093E+000  0.8281150E+02  0.7546771E-02  0.1321257E+00
         21   -1    0    0  501  502  0.00000000000E+00  0.00000000000E+00  0.11563015538E+01  0.11563015538E+01  0.00000000000E+00 0.  1.
          2   -1    0    0  502    0 -0.00000000000E+00 -0.00000000000E+00 -0.25064042312E+04  0.25064042312E+04  0.00000000000E+00 0. -1.
         24    2    1    2    0    0  0.24266631949E+02  0.41562811445E+01 -0.19981741225E+04  0.19998893892E+04  0.79067067255E+02 0.  0.
        -11    1    3    3    0    0 -0.28568852076E+02  0.37766258974E+01 -0.55392691708E+03  0.55467600604E+03  0.00000000000E+00 0.  1.
         12    1    3    3    0    0  0.52835484025E+02  0.37965524704E+00 -0.14442472054E+04  0.14452133832E+04  0.00000000000E+00 0. -1.
          1    1    1    2  501    0 -0.24266631949E+02 -0.41562811445E+01 -0.50707380717E+03  0.50767114358E+03  0.00000000000E+00 0. -1.
<mgrwt>
<rscale>  1 0.82811504E+02</rscale>
<asrwt>0</asrwt>
<pdfrwt beam="1">  1       21 0.17789238E-03 0.82811504E+02</pdfrwt>
<pdfrwt beam="2">  1        2 0.38560101E+00 0.82811504E+02</pdfrwt>
<totfact> 0.27387258E+06</totfact>
</mgrwt>
</event>
<event>
 6    2  0.9453093E+000  0.8510803E+02  0.7546771E-02  0.1315150E+00
         21   -1    0    0  501  502  0.00000000000E+00  0.00000000000E+00  0.49716224390E+02  0.49716224390E+02  0.00000000000E+00 0. -1.
          2   -1    0    0  502    0 -0.00000000000E+00 -0.00000000000E+00 -0.40698706577E+03  0.40698706577E+03  0.00000000000E+00 0. -1.
         24    2    1    2    0    0  0.31483247084E+02 -0.26430532966E+01 -0.39695627604E+03  0.40597741608E+03  0.79026556922E+02 0.  0.
        -11    1    3    3    0    0  0.35886022428E+02  0.19909645491E+02 -0.99447189533E+02  0.10758226664E+03  0.00000000000E+00 0.  1.
         12    1    3    3    0    0 -0.44027753440E+01 -0.22552698788E+02 -0.29750908651E+03  0.29839514944E+03  0.00000000000E+00 0. -1.
          1    1    1    2  501    0 -0.31483247084E+02  0.26430532966E+01  0.39685434659E+02  0.50725874085E+02  0.00000000000E+00 0. -1.
<mgrwt>
<rscale>  1 0.85108033E+02</rscale>
<asrwt>0</asrwt>
<pdfrwt beam="1">  1       21 0.76486503E-02 0.85108033E+02</pdfrwt>
<pdfrwt beam="2">  1        2 0.62613392E-01 0.85108033E+02</pdfrwt>
<totfact> 0.12337106E+05</totfact>
</mgrwt>
</event>
<event>
 6    2  0.9453093E+000  0.9586347E+02  0.7546771E-02  0.1289243E+00
         21   -1    0    0  501  502  0.00000000000E+00  0.00000000000E+00  0.12022756276E+03  0.12022756276E+03  0.00000000000E+00 0. -1.
         -3   -1    0    0    0  501 -0.00000000000E+00 -0.00000000000E+00 -0.49534242814E+02  0.49534242814E+02  0.00000000000E+00 0.  1.
         24    2    1    2    0    0 -0.41742913567E+02 -0.30829985917E+02  0.68499295077E+02  0.11782171884E+03  0.80603009491E+02 0.  0.
        -13    1    3    3    0    0  0.15439405869E+02 -0.11843463663E+02 -0.74843160728E+01  0.20848450115E+02  0.00000000000E+00 0.  1.
         14    1    3    3    0    0 -0.57182319435E+02 -0.18986522254E+02  0.75983611149E+02  0.96973268722E+02  0.00000000000E+00 0. -1.
         -4    1    1    2    0  502  0.41742913567E+02  0.30829985917E+02  0.21940248647E+01  0.51940086733E+02  0.00000000000E+00 0.  1.
<mgrwt>
<rscale>  1 0.95863465E+02</rscale>
<asrwt>0</asrwt>
<pdfrwt beam="1">  1       21 0.18496548E-01 0.95863465E+02</pdfrwt>
<pdfrwt beam="2">  1       -3 0.76206528E-02 0.95863465E+02</pdfrwt>
<totfact> 0.14007379E+05</totfact>
</mgrwt>
</event>
<event>
 6    2  0.9453093E+000  0.8199566E+02  0.7546771E-02  0.1323482E+00
          2   -1    0    0  502    0 -0.00000000000E+00  0.00000000000E+00  0.40700558323E+03  0.40700558323E+03  0.00000000000E+00 0. -1.
         21   -1    0    0  501  502  0.00000000000E+00 -0.00000000000E+00 -0.66883907772E+01  0.66883907772E+01  0.00000000000E+00 0. -1.
         24    2    1    2    0    0  0.17799053994E+02 -0.11294797081E+02  0.34173743615E+03  0.35143671248E+03  0.79239566185E+02 0.  0.
        -13    1    3    3    0    0 -0.29343342191E+02  0.37188863989E+01  0.85638462877E+02  0.90602473315E+02  0.00000000000E+00 0.  1.
         14    1    3    3    0    0  0.47142396185E+02 -0.15013683480E+02  0.25609897327E+03  0.26083423917E+03  0.00000000000E+00 0. -1.
          1    1    1    2  501    0 -0.17799053994E+02  0.11294797081E+02  0.58579756301E+02  0.62257261524E+02  0.00000000000E+00 0. -1.
<mgrwt>
<rscale>  1 0.81995656E+02</rscale>
<asrwt>0</asrwt>
<pdfrwt beam="1">  1       21 0.10289835E-02 0.81995656E+02</pdfrwt>
<pdfrwt beam="2">  1        2 0.62616224E-01 0.81995656E+02</pdfrwt>
<totfact> 0.31824491E+06</totfact>
</mgrwt>
</event>
<event>
 6    2  0.9453093E+000  0.7424486E+02  0.7546771E-02  0.1346226E+00
         -3   -1    0    0    0  501 -0.00000000000E+00  0.00000000000E+00  0.18110174985E+03  0.18110174985E+03  0.00000000000E+00 0.  1.
         21   -1    0    0  501  502  0.00000000000E+00 -0.00000000000E+00 -0.14391271503E+02  0.14391271503E+02  0.00000000000E+00 0. -1.
         24    2    1    2    0    0  0.38350102707E+01  0.19725559931E+02  0.15589645661E+03  0.17267311591E+03  0.71473734727E+02 0.  0.
        -11    1    3    3    0    0 -0.28995051741E+02  0.11247623576E+02  0.11704521399E+03  0.12110658190E+03  0.00000000000E+00 0.  1.
         12    1    3    3    0    0  0.32830062012E+02  0.84779363557E+01  0.38851242620E+02  0.51566534009E+02  0.00000000000E+00 0. -1.
         -4    1    1    2    0  502 -0.38350102707E+01 -0.19725559931E+02  0.10814021741E+02  0.22819905447E+02  0.00000000000E+00 0.  1.
<mgrwt>
<rscale>  1 0.74244864E+02</rscale>
<asrwt>0</asrwt>
<pdfrwt beam="1">  1       21 0.22140419E-02 0.74244864E+02</pdfrwt>
<pdfrwt beam="2">  1       -3 0.27861806E-01 0.74244864E+02</pdfrwt>
<totfact> 0.54191632E+05</totfact>
</mgrwt>
</event>
<event>
 6    2  0.9453093E+000  0.7853738E+02  0.7546771E-02  0.1333254E+00
          2   -1    0    0  502    0 -0.00000000000E+00  0.00000000000E+00  0.82684690727E+02  0.82684690727E+02  0.00000000000E+00 0. -1.
         21   -1    0    0  501  502  0.00000000000E+00 -0.00000000000E+00 -0.39753820025E+02  0.39753820025E+02  0.00000000000E+00 0.  1.
         24    2    1    2    0    0  0.16454708192E+02  0.15946924531E+02  0.55627258974E+02  0.96241944205E+02  0.75120290599E+02 0.  0.
        -11    1    3    3    0    0  0.88739095759E+01  0.28595101682E+02  0.69699950703E+02  0.75858481658E+02  0.00000000000E+00 0.  1.
         12    1    3    3    0    0  0.75807986163E+01 -0.12648177151E+02 -0.14072691730E+02  0.20383462547E+02  0.00000000000E+00 0. -1.
          1    1    1    2  501    0 -0.16454708192E+02 -0.15946924531E+02 -0.12696388273E+02  0.26196566547E+02  0.00000000000E+00 0. -1.
<mgrwt>
<rscale>  1 0.78537379E+02</rscale>
<asrwt>0</asrwt>
<pdfrwt beam="1">  1       21 0.61159724E-02 0.78537379E+02</pdfrwt>
<pdfrwt beam="2">  1        2 0.12720722E-01 0.78537379E+02</pdfrwt>
<totfact> 0.10079141E+06</totfact>
</mgrwt>
</event>
<event>
 6    2  0.9453093E+000  0.9137826E+02  0.7546771E-02  0.1299548E+00
          2   -1    0    0  502    0 -0.00000000000E+00  0.00000000000E+00  0.15016842938E+03  0.15016842938E+03  0.00000000000E+00 0. -1.
         21   -1    0    0  501  502  0.00000000000E+00 -0.00000000000E+00 -0.80399881429E+02  0.80399881429E+02  0.00000000000E+00 0.  1.
         24    2    1    2    0    0  0.32588214063E+02  0.56173583406E+02 -0.42571208088E+02  0.10080820926E+03  0.64284711454E+02 0.  0.
        -13    1    3    3    0    0  0.45265544975E+02  0.53995518691E+02 -0.49584482187E+02  0.86157451647E+02  0.00000000000E+00 0.  1.
         14    1    3    3    0    0 -0.12677330911E+02  0.21780647152E+01  0.70132740983E+01  0.14650757609E+02  0.00000000000E+00 0. -1.
          1    1    1    2  501    0 -0.32588214063E+02 -0.56173583406E+02  0.11233975604E+03  0.12976010156E+03  0.00000000000E+00 0. -1.
<mgrwt>
<rscale>  1 0.91378265E+02</rscale>
<asrwt>0</asrwt>
<pdfrwt beam="1">  1       21 0.12369213E-01 0.91378265E+02</pdfrwt>
<pdfrwt beam="2">  1        2 0.23102835E-01 0.91378265E+02</pdfrwt>
<totfact> 0.15501069E+05</totfact>
</mgrwt>
</event>
<event>
 6    2  0.1086788E+001  0.8375685E+02  0.7546771E-02  0.1318716E+00
         21   -1    0    0  501  502  0.00000000000E+00  0.00000000000E+00  0.10149155141E+02  0.10149155141E+02  0.00000000000E+00 0. -1.
         -1   -1    0    0    0  501 -0.00000000000E+00 -0.00000000000E+00 -0.29305425833E+03  0.29305425833E+03  0.00000000000E+00 0.  1.
         24    2    1    2    0    0 -0.14654226782E+02  0.20545542786E+02 -0.22220009628E+03  0.23746177100E+03  0.79864536613E+02 0.  0.
        -11    1    3    3    0    0 -0.19165209199E+02  0.88847029506E+01 -0.22385521663E+03  0.22484973027E+03  0.00000000000E+00 0.  1.
         12    1    3    3    0    0  0.45109824167E+01  0.11660839835E+02  0.16551203485E+01  0.12612040731E+02  0.00000000000E+00 0. -1.
         -2    1    1    2    0  502  0.14654226782E+02 -0.20545542786E+02 -0.60705006909E+02  0.65741642471E+02  0.00000000000E+00 0.  1.
<mgrwt>
<rscale>  1 0.83756850E+02</rscale>
<asrwt>0</asrwt>
<pdfrwt beam="1">  1       21 0.15614083E-02 0.83756850E+02</pdfrwt>
<pdfrwt beam="2">  1       -1 0.45085277E-01 0.83756850E+02</pdfrwt>
<totfact> 0.77578137E+05</totfact>
</mgrwt>
</event>
<event>
 6    2  0.9453093E+000  0.9397060E+02  0.7546771E-02  0.1293512E+00
         21   -1    0    0  501  502  0.00000000000E+00  0.00000000000E+00  0.21069188610E+02  0.21069188610E+02  0.00000000000E+00 0.  1.
         -3   -1    0    0    0  501 -0.00000000000E+00 -0.00000000000E+00 -0.23725845392E+03  0.23725845392E+03  0.00000000000E+00 0.  1.
         24    2    1    2    0    0 -0.31575475344E+02  0.34408526040E+02 -0.15642630337E+03  0.18248195098E+03  0.81544569033E+02 0.  0.
        -11    1    3    3    0    0 -0.40674829551E+02 -0.13249739592E+02 -0.95137721813E+02  0.10431291133E+03  0.00000000000E+00 0.  1.
         12    1    3    3    0    0  0.90993542076E+01  0.47658265632E+02 -0.61288581557E+02  0.78169039647E+02  0.00000000000E+00 0. -1.
         -4    1    1    2    0  502  0.31575475344E+02 -0.34408526040E+02 -0.59762961945E+02  0.75845691558E+02  0.00000000000E+00 0.  1.
<mgrwt>
<rscale>  1 0.93970602E+02</rscale>
<asrwt>0</asrwt>
<pdfrwt beam="1">  1       21 0.32414134E-02 0.93970602E+02</pdfrwt>
<pdfrwt beam="2">  1       -3 0.36501303E-01 0.93970602E+02</pdfrwt>
<totfact> 0.18535744E+05</totfact>
</mgrwt>
</event>
<event>
 6    2  0.9453093E+000  0.8774085E+02  0.7546771E-02  0.1308417E+00
          2   -1    0    0  502    0 -0.00000000000E+00  0.00000000000E+00  0.14861751550E+04  0.14861751550E+04  0.00000000000E+00 0. -1.
         21   -1    0    0  501  502  0.00000000000E+00 -0.00000000000E+00 -0.37123813220E+01  0.37123813220E+01  0.00000000000E+00 0. -1.
         24    2    1    2    0    0 -0.34811937785E+02 -0.13925608293E+02  0.13296680907E+04  0.13325598251E+04  0.79326303405E+02 0.  0.
        -13    1    3    3    0    0  0.58339547591E+01 -0.38001633402E+02  0.45719962336E+03  0.45881331146E+03  0.00000000000E+00 0.  1.
         14    1    3    3    0    0 -0.40645892544E+02  0.24076025108E+02  0.87246846735E+03  0.87374651364E+03  0.00000000000E+00 0. -1.
          1    1    1    2  501    0  0.34811937785E+02  0.13925608293E+02  0.15279468301E+03  0.15732771127E+03  0.00000000000E+00 0. -1.
<mgrwt>
<rscale>  1 0.87740846E+02</rscale>
<asrwt>0</asrwt>
<pdfrwt beam="1">  1       21 0.57113677E-03 0.87740846E+02</pdfrwt>
<pdfrwt beam="2">  1        2 0.22864186E+00 0.87740846E+02</pdfrwt>
<totfact> 0.15457511E+06</totfact>
</mgrwt>
</event>
<event>
 6    2  0.9453093E+000  0.8255976E+02  0.7546771E-02  0.1321940E+00
         21   -1    0    0  501  502  0.00000000000E+00  0.00000000000E+00  0.14167245780E+02  0.14167245780E+02  0.00000000000E+00 0. -1.
          2   -1    0    0  502    0 -0.00000000000E+00 -0.00000000000E+00 -0.30013769431E+03  0.30013769431E+03  0.00000000000E+00 0. -1.
         24    2    1    2    0    0 -0.23270392400E+02 -0.27665537465E+01 -0.27728180266E+03  0.28931179004E+03  0.79164062491E+02 0.  0.
        -13    1    3    3    0    0 -0.47540949120E+02  0.92605866419E+01 -0.11497695630E+03  0.12476217691E+03  0.00000000000E+00 0.  1.
         14    1    3    3    0    0  0.24270556720E+02 -0.12027140388E+02 -0.16230484637E+03  0.16454961314E+03  0.00000000000E+00 0. -1.
          1    1    1    2  501    0  0.23270392400E+02  0.27665537465E+01 -0.86886458686E+01  0.24993150044E+02  0.00000000000E+00 0. -1.
<mgrwt>
<rscale>  1 0.82559759E+02</rscale>
<asrwt>0</asrwt>
<pdfrwt beam="1">  1       21 0.21795762E-02 0.82559759E+02</pdfrwt>
<pdfrwt beam="2">  1        2 0.46175031E-01 0.82559759E+02</pdfrwt>
<totfact> 0.13369917E+06</totfact>
</mgrwt>
</event>
<event>
 6    2  0.9453093E+000  0.8591767E+02  0.7546771E-02  0.1313050E+00
         21   -1    0    0  501  502  0.00000000000E+00  0.00000000000E+00  0.10976296571E+02  0.10976296571E+02  0.00000000000E+00 0. -1.
          2   -1    0    0  502    0 -0.00000000000E+00 -0.00000000000E+00 -0.44590888168E+03  0.44590888168E+03  0.00000000000E+00 0. -1.
         24    2    1    2    0    0 -0.10352062700E+02 -0.31680913341E+02 -0.39786830536E+03  0.40703935289E+03  0.79189651603E+02 0.  0.
        -11    1    3    3    0    0 -0.26345570698E+01 -0.30913337998E+02 -0.48433630516E+02  0.57518622394E+02  0.00000000000E+00 0.  1.
         12    1    3    3    0    0 -0.77175056300E+01 -0.76757534308E+00 -0.34943467484E+03  0.34952073050E+03  0.00000000000E+00 0. -1.
          1    1    1    2  501    0  0.10352062700E+02  0.31680913341E+02 -0.37064279744E+02  0.49845825354E+02  0.00000000000E+00 0. -1.
<mgrwt>
<rscale>  1 0.85917672E+02</rscale>
<asrwt>0</asrwt>
<pdfrwt beam="1">  1       21 0.16886608E-02 0.85917672E+02</pdfrwt>
<pdfrwt beam="2">  1        2 0.68601376E-01 0.85917672E+02</pdfrwt>
<totfact> 0.13327016E+06</totfact>
</mgrwt>
</event>
<event>
 6    2  0.9453093E+000  0.9566349E+02  0.7546771E-02  0.1289689E+00
         21   -1    0    0  501  502  0.00000000000E+00  0.00000000000E+00  0.19633798441E+02  0.19633798441E+02  0.00000000000E+00 0. -1.
          2   -1    0    0  502    0 -0.00000000000E+00 -0.00000000000E+00 -0.30252622161E+03  0.30252622161E+03  0.00000000000E+00 0. -1.
         24    2    1    2    0    0  0.36523249288E+02 -0.36780151450E+02 -0.13508794006E+03  0.16553022561E+03  0.80403835494E+02 0.  0.
        -11    1    3    3    0    0  0.25529324918E+01  0.24890529896E+02 -0.30477580913E+02  0.39432713338E+02  0.00000000000E+00 0.  1.
         12    1    3    3    0    0  0.33970316796E+02 -0.61670681346E+02 -0.10461035915E+03  0.12609751227E+03  0.00000000000E+00 0. -1.
          1    1    1    2  501    0 -0.36523249288E+02  0.36780151450E+02 -0.14780448311E+03  0.15662979444E+03  0.00000000000E+00 0. -1.
<mgrwt>
<rscale>  1 0.95663494E+02</rscale>
<asrwt>0</asrwt>
<pdfrwt beam="1">  1       21 0.30205844E-02 0.95663494E+02</pdfrwt>
<pdfrwt beam="2">  1        2 0.46542495E-01 0.95663494E+02</pdfrwt>
<totfact> 0.79504878E+05</totfact>
</mgrwt>
</event>
<event>
 6    2  0.9453093E+000  0.8777584E+02  0.7546771E-02  0.1308329E+00
          2   -1    0    0  502    0 -0.00000000000E+00  0.00000000000E+00  0.23490033854E+03  0.23490033854E+03  0.00000000000E+00 0. -1.
         21   -1    0    0  501  502  0.00000000000E+00 -0.00000000000E+00 -0.21831363765E+02  0.21831363765E+02  0.00000000000E+00 0. -1.
         24    2    1    2    0    0  0.19186310894E+02  0.28282320317E+02  0.20290384038E+03  0.22107592963E+03  0.80849205636E+02 0.  0.
        -11    1    3    3    0    0 -0.27059305360E+01 -0.26557828286E+02  0.86906353140E+02  0.90913995180E+02  0.00000000000E+00 0.  1.
         12    1    3    3    0    0  0.21892241430E+02  0.54840148603E+02  0.11599748724E+03  0.13016193445E+03  0.00000000000E+00 0. -1.
          1    1    1    2  501    0 -0.19186310894E+02 -0.28282320317E+02  0.10165134402E+02  0.35655772683E+02  0.00000000000E+00 0. -1.
<mgrwt>
<rscale>  1 0.87775841E+02</rscale>
<asrwt>0</asrwt>
<pdfrwt beam="1">  1       21 0.33586715E-02 0.87775841E+02</pdfrwt>
<pdfrwt beam="2">  1        2 0.36138512E-01 0.87775841E+02</pdfrwt>
<totfact> 0.86461785E+05</totfact>
</mgrwt>
</event>
<event>
 6    2  0.9453093E+000  0.8257057E+02  0.7546771E-02  0.1321911E+00
         21   -1    0    0  501  502  0.00000000000E+00  0.00000000000E+00  0.32813673132E+03  0.32813673132E+03  0.00000000000E+00 0. -1.
          4   -1    0    0  502    0 -0.00000000000E+00 -0.00000000000E+00 -0.18290942050E+02  0.18290942050E+02  0.00000000000E+00 0. -1.
         24    2    1    2    0    0  0.14609929361E+02 -0.13731276791E+02  0.31506864645E+03  0.32570869088E+03  0.80099321719E+02 0.  0.
        -13    1    3    3    0    0 -0.12746567502E+01 -0.34269948047E+02  0.27990419433E+03  0.28199718455E+03  0.00000000000E+00 0.  1.
         14    1    3    3    0    0  0.15884586111E+02  0.20538671256E+02  0.35164452120E+02  0.43711506331E+02  0.00000000000E+00 0. -1.
          3    1    1    2  501    0 -0.14609929361E+02  0.13731276791E+02 -0.52228571824E+01  0.20718982489E+02  0.00000000000E+00 0. -1.
<mgrwt>
<rscale>  1 0.82570572E+02</rscale>
<asrwt>0</asrwt>
<pdfrwt beam="1">  1       21 0.50482570E-01 0.82570572E+02</pdfrwt>
<pdfrwt beam="2">  1        4 0.28139913E-02 0.82570572E+02</pdfrwt>
<totfact> 0.84702323E+04</totfact>
</mgrwt>
</event>
<event>
 6    2  0.9453093E+000  0.9283782E+02  0.7546771E-02  0.1296121E+00
          2   -1    0    0  502    0 -0.00000000000E+00  0.00000000000E+00  0.43086947009E+03  0.43086947009E+03  0.00000000000E+00 0. -1.
         21   -1    0    0  501  502  0.00000000000E+00 -0.00000000000E+00 -0.96455704968E+01  0.96455704968E+01  0.00000000000E+00 0. -1.
         24    2    1    2    0    0  0.27028344736E+02 -0.13771670893E+02  0.36509201255E+03  0.37671081595E+03  0.87742070229E+02 0.  0.
        -13    1    3    3    0    0 -0.25368179422E+02 -0.28507107881E+02  0.13708260906E+03  0.14229491007E+03  0.00000000000E+00 0.  1.
         14    1    3    3    0    0  0.52396524158E+02  0.14735436988E+02  0.22800940349E+03  0.23441590588E+03  0.00000000000E+00 0. -1.
          1    1    1    2  501    0 -0.27028344736E+02  0.13771670893E+02  0.56131887041E+02  0.63804224634E+02  0.00000000000E+00 0. -1.
<mgrwt>
<rscale>  1 0.92837822E+02</rscale>
<asrwt>0</asrwt>
<pdfrwt beam="1">  1       21 0.14839343E-02 0.92837822E+02</pdfrwt>
<pdfrwt beam="2">  1        2 0.66287596E-01 0.92837822E+02</pdfrwt>
<totfact> 0.17109597E+06</totfact>
</mgrwt>
</event>
<event>
 6    2  0.9453093E+000  0.8508939E+02  0.7546771E-02  0.1315199E+00
         -3   -1    0    0    0  501 -0.00000000000E+00  0.00000000000E+00  0.59787427244E+01  0.59787427244E+01  0.00000000000E+00 0.  1.
         21   -1    0    0  501  502  0.00000000000E+00 -0.00000000000E+00 -0.53853915799E+03  0.53853915799E+03  0.00000000000E+00 0. -1.
         24    2    1    2    0    0 -0.18003003094E+01  0.28108724311E+02 -0.38456260125E+03  0.39386367934E+03  0.80292354318E+02 0.  0.
        -11    1    3    3    0    0 -0.18715870360E+02  0.13547185961E+02 -0.26712110751E+02  0.35317798792E+02  0.00000000000E+00 0.  1.
         12    1    3    3    0    0  0.16915570051E+02  0.14561538350E+02 -0.35785049050E+03  0.35854588055E+03  0.00000000000E+00 0. -1.
         -4    1    1    2    0  502  0.18003003094E+01 -0.28108724311E+02 -0.14799781401E+03  0.15065422137E+03  0.00000000000E+00 0.  1.
<mgrwt>
<rscale>  1 0.85089386E+02</rscale>
<asrwt>0</asrwt>
<pdfrwt beam="1">  1       21 0.82852202E-01 0.85089386E+02</pdfrwt>
<pdfrwt beam="2">  1       -3 0.91980630E-03 0.85089386E+02</pdfrwt>
<totfact> 0.17742595E+05</totfact>
</mgrwt>
</event>
<event>
 6    2  0.9453093E+000  0.8336476E+02  0.7546771E-02  0.1319765E+00
          4   -1    0    0  502    0 -0.00000000000E+00  0.00000000000E+00  0.87345233534E+02  0.87345233534E+02  0.00000000000E+00 0. -1.
         21   -1    0    0  501  502  0.00000000000E+00 -0.00000000000E+00 -0.41965534354E+02  0.41965534354E+02  0.00000000000E+00 0.  1.
         24    2    1    2    0    0  0.21745220388E+02  0.13032013562E+02  0.57439432407E+02  0.10123720109E+03  0.79416588332E+02 0.  0.
        -11    1    3    3    0    0  0.31447141693E+02  0.55923668267E+01 -0.93950985410E+01  0.33293620470E+02  0.00000000000E+00 0.  1.
         12    1    3    3    0    0 -0.97019213050E+01  0.74396467357E+01  0.66834530948E+02  0.67943580621E+02  0.00000000000E+00 0. -1.
          3    1    1    2  501    0 -0.21745220388E+02 -0.13032013562E+02 -0.12059733226E+02  0.28073566797E+02  0.00000000000E+00 0. -1.
<mgrwt>
<rscale>  1 0.83364756E+02</rscale>
<asrwt>0</asrwt>
<pdfrwt beam="1">  1       21 0.64562361E-02 0.83364756E+02</pdfrwt>
<pdfrwt beam="2">  1        4 0.13437728E-01 0.83364756E+02</pdfrwt>
<totfact> 0.29019504E+05</totfact>
</mgrwt>
</event>
<event>
 6    2  0.9453093E+000  0.8503627E+02  0.7546771E-02  0.1315338E+00
         21   -1    0    0  501  502  0.00000000000E+00  0.00000000000E+00  0.65156978999E+02  0.65156978999E+02  0.00000000000E+00 0.  1.
          4   -1    0    0  502    0 -0.00000000000E+00 -0.00000000000E+00 -0.53485267440E+02  0.53485267440E+02  0.00000000000E+00 0. -1.
         24    2    1    2    0    0  0.30232182968E+01  0.26355474605E+02  0.25431577799E+02  0.88757721858E+02  0.80792432501E+02 0.  0.
        -11    1    3    3    0    0  0.34805151656E+02 -0.35925981244E+01  0.28289171229E+02  0.44995361449E+02  0.00000000000E+00 0.  1.
         12    1    3    3    0    0 -0.31781933360E+02  0.29948072730E+02 -0.28575934305E+01  0.43762360409E+02  0.00000000000E+00 0. -1.
          3    1    1    2  501    0 -0.30232182968E+01 -0.26355474605E+02 -0.13759866239E+02  0.29884524582E+02  0.00000000000E+00 0. -1.
<mgrwt>
<rscale>  1 0.85036275E+02</rscale>
<asrwt>0</asrwt>
<pdfrwt beam="1">  1       21 0.10024151E-01 0.85036275E+02</pdfrwt>
<pdfrwt beam="2">  1        4 0.82285027E-02 0.85036275E+02</pdfrwt>
<totfact> 0.31271443E+05</totfact>
</mgrwt>
</event>
<event>
 6    2  0.9453093E+000  0.8633333E+02  0.7546771E-02  0.1311982E+00
          2   -1    0    0  502    0 -0.00000000000E+00  0.00000000000E+00  0.25439081584E+03  0.25439081584E+03  0.00000000000E+00 0. -1.
         21   -1    0    0  501  502  0.00000000000E+00 -0.00000000000E+00 -0.10930915705E+03  0.10930915705E+03  0.00000000000E+00 0. -1.
         24    2    1    2    0    0 -0.18507990842E+02  0.29487366045E+02  0.24400569053E+03  0.25882855383E+03  0.79002485922E+02 0.  0.
        -13    1    3    3    0    0  0.34983729025E+01 -0.32314635889E+01 -0.48917057425E+01  0.68271337296E+01  0.00000000000E+00 0.  1.
         14    1    3    3    0    0 -0.22006363745E+02  0.32718829634E+02  0.24889739627E+03  0.25200142010E+03  0.00000000000E+00 0. -1.
          1    1    1    2  501    0  0.18507990842E+02 -0.29487366045E+02 -0.98924031744E+02  0.10487141907E+03  0.00000000000E+00 0. -1.
<mgrwt>
<rscale>  1 0.86333326E+02</rscale>
<asrwt>0</asrwt>
<pdfrwt beam="1">  1       21 0.16816794E-01 0.86333326E+02</pdfrwt>
<pdfrwt beam="2">  1        2 0.39137048E-01 0.86333326E+02</pdfrwt>
<totfact> 0.50928788E+04</totfact>
</mgrwt>
</event>
<event>
 6    2  0.9453093E+000  0.1120081E+03  0.7546771E-02  0.1256896E+00
          2   -1    0    0  502    0 -0.00000000000E+00  0.00000000000E+00  0.19859752019E+03  0.19859752019E+03  0.00000000000E+00 0. -1.
         21   -1    0    0  501  502  0.00000000000E+00 -0.00000000000E+00 -0.47748273802E+02  0.47748273802E+02  0.00000000000E+00 0. -1.
         24    2    1    2    0    0  0.62971879291E+02 -0.45485631468E+02  0.11585340579E+03  0.16114538841E+03  0.80693397018E+02 0.  0.
        -13    1    3    3    0    0  0.21332596802E+02  0.82354025829E+01 -0.41401189966E+01  0.23238806495E+02  0.00000000000E+00 0.  1.
         14    1    3    3    0    0  0.41639282488E+02 -0.53721034051E+02  0.11999352478E+03  0.13790658192E+03  0.00000000000E+00 0. -1.
          1    1    1    2  501    0 -0.62971879291E+02  0.45485631468E+02  0.34995840597E+02  0.85200405577E+02  0.00000000000E+00 0. -1.
<mgrwt>
<rscale>  1 0.11200815E+03</rscale>
<asrwt>0</asrwt>
<pdfrwt beam="1">  1       21 0.73458884E-02 0.11200815E+03</pdfrwt>
<pdfrwt beam="2">  1        2 0.30553464E-01 0.11200815E+03</pdfrwt>
<totfact> 0.28583567E+05</totfact>
</mgrwt>
</event>
<event>
 6    2  0.1041661E+001  0.8383426E+02  0.7546771E-02  0.1318510E+00
         -3   -1    0    0    0  501 -0.00000000000E+00  0.00000000000E+00  0.19963972719E+03  0.19963972719E+03  0.00000000000E+00 0.  1.
         21   -1    0    0  501  502  0.00000000000E+00 -0.00000000000E+00 -0.14609751596E+02  0.14609751596E+02  0.00000000000E+00 0. -1.
         24    2    1    2    0    0  0.22315971571E+02 -0.84121689996E+01  0.13678246278E+03  0.16042950418E+03  0.80370495276E+02 0.  0.
        -13    1    3    3    0    0 -0.97353283696E+01 -0.14388955838E+02  0.12431533032E+03  0.12552338436E+03  0.00000000000E+00 0.  1.
         14    1    3    3    0    0  0.32051299941E+02  0.59767868381E+01  0.12467132463E+02  0.34906119817E+02  0.00000000000E+00 0. -1.
         -4    1    1    2    0  502 -0.22315971571E+02  0.84121689996E+01  0.48247512811E+02  0.53819974609E+02  0.00000000000E+00 0.  1.
<mgrwt>
<rscale>  1 0.83834263E+02</rscale>
<asrwt>0</asrwt>
<pdfrwt beam="1">  1       21 0.22476542E-02 0.83834263E+02</pdfrwt>
<pdfrwt beam="2">  1       -3 0.30713802E-01 0.83834263E+02</pdfrwt>
<totfact> 0.45324579E+05</totfact>
</mgrwt>
</event>
<event>
 6    2  0.9453093E+000  0.8990205E+02  0.7546771E-02  0.1303089E+00
         21   -1    0    0  501  502  0.00000000000E+00  0.00000000000E+00  0.25670268399E+01  0.25670268399E+01  0.00000000000E+00 0. -1.
          2   -1    0    0  502    0 -0.00000000000E+00 -0.00000000000E+00 -0.18392624231E+04  0.18392624231E+04  0.00000000000E+00 0. -1.
         24    2    1    2    0    0  0.79213566624E+01 -0.42083633504E+02 -0.14465460684E+04  0.14493370575E+04  0.79048074701E+02 0.  0.
        -13    1    3    3    0    0 -0.16815967237E+02  0.69939026175E+01 -0.98402172232E+02  0.10007336773E+03  0.00000000000E+00 0.  1.
         14    1    3    3    0    0  0.24737323900E+02 -0.49077536121E+02 -0.13481438962E+04  0.13492636898E+04  0.00000000000E+00 0. -1.
          1    1    1    2  501    0 -0.79213566624E+01  0.42083633504E+02 -0.39014932785E+03  0.39249239244E+03  0.00000000000E+00 0. -1.
<mgrwt>
<rscale>  1 0.89902048E+02</rscale>
<asrwt>0</asrwt>
<pdfrwt beam="1">  1       21 0.39492881E-03 0.89902048E+02</pdfrwt>
<pdfrwt beam="2">  1        2 0.28296230E+00 0.89902048E+02</pdfrwt>
<totfact> 0.18071755E+06</totfact>
</mgrwt>
</event>
<event>
 6    2  0.9453093E+000  0.8344809E+02  0.7546771E-02  0.1319542E+00
         21   -1    0    0  501  502  0.00000000000E+00  0.00000000000E+00  0.67134335502E+01  0.67134335502E+01  0.00000000000E+00 0.  1.
          2   -1    0    0  502    0 -0.00000000000E+00 -0.00000000000E+00 -0.48862570775E+03  0.48862570775E+03  0.00000000000E+00 0. -1.
         24    2    1    2    0    0 -0.26364092788E+02 -0.43688560781E+01 -0.41463013379E+03  0.42294412275E+03  0.79053341707E+02 0.  0.
        -13    1    3    3    0    0 -0.31185502046E+02 -0.35795611237E+02 -0.30922428576E+03  0.31284743921E+03  0.00000000000E+00 0.  1.
         14    1    3    3    0    0  0.48214092574E+01  0.31426755159E+02 -0.10540584803E+03  0.11009668354E+03  0.00000000000E+00 0. -1.
          1    1    1    2  501    0  0.26364092788E+02  0.43688560781E+01 -0.67282140417E+02  0.72395018551E+02  0.00000000000E+00 0. -1.
<mgrwt>
<rscale>  1 0.83448086E+02</rscale>
<asrwt>0</asrwt>
<pdfrwt beam="1">  1       21 0.10328363E-02 0.83448086E+02</pdfrwt>
<pdfrwt beam="2">  1        2 0.75173159E-01 0.83448086E+02</pdfrwt>
<totfact> 0.26123087E+06</totfact>
</mgrwt>
</event>
<event>
 6    2  0.9453093E+000  0.1240075E+03  0.7546771E-02  0.1236629E+00
         21   -1    0    0  501  502  0.00000000000E+00  0.00000000000E+00  0.43182122545E+01  0.43182122545E+01  0.00000000000E+00 0. -1.
          2   -1    0    0  502    0 -0.00000000000E+00 -0.00000000000E+00 -0.33280082848E+04  0.33280082848E+04  0.00000000000E+00 0. -1.
         24    2    1    2    0    0 -0.90838673360E+02 -0.21856401768E+02 -0.25503263861E+04  0.25533394892E+04  0.81538363068E+02 0.  0.
        -13    1    3    3    0    0  0.85517467517E+01 -0.13745872865E+02 -0.13691414151E+03  0.13786792063E+03  0.00000000000E+00 0.  1.
         14    1    3    3    0    0 -0.99390420111E+02 -0.81105289025E+01 -0.24134122446E+04  0.24154715686E+04  0.00000000000E+00 0. -1.
          1    1    1    2  501    0  0.90838673360E+02  0.21856401768E+02 -0.77336368644E+03  0.77898700784E+03  0.00000000000E+00 0. -1.
<mgrwt>
<rscale>  1 0.12400755E+03</rscale>
<asrwt>0</asrwt>
<pdfrwt beam="1">  1       21 0.66433898E-03 0.12400755E+03</pdfrwt>
<pdfrwt beam="2">  1        2 0.51200233E+00 0.12400755E+03</pdfrwt>
<totfact> 0.12691902E+05</totfact>
</mgrwt>
</event>
<event>
 6    2  0.9453093E+000  0.1053008E+03  0.7546771E-02  0.1269528E+00
         -1   -1    0    0    0  501 -0.00000000000E+00  0.00000000000E+00  0.64273386535E+02  0.64273386535E+02  0.00000000000E+00 0.  1.
         21   -1    0    0  501  502  0.00000000000E+00 -0.00000000000E+00 -0.10940250741E+03  0.10940250741E+03  0.00000000000E+00 0. -1.
         24    2    1    2    0    0 -0.28508283874E+02  0.54214272890E+02 -0.18627342460E+02  0.10693569696E+03  0.85652529229E+02 0.  0.
        -11    1    3    3    0    0  0.46721643767E+01  0.45241360246E+02  0.24599884606E+02  0.51708453076E+02  0.00000000000E+00 0.  1.
         12    1    3    3    0    0 -0.33180448251E+02  0.89729126437E+01 -0.43227227067E+02  0.55227243887E+02  0.00000000000E+00 0. -1.
         -2    1    1    2    0  502  0.28508283874E+02 -0.54214272890E+02 -0.26501778418E+02  0.66740196986E+02  0.00000000000E+00 0.  1.
<mgrwt>
<rscale>  1 0.10530083E+03</rscale>
<asrwt>0</asrwt>
<pdfrwt beam="1">  1       21 0.16831155E-01 0.10530083E+03</pdfrwt>
<pdfrwt beam="2">  1       -1 0.98882134E-02 0.10530083E+03</pdfrwt>
<totfact> 0.16975253E+05</totfact>
</mgrwt>
</event>
<event>
 6    2  0.9453093E+000  0.8436891E+02  0.7546771E-02  0.1317091E+00
          2   -1    0    0  502    0 -0.00000000000E+00  0.00000000000E+00  0.23751406061E+03  0.23751406061E+03  0.00000000000E+00 0. -1.
         21   -1    0    0  501  502  0.00000000000E+00 -0.00000000000E+00 -0.16965316507E+02  0.16965316507E+02  0.00000000000E+00 0.  1.
         24    2    1    2    0    0  0.15916090050E+02 -0.17044342708E+02  0.21433971352E+03  0.23034675186E+03  0.81081944732E+02 0.  0.
        -13    1    3    3    0    0 -0.27473706928E+02  0.12109055663E+02  0.55137042924E+02  0.62781584114E+02  0.00000000000E+00 0.  1.
         14    1    3    3    0    0  0.43389796978E+02 -0.29153398371E+02  0.15920267059E+03  0.16756516775E+03  0.00000000000E+00 0. -1.
          1    1    1    2  501    0 -0.15916090050E+02  0.17044342708E+02  0.62090305822E+01  0.24132625253E+02  0.00000000000E+00 0. -1.
<mgrwt>
<rscale>  1 0.84368912E+02</rscale>
<asrwt>0</asrwt>
<pdfrwt beam="1">  1       21 0.26100489E-02 0.84368912E+02</pdfrwt>
<pdfrwt beam="2">  1        2 0.36540622E-01 0.84368912E+02</pdfrwt>
<totfact> 0.12811272E+06</totfact>
</mgrwt>
</event>
<event>
 6    2  0.9453093E+000  0.8291181E+02  0.7546771E-02  0.1320985E+00
         21   -1    0    0  501  502  0.00000000000E+00  0.00000000000E+00  0.28288086183E+01  0.28288086183E+01  0.00000000000E+00 0.  1.
          2   -1    0    0  502    0 -0.00000000000E+00 -0.00000000000E+00 -0.15864941514E+04  0.15864941514E+04  0.00000000000E+00 0. -1.
         24    2    1    2    0    0 -0.13782709426E+01 -0.20856716000E+02 -0.15211079356E+04  0.15233659177E+04  0.80233816762E+02 0.  0.
        -13    1    3    3    0    0  0.31240277108E+02 -0.27201366132E+02 -0.49844946054E+03  0.50016770582E+03  0.00000000000E+00 0.  1.
         14    1    3    3    0    0 -0.32618548050E+02  0.63446501321E+01 -0.10226584750E+04  0.10231982119E+04  0.00000000000E+00 0. -1.
          1    1    1    2  501    0  0.13782709426E+01  0.20856716000E+02 -0.62557407220E+02  0.65957042317E+02  0.00000000000E+00 0. -1.
<mgrwt>
<rscale>  1 0.82911806E+02</rscale>
<asrwt>0</asrwt>
<pdfrwt beam="1">  1       21 0.43520117E-03 0.82911806E+02</pdfrwt>
<pdfrwt beam="2">  1        2 0.24407611E+00 0.82911806E+02</pdfrwt>
<totfact> 0.20748071E+06</totfact>
</mgrwt>
</event>
<event>
 6    2  0.9453093E+000  0.8725465E+02  0.7546771E-02  0.1309639E+00
         21   -1    0    0  501  502  0.00000000000E+00  0.00000000000E+00  0.17194669258E+01  0.17194669258E+01  0.00000000000E+00 0. -1.
         -3   -1    0    0    0  501 -0.00000000000E+00 -0.00000000000E+00 -0.19662357813E+04  0.19662357813E+04  0.00000000000E+00 0.  1.
         24    2    1    2    0    0 -0.16368795199E+02  0.21726963250E+02 -0.13324728194E+04  0.13353266226E+04  0.82905827702E+02 0.  0.
        -13    1    3    3    0    0  0.17899463946E+02 -0.24049309081E+02 -0.42941757621E+03  0.43046279147E+03  0.00000000000E+00 0.  1.
         14    1    3    3    0    0 -0.34268259144E+02  0.45776272331E+02 -0.90305524318E+03  0.90486383115E+03  0.00000000000E+00 0. -1.
         -4    1    1    2    0  502  0.16368795199E+02 -0.21726963250E+02 -0.63204349494E+03  0.63262862556E+03  0.00000000000E+00 0.  1.
<mgrwt>
<rscale>  1 0.87254654E+02</rscale>
<asrwt>0</asrwt>
<pdfrwt beam="1">  1       21 0.26453370E-03 0.87254654E+02</pdfrwt>
<pdfrwt beam="2">  1       -3 0.30249743E+00 0.87254654E+02</pdfrwt>
<totfact> 0.60119040E+04</totfact>
</mgrwt>
</event>
<event>
 6    2  0.1164154E+001  0.8726409E+02  0.7546771E-02  0.1309616E+00
         21   -1    0    0  501  502  0.00000000000E+00  0.00000000000E+00  0.53051859318E+01  0.53051859318E+01  0.00000000000E+00 0.  1.
         -3   -1    0    0    0  501 -0.00000000000E+00 -0.00000000000E+00 -0.15550658312E+04  0.15550658312E+04  0.00000000000E+00 0.  1.
         24    2    1    2    0    0 -0.21543610329E+02 -0.29030474186E+02 -0.14723642407E+04  0.14749479580E+04  0.79423713042E+02 0.  0.
        -11    1    3    3    0    0 -0.29701657328E+01 -0.33253775912E+02 -0.13903542685E+04  0.13907550566E+04  0.00000000000E+00 0.  1.
         12    1    3    3    0    0 -0.18573444596E+02  0.42233017255E+01 -0.82009972120E+02  0.84192901415E+02  0.00000000000E+00 0. -1.
         -4    1    1    2    0  502  0.21543610329E+02  0.29030474186E+02 -0.77396404622E+02  0.85423059100E+02  0.00000000000E+00 0.  1.
<mgrwt>
<rscale>  1 0.87264092E+02</rscale>
<asrwt>0</asrwt>
<pdfrwt beam="1">  1       21 0.81618155E-03 0.87264092E+02</pdfrwt>
<pdfrwt beam="2">  1       -3 0.23924116E+00 0.87264092E+02</pdfrwt>
<totfact> 0.23027963E+04</totfact>
</mgrwt>
</event>
<event>
 6    2  0.9453093E+000  0.8270980E+02  0.7546771E-02  0.1321533E+00
         21   -1    0    0  501  502  0.00000000000E+00  0.00000000000E+00  0.10265113671E+03  0.10265113671E+03  0.00000000000E+00 0.  1.
         -1   -1    0    0    0  501 -0.00000000000E+00 -0.00000000000E+00 -0.57628487405E+02  0.57628487405E+02  0.00000000000E+00 0.  1.
         24    2    1    2    0    0  0.15242816977E+02  0.30400561328E+02 -0.21595952833E+02  0.85482727460E+02  0.75394787067E+02 0.  0.
        -13    1    3    3    0    0  0.31573445731E+02 -0.58485435468E+00 -0.35754878072E+02  0.47703624976E+02  0.00000000000E+00 0.  1.
         14    1    3    3    0    0 -0.16330628754E+02  0.30985415683E+02  0.14158925239E+02  0.37779102484E+02  0.00000000000E+00 0. -1.
         -2    1    1    2    0  502 -0.15242816977E+02 -0.30400561328E+02  0.66618602139E+02  0.74796896656E+02  0.00000000000E+00 0.  1.
<mgrwt>
<rscale>  1 0.82709803E+02</rscale>
<asrwt>0</asrwt>
<pdfrwt beam="1">  1       21 0.15792483E-01 0.82709803E+02</pdfrwt>
<pdfrwt beam="2">  1       -1 0.88659211E-02 0.82709803E+02</pdfrwt>
<totfact> 0.22003982E+05</totfact>
</mgrwt>
</event>
<event>
 6    2  0.9453093E+000  0.8612780E+02  0.7546771E-02  0.1312509E+00
         21   -1    0    0  501  502  0.00000000000E+00  0.00000000000E+00  0.16574589183E+02  0.16574589183E+02  0.00000000000E+00 0. -1.
          2   -1    0    0  502    0 -0.00000000000E+00 -0.00000000000E+00 -0.34372882166E+03  0.34372882166E+03  0.00000000000E+00 0. -1.
         24    2    1    2    0    0 -0.33670376509E+02 -0.21572052426E+02 -0.29961812257E+03  0.31175153087E+03  0.76282041974E+02 0.  0.
        -13    1    3    3    0    0 -0.12674691106E+02 -0.49481886609E+02 -0.16968438676E+03  0.17720580128E+03  0.00000000000E+00 0.  1.
         14    1    3    3    0    0 -0.20995685403E+02  0.27909834183E+02 -0.12993373581E+03  0.13454572959E+03  0.00000000000E+00 0. -1.
          1    1    1    2  501    0  0.33670376509E+02  0.21572052426E+02 -0.27536109910E+02  0.48551879975E+02  0.00000000000E+00 0. -1.
<mgrwt>
<rscale>  1 0.86127798E+02</rscale>
<asrwt>0</asrwt>
<pdfrwt beam="1">  1       21 0.25499372E-02 0.86127798E+02</pdfrwt>
<pdfrwt beam="2">  1        2 0.52881349E-01 0.86127798E+02</pdfrwt>
<totfact> 0.90614125E+05</totfact>
</mgrwt>
</event>
<event>
 6    2  0.9453093E+000  0.8373075E+02  0.7546771E-02  0.1318786E+00
         21   -1    0    0  501  502  0.00000000000E+00  0.00000000000E+00  0.15398055685E+01  0.15398055685E+01  0.00000000000E+00 0. -1.
          2   -1    0    0  502    0 -0.00000000000E+00 -0.00000000000E+00 -0.18925757820E+04  0.18925757820E+04  0.00000000000E+00 0. -1.
         24    2    1    2    0    0  0.23925884774E+01  0.24112687768E+02 -0.14740063054E+04  0.14763825475E+04  0.80147939466E+02 0.  0.
        -13    1    3    3    0    0 -0.30412595023E+02 -0.11339626919E+02 -0.79387875126E+03  0.79454199686E+03  0.00000000000E+00 0.  1.
         14    1    3    3    0    0  0.32805183501E+02  0.35452314687E+02 -0.68012755411E+03  0.68184055068E+03  0.00000000000E+00 0. -1.
          1    1    1    2  501    0 -0.23925884774E+01 -0.24112687768E+02 -0.41702967105E+03  0.41773304002E+03  0.00000000000E+00 0. -1.
<mgrwt>
<rscale>  1 0.83730749E+02</rscale>
<asrwt>0</asrwt>
<pdfrwt beam="1">  1       21 0.23689331E-03 0.83730749E+02</pdfrwt>
<pdfrwt beam="2">  1        2 0.29116532E+00 0.83730749E+02</pdfrwt>
<totfact> 0.36614422E+06</totfact>
</mgrwt>
</event>
<event>
 6    2  0.9453093E+000  0.8397150E+02  0.7546771E-02  0.1318144E+00
         21   -1    0    0  501  502  0.00000000000E+00  0.00000000000E+00  0.49505521288E+01  0.49505521288E+01  0.00000000000E+00 0. -1.
          2   -1    0    0  502    0 -0.00000000000E+00 -0.00000000000E+00 -0.19294205277E+04  0.19294205277E+04  0.00000000000E+00 0. -1.
         24    2    1    2    0    0 -0.80212525478E+01 -0.22306570677E+02 -0.18935450163E+04  0.18954060096E+04  0.80556123796E+02 0.  0.
        -11    1    3    3    0    0 -0.99764966343E+01  0.25979366237E+02 -0.34997642106E+03  0.35108112061E+03  0.00000000000E+00 0.  1.
         12    1    3    3    0    0  0.19552440865E+01 -0.48285936913E+02 -0.15435685952E+04  0.15443248890E+04  0.00000000000E+00 0. -1.
          1    1    1    2  501    0  0.80212525478E+01  0.22306570677E+02 -0.30924959258E+02  0.38965070164E+02  0.00000000000E+00 0. -1.
<mgrwt>
<rscale>  1 0.83971499E+02</rscale>
<asrwt>0</asrwt>
<pdfrwt beam="1">  1       21 0.76162332E-03 0.83971499E+02</pdfrwt>
<pdfrwt beam="2">  1        2 0.29683396E+00 0.83971499E+02</pdfrwt>
<totfact> 0.59226861E+05</totfact>
</mgrwt>
</event>
<event>
 6    2  0.9453093E+000  0.9429096E+02  0.7546771E-02  0.1292781E+00
         21   -1    0    0  501  502  0.00000000000E+00  0.00000000000E+00  0.16627099272E+03  0.16627099272E+03  0.00000000000E+00 0. -1.
          4   -1    0    0  502    0 -0.00000000000E+00 -0.00000000000E+00 -0.33804995660E+02  0.33804995660E+02  0.00000000000E+00 0. -1.
         24    2    1    2    0    0  0.49518466068E+02 -0.78720508684E+01  0.59333595541E+02  0.11140583659E+03  0.79854475140E+02 0.  0.
        -13    1    3    3    0    0  0.11914091231E+02  0.30210131113E+02  0.45899487504E+02  0.56225977491E+02  0.00000000000E+00 0.  1.
         14    1    3    3    0    0  0.37604374837E+02 -0.38082181982E+02  0.13434108037E+02  0.55179859098E+02  0.00000000000E+00 0. -1.
          3    1    1    2  501    0 -0.49518466068E+02  0.78720508684E+01  0.73132401522E+02  0.88670151793E+02  0.00000000000E+00 0. -1.
<mgrwt>
<rscale>  1 0.94290959E+02</rscale>
<asrwt>0</asrwt>
<pdfrwt beam="1">  1       21 0.25580152E-01 0.94290959E+02</pdfrwt>
<pdfrwt beam="2">  1        4 0.52007687E-02 0.94290959E+02</pdfrwt>
<totfact> 0.12430563E+05</totfact>
</mgrwt>
</event>
<event>
 6    2  0.9453093E+000  0.8494918E+02  0.7546771E-02  0.1315565E+00
          2   -1    0    0  502    0 -0.00000000000E+00  0.00000000000E+00  0.13052056286E+04  0.13052056286E+04  0.00000000000E+00 0. -1.
         21   -1    0    0  501  502  0.00000000000E+00 -0.00000000000E+00 -0.32395698319E+01  0.32395698319E+01  0.00000000000E+00 0. -1.
         24    2    1    2    0    0 -0.32147777133E+02 -0.13774596844E+02  0.11153297031E+04  0.11185601060E+04  0.77415404754E+02 0.  0.
        -11    1    3    3    0    0  0.16238515197E+02  0.95627115271E+01  0.62723798571E+03  0.62752101602E+03  0.00000000000E+00 0.  1.
         12    1    3    3    0    0 -0.48386292329E+02 -0.23337308371E+02  0.48809171743E+03  0.49103908997E+03  0.00000000000E+00 0. -1.
          1    1    1    2  501    0  0.32147777133E+02  0.13774596844E+02  0.18663635560E+03  0.18988509242E+03  0.00000000000E+00 0. -1.
<mgrwt>
<rscale>  1 0.84949185E+02</rscale>
<asrwt>0</asrwt>
<pdfrwt beam="1">  1       21 0.49839640E-03 0.84949185E+02</pdfrwt>
<pdfrwt beam="2">  1        2 0.20080045E+00 0.84949185E+02</pdfrwt>
<totfact> 0.23573879E+06</totfact>
</mgrwt>
</event>
<event>
 6    2  0.9453093E+000  0.8818042E+02  0.7546771E-02  0.1307319E+00
         21   -1    0    0  501  502  0.00000000000E+00  0.00000000000E+00  0.19734774966E+03  0.19734774966E+03  0.00000000000E+00 0. -1.
         -1   -1    0    0    0  501 -0.00000000000E+00 -0.00000000000E+00 -0.17815415644E+02  0.17815415644E+02  0.00000000000E+00 0.  1.
         24    2    1    2    0    0  0.27563482170E+02  0.11852277320E+02  0.12591373519E+03  0.15372070305E+03  0.82919019601E+02 0.  0.
        -11    1    3    3    0    0  0.25266863427E+02  0.21942702704E+02  0.67880373397E+01  0.34146362036E+02  0.00000000000E+00 0.  1.
         12    1    3    3    0    0  0.22966187424E+01 -0.10090425384E+02  0.11912569785E+03  0.11957434102E+03  0.00000000000E+00 0. -1.
         -2    1    1    2    0  502 -0.27563482170E+02 -0.11852277320E+02  0.53618598824E+02  0.61442462246E+02  0.00000000000E+00 0.  1.
<mgrwt>
<rscale>  1 0.88180416E+02</rscale>
<asrwt>0</asrwt>
<pdfrwt beam="1">  1       21 0.30361191E-01 0.88180416E+02</pdfrwt>
<pdfrwt beam="2">  1       -1 0.27408333E-02 0.88180416E+02</pdfrwt>
<totfact> 0.36867380E+05</totfact>
</mgrwt>
</event>
<event>
 6    2  0.9453093E+000  0.8846522E+02  0.7546771E-02  0.1306612E+00
         -1   -1    0    0    0  501 -0.00000000000E+00  0.00000000000E+00  0.44598899536E+03  0.44598899536E+03  0.00000000000E+00 0.  1.
         21   -1    0    0  501  502  0.00000000000E+00 -0.00000000000E+00 -0.76414407476E+01  0.76414407476E+01  0.00000000000E+00 0. -1.
         24    2    1    2    0    0  0.27666825691E+02 -0.10063425974E+01  0.35237962583E+03  0.36331459725E+03  0.84021603807E+02 0.  0.
        -11    1    3    3    0    0 -0.28515978249E+02  0.19717704850E+01  0.74473568243E+02  0.79770679207E+02  0.00000000000E+00 0.  1.
         12    1    3    3    0    0  0.56182803940E+02 -0.29781130823E+01  0.27790605759E+03  0.28354391804E+03  0.00000000000E+00 0. -1.
         -2    1    1    2    0  502 -0.27666825691E+02  0.10063425974E+01  0.85967928786E+02  0.90315838860E+02  0.00000000000E+00 0.  1.
<mgrwt>
<rscale>  1 0.88465224E+02</rscale>
<asrwt>0</asrwt>
<pdfrwt beam="1">  1       21 0.11756066E-02 0.88465224E+02</pdfrwt>
<pdfrwt beam="2">  1       -1 0.68613672E-01 0.88465224E+02</pdfrwt>
<totfact> 0.56201125E+05</totfact>
</mgrwt>
</event>
<event>
 6    2  0.9453093E+000  0.9406041E+02  0.7546771E-02  0.1293306E+00
         -1   -1    0    0    0  501 -0.00000000000E+00  0.00000000000E+00  0.22084242969E+03  0.22084242969E+03  0.00000000000E+00 0.  1.
         21   -1    0    0  501  502  0.00000000000E+00 -0.00000000000E+00 -0.24232134095E+02  0.24232134095E+02  0.00000000000E+00 0.  1.
         24    2    1    2    0    0  0.16367723964E+02  0.44512650274E+02  0.15817514610E+03  0.18402917789E+03  0.81228585174E+02 0.  0.
        -13    1    3    3    0    0  0.23296674135E+02  0.44947525813E+02  0.16601178782E+03  0.17355958284E+03  0.00000000000E+00 0.  1.
         14    1    3    3    0    0 -0.69289501709E+01 -0.43487553856E+00 -0.78366417132E+01  0.10469595052E+02  0.00000000000E+00 0. -1.
         -2    1    1    2    0  502 -0.16367723964E+02 -0.44512650274E+02  0.38435149492E+02  0.61045385892E+02  0.00000000000E+00 0.  1.
<mgrwt>
<rscale>  1 0.94060414E+02</rscale>
<asrwt>0</asrwt>
<pdfrwt beam="1">  1       21 0.37280208E-02 0.94060414E+02</pdfrwt>
<pdfrwt beam="2">  1       -1 0.33975757E-01 0.94060414E+02</pdfrwt>
<totfact> 0.31506769E+05</totfact>
</mgrwt>
</event>
<event>
 6    2  0.9453093E+000  0.9439911E+02  0.7546771E-02  0.1292535E+00
         21   -1    0    0  501  502  0.00000000000E+00  0.00000000000E+00  0.17207850144E+03  0.17207850144E+03  0.00000000000E+00 0. -1.
         -1   -1    0    0    0  501 -0.00000000000E+00 -0.00000000000E+00 -0.31633310822E+02  0.31633310822E+02  0.00000000000E+00 0.  1.
         24    2    1    2    0    0 -0.23961046699E+02 -0.42241271706E+02  0.67380677535E+02  0.11597994880E+03  0.80948971734E+02 0.  0.
        -11    1    3    3    0    0 -0.13765111675E+02  0.10777852815E+02 -0.11109295444E+02  0.20713687648E+02  0.00000000000E+00 0.  1.
         12    1    3    3    0    0 -0.10195935024E+02 -0.53019124521E+02  0.78489972979E+02  0.95266261154E+02  0.00000000000E+00 0. -1.
         -2    1    1    2    0  502  0.23961046699E+02  0.42241271706E+02  0.73064513087E+02  0.87731863465E+02  0.00000000000E+00 0.  1.
<mgrwt>
<rscale>  1 0.94399115E+02</rscale>
<asrwt>0</asrwt>
<pdfrwt beam="1">  1       21 0.26473615E-01 0.94399115E+02</pdfrwt>
<pdfrwt beam="2">  1       -1 0.48666633E-02 0.94399115E+02</pdfrwt>
<totfact> 0.20941370E+05</totfact>
</mgrwt>
</event>
<event>
 6    2  0.9453093E+000  0.8417323E+02  0.7546771E-02  0.1317609E+00
          2   -1    0    0  502    0 -0.00000000000E+00  0.00000000000E+00  0.21682510771E+04  0.21682510771E+04  0.00000000000E+00 0. -1.
         21   -1    0    0  501  502  0.00000000000E+00 -0.00000000000E+00 -0.15566202185E+01  0.15566202185E+01  0.00000000000E+00 0. -1.
         24    2    1    2    0    0 -0.23807175386E+02 -0.11824696347E+01  0.19480668227E+04  0.19498844783E+04  0.80727648222E+02 0.  0.
        -11    1    3    3    0    0  0.58272339827E+01  0.15273279874E+02  0.87799245517E+02  0.89308102921E+02  0.00000000000E+00 0.  1.
         12    1    3    3    0    0 -0.29634409369E+02 -0.16455749508E+02  0.18602675772E+04  0.18605763754E+04  0.00000000000E+00 0. -1.
          1    1    1    2  501    0  0.23807175386E+02  0.11824696347E+01  0.21862763413E+03  0.21992321896E+03  0.00000000000E+00 0. -1.
<mgrwt>
<rscale>  1 0.84173232E+02</rscale>
<asrwt>0</asrwt>
<pdfrwt beam="1">  1       21 0.23948177E-03 0.84173232E+02</pdfrwt>
<pdfrwt beam="2">  1        2 0.33357467E+00 0.84173232E+02</pdfrwt>
<totfact> 0.26207062E+06</totfact>
</mgrwt>
</event>
<event>
 6    2  0.9453093E+000  0.8694226E+02  0.7546771E-02  0.1310430E+00
         -1   -1    0    0    0  501 -0.00000000000E+00  0.00000000000E+00  0.15824874330E+03  0.15824874330E+03  0.00000000000E+00 0.  1.
         21   -1    0    0  501  502  0.00000000000E+00 -0.00000000000E+00 -0.33284724581E+02  0.33284724581E+02  0.00000000000E+00 0. -1.
         24    2    1    2    0    0 -0.23744994405E+02 -0.21573510601E+02  0.31098386473E+02  0.92336703640E+02  0.80806658629E+02 0.  0.
        -11    1    3    3    0    0  0.16680624334E+02 -0.26109878761E+02  0.40098093829E+02  0.50673722241E+02  0.00000000000E+00 0.  1.
         12    1    3    3    0    0 -0.40425618739E+02  0.45363681594E+01 -0.89997073565E+01  0.41662981398E+02  0.00000000000E+00 0. -1.
         -2    1    1    2    0  502  0.23744994405E+02  0.21573510601E+02  0.93865632243E+02  0.99196764239E+02  0.00000000000E+00 0.  1.
<mgrwt>
<rscale>  1 0.86942264E+02</rscale>
<asrwt>0</asrwt>
<pdfrwt beam="1">  1       21 0.51207270E-02 0.86942264E+02</pdfrwt>
<pdfrwt beam="2">  1       -1 0.24345960E-01 0.86942264E+02</pdfrwt>
<totfact> 0.32104519E+05</totfact>
</mgrwt>
</event>
<event>
 6    2  0.9453093E+000  0.1049160E+03  0.7546771E-02  0.1270285E+00
         21   -1    0    0  501  502  0.00000000000E+00  0.00000000000E+00  0.23284759634E+02  0.23284759634E+02  0.00000000000E+00 0. -1.
          2   -1    0    0  502    0 -0.00000000000E+00 -0.00000000000E+00 -0.31959429822E+03  0.31959429822E+03  0.00000000000E+00 0. -1.
         24    2    1    2    0    0  0.98888387595E+01 -0.66186842737E+02 -0.19562214669E+03  0.22198059562E+03  0.80801443511E+02 0.  0.
        -13    1    3    3    0    0  0.16625262693E+02  0.15302914678E+02 -0.52328535872E+02  0.56998721247E+02  0.00000000000E+00 0.  1.
         14    1    3    3    0    0 -0.67364239337E+01 -0.81489757415E+02 -0.14329361082E+03  0.16498187438E+03  0.00000000000E+00 0. -1.
          1    1    1    2  501    0 -0.98888387595E+01  0.66186842737E+02 -0.10068739190E+03  0.12089846223E+03  0.00000000000E+00 0. -1.
<mgrwt>
<rscale>  1 0.10491597E+03</rscale>
<asrwt>0</asrwt>
<pdfrwt beam="1">  1       21 0.35822707E-02 0.10491597E+03</pdfrwt>
<pdfrwt beam="2">  1        2 0.49168354E-01 0.10491597E+03</pdfrwt>
<totfact> 0.57241934E+05</totfact>
</mgrwt>
</event>
<event>
 6    2  0.9453093E+000  0.3209157E+03  0.7546771E-02  0.1075229E+00
         21   -1    0    0  501  502  0.00000000000E+00  0.00000000000E+00  0.38831783965E+03  0.38831783965E+03  0.00000000000E+00 0. -1.
          2   -1    0    0  502    0 -0.00000000000E+00 -0.00000000000E+00 -0.26087738685E+03  0.26087738685E+03  0.00000000000E+00 0. -1.
         24    2    1    2    0    0 -0.21603013617E+03 -0.22229033060E+03  0.21558190675E+02  0.32163902637E+03  0.83095709183E+02 0.  0.
        -11    1    3    3    0    0 -0.11545865477E+03 -0.85588617123E+02 -0.24483899123E+02  0.14579291361E+03  0.00000000000E+00 0.  1.
         12    1    3    3    0    0 -0.10057148140E+03 -0.13670171348E+03  0.46042089798E+02  0.17584611276E+03  0.00000000000E+00 0. -1.
          1    1    1    2  501    0  0.21603013617E+03  0.22229033060E+03  0.10588226212E+03  0.32755620013E+03  0.00000000000E+00 0. -1.
<mgrwt>
<rscale>  1 0.32091573E+03</rscale>
<asrwt>0</asrwt>
<pdfrwt beam="1">  1       21 0.59741206E-01 0.32091573E+03</pdfrwt>
<pdfrwt beam="2">  1        2 0.40134983E-01 0.32091573E+03</pdfrwt>
<totfact> 0.39808338E+03</totfact>
</mgrwt>
</event>
<event>
 6    2  0.9453093E+000  0.8703220E+02  0.7546771E-02  0.1310202E+00
         -3   -1    0    0    0  501 -0.00000000000E+00  0.00000000000E+00  0.13949665403E+02  0.13949665403E+02  0.00000000000E+00 0.  1.
         21   -1    0    0  501  502  0.00000000000E+00 -0.00000000000E+00 -0.29600922177E+03  0.29600922177E+03  0.00000000000E+00 0.  1.
         24    2    1    2    0    0  0.17901019101E+02 -0.28036340385E+02 -0.14671774820E+03  0.17058927820E+03  0.80424631386E+02 0.  0.
        -11    1    3    3    0    0  0.22790721981E+02 -0.17650299012E+02 -0.60504338801E+01  0.29454334380E+02  0.00000000000E+00 0.  1.
         12    1    3    3    0    0 -0.48897028795E+01 -0.10386041373E+02 -0.14066731432E+03  0.14113494382E+03  0.00000000000E+00 0. -1.
         -4    1    1    2    0  502 -0.17901019101E+02  0.28036340385E+02 -0.13534180816E+03  0.13936960897E+03  0.00000000000E+00 0.  1.
<mgrwt>
<rscale>  1 0.87032202E+02</rscale>
<asrwt>0</asrwt>
<pdfrwt beam="1">  1       21 0.45539880E-01 0.87032202E+02</pdfrwt>
<pdfrwt beam="2">  1       -3 0.21461024E-02 0.87032202E+02</pdfrwt>
<totfact> 0.17764754E+05</totfact>
</mgrwt>
</event>
<event>
 6    2  0.9453093E+000  0.8624865E+02  0.7546771E-02  0.1312199E+00
          2   -1    0    0  502    0 -0.00000000000E+00  0.00000000000E+00  0.12623773880E+03  0.12623773880E+03  0.00000000000E+00 0. -1.
         21   -1    0    0  501  502  0.00000000000E+00 -0.00000000000E+00 -0.33376622664E+02  0.33376622664E+02  0.00000000000E+00 0. -1.
         24    2    1    2    0    0 -0.20477958270E+02 -0.19720889108E+02  0.98188345457E+02  0.13068963823E+03  0.81428312728E+02 0.  0.
        -13    1    3    3    0    0  0.27856573771E+02  0.40123636343E+01  0.54541747752E+02  0.61374995006E+02  0.00000000000E+00 0.  1.
         14    1    3    3    0    0 -0.48334532041E+02 -0.23733252742E+02  0.43646597705E+02  0.69314643219E+02  0.00000000000E+00 0. -1.
          1    1    1    2  501    0  0.20477958270E+02  0.19720889108E+02 -0.53272293215E+01  0.28924723238E+02  0.00000000000E+00 0. -1.
<mgrwt>
<rscale>  1 0.86248654E+02</rscale>
<asrwt>0</asrwt>
<pdfrwt beam="1">  1       21 0.51348651E-02 0.86248654E+02</pdfrwt>
<pdfrwt beam="2">  1        2 0.19421190E-01 0.86248654E+02</pdfrwt>
<totfact> 0.83978028E+05</totfact>
</mgrwt>
</event>
<event>
 6    2  0.9453093E+000  0.9502382E+02  0.7546771E-02  0.1291122E+00
         -1   -1    0    0    0  501 -0.00000000000E+00  0.00000000000E+00  0.82267663587E+02  0.82267663587E+02  0.00000000000E+00 0.  1.
         21   -1    0    0  501  502  0.00000000000E+00 -0.00000000000E+00 -0.85000121023E+02  0.85000121023E+02  0.00000000000E+00 0.  1.
         24    2    1    2    0    0 -0.33503673411E+02  0.45504288186E+02  0.32789945768E+02  0.10052216674E+03  0.76396263570E+02 0.  0.
        -11    1    3    3    0    0 -0.83919971472E+01  0.56234044324E+02  0.43085792695E+02  0.71337780238E+02  0.00000000000E+00 0.  1.
         12    1    3    3    0    0 -0.25111676264E+02 -0.10729756138E+02 -0.10295846927E+02  0.29184386502E+02  0.00000000000E+00 0. -1.
         -2    1    1    2    0  502  0.33503673411E+02 -0.45504288186E+02 -0.35522403204E+02  0.66745617869E+02  0.00000000000E+00 0.  1.
<mgrwt>
<rscale>  1 0.95023815E+02</rscale>
<asrwt>0</asrwt>
<pdfrwt beam="1">  1       21 0.13076942E-01 0.95023815E+02</pdfrwt>
<pdfrwt beam="2">  1       -1 0.12656564E-01 0.95023815E+02</pdfrwt>
<totfact> 0.18163962E+05</totfact>
</mgrwt>
</event>
<event>
 6    2  0.9453093E+000  0.1046511E+03  0.7546771E-02  0.1270809E+00
         21   -1    0    0  501  502  0.00000000000E+00  0.00000000000E+00  0.14857527996E+02  0.14857527996E+02  0.00000000000E+00 0. -1.
          2   -1    0    0  502    0 -0.00000000000E+00 -0.00000000000E+00 -0.61902064030E+03  0.61902064030E+03  0.00000000000E+00 0. -1.
         24    2    1    2    0    0 -0.64135986213E+02  0.10059668618E+02 -0.50230169761E+03  0.51308756657E+03  0.82080654812E+02 0.  0.
        -13    1    3    3    0    0 -0.28630488798E+02  0.45300153681E+02 -0.22362212551E+03  0.22995361234E+03  0.00000000000E+00 0.  1.
         14    1    3    3    0    0 -0.35505497415E+02 -0.35240485063E+02 -0.27867957210E+03  0.28313395423E+03  0.00000000000E+00 0. -1.
          1    1    1    2  501    0  0.64135986213E+02 -0.10059668618E+02 -0.10186141469E+03  0.12079060172E+03  0.00000000000E+00 0. -1.
<mgrwt>
<rscale>  1 0.10465111E+03</rscale>
<asrwt>0</asrwt>
<pdfrwt beam="1">  1       21 0.22857739E-02 0.10465111E+03</pdfrwt>
<pdfrwt beam="2">  1        2 0.95233930E-01 0.10465111E+03</pdfrwt>
<totfact> 0.58362232E+05</totfact>
</mgrwt>
</event>
<event>
 6    2  0.9453093E+000  0.8017692E+02  0.7546771E-02  0.1328550E+00
         21   -1    0    0  501  502  0.00000000000E+00  0.00000000000E+00  0.49854031682E+01  0.49854031682E+01  0.00000000000E+00 0. -1.
          2   -1    0    0  502    0 -0.00000000000E+00 -0.00000000000E+00 -0.58560509602E+03  0.58560509602E+03  0.00000000000E+00 0. -1.
         24    2    1    2    0    0  0.10166761180E+02 -0.23939520081E+02 -0.48073635063E+03  0.48737642211E+03  0.75841112548E+02 0.  0.
        -13    1    3    3    0    0  0.34773410724E+02 -0.30994948046E+01 -0.11401635219E+03  0.11924145893E+03  0.00000000000E+00 0.  1.
         14    1    3    3    0    0 -0.24606649543E+02 -0.20840025277E+02 -0.36671999844E+03  0.36813496317E+03  0.00000000000E+00 0. -1.
          1    1    1    2  501    0 -0.10166761180E+02  0.23939520081E+02 -0.99883342218E+02  0.10321407708E+03  0.00000000000E+00 0. -1.
<mgrwt>
<rscale>  1 0.80176917E+02</rscale>
<asrwt>0</asrwt>
<pdfrwt beam="1">  1       21 0.76698513E-03 0.80176917E+02</pdfrwt>
<pdfrwt beam="2">  1        2 0.90093089E-01 0.80176917E+02</pdfrwt>
<totfact> 0.33889107E+06</totfact>
</mgrwt>
</event>
<event>
 6    2  0.9453093E+000  0.8452645E+02  0.7546771E-02  0.1316676E+00
         21   -1    0    0  501  502  0.00000000000E+00  0.00000000000E+00  0.38222778642E+01  0.38222778642E+01  0.00000000000E+00 0. -1.
          2   -1    0    0  502    0 -0.00000000000E+00 -0.00000000000E+00 -0.97585188814E+03  0.97585188814E+03  0.00000000000E+00 0. -1.
         24    2    1    2    0    0  0.27909975210E+02  0.39390801575E+01 -0.86035953711E+03  0.86450173740E+03  0.79688379393E+02 0.  0.
        -11    1    3    3    0    0 -0.25633580484E+02 -0.84819710744E+01 -0.19252820289E+03  0.19441227633E+03  0.00000000000E+00 0.  1.
         12    1    3    3    0    0  0.53543555694E+02  0.12421051232E+02 -0.66783133423E+03  0.67008946107E+03  0.00000000000E+00 0. -1.
          1    1    1    2  501    0 -0.27909975210E+02 -0.39390801575E+01 -0.11167007317E+03  0.11517242860E+03  0.00000000000E+00 0. -1.
<mgrwt>
<rscale>  1 0.84526451E+02</rscale>
<asrwt>0</asrwt>
<pdfrwt beam="1">  1       21 0.58804257E-03 0.84526451E+02</pdfrwt>
<pdfrwt beam="2">  1        2 0.15013110E+00 0.84526451E+02</pdfrwt>
<totfact> 0.27829822E+06</totfact>
</mgrwt>
</event>
<event>
 6    2  0.9453093E+000  0.8818679E+02  0.7546771E-02  0.1307303E+00
          2   -1    0    0  502    0 -0.00000000000E+00  0.00000000000E+00  0.59495851706E+03  0.59495851706E+03  0.00000000000E+00 0. -1.
         21   -1    0    0  501  502  0.00000000000E+00 -0.00000000000E+00 -0.63529849484E+01  0.63529849484E+01  0.00000000000E+00 0. -1.
         24    2    1    2    0    0 -0.17521517694E+02  0.29458326950E+02  0.44709916780E+03  0.45571326112E+03  0.81253393188E+02 0.  0.
        -11    1    3    3    0    0  0.93141286497E+01  0.34164362730E+01  0.34691129972E+01  0.10509984505E+02  0.00000000000E+00 0.  1.
         12    1    3    3    0    0 -0.26835646344E+02  0.26041890678E+02  0.44363005480E+03  0.44520327661E+03  0.00000000000E+00 0. -1.
          1    1    1    2  501    0  0.17521517694E+02 -0.29458326950E+02  0.14150636432E+03  0.14559824089E+03  0.00000000000E+00 0. -1.
<mgrwt>
<rscale>  1 0.88186793E+02</rscale>
<asrwt>0</asrwt>
<pdfrwt beam="1">  1       21 0.97738277E-03 0.88186793E+02</pdfrwt>
<pdfrwt beam="2">  1        2 0.91532036E-01 0.88186793E+02</pdfrwt>
<totfact> 0.23114809E+06</totfact>
</mgrwt>
</event>
<event>
 6    2  0.9453093E+000  0.8839227E+02  0.7546771E-02  0.1306792E+00
         -3   -1    0    0    0  501 -0.00000000000E+00  0.00000000000E+00  0.55487480896E+03  0.55487480896E+03  0.00000000000E+00 0.  1.
         21   -1    0    0  501  502  0.00000000000E+00 -0.00000000000E+00 -0.81803002930E+01  0.81803002930E+01  0.00000000000E+00 0.  1.
         24    2    1    2    0    0 -0.21718308976E+02  0.32917511620E+01  0.52425187345E+03  0.53165140810E+03  0.85619345651E+02 0.  0.
        -13    1    3    3    0    0 -0.34105866265E+02  0.36620629990E+02  0.36912582571E+03  0.37250255819E+03  0.00000000000E+00 0.  1.
         14    1    3    3    0    0  0.12387557288E+02 -0.33328878828E+02  0.15512604774E+03  0.15914884991E+03  0.00000000000E+00 0. -1.
         -4    1    1    2    0  502  0.21718308976E+02 -0.32917511620E+01  0.22442635215E+02  0.31403701149E+02  0.00000000000E+00 0.  1.
<mgrwt>
<rscale>  1 0.88392267E+02</rscale>
<asrwt>0</asrwt>
<pdfrwt beam="1">  1       21 0.12585082E-02 0.88392267E+02</pdfrwt>
<pdfrwt beam="2">  1       -3 0.85365326E-01 0.88392267E+02</pdfrwt>
<totfact> 0.15015971E+05</totfact>
</mgrwt>
</event>
<event>
 6    2  0.9453093E+000  0.8816788E+02  0.7546771E-02  0.1307350E+00
          2   -1    0    0  502    0 -0.00000000000E+00  0.00000000000E+00  0.95233037759E+03  0.95233037759E+03  0.00000000000E+00 0. -1.
         21   -1    0    0  501  502  0.00000000000E+00 -0.00000000000E+00 -0.79222494927E+01  0.79222494927E+01  0.00000000000E+00 0. -1.
         24    2    1    2    0    0 -0.39463819651E+02  0.93521313121E+01  0.87816678982E+03  0.88258171671E+03  0.78286145034E+02 0.  0.
        -11    1    3    3    0    0  0.87419193848E-01  0.16080088458E+02  0.35633512230E+02  0.39093785706E+02  0.00000000000E+00 0.  1.
         12    1    3    3    0    0 -0.39551238845E+02 -0.67279571464E+01  0.84253327759E+03  0.84348793100E+03  0.00000000000E+00 0. -1.
          1    1    1    2  501    0  0.39463819651E+02 -0.93521313121E+01  0.66241338276E+02  0.77670910372E+02  0.00000000000E+00 0. -1.
<mgrwt>
<rscale>  1 0.88167885E+02</rscale>
<asrwt>0</asrwt>
<pdfrwt beam="1">  1       21 0.12188084E-02 0.88167885E+02</pdfrwt>
<pdfrwt beam="2">  1        2 0.14651227E+00 0.88167885E+02</pdfrwt>
<totfact> 0.92995723E+05</totfact>
</mgrwt>
</event>
<event>
 6    2  0.9453093E+000  0.8566446E+02  0.7546771E-02  0.1313704E+00
         21   -1    0    0  501  502  0.00000000000E+00  0.00000000000E+00  0.59346345651E+01  0.59346345651E+01  0.00000000000E+00 0. -1.
          2   -1    0    0  502    0 -0.00000000000E+00 -0.00000000000E+00 -0.12795173848E+04  0.12795173848E+04  0.00000000000E+00 0. -1.
         24    2    1    2    0    0 -0.10421464857E+02  0.26436459334E+02 -0.12326465139E+04  0.12356196127E+04  0.80814018913E+02 0.  0.
        -13    1    3    3    0    0 -0.17494475954E+02  0.50972818670E+02 -0.58709313923E+03  0.58956139550E+03  0.00000000000E+00 0.  1.
         14    1    3    3    0    0  0.70730110964E+01 -0.24536359336E+02 -0.64555337471E+03  0.64605821720E+03  0.00000000000E+00 0. -1.
          1    1    1    2  501    0  0.10421464857E+02 -0.26436459334E+02 -0.40936236295E+02  0.49832406664E+02  0.00000000000E+00 0. -1.
<mgrwt>
<rscale>  1 0.85664456E+02</rscale>
<asrwt>0</asrwt>
<pdfrwt beam="1">  1       21 0.91302140E-03 0.85664456E+02</pdfrwt>
<pdfrwt beam="2">  1        2 0.19684868E+00 0.85664456E+02</pdfrwt>
<totfact> 0.95638208E+05</totfact>
</mgrwt>
</event>
<event>
 6    2  0.9453093E+000  0.8378381E+02  0.7546771E-02  0.1318644E+00
         -3   -1    0    0    0  501 -0.00000000000E+00  0.00000000000E+00  0.60795736037E+02  0.60795736037E+02  0.00000000000E+00 0.  1.
         21   -1    0    0  501  502  0.00000000000E+00 -0.00000000000E+00 -0.48674142136E+02  0.48674142136E+02  0.00000000000E+00 0.  1.
         24    2    1    2    0    0  0.22014527808E+02 -0.96358039697E+01  0.32279604684E+01  0.83845966129E+02  0.80263554336E+02 0.  0.
        -11    1    3    3    0    0  0.86344314160E+01  0.33538136456E+02  0.14042528931E+02  0.37370477941E+02  0.00000000000E+00 0.  1.
         12    1    3    3    0    0  0.13380096392E+02 -0.43173940425E+02 -0.10814568462E+02  0.46475488188E+02  0.00000000000E+00 0. -1.
         -4    1    1    2    0  502 -0.22014527808E+02  0.96358039697E+01  0.88936334331E+01  0.25623912043E+02  0.00000000000E+00 0.  1.
<mgrwt>
<rscale>  1 0.83783807E+02</rscale>
<asrwt>0</asrwt>
<pdfrwt beam="1">  1       21 0.74883295E-02 0.83783807E+02</pdfrwt>
<pdfrwt beam="2">  1       -3 0.93531902E-02 0.83783807E+02</pdfrwt>
<totfact> 0.48110498E+05</totfact>
</mgrwt>
</event>
<event>
 6    2  0.9453093E+000  0.8983296E+02  0.7546771E-02  0.1303257E+00
          2   -1    0    0  502    0 -0.00000000000E+00  0.00000000000E+00  0.43355370904E+04  0.43355370904E+04  0.00000000000E+00 0. -1.
         21   -1    0    0  501  502  0.00000000000E+00 -0.00000000000E+00 -0.11373517111E+01  0.11373517111E+01  0.00000000000E+00 0. -1.
         24    2    1    2    0    0  0.18347273829E+02  0.34652402248E+02  0.36831864720E+04  0.36842818224E+04  0.80824182583E+02 0.  0.
        -13    1    3    3    0    0  0.43360721247E+02 -0.13148689900E+01  0.22765445701E+04  0.22769578522E+04  0.00000000000E+00 0.  1.
         14    1    3    3    0    0 -0.25013447418E+02  0.35967271238E+02  0.14066419019E+04  0.14073239703E+04  0.00000000000E+00 0. -1.
          1    1    1    2  501    0 -0.18347273829E+02 -0.34652402248E+02  0.65121326678E+03  0.65239261972E+03  0.00000000000E+00 0. -1.
<mgrwt>
<rscale>  1 0.89832956E+02</rscale>
<asrwt>0</asrwt>
<pdfrwt beam="1">  1       21 0.17498066E-03 0.89832956E+02</pdfrwt>
<pdfrwt beam="2">  1        2 0.66699247E+00 0.89832956E+02</pdfrwt>
<totfact> 0.18819488E+05</totfact>
</mgrwt>
</event>
<event>
 6    2  0.9453093E+000  0.8509239E+02  0.7546771E-02  0.1315191E+00
         21   -1    0    0  501  502  0.00000000000E+00  0.00000000000E+00  0.20474820522E+03  0.20474820522E+03  0.00000000000E+00 0. -1.
          2   -1    0    0  502    0 -0.00000000000E+00 -0.00000000000E+00 -0.89894581702E+02  0.89894581702E+02  0.00000000000E+00 0. -1.
         24    2    1    2    0    0  0.30444529570E+00 -0.23087676431E+02 -0.68872116437E+02  0.10947183614E+03  0.81899822933E+02 0.  0.
        -11    1    3    3    0    0  0.23648352025E+02 -0.42800253059E+02 -0.22233457763E+02  0.53716225291E+02  0.00000000000E+00 0.  1.
         12    1    3    3    0    0 -0.23343906729E+02  0.19712576629E+02 -0.46638658674E+02  0.55755610854E+02  0.00000000000E+00 0. -1.
          1    1    1    2  501    0 -0.30444529570E+00  0.23087676431E+02  0.18372573996E+03  0.18517095078E+03  0.00000000000E+00 0. -1.
<mgrwt>
<rscale>  1 0.85092388E+02</rscale>
<asrwt>0</asrwt>
<pdfrwt beam="1">  1       21 0.31499724E-01 0.85092388E+02</pdfrwt>
<pdfrwt beam="2">  1        2 0.13829936E-01 0.85092388E+02</pdfrwt>
<totfact> 0.49872506E+04</totfact>
</mgrwt>
</event>
<event>
 6    2  0.9453093E+000  0.8664417E+02  0.7546771E-02  0.1311188E+00
         -3   -1    0    0    0  501 -0.00000000000E+00  0.00000000000E+00  0.24726745954E+02  0.24726745954E+02  0.00000000000E+00 0.  1.
         21   -1    0    0  501  502  0.00000000000E+00 -0.00000000000E+00 -0.20970347107E+03  0.20970347107E+03  0.00000000000E+00 0.  1.
         24    2    1    2    0    0  0.27155818193E+02 -0.15132463393E+02 -0.59369392581E+02  0.10503303044E+03  0.80875106166E+02 0.  0.
        -11    1    3    3    0    0  0.49911936781E+02 -0.20833021668E+02 -0.60991228770E+02  0.81517766235E+02  0.00000000000E+00 0.  1.
         12    1    3    3    0    0 -0.22756118588E+02  0.57005582758E+01  0.16218361896E+01  0.23515264202E+02  0.00000000000E+00 0. -1.
         -4    1    1    2    0  502 -0.27155818193E+02  0.15132463393E+02 -0.12560733253E+03  0.12939718658E+03  0.00000000000E+00 0.  1.
<mgrwt>
<rscale>  1 0.86644173E+02</rscale>
<asrwt>0</asrwt>
<pdfrwt beam="1">  1       21 0.32262074E-01 0.86644173E+02</pdfrwt>
<pdfrwt beam="2">  1       -3 0.38041146E-02 0.86644173E+02</pdfrwt>
<totfact> 0.14585200E+05</totfact>
</mgrwt>
</event>
<event>
 6    2  0.9453093E+000  0.8287213E+02  0.7546771E-02  0.1321093E+00
         21   -1    0    0  501  502  0.00000000000E+00  0.00000000000E+00  0.69938451928E+03  0.69938451928E+03  0.00000000000E+00 0. -1.
          2   -1    0    0  502    0 -0.00000000000E+00 -0.00000000000E+00 -0.60588920157E+01  0.60588920157E+01  0.00000000000E+00 0. -1.
         24    2    1    2    0    0  0.47310610059E+01  0.20923040272E+02  0.29165289872E+03  0.30319829025E+03  0.80047694056E+02 0.  0.
        -13    1    3    3    0    0  0.19334438932E+02  0.21806141103E+02  0.28605204851E+03  0.28753278556E+03  0.00000000000E+00 0.  1.
         14    1    3    3    0    0 -0.14603377926E+02 -0.88310083113E+00  0.56008502172E+01  0.15665504687E+02  0.00000000000E+00 0. -1.
          1    1    1    2  501    0 -0.47310610059E+01 -0.20923040272E+02  0.40167272854E+03  0.40224512104E+03  0.00000000000E+00 0. -1.
<mgrwt>
<rscale>  1 0.82872130E+02</rscale>
<asrwt>0</asrwt>
<pdfrwt beam="1">  1       21 0.10759755E+00 0.82872130E+02</pdfrwt>
<pdfrwt beam="2">  1        2 0.93213779E-03 0.82872130E+02</pdfrwt>
<totfact> 0.12455465E+05</totfact>
</mgrwt>
</event>
<event>
 6    2  0.9453093E+000  0.8467353E+02  0.7546771E-02  0.1316288E+00
         -1   -1    0    0    0  501 -0.00000000000E+00  0.00000000000E+00  0.11305862673E+03  0.11305862673E+03  0.00000000000E+00 0.  1.
         21   -1    0    0  501  502  0.00000000000E+00 -0.00000000000E+00 -0.25531628181E+02  0.25531628181E+02  0.00000000000E+00 0. -1.
         24    2    1    2    0    0 -0.22398438253E+01 -0.22669690441E+02  0.69010610814E+02  0.10923402253E+03  0.81551673848E+02 0.  0.
        -11    1    3    3    0    0 -0.25276629446E+02  0.61362807008E+01  0.67477882124E+02  0.72317539456E+02  0.00000000000E+00 0.  1.
         12    1    3    3    0    0  0.23036785620E+02 -0.28805971142E+02  0.15327286902E+01  0.36916483072E+02  0.00000000000E+00 0. -1.
         -2    1    1    2    0  502  0.22398438253E+01  0.22669690441E+02  0.18516387734E+02  0.29356232384E+02  0.00000000000E+00 0.  1.
<mgrwt>
<rscale>  1 0.84673533E+02</rscale>
<asrwt>0</asrwt>
<pdfrwt beam="1">  1       21 0.39279429E-02 0.84673533E+02</pdfrwt>
<pdfrwt beam="2">  1       -1 0.17393635E-01 0.84673533E+02</pdfrwt>
<totfact> 0.84720126E+05</totfact>
</mgrwt>
</event>
<event>
 6    2  0.9453093E+000  0.8061608E+02  0.7546771E-02  0.1327312E+00
         21   -1    0    0  501  502  0.00000000000E+00  0.00000000000E+00  0.14115005188E+04  0.14115005188E+04  0.00000000000E+00 0. -1.
          2   -1    0    0  502    0 -0.00000000000E+00 -0.00000000000E+00 -0.20165285028E+01  0.20165285028E+01  0.00000000000E+00 0. -1.
         24    2    1    2    0    0  0.19799908585E+02 -0.15372155317E+02  0.98492162431E+03  0.98821534010E+03  0.76619924509E+02 0.  0.
        -11    1    3    3    0    0  0.11648364630E+02  0.26983865214E+02  0.62954177990E+03  0.63022747165E+03  0.00000000000E+00 0.  1.
         12    1    3    3    0    0  0.81515439546E+01 -0.42356020531E+02  0.35537984441E+03  0.35798786845E+03  0.00000000000E+00 0. -1.
          1    1    1    2  501    0 -0.19799908585E+02  0.15372155317E+02  0.42456236603E+03  0.42530170725E+03  0.00000000000E+00 0. -1.
<mgrwt>
<rscale>  1 0.80616080E+02</rscale>
<asrwt>0</asrwt>
<pdfrwt beam="1">  1       21 0.21715314E+00 0.80616080E+02</pdfrwt>
<pdfrwt beam="2">  1        2 0.31023628E-03 0.80616080E+02</pdfrwt>
<totfact> 0.91871360E+04</totfact>
</mgrwt>
</event>
<event>
 6    2  0.9453093E+000  0.8577220E+02  0.7546771E-02  0.1313425E+00
          2   -1    0    0  502    0 -0.00000000000E+00  0.00000000000E+00  0.15533175373E+04  0.15533175373E+04  0.00000000000E+00 0. -1.
         21   -1    0    0  501  502  0.00000000000E+00 -0.00000000000E+00 -0.33570791390E+01  0.33570791390E+01  0.00000000000E+00 0.  1.
         24    2    1    2    0    0  0.82395367159E+01  0.32561378871E+02  0.14150083263E+04  0.14176055284E+04  0.78922349449E+02 0.  0.
        -13    1    3    3    0    0  0.80004058589E+01 -0.23641584329E+02  0.25013074781E+03  0.25137287443E+03  0.00000000000E+00 0.  1.
         14    1    3    3    0    0  0.23913085694E+00  0.56202963200E+02  0.11648775785E+04  0.11662326539E+04  0.00000000000E+00 0. -1.
          1    1    1    2  501    0 -0.82395367159E+01 -0.32561378871E+02  0.13495213189E+03  0.13906908808E+03  0.00000000000E+00 0. -1.
<mgrwt>
<rscale>  1 0.85772202E+02</rscale>
<asrwt>0</asrwt>
<pdfrwt beam="1">  1       21 0.51647495E-03 0.85772202E+02</pdfrwt>
<pdfrwt beam="2">  1        2 0.23897136E+00 0.85772202E+02</pdfrwt>
<totfact> 0.16644985E+06</totfact>
</mgrwt>
</event>
<event>
 6    2  0.9453093E+000  0.8551306E+02  0.7546771E-02  0.1314096E+00
         21   -1    0    0  501  502  0.00000000000E+00  0.00000000000E+00  0.35721356458E+02  0.35721356458E+02  0.00000000000E+00 0.  1.
         -1   -1    0    0    0  501 -0.00000000000E+00 -0.00000000000E+00 -0.45096233863E+03  0.45096233863E+03  0.00000000000E+00 0.  1.
         24    2    1    2    0    0 -0.26792629314E+02 -0.33147303976E+02 -0.43237286678E+03  0.44074797677E+03  0.74134299449E+02 0.  0.
        -11    1    3    3    0    0 -0.32834909055E+02 -0.53637658275E+02 -0.35257970562E+03  0.35814463343E+03  0.00000000000E+00 0.  1.
         12    1    3    3    0    0  0.60422797413E+01  0.20490354299E+02 -0.79793161158E+02  0.82603343343E+02  0.00000000000E+00 0. -1.
         -2    1    1    2    0  502  0.26792629314E+02  0.33147303976E+02  0.17131884612E+02  0.45935718312E+02  0.00000000000E+00 0.  1.
<mgrwt>
<rscale>  1 0.85513058E+02</rscale>
<asrwt>0</asrwt>
<pdfrwt beam="1">  1       21 0.54955936E-02 0.85513058E+02</pdfrwt>
<pdfrwt beam="2">  1       -1 0.69378818E-01 0.85513058E+02</pdfrwt>
<totfact> 0.45435737E+04</totfact>
</mgrwt>
</event>
<event>
 6    2  0.9453093E+000  0.8532188E+02  0.7546771E-02  0.1314593E+00
         21   -1    0    0  501  502  0.00000000000E+00  0.00000000000E+00  0.19906926750E+03  0.19906926750E+03  0.00000000000E+00 0.  1.
          4   -1    0    0  502    0 -0.00000000000E+00 -0.00000000000E+00 -0.19761096149E+02  0.19761096149E+02  0.00000000000E+00 0. -1.
         24    2    1    2    0    0  0.22221465427E+01  0.27313756339E+02  0.16942940677E+03  0.18970015236E+03  0.80801266719E+02 0.  0.
        -11    1    3    3    0    0  0.15058127193E+02 -0.21137986723E+02  0.10450120992E+03  0.10767573800E+03  0.00000000000E+00 0.  1.
         12    1    3    3    0    0 -0.12835980650E+02  0.48451743062E+02  0.64928196850E+02  0.82024414360E+02  0.00000000000E+00 0. -1.
          3    1    1    2  501    0 -0.22221465427E+01 -0.27313756339E+02  0.98787645814E+01  0.29130211297E+02  0.00000000000E+00 0. -1.
<mgrwt>
<rscale>  1 0.85321884E+02</rscale>
<asrwt>0</asrwt>
<pdfrwt beam="1">  1       21 0.30626040E-01 0.85321884E+02</pdfrwt>
<pdfrwt beam="2">  1        4 0.30401688E-02 0.85321884E+02</pdfrwt>
<totfact> 0.20238123E+05</totfact>
</mgrwt>
</event>
<event>
 6    2  0.1243043E+001  0.8443982E+02  0.7546771E-02  0.1316904E+00
         -1   -1    0    0    0  501 -0.00000000000E+00  0.00000000000E+00  0.27322300550E+03  0.27322300550E+03  0.00000000000E+00 0.  1.
         21   -1    0    0  501  502  0.00000000000E+00 -0.00000000000E+00 -0.10732102102E+02  0.10732102102E+02  0.00000000000E+00 0. -1.
         24    2    1    2    0    0 -0.11603657919E+02  0.20843346774E+02  0.20350711451E+03  0.22032981913E+03  0.80999960242E+02 0.  0.
        -13    1    3    3    0    0 -0.12730786463E+02  0.22764239378E+01  0.20116678384E+03  0.20158206753E+03  0.00000000000E+00 0.  1.
         14    1    3    3    0    0  0.11271285435E+01  0.18566922836E+02  0.23403306715E+01  0.18747751598E+02  0.00000000000E+00 0. -1.
         -2    1    1    2    0  502  0.11603657919E+02 -0.20843346774E+02  0.58983788891E+02  0.63625288477E+02  0.00000000000E+00 0.  1.
<mgrwt>
<rscale>  1 0.84439822E+02</rscale>
<asrwt>0</asrwt>
<pdfrwt beam="1">  1       21 0.16510928E-02 0.84439822E+02</pdfrwt>
<pdfrwt beam="2">  1       -1 0.42034303E-01 0.84439822E+02</pdfrwt>
<totfact> 0.80386204E+05</totfact>
</mgrwt>
</event>
<event>
 6    2  0.9453093E+000  0.8417472E+02  0.7546771E-02  0.1317605E+00
         21   -1    0    0  501  502  0.00000000000E+00  0.00000000000E+00  0.21835942354E+03  0.21835942354E+03  0.00000000000E+00 0. -1.
         -1   -1    0    0    0  501 -0.00000000000E+00 -0.00000000000E+00 -0.18082353680E+02  0.18082353680E+02  0.00000000000E+00 0.  1.
         24    2    1    2    0    0 -0.21627501902E+02  0.11719795864E+01  0.19739322930E+03  0.21459140169E+03  0.81340397897E+02 0.  0.
        -11    1    3    3    0    0 -0.25016385726E+02 -0.37008115376E+02  0.88216873905E+02  0.98881934650E+02  0.00000000000E+00 0.  1.
         12    1    3    3    0    0  0.33888838245E+01  0.38180094962E+02  0.10917635539E+03  0.11570946704E+03  0.00000000000E+00 0. -1.
         -2    1    1    2    0  502  0.21627501902E+02 -0.11719795864E+01  0.28838405640E+01  0.21850375536E+02  0.00000000000E+00 0.  1.
<mgrwt>
<rscale>  1 0.84174715E+02</rscale>
<asrwt>0</asrwt>
<pdfrwt beam="1">  1       21 0.33593756E-01 0.84174715E+02</pdfrwt>
<pdfrwt beam="2">  1       -1 0.27819007E-02 0.84174715E+02</pdfrwt>
<totfact> 0.29578388E+05</totfact>
</mgrwt>
</event>
<event>
 6    2  0.9453093E+000  0.1193949E+03  0.7546771E-02  0.1244099E+00
         21   -1    0    0  501  502  0.00000000000E+00  0.00000000000E+00  0.10816469521E+02  0.10816469521E+02  0.00000000000E+00 0. -1.
          2   -1    0    0  502    0 -0.00000000000E+00 -0.00000000000E+00 -0.10328438026E+04  0.10328438026E+04  0.00000000000E+00 0. -1.
         24    2    1    2    0    0  0.30251034671E+02  0.85687715989E+02 -0.63291894894E+03  0.64408193890E+03  0.77444420861E+02 0.  0.
        -13    1    3    3    0    0 -0.22814697396E+02  0.10559757428E+02 -0.19452872148E+03  0.19614648194E+03  0.00000000000E+00 0.  1.
         14    1    3    3    0    0  0.53065732067E+02  0.75127958561E+02 -0.43839022746E+03  0.44793545697E+03  0.00000000000E+00 0. -1.
          1    1    1    2  501    0 -0.30251034671E+02 -0.85687715989E+02 -0.38910838410E+03  0.39957833318E+03  0.00000000000E+00 0. -1.
<mgrwt>
<rscale>  1 0.11939492E+03</rscale>
<asrwt>0</asrwt>
<pdfrwt beam="1">  1       21 0.16640715E-02 0.11939492E+03</pdfrwt>
<pdfrwt beam="2">  1        2 0.15889912E+00 0.11939492E+03</pdfrwt>
<totfact> 0.51866145E+05</totfact>
</mgrwt>
</event>
<event>
 6    2  0.9453093E+000  0.8454393E+02  0.7546771E-02  0.1316630E+00
         -3   -1    0    0    0  501 -0.00000000000E+00  0.00000000000E+00  0.12353230795E+02  0.12353230795E+02  0.00000000000E+00 0.  1.
         21   -1    0    0  501  502  0.00000000000E+00 -0.00000000000E+00 -0.30597456264E+03  0.30597456264E+03  0.00000000000E+00 0.  1.
         24    2    1    2    0    0  0.21405633409E+02  0.40343874172E+01 -0.14286765824E+03  0.16600856441E+03  0.81689646007E+02 0.  0.
        -11    1    3    3    0    0  0.47756661953E+02  0.12374785516E+02 -0.12130464856E+03  0.13095286114E+03  0.00000000000E+00 0.  1.
         12    1    3    3    0    0 -0.26351028545E+02 -0.83403980985E+01 -0.21563009674E+02  0.35055703274E+02  0.00000000000E+00 0. -1.
         -4    1    1    2    0  502 -0.21405633409E+02 -0.40343874172E+01 -0.15075367360E+03  0.15231922902E+03  0.00000000000E+00 0.  1.
<mgrwt>
<rscale>  1 0.84543928E+02</rscale>
<asrwt>0</asrwt>
<pdfrwt beam="1">  1       21 0.47073002E-01 0.84543928E+02</pdfrwt>
<pdfrwt beam="2">  1       -3 0.19004974E-02 0.84543928E+02</pdfrwt>
<totfact> 0.19878707E+05</totfact>
</mgrwt>
</event>
<event>
 6    2  0.9453093E+000  0.8137312E+02  0.7546771E-02  0.1325199E+00
         -1   -1    0    0    0  501 -0.00000000000E+00  0.00000000000E+00  0.77458068979E+01  0.77458068979E+01  0.00000000000E+00 0.  1.
         21   -1    0    0  501  502  0.00000000000E+00 -0.00000000000E+00 -0.37015340225E+03  0.37015340225E+03  0.00000000000E+00 0. -1.
         24    2    1    2    0    0  0.19175251308E+02  0.16335696241E+02 -0.29175321359E+03  0.30288863058E+03  0.77375963077E+02 0.  0.
        -11    1    3    3    0    0 -0.22108627215E+02  0.16008577823E+02 -0.44442184721E+02  0.52155284909E+02  0.00000000000E+00 0.  1.
         12    1    3    3    0    0  0.41283878523E+02  0.32711841866E+00 -0.24731102887E+03  0.25073334567E+03  0.00000000000E+00 0. -1.
         -2    1    1    2    0  502 -0.19175251308E+02 -0.16335696241E+02 -0.70654381760E+02  0.75010578563E+02  0.00000000000E+00 0.  1.
<mgrwt>
<rscale>  1 0.81373121E+02</rscale>
<asrwt>0</asrwt>
<pdfrwt beam="1">  1       21 0.56946653E-01 0.81373121E+02</pdfrwt>
<pdfrwt beam="2">  1       -1 0.11916631E-02 0.81373121E+02</pdfrwt>
<totfact> 0.34225490E+05</totfact>
</mgrwt>
</event>
<event>
 6    2  0.9453093E+000  0.8304796E+02  0.7546771E-02  0.1320618E+00
          2   -1    0    0  502    0 -0.00000000000E+00  0.00000000000E+00  0.84765917829E+03  0.84765917829E+03  0.00000000000E+00 0. -1.
         21   -1    0    0  501  502  0.00000000000E+00 -0.00000000000E+00 -0.32493821257E+01  0.32493821257E+01  0.00000000000E+00 0. -1.
         24    2    1    2    0    0 -0.21043227003E+02 -0.22454592610E+00  0.71368736954E+03  0.71850304450E+03  0.80337386593E+02 0.  0.
        -13    1    3    3    0    0 -0.44369828005E+02 -0.61101960968E+01  0.23613446107E+03  0.24034454401E+03  0.00000000000E+00 0.  1.
         14    1    3    3    0    0  0.23326601002E+02  0.58856501707E+01  0.47755290848E+03  0.47815850049E+03  0.00000000000E+00 0. -1.
          1    1    1    2  501    0  0.21043227003E+02  0.22454592610E+00  0.13072242662E+03  0.13240551592E+03  0.00000000000E+00 0. -1.
<mgrwt>
<rscale>  1 0.83047959E+02</rscale>
<asrwt>0</asrwt>
<pdfrwt beam="1">  1       21 0.49990562E-03 0.83047959E+02</pdfrwt>
<pdfrwt beam="2">  1        2 0.13040893E+00 0.83047959E+02</pdfrwt>
<totfact> 0.42689525E+06</totfact>
</mgrwt>
</event>
<event>
 6    2  0.9453093E+000  0.1024267E+03  0.7546771E-02  0.1275274E+00
         -3   -1    0    0    0  501 -0.00000000000E+00  0.00000000000E+00  0.85095169700E+03  0.85095169700E+03  0.00000000000E+00 0.  1.
         21   -1    0    0  501  502  0.00000000000E+00 -0.00000000000E+00 -0.11023091498E+02  0.11023091498E+02  0.00000000000E+00 0.  1.
         24    2    1    2    0    0 -0.40166107349E+02  0.48795593365E+02  0.71153105043E+03  0.71886553562E+03  0.80603327865E+02 0.  0.
        -11    1    3    3    0    0 -0.44627034693E+01  0.29174377482E+02  0.58900659589E+03  0.58974556380E+03  0.00000000000E+00 0.  1.
         12    1    3    3    0    0 -0.35703403879E+02  0.19621215883E+02  0.12252445454E+03  0.12911997182E+03  0.00000000000E+00 0. -1.
         -4    1    1    2    0  502  0.40166107349E+02 -0.48795593365E+02  0.12839755508E+03  0.14310925289E+03  0.00000000000E+00 0.  1.
<mgrwt>
<rscale>  1 0.10242667E+03</rscale>
<asrwt>0</asrwt>
<pdfrwt beam="1">  1       21 0.16958609E-02 0.10242667E+03</pdfrwt>
<pdfrwt beam="2">  1       -3 0.13091559E+00 0.10242667E+03</pdfrwt>
<totfact> 0.36030475E+04</totfact>
</mgrwt>
</event>
<event>
 6    2  0.9453093E+000  0.9084562E+02  0.7546771E-02  0.1300817E+00
         21   -1    0    0  501  502  0.00000000000E+00  0.00000000000E+00  0.12431969183E+03  0.12431969183E+03  0.00000000000E+00 0.  1.
          4   -1    0    0  502    0 -0.00000000000E+00 -0.00000000000E+00 -0.36116685136E+02  0.36116685136E+02  0.00000000000E+00 0. -1.
         24    2    1    2    0    0  0.40896191575E+02 -0.13800434784E+02  0.58993027093E+02  0.10831945655E+03  0.79937331299E+02 0.  0.
        -13    1    3    3    0    0  0.57786420180E+02 -0.28006258130E+02  0.57503846295E+02  0.86199264442E+02  0.00000000000E+00 0.  1.
         14    1    3    3    0    0 -0.16890228605E+02  0.14205823346E+02  0.14891807981E+01  0.22120192104E+02  0.00000000000E+00 0. -1.
          3    1    1    2  501    0 -0.40896191575E+02  0.13800434784E+02  0.29209979597E+02  0.52116920415E+02  0.00000000000E+00 0. -1.
<mgrwt>
<rscale>  1 0.90845624E+02</rscale>
<asrwt>0</asrwt>
<pdfrwt beam="1">  1       21 0.19126106E-01 0.90845624E+02</pdfrwt>
<pdfrwt beam="2">  1        4 0.55564132E-02 0.90845624E+02</pdfrwt>
<totfact> 0.19032442E+05</totfact>
</mgrwt>
</event>
<event>
 6    2  0.9453093E+000  0.8455225E+02  0.7546771E-02  0.1316608E+00
          2   -1    0    0  502    0 -0.00000000000E+00  0.00000000000E+00  0.14261951273E+04  0.14261951273E+04  0.00000000000E+00 0. -1.
         21   -1    0    0  501  502  0.00000000000E+00 -0.00000000000E+00 -0.25409408957E+01  0.25409408957E+01  0.00000000000E+00 0. -1.
         24    2    1    2    0    0 -0.24226191544E+02  0.74456094617E+01  0.12854098670E+04  0.12881877231E+04  0.80664356132E+02 0.  0.
        -13    1    3    3    0    0 -0.11223108966E+01 -0.30566209746E+02  0.84127273136E+03  0.84182858189E+03  0.00000000000E+00 0.  1.
         14    1    3    3    0    0 -0.23103880647E+02  0.38011819208E+02  0.44413713567E+03  0.44635914126E+03  0.00000000000E+00 0. -1.
          1    1    1    2  501    0  0.24226191544E+02 -0.74456094617E+01  0.13824431940E+03  0.14054834508E+03  0.00000000000E+00 0. -1.
<mgrwt>
<rscale>  1 0.84552255E+02</rscale>
<asrwt>0</asrwt>
<pdfrwt beam="1">  1       21 0.39091512E-03 0.84552255E+02</pdfrwt>
<pdfrwt beam="2">  1        2 0.21941400E+00 0.84552255E+02</pdfrwt>
<totfact> 0.29526413E+06</totfact>
</mgrwt>
</event>
<event>
 6    2  0.9453093E+000  0.8325261E+02  0.7546771E-02  0.1320066E+00
         21   -1    0    0  501  502  0.00000000000E+00  0.00000000000E+00  0.36754521088E+02  0.36754521088E+02  0.00000000000E+00 0.  1.
          4   -1    0    0  502    0 -0.00000000000E+00 -0.00000000000E+00 -0.78500356335E+02  0.78500356335E+02  0.00000000000E+00 0. -1.
         24    2    1    2    0    0  0.18196765901E+02 -0.14684313014E+02 -0.26614168159E+02  0.87403150604E+02  0.79901473395E+02 0.  0.
        -11    1    3    3    0    0  0.16615588256E+02 -0.46442390050E+02 -0.64349996144E+01  0.49743166231E+02  0.00000000000E+00 0.  1.
         12    1    3    3    0    0  0.15811776451E+01  0.31758077036E+02 -0.20179168545E+02  0.37659984372E+02  0.00000000000E+00 0. -1.
          3    1    1    2  501    0 -0.18196765901E+02  0.14684313014E+02 -0.15131667089E+02  0.27851726820E+02  0.00000000000E+00 0. -1.
<mgrwt>
<rscale>  1 0.83252608E+02</rscale>
<asrwt>0</asrwt>
<pdfrwt beam="1">  1       21 0.56545417E-02 0.83252608E+02</pdfrwt>
<pdfrwt beam="2">  1        4 0.12076978E-01 0.83252608E+02</pdfrwt>
<totfact> 0.43451967E+05</totfact>
</mgrwt>
</event>
<event>
 6    2  0.1223915E+001  0.1006000E+03  0.7546771E-02  0.1279039E+00
         -1   -1    0    0    0  501 -0.00000000000E+00  0.00000000000E+00  0.41418765098E+03  0.41418765098E+03  0.00000000000E+00 0.  1.
         21   -1    0    0  501  502  0.00000000000E+00 -0.00000000000E+00 -0.19895465347E+02  0.19895465347E+02  0.00000000000E+00 0.  1.
         24    2    1    2    0    0 -0.56264723987E+02 -0.29125254840E+02  0.32490339021E+03  0.34012139771E+03  0.78143154382E+02 0.  0.
        -11    1    3    3    0    0 -0.69841436359E+02 -0.28157109777E+02  0.31333933721E+03  0.32226105769E+03  0.00000000000E+00 0.  1.
         12    1    3    3    0    0  0.13576712372E+02 -0.96814506268E+00  0.11564052999E+02  0.17860340015E+02  0.00000000000E+00 0. -1.
         -2    1    1    2    0  502  0.56264723987E+02  0.29125254840E+02  0.69388795422E+02  0.93961718614E+02  0.00000000000E+00 0.  1.
<mgrwt>
<rscale>  1 0.10059996E+03</rscale>
<asrwt>0</asrwt>
<pdfrwt beam="1">  1       21 0.30608411E-02 0.10059996E+03</pdfrwt>
<pdfrwt beam="2">  1       -1 0.63721170E-01 0.10059996E+03</pdfrwt>
<totfact> 0.14187937E+05</totfact>
</mgrwt>
</event>
<event>
 6    2  0.9453093E+000  0.1015017E+03  0.7546771E-02  0.1277169E+00
         21   -1    0    0  501  502  0.00000000000E+00  0.00000000000E+00  0.35235066730E+02  0.35235066730E+02  0.00000000000E+00 0. -1.
          2   -1    0    0  502    0 -0.00000000000E+00 -0.00000000000E+00 -0.18917625674E+03  0.18917625674E+03  0.00000000000E+00 0. -1.
         24    2    1    2    0    0  0.56602199283E+02 -0.24769565015E+02 -0.95459248126E+02  0.13933795607E+03  0.80531097307E+02 0.  0.
        -13    1    3    3    0    0  0.41475085054E+01  0.15646737538E+02  0.67617484864E+01  0.17542618533E+02  0.00000000000E+00 0.  1.
         14    1    3    3    0    0  0.52454690777E+02 -0.40416302553E+02 -0.10222099661E+03  0.12179533753E+03  0.00000000000E+00 0. -1.
          1    1    1    2  501    0 -0.56602199283E+02  0.24769565015E+02 -0.58481941880E+02  0.85073367399E+02  0.00000000000E+00 0. -1.
<mgrwt>
<rscale>  1 0.10150171E+03</rscale>
<asrwt>0</asrwt>
<pdfrwt beam="1">  1       21 0.54207793E-02 0.10150171E+03</pdfrwt>
<pdfrwt beam="2">  1        2 0.29104041E-01 0.10150171E+03</pdfrwt>
<totfact> 0.49998850E+05</totfact>
</mgrwt>
</event>
<event>
 6    2  0.9453093E+000  0.8563099E+02  0.7546771E-02  0.1313791E+00
         21   -1    0    0  501  502  0.00000000000E+00  0.00000000000E+00  0.15052027580E+01  0.15052027580E+01  0.00000000000E+00 0. -1.
          2   -1    0    0  502    0 -0.00000000000E+00 -0.00000000000E+00 -0.22672492309E+04  0.22672492309E+04  0.00000000000E+00 0. -1.
         24    2    1    2    0    0  0.27096806683E+02 -0.59006953123E+01 -0.19160438753E+04  0.19179564119E+04  0.81016115203E+02 0.  0.
        -11    1    3    3    0    0 -0.27207455384E+02 -0.10668257259E+02 -0.48974050550E+03  0.49061167950E+03  0.00000000000E+00 0.  1.
         12    1    3    3    0    0  0.54304262067E+02  0.47675619469E+01 -0.14263033698E+04  0.14273447324E+04  0.00000000000E+00 0. -1.
          1    1    1    2  501    0 -0.27096806683E+02  0.59006953123E+01 -0.34970015287E+03  0.35079802174E+03  0.00000000000E+00 0. -1.
<mgrwt>
<rscale>  1 0.85630988E+02</rscale>
<asrwt>0</asrwt>
<pdfrwt beam="1">  1       21 0.23157043E-03 0.85630988E+02</pdfrwt>
<pdfrwt beam="2">  1        2 0.34880641E+00 0.85630988E+02</pdfrwt>
<totfact> 0.24577580E+06</totfact>
</mgrwt>
</event>
<event>
 6    2  0.9453093E+000  0.9174712E+02  0.7546771E-02  0.1298675E+00
          2   -1    0    0  502    0 -0.00000000000E+00  0.00000000000E+00  0.34992741035E+03  0.34992741035E+03  0.00000000000E+00 0. -1.
         21   -1    0    0  501  502  0.00000000000E+00 -0.00000000000E+00 -0.16503010424E+02  0.16503010424E+02  0.00000000000E+00 0. -1.
         24    2    1    2    0    0  0.17807870763E+02  0.34774970265E+02  0.30393580695E+03  0.31748150931E+03  0.83012741101E+02 0.  0.
        -11    1    3    3    0    0  0.38637365564E+02  0.12095035664E+02  0.65056591818E+02  0.76625687888E+02  0.00000000000E+00 0.  1.
         12    1    3    3    0    0 -0.20829494801E+02  0.22679934601E+02  0.23887921514E+03  0.24085582142E+03  0.00000000000E+00 0. -1.
          1    1    1    2  501    0 -0.17807870763E+02 -0.34774970265E+02  0.29488592967E+02  0.48948911462E+02  0.00000000000E+00 0. -1.
<mgrwt>
<rscale>  1 0.91747120E+02</rscale>
<asrwt>0</asrwt>
<pdfrwt beam="1">  1       21 0.25389250E-02 0.91747120E+02</pdfrwt>
<pdfrwt beam="2">  1        2 0.53834980E-01 0.91747120E+02</pdfrwt>
<totfact> 0.90129625E+05</totfact>
</mgrwt>
</event>
<event>
 6    2  0.9453093E+000  0.8124275E+02  0.7546771E-02  0.1325561E+00
         21   -1    0    0  501  502  0.00000000000E+00  0.00000000000E+00  0.58075319967E+02  0.58075319967E+02  0.00000000000E+00 0.  1.
          4   -1    0    0  502    0 -0.00000000000E+00 -0.00000000000E+00 -0.45579344373E+02  0.45579344373E+02  0.00000000000E+00 0. -1.
         24    2    1    2    0    0  0.56235479948E+01  0.20909594603E+02  0.95260774672E+01  0.81799327843E+02  0.78304204518E+02 0.  0.
        -13    1    3    3    0    0 -0.28271380406E+02  0.24055195776E+02  0.24640388724E+02  0.44554148520E+02  0.00000000000E+00 0.  1.
         14    1    3    3    0    0  0.33894928401E+02 -0.31456011731E+01 -0.15114311256E+02  0.37245179323E+02  0.00000000000E+00 0. -1.
          3    1    1    2  501    0 -0.56235479948E+01 -0.20909594603E+02  0.29698981267E+01  0.21855336496E+02  0.00000000000E+00 0. -1.
<mgrwt>
<rscale>  1 0.81242747E+02</rscale>
<asrwt>0</asrwt>
<pdfrwt beam="1">  1       21 0.89346647E-02 0.81242747E+02</pdfrwt>
<pdfrwt beam="2">  1        4 0.70122068E-02 0.81242747E+02</pdfrwt>
<totfact> 0.49045564E+05</totfact>
</mgrwt>
</event>
<event>
 6    2  0.9453093E+000  0.9184563E+02  0.7546771E-02  0.1298443E+00
         21   -1    0    0  501  502  0.00000000000E+00  0.00000000000E+00  0.14874685276E+02  0.14874685276E+02  0.00000000000E+00 0. -1.
          2   -1    0    0  502    0 -0.00000000000E+00 -0.00000000000E+00 -0.47862557006E+03  0.47862557006E+03  0.00000000000E+00 0. -1.
         24    2    1    2    0    0 -0.10918428149E+02  0.17032839130E+02 -0.46426410313E+03  0.47326184939E+03  0.89589569440E+02 0.  0.
        -13    1    3    3    0    0  0.10643398479E+02  0.38801183669E+02 -0.10116430148E+03  0.10887162018E+03  0.00000000000E+00 0.  1.
         14    1    3    3    0    0 -0.21561826628E+02 -0.21768344539E+02 -0.36309980164E+03  0.36439022921E+03  0.00000000000E+00 0. -1.
          1    1    1    2  501    0  0.10918428149E+02 -0.17032839130E+02  0.51321834686E+00  0.20238405944E+02  0.00000000000E+00 0. -1.
<mgrwt>
<rscale>  1 0.91845635E+02</rscale>
<asrwt>0</asrwt>
<pdfrwt beam="1">  1       21 0.22884136E-02 0.91845635E+02</pdfrwt>
<pdfrwt beam="2">  1        2 0.73634689E-01 0.91845635E+02</pdfrwt>
<totfact> 0.76529472E+05</totfact>
</mgrwt>
</event>
<event>
 6    2  0.9453093E+000  0.1093188E+03  0.7546771E-02  0.1261837E+00
         21   -1    0    0  501  502  0.00000000000E+00  0.00000000000E+00  0.46825005198E+02  0.46825005198E+02  0.00000000000E+00 0.  1.
          4   -1    0    0  502    0 -0.00000000000E+00 -0.00000000000E+00 -0.36295031772E+03  0.36295031772E+03  0.00000000000E+00 0. -1.
         24    2    1    2    0    0 -0.17084060555E+02 -0.72321792214E+02 -0.28874501853E+02  0.11306783231E+03  0.80176624346E+02 0.  0.
        -11    1    3    3    0    0 -0.37843138633E+02 -0.21354762473E+02  0.11339869128E+02  0.44907924175E+02  0.00000000000E+00 0.  1.
         12    1    3    3    0    0  0.20759078078E+02 -0.50967029741E+02 -0.40214370981E+02  0.68159908133E+02  0.00000000000E+00 0. -1.
          3    1    1    2  501    0  0.17084060555E+02  0.72321792214E+02 -0.28725081067E+03  0.29670749061E+03  0.00000000000E+00 0. -1.
<mgrwt>
<rscale>  1 0.10931879E+03</rscale>
<asrwt>0</asrwt>
<pdfrwt beam="1">  1       21 0.72038468E-02 0.10931879E+03</pdfrwt>
<pdfrwt beam="2">  1        4 0.55838511E-01 0.10931879E+03</pdfrwt>
<totfact> 0.17671666E+04</totfact>
</mgrwt>
</event>
<event>
 6    2  0.9453093E+000  0.8059027E+02  0.7546771E-02  0.1327385E+00
         21   -1    0    0  501  502  0.00000000000E+00  0.00000000000E+00  0.41723235333E+01  0.41723235333E+01  0.00000000000E+00 0. -1.
          2   -1    0    0  502    0 -0.00000000000E+00 -0.00000000000E+00 -0.10179942529E+04  0.10179942529E+04  0.00000000000E+00 0. -1.
         24    2    1    2    0    0  0.19078372559E+02 -0.89835232318E+01 -0.97193959604E+03  0.97527502246E+03  0.77782408607E+02 0.  0.
        -11    1    3    3    0    0  0.19556031991E+02  0.20298914201E+02 -0.13943274569E+03  0.14225320691E+03  0.00000000000E+00 0.  1.
         12    1    3    3    0    0 -0.47765943167E+00 -0.29282437433E+02 -0.83250685035E+03  0.83302181555E+03  0.00000000000E+00 0. -1.
          1    1    1    2  501    0 -0.19078372559E+02  0.89835232318E+01 -0.41882333298E+02  0.46891553948E+02  0.00000000000E+00 0. -1.
<mgrwt>
<rscale>  1 0.80590267E+02</rscale>
<asrwt>0</asrwt>
<pdfrwt beam="1">  1       21 0.64189590E-03 0.80590267E+02</pdfrwt>
<pdfrwt beam="2">  1        2 0.15661451E+00 0.80590267E+02</pdfrwt>
<totfact> 0.22866624E+06</totfact>
</mgrwt>
</event>
<event>
 6    2  0.9453093E+000  0.9481804E+02  0.7546771E-02  0.1291586E+00
          2   -1    0    0  502    0 -0.00000000000E+00  0.00000000000E+00  0.11514873484E+04  0.11514873484E+04  0.00000000000E+00 0. -1.
         21   -1    0    0  501  502  0.00000000000E+00 -0.00000000000E+00 -0.47470347901E+01  0.47470347901E+01  0.00000000000E+00 0.  1.
         24    2    1    2    0    0 -0.46761365275E+02 -0.21519141935E+02  0.65922646458E+03  0.66601050398E+03  0.79628895865E+02 0.  0.
        -11    1    3    3    0    0 -0.65667068545E+02 -0.32163895156E+02  0.50739998229E+03  0.51264161172E+03  0.00000000000E+00 0.  1.
         12    1    3    3    0    0  0.18905703270E+02  0.10644753221E+02  0.15182648230E+03  0.15336889227E+03  0.00000000000E+00 0. -1.
          1    1    1    2  501    0  0.46761365275E+02  0.21519141935E+02  0.48751384900E+03  0.49022387918E+03  0.00000000000E+00 0. -1.
<mgrwt>
<rscale>  1 0.94818035E+02</rscale>
<asrwt>0</asrwt>
<pdfrwt beam="1">  1       21 0.73031397E-03 0.94818035E+02</pdfrwt>
<pdfrwt beam="2">  1        2 0.17715168E+00 0.94818035E+02</pdfrwt>
<totfact> 0.15989982E+06</totfact>
</mgrwt>
</event>
<event>
 6    2  0.9453093E+000  0.8196000E+02  0.7546771E-02  0.1323579E+00
          2   -1    0    0  502    0 -0.00000000000E+00  0.00000000000E+00  0.15375002159E+03  0.15375002159E+03  0.00000000000E+00 0. -1.
         21   -1    0    0  501  502  0.00000000000E+00 -0.00000000000E+00 -0.17470299992E+02  0.17470299992E+02  0.00000000000E+00 0.  1.
         24    2    1    2    0    0  0.17909438024E+02 -0.12109282056E+02  0.10512367402E+03  0.13329827018E+03  0.79057316613E+02 0.  0.
        -11    1    3    3    0    0  0.15959764442E+02 -0.30536785183E+02  0.92855583623E+01  0.35685163926E+02  0.00000000000E+00 0.  1.
         12    1    3    3    0    0  0.19496735817E+01  0.18427503127E+02  0.95838115662E+02  0.97613106252E+02  0.00000000000E+00 0. -1.
          1    1    1    2  501    0 -0.17909438024E+02  0.12109282056E+02  0.31156047578E+02  0.37922051407E+02  0.00000000000E+00 0. -1.
<mgrwt>
<rscale>  1 0.81960002E+02</rscale>
<asrwt>0</asrwt>
<pdfrwt beam="1">  1       21 0.26877386E-02 0.81960002E+02</pdfrwt>
<pdfrwt beam="2">  1        2 0.23653848E-01 0.81960002E+02</pdfrwt>
<totfact> 0.19385485E+06</totfact>
</mgrwt>
</event>
<event>
 6    2  0.9453093E+000  0.8707846E+02  0.7546771E-02  0.1310085E+00
         -3   -1    0    0    0  501 -0.00000000000E+00  0.00000000000E+00  0.37068450653E+02  0.37068450653E+02  0.00000000000E+00 0.  1.
         21   -1    0    0  501  502  0.00000000000E+00 -0.00000000000E+00 -0.97951285242E+02  0.97951285242E+02  0.00000000000E+00 0. -1.
         24    2    1    2    0    0  0.17377323756E+01  0.31094128860E+02 -0.55910684337E+02  0.10348266499E+03  0.81319079964E+02 0.  0.
        -11    1    3    3    0    0 -0.90082532407E+01  0.35309834283E+02  0.90145488864E+01  0.37539247663E+02  0.00000000000E+00 0.  1.
         12    1    3    3    0    0  0.10745985616E+02 -0.42157054229E+01 -0.64925233223E+02  0.65943417323E+02  0.00000000000E+00 0. -1.
         -4    1    1    2    0  502 -0.17377323756E+01 -0.31094128860E+02 -0.49721502519E+01  0.31537070908E+02  0.00000000000E+00 0.  1.
<mgrwt>
<rscale>  1 0.87078455E+02</rscale>
<asrwt>0</asrwt>
<pdfrwt beam="1">  1       21 0.15069428E-01 0.87078455E+02</pdfrwt>
<pdfrwt beam="2">  1       -3 0.57028386E-02 0.87078455E+02</pdfrwt>
<totfact> 0.31691382E+05</totfact>
</mgrwt>
</event>
<event>
 6    2  0.9453093E+000  0.1149384E+03  0.7546771E-02  0.1251689E+00
         21   -1    0    0  501  502  0.00000000000E+00  0.00000000000E+00  0.25817177126E+03  0.25817177126E+03  0.00000000000E+00 0. -1.
          2   -1    0    0  502    0 -0.00000000000E+00 -0.00000000000E+00 -0.47744978923E+02  0.47744978923E+02  0.00000000000E+00 0. -1.
         24    2    1    2    0    0  0.54338326318E+02  0.52005286853E+02  0.19904340446E+03  0.22984582875E+03  0.86911590520E+02 0.  0.
        -13    1    3    3    0    0 -0.13815750052E+02  0.34439372856E+02  0.11153628778E+03  0.11754696442E+03  0.00000000000E+00 0.  1.
         14    1    3    3    0    0  0.68154076370E+02  0.17565913997E+02  0.87507116683E+02  0.11229886433E+03  0.00000000000E+00 0. -1.
          1    1    1    2  501    0 -0.54338326318E+02 -0.52005286853E+02  0.11383387872E+02  0.76070921430E+02  0.00000000000E+00 0. -1.
<mgrwt>
<rscale>  1 0.11493837E+03</rscale>
<asrwt>0</asrwt>
<pdfrwt beam="1">  1       21 0.39718733E-01 0.11493837E+03</pdfrwt>
<pdfrwt beam="2">  1        2 0.73453815E-02 0.11493837E+03</pdfrwt>
<totfact> 0.68972774E+04</totfact>
</mgrwt>
</event>
<event>
 6    2  0.9453093E+000  0.9267274E+02  0.7546771E-02  0.1296505E+00
          2   -1    0    0  502    0 -0.00000000000E+00  0.00000000000E+00  0.36602482770E+02  0.36602482770E+02  0.00000000000E+00 0. -1.
         21   -1    0    0  501  502  0.00000000000E+00 -0.00000000000E+00 -0.21992617610E+03  0.21992617610E+03  0.00000000000E+00 0. -1.
         24    2    1    2    0    0 -0.20687083494E+02  0.38942586485E+02 -0.30642755749E+02  0.97607454602E+02  0.81509240263E+02 0.  0.
        -13    1    3    3    0    0  0.43246199039E+01  0.14810488419E+02 -0.53717583317E+02  0.55889459310E+02  0.00000000000E+00 0.  1.
         14    1    3    3    0    0 -0.25011703398E+02  0.24132098065E+02  0.23074827568E+02  0.41717995292E+02  0.00000000000E+00 0. -1.
          1    1    1    2  501    0  0.20687083494E+02 -0.38942586485E+02 -0.15268093758E+03  0.15892120427E+03  0.00000000000E+00 0. -1.
<mgrwt>
<rscale>  1 0.92672740E+02</rscale>
<asrwt>0</asrwt>
<pdfrwt beam="1">  1       21 0.33834797E-01 0.92672740E+02</pdfrwt>
<pdfrwt beam="2">  1        2 0.56311512E-02 0.92672740E+02</pdfrwt>
<totfact> 0.13115341E+05</totfact>
</mgrwt>
</event>
<event>
 6    2  0.9453093E+000  0.8221818E+02  0.7546771E-02  0.1322872E+00
          2   -1    0    0  502    0 -0.00000000000E+00  0.00000000000E+00  0.23686792432E+03  0.23686792432E+03  0.00000000000E+00 0. -1.
         21   -1    0    0  501  502  0.00000000000E+00 -0.00000000000E+00 -0.24177190686E+02  0.24177190686E+02  0.00000000000E+00 0.  1.
         24    2    1    2    0    0 -0.13587504639E+02 -0.26354675278E+02  0.51204647183E+02  0.96859411279E+02  0.76685334118E+02 0.  0.
        -11    1    3    3    0    0 -0.81184561490E+01  0.21654759731E+02 -0.40268975878E+01  0.23474536277E+02  0.00000000000E+00 0.  1.
         12    1    3    3    0    0 -0.54690484898E+01 -0.48009435009E+02  0.55231544771E+02  0.73384875002E+02  0.00000000000E+00 0. -1.
          1    1    1    2  501    0  0.13587504639E+02  0.26354675278E+02  0.16148608645E+03  0.16418570373E+03  0.00000000000E+00 0. -1.
<mgrwt>
<rscale>  1 0.82218183E+02</rscale>
<asrwt>0</asrwt>
<pdfrwt beam="1">  1       21 0.37195680E-02 0.82218183E+02</pdfrwt>
<pdfrwt beam="2">  1        2 0.36441218E-01 0.82218183E+02</pdfrwt>
<totfact> 0.72053224E+05</totfact>
</mgrwt>
</event>
<event>
 6    2  0.9453093E+000  0.9762380E+02  0.7546771E-02  0.1285374E+00
         -1   -1    0    0    0  501 -0.00000000000E+00  0.00000000000E+00  0.12820050590E+04  0.12820050590E+04  0.00000000000E+00 0.  1.
         21   -1    0    0  501  502  0.00000000000E+00 -0.00000000000E+00 -0.80491929928E+01  0.80491929928E+01  0.00000000000E+00 0.  1.
         24    2    1    2    0    0  0.51335689841E+02 -0.22420959152E+02  0.11487185260E+04  0.11528593403E+04  0.79952198840E+02 0.  0.
        -13    1    3    3    0    0  0.60886066189E+02  0.11733590465E+02  0.69925038504E+03  0.70199422447E+03  0.00000000000E+00 0.  1.
         14    1    3    3    0    0 -0.95503763472E+01 -0.34154549616E+02  0.44946814091E+03  0.45086511579E+03  0.00000000000E+00 0. -1.
         -2    1    1    2    0  502 -0.51335689841E+02  0.22420959152E+02  0.12523734004E+03  0.13719491172E+03  0.00000000000E+00 0.  1.
<mgrwt>
<rscale>  1 0.97623801E+02</rscale>
<asrwt>0</asrwt>
<pdfrwt beam="1">  1       21 0.12383384E-02 0.97623801E+02</pdfrwt>
<pdfrwt beam="2">  1       -1 0.19723139E+00 0.97623801E+02</pdfrwt>
<totfact> 0.43569840E+04</totfact>
</mgrwt>
</event>
<event>
 6    2  0.9453093E+000  0.8998323E+02  0.7546771E-02  0.1302892E+00
          2   -1    0    0  502    0 -0.00000000000E+00  0.00000000000E+00  0.71831983776E+03  0.71831983776E+03  0.00000000000E+00 0. -1.
         21   -1    0    0  501  502  0.00000000000E+00 -0.00000000000E+00 -0.10463838553E+02  0.10463838553E+02  0.00000000000E+00 0.  1.
         24    2    1    2    0    0  0.25839840853E+02 -0.31194447050E+02  0.65991311356E+03  0.66601974410E+03  0.80350427431E+02 0.  0.
        -11    1    3    3    0    0  0.20476551797E+02 -0.24194317104E+02  0.80152921526E+02  0.86192487972E+02  0.00000000000E+00 0.  1.
         12    1    3    3    0    0  0.53632890562E+01 -0.70001299459E+01  0.57976019203E+03  0.57982725613E+03  0.00000000000E+00 0. -1.
          1    1    1    2  501    0 -0.25839840853E+02  0.31194447050E+02  0.47942885653E+02  0.62763932213E+02  0.00000000000E+00 0. -1.
<mgrwt>
<rscale>  1 0.89983232E+02</rscale>
<asrwt>0</asrwt>
<pdfrwt beam="1">  1       21 0.16098219E-02 0.89983232E+02</pdfrwt>
<pdfrwt beam="2">  1        2 0.11051071E+00 0.89983232E+02</pdfrwt>
<totfact> 0.85140976E+05</totfact>
</mgrwt>
</event>
<event>
 6    2  0.9453093E+000  0.8229052E+02  0.7546771E-02  0.1322674E+00
         -3   -1    0    0    0  501 -0.00000000000E+00  0.00000000000E+00  0.32476155450E+03  0.32476155450E+03  0.00000000000E+00 0.  1.
         21   -1    0    0  501  502  0.00000000000E+00 -0.00000000000E+00 -0.23790719003E+02  0.23790719003E+02  0.00000000000E+00 0.  1.
         24    2    1    2    0    0 -0.15040201294E+02 -0.15980326927E+02  0.31292394496E+03  0.32356316929E+03  0.79310470208E+02 0.  0.
        -13    1    3    3    0    0 -0.40548519598E+01  0.16413192477E+02  0.25999049380E+03  0.26053961614E+03  0.00000000000E+00 0.  1.
         14    1    3    3    0    0 -0.10985349334E+02 -0.32393519404E+02  0.52933451162E+02  0.63023553147E+02  0.00000000000E+00 0. -1.
         -4    1    1    2    0  502  0.15040201294E+02  0.15980326927E+02 -0.11953109465E+02  0.24989104216E+02  0.00000000000E+00 0.  1.
<mgrwt>
<rscale>  1 0.82290517E+02</rscale>
<asrwt>0</asrwt>
<pdfrwt beam="1">  1       21 0.36601108E-02 0.82290517E+02</pdfrwt>
<pdfrwt beam="2">  1       -3 0.49963313E-01 0.82290517E+02</pdfrwt>
<totfact> 0.81389183E+04</totfact>
</mgrwt>
</event>
<event>
 6    2  0.9453093E+000  0.8606944E+02  0.7546771E-02  0.1312659E+00
         -3   -1    0    0    0  501 -0.00000000000E+00  0.00000000000E+00  0.49086174646E+02  0.49086174646E+02  0.00000000000E+00 0.  1.
         21   -1    0    0  501  502  0.00000000000E+00 -0.00000000000E+00 -0.70663006706E+02  0.70663006706E+02  0.00000000000E+00 0. -1.
         24    2    1    2    0    0 -0.12436334952E+02  0.29180131628E+02 -0.15714488538E+02  0.87492250617E+02  0.80011288323E+02 0.  0.
        -11    1    3    3    0    0  0.15734545999E+02  0.69768964099E+01  0.26810482519E+02  0.31859927718E+02  0.00000000000E+00 0.  1.
         12    1    3    3    0    0 -0.28170880951E+02  0.22203235218E+02 -0.42524971057E+02  0.55632322899E+02  0.00000000000E+00 0. -1.
         -4    1    1    2    0  502  0.12436334952E+02 -0.29180131628E+02 -0.58623435208E+01  0.32256930735E+02  0.00000000000E+00 0.  1.
<mgrwt>
<rscale>  1 0.86069442E+02</rscale>
<asrwt>0</asrwt>
<pdfrwt beam="1">  1       21 0.10871232E-01 0.86069442E+02</pdfrwt>
<pdfrwt beam="2">  1       -3 0.75517192E-02 0.86069442E+02</pdfrwt>
<totfact> 0.35979653E+05</totfact>
</mgrwt>
</event>
<event>
 6    2  0.9453093E+000  0.8376933E+02  0.7546771E-02  0.1318683E+00
         21   -1    0    0  501  502  0.00000000000E+00  0.00000000000E+00  0.13247840113E+02  0.13247840113E+02  0.00000000000E+00 0. -1.
         -3   -1    0    0    0  501 -0.00000000000E+00 -0.00000000000E+00 -0.21316718874E+03  0.21316718874E+03  0.00000000000E+00 0.  1.
         24    2    1    2    0    0 -0.90037120349E+01 -0.19823224031E+02 -0.14702093549E+03  0.16921127763E+03  0.80890506020E+02 0.  0.
        -13    1    3    3    0    0  0.19099479977E+02  0.19866341656E+02 -0.90726665051E+02  0.94819773346E+02  0.00000000000E+00 0.  1.
         14    1    3    3    0    0 -0.28103192012E+02 -0.39689565687E+02 -0.56294270441E+02  0.74391504287E+02  0.00000000000E+00 0. -1.
         -4    1    1    2    0  502  0.90037120349E+01  0.19823224031E+02 -0.52898413136E+02  0.57203751221E+02  0.00000000000E+00 0.  1.
<mgrwt>
<rscale>  1 0.83769332E+02</rscale>
<asrwt>0</asrwt>
<pdfrwt beam="1">  1       21 0.20381294E-02 0.83769332E+02</pdfrwt>
<pdfrwt beam="2">  1       -3 0.32794950E-01 0.83769332E+02</pdfrwt>
<totfact> 0.46972238E+05</totfact>
</mgrwt>
</event>
<event>
 6    2  0.9453093E+000  0.8313286E+02  0.7546771E-02  0.1320389E+00
         21   -1    0    0  501  502  0.00000000000E+00  0.00000000000E+00  0.68987238954E+01  0.68987238954E+01  0.00000000000E+00 0. -1.
          2   -1    0    0  502    0 -0.00000000000E+00 -0.00000000000E+00 -0.41254543815E+03  0.41254543815E+03  0.00000000000E+00 0. -1.
         24    2    1    2    0    0 -0.87135787916E+00 -0.20729812894E+02 -0.27945601027E+03  0.29155914267E+03  0.80502096832E+02 0.  0.
        -13    1    3    3    0    0 -0.37360440086E+02 -0.16599374194E+02 -0.94045515047E+02  0.10254706533E+03  0.00000000000E+00 0.  1.
         14    1    3    3    0    0  0.36489082206E+02 -0.41304387004E+01 -0.18541049522E+03  0.18901207734E+03  0.00000000000E+00 0. -1.
          1    1    1    2  501    0  0.87135787916E+00  0.20729812894E+02 -0.12619070399E+03  0.12788501937E+03  0.00000000000E+00 0. -1.
<mgrwt>
<rscale>  1 0.83132858E+02</rscale>
<asrwt>0</asrwt>
<pdfrwt beam="1">  1       21 0.10613421E-02 0.83132858E+02</pdfrwt>
<pdfrwt beam="2">  1        2 0.63468531E-01 0.83132858E+02</pdfrwt>
<totfact> 0.29948465E+06</totfact>
</mgrwt>
</event>
<event>
 6    2  0.9453093E+000  0.9589102E+02  0.7546771E-02  0.1289182E+00
         21   -1    0    0  501  502  0.00000000000E+00  0.00000000000E+00  0.20783337820E+01  0.20783337820E+01  0.00000000000E+00 0. -1.
          2   -1    0    0  502    0 -0.00000000000E+00 -0.00000000000E+00 -0.28925545735E+04  0.28925545735E+04  0.00000000000E+00 0. -1.
         24    2    1    2    0    0  0.12084467991E+02  0.47639848934E+02 -0.23409562589E+04  0.23429193957E+04  0.82337712903E+02 0.  0.
        -13    1    3    3    0    0  0.45811044346E+02  0.25948799881E+02 -0.16134940197E+04  0.16143527941E+04  0.00000000000E+00 0.  1.
         14    1    3    3    0    0 -0.33726576355E+02  0.21691049053E+02 -0.72746223918E+03  0.72856660162E+03  0.00000000000E+00 0. -1.
          1    1    1    2  501    0 -0.12084467991E+02 -0.47639848934E+02 -0.54951998075E+03  0.55171351154E+03  0.00000000000E+00 0. -1.
<mgrwt>
<rscale>  1 0.95891024E+02</rscale>
<asrwt>0</asrwt>
<pdfrwt beam="1">  1       21 0.31974244E-03 0.95891024E+02</pdfrwt>
<pdfrwt beam="2">  1        2 0.44501009E+00 0.95891024E+02</pdfrwt>
<totfact> 0.70526232E+05</totfact>
</mgrwt>
</event>
<event>
 6    2  0.1016126E+001  0.8921352E+02  0.7546771E-02  0.1304768E+00
         21   -1    0    0  501  502  0.00000000000E+00  0.00000000000E+00  0.53014700940E+02  0.53014700940E+02  0.00000000000E+00 0.  1.
         -1   -1    0    0    0  501 -0.00000000000E+00 -0.00000000000E+00 -0.91026855016E+02  0.91026855016E+02  0.00000000000E+00 0.  1.
         24    2    1    2    0    0 -0.29040639523E+02 -0.12093359484E+01 -0.60071292460E+02  0.10755283409E+03  0.84345899159E+02 0.  0.
        -11    1    3    3    0    0 -0.42161134914E+02  0.14241267856E+02 -0.71548697407E+02  0.84259071369E+02  0.00000000000E+00 0.  1.
         12    1    3    3    0    0  0.13120495391E+02 -0.15450603805E+02  0.11477404946E+02  0.23293762717E+02  0.00000000000E+00 0. -1.
         -2    1    1    2    0  502  0.29040639523E+02  0.12093359484E+01  0.22059138385E+02  0.36488721869E+02  0.00000000000E+00 0.  1.
<mgrwt>
<rscale>  1 0.89213519E+02</rscale>
<asrwt>0</asrwt>
<pdfrwt beam="1">  1       21 0.81561079E-02 0.89213519E+02</pdfrwt>
<pdfrwt beam="2">  1       -1 0.14004131E-01 0.89213519E+02</pdfrwt>
<totfact> 0.35120004E+05</totfact>
</mgrwt>
</event>
<event>
 6    2  0.9453093E+000  0.8759179E+02  0.7546771E-02  0.1308791E+00
          2   -1    0    0  502    0 -0.00000000000E+00  0.00000000000E+00  0.67488382653E+03  0.67488382653E+03  0.00000000000E+00 0. -1.
         21   -1    0    0  501  502  0.00000000000E+00 -0.00000000000E+00 -0.56886024887E+01  0.56886024887E+01  0.00000000000E+00 0.  1.
         24    2    1    2    0    0 -0.11141050620E+02  0.30608312300E+02  0.40413858134E+03  0.41352184274E+03  0.81310083669E+02 0.  0.
        -13    1    3    3    0    0 -0.15532169342E+02  0.54119261609E+02  0.19336384056E+03  0.20139443289E+03  0.00000000000E+00 0.  1.
         14    1    3    3    0    0  0.43911187222E+01 -0.23510949309E+02  0.21077474077E+03  0.21212740985E+03  0.00000000000E+00 0. -1.
          1    1    1    2  501    0  0.11141050620E+02 -0.30608312300E+02  0.26505664270E+03  0.26705058628E+03  0.00000000000E+00 0. -1.
<mgrwt>
<rscale>  1 0.87591789E+02</rscale>
<asrwt>0</asrwt>
<pdfrwt beam="1">  1       21 0.87517015E-03 0.87591789E+02</pdfrwt>
<pdfrwt beam="2">  1        2 0.10382822E+00 0.87591789E+02</pdfrwt>
<totfact> 0.23783760E+06</totfact>
</mgrwt>
</event>
<event>
 6    2  0.9453093E+000  0.9603257E+02  0.7546771E-02  0.1288867E+00
          2   -1    0    0  502    0 -0.00000000000E+00  0.00000000000E+00  0.12097002675E+03  0.12097002675E+03  0.00000000000E+00 0. -1.
         21   -1    0    0  501  502  0.00000000000E+00 -0.00000000000E+00 -0.53468659569E+02  0.53468659569E+02  0.00000000000E+00 0. -1.
         24    2    1    2    0    0  0.26412134339E+02  0.46040937831E+02  0.10586911585E+02  0.96614371014E+02  0.80030526631E+02 0.  0.
        -11    1    3    3    0    0 -0.20727925850E+02  0.30100701124E+01 -0.17102098106E+02  0.27040510198E+02  0.00000000000E+00 0.  1.
         12    1    3    3    0    0  0.47140060190E+02  0.43030867718E+02  0.27689009691E+02  0.69573860816E+02  0.00000000000E+00 0. -1.
          1    1    1    2  501    0 -0.26412134339E+02 -0.46040937831E+02  0.56914455592E+02  0.77824315301E+02  0.00000000000E+00 0. -1.
<mgrwt>
<rscale>  1 0.96032567E+02</rscale>
<asrwt>0</asrwt>
<pdfrwt beam="1">  1       21 0.82259477E-02 0.96032567E+02</pdfrwt>
<pdfrwt beam="2">  1        2 0.18610773E-01 0.96032567E+02</pdfrwt>
<totfact> 0.40167031E+05</totfact>
</mgrwt>
</event>
<event>
 6    2  0.9453093E+000  0.8283177E+02  0.7546771E-02  0.1321202E+00
          2   -1    0    0  502    0 -0.00000000000E+00  0.00000000000E+00  0.19640495016E+04  0.19640495016E+04  0.00000000000E+00 0. -1.
         21   -1    0    0  501  502  0.00000000000E+00 -0.00000000000E+00 -0.14269012685E+01  0.14269012685E+01  0.00000000000E+00 0. -1.
         24    2    1    2    0    0 -0.15084656716E+02 -0.16889677701E+02  0.16072763871E+04  0.16094093595E+04  0.79676182077E+02 0.  0.
        -13    1    3    3    0    0  0.24957658552E+02  0.16935807142E+02  0.64894963654E+03  0.64965016513E+03  0.00000000000E+00 0.  1.
         14    1    3    3    0    0 -0.40042315268E+02 -0.33825484843E+02  0.95832675055E+03  0.95975919442E+03  0.00000000000E+00 0. -1.
          1    1    1    2  501    0  0.15084656716E+02  0.16889677701E+02  0.35534621328E+03  0.35606704337E+03  0.00000000000E+00 0. -1.
<mgrwt>
<rscale>  1 0.82831770E+02</rscale>
<asrwt>0</asrwt>
<pdfrwt beam="1">  1       21 0.21952484E-03 0.82831770E+02</pdfrwt>
<pdfrwt beam="2">  1        2 0.30215930E+00 0.82831770E+02</pdfrwt>
<totfact> 0.37772348E+06</totfact>
</mgrwt>
</event>
<event>
 6    2  0.9453093E+000  0.8332803E+02  0.7546771E-02  0.1319864E+00
          2   -1    0    0  502    0 -0.00000000000E+00  0.00000000000E+00  0.14493630727E+03  0.14493630727E+03  0.00000000000E+00 0. -1.
         21   -1    0    0  501  502  0.00000000000E+00 -0.00000000000E+00 -0.12236813870E+03  0.12236813870E+03  0.00000000000E+00 0. -1.
         24    2    1    2    0    0 -0.22381158356E+02 -0.12031246687E+02  0.13137334334E+03  0.15557158061E+03  0.79359272969E+02 0.  0.
        -13    1    3    3    0    0 -0.35194909454E+02  0.23700758232E+02  0.48647724990E+02  0.64552372063E+02  0.00000000000E+00 0.  1.
         14    1    3    3    0    0  0.12813751098E+02 -0.35732004919E+02  0.82725618351E+02  0.91019208546E+02  0.00000000000E+00 0. -1.
          1    1    1    2  501    0  0.22381158356E+02  0.12031246687E+02 -0.10880517477E+03  0.11173286536E+03  0.00000000000E+00 0. -1.
<mgrwt>
<rscale>  1 0.83328035E+02</rscale>
<asrwt>0</asrwt>
<pdfrwt beam="1">  1       21 0.18825868E-01 0.83328035E+02</pdfrwt>
<pdfrwt beam="2">  1        2 0.22297893E-01 0.83328035E+02</pdfrwt>
<totfact> 0.75755132E+04</totfact>
</mgrwt>
</event>
<event>
 6    2  0.9453093E+000  0.8031167E+02  0.7546771E-02  0.1328169E+00
         21   -1    0    0  501  502  0.00000000000E+00  0.00000000000E+00  0.36026770610E+01  0.36026770610E+01  0.00000000000E+00 0. -1.
          2   -1    0    0  502    0 -0.00000000000E+00 -0.00000000000E+00 -0.80608299867E+03  0.80608299867E+03  0.00000000000E+00 0. -1.
         24    2    1    2    0    0  0.20075020544E+02  0.53726596957E+01 -0.49210239540E+03  0.49861280806E+03  0.77576368071E+02 0.  0.
        -11    1    3    3    0    0 -0.66793590273E+01 -0.32892890786E+02 -0.19664137175E+03  0.19948530067E+03  0.00000000000E+00 0.  1.
         12    1    3    3    0    0  0.26754379571E+02  0.38265550481E+02 -0.29546102365E+03  0.29912750739E+03  0.00000000000E+00 0. -1.
          1    1    1    2  501    0 -0.20075020544E+02 -0.53726596957E+01 -0.31037792621E+03  0.31107286767E+03  0.00000000000E+00 0. -1.
<mgrwt>
<rscale>  1 0.80311673E+02</rscale>
<asrwt>0</asrwt>
<pdfrwt beam="1">  1       21 0.55425783E-03 0.80311673E+02</pdfrwt>
<pdfrwt beam="2">  1        2 0.12401281E+00 0.80311673E+02</pdfrwt>
<totfact> 0.38619772E+06</totfact>
</mgrwt>
</event>
<event>
 6    2  0.9453093E+000  0.7776390E+02  0.7546771E-02  0.1335520E+00
         21   -1    0    0  501  502  0.00000000000E+00  0.00000000000E+00  0.23794711831E+01  0.23794711831E+01  0.00000000000E+00 0.  1.
          2   -1    0    0  502    0 -0.00000000000E+00 -0.00000000000E+00 -0.12684008014E+04  0.12684008014E+04  0.00000000000E+00 0. -1.
         24    2    1    2    0    0 -0.15902941827E+02 -0.17775147865E+02 -0.11308699134E+04  0.11335404645E+04  0.74015973322E+02 0.  0.
        -11    1    3    3    0    0 -0.12942897645E+01 -0.27347825911E+02 -0.14773892005E+03  0.15025434192E+03  0.00000000000E+00 0.  1.
         12    1    3    3    0    0 -0.14608652062E+02  0.95726780457E+01 -0.98313099334E+03  0.98328612262E+03  0.00000000000E+00 0. -1.
          1    1    1    2  501    0  0.15902941827E+02  0.17775147865E+02 -0.13515141682E+03  0.13723980803E+03  0.00000000000E+00 0. -1.
<mgrwt>
<rscale>  1 0.77763897E+02</rscale>
<asrwt>0</asrwt>
<pdfrwt beam="1">  1       21 0.36607269E-03 0.77763897E+02</pdfrwt>
<pdfrwt beam="2">  1        2 0.19513848E+00 0.77763897E+02</pdfrwt>
<totfact> 0.39086419E+06</totfact>
</mgrwt>
</event>
<event>
 6    2  0.9453093E+000  0.8848195E+02  0.7546771E-02  0.1306570E+00
          2   -1    0    0  502    0 -0.00000000000E+00  0.00000000000E+00  0.57402238039E+03  0.57402238039E+03  0.00000000000E+00 0. -1.
         21   -1    0    0  501  502  0.00000000000E+00 -0.00000000000E+00 -0.65003851227E+01  0.65003851227E+01  0.00000000000E+00 0. -1.
         24    2    1    2    0    0  0.50571458357E+00  0.33230798414E+02  0.43388571685E+03  0.44281584260E+03  0.82003130765E+02 0.  0.
        -13    1    3    3    0    0 -0.22971604278E+02 -0.17624128922E+02  0.94402025476E+02  0.98742325967E+02  0.00000000000E+00 0.  1.
         14    1    3    3    0    0  0.23477318862E+02  0.50854927336E+02  0.33948369138E+03  0.34407351663E+03  0.00000000000E+00 0. -1.
          1    1    1    2  501    0 -0.50571458357E+00 -0.33230798414E+02  0.13363627842E+03  0.13770692292E+03  0.00000000000E+00 0. -1.
<mgrwt>
<rscale>  1 0.88481948E+02</rscale>
<asrwt>0</asrwt>
<pdfrwt beam="1">  1       21 0.10000597E-02 0.88481948E+02</pdfrwt>
<pdfrwt beam="2">  1        2 0.88311096E-01 0.88481948E+02</pdfrwt>
<totfact> 0.23215830E+06</totfact>
</mgrwt>
</event>
<event>
 6    2  0.9453093E+000  0.8537360E+02  0.7546771E-02  0.1314458E+00
          4   -1    0    0  502    0 -0.00000000000E+00  0.00000000000E+00  0.20493420418E+02  0.20493420418E+02  0.00000000000E+00 0. -1.
         21   -1    0    0  501  502  0.00000000000E+00 -0.00000000000E+00 -0.69751257842E+03  0.69751257842E+03  0.00000000000E+00 0. -1.
         24    2    1    2    0    0  0.19065025351E+02 -0.20267370289E+02 -0.70144817772E+02  0.11049410075E+03  0.80711891009E+02 0.  0.
        -11    1    3    3    0    0  0.14406640308E+02  0.31359615834E+01 -0.82372191494E+02  0.83681320923E+02  0.00000000000E+00 0.  1.
         12    1    3    3    0    0  0.46583850431E+01 -0.23403331872E+02  0.12227373721E+02  0.26812779827E+02  0.00000000000E+00 0. -1.
          3    1    1    2  501    0 -0.19065025351E+02  0.20267370289E+02 -0.60687434023E+03  0.60751189809E+03  0.00000000000E+00 0. -1.
<mgrwt>
<rscale>  1 0.85373596E+02</rscale>
<asrwt>0</asrwt>
<pdfrwt beam="1">  1       21 0.10730962E+00 0.85373596E+02</pdfrwt>
<pdfrwt beam="2">  1        4 0.31528342E-02 0.85373596E+02</pdfrwt>
<totfact> 0.13800056E+04</totfact>
</mgrwt>
</event>
<event>
 6    2  0.9453093E+000  0.8018620E+02  0.7546771E-02  0.1328524E+00
          2   -1    0    0  502    0 -0.00000000000E+00  0.00000000000E+00  0.18894310448E+04  0.18894310448E+04  0.00000000000E+00 0. -1.
         21   -1    0    0  501  502  0.00000000000E+00 -0.00000000000E+00 -0.19545514251E+01  0.19545514251E+01  0.00000000000E+00 0. -1.
         24    2    1    2    0    0 -0.23956733735E+02 -0.18928239213E+02  0.16510165104E+04  0.16529625964E+04  0.74145963601E+02 0.  0.
        -13    1    3    3    0    0  0.24658836894E+02 -0.18237211193E+02  0.76283103812E+03  0.76344734385E+03  0.00000000000E+00 0.  1.
         14    1    3    3    0    0 -0.48615570630E+02 -0.69102802069E+00  0.88818547232E+03  0.88951525252E+03  0.00000000000E+00 0. -1.
          1    1    1    2  501    0  0.23956733735E+02  0.18928239213E+02  0.23645998298E+03  0.23842299990E+03  0.00000000000E+00 0. -1.
<mgrwt>
<rscale>  1 0.80186204E+02</rscale>
<asrwt>0</asrwt>
<pdfrwt beam="1">  1       21 0.30070173E-03 0.80186204E+02</pdfrwt>
<pdfrwt beam="2">  1        2 0.29068024E+00 0.80186204E+02</pdfrwt>
<totfact> 0.25574032E+06</totfact>
</mgrwt>
</event>
<event>
 6    2  0.9453093E+000  0.1295413E+03  0.7546771E-02  0.1228138E+00
          2   -1    0    0  502    0 -0.00000000000E+00  0.00000000000E+00  0.25790891951E+04  0.25790891951E+04  0.00000000000E+00 0. -1.
         21   -1    0    0  501  502  0.00000000000E+00 -0.00000000000E+00 -0.56422354849E+01  0.56422354849E+01  0.00000000000E+00 0. -1.
         24    2    1    2    0    0 -0.48783945639E+02 -0.88820795616E+02  0.18031843335E+04  0.18078314883E+04  0.80696607919E+02 0.  0.
        -11    1    3    3    0    0  0.18610248404E+02 -0.19634551566E+01  0.19592494685E+03  0.19681661845E+03  0.00000000000E+00 0.  1.
         12    1    3    3    0    0 -0.67394194044E+02 -0.86857340459E+02  0.16072593867E+04  0.16110148699E+04  0.00000000000E+00 0. -1.
          1    1    1    2  501    0  0.48783945639E+02  0.88820795616E+02  0.77026262607E+03  0.77689994221E+03  0.00000000000E+00 0. -1.
<mgrwt>
<rscale>  1 0.12954130E+03</rscale>
<asrwt>0</asrwt>
<pdfrwt beam="1">  1       21 0.86803829E-03 0.12954130E+03</pdfrwt>
<pdfrwt beam="2">  1        2 0.39678201E+00 0.12954130E+03</pdfrwt>
<totfact> 0.22463840E+05</totfact>
</mgrwt>
</event>
<event>
 6    2  0.9453093E+000  0.8527443E+02  0.7546771E-02  0.1314716E+00
         21   -1    0    0  501  502  0.00000000000E+00  0.00000000000E+00  0.26191251370E+01  0.26191251370E+01  0.00000000000E+00 0.  1.
          2   -1    0    0  502    0 -0.00000000000E+00 -0.00000000000E+00 -0.18009025831E+04  0.18009025831E+04  0.00000000000E+00 0. -1.
         24    2    1    2    0    0  0.78444162226E+01  0.30270902284E+02 -0.16378906728E+04  0.16401090162E+04  0.79333892747E+02 0.  0.
        -11    1    3    3    0    0  0.31623106123E+02  0.10513212299E+02 -0.29729739319E+03  0.29915930283E+03  0.00000000000E+00 0.  1.
         12    1    3    3    0    0 -0.23778689900E+02  0.19757689985E+02 -0.13405932797E+04  0.13409497134E+04  0.00000000000E+00 0. -1.
          1    1    1    2  501    0 -0.78444162226E+01 -0.30270902284E+02 -0.16039278516E+03  0.16341269204E+03  0.00000000000E+00 0. -1.
<mgrwt>
<rscale>  1 0.85274433E+02</rscale>
<asrwt>0</asrwt>
<pdfrwt beam="1">  1       21 0.40294193E-03 0.85274433E+02</pdfrwt>
<pdfrwt beam="2">  1        2 0.27706221E+00 0.85274433E+02</pdfrwt>
<totfact> 0.18253414E+06</totfact>
</mgrwt>
</event>
<event>
 6    2  0.9453093E+000  0.8887681E+02  0.7546771E-02  0.1305595E+00
          2   -1    0    0  502    0 -0.00000000000E+00  0.00000000000E+00  0.38506828440E+03  0.38506828440E+03  0.00000000000E+00 0. -1.
         21   -1    0    0  501  502  0.00000000000E+00 -0.00000000000E+00 -0.11727074017E+02  0.11727074017E+02  0.00000000000E+00 0.  1.
         24    2    1    2    0    0  0.35332275559E+02 -0.16418909926E+02  0.30946612904E+03  0.32197573321E+03  0.79882022097E+02 0.  0.
        -11    1    3    3    0    0  0.41095090677E+02 -0.32187612091E+02  0.10949722592E+03  0.12130330306E+03  0.00000000000E+00 0.  1.
         12    1    3    3    0    0 -0.57628151182E+01  0.15768702166E+02  0.19996890313E+03  0.20067243015E+03  0.00000000000E+00 0. -1.
          1    1    1    2  501    0 -0.35332275559E+02  0.16418909926E+02  0.63875081335E+02  0.74819625198E+02  0.00000000000E+00 0. -1.
<mgrwt>
<rscale>  1 0.88876812E+02</rscale>
<asrwt>0</asrwt>
<pdfrwt beam="1">  1       21 0.18041655E-02 0.88876812E+02</pdfrwt>
<pdfrwt beam="2">  1        2 0.59241265E-01 0.88876812E+02</pdfrwt>
<totfact> 0.14055035E+06</totfact>
</mgrwt>
</event>
<event>
 6    2  0.9453093E+000  0.8785554E+02  0.7546771E-02  0.1308129E+00
         21   -1    0    0  501  502  0.00000000000E+00  0.00000000000E+00  0.58378097356E+02  0.58378097356E+02  0.00000000000E+00 0. -1.
          4   -1    0    0  502    0 -0.00000000000E+00 -0.00000000000E+00 -0.67194085827E+02  0.67194085827E+02  0.00000000000E+00 0. -1.
         24    2    1    2    0    0  0.19421034601E+02  0.23627235550E+02  0.11862881441E+02  0.88652831813E+02  0.82360025423E+02 0.  0.
        -11    1    3    3    0    0 -0.22470647851E+02  0.26660218919E+02 -0.15883475676E+02  0.38314254360E+02  0.00000000000E+00 0.  1.
         12    1    3    3    0    0  0.41891682452E+02 -0.30329833693E+01  0.27746357117E+02  0.50338577453E+02  0.00000000000E+00 0. -1.
          3    1    1    2  501    0 -0.19421034601E+02 -0.23627235550E+02 -0.20678869912E+02  0.36919351370E+02  0.00000000000E+00 0. -1.
<mgrwt>
<rscale>  1 0.87855544E+02</rscale>
<asrwt>0</asrwt>
<pdfrwt beam="1">  1       21 0.89812457E-02 0.87855544E+02</pdfrwt>
<pdfrwt beam="2">  1        4 0.10337552E-01 0.87855544E+02</pdfrwt>
<totfact> 0.26057653E+05</totfact>
</mgrwt>
</event>
<event>
 6    2  0.9453093E+000  0.1181508E+03  0.7546771E-02  0.1246179E+00
         21   -1    0    0  501  502  0.00000000000E+00  0.00000000000E+00  0.33851357800E+02  0.33851357800E+02  0.00000000000E+00 0. -1.
          2   -1    0    0  502    0 -0.00000000000E+00 -0.00000000000E+00 -0.42588863042E+03  0.42588863042E+03  0.00000000000E+00 0. -1.
         24    2    1    2    0    0  0.76269074860E+02 -0.40098672992E+02 -0.33793886081E+03  0.35799760022E+03  0.80837693954E+02 0.  0.
        -11    1    3    3    0    0  0.45878769837E+02 -0.15844553072E+02 -0.59173981601E+02  0.76534119726E+02  0.00000000000E+00 0.  1.
         12    1    3    3    0    0  0.30390305023E+02 -0.24254119920E+02 -0.27876487921E+03  0.28146348050E+03  0.00000000000E+00 0. -1.
          1    1    1    2  501    0 -0.76269074860E+02  0.40098672992E+02 -0.54098411815E+02  0.10174238800E+03  0.00000000000E+00 0. -1.
<mgrwt>
<rscale>  1 0.11815079E+03</rscale>
<asrwt>0</asrwt>
<pdfrwt beam="1">  1       21 0.52079011E-02 0.11815079E+03</pdfrwt>
<pdfrwt beam="2">  1        2 0.65521329E-01 0.11815079E+03</pdfrwt>
<totfact> 0.22867933E+05</totfact>
</mgrwt>
</event>
<event>
 6    2  0.9453093E+000  0.9421198E+02  0.7546771E-02  0.1292961E+00
         21   -1    0    0  501  502  0.00000000000E+00  0.00000000000E+00  0.38718761068E+02  0.38718761068E+02  0.00000000000E+00 0. -1.
          2   -1    0    0  502    0 -0.00000000000E+00 -0.00000000000E+00 -0.21461056310E+03  0.21461056310E+03  0.00000000000E+00 0. -1.
         24    2    1    2    0    0  0.29763475682E+02 -0.35400680996E+02 -0.18367611015E+03  0.20642870421E+03  0.82078156547E+02 0.  0.
        -13    1    3    3    0    0 -0.31995464158E+01 -0.19158414841E+01  0.81335329238E+01  0.89477317618E+01  0.00000000000E+00 0.  1.
         14    1    3    3    0    0  0.32963022098E+02 -0.33484839512E+02 -0.19180964307E+03  0.19748097245E+03  0.00000000000E+00 0. -1.
          1    1    1    2  501    0 -0.29763475682E+02  0.35400680996E+02  0.77843081174E+01  0.46900619959E+02  0.00000000000E+00 0. -1.
<mgrwt>
<rscale>  1 0.94211976E+02</rscale>
<asrwt>0</asrwt>
<pdfrwt beam="1">  1       21 0.59567325E-02 0.94211976E+02</pdfrwt>
<pdfrwt beam="2">  1        2 0.33017010E-01 0.94211976E+02</pdfrwt>
<totfact> 0.37073639E+05</totfact>
</mgrwt>
</event>
<event>
 6    2  0.9453093E+000  0.1996845E+03  0.7546771E-02  0.1150005E+00
          2   -1    0    0  502    0 -0.00000000000E+00  0.00000000000E+00  0.12543754287E+04  0.12543754287E+04  0.00000000000E+00 0. -1.
         21   -1    0    0  501  502  0.00000000000E+00 -0.00000000000E+00 -0.29977655955E+02  0.29977655955E+02  0.00000000000E+00 0. -1.
         24    2    1    2    0    0 -0.18286077860E+03 -0.40900309814E+01  0.74343350072E+03  0.76978392150E+03  0.80119430235E+02 0.  0.
        -13    1    3    3    0    0 -0.21118230421E+02 -0.26038452132E+02  0.18380730118E+03  0.18683978327E+03  0.00000000000E+00 0.  1.
         14    1    3    3    0    0 -0.16174254818E+03  0.21948421151E+02  0.55962619954E+03  0.58294413823E+03  0.00000000000E+00 0. -1.
          1    1    1    2  501    0  0.18286077860E+03  0.40900309814E+01  0.48096427198E+03  0.51456916312E+03  0.00000000000E+00 0. -1.
<mgrwt>
<rscale>  1 0.19968454E+03</rscale>
<asrwt>0</asrwt>
<pdfrwt beam="1">  1       21 0.46119481E-02 0.19968454E+03</pdfrwt>
<pdfrwt beam="2">  1        2 0.19298079E+00 0.19968454E+03</pdfrwt>
<totfact> 0.73383524E+04</totfact>
</mgrwt>
</event>
<event>
 6    2  0.9453093E+000  0.7999113E+02  0.7546771E-02  0.1329077E+00
          2   -1    0    0  502    0 -0.00000000000E+00  0.00000000000E+00  0.24570703467E+02  0.24570703467E+02  0.00000000000E+00 0. -1.
         21   -1    0    0  501  502  0.00000000000E+00 -0.00000000000E+00 -0.40876129121E+03  0.40876129121E+03  0.00000000000E+00 0. -1.
         24    2    1    2    0    0  0.13229415763E+02 -0.18946796528E+02 -0.41971799143E+02  0.90333892918E+02  0.76580557234E+02 0.  0.
        -11    1    3    3    0    0  0.34601599375E+02 -0.20421010328E+02 -0.52785019919E+02  0.66336616359E+02  0.00000000000E+00 0.  1.
         12    1    3    3    0    0 -0.21372183613E+02  0.14742137999E+01  0.10813220776E+02  0.23997276559E+02  0.00000000000E+00 0. -1.
          1    1    1    2  501    0 -0.13229415763E+02  0.18946796528E+02 -0.34221878859E+03  0.34299810175E+03  0.00000000000E+00 0. -1.
<mgrwt>
<rscale>  1 0.79991126E+02</rscale>
<asrwt>0</asrwt>
<pdfrwt beam="1">  1       21 0.62886346E-01 0.79991126E+02</pdfrwt>
<pdfrwt beam="2">  1        2 0.37801086E-02 0.79991126E+02</pdfrwt>
<totfact> 0.62417873E+04</totfact>
</mgrwt>
</event>
<event>
 6    2  0.9453093E+000  0.8548409E+02  0.7546771E-02  0.1314171E+00
          2   -1    0    0  502    0 -0.00000000000E+00  0.00000000000E+00  0.65763869247E+03  0.65763869247E+03  0.00000000000E+00 0. -1.
         21   -1    0    0  501  502  0.00000000000E+00 -0.00000000000E+00 -0.85754143946E+01  0.85754143946E+01  0.00000000000E+00 0. -1.
         24    2    1    2    0    0 -0.24385211383E+02 -0.28193305693E+01  0.62822518803E+03  0.63401452370E+03  0.81883711644E+02 0.  0.
        -11    1    3    3    0    0  0.14683657052E+02  0.17168761180E+02  0.60246549848E+02  0.64343009826E+02  0.00000000000E+00 0.  1.
         12    1    3    3    0    0 -0.39068868435E+02 -0.19988091749E+02  0.56797863818E+03  0.56967151387E+03  0.00000000000E+00 0. -1.
          1    1    1    2  501    0  0.24385211383E+02  0.28193305693E+01  0.20838090047E+02  0.32199583163E+02  0.00000000000E+00 0. -1.
<mgrwt>
<rscale>  1 0.85484089E+02</rscale>
<asrwt>0</asrwt>
<pdfrwt beam="1">  1       21 0.13192950E-02 0.85484089E+02</pdfrwt>
<pdfrwt beam="2">  1        2 0.10117514E+00 0.85484089E+02</pdfrwt>
<totfact> 0.12856613E+06</totfact>
</mgrwt>
</event>
<event>
 6    2  0.9453093E+000  0.8354634E+02  0.7546771E-02  0.1319278E+00
          2   -1    0    0  502    0 -0.00000000000E+00  0.00000000000E+00  0.53904253997E+01  0.53904253997E+01  0.00000000000E+00 0. -1.
         21   -1    0    0  501  502  0.00000000000E+00 -0.00000000000E+00 -0.54417841961E+03  0.54417841961E+03  0.00000000000E+00 0. -1.
         24    2    1    2    0    0 -0.19714385037E+02  0.76090784930E+01 -0.36164691491E+03  0.37117176816E+03  0.80829668823E+02 0.  0.
        -13    1    3    3    0    0  0.12765215272E+02 -0.28622771710E+02 -0.19727376980E+03  0.19974772597E+03  0.00000000000E+00 0.  1.
         14    1    3    3    0    0 -0.32479600309E+02  0.36231850203E+02 -0.16437314511E+03  0.17142404218E+03  0.00000000000E+00 0. -1.
          1    1    1    2  501    0  0.19714385037E+02 -0.76090784930E+01 -0.17714107930E+03  0.17839707685E+03  0.00000000000E+00 0. -1.
<mgrwt>
<rscale>  1 0.83546337E+02</rscale>
<asrwt>0</asrwt>
<pdfrwt beam="1">  1       21 0.83719756E-01 0.83546337E+02</pdfrwt>
<pdfrwt beam="2">  1        2 0.82929623E-03 0.83546337E+02</pdfrwt>
<totfact> 0.25920930E+05</totfact>
</mgrwt>
</event>
<event>
 6    2  0.9453093E+000  0.8611873E+02  0.7546771E-02  0.1312533E+00
         21   -1    0    0  501  502  0.00000000000E+00  0.00000000000E+00  0.76383593246E+01  0.76383593246E+01  0.00000000000E+00 0. -1.
          2   -1    0    0  502    0 -0.00000000000E+00 -0.00000000000E+00 -0.61752090264E+03  0.61752090264E+03  0.00000000000E+00 0. -1.
         24    2    1    2    0    0 -0.21533684180E+01 -0.24749907397E+02 -0.57972499861E+03  0.58608660638E+03  0.82457511811E+02 0.  0.
        -11    1    3    3    0    0  0.13349358627E+02 -0.26299444647E+02 -0.67952901341E+02  0.74077411977E+02  0.00000000000E+00 0.  1.
         12    1    3    3    0    0 -0.15502727045E+02  0.15495372500E+01 -0.51177209727E+03  0.51200919440E+03  0.00000000000E+00 0. -1.
          1    1    1    2  501    0  0.21533684180E+01  0.24749907397E+02 -0.30157544706E+02  0.39072655584E+02  0.00000000000E+00 0. -1.
<mgrwt>
<rscale>  1 0.86118733E+02</rscale>
<asrwt>0</asrwt>
<pdfrwt beam="1">  1       21 0.11751327E-02 0.86118733E+02</pdfrwt>
<pdfrwt beam="2">  1        2 0.95003178E-01 0.86118733E+02</pdfrwt>
<totfact> 0.16573537E+06</totfact>
</mgrwt>
</event>
<event>
 6    2  0.9453093E+000  0.7430255E+02  0.7546771E-02  0.1346045E+00
         21   -1    0    0  501  502  0.00000000000E+00  0.00000000000E+00  0.80105647778E+01  0.80105647778E+01  0.00000000000E+00 0. -1.
          2   -1    0    0  502    0 -0.00000000000E+00 -0.00000000000E+00 -0.50752421352E+03  0.50752421352E+03  0.00000000000E+00 0. -1.
         24    2    1    2    0    0  0.26830996444E+02 -0.42684946156E+02 -0.34830958028E+03  0.35614664411E+03  0.54579862603E+02 0.  0.
        -11    1    3    3    0    0  0.18763028680E+02 -0.38036939997E+01 -0.31524394482E+02  0.36882336975E+02  0.00000000000E+00 0.  1.
         12    1    3    3    0    0  0.80679677633E+01 -0.38881252156E+02 -0.31678518579E+03  0.31926430714E+03  0.00000000000E+00 0. -1.
          1    1    1    2  501    0 -0.26830996444E+02  0.42684946156E+02 -0.15120406847E+03  0.15938813419E+03  0.00000000000E+00 0. -1.
<mgrwt>
<rscale>  1 0.74302546E+02</rscale>
<asrwt>0</asrwt>
<pdfrwt beam="1">  1       21 0.12323941E-02 0.74302546E+02</pdfrwt>
<pdfrwt beam="2">  1        2 0.78080681E-01 0.74302546E+02</pdfrwt>
<totfact> 0.18761944E+06</totfact>
</mgrwt>
</event>
<event>
 6    2  0.9453093E+000  0.1130000E+03  0.7546771E-02  0.1255113E+00
          2   -1    0    0  502    0 -0.00000000000E+00  0.00000000000E+00  0.64575005643E+03  0.64575005643E+03  0.00000000000E+00 0. -1.
         21   -1    0    0  501  502  0.00000000000E+00 -0.00000000000E+00 -0.16659246944E+02  0.16659246944E+02  0.00000000000E+00 0. -1.
         24    2    1    2    0    0 -0.56281586034E+02  0.54271323552E+02  0.23650598118E+03  0.26211461080E+03  0.81584291223E+02 0.  0.
        -11    1    3    3    0    0 -0.71362221816E+01  0.62662806761E+02  0.13682564187E+03  0.15066124017E+03  0.00000000000E+00 0.  1.
         12    1    3    3    0    0 -0.49145363853E+02 -0.83914832082E+01  0.99680339318E+02  0.11145337063E+03  0.00000000000E+00 0. -1.
          1    1    1    2  501    0  0.56281586034E+02 -0.54271323552E+02  0.39258482831E+03  0.40029469257E+03  0.00000000000E+00 0. -1.
<mgrwt>
<rscale>  1 0.11299996E+03</rscale>
<asrwt>0</asrwt>
<pdfrwt beam="1">  1       21 0.25629616E-02 0.11299996E+03</pdfrwt>
<pdfrwt beam="2">  1        2 0.99346143E-01 0.11299996E+03</pdfrwt>
<totfact> 0.46445022E+05</totfact>
</mgrwt>
</event>
<event>
 6    2  0.9453093E+000  0.7959404E+02  0.7546771E-02  0.1330207E+00
         -3   -1    0    0    0  501 -0.00000000000E+00  0.00000000000E+00  0.13037927911E+04  0.13037927911E+04  0.00000000000E+00 0.  1.
         21   -1    0    0  501  502  0.00000000000E+00 -0.00000000000E+00 -0.61843145078E+01  0.61843145078E+01  0.00000000000E+00 0.  1.
         24    2    1    2    0    0  0.21334980116E+02 -0.52450063801E+00  0.12795427519E+04  0.12820159382E+04  0.76679561477E+02 0.  0.
        -13    1    3    3    0    0 -0.12690132575E+02  0.18730043938E+02  0.93310249968E+03  0.93337673472E+03  0.00000000000E+00 0.  1.
         14    1    3    3    0    0  0.34025112691E+02 -0.19254544576E+02  0.34644025227E+03  0.34863920343E+03  0.00000000000E+00 0. -1.
         -4    1    1    2    0  502 -0.21334980116E+02  0.52450063801E+00  0.18065724602E+02  0.27961167408E+02  0.00000000000E+00 0.  1.
<mgrwt>
<rscale>  1 0.79594043E+02</rscale>
<asrwt>0</asrwt>
<pdfrwt beam="1">  1       21 0.95143404E-03 0.79594043E+02</pdfrwt>
<pdfrwt beam="2">  1       -3 0.20058329E+00 0.79594043E+02</pdfrwt>
<totfact> 0.29622725E+04</totfact>
</mgrwt>
</event>
<event>
 6    2  0.9453093E+000  0.9318203E+02  0.7546771E-02  0.1295324E+00
         21   -1    0    0  501  502  0.00000000000E+00  0.00000000000E+00  0.25007842005E+02  0.25007842005E+02  0.00000000000E+00 0. -1.
         -3   -1    0    0    0  501 -0.00000000000E+00 -0.00000000000E+00 -0.19814321165E+03  0.19814321165E+03  0.00000000000E+00 0.  1.
         24    2    1    2    0    0  0.33645079786E+02  0.28279565480E+02 -0.13970840694E+03  0.16793251462E+03  0.82165474983E+02 0.  0.
        -13    1    3    3    0    0 -0.18056325907E+01  0.62065609603E+01 -0.12265286092E+03  0.12282306786E+03  0.00000000000E+00 0.  1.
         14    1    3    3    0    0  0.35450712376E+02  0.22073004520E+02 -0.17055546021E+02  0.45109446756E+02  0.00000000000E+00 0. -1.
         -4    1    1    2    0  502 -0.33645079786E+02 -0.28279565480E+02 -0.33426962706E+02  0.55218539036E+02  0.00000000000E+00 0.  1.
<mgrwt>
<rscale>  1 0.93182029E+02</rscale>
<asrwt>0</asrwt>
<pdfrwt beam="1">  1       21 0.38473603E-02 0.93182029E+02</pdfrwt>
<pdfrwt beam="2">  1       -3 0.30483571E-01 0.93182029E+02</pdfrwt>
<totfact> 0.19546632E+05</totfact>
</mgrwt>
</event>
<event>
 6    2  0.9453093E+000  0.8447670E+02  0.7546771E-02  0.1316807E+00
         21   -1    0    0  501  502  0.00000000000E+00  0.00000000000E+00  0.61218749529E+02  0.61218749529E+02  0.00000000000E+00 0. -1.
          2   -1    0    0  502    0 -0.00000000000E+00 -0.00000000000E+00 -0.46308632669E+02  0.46308632669E+02  0.00000000000E+00 0. -1.
         24    2    1    2    0    0 -0.16766056800E+02 -0.11407438429E+02  0.41688385589E+01  0.84579498381E+02  0.82006597414E+02 0.  0.
        -11    1    3    3    0    0  0.63903365589E+01  0.33396383549E+02  0.39808125688E+00  0.34004607102E+02  0.00000000000E+00 0.  1.
         12    1    3    3    0    0 -0.23156393359E+02 -0.44803821978E+02  0.37707573020E+01  0.50574891279E+02  0.00000000000E+00 0. -1.
          1    1    1    2  501    0  0.16766056800E+02  0.11407438429E+02  0.10741278301E+02  0.22947883817E+02  0.00000000000E+00 0. -1.
<mgrwt>
<rscale>  1 0.84476697E+02</rscale>
<asrwt>0</asrwt>
<pdfrwt beam="1">  1       21 0.94182691E-02 0.84476697E+02</pdfrwt>
<pdfrwt beam="2">  1        2 0.71244051E-02 0.84476697E+02</pdfrwt>
<totfact> 0.98675814E+05</totfact>
</mgrwt>
</event>
<event>
 6    2  0.9453093E+000  0.9753702E+02  0.7546771E-02  0.1285562E+00
         21   -1    0    0  501  502  0.00000000000E+00  0.00000000000E+00  0.21705414013E+02  0.21705414013E+02  0.00000000000E+00 0.  1.
         -1   -1    0    0    0  501 -0.00000000000E+00 -0.00000000000E+00 -0.38476431846E+03  0.38476431846E+03  0.00000000000E+00 0.  1.
         24    2    1    2    0    0 -0.42158996157E+02  0.46445281228E+02 -0.30776770928E+03  0.32285357753E+03  0.74692198655E+02 0.  0.
        -13    1    3    3    0    0 -0.63580232767E+02  0.35480694351E+02 -0.21399892128E+03  0.22604615453E+03  0.00000000000E+00 0.  1.
         14    1    3    3    0    0  0.21421236610E+02  0.10964586877E+02 -0.93768788005E+02  0.96807422997E+02  0.00000000000E+00 0. -1.
         -2    1    1    2    0  502  0.42158996157E+02 -0.46445281228E+02 -0.55291195167E+02  0.83616154948E+02  0.00000000000E+00 0.  1.
<mgrwt>
<rscale>  1 0.97537017E+02</rscale>
<asrwt>0</asrwt>
<pdfrwt beam="1">  1       21 0.33392949E-02 0.97537017E+02</pdfrwt>
<pdfrwt beam="2">  1       -1 0.59194502E-01 0.97537017E+02</pdfrwt>
<totfact> 0.14120875E+05</totfact>
</mgrwt>
</event>
<event>
 6    2  0.9453093E+000  0.8841877E+02  0.7546771E-02  0.1306727E+00
          2   -1    0    0  502    0 -0.00000000000E+00  0.00000000000E+00  0.27772489503E+03  0.27772489503E+03  0.00000000000E+00 0. -1.
         21   -1    0    0  501  502  0.00000000000E+00 -0.00000000000E+00 -0.28739532759E+02  0.28739532759E+02  0.00000000000E+00 0. -1.
         24    2    1    2    0    0 -0.34527972068E+02 -0.39996211438E+01  0.25614464225E+03  0.27097593508E+03  0.81300072662E+02 0.  0.
        -13    1    3    3    0    0  0.26709551604E+02 -0.10610692667E+01  0.66652152477E+02  0.71812502009E+02  0.00000000000E+00 0.  1.
         14    1    3    3    0    0 -0.61237523672E+02 -0.29385518771E+01  0.18949248977E+03  0.19916343307E+03  0.00000000000E+00 0. -1.
          1    1    1    2  501    0  0.34527972068E+02  0.39996211438E+01 -0.71592799844E+01  0.35488492703E+02  0.00000000000E+00 0. -1.
<mgrwt>
<rscale>  1 0.88418774E+02</rscale>
<asrwt>0</asrwt>
<pdfrwt beam="1">  1       21 0.44214668E-02 0.88418774E+02</pdfrwt>
<pdfrwt beam="2">  1        2 0.42726905E-01 0.88418774E+02</pdfrwt>
<totfact> 0.46209320E+05</totfact>
</mgrwt>
</event>
<event>
 6    2  0.9453093E+000  0.8313514E+02  0.7546771E-02  0.1320383E+00
         -3   -1    0    0    0  501 -0.00000000000E+00  0.00000000000E+00  0.64063102442E+02  0.64063102442E+02  0.00000000000E+00 0.  1.
         21   -1    0    0  501  502  0.00000000000E+00 -0.00000000000E+00 -0.43025040411E+02  0.43025040411E+02  0.00000000000E+00 0.  1.
         24    2    1    2    0    0  0.66560148302E+01  0.20417870949E+02  0.20408694829E+02  0.85603541610E+02  0.80313507731E+02 0.  0.
        -11    1    3    3    0    0  0.14729462198E+02  0.48070240066E+02  0.25463053202E+02  0.56356651027E+02  0.00000000000E+00 0.  1.
         12    1    3    3    0    0 -0.80734473679E+01 -0.27652369117E+02 -0.50543583733E+01  0.29246890583E+02  0.00000000000E+00 0. -1.
         -4    1    1    2    0  502 -0.66560148302E+01 -0.20417870949E+02  0.62936720241E+00  0.21484601243E+02  0.00000000000E+00 0.  1.
<mgrwt>
<rscale>  1 0.83135140E+02</rscale>
<asrwt>0</asrwt>
<pdfrwt beam="1">  1       21 0.66192370E-02 0.83135140E+02</pdfrwt>
<pdfrwt beam="2">  1       -3 0.98558619E-02 0.83135140E+02</pdfrwt>
<totfact> 0.54353949E+05</totfact>
</mgrwt>
</event>
<event>
 6    2  0.1016412E+001  0.8099620E+02  0.7546771E-02  0.1326248E+00
         -3   -1    0    0    0  501 -0.00000000000E+00  0.00000000000E+00  0.92866979060E+02  0.92866979060E+02  0.00000000000E+00 0.  1.
         21   -1    0    0  501  502  0.00000000000E+00 -0.00000000000E+00 -0.57801191178E+02  0.57801191178E+02  0.00000000000E+00 0.  1.
         24    2    1    2    0    0 -0.15244616908E+02  0.15120015333E+02  0.71721673914E+02  0.10818679562E+03  0.78098470088E+02 0.  0.
        -11    1    3    3    0    0 -0.34130644253E+02  0.10856134112E+02  0.79598061994E+02  0.87284637814E+02  0.00000000000E+00 0.  1.
         12    1    3    3    0    0  0.18886027345E+02  0.42638812211E+01 -0.78763880808E+01  0.20902157811E+02  0.00000000000E+00 0. -1.
         -4    1    1    2    0  502  0.15244616908E+02 -0.15120015333E+02 -0.36655886031E+02  0.42481374614E+02  0.00000000000E+00 0.  1.
<mgrwt>
<rscale>  1 0.80996199E+02</rscale>
<asrwt>0</asrwt>
<pdfrwt beam="1">  1       21 0.88924910E-02 0.80996199E+02</pdfrwt>
<pdfrwt beam="2">  1       -3 0.14287228E-01 0.80996199E+02</pdfrwt>
<totfact> 0.17719008E+05</totfact>
</mgrwt>
</event>
<event>
 6    2  0.9453093E+000  0.8366867E+02  0.7546771E-02  0.1318951E+00
         21   -1    0    0  501  502  0.00000000000E+00  0.00000000000E+00  0.21724114542E+01  0.21724114542E+01  0.00000000000E+00 0. -1.
          2   -1    0    0  502    0 -0.00000000000E+00 -0.00000000000E+00 -0.15383904996E+04  0.15383904996E+04  0.00000000000E+00 0. -1.
         24    2    1    2    0    0  0.41370870640E+01 -0.21883823378E+02 -0.14032829642E+04  0.14057750615E+04  0.80650038087E+02 0.  0.
        -11    1    3    3    0    0 -0.57533725220E+01  0.14959996758E+02 -0.64948495983E+02  0.66897009864E+02  0.00000000000E+00 0.  1.
         12    1    3    3    0    0  0.98904595861E+01 -0.36843820137E+02 -0.13383344682E+04  0.13388780516E+04  0.00000000000E+00 0. -1.
          1    1    1    2  501    0 -0.41370870640E+01  0.21883823378E+02 -0.13293512396E+03  0.13478784959E+03  0.00000000000E+00 0. -1.
<mgrwt>
<rscale>  1 0.83668667E+02</rscale>
<asrwt>0</asrwt>
<pdfrwt beam="1">  1       21 0.33421630E-03 0.83668667E+02</pdfrwt>
<pdfrwt beam="2">  1        2 0.23667606E+00 0.83668667E+02</pdfrwt>
<totfact> 0.32793309E+06</totfact>
</mgrwt>
</event>
<event>
 6    2  0.9453093E+000  0.8786189E+02  0.7546771E-02  0.1308114E+00
         21   -1    0    0  501  502  0.00000000000E+00  0.00000000000E+00  0.12975060225E+02  0.12975060225E+02  0.00000000000E+00 0.  1.
          2   -1    0    0  502    0 -0.00000000000E+00 -0.00000000000E+00 -0.34246619627E+03  0.34246619627E+03  0.00000000000E+00 0. -1.
         24    2    1    2    0    0 -0.38928015595E+02  0.69262417757E+01 -0.17300539530E+03  0.19403756918E+03  0.78462400080E+02 0.  0.
        -11    1    3    3    0    0 -0.62549210801E+02 -0.16330219750E+01 -0.12871214958E+03  0.14311494675E+03  0.00000000000E+00 0.  1.
         12    1    3    3    0    0  0.23621195206E+02  0.85592637507E+01 -0.44293245721E+02  0.50922622433E+02  0.00000000000E+00 0. -1.
          1    1    1    2  501    0  0.38928015595E+02 -0.69262417757E+01 -0.15648574074E+03  0.16140368731E+03  0.00000000000E+00 0. -1.
<mgrwt>
<rscale>  1 0.87861888E+02</rscale>
<asrwt>0</asrwt>
<pdfrwt beam="1">  1       21 0.19961636E-02 0.87861888E+02</pdfrwt>
<pdfrwt beam="2">  1        2 0.52687093E-01 0.87861888E+02</pdfrwt>
<totfact> 0.13505852E+06</totfact>
</mgrwt>
</event>
<event>
 6    2  0.9453093E+000  0.9247800E+02  0.7546771E-02  0.1296959E+00
          2   -1    0    0  502    0 -0.00000000000E+00  0.00000000000E+00  0.26892739042E+03  0.26892739042E+03  0.00000000000E+00 0. -1.
         21   -1    0    0  501  502  0.00000000000E+00 -0.00000000000E+00 -0.28001207742E+02  0.28001207742E+02  0.00000000000E+00 0. -1.
         24    2    1    2    0    0  0.36774677319E+02  0.16865401672E+02  0.23917735431E+03  0.25643320254E+03  0.83158654905E+02 0.  0.
        -11    1    3    3    0    0  0.13664536173E+02  0.25160243683E+02  0.17832462278E+02  0.33730611052E+02  0.00000000000E+00 0.  1.
         12    1    3    3    0    0  0.23110141146E+02 -0.82948420117E+01  0.22134489203E+03  0.22270259149E+03  0.00000000000E+00 0. -1.
          1    1    1    2  501    0 -0.36774677319E+02 -0.16865401672E+02  0.17488283653E+01  0.40495395617E+02  0.00000000000E+00 0. -1.
<mgrwt>
<rscale>  1 0.92478000E+02</rscale>
<asrwt>0</asrwt>
<pdfrwt beam="1">  1       21 0.43078783E-02 0.92478000E+02</pdfrwt>
<pdfrwt beam="2">  1        2 0.41373443E-01 0.92478000E+02</pdfrwt>
<totfact> 0.50084207E+05</totfact>
</mgrwt>
</event>
<event>
 6    2  0.9453093E+000  0.8747001E+02  0.7546771E-02  0.1309097E+00
         21   -1    0    0  501  502  0.00000000000E+00  0.00000000000E+00  0.58647032406E+01  0.58647032406E+01  0.00000000000E+00 0.  1.
         -1   -1    0    0    0  501 -0.00000000000E+00 -0.00000000000E+00 -0.73249206157E+03  0.73249206157E+03  0.00000000000E+00 0.  1.
         24    2    1    2    0    0 -0.13957906599E+02  0.32388102163E+02 -0.61769753827E+03  0.62385996129E+03  0.80044926116E+02 0.  0.
        -11    1    3    3    0    0 -0.15507294106E+02  0.58820651422E+02 -0.41248944371E+03  0.41695070017E+03  0.00000000000E+00 0.  1.
         12    1    3    3    0    0  0.15493875069E+01 -0.26432549259E+02 -0.20520809457E+03  0.20690926112E+03  0.00000000000E+00 0. -1.
         -2    1    1    2    0  502  0.13957906599E+02 -0.32388102163E+02 -0.10892982005E+03  0.11449680352E+03  0.00000000000E+00 0.  1.
<mgrwt>
<rscale>  1 0.87470009E+02</rscale>
<asrwt>0</asrwt>
<pdfrwt beam="1">  1       21 0.90226249E-03 0.87470009E+02</pdfrwt>
<pdfrwt beam="2">  1       -1 0.11269103E+00 0.87470009E+02</pdfrwt>
<totfact> 0.30087581E+05</totfact>
</mgrwt>
</event>
<event>
 6    2  0.9453093E+000  0.8345388E+02  0.7546771E-02  0.1319526E+00
         21   -1    0    0  501  502  0.00000000000E+00  0.00000000000E+00  0.58744468962E+01  0.58744468962E+01  0.00000000000E+00 0.  1.
          2   -1    0    0  502    0 -0.00000000000E+00 -0.00000000000E+00 -0.63334492135E+03  0.63334492135E+03  0.00000000000E+00 0. -1.
         24    2    1    2    0    0 -0.11682636940E+02 -0.24469050136E+02 -0.56483367485E+03  0.57096552524E+03  0.78926119552E+02 0.  0.
        -11    1    3    3    0    0 -0.45056596710E+02 -0.19563556264E+02 -0.36772375173E+03  0.37099000960E+03  0.00000000000E+00 0.  1.
         12    1    3    3    0    0  0.33373959770E+02 -0.49054938721E+01 -0.19710992313E+03  0.19997551564E+03  0.00000000000E+00 0. -1.
          1    1    1    2  501    0  0.11682636940E+02  0.24469050136E+02 -0.62636799597E+02  0.68253843000E+02  0.00000000000E+00 0. -1.
<mgrwt>
<rscale>  1 0.83453884E+02</rscale>
<asrwt>0</asrwt>
<pdfrwt beam="1">  1       21 0.90376149E-03 0.83453884E+02</pdfrwt>
<pdfrwt beam="2">  1        2 0.97437634E-01 0.83453884E+02</pdfrwt>
<totfact> 0.24189553E+06</totfact>
</mgrwt>
</event>
<event>
 6    2  0.9453093E+000  0.8777105E+02  0.7546771E-02  0.1308341E+00
         21   -1    0    0  501  502  0.00000000000E+00  0.00000000000E+00  0.13724870927E+02  0.13724870927E+02  0.00000000000E+00 0. -1.
          2   -1    0    0  502    0 -0.00000000000E+00 -0.00000000000E+00 -0.30587202217E+03  0.30587202217E+03  0.00000000000E+00 0. -1.
         24    2    1    2    0    0 -0.25782976257E+02 -0.18126082293E+02 -0.26068308825E+03  0.27506259189E+03  0.81917276774E+02 0.  0.
        -13    1    3    3    0    0 -0.53457784840E+02  0.12707312146E+01 -0.14507079349E+03  0.15461204559E+03  0.00000000000E+00 0.  1.
         14    1    3    3    0    0  0.27674808583E+02 -0.19396813507E+02 -0.11561229476E+03  0.12045054630E+03  0.00000000000E+00 0. -1.
          1    1    1    2  501    0  0.25782976257E+02  0.18126082293E+02 -0.31464062995E+02  0.44534301209E+02  0.00000000000E+00 0. -1.
<mgrwt>
<rscale>  1 0.87771049E+02</rscale>
<asrwt>0</asrwt>
<pdfrwt beam="1">  1       21 0.21115186E-02 0.87771049E+02</pdfrwt>
<pdfrwt beam="2">  1        2 0.47057233E-01 0.87771049E+02</pdfrwt>
<totfact> 0.13888678E+06</totfact>
</mgrwt>
</event>
<event>
 6    2  0.9453093E+000  0.1047513E+03  0.7546771E-02  0.1270610E+00
          2   -1    0    0  502    0 -0.00000000000E+00  0.00000000000E+00  0.17213328681E+03  0.17213328681E+03  0.00000000000E+00 0. -1.
         21   -1    0    0  501  502  0.00000000000E+00 -0.00000000000E+00 -0.46888340173E+02  0.46888340173E+02  0.00000000000E+00 0. -1.
         24    2    1    2    0    0 -0.15698506981E+02 -0.64916259340E+02  0.43403295989E+02  0.11338725933E+03  0.80698578847E+02 0.  0.
        -13    1    3    3    0    0  0.74356351838E+01  0.10040461556E+02 -0.12020678876E+02  0.17337712060E+02  0.00000000000E+00 0.  1.
         14    1    3    3    0    0 -0.23134142164E+02 -0.74956720896E+02  0.55423974865E+02  0.96049547271E+02  0.00000000000E+00 0. -1.
          1    1    1    2  501    0  0.15698506981E+02  0.64916259340E+02  0.81841650648E+02  0.10563436765E+03  0.00000000000E+00 0. -1.
<mgrwt>
<rscale>  1 0.10475125E+03</rscale>
<asrwt>0</asrwt>
<pdfrwt beam="1">  1       21 0.72135909E-02 0.10475125E+03</pdfrwt>
<pdfrwt beam="2">  1        2 0.26482044E-01 0.10475125E+03</pdfrwt>
<totfact> 0.34250909E+05</totfact>
</mgrwt>
</event>
<event>
 6    2  0.9453093E+000  0.8956738E+02  0.7546771E-02  0.1303903E+00
         21   -1    0    0  501  502  0.00000000000E+00  0.00000000000E+00  0.16163485920E+01  0.16163485920E+01  0.00000000000E+00 0. -1.
          2   -1    0    0  502    0 -0.00000000000E+00 -0.00000000000E+00 -0.26296740799E+04  0.26296740799E+04  0.00000000000E+00 0. -1.
         24    2    1    2    0    0 -0.35852310568E+02  0.14502371423E+02 -0.20374869894E+04  0.20394547180E+04  0.80787425228E+02 0.  0.
        -11    1    3    3    0    0  0.21604196595E+02  0.10705346000E+02 -0.10593179682E+04  0.10595923289E+04  0.00000000000E+00 0.  1.
         12    1    3    3    0    0 -0.57456507163E+02  0.37970254227E+01 -0.97816902115E+03  0.97986238909E+03  0.00000000000E+00 0. -1.
          1    1    1    2  501    0  0.35852310568E+02 -0.14502371423E+02 -0.59057074194E+03  0.59183571047E+03  0.00000000000E+00 0. -1.
<mgrwt>
<rscale>  1 0.89567377E+02</rscale>
<asrwt>0</asrwt>
<pdfrwt beam="1">  1       21 0.24866845E-03 0.89567377E+02</pdfrwt>
<pdfrwt beam="2">  1        2 0.40456616E+00 0.89567377E+02</pdfrwt>
<totfact> 0.14325294E+06</totfact>
</mgrwt>
</event>
<event>
 6    2  0.9453093E+000  0.9014925E+02  0.7546771E-02  0.1302491E+00
          2   -1    0    0  502    0 -0.00000000000E+00  0.00000000000E+00  0.91550016595E+03  0.91550016595E+03  0.00000000000E+00 0. -1.
         21   -1    0    0  501  502  0.00000000000E+00 -0.00000000000E+00 -0.11047388248E+02  0.11047388248E+02  0.00000000000E+00 0. -1.
         24    2    1    2    0    0 -0.25905533405E+02 -0.36096041864E+01  0.89375276610E+03  0.89828775675E+03  0.86271438617E+02 0.  0.
        -11    1    3    3    0    0 -0.47548293354E+02  0.16400538173E+02  0.33466347722E+03  0.33842201589E+03  0.00000000000E+00 0.  1.
         12    1    3    3    0    0  0.21642759949E+02 -0.20010142359E+02  0.55908928887E+03  0.55986574086E+03  0.00000000000E+00 0. -1.
          1    1    1    2  501    0  0.25905533405E+02  0.36096041864E+01  0.10700011605E+02  0.28259797446E+02  0.00000000000E+00 0. -1.
<mgrwt>
<rscale>  1 0.90149249E+02</rscale>
<asrwt>0</asrwt>
<pdfrwt beam="1">  1       21 0.16995989E-02 0.90149249E+02</pdfrwt>
<pdfrwt beam="2">  1        2 0.14084612E+00 0.90149249E+02</pdfrwt>
<totfact> 0.57973085E+05</totfact>
</mgrwt>
</event>
<event>
 6    2  0.9453093E+000  0.9138984E+02  0.7546771E-02  0.1299520E+00
         -3   -1    0    0    0  501 -0.00000000000E+00  0.00000000000E+00  0.13856521890E+03  0.13856521890E+03  0.00000000000E+00 0.  1.
         21   -1    0    0  501  502  0.00000000000E+00 -0.00000000000E+00 -0.35563245845E+03  0.35563245845E+03  0.00000000000E+00 0.  1.
         24    2    1    2    0    0 -0.23189163616E+02  0.37938431245E+02  0.12188474417E+03  0.15234170015E+03  0.79843853047E+02 0.  0.
        -11    1    3    3    0    0  0.17536387297E+02 -0.12091631287E+02  0.56978587112E+02  0.60830023967E+02  0.00000000000E+00 0.  1.
         12    1    3    3    0    0 -0.40725550912E+02  0.50030062532E+02  0.64906157056E+02  0.91511676183E+02  0.00000000000E+00 0. -1.
         -4    1    1    2    0  502  0.23189163616E+02 -0.37938431245E+02 -0.33895198372E+03  0.34185597719E+03  0.00000000000E+00 0.  1.
<mgrwt>
<rscale>  1 0.91389839E+02</rscale>
<asrwt>0</asrwt>
<pdfrwt beam="1">  1       21 0.54712685E-01 0.91389839E+02</pdfrwt>
<pdfrwt beam="2">  1       -3 0.21317726E-01 0.91389839E+02</pdfrwt>
<totfact> 0.30670665E+03</totfact>
</mgrwt>
</event>
<event>
 6    2  0.9453093E+000  0.8370445E+02  0.7546771E-02  0.1318856E+00
          2   -1    0    0  502    0 -0.00000000000E+00  0.00000000000E+00  0.15296882123E+04  0.15296882123E+04  0.00000000000E+00 0. -1.
         21   -1    0    0  501  502  0.00000000000E+00 -0.00000000000E+00 -0.42308430884E+01  0.42308430884E+01  0.00000000000E+00 0.  1.
         24    2    1    2    0    0  0.23612053183E+02 -0.70903580463E+01  0.14786386166E+04  0.14810059395E+04  0.79991450834E+02 0.  0.
        -13    1    3    3    0    0  0.44484281096E+02 -0.69066594195E+01  0.13444643978E+04  0.13452178523E+04  0.00000000000E+00 0.  1.
         14    1    3    3    0    0 -0.20872227912E+02 -0.18369862673E+00  0.13417421883E+03  0.13578808726E+03  0.00000000000E+00 0. -1.
          1    1    1    2  501    0 -0.23612053183E+02  0.70903580463E+01  0.46818752580E+02  0.52913115821E+02  0.00000000000E+00 0. -1.
<mgrwt>
<rscale>  1 0.83704447E+02</rscale>
<asrwt>0</asrwt>
<pdfrwt beam="1">  1       21 0.65090016E-03 0.83704447E+02</pdfrwt>
<pdfrwt beam="2">  1        2 0.23533621E+00 0.83704447E+02</pdfrwt>
<totfact> 0.11971965E+06</totfact>
</mgrwt>
</event>
<event>
 6    2  0.9453093E+000  0.9995591E+02  0.7546771E-02  0.1280389E+00
         21   -1    0    0  501  502  0.00000000000E+00  0.00000000000E+00  0.54494347751E+03  0.54494347751E+03  0.00000000000E+00 0.  1.
          2   -1    0    0  502    0 -0.00000000000E+00 -0.00000000000E+00 -0.11224763082E+02  0.11224763082E+02  0.00000000000E+00 0. -1.
         24    2    1    2    0    0 -0.52616203139E+02  0.19478007729E+02  0.32342154381E+03  0.33851540328E+03  0.82724395691E+02 0.  0.
        -11    1    3    3    0    0 -0.64398983479E+02  0.63749298259E+01  0.30911792835E+03  0.31581919262E+03  0.00000000000E+00 0.  1.
         12    1    3    3    0    0  0.11782780340E+02  0.13103077903E+02  0.14303615462E+02  0.22696210660E+02  0.00000000000E+00 0. -1.
          1    1    1    2  501    0  0.52616203139E+02 -0.19478007729E+02  0.21029717062E+03  0.21765283731E+03  0.00000000000E+00 0. -1.
<mgrwt>
<rscale>  1 0.99955907E+02</rscale>
<asrwt>0</asrwt>
<pdfrwt beam="1">  1       21 0.83837438E-01 0.99955907E+02</pdfrwt>
<pdfrwt beam="2">  1        2 0.17268870E-02 0.99955907E+02</pdfrwt>
<totfact> 0.96089672E+04</totfact>
</mgrwt>
</event>
<event>
 6    2  0.9453093E+000  0.8443295E+02  0.7546771E-02  0.1316922E+00
          4   -1    0    0  502    0 -0.00000000000E+00  0.00000000000E+00  0.11644717949E+03  0.11644717949E+03  0.00000000000E+00 0. -1.
         21   -1    0    0  501  502  0.00000000000E+00 -0.00000000000E+00 -0.24916149736E+02  0.24916149736E+02  0.00000000000E+00 0.  1.
         24    2    1    2    0    0  0.16332637965E+02 -0.16602595703E+02  0.72407565240E+02  0.11122849652E+03  0.81157388377E+02 0.  0.
        -13    1    3    3    0    0  0.35936849024E+02  0.11249209878E+02  0.81884404377E+01  0.38536377586E+02  0.00000000000E+00 0.  1.
         14    1    3    3    0    0 -0.19604211059E+02 -0.27851805582E+02  0.64219124802E+02  0.72692118938E+02  0.00000000000E+00 0. -1.
          3    1    1    2  501    0 -0.16332637965E+02  0.16602595703E+02  0.19123464515E+02  0.30134832703E+02  0.00000000000E+00 0. -1.
<mgrwt>
<rscale>  1 0.84432949E+02</rscale>
<asrwt>0</asrwt>
<pdfrwt beam="1">  1       21 0.38332539E-02 0.84432949E+02</pdfrwt>
<pdfrwt beam="2">  1        4 0.17914950E-01 0.84432949E+02</pdfrwt>
<totfact> 0.42014326E+05</totfact>
</mgrwt>
</event>
<event>
 6    2  0.9453093E+000  0.8820922E+02  0.7546771E-02  0.1307247E+00
         21   -1    0    0  501  502  0.00000000000E+00  0.00000000000E+00  0.28724716579E+03  0.28724716579E+03  0.00000000000E+00 0.  1.
         -1   -1    0    0    0  501 -0.00000000000E+00 -0.00000000000E+00 -0.21805155564E+02  0.21805155564E+02  0.00000000000E+00 0.  1.
         24    2    1    2    0    0  0.18665322698E+02  0.28878136947E+02  0.75755732478E+02  0.11627466437E+03  0.81231308663E+02 0.  0.
        -11    1    3    3    0    0  0.39400888953E+02  0.22300894250E+02  0.91275936739E+01  0.46185202186E+02  0.00000000000E+00 0.  1.
         12    1    3    3    0    0 -0.20735566255E+02  0.65772426974E+01  0.66628138804E+02  0.70089462189E+02  0.00000000000E+00 0. -1.
         -2    1    1    2    0  502 -0.18665322698E+02 -0.28878136947E+02  0.18968627775E+03  0.19277765698E+03  0.00000000000E+00 0.  1.
<mgrwt>
<rscale>  1 0.88209220E+02</rscale>
<asrwt>0</asrwt>
<pdfrwt beam="1">  1       21 0.44191869E-01 0.88209220E+02</pdfrwt>
<pdfrwt beam="2">  1       -1 0.33546395E-02 0.88209220E+02</pdfrwt>
<totfact> 0.13227820E+05</totfact>
</mgrwt>
</event>
<event>
 6    2  0.9453093E+000  0.9823608E+02  0.7546771E-02  0.1284050E+00
         21   -1    0    0  501  502  0.00000000000E+00  0.00000000000E+00  0.17804752298E+01  0.17804752298E+01  0.00000000000E+00 0.  1.
          2   -1    0    0  502    0 -0.00000000000E+00 -0.00000000000E+00 -0.30014951509E+04  0.30014951509E+04  0.00000000000E+00 0. -1.
         24    2    1    2    0    0  0.35793483056E+02 -0.15043835596E+02 -0.25488122976E+04  0.25507046980E+04  0.90237673389E+02 0.  0.
        -11    1    3    3    0    0 -0.73796832059E+01 -0.23469869494E+02 -0.20376780966E+03  0.20524769122E+03  0.00000000000E+00 0.  1.
         12    1    3    3    0    0  0.43173166262E+02  0.84260338981E+01 -0.23450444879E+04  0.23454570068E+04  0.00000000000E+00 0. -1.
          1    1    1    2  501    0 -0.35793483056E+02  0.15043835596E+02 -0.45090237812E+03  0.45257092816E+03  0.00000000000E+00 0. -1.
<mgrwt>
<rscale>  1 0.98236084E+02</rscale>
<asrwt>0</asrwt>
<pdfrwt beam="1">  1       21 0.27392032E-03 0.98236084E+02</pdfrwt>
<pdfrwt beam="2">  1        2 0.46176671E+00 0.98236084E+02</pdfrwt>
<totfact> 0.77391908E+05</totfact>
</mgrwt>
</event>
<event>
 6    2  0.9453093E+000  0.1621029E+03  0.7546771E-02  0.1186343E+00
         21   -1    0    0  501  502  0.00000000000E+00  0.00000000000E+00  0.30953606341E+02  0.30953606341E+02  0.00000000000E+00 0. -1.
          2   -1    0    0  502    0 -0.00000000000E+00 -0.00000000000E+00 -0.21887819568E+04  0.21887819568E+04  0.00000000000E+00 0. -1.
         24    2    1    2    0    0 -0.12604410396E+03  0.64384001126E+02 -0.20045933313E+04  0.20111369370E+04  0.79024929963E+02 0.  0.
        -11    1    3    3    0    0 -0.57203874194E+00  0.18045058747E+02 -0.85359495913E+02  0.87247893476E+02  0.00000000000E+00 0.  1.
         12    1    3    3    0    0 -0.12547206521E+03  0.46338942379E+02 -0.19192338354E+04  0.19238890435E+04  0.00000000000E+00 0. -1.
          1    1    1    2  501    0  0.12604410396E+03 -0.64384001126E+02 -0.15323501910E+03  0.20859862613E+03  0.00000000000E+00 0. -1.
<mgrwt>
<rscale>  1 0.16210292E+03</rscale>
<asrwt>0</asrwt>
<pdfrwt beam="1">  1       21 0.47620922E-02 0.16210292E+03</pdfrwt>
<pdfrwt beam="2">  1        2 0.33673576E+00 0.16210292E+03</pdfrwt>
<totfact> 0.22689189E+04</totfact>
</mgrwt>
</event>
<event>
 6    2  0.9453093E+000  0.1105517E+03  0.7546771E-02  0.1259552E+00
         21   -1    0    0  501  502  0.00000000000E+00  0.00000000000E+00  0.16681992107E+02  0.16681992107E+02  0.00000000000E+00 0. -1.
          2   -1    0    0  502    0 -0.00000000000E+00 -0.00000000000E+00 -0.16926332110E+04  0.16926332110E+04  0.00000000000E+00 0. -1.
         24    2    1    2    0    0  0.14463746163E+02  0.69737925039E+02 -0.16049330681E+04  0.16087361005E+04  0.84552408582E+02 0.  0.
        -11    1    3    3    0    0  0.85614661210E+00 -0.14597895943E+02 -0.60014093337E+03  0.60031905805E+03  0.00000000000E+00 0.  1.
         12    1    3    3    0    0  0.13607599551E+02  0.84335820982E+02 -0.10047921348E+04  0.10084170425E+04  0.00000000000E+00 0. -1.
          1    1    1    2  501    0 -0.14463746163E+02 -0.69737925039E+02 -0.71018150807E+02  0.10057910263E+03  0.00000000000E+00 0. -1.
<mgrwt>
<rscale>  1 0.11055174E+03</rscale>
<asrwt>0</asrwt>
<pdfrwt beam="1">  1       21 0.25664607E-02 0.11055174E+03</pdfrwt>
<pdfrwt beam="2">  1        2 0.26040507E+00 0.11055174E+03</pdfrwt>
<totfact> 0.11444771E+05</totfact>
</mgrwt>
</event>
<event>
 6    2  0.9453093E+000  0.8415821E+02  0.7546771E-02  0.1317649E+00
         -3   -1    0    0    0  501 -0.00000000000E+00  0.00000000000E+00  0.15825963371E+02  0.15825963371E+02  0.00000000000E+00 0.  1.
         21   -1    0    0  501  502  0.00000000000E+00 -0.00000000000E+00 -0.19188286568E+03  0.19188286568E+03  0.00000000000E+00 0.  1.
         24    2    1    2    0    0  0.25229435479E+02 -0.40790672346E+01 -0.14297300478E+03  0.16590323756E+03  0.80183794703E+02 0.  0.
        -11    1    3    3    0    0  0.16478505482E+02 -0.35670264747E+02 -0.33523496306E+02  0.51650108757E+02  0.00000000000E+00 0.  1.
         12    1    3    3    0    0  0.87509299966E+01  0.31591197512E+02 -0.10944950848E+03  0.11425312880E+03  0.00000000000E+00 0. -1.
         -4    1    1    2    0  502 -0.25229435479E+02  0.40790672346E+01 -0.33083897524E+02  0.41805591485E+02  0.00000000000E+00 0.  1.
<mgrwt>
<rscale>  1 0.84158209E+02</rscale>
<asrwt>0</asrwt>
<pdfrwt beam="1">  1       21 0.29520441E-01 0.84158209E+02</pdfrwt>
<pdfrwt beam="2">  1       -3 0.24347636E-02 0.84158209E+02</pdfrwt>
<totfact> 0.34069748E+05</totfact>
</mgrwt>
</event>
<event>
 6    2  0.1405255E+001  0.8299100E+02  0.7546771E-02  0.1320771E+00
         21   -1    0    0  501  502  0.00000000000E+00  0.00000000000E+00  0.56316532783E+01  0.56316532783E+01  0.00000000000E+00 0. -1.
         -1   -1    0    0    0  501 -0.00000000000E+00 -0.00000000000E+00 -0.53903230234E+03  0.53903230234E+03  0.00000000000E+00 0.  1.
         24    2    1    2    0    0  0.10642315415E+01  0.22856947522E+02 -0.34319112307E+03  0.35308306822E+03  0.79774265713E+02 0.  0.
        -11    1    3    3    0    0  0.14411131736E+01  0.21438594656E+02 -0.34768875192E+03  0.34835206094E+03  0.00000000000E+00 0.  1.
         12    1    3    3    0    0 -0.37688163215E+00  0.14183528662E+01  0.44976288501E+01  0.47310072808E+01  0.00000000000E+00 0. -1.
         -2    1    1    2    0  502 -0.10642315415E+01 -0.22856947522E+02 -0.19020952599E+03  0.19158088740E+03  0.00000000000E+00 0.  1.
<mgrwt>
<rscale>  1 0.82991000E+02</rscale>
<asrwt>0</asrwt>
<pdfrwt beam="1">  1       21 0.86640848E-03 0.82991000E+02</pdfrwt>
<pdfrwt beam="2">  1       -1 0.82928020E-01 0.82991000E+02</pdfrwt>
<totfact> 0.61641190E+05</totfact>
</mgrwt>
</event>
<event>
 6    2  0.9453093E+000  0.8537704E+02  0.7546771E-02  0.1314449E+00
         -1   -1    0    0    0  501 -0.00000000000E+00  0.00000000000E+00  0.53312980822E+02  0.53312980822E+02  0.00000000000E+00 0.  1.
         21   -1    0    0  501  502  0.00000000000E+00 -0.00000000000E+00 -0.69905253338E+02  0.69905253338E+02  0.00000000000E+00 0. -1.
         24    2    1    2    0    0  0.15338643913E+02 -0.17782628949E+02  0.12001982858E+02  0.86216513526E+02  0.82083760407E+02 0.  0.
        -11    1    3    3    0    0 -0.11631214789E+02  0.25732015941E+02  0.19720822372E+02  0.34443179832E+02  0.00000000000E+00 0.  1.
         12    1    3    3    0    0  0.26969858702E+02 -0.43514644891E+02 -0.77188395143E+01  0.51773333694E+02  0.00000000000E+00 0. -1.
         -2    1    1    2    0  502 -0.15338643913E+02  0.17782628949E+02 -0.28594255374E+02  0.37001720633E+02  0.00000000000E+00 0.  1.
<mgrwt>
<rscale>  1 0.85377044E+02</rscale>
<asrwt>0</asrwt>
<pdfrwt beam="1">  1       21 0.10754654E-01 0.85377044E+02</pdfrwt>
<pdfrwt beam="2">  1       -1 0.82019970E-02 0.85377044E+02</pdfrwt>
<totfact> 0.48803138E+05</totfact>
</mgrwt>
</event>
<event>
 6    2  0.9453093E+000  0.8407918E+02  0.7546771E-02  0.1317858E+00
          2   -1    0    0  502    0 -0.00000000000E+00  0.00000000000E+00  0.42208717676E+03  0.42208717676E+03  0.00000000000E+00 0. -1.
         21   -1    0    0  501  502  0.00000000000E+00 -0.00000000000E+00 -0.12564495623E+02  0.12564495623E+02  0.00000000000E+00 0.  1.
         24    2    1    2    0    0 -0.24240368183E+02 -0.71569691175E+01  0.13550445632E+03  0.15947026823E+03  0.80190343009E+02 0.  0.
        -11    1    3    3    0    0 -0.49148944037E+02 -0.21640875816E+02  0.10205327675E+03  0.11532049906E+03  0.00000000000E+00 0.  1.
         12    1    3    3    0    0  0.24908575854E+02  0.14483906698E+02  0.33451179562E+02  0.44149769177E+02  0.00000000000E+00 0. -1.
          1    1    1    2  501    0  0.24240368183E+02  0.71569691175E+01  0.27401822482E+03  0.27518140415E+03  0.00000000000E+00 0. -1.
<mgrwt>
<rscale>  1 0.84079182E+02</rscale>
<asrwt>0</asrwt>
<pdfrwt beam="1">  1       21 0.19329997E-02 0.84079182E+02</pdfrwt>
<pdfrwt beam="2">  1        2 0.64936478E-01 0.84079182E+02</pdfrwt>
<totfact> 0.11364893E+06</totfact>
</mgrwt>
</event>
<event>
 6    2  0.9453093E+000  0.9107612E+02  0.7546771E-02  0.1300266E+00
          2   -1    0    0  502    0 -0.00000000000E+00  0.00000000000E+00  0.11483989789E+04  0.11483989789E+04  0.00000000000E+00 0. -1.
         21   -1    0    0  501  502  0.00000000000E+00 -0.00000000000E+00 -0.42400321538E+01  0.42400321538E+01  0.00000000000E+00 0. -1.
         24    2    1    2    0    0 -0.44334511693E+02 -0.18823638698E+02  0.71053263798E+03  0.71634592842E+03  0.77298002731E+02 0.  0.
        -13    1    3    3    0    0 -0.71775456874E+00 -0.10132628598E+02  0.95131562600E+01  0.13917092942E+02  0.00000000000E+00 0.  1.
         14    1    3    3    0    0 -0.43616757124E+02 -0.86910101006E+01  0.70101948172E+03  0.70242883548E+03  0.00000000000E+00 0. -1.
          1    1    1    2  501    0  0.44334511693E+02  0.18823638698E+02  0.43362630874E+03  0.43629308260E+03  0.00000000000E+00 0. -1.
<mgrwt>
<rscale>  1 0.91076119E+02</rscale>
<asrwt>0</asrwt>
<pdfrwt beam="1">  1       21 0.65231356E-03 0.91076119E+02</pdfrwt>
<pdfrwt beam="2">  1        2 0.17667652E+00 0.91076119E+02</pdfrwt>
<totfact> 0.19053319E+06</totfact>
</mgrwt>
</event>
<event>
 6    2  0.9453093E+000  0.8662976E+02  0.7546771E-02  0.1311225E+00
         -1   -1    0    0    0  501 -0.00000000000E+00  0.00000000000E+00  0.44491367728E+03  0.44491367728E+03  0.00000000000E+00 0.  1.
         21   -1    0    0  501  502  0.00000000000E+00 -0.00000000000E+00 -0.45797958398E+02  0.45797958398E+02  0.00000000000E+00 0.  1.
         24    2    1    2    0    0  0.45728318157E+01  0.32084754023E+02  0.43431163636E+03  0.44286714969E+03  0.80339109816E+02 0.  0.
        -11    1    3    3    0    0  0.42201904953E+02  0.21053630644E+02  0.25393231273E+03  0.25827480634E+03  0.00000000000E+00 0.  1.
         12    1    3    3    0    0 -0.37629073137E+02  0.11031123380E+02  0.18037932364E+03  0.18459234335E+03  0.00000000000E+00 0. -1.
         -2    1    1    2    0  502 -0.45728318157E+01 -0.32084754023E+02 -0.35195917483E+02  0.47844485983E+02  0.00000000000E+00 0.  1.
<mgrwt>
<rscale>  1 0.86629757E+02</rscale>
<asrwt>0</asrwt>
<pdfrwt beam="1">  1       21 0.70458401E-02 0.86629757E+02</pdfrwt>
<pdfrwt beam="2">  1       -1 0.68448255E-01 0.86629757E+02</pdfrwt>
<totfact> 0.30728925E+04</totfact>
</mgrwt>
</event>
<event>
 6    2  0.9453093E+000  0.9077469E+02  0.7546771E-02  0.1300986E+00
          2   -1    0    0  502    0 -0.00000000000E+00  0.00000000000E+00  0.95741163896E+03  0.95741163896E+03  0.00000000000E+00 0. -1.
         21   -1    0    0  501  502  0.00000000000E+00 -0.00000000000E+00 -0.33447801298E+01  0.33447801298E+01  0.00000000000E+00 0. -1.
         24    2    1    2    0    0  0.12312931453E+02 -0.16855234985E+02  0.70576352955E+03  0.71157726555E+03  0.88342164208E+02 0.  0.
        -13    1    3    3    0    0  0.38733560459E+02  0.51721422475E+01  0.15895759929E+03  0.16369043384E+03  0.00000000000E+00 0.  1.
         14    1    3    3    0    0 -0.26420629005E+02 -0.22027377232E+02  0.54680593026E+03  0.54788683170E+03  0.00000000000E+00 0. -1.
          1    1    1    2  501    0 -0.12312931453E+02  0.16855234985E+02  0.24830332928E+03  0.24917915354E+03  0.00000000000E+00 0. -1.
<mgrwt>
<rscale>  1 0.90774695E+02</rscale>
<asrwt>0</asrwt>
<pdfrwt beam="1">  1       21 0.51458232E-03 0.90774695E+02</pdfrwt>
<pdfrwt beam="2">  1        2 0.14729388E+00 0.90774695E+02</pdfrwt>
<totfact> 0.35304722E+06</totfact>
</mgrwt>
</event>
<event>
 6    2  0.9453093E+000  0.1026965E+03  0.7546771E-02  0.1274726E+00
         21   -1    0    0  501  502  0.00000000000E+00  0.00000000000E+00  0.15163576255E+03  0.15163576255E+03  0.00000000000E+00 0. -1.
          2   -1    0    0  502    0 -0.00000000000E+00 -0.00000000000E+00 -0.15222049557E+03  0.15222049557E+03  0.00000000000E+00 0. -1.
         24    2    1    2    0    0 -0.51033768429E+02  0.54735877623E+00 -0.12945798427E+03  0.16524507527E+03  0.89116890019E+02 0.  0.
        -13    1    3    3    0    0 -0.14805367800E+02  0.30931718573E+02 -0.84368597412E+01  0.35315021335E+02  0.00000000000E+00 0.  1.
         14    1    3    3    0    0 -0.36228400629E+02 -0.30384359796E+02 -0.12102112453E+03  0.12993005393E+03  0.00000000000E+00 0. -1.
          1    1    1    2  501    0  0.51033768429E+02 -0.54735877623E+00  0.12887325125E+03  0.13861118285E+03  0.00000000000E+00 0. -1.
<mgrwt>
<rscale>  1 0.10269647E+03</rscale>
<asrwt>0</asrwt>
<pdfrwt beam="1">  1       21 0.23328579E-01 0.10269647E+03</pdfrwt>
<pdfrwt beam="2">  1        2 0.23418538E-01 0.10269647E+03</pdfrwt>
<totfact> 0.48680325E+04</totfact>
</mgrwt>
</event>
<event>
 6    2  0.9453093E+000  0.9365842E+02  0.7546771E-02  0.1294227E+00
         21   -1    0    0  501  502  0.00000000000E+00  0.00000000000E+00  0.18081154423E+02  0.18081154423E+02  0.00000000000E+00 0. -1.
          2   -1    0    0  502    0 -0.00000000000E+00 -0.00000000000E+00 -0.39382278035E+03  0.39382278035E+03  0.00000000000E+00 0. -1.
         24    2    1    2    0    0  0.25946930148E+01 -0.49286801197E+02 -0.33518146793E+03  0.34802085704E+03  0.79598864853E+02 0.  0.
        -13    1    3    3    0    0 -0.10888496694E+02  0.12751216709E+02 -0.18209473362E+02  0.24753541321E+02  0.00000000000E+00 0.  1.
         14    1    3    3    0    0  0.13483189709E+02 -0.62038017906E+02 -0.31697199457E+03  0.32326731572E+03  0.00000000000E+00 0. -1.
          1    1    1    2  501    0 -0.25946930148E+01  0.49286801197E+02 -0.40560157998E+02  0.63883077735E+02  0.00000000000E+00 0. -1.
<mgrwt>
<rscale>  1 0.93658425E+02</rscale>
<asrwt>0</asrwt>
<pdfrwt beam="1">  1       21 0.27817163E-02 0.93658425E+02</pdfrwt>
<pdfrwt beam="2">  1        2 0.60588116E-01 0.93658425E+02</pdfrwt>
<totfact> 0.68802238E+05</totfact>
</mgrwt>
</event>
<event>
 6    2  0.9453093E+000  0.9548953E+02  0.7546771E-02  0.1290077E+00
         21   -1    0    0  501  502  0.00000000000E+00  0.00000000000E+00  0.62461114512E+03  0.62461114512E+03  0.00000000000E+00 0.  1.
         -3   -1    0    0    0  501 -0.00000000000E+00 -0.00000000000E+00 -0.12862407499E+02  0.12862407499E+02  0.00000000000E+00 0.  1.
         24    2    1    2    0    0 -0.51811679120E+02 -0.96817704146E+01  0.19206515771E+03  0.21449306368E+03  0.79624511246E+02 0.  0.
        -11    1    3    3    0    0 -0.53850432206E+02 -0.99398289233E+00  0.54445542829E+02  0.76584425210E+02  0.00000000000E+00 0.  1.
         12    1    3    3    0    0  0.20387530852E+01 -0.86877875223E+01  0.13761961488E+03  0.13790863847E+03  0.00000000000E+00 0. -1.
         -4    1    1    2    0  502  0.51811679120E+02  0.96817704146E+01  0.41968357991E+03  0.42298048893E+03  0.00000000000E+00 0.  1.
<mgrwt>
<rscale>  1 0.95489526E+02</rscale>
<asrwt>0</asrwt>
<pdfrwt beam="1">  1       21 0.96093999E-01 0.95489526E+02</pdfrwt>
<pdfrwt beam="2">  1       -3 0.19788324E-02 0.95489526E+02</pdfrwt>
<totfact> 0.40989284E+04</totfact>
</mgrwt>
</event>
<event>
 6    2  0.9453093E+000  0.8736668E+02  0.7546771E-02  0.1309357E+00
         21   -1    0    0  501  502  0.00000000000E+00  0.00000000000E+00  0.72811295969E+02  0.72811295969E+02  0.00000000000E+00 0. -1.
          2   -1    0    0  502    0 -0.00000000000E+00 -0.00000000000E+00 -0.67926694704E+02  0.67926694704E+02  0.00000000000E+00 0. -1.
         24    2    1    2    0    0 -0.18054434214E+02 -0.27958160480E+02 -0.30143311908E+02  0.92420540063E+02  0.80779425849E+02 0.  0.
        -13    1    3    3    0    0 -0.41213398080E+02  0.10438981862E+02 -0.13930941332E+02  0.44739106496E+02  0.00000000000E+00 0.  1.
         14    1    3    3    0    0  0.23158963866E+02 -0.38397142342E+02 -0.16212370576E+02  0.47681433567E+02  0.00000000000E+00 0. -1.
          1    1    1    2  501    0  0.18054434214E+02  0.27958160480E+02  0.35027913174E+02  0.48317450610E+02  0.00000000000E+00 0. -1.
<mgrwt>
<rscale>  1 0.87366681E+02</rscale>
<asrwt>0</asrwt>
<pdfrwt beam="1">  1       21 0.11201738E-01 0.87366681E+02</pdfrwt>
<pdfrwt beam="2">  1        2 0.10450261E-01 0.87366681E+02</pdfrwt>
<totfact> 0.45800877E+05</totfact>
</mgrwt>
</event>
<event>
 6    2  0.9453093E+000  0.8673603E+02  0.7546771E-02  0.1310954E+00
          2   -1    0    0  502    0 -0.00000000000E+00  0.00000000000E+00  0.21801696058E+03  0.21801696058E+03  0.00000000000E+00 0. -1.
         21   -1    0    0  501  502  0.00000000000E+00 -0.00000000000E+00 -0.19482110978E+02  0.19482110978E+02  0.00000000000E+00 0. -1.
         24    2    1    2    0    0 -0.81773501794E+01 -0.29878402037E+02  0.18371179944E+03  0.20315797693E+03  0.81015741507E+02 0.  0.
        -13    1    3    3    0    0  0.81812909684E+01  0.10046506906E+02 -0.14485897919E+01  0.13037033225E+02  0.00000000000E+00 0.  1.
         14    1    3    3    0    0 -0.16358641148E+02 -0.39924908942E+02  0.18516038924E+03  0.19012094371E+03  0.00000000000E+00 0. -1.
          1    1    1    2  501    0  0.81773501794E+01  0.29878402037E+02  0.14823050161E+02  0.34341094629E+02  0.00000000000E+00 0. -1.
<mgrwt>
<rscale>  1 0.86736027E+02</rscale>
<asrwt>0</asrwt>
<pdfrwt beam="1">  1       21 0.29972480E-02 0.86736027E+02</pdfrwt>
<pdfrwt beam="2">  1        2 0.33541069E-01 0.86736027E+02</pdfrwt>
<totfact> 0.11245381E+06</totfact>
</mgrwt>
</event>
<event>
 6    2  0.9453093E+000  0.9492364E+02  0.7546771E-02  0.1291348E+00
          2   -1    0    0  502    0 -0.00000000000E+00  0.00000000000E+00  0.13359635316E+04  0.13359635316E+04  0.00000000000E+00 0. -1.
         21   -1    0    0  501  502  0.00000000000E+00 -0.00000000000E+00 -0.42956175275E+01  0.42956175275E+01  0.00000000000E+00 0. -1.
         24    2    1    2    0    0 -0.24989465176E+02 -0.44142454984E+02  0.67600263811E+03  0.68263464852E+03  0.80233826537E+02 0.  0.
        -11    1    3    3    0    0 -0.32055649904E+02  0.13767106587E+02  0.31825721602E+03  0.32016363545E+03  0.00000000000E+00 0.  1.
         12    1    3    3    0    0  0.70661847277E+01 -0.57909561571E+02  0.35774542210E+03  0.36247101307E+03  0.00000000000E+00 0. -1.
          1    1    1    2  501    0  0.24989465176E+02  0.44142454984E+02  0.65566527593E+03  0.65762450058E+03  0.00000000000E+00 0. -1.
<mgrwt>
<rscale>  1 0.94923636E+02</rscale>
<asrwt>0</asrwt>
<pdfrwt beam="1">  1       21 0.66086530E-03 0.94923636E+02</pdfrwt>
<pdfrwt beam="2">  1        2 0.20553252E+00 0.94923636E+02</pdfrwt>
<totfact> 0.14852847E+06</totfact>
</mgrwt>
</event>
<event>
 6    2  0.9453093E+000  0.7776988E+02  0.7546771E-02  0.1335502E+00
         21   -1    0    0  501  502  0.00000000000E+00  0.00000000000E+00  0.47035602268E+02  0.47035602268E+02  0.00000000000E+00 0. -1.
          2   -1    0    0  502    0 -0.00000000000E+00 -0.00000000000E+00 -0.12184316294E+04  0.12184316294E+04  0.00000000000E+00 0. -1.
         24    2    1    2    0    0  0.56298843862E+01  0.26253222030E+02 -0.12132506367E+04  0.12157406230E+04  0.72987860156E+02 0.  0.
        -11    1    3    3    0    0 -0.10567053067E+02  0.56375925904E+01 -0.31513372842E+02  0.33712575230E+02  0.00000000000E+00 0.  1.
         12    1    3    3    0    0  0.16196937453E+02  0.20615629439E+02 -0.11817372639E+04  0.11820280478E+04  0.00000000000E+00 0. -1.
          1    1    1    2  501    0 -0.56298843862E+01 -0.26253222030E+02  0.41854609573E+02  0.49726608648E+02  0.00000000000E+00 0. -1.
<mgrwt>
<rscale>  1 0.77769885E+02</rscale>
<asrwt>0</asrwt>
<pdfrwt beam="1">  1       21 0.72362476E-02 0.77769885E+02</pdfrwt>
<pdfrwt beam="2">  1        2 0.18745099E+00 0.77769885E+02</pdfrwt>
<totfact> 0.36284622E+04</totfact>
</mgrwt>
</event>
<event>
 6    2  0.9453093E+000  0.8690755E+02  0.7546771E-02  0.1310518E+00
         21   -1    0    0  501  502  0.00000000000E+00  0.00000000000E+00  0.20890128004E+04  0.20890128004E+04  0.00000000000E+00 0. -1.
          2   -1    0    0  502    0 -0.00000000000E+00 -0.00000000000E+00 -0.20443179717E+01  0.20443179717E+01  0.00000000000E+00 0. -1.
         24    2    1    2    0    0  0.23208164256E+02  0.26682739911E+02  0.10890214916E+04  0.10924837440E+04  0.79387242324E+02 0.  0.
        -13    1    3    3    0    0 -0.18744866685E+02  0.42550399877E+01  0.73835594032E+03  0.73860609935E+03  0.00000000000E+00 0.  1.
         14    1    3    3    0    0  0.41953030941E+02  0.22427699923E+02  0.35066555125E+03  0.35387764462E+03  0.00000000000E+00 0. -1.
          1    1    1    2  501    0 -0.23208164256E+02 -0.26682739911E+02  0.99794699085E+03  0.99857337439E+03  0.00000000000E+00 0. -1.
<mgrwt>
<rscale>  1 0.86907547E+02</rscale>
<asrwt>0</asrwt>
<pdfrwt beam="1">  1       21 0.32138488E+00 0.86907547E+02</pdfrwt>
<pdfrwt beam="2">  1        2 0.31451213E-03 0.86907547E+02</pdfrwt>
<totfact> 0.23736086E+04</totfact>
</mgrwt>
</event>
<event>
 6    2  0.9453093E+000  0.8687781E+02  0.7546771E-02  0.1310594E+00
         21   -1    0    0  501  502  0.00000000000E+00  0.00000000000E+00  0.65122712800E+01  0.65122712800E+01  0.00000000000E+00 0.  1.
          2   -1    0    0  502    0 -0.00000000000E+00 -0.00000000000E+00 -0.56599604918E+03  0.56599604918E+03  0.00000000000E+00 0. -1.
         24    2    1    2    0    0 -0.16319668685E+02 -0.30247892055E+02 -0.41443684873E+03  0.42344498418E+03  0.79790265614E+02 0.  0.
        -11    1    3    3    0    0  0.13712480283E+02  0.14926037477E+02 -0.37520673936E+02  0.42645277381E+02  0.00000000000E+00 0.  1.
         12    1    3    3    0    0 -0.30032148968E+02 -0.45173929532E+02 -0.37691617479E+03  0.38079970680E+03  0.00000000000E+00 0. -1.
          1    1    1    2  501    0  0.16319668685E+02  0.30247892055E+02 -0.14504692918E+03  0.14906333628E+03  0.00000000000E+00 0. -1.
<mgrwt>
<rscale>  1 0.86877805E+02</rscale>
<asrwt>0</asrwt>
<pdfrwt beam="1">  1       21 0.10018878E-02 0.86877805E+02</pdfrwt>
<pdfrwt beam="2">  1        2 0.87076323E-01 0.86877805E+02</pdfrwt>
<totfact> 0.23462373E+06</totfact>
</mgrwt>
</event>
<event>
 6    2  0.9453093E+000  0.8567632E+02  0.7546771E-02  0.1313673E+00
         21   -1    0    0  501  502  0.00000000000E+00  0.00000000000E+00  0.18784654981E+02  0.18784654981E+02  0.00000000000E+00 0.  1.
         -3   -1    0    0    0  501 -0.00000000000E+00 -0.00000000000E+00 -0.46033531379E+03  0.46033531379E+03  0.00000000000E+00 0.  1.
         24    2    1    2    0    0 -0.21308755695E+02  0.20958047868E+02 -0.44098060220E+03  0.44922636069E+03  0.80294014585E+02 0.  0.
        -13    1    3    3    0    0  0.17227064737E+02  0.20912692047E+02 -0.34102504043E+03  0.34209967941E+03  0.00000000000E+00 0.  1.
         14    1    3    3    0    0 -0.38535820432E+02  0.45355821557E-01 -0.99955561769E+02  0.10712668128E+03  0.00000000000E+00 0. -1.
         -4    1    1    2    0  502  0.21308755695E+02 -0.20958047868E+02 -0.57005660620E+00  0.29893608084E+02  0.00000000000E+00 0.  1.
<mgrwt>
<rscale>  1 0.85676319E+02</rscale>
<asrwt>0</asrwt>
<pdfrwt beam="1">  1       21 0.28899471E-02 0.85676319E+02</pdfrwt>
<pdfrwt beam="2">  1       -3 0.70820814E-01 0.85676319E+02</pdfrwt>
<totfact> 0.59125420E+04</totfact>
</mgrwt>
</event>
<event>
 6    2  0.9453093E+000  0.9141093E+02  0.7546771E-02  0.1299470E+00
          2   -1    0    0  502    0 -0.00000000000E+00  0.00000000000E+00  0.25989263884E+03  0.25989263884E+03  0.00000000000E+00 0. -1.
         21   -1    0    0  501  502  0.00000000000E+00 -0.00000000000E+00 -0.36346611075E+02  0.36346611075E+02  0.00000000000E+00 0. -1.
         24    2    1    2    0    0  0.42463917094E+02  0.83947342742E+01  0.23441690445E+03  0.25160930730E+03  0.80512748121E+02 0.  0.
        -11    1    3    3    0    0  0.14937412469E+02  0.17733338309E+02  0.98877717393E+01  0.25206459664E+02  0.00000000000E+00 0.  1.
         12    1    3    3    0    0  0.27526504625E+02 -0.93386040344E+01  0.22452913271E+03  0.22640284763E+03  0.00000000000E+00 0. -1.
          1    1    1    2  501    0 -0.42463917094E+02 -0.83947342742E+01 -0.10870876679E+02  0.44629942620E+02  0.00000000000E+00 0. -1.
<mgrwt>
<rscale>  1 0.91410932E+02</rscale>
<asrwt>0</asrwt>
<pdfrwt beam="1">  1       21 0.55917865E-02 0.91410932E+02</pdfrwt>
<pdfrwt beam="2">  1        2 0.39983482E-01 0.91410932E+02</pdfrwt>
<totfact> 0.33603792E+05</totfact>
</mgrwt>
</event>
<event>
 6    2  0.9453093E+000  0.9053937E+02  0.7546771E-02  0.1301551E+00
          2   -1    0    0  502    0 -0.00000000000E+00  0.00000000000E+00  0.46070084305E+03  0.46070084305E+03  0.00000000000E+00 0. -1.
         21   -1    0    0  501  502  0.00000000000E+00 -0.00000000000E+00 -0.23586951566E+02  0.23586951566E+02  0.00000000000E+00 0. -1.
         24    2    1    2    0    0  0.31916350695E+02  0.27329713214E+02  0.43266231515E+03  0.44203399955E+03  0.80198573151E+02 0.  0.
        -11    1    3    3    0    0  0.58240583748E+00 -0.19028763335E+02  0.30194273010E+02  0.35694917751E+02  0.00000000000E+00 0.  1.
         12    1    3    3    0    0  0.31333944857E+02  0.46358476549E+02  0.40246804214E+03  0.40633908180E+03  0.00000000000E+00 0. -1.
          1    1    1    2  501    0 -0.31916350695E+02 -0.27329713214E+02  0.44515763311E+01  0.42253795070E+02  0.00000000000E+00 0. -1.
<mgrwt>
<rscale>  1 0.90539372E+02</rscale>
<asrwt>0</asrwt>
<pdfrwt beam="1">  1       21 0.36287621E-02 0.90539372E+02</pdfrwt>
<pdfrwt beam="2">  1        2 0.70877046E-01 0.90539372E+02</pdfrwt>
<totfact> 0.37673450E+05</totfact>
</mgrwt>
</event>
<event>
 6    2  0.9453093E+000  0.9097704E+02  0.7546771E-02  0.1300503E+00
         21   -1    0    0  501  502  0.00000000000E+00  0.00000000000E+00  0.38637118079E+01  0.38637118079E+01  0.00000000000E+00 0.  1.
         -3   -1    0    0    0  501 -0.00000000000E+00 -0.00000000000E+00 -0.13613954633E+04  0.13613954633E+04  0.00000000000E+00 0.  1.
         24    2    1    2    0    0  0.42283930173E+02 -0.11976802158E+02 -0.11205347784E+04  0.11242219585E+04  0.79658319089E+02 0.  0.
        -11    1    3    3    0    0  0.19746124243E+02 -0.41469407650E+02 -0.83822857477E+03  0.83948601224E+03  0.00000000000E+00 0.  1.
         12    1    3    3    0    0  0.22537805930E+02  0.29492605492E+02 -0.28230620368E+03  0.28473594629E+03  0.00000000000E+00 0. -1.
         -4    1    1    2    0  502 -0.42283930173E+02  0.11976802158E+02 -0.23699697301E+03  0.24103721654E+03  0.00000000000E+00 0.  1.
<mgrwt>
<rscale>  1 0.90977043E+02</rscale>
<asrwt>0</asrwt>
<pdfrwt beam="1">  1       21 0.59441571E-03 0.90977043E+02</pdfrwt>
<pdfrwt beam="2">  1       -3 0.20944598E+00 0.90977043E+02</pdfrwt>
<totfact> 0.55320501E+04</totfact>
</mgrwt>
</event>
<event>
 6    2  0.9453093E+000  0.9272525E+02  0.7546771E-02  0.1296383E+00
          2   -1    0    0  502    0 -0.00000000000E+00  0.00000000000E+00  0.13717473095E+04  0.13717473095E+04  0.00000000000E+00 0. -1.
         21   -1    0    0  501  502  0.00000000000E+00 -0.00000000000E+00 -0.47547248391E+01  0.47547248391E+01  0.00000000000E+00 0. -1.
         24    2    1    2    0    0  0.15473940198E+02 -0.47130477914E+02  0.11578534300E+04  0.11615603893E+04  0.78340588298E+02 0.  0.
        -13    1    3    3    0    0 -0.69038825155E+01  0.38001137181E+01  0.11993693965E+02  0.14351068009E+02  0.00000000000E+00 0.  1.
         14    1    3    3    0    0  0.22377822713E+02 -0.50930591632E+02  0.11458597361E+04  0.11472093213E+04  0.00000000000E+00 0. -1.
          1    1    1    2  501    0 -0.15473940198E+02  0.47130477914E+02  0.20913915458E+03  0.21494164499E+03  0.00000000000E+00 0. -1.
<mgrwt>
<rscale>  1 0.92725253E+02</rscale>
<asrwt>0</asrwt>
<pdfrwt beam="1">  1       21 0.73149722E-03 0.92725253E+02</pdfrwt>
<pdfrwt beam="2">  1        2 0.21103773E+00 0.92725253E+02</pdfrwt>
<totfact> 0.12136259E+06</totfact>
</mgrwt>
</event>
<event>
 6    2  0.9453093E+000  0.9359007E+02  0.7546771E-02  0.1294384E+00
          2   -1    0    0  502    0 -0.00000000000E+00  0.00000000000E+00  0.13598678327E+04  0.13598678327E+04  0.00000000000E+00 0. -1.
         21   -1    0    0  501  502  0.00000000000E+00 -0.00000000000E+00 -0.94741141813E+01  0.94741141813E+01  0.00000000000E+00 0. -1.
         24    2    1    2    0    0 -0.43503940700E+02 -0.19483545532E+02  0.12850802145E+04  0.12884837055E+04  0.80541294004E+02 0.  0.
        -11    1    3    3    0    0 -0.26455705652E+02 -0.50098140949E+02  0.66244530112E+03  0.66486352364E+03  0.00000000000E+00 0.  1.
         12    1    3    3    0    0 -0.17048235048E+02  0.30614595417E+02  0.62263491342E+03  0.62362018183E+03  0.00000000000E+00 0. -1.
          1    1    1    2  501    0  0.43503940700E+02  0.19483545532E+02  0.65313503970E+02  0.80858241409E+02  0.00000000000E+00 0. -1.
<mgrwt>
<rscale>  1 0.93590071E+02</rscale>
<asrwt>0</asrwt>
<pdfrwt beam="1">  1       21 0.14575571E-02 0.93590071E+02</pdfrwt>
<pdfrwt beam="2">  1        2 0.20921028E+00 0.93590071E+02</pdfrwt>
<totfact> 0.41848993E+05</totfact>
</mgrwt>
</event>
<event>
 6    2  0.9453093E+000  0.8608906E+02  0.7546771E-02  0.1312609E+00
          2   -1    0    0  502    0 -0.00000000000E+00  0.00000000000E+00  0.10447355883E+04  0.10447355883E+04  0.00000000000E+00 0. -1.
         21   -1    0    0  501  502  0.00000000000E+00 -0.00000000000E+00 -0.33731601411E+01  0.33731601411E+01  0.00000000000E+00 0.  1.
         24    2    1    2    0    0  0.13729503908E+02 -0.28719932328E+02  0.70279740863E+03  0.70805050896E+03  0.79987448205E+02 0.  0.
        -11    1    3    3    0    0 -0.19384750165E+01 -0.43953998033E+02  0.20016474233E+03  0.20494300598E+03  0.00000000000E+00 0.  1.
         12    1    3    3    0    0  0.15667978925E+02  0.15234065705E+02  0.50263266630E+03  0.50310750298E+03  0.00000000000E+00 0. -1.
          1    1    1    2  501    0 -0.13729503908E+02  0.28719932328E+02  0.33856501949E+03  0.34005823944E+03  0.00000000000E+00 0. -1.
<mgrwt>
<rscale>  1 0.86089057E+02</rscale>
<asrwt>0</asrwt>
<pdfrwt beam="1">  1       21 0.51894855E-03 0.86089057E+02</pdfrwt>
<pdfrwt beam="2">  1        2 0.16072829E+00 0.86089057E+02</pdfrwt>
<totfact> 0.30802269E+06</totfact>
</mgrwt>
</event>
<event>
 6    2  0.9453093E+000  0.8342568E+02  0.7546771E-02  0.1319602E+00
         -1   -1    0    0    0  501 -0.00000000000E+00  0.00000000000E+00  0.32523727935E+03  0.32523727935E+03  0.00000000000E+00 0.  1.
         21   -1    0    0  501  502  0.00000000000E+00 -0.00000000000E+00 -0.13442648483E+02  0.13442648483E+02  0.00000000000E+00 0. -1.
         24    2    1    2    0    0  0.20138542322E+02  0.15629935799E+02  0.29848075444E+03  0.30992031925E+03  0.79435431242E+02 0.  0.
        -11    1    3    3    0    0 -0.32944004191E+01 -0.21394719862E+02  0.21072194033E+03  0.21183088361E+03  0.00000000000E+00 0.  1.
         12    1    3    3    0    0  0.23432942741E+02  0.37024655661E+02  0.87758814104E+02  0.98089435646E+02  0.00000000000E+00 0. -1.
         -2    1    1    2    0  502 -0.20138542322E+02 -0.15629935799E+02  0.13313876425E+02  0.28759608575E+02  0.00000000000E+00 0.  1.
<mgrwt>
<rscale>  1 0.83425677E+02</rscale>
<asrwt>0</asrwt>
<pdfrwt beam="1">  1       21 0.20681000E-02 0.83425677E+02</pdfrwt>
<pdfrwt beam="2">  1       -1 0.50036499E-01 0.83425677E+02</pdfrwt>
<totfact> 0.41179252E+05</totfact>
</mgrwt>
</event>
<event>
 6    2  0.9453093E+000  0.8599957E+02  0.7546771E-02  0.1312839E+00
          2   -1    0    0  502    0 -0.00000000000E+00  0.00000000000E+00  0.27239251726E+03  0.27239251726E+03  0.00000000000E+00 0. -1.
         21   -1    0    0  501  502  0.00000000000E+00 -0.00000000000E+00 -0.25547918881E+02  0.25547918881E+02  0.00000000000E+00 0. -1.
         24    2    1    2    0    0 -0.26787187979E+01 -0.26917987352E+02  0.25546270890E+03  0.26954984957E+03  0.81634381147E+02 0.  0.
        -11    1    3    3    0    0  0.23856223458E+02  0.13843341436E+02  0.39492303632E+02  0.48170525697E+02  0.00000000000E+00 0.  1.
         12    1    3    3    0    0 -0.26534942256E+02 -0.40761328788E+02  0.21597040527E+03  0.22137932387E+03  0.00000000000E+00 0. -1.
          1    1    1    2  501    0  0.26787187979E+01  0.26917987352E+02 -0.86181105155E+01  0.28390586580E+02  0.00000000000E+00 0. -1.
<mgrwt>
<rscale>  1 0.85999568E+02</rscale>
<asrwt>0</asrwt>
<pdfrwt beam="1">  1       21 0.39304493E-02 0.85999568E+02</pdfrwt>
<pdfrwt beam="2">  1        2 0.41906539E-01 0.85999568E+02</pdfrwt>
<totfact> 0.57108452E+05</totfact>
</mgrwt>
</event>
<event>
 6    2  0.9453093E+000  0.8659228E+02  0.7546771E-02  0.1311320E+00
          2   -1    0    0  502    0 -0.00000000000E+00  0.00000000000E+00  0.34348035108E+03  0.34348035108E+03  0.00000000000E+00 0. -1.
         21   -1    0    0  501  502  0.00000000000E+00 -0.00000000000E+00 -0.10925217442E+02  0.10925217442E+02  0.00000000000E+00 0.  1.
         24    2    1    2    0    0  0.28220819264E+02  0.14386784734E+02  0.27957547230E+03  0.29267843728E+03  0.80590500226E+02 0.  0.
        -13    1    3    3    0    0  0.21759620462E+02 -0.17372259938E+02  0.29703243550E+02  0.40713132714E+02  0.00000000000E+00 0.  1.
         14    1    3    3    0    0  0.64611988023E+01  0.31759044673E+02  0.24987222875E+03  0.25196530457E+03  0.00000000000E+00 0. -1.
          1    1    1    2  501    0 -0.28220819264E+02 -0.14386784734E+02  0.52979661340E+02  0.61727131236E+02  0.00000000000E+00 0. -1.
<mgrwt>
<rscale>  1 0.86592280E+02</rscale>
<asrwt>0</asrwt>
<pdfrwt beam="1">  1       21 0.16808029E-02 0.86592280E+02</pdfrwt>
<pdfrwt beam="2">  1        2 0.52843123E-01 0.86592280E+02</pdfrwt>
<totfact> 0.17677683E+06</totfact>
</mgrwt>
</event>
<event>
 6    2  0.9453093E+000  0.8406295E+02  0.7546771E-02  0.1317901E+00
          4   -1    0    0  502    0 -0.00000000000E+00  0.00000000000E+00  0.11106787490E+04  0.11106787490E+04  0.00000000000E+00 0. -1.
         21   -1    0    0  501  502  0.00000000000E+00 -0.00000000000E+00 -0.27927599820E+01  0.27927599820E+01  0.00000000000E+00 0.  1.
         24    2    1    2    0    0  0.18935083106E+02 -0.18066764660E+02  0.77056159081E+03  0.77513337193E+03  0.79885128091E+02 0.  0.
        -13    1    3    3    0    0 -0.14598398632E+02 -0.22794391354E+01  0.28104452236E+02  0.31751682174E+02  0.00000000000E+00 0.  1.
         14    1    3    3    0    0  0.33533481738E+02 -0.15787325524E+02  0.74245713858E+03  0.74338168976E+03  0.00000000000E+00 0. -1.
          3    1    1    2  501    0 -0.18935083106E+02  0.18066764660E+02  0.33732439817E+03  0.33833813702E+03  0.00000000000E+00 0. -1.
<mgrwt>
<rscale>  1 0.84062947E+02</rscale>
<asrwt>0</asrwt>
<pdfrwt beam="1">  1       21 0.42965627E-03 0.84062947E+02</pdfrwt>
<pdfrwt beam="2">  1        4 0.17087330E+00 0.84062947E+02</pdfrwt>
<totfact> 0.11884576E+05</totfact>
</mgrwt>
</event>
<event>
 6    2  0.9453093E+000  0.8462638E+02  0.7546771E-02  0.1316412E+00
          4   -1    0    0  502    0 -0.00000000000E+00  0.00000000000E+00  0.57335749836E+02  0.57335749836E+02  0.00000000000E+00 0. -1.
         21   -1    0    0  501  502  0.00000000000E+00 -0.00000000000E+00 -0.10681709991E+03  0.10681709991E+03  0.00000000000E+00 0. -1.
         24    2    1    2    0    0  0.27800356653E+02  0.16785649397E+02  0.20438391005E+02  0.87059477474E+02  0.78147341192E+02 0.  0.
        -11    1    3    3    0    0  0.15197213743E+02  0.39659271201E+02 -0.13198144610E+02  0.44474758222E+02  0.00000000000E+00 0.  1.
         12    1    3    3    0    0  0.12603142910E+02 -0.22873621804E+02  0.33636535615E+02  0.42584719252E+02  0.00000000000E+00 0. -1.
          3    1    1    2  501    0 -0.27800356653E+02 -0.16785649397E+02 -0.69919741081E+02  0.77093372274E+02  0.00000000000E+00 0. -1.
<mgrwt>
<rscale>  1 0.84626384E+02</rscale>
<asrwt>0</asrwt>
<pdfrwt beam="1">  1       21 0.16433400E-01 0.84626384E+02</pdfrwt>
<pdfrwt beam="2">  1        4 0.88208847E-02 0.84626384E+02</pdfrwt>
<totfact> 0.11666613E+05</totfact>
</mgrwt>
</event>
<event>
 6    2  0.9453093E+000  0.9625361E+02  0.7546771E-02  0.1288377E+00
         21   -1    0    0  501  502  0.00000000000E+00  0.00000000000E+00  0.84076572899E+01  0.84076572899E+01  0.00000000000E+00 0. -1.
          2   -1    0    0  502    0 -0.00000000000E+00 -0.00000000000E+00 -0.28042500306E+04  0.28042500306E+04  0.00000000000E+00 0. -1.
         24    2    1    2    0    0  0.43845738236E+02 -0.27391098607E+02 -0.27149527298E+04  0.27166584406E+04  0.81191360536E+02 0.  0.
        -13    1    3    3    0    0 -0.39569029532E+01 -0.20954747956E+02 -0.18178489860E+03  0.18303143965E+03  0.00000000000E+00 0.  1.
         14    1    3    3    0    0  0.47802641189E+02 -0.64363506506E+01 -0.25331678312E+04  0.25336270010E+04  0.00000000000E+00 0. -1.
          1    1    1    2  501    0 -0.43845738236E+02  0.27391098607E+02 -0.80889643499E+02  0.95999247235E+02  0.00000000000E+00 0. -1.
<mgrwt>
<rscale>  1 0.96253613E+02</rscale>
<asrwt>0</asrwt>
<pdfrwt beam="1">  1       21 0.12934869E-02 0.96253613E+02</pdfrwt>
<pdfrwt beam="2">  1        2 0.43142268E+00 0.96253613E+02</pdfrwt>
<totfact> 0.90997385E+04</totfact>
</mgrwt>
</event>
<event>
 6    2  0.9453093E+000  0.8491967E+02  0.7546771E-02  0.1315643E+00
          2   -1    0    0  502    0 -0.00000000000E+00  0.00000000000E+00  0.11803705654E+04  0.11803705654E+04  0.00000000000E+00 0. -1.
         21   -1    0    0  501  502  0.00000000000E+00 -0.00000000000E+00 -0.27926798564E+01  0.27926798564E+01  0.00000000000E+00 0.  1.
         24    2    1    2    0    0 -0.21777102497E+02  0.70728485569E+01  0.10587051544E+04  0.10621054344E+04  0.81774582068E+02 0.  0.
        -13    1    3    3    0    0  0.78745499666E+01 -0.45431693501E-01  0.90051033700E+01  0.11962545211E+02  0.00000000000E+00 0.  1.
         14    1    3    3    0    0 -0.29651652463E+02  0.71182802504E+01  0.10497000511E+04  0.10501428891E+04  0.00000000000E+00 0. -1.
          1    1    1    2  501    0  0.21777102497E+02 -0.70728485569E+01  0.11887273111E+03  0.12105781091E+03  0.00000000000E+00 0. -1.
<mgrwt>
<rscale>  1 0.84919666E+02</rscale>
<asrwt>0</asrwt>
<pdfrwt beam="1">  1       21 0.42964400E-03 0.84919666E+02</pdfrwt>
<pdfrwt beam="2">  1        2 0.18159507E+00 0.84919666E+02</pdfrwt>
<totfact> 0.34485798E+06</totfact>
</mgrwt>
</event>
<event>
 6    2  0.9453093E+000  0.1209725E+03  0.7546771E-02  0.1241501E+00
         21   -1    0    0  501  502  0.00000000000E+00  0.00000000000E+00  0.48577683699E+02  0.48577683699E+02  0.00000000000E+00 0. -1.
          4   -1    0    0  502    0 -0.00000000000E+00 -0.00000000000E+00 -0.27040400794E+03  0.27040400794E+03  0.00000000000E+00 0. -1.
         24    2    1    2    0    0  0.59669050083E+02 -0.71512121041E+02 -0.18002509865E+03  0.21689485873E+03  0.77200807016E+02 0.  0.
        -11    1    3    3    0    0 -0.15459706590E+02 -0.24904593821E+02 -0.25439095880E+02  0.38812226430E+02  0.00000000000E+00 0.  1.
         12    1    3    3    0    0  0.75128756674E+02 -0.46607527219E+02 -0.15458600277E+03  0.17808263230E+03  0.00000000000E+00 0. -1.
          3    1    1    2  501    0 -0.59669050083E+02  0.71512121041E+02 -0.41801225593E+02  0.10208683292E+03  0.00000000000E+00 0. -1.
<mgrwt>
<rscale>  1 0.12097249E+03</rscale>
<asrwt>0</asrwt>
<pdfrwt beam="1">  1       21 0.74734898E-02 0.12097249E+03</pdfrwt>
<pdfrwt beam="2">  1        4 0.41600617E-01 0.12097249E+03</pdfrwt>
<totfact> 0.30415803E+04</totfact>
</mgrwt>
</event>
<event>
 6    2  0.9453093E+000  0.9007341E+02  0.7546771E-02  0.1302674E+00
         21   -1    0    0  501  502  0.00000000000E+00  0.00000000000E+00  0.58716815279E+01  0.58716815279E+01  0.00000000000E+00 0.  1.
          2   -1    0    0  502    0 -0.00000000000E+00 -0.00000000000E+00 -0.74083633221E+03  0.74083633221E+03  0.00000000000E+00 0. -1.
         24    2    1    2    0    0 -0.32960760968E+02 -0.25760777926E+02 -0.50015501988E+03  0.50820100721E+03  0.79769608126E+02 0.  0.
        -13    1    3    3    0    0 -0.14014150275E+00 -0.25241626849E+02 -0.42943357179E+02  0.49812561583E+02  0.00000000000E+00 0.  1.
         14    1    3    3    0    0 -0.32820619465E+02 -0.51915107690E+00 -0.45721166270E+03  0.45838844563E+03  0.00000000000E+00 0. -1.
          1    1    1    2  501    0  0.32960760968E+02  0.25760777926E+02 -0.23480963081E+03  0.23850700653E+03  0.00000000000E+00 0. -1.
<mgrwt>
<rscale>  1 0.90073414E+02</rscale>
<asrwt>0</asrwt>
<pdfrwt beam="1">  1       21 0.90333580E-03 0.90073414E+02</pdfrwt>
<pdfrwt beam="2">  1        2 0.11397480E+00 0.90073414E+02</pdfrwt>
<totfact> 0.20363258E+06</totfact>
</mgrwt>
</event>
<event>
 6    2  0.9453093E+000  0.8343857E+02  0.7546771E-02  0.1319567E+00
          2   -1    0    0  502    0 -0.00000000000E+00  0.00000000000E+00  0.62366175546E+02  0.62366175546E+02  0.00000000000E+00 0. -1.
         21   -1    0    0  501  502  0.00000000000E+00 -0.00000000000E+00 -0.73905861067E+02  0.73905861067E+02  0.00000000000E+00 0.  1.
         24    2    1    2    0    0 -0.87793939977E+01 -0.21906742372E+02 -0.45406328520E+02  0.94993317782E+02  0.80031322826E+02 0.  0.
        -13    1    3    3    0    0  0.99054792126E+01  0.98855245929E+01 -0.55111999761E+02  0.56861011533E+02  0.00000000000E+00 0.  1.
         14    1    3    3    0    0 -0.18684873210E+02 -0.31792266964E+02  0.97056712408E+01  0.38132306249E+02  0.00000000000E+00 0. -1.
          1    1    1    2  501    0  0.87793939977E+01  0.21906742372E+02  0.33866642999E+02  0.41278718831E+02  0.00000000000E+00 0. -1.
<mgrwt>
<rscale>  1 0.83438575E+02</rscale>
<asrwt>0</asrwt>
<pdfrwt beam="1">  1       21 0.11370133E-01 0.83438575E+02</pdfrwt>
<pdfrwt beam="2">  1        2 0.95947962E-02 0.83438575E+02</pdfrwt>
<totfact> 0.49260209E+05</totfact>
</mgrwt>
</event>
<event>
 6    2  0.9453093E+000  0.8873979E+02  0.7546771E-02  0.1305932E+00
         21   -1    0    0  501  502  0.00000000000E+00  0.00000000000E+00  0.19145582536E+03  0.19145582536E+03  0.00000000000E+00 0.  1.
          2   -1    0    0  502    0 -0.00000000000E+00 -0.00000000000E+00 -0.19527296869E+02  0.19527296869E+02  0.00000000000E+00 0. -1.
         24    2    1    2    0    0 -0.27966485861E+02  0.17670298939E+02  0.11673541468E+03  0.14663528926E+03  0.82343106687E+02 0.  0.
        -11    1    3    3    0    0 -0.23613930153E+02  0.25597065681E+02  0.12773398385E+03  0.13239636739E+03  0.00000000000E+00 0.  1.
         12    1    3    3    0    0 -0.43525557079E+01 -0.79267667418E+01 -0.10998569168E+02  0.14238921866E+02  0.00000000000E+00 0. -1.
          1    1    1    2  501    0  0.27966485861E+02 -0.17670298939E+02  0.55193113816E+02  0.64347832977E+02  0.00000000000E+00 0. -1.
<mgrwt>
<rscale>  1 0.88739794E+02</rscale>
<asrwt>0</asrwt>
<pdfrwt beam="1">  1       21 0.29454741E-01 0.88739794E+02</pdfrwt>
<pdfrwt beam="2">  1        2 0.30041997E-02 0.88739794E+02</pdfrwt>
<totfact> 0.38736038E+05</totfact>
</mgrwt>
</event>
<event>
 6    2  0.9453093E+000  0.8658071E+02  0.7546771E-02  0.1311350E+00
         -1   -1    0    0    0  501 -0.00000000000E+00  0.00000000000E+00  0.37718879056E+02  0.37718879056E+02  0.00000000000E+00 0.  1.
         21   -1    0    0  501  502  0.00000000000E+00 -0.00000000000E+00 -0.12766381282E+03  0.12766381282E+03  0.00000000000E+00 0. -1.
         24    2    1    2    0    0  0.68791882225E+01 -0.33397466246E+02 -0.97565940517E+02  0.13044283318E+03  0.79583327373E+02 0.  0.
        -11    1    3    3    0    0  0.36398907642E+02 -0.48084318582E+01 -0.17997462583E+02  0.40888997956E+02  0.00000000000E+00 0.  1.
         12    1    3    3    0    0 -0.29519719419E+02 -0.28589034388E+02 -0.79568477934E+02  0.89553835219E+02  0.00000000000E+00 0. -1.
         -2    1    1    2    0  502 -0.68791882225E+01  0.33397466246E+02  0.76210067505E+01  0.34939858703E+02  0.00000000000E+00 0.  1.
<mgrwt>
<rscale>  1 0.86580714E+02</rscale>
<asrwt>0</asrwt>
<pdfrwt beam="1">  1       21 0.19640587E-01 0.86580714E+02</pdfrwt>
<pdfrwt beam="2">  1       -1 0.58029045E-02 0.86580714E+02</pdfrwt>
<totfact> 0.27931129E+05</totfact>
</mgrwt>
</event>
<event>
 6    2  0.9453093E+000  0.9756888E+02  0.7546771E-02  0.1285493E+00
          2   -1    0    0  502    0 -0.00000000000E+00  0.00000000000E+00  0.41837232040E+04  0.41837232040E+04  0.00000000000E+00 0. -1.
         21   -1    0    0  501  502  0.00000000000E+00 -0.00000000000E+00 -0.16375825575E+01  0.16375825575E+01  0.00000000000E+00 0.  1.
         24    2    1    2    0    0 -0.20530619472E+02 -0.51397376066E+02  0.18085264824E+04  0.18111564603E+04  0.80352282496E+02 0.  0.
        -13    1    3    3    0    0 -0.64801832826E+00 -0.34406334795E+01  0.23110419233E+01  0.41950925217E+01  0.00000000000E+00 0.  1.
         14    1    3    3    0    0 -0.19882601143E+02 -0.47956742586E+02  0.18062154405E+04  0.18069613677E+04  0.00000000000E+00 0. -1.
          1    1    1    2  501    0  0.20530619472E+02  0.51397376066E+02  0.23735591390E+04  0.23742043263E+04  0.00000000000E+00 0. -1.
<mgrwt>
<rscale>  1 0.97568878E+02</rscale>
<asrwt>0</asrwt>
<pdfrwt beam="1">  1       21 0.25193913E-03 0.97568878E+02</pdfrwt>
<pdfrwt beam="2">  1        2 0.64364117E+00 0.97568878E+02</pdfrwt>
<totfact> 0.14412387E+05</totfact>
</mgrwt>
</event>
<event>
 6    2  0.9453093E+000  0.8600425E+02  0.7546771E-02  0.1312827E+00
         -1   -1    0    0    0  501 -0.00000000000E+00  0.00000000000E+00  0.16742406184E+03  0.16742406184E+03  0.00000000000E+00 0.  1.
         21   -1    0    0  501  502  0.00000000000E+00 -0.00000000000E+00 -0.34965672668E+02  0.34965672668E+02  0.00000000000E+00 0. -1.
         24    2    1    2    0    0 -0.71513473651E+01  0.30934615087E+02  0.14472589264E+03  0.16835175835E+03  0.79928958199E+02 0.  0.
        -13    1    3    3    0    0  0.27219595438E+01  0.35736630782E+02  0.15134560877E+03  0.15553137669E+03  0.00000000000E+00 0.  1.
         14    1    3    3    0    0 -0.98733069090E+01 -0.48020156952E+01 -0.66197161297E+01  0.12820381652E+02  0.00000000000E+00 0. -1.
         -2    1    1    2    0  502  0.71513473651E+01 -0.30934615087E+02 -0.12267503468E+02  0.34037976160E+02  0.00000000000E+00 0.  1.
<mgrwt>
<rscale>  1 0.86004247E+02</rscale>
<asrwt>0</asrwt>
<pdfrwt beam="1">  1       21 0.53793343E-02 0.86004247E+02</pdfrwt>
<pdfrwt beam="2">  1       -1 0.25757548E-01 0.86004247E+02</pdfrwt>
<totfact> 0.26960211E+05</totfact>
</mgrwt>
</event>
<event>
 6    2  0.9453093E+000  0.8320001E+02  0.7546771E-02  0.1320208E+00
          2   -1    0    0  502    0 -0.00000000000E+00  0.00000000000E+00  0.58283159650E+03  0.58283159650E+03  0.00000000000E+00 0. -1.
         21   -1    0    0  501  502  0.00000000000E+00 -0.00000000000E+00 -0.51590978939E+01  0.51590978939E+01  0.00000000000E+00 0. -1.
         24    2    1    2    0    0  0.12120701464E+02  0.18452727647E+02  0.51175902550E+03  0.51847810202E+03  0.80217376750E+02 0.  0.
        -13    1    3    3    0    0  0.33042731243E+02  0.10795625367E+02  0.95610880659E+02  0.10173400668E+03  0.00000000000E+00 0.  1.
         14    1    3    3    0    0 -0.20922029780E+02  0.76571022794E+01  0.41614814484E+03  0.41674409534E+03  0.00000000000E+00 0. -1.
          1    1    1    2  501    0 -0.12120701464E+02 -0.18452727647E+02  0.65913473110E+02  0.69512592377E+02  0.00000000000E+00 0. -1.
<mgrwt>
<rscale>  1 0.83200013E+02</rscale>
<asrwt>0</asrwt>
<pdfrwt beam="1">  1       21 0.79370783E-03 0.83200013E+02</pdfrwt>
<pdfrwt beam="2">  1        2 0.89666347E-01 0.83200013E+02</pdfrwt>
<totfact> 0.32460349E+06</totfact>
</mgrwt>
</event>
<event>
 6    2  0.9453093E+000  0.8359538E+02  0.7546771E-02  0.1319147E+00
          2   -1    0    0  502    0 -0.00000000000E+00  0.00000000000E+00  0.19714851380E+04  0.19714851380E+04  0.00000000000E+00 0. -1.
         21   -1    0    0  501  502  0.00000000000E+00 -0.00000000000E+00 -0.18241107815E+01  0.18241107815E+01  0.00000000000E+00 0.  1.
         24    2    1    2    0    0  0.11291107215E+02  0.24044859147E+02  0.10716966891E+04  0.10749520833E+04  0.79262497267E+02 0.  0.
        -13    1    3    3    0    0 -0.30294918748E+02  0.22388506835E+02  0.34174514250E+03  0.34381502260E+03  0.00000000000E+00 0.  1.
         14    1    3    3    0    0  0.41586025963E+02  0.16563523120E+01  0.72995154661E+03  0.73113706065E+03  0.00000000000E+00 0. -1.
          1    1    1    2  501    0 -0.11291107215E+02 -0.24044859147E+02  0.89796433813E+03  0.89835716556E+03  0.00000000000E+00 0. -1.
<mgrwt>
<rscale>  1 0.83595382E+02</rscale>
<asrwt>0</asrwt>
<pdfrwt beam="1">  1       21 0.28063400E-03 0.83595382E+02</pdfrwt>
<pdfrwt beam="2">  1        2 0.30330370E+00 0.83595382E+02</pdfrwt>
<totfact> 0.25908955E+06</totfact>
</mgrwt>
</event>
<event>
 6    2  0.9453093E+000  0.8641728E+02  0.7546771E-02  0.1311767E+00
         21   -1    0    0  501  502  0.00000000000E+00  0.00000000000E+00  0.40206726602E+01  0.40206726602E+01  0.00000000000E+00 0.  1.
          2   -1    0    0  502    0 -0.00000000000E+00 -0.00000000000E+00 -0.81753434547E+03  0.81753434547E+03  0.00000000000E+00 0. -1.
         24    2    1    2    0    0  0.25996130908E+02  0.52932526435E+01 -0.55559383127E+03  0.56227435552E+03  0.82244320047E+02 0.  0.
        -13    1    3    3    0    0 -0.29006089571E+02 -0.44363953115E-01 -0.13611691072E+03  0.13917316043E+03  0.00000000000E+00 0.  1.
         14    1    3    3    0    0  0.55002220479E+02  0.53376165966E+01 -0.41947692055E+03  0.42310119508E+03  0.00000000000E+00 0. -1.
          1    1    1    2  501    0 -0.25996130908E+02 -0.52932526435E+01 -0.25791984154E+03  0.25928066261E+03  0.00000000000E+00 0. -1.
<mgrwt>
<rscale>  1 0.86417276E+02</rscale>
<asrwt>0</asrwt>
<pdfrwt beam="1">  1       21 0.61856410E-03 0.86417276E+02</pdfrwt>
<pdfrwt beam="2">  1        2 0.12577470E+00 0.86417276E+02</pdfrwt>
<totfact> 0.32350210E+06</totfact>
</mgrwt>
</event>
<event>
 6    2  0.9453093E+000  0.8562737E+02  0.7546771E-02  0.1313800E+00
         21   -1    0    0  501  502  0.00000000000E+00  0.00000000000E+00  0.33509947333E+01  0.33509947333E+01  0.00000000000E+00 0. -1.
          2   -1    0    0  502    0 -0.00000000000E+00 -0.00000000000E+00 -0.98000830389E+03  0.98000830389E+03  0.00000000000E+00 0. -1.
         24    2    1    2    0    0  0.12029367487E+02 -0.24752783936E+02 -0.80026303315E+03  0.80483101907E+03  0.81084160139E+02 0.  0.
        -13    1    3    3    0    0 -0.20879501001E+02  0.20699535610E+02 -0.29493536956E+03  0.29639719391E+03  0.00000000000E+00 0.  1.
         14    1    3    3    0    0  0.32908868487E+02 -0.45452319546E+02 -0.50532766359E+03  0.50843382516E+03  0.00000000000E+00 0. -1.
          1    1    1    2  501    0 -0.12029367487E+02  0.24752783936E+02 -0.17639427601E+03  0.17852827956E+03  0.00000000000E+00 0. -1.
<mgrwt>
<rscale>  1 0.85627373E+02</rscale>
<asrwt>0</asrwt>
<pdfrwt beam="1">  1       21 0.51553792E-03 0.85627373E+02</pdfrwt>
<pdfrwt beam="2">  1        2 0.15077043E+00 0.85627373E+02</pdfrwt>
<totfact> 0.33911243E+06</totfact>
</mgrwt>
</event>
<event>
 6    2  0.9453093E+000  0.9119569E+02  0.7546771E-02  0.1299982E+00
         21   -1    0    0  501  502  0.00000000000E+00  0.00000000000E+00  0.49180782187E+03  0.49180782187E+03  0.00000000000E+00 0. -1.
         -1   -1    0    0    0  501 -0.00000000000E+00 -0.00000000000E+00 -0.11092141735E+02  0.11092141735E+02  0.00000000000E+00 0.  1.
         24    2    1    2    0    0 -0.92917944215E+01 -0.31246054693E+02  0.19432350544E+03  0.21465851776E+03  0.85170423872E+02 0.  0.
        -11    1    3    3    0    0  0.13847260465E+02 -0.24095217001E+02  0.11236149744E+02  0.29976276716E+02  0.00000000000E+00 0.  1.
         12    1    3    3    0    0 -0.23139054886E+02 -0.71508376926E+01  0.18308735570E+03  0.18468224104E+03  0.00000000000E+00 0. -1.
         -2    1    1    2    0  502  0.92917944215E+01  0.31246054693E+02  0.28639217469E+03  0.28824144584E+03  0.00000000000E+00 0.  1.
<mgrwt>
<rscale>  1 0.91195693E+02</rscale>
<asrwt>0</asrwt>
<pdfrwt beam="1">  1       21 0.75662725E-01 0.91195693E+02</pdfrwt>
<pdfrwt beam="2">  1       -1 0.17064837E-02 0.91195693E+02</pdfrwt>
<totfact> 0.11338913E+05</totfact>
</mgrwt>
</event>
<event>
 6    2  0.9453093E+000  0.6629979E+02  0.7546771E-02  0.1373148E+00
          2   -1    0    0  502    0 -0.00000000000E+00  0.00000000000E+00  0.20645725811E+04  0.20645725811E+04  0.00000000000E+00 0. -1.
         21   -1    0    0  501  502  0.00000000000E+00 -0.00000000000E+00 -0.10482058277E+01  0.10482058277E+01  0.00000000000E+00 0.  1.
         24    2    1    2    0    0  0.77903674518E+01 -0.23642958054E+02  0.12984715864E+04  0.13001631140E+04  0.61449027769E+02 0.  0.
        -11    1    3    3    0    0 -0.85256795020E+01 -0.18238003006E+02  0.12868848619E+03  0.13025374636E+03  0.00000000000E+00 0.  1.
         12    1    3    3    0    0  0.16316046954E+02 -0.54049550482E+01  0.11697831002E+04  0.11699093677E+04  0.00000000000E+00 0. -1.
          1    1    1    2  501    0 -0.77903674518E+01  0.23642958054E+02  0.76505278886E+03  0.76545767292E+03  0.00000000000E+00 0. -1.
<mgrwt>
<rscale>  1 0.66299791E+02</rscale>
<asrwt>0</asrwt>
<pdfrwt beam="1">  1       21 0.16126409E-03 0.66299791E+02</pdfrwt>
<pdfrwt beam="2">  1        2 0.31762330E+00 0.66299791E+02</pdfrwt>
<totfact> 0.52218712E+06</totfact>
</mgrwt>
</event>
<event>
 6    2  0.9453093E+000  0.9067677E+02  0.7546771E-02  0.1301221E+00
         -3   -1    0    0    0  501 -0.00000000000E+00  0.00000000000E+00  0.56548265780E+03  0.56548265780E+03  0.00000000000E+00 0.  1.
         21   -1    0    0  501  502  0.00000000000E+00 -0.00000000000E+00 -0.11646610952E+02  0.11646610952E+02  0.00000000000E+00 0. -1.
         24    2    1    2    0    0 -0.34398694627E+02  0.24561505922E+02  0.50257470660E+03  0.51068935026E+03  0.80223057726E+02 0.  0.
        -11    1    3    3    0    0 -0.22175907895E+02 -0.27570219710E+02  0.25082559017E+03  0.25330883243E+03  0.00000000000E+00 0.  1.
         12    1    3    3    0    0 -0.12222786732E+02  0.52131725631E+02  0.25174911643E+03  0.25738051783E+03  0.00000000000E+00 0. -1.
         -4    1    1    2    0  502  0.34398694627E+02 -0.24561505922E+02  0.51261340248E+02  0.66439918492E+02  0.00000000000E+00 0.  1.
<mgrwt>
<rscale>  1 0.90676771E+02</rscale>
<asrwt>0</asrwt>
<pdfrwt beam="1">  1       21 0.17917867E-02 0.90676771E+02</pdfrwt>
<pdfrwt beam="2">  1       -3 0.86997311E-01 0.90676771E+02</pdfrwt>
<totfact> 0.82669844E+04</totfact>
</mgrwt>
</event>
<event>
 6    2  0.9453093E+000  0.9330872E+02  0.7546771E-02  0.1295031E+00
         21   -1    0    0  501  502  0.00000000000E+00  0.00000000000E+00  0.76215015447E+01  0.76215015447E+01  0.00000000000E+00 0.  1.
          4   -1    0    0  502    0 -0.00000000000E+00 -0.00000000000E+00 -0.79299263496E+03  0.79299263496E+03  0.00000000000E+00 0. -1.
         24    2    1    2    0    0  0.22020161656E+02  0.41289261113E+02 -0.66418677618E+03  0.67070902097E+03  0.80726863935E+02 0.  0.
        -11    1    3    3    0    0  0.43651705894E+02  0.36342176058E+02 -0.60215144604E+03  0.60482442837E+03  0.00000000000E+00 0.  1.
         12    1    3    3    0    0 -0.21631544238E+02  0.49470850542E+01 -0.62035330137E+02  0.65884592599E+02  0.00000000000E+00 0. -1.
          3    1    1    2  501    0 -0.22020161656E+02 -0.41289261113E+02 -0.12118435724E+03  0.12990511553E+03  0.00000000000E+00 0. -1.
<mgrwt>
<rscale>  1 0.93308720E+02</rscale>
<asrwt>0</asrwt>
<pdfrwt beam="1">  1       21 0.11725390E-02 0.93308720E+02</pdfrwt>
<pdfrwt beam="2">  1        4 0.12199883E+00 0.93308720E+02</pdfrwt>
<totfact> 0.59245912E+04</totfact>
</mgrwt>
</event>
<event>
 6    2  0.9453093E+000  0.1059797E+03  0.7546771E-02  0.1268201E+00
         21   -1    0    0  501  502  0.00000000000E+00  0.00000000000E+00  0.79662297497E+02  0.79662297497E+02  0.00000000000E+00 0. -1.
         -1   -1    0    0    0  501 -0.00000000000E+00 -0.00000000000E+00 -0.15549570916E+03  0.15549570916E+03  0.00000000000E+00 0.  1.
         24    2    1    2    0    0 -0.59719186777E+02 -0.40192053780E+02  0.27251204754E+02  0.10942726023E+03  0.77781197368E+02 0.  0.
        -13    1    3    3    0    0 -0.17958394407E+02  0.40444383851E+01 -0.23745617702E+02  0.30045228765E+02  0.00000000000E+00 0.  1.
         14    1    3    3    0    0 -0.41760792370E+02 -0.44236492165E+02  0.50996822456E+02  0.79382031462E+02  0.00000000000E+00 0. -1.
         -2    1    1    2    0  502  0.59719186777E+02  0.40192053780E+02 -0.10308461642E+03  0.12573074643E+03  0.00000000000E+00 0.  1.
<mgrwt>
<rscale>  1 0.10597970E+03</rscale>
<asrwt>0</asrwt>
<pdfrwt beam="1">  1       21 0.12255738E-01 0.10597970E+03</pdfrwt>
<pdfrwt beam="2">  1       -1 0.23922416E-01 0.10597970E+03</pdfrwt>
<totfact> 0.75254287E+04</totfact>
</mgrwt>
</event>
<event>
 6    2  0.9453093E+000  0.8926765E+02  0.7546771E-02  0.1304635E+00
          2   -1    0    0  502    0 -0.00000000000E+00  0.00000000000E+00  0.10082927989E+03  0.10082927989E+03  0.00000000000E+00 0. -1.
         21   -1    0    0  501  502  0.00000000000E+00 -0.00000000000E+00 -0.39047124229E+02  0.39047124229E+02  0.00000000000E+00 0.  1.
         24    2    1    2    0    0 -0.23135350312E+02  0.27230427361E+02  0.49621140872E+02  0.10213212126E+03  0.81804473976E+02 0.  0.
        -11    1    3    3    0    0 -0.36597757447E+02 -0.84621671378E+01 -0.23808071821E+01  0.37638708342E+02  0.00000000000E+00 0.  1.
         12    1    3    3    0    0  0.13462407135E+02  0.35692594499E+02  0.52001948054E+02  0.64493412914E+02  0.00000000000E+00 0. -1.
          1    1    1    2  501    0  0.23135350312E+02 -0.27230427361E+02  0.12161014793E+02  0.37744282866E+02  0.00000000000E+00 0. -1.
<mgrwt>
<rscale>  1 0.89267646E+02</rscale>
<asrwt>0</asrwt>
<pdfrwt beam="1">  1       21 0.60072499E-02 0.89267646E+02</pdfrwt>
<pdfrwt beam="2">  1        2 0.15512197E-01 0.89267646E+02</pdfrwt>
<totfact> 0.83683602E+05</totfact>
</mgrwt>
</event>
<event>
 6    2  0.9453093E+000  0.9215771E+02  0.7546771E-02  0.1297709E+00
          2   -1    0    0  502    0 -0.00000000000E+00  0.00000000000E+00  0.24798123038E+03  0.24798123038E+03  0.00000000000E+00 0. -1.
         21   -1    0    0  501  502  0.00000000000E+00 -0.00000000000E+00 -0.19040461097E+02  0.19040461097E+02  0.00000000000E+00 0.  1.
         24    2    1    2    0    0 -0.18315192434E+02 -0.40828598382E+02  0.14288922712E+03  0.17003051338E+03  0.80564406123E+02 0.  0.
        -11    1    3    3    0    0 -0.14904281333E+02 -0.58095946202E+01 -0.59665035385E+01  0.17073024225E+02  0.00000000000E+00 0.  1.
         12    1    3    3    0    0 -0.34109111013E+01 -0.35019003761E+02  0.14885573066E+03  0.15295748916E+03  0.00000000000E+00 0. -1.
          1    1    1    2  501    0  0.18315192434E+02  0.40828598382E+02  0.86051542161E+02  0.96991178094E+02  0.00000000000E+00 0. -1.
<mgrwt>
<rscale>  1 0.92157714E+02</rscale>
<asrwt>0</asrwt>
<pdfrwt beam="1">  1       21 0.29293019E-02 0.92157714E+02</pdfrwt>
<pdfrwt beam="2">  1        2 0.38150956E-01 0.92157714E+02</pdfrwt>
<totfact> 0.10256436E+06</totfact>
</mgrwt>
</event>
<event>
 6    2  0.9453093E+000  0.1720233E+03  0.7546771E-02  0.1175754E+00
         21   -1    0    0  501  502  0.00000000000E+00  0.00000000000E+00  0.11256168628E+02  0.11256168628E+02  0.00000000000E+00 0.  1.
          2   -1    0    0  502    0 -0.00000000000E+00 -0.00000000000E+00 -0.28461434111E+04  0.28461434111E+04  0.00000000000E+00 0. -1.
         24    2    1    2    0    0  0.98527752408E+02 -0.11878889233E+03 -0.89493571479E+03  0.91131878781E+03  0.75983422309E+02 0.  0.
        -11    1    3    3    0    0  0.83008829849E+02 -0.12892645361E+03 -0.78604049498E+03  0.80085713834E+03  0.00000000000E+00 0.  1.
         12    1    3    3    0    0  0.15518922560E+02  0.10137561286E+02 -0.10889521981E+03  0.11046164947E+03  0.00000000000E+00 0. -1.
          1    1    1    2  501    0 -0.98527752408E+02  0.11878889233E+03 -0.19399515277E+04  0.19460807919E+04  0.00000000000E+00 0. -1.
<mgrwt>
<rscale>  1 0.17202325E+03</rscale>
<asrwt>0</asrwt>
<pdfrwt beam="1">  1       21 0.17317198E-02 0.17202325E+03</pdfrwt>
<pdfrwt beam="2">  1        2 0.43786783E+00 0.17202325E+03</pdfrwt>
<totfact> 0.52776863E+04</totfact>
</mgrwt>
</event>
<event>
 6    2  0.9453093E+000  0.9272136E+02  0.7546771E-02  0.1296392E+00
         21   -1    0    0  501  502  0.00000000000E+00  0.00000000000E+00  0.16978933891E+02  0.16978933891E+02  0.00000000000E+00 0.  1.
         -1   -1    0    0    0  501 -0.00000000000E+00 -0.00000000000E+00 -0.40585975305E+03  0.40585975305E+03  0.00000000000E+00 0.  1.
         24    2    1    2    0    0 -0.39091769985E+02  0.28167644874E+02 -0.34642752764E+03  0.35862136328E+03  0.79219111274E+02 0.  0.
        -11    1    3    3    0    0 -0.23615700256E+01  0.23329814753E+02 -0.29105657630E+03  0.29199963678E+03  0.00000000000E+00 0.  1.
         12    1    3    3    0    0 -0.36730199959E+02  0.48378301209E+01 -0.55370951341E+02  0.66621726499E+02  0.00000000000E+00 0. -1.
         -2    1    1    2    0  502  0.39091769985E+02 -0.28167644874E+02 -0.42453291520E+02  0.64217323669E+02  0.00000000000E+00 0.  1.
<mgrwt>
<rscale>  1 0.92721358E+02</rscale>
<asrwt>0</asrwt>
<pdfrwt beam="1">  1       21 0.26121435E-02 0.92721358E+02</pdfrwt>
<pdfrwt beam="2">  1       -1 0.62439965E-01 0.92721358E+02</pdfrwt>
<totfact> 0.18967541E+05</totfact>
</mgrwt>
</event>
<event>
 6    2  0.9453093E+000  0.8469211E+02  0.7546771E-02  0.1316240E+00
         21   -1    0    0  501  502  0.00000000000E+00  0.00000000000E+00  0.73436664393E+01  0.73436664393E+01  0.00000000000E+00 0. -1.
          2   -1    0    0  502    0 -0.00000000000E+00 -0.00000000000E+00 -0.93441194452E+03  0.93441194452E+03  0.00000000000E+00 0. -1.
         24    2    1    2    0    0 -0.12647842237E+02  0.21506501261E+02 -0.90341379821E+03  0.90737491976E+03  0.80933656126E+02 0.  0.
        -11    1    3    3    0    0  0.80044971722E+00 -0.13769156415E+02 -0.28651974548E+02  0.31798836985E+02  0.00000000000E+00 0.  1.
         12    1    3    3    0    0 -0.13448291954E+02  0.35275657676E+02 -0.87476182367E+03  0.87557608277E+03  0.00000000000E+00 0. -1.
          1    1    1    2  501    0  0.12647842237E+02 -0.21506501261E+02 -0.23654479870E+02  0.34380691204E+02  0.00000000000E+00 0. -1.
<mgrwt>
<rscale>  1 0.84692114E+02</rscale>
<asrwt>0</asrwt>
<pdfrwt beam="1">  1       21 0.11297956E-02 0.84692114E+02</pdfrwt>
<pdfrwt beam="2">  1        2 0.14375558E+00 0.84692114E+02</pdfrwt>
<totfact> 0.10702426E+06</totfact>
</mgrwt>
</event>
<event>
 6    2  0.9453093E+000  0.7260436E+02  0.7546771E-02  0.1351454E+00
          2   -1    0    0  502    0 -0.00000000000E+00  0.00000000000E+00  0.11458730502E+03  0.11458730502E+03  0.00000000000E+00 0. -1.
         21   -1    0    0  501  502  0.00000000000E+00 -0.00000000000E+00 -0.50144854470E+02  0.50144854470E+02  0.00000000000E+00 0. -1.
         24    2    1    2    0    0 -0.91064158086E+01 -0.27243497952E+02  0.97097617671E+02  0.12124083933E+03  0.66680272751E+02 0.  0.
        -13    1    3    3    0    0  0.17699334902E+02 -0.21415795396E+02  0.93641861145E+01  0.29318777771E+02  0.00000000000E+00 0.  1.
         14    1    3    3    0    0 -0.26805750711E+02 -0.58277025562E+01  0.87733431556E+02  0.91922061557E+02  0.00000000000E+00 0. -1.
          1    1    1    2  501    0  0.91064158086E+01  0.27243497952E+02 -0.32655167122E+02  0.43491320161E+02  0.00000000000E+00 0. -1.
<mgrwt>
<rscale>  1 0.72604365E+02</rscale>
<asrwt>0</asrwt>
<pdfrwt beam="1">  1       21 0.77145930E-02 0.72604365E+02</pdfrwt>
<pdfrwt beam="2">  1        2 0.17628816E-01 0.72604365E+02</pdfrwt>
<totfact> 0.46439252E+05</totfact>
</mgrwt>
</event>
<event>
 6    2  0.9453093E+000  0.8619134E+02  0.7546771E-02  0.1312346E+00
         21   -1    0    0  501  502  0.00000000000E+00  0.00000000000E+00  0.38062916109E+02  0.38062916109E+02  0.00000000000E+00 0.  1.
          2   -1    0    0  502    0 -0.00000000000E+00 -0.00000000000E+00 -0.14642340406E+03  0.14642340406E+03  0.00000000000E+00 0. -1.
         24    2    1    2    0    0  0.38807116881E+01 -0.30910060161E+02 -0.12289722824E+03  0.15010887755E+03  0.80364511249E+02 0.  0.
        -13    1    3    3    0    0 -0.11154979882E+01 -0.47131899447E+02 -0.30466590400E+02  0.56132641233E+02  0.00000000000E+00 0.  1.
         14    1    3    3    0    0  0.49962096763E+01  0.16221839286E+02 -0.92430637842E+02  0.93976236319E+02  0.00000000000E+00 0. -1.
          1    1    1    2  501    0 -0.38807116881E+01  0.30910060161E+02  0.14536740293E+02  0.34377442614E+02  0.00000000000E+00 0. -1.
<mgrwt>
<rscale>  1 0.86191336E+02</rscale>
<asrwt>0</asrwt>
<pdfrwt beam="1">  1       21 0.58558333E-02 0.86191336E+02</pdfrwt>
<pdfrwt beam="2">  1        2 0.22526677E-01 0.86191336E+02</pdfrwt>
<totfact> 0.57201319E+05</totfact>
</mgrwt>
</event>
<event>
 6    2  0.9453093E+000  0.9195554E+02  0.7546771E-02  0.1298184E+00
          2   -1    0    0  502    0 -0.00000000000E+00  0.00000000000E+00  0.80505347261E+02  0.80505347261E+02  0.00000000000E+00 0. -1.
         21   -1    0    0  501  502  0.00000000000E+00 -0.00000000000E+00 -0.87242897406E+02  0.87242897406E+02  0.00000000000E+00 0. -1.
         24    2    1    2    0    0  0.28899790897E+01 -0.41387940590E+02  0.44221180420E+02  0.10203594881E+03  0.82064050882E+02 0.  0.
        -11    1    3    3    0    0  0.16318220106E+02  0.16106499660E+02  0.35633748824E+02  0.42372959466E+02  0.00000000000E+00 0.  1.
         12    1    3    3    0    0 -0.13428241016E+02 -0.57494440250E+02  0.85874315966E+01  0.59662989348E+02  0.00000000000E+00 0. -1.
          1    1    1    2  501    0 -0.28899790897E+01  0.41387940590E+02 -0.50958730566E+02  0.65712295853E+02  0.00000000000E+00 0. -1.
<mgrwt>
<rscale>  1 0.91955544E+02</rscale>
<asrwt>0</asrwt>
<pdfrwt beam="1">  1       21 0.13421984E-01 0.91955544E+02</pdfrwt>
<pdfrwt beam="2">  1        2 0.12385438E-01 0.91955544E+02</pdfrwt>
<totfact> 0.27332061E+05</totfact>
</mgrwt>
</event>
<event>
 6    2  0.9453093E+000  0.8894840E+02  0.7546771E-02  0.1305418E+00
          2   -1    0    0  502    0 -0.00000000000E+00  0.00000000000E+00  0.54752833497E+03  0.54752833497E+03  0.00000000000E+00 0. -1.
         21   -1    0    0  501  502  0.00000000000E+00 -0.00000000000E+00 -0.85682958652E+01  0.85682958652E+01  0.00000000000E+00 0.  1.
         24    2    1    2    0    0  0.22868816813E+02  0.30079326194E+02  0.26468433094E+03  0.27923039466E+03  0.80523720779E+02 0.  0.
        -13    1    3    3    0    0  0.14686126479E+02  0.11627241308E+02  0.58696230648E+01  0.19629761240E+02  0.00000000000E+00 0.  1.
         14    1    3    3    0    0  0.81826903332E+01  0.18452084886E+02  0.25881470788E+03  0.25960063342E+03  0.00000000000E+00 0. -1.
          1    1    1    2  501    0 -0.22868816813E+02 -0.30079326194E+02  0.27427570816E+03  0.27686623618E+03  0.00000000000E+00 0. -1.
<mgrwt>
<rscale>  1 0.88948402E+02</rscale>
<asrwt>0</asrwt>
<pdfrwt beam="1">  1       21 0.13181998E-02 0.88948402E+02</pdfrwt>
<pdfrwt beam="2">  1        2 0.84235101E-01 0.88948402E+02</pdfrwt>
<totfact> 0.15864603E+06</totfact>
</mgrwt>
</event>
<event>
 6    2  0.9453093E+000  0.9109426E+02  0.7546771E-02  0.1300223E+00
          2   -1    0    0  502    0 -0.00000000000E+00  0.00000000000E+00  0.73454824157E+02  0.73454824157E+02  0.00000000000E+00 0. -1.
         21   -1    0    0  501  502  0.00000000000E+00 -0.00000000000E+00 -0.68566856377E+02  0.68566856377E+02  0.00000000000E+00 0.  1.
         24    2    1    2    0    0 -0.14073785777E+02 -0.38927888065E+02 -0.20620959540E+02  0.93399079942E+02  0.81146239878E+02 0.  0.
        -11    1    3    3    0    0  0.29358999454E+00 -0.60547382469E+02 -0.49056782705E+00  0.60550081550E+02  0.00000000000E+00 0.  1.
         12    1    3    3    0    0 -0.14367375772E+02  0.21619494404E+02 -0.20130391713E+02  0.32848998392E+02  0.00000000000E+00 0. -1.
          1    1    1    2  501    0  0.14073785777E+02  0.38927888065E+02  0.25508927320E+02  0.48622600592E+02  0.00000000000E+00 0. -1.
<mgrwt>
<rscale>  1 0.91094260E+02</rscale>
<asrwt>0</asrwt>
<pdfrwt beam="1">  1       21 0.10548747E-01 0.91094260E+02</pdfrwt>
<pdfrwt beam="2">  1        2 0.11300742E-01 0.91094260E+02</pdfrwt>
<totfact> 0.46478219E+05</totfact>
</mgrwt>
</event>
<event>
 6    2  0.1116117E+001  0.8424575E+02  0.7546771E-02  0.1317417E+00
         21   -1    0    0  501  502  0.00000000000E+00  0.00000000000E+00  0.68583943158E+02  0.68583943158E+02  0.00000000000E+00 0. -1.
         -1   -1    0    0    0  501 -0.00000000000E+00 -0.00000000000E+00 -0.66385331590E+02  0.66385331590E+02  0.00000000000E+00 0.  1.
         24    2    1    2    0    0  0.34948628659E+01  0.22461738770E+02  0.38112514415E+02  0.92465719687E+02  0.81120908447E+02 0.  0.
        -11    1    3    3    0    0 -0.18642677544E+02  0.21230820269E+02 -0.17059800085E+02  0.33005059222E+02  0.00000000000E+00 0.  1.
         12    1    3    3    0    0  0.22137540409E+02  0.12309185015E+01  0.55172314500E+02  0.59460660466E+02  0.00000000000E+00 0. -1.
         -2    1    1    2    0  502 -0.34948628659E+01 -0.22461738770E+02 -0.35913902848E+02  0.42503555061E+02  0.00000000000E+00 0.  1.
<mgrwt>
<rscale>  1 0.84245745E+02</rscale>
<asrwt>0</asrwt>
<pdfrwt beam="1">  1       21 0.10551376E-01 0.84245745E+02</pdfrwt>
<pdfrwt beam="2">  1       -1 0.10213128E-01 0.84245745E+02</pdfrwt>
<totfact> 0.36257071E+05</totfact>
</mgrwt>
</event>
<event>
 6    2  0.9453093E+000  0.8856169E+02  0.7546771E-02  0.1306373E+00
          2   -1    0    0  502    0 -0.00000000000E+00  0.00000000000E+00  0.47686855526E+03  0.47686855526E+03  0.00000000000E+00 0. -1.
         21   -1    0    0  501  502  0.00000000000E+00 -0.00000000000E+00 -0.21996180195E+02  0.21996180195E+02  0.00000000000E+00 0. -1.
         24    2    1    2    0    0  0.87848592087E+01 -0.37566833133E+02  0.45153755347E+03  0.46014056035E+03  0.79716575312E+02 0.  0.
        -13    1    3    3    0    0 -0.16240021998E+02 -0.36373943601E+02  0.98996146875E+02  0.10671007068E+03  0.00000000000E+00 0.  1.
         14    1    3    3    0    0  0.25024881207E+02 -0.11928895322E+01  0.35254140659E+03  0.35343048967E+03  0.00000000000E+00 0. -1.
          1    1    1    2  501    0 -0.87848592087E+01  0.37566833133E+02  0.33348215975E+01  0.38724175112E+02  0.00000000000E+00 0. -1.
<mgrwt>
<rscale>  1 0.88561691E+02</rscale>
<asrwt>0</asrwt>
<pdfrwt beam="1">  1       21 0.33840281E-02 0.88561691E+02</pdfrwt>
<pdfrwt beam="2">  1        2 0.73364385E-01 0.88561691E+02</pdfrwt>
<totfact> 0.40635256E+05</totfact>
</mgrwt>
</event>
<event>
 6    2  0.9453093E+000  0.8293800E+02  0.7546771E-02  0.1320915E+00
         21   -1    0    0  501  502  0.00000000000E+00  0.00000000000E+00  0.92143025119E+03  0.92143025119E+03  0.00000000000E+00 0. -1.
          2   -1    0    0  502    0 -0.00000000000E+00 -0.00000000000E+00 -0.88569154555E+02  0.88569154555E+02  0.00000000000E+00 0. -1.
         24    2    1    2    0    0  0.18555104818E+02 -0.88159905278E+01 -0.69010294746E+02  0.10789407919E+03  0.80353580756E+02 0.  0.
        -13    1    3    3    0    0 -0.62850103737E+01  0.36583760773E+01  0.16472070936E+02  0.18005948790E+02  0.00000000000E+00 0.  1.
         14    1    3    3    0    0  0.24840115192E+02 -0.12474366605E+02 -0.85482365681E+02  0.89888130403E+02  0.00000000000E+00 0. -1.
          1    1    1    2  501    0 -0.18555104818E+02  0.88159905278E+01  0.90187139138E+03  0.90210532655E+03  0.00000000000E+00 0. -1.
<mgrwt>
<rscale>  1 0.82937998E+02</rscale>
<asrwt>0</asrwt>
<pdfrwt beam="1">  1       21 0.14175849E+00 0.82937998E+02</pdfrwt>
<pdfrwt beam="2">  1        2 0.13626024E-01 0.82937998E+02</pdfrwt>
<totfact> 0.19752692E+03</totfact>
</mgrwt>
</event>
<event>
 6    2  0.1155697E+001  0.8504799E+02  0.7546771E-02  0.1315307E+00
         -1   -1    0    0    0  501 -0.00000000000E+00  0.00000000000E+00  0.98959120920E+03  0.98959120920E+03  0.00000000000E+00 0.  1.
         21   -1    0    0  501  502  0.00000000000E+00 -0.00000000000E+00 -0.49433031779E+01  0.49433031779E+01  0.00000000000E+00 0. -1.
         24    2    1    2    0    0 -0.33628730996E+02 -0.39972136841E+01  0.88917821065E+03  0.89323627943E+03  0.78014686526E+02 0.  0.
        -11    1    3    3    0    0 -0.26967501362E+02  0.18286697476E+02  0.81142646317E+03  0.81208038676E+03  0.00000000000E+00 0.  1.
         12    1    3    3    0    0 -0.66612296341E+01 -0.22283911160E+02  0.77751747487E+02  0.81155892664E+02  0.00000000000E+00 0. -1.
         -2    1    1    2    0  502  0.33628730996E+02  0.39972136841E+01  0.95469695367E+02  0.10129823295E+03  0.00000000000E+00 0.  1.
<mgrwt>
<rscale>  1 0.85047990E+02</rscale>
<asrwt>0</asrwt>
<pdfrwt beam="1">  1       21 0.76050897E-03 0.85047990E+02</pdfrwt>
<pdfrwt beam="2">  1       -1 0.15224464E+00 0.85047990E+02</pdfrwt>
<totfact> 0.18935623E+05</totfact>
</mgrwt>
</event>
<event>
 6    2  0.9453093E+000  0.8656365E+02  0.7546771E-02  0.1311393E+00
          2   -1    0    0  502    0 -0.00000000000E+00  0.00000000000E+00  0.49711031608E+03  0.49711031608E+03  0.00000000000E+00 0. -1.
         21   -1    0    0  501  502  0.00000000000E+00 -0.00000000000E+00 -0.58693623325E+01  0.58693623325E+01  0.00000000000E+00 0.  1.
         24    2    1    2    0    0 -0.20719466292E+02 -0.11321032759E+00  0.41771398743E+03  0.42658907771E+03  0.84047348713E+02 0.  0.
        -11    1    3    3    0    0  0.44348284861E+01  0.19087027790E+01 -0.26234205756E+01  0.54948326195E+01  0.00000000000E+00 0.  1.
         12    1    3    3    0    0 -0.25154294778E+02 -0.20219131066E+01  0.42033740801E+03  0.42109424509E+03  0.00000000000E+00 0. -1.
          1    1    1    2  501    0  0.20719466292E+02  0.11321032759E+00  0.73526966313E+02  0.76390600700E+02  0.00000000000E+00 0. -1.
<mgrwt>
<rscale>  1 0.86563652E+02</rscale>
<asrwt>0</asrwt>
<pdfrwt beam="1">  1       21 0.90297921E-03 0.86563652E+02</pdfrwt>
<pdfrwt beam="2">  1        2 0.76478477E-01 0.86563652E+02</pdfrwt>
<totfact> 0.31765118E+06</totfact>
</mgrwt>
</event>
<event>
 6    2  0.9453093E+000  0.8923967E+02  0.7546771E-02  0.1304703E+00
         21   -1    0    0  501  502  0.00000000000E+00  0.00000000000E+00  0.27217310935E+01  0.27217310935E+01  0.00000000000E+00 0. -1.
          2   -1    0    0  502    0 -0.00000000000E+00 -0.00000000000E+00 -0.14758229783E+04  0.14758229783E+04  0.00000000000E+00 0. -1.
         24    2    1    2    0    0 -0.28002604732E+02  0.24929158459E+02 -0.10237213709E+04  0.10276036024E+04  0.80982155224E+02 0.  0.
        -11    1    3    3    0    0  0.36127490741E+01  0.49167759031E+02 -0.59045705964E+03  0.59251165369E+03  0.00000000000E+00 0.  1.
         12    1    3    3    0    0 -0.31615353806E+02 -0.24238600572E+02 -0.43326431130E+03  0.43509194867E+03  0.00000000000E+00 0. -1.
          1    1    1    2  501    0  0.28002604732E+02 -0.24929158459E+02 -0.44937987627E+03  0.45094110703E+03  0.00000000000E+00 0. -1.
<mgrwt>
<rscale>  1 0.89239668E+02</rscale>
<asrwt>0</asrwt>
<pdfrwt beam="1">  1       21 0.41872854E-03 0.89239668E+02</pdfrwt>
<pdfrwt beam="2">  1        2 0.22704932E+00 0.89239668E+02</pdfrwt>
<totfact> 0.25199351E+06</totfact>
</mgrwt>
</event>
<event>
 6    2  0.9453093E+000  0.8736523E+02  0.7546771E-02  0.1309361E+00
         21   -1    0    0  501  502  0.00000000000E+00  0.00000000000E+00  0.45933474021E+02  0.45933474021E+02  0.00000000000E+00 0.  1.
         -3   -1    0    0    0  501 -0.00000000000E+00 -0.00000000000E+00 -0.10176209641E+03  0.10176209641E+03  0.00000000000E+00 0.  1.
         24    2    1    2    0    0  0.27255144849E+02 -0.20269521721E+02 -0.68936912811E+02  0.11128782799E+03  0.80492150418E+02 0.  0.
        -13    1    3    3    0    0 -0.67443010565E+01  0.66866287216E+01 -0.67196202579E+02  0.67864027595E+02  0.00000000000E+00 0.  1.
         14    1    3    3    0    0  0.33999445905E+02 -0.26956150442E+02 -0.17407102328E+01  0.43423800394E+02  0.00000000000E+00 0. -1.
         -4    1    1    2    0  502 -0.27255144849E+02  0.20269521721E+02  0.13108290426E+02  0.36407742438E+02  0.00000000000E+00 0.  1.
<mgrwt>
<rscale>  1 0.87365226E+02</rscale>
<asrwt>0</asrwt>
<pdfrwt beam="1">  1       21 0.70666883E-02 0.87365226E+02</pdfrwt>
<pdfrwt beam="2">  1       -3 0.15655707E-01 0.87365226E+02</pdfrwt>
<totfact> 0.22726524E+05</totfact>
</mgrwt>
</event>
<event>
 6    2  0.9453093E+000  0.9616173E+02  0.7546771E-02  0.1288581E+00
         21   -1    0    0  501  502  0.00000000000E+00  0.00000000000E+00  0.52257834055E+01  0.52257834055E+01  0.00000000000E+00 0.  1.
          2   -1    0    0  502    0 -0.00000000000E+00 -0.00000000000E+00 -0.10806188778E+04  0.10806188778E+04  0.00000000000E+00 0. -1.
         24    2    1    2    0    0 -0.50333387187E+02 -0.27449217283E+01 -0.81174193878E+03  0.81741791828E+03  0.81890741169E+02 0.  0.
        -13    1    3    3    0    0 -0.11964570751E+02 -0.17317196069E+02 -0.46113132820E+02  0.50689814080E+02  0.00000000000E+00 0.  1.
         14    1    3    3    0    0 -0.38368816435E+02  0.14572274341E+02 -0.76562880596E+03  0.76672810420E+03  0.00000000000E+00 0. -1.
          1    1    1    2  501    0  0.50333387187E+02  0.27449217283E+01 -0.26365115562E+03  0.26842674293E+03  0.00000000000E+00 0. -1.
<mgrwt>
<rscale>  1 0.96161728E+02</rscale>
<asrwt>0</asrwt>
<pdfrwt beam="1">  1       21 0.80396691E-03 0.96161728E+02</pdfrwt>
<pdfrwt beam="2">  1        2 0.16624901E+00 0.96161728E+02</pdfrwt>
<totfact> 0.15108691E+06</totfact>
</mgrwt>
</event>
<event>
 6    2  0.9453093E+000  0.9043761E+02  0.7546771E-02  0.1301795E+00
         21   -1    0    0  501  502  0.00000000000E+00  0.00000000000E+00  0.10222365762E+02  0.10222365762E+02  0.00000000000E+00 0. -1.
          2   -1    0    0  502    0 -0.00000000000E+00 -0.00000000000E+00 -0.42143773314E+03  0.42143773314E+03  0.00000000000E+00 0. -1.
         24    2    1    2    0    0  0.46412308647E+01  0.40205627145E+02 -0.26884171384E+03  0.28364560401E+03  0.80876004426E+02 0.  0.
        -11    1    3    3    0    0  0.20956436607E+01 -0.10294585031E+02 -0.43196296062E+00  0.10514599152E+02  0.00000000000E+00 0.  1.
         12    1    3    3    0    0  0.25455872040E+01  0.50500212177E+02 -0.26840975088E+03  0.27313100486E+03  0.00000000000E+00 0. -1.
          1    1    1    2  501    0 -0.46412308647E+01 -0.40205627145E+02 -0.14237365353E+03  0.14801449489E+03  0.00000000000E+00 0. -1.
<mgrwt>
<rscale>  1 0.90437611E+02</rscale>
<asrwt>0</asrwt>
<pdfrwt beam="1">  1       21 0.15726722E-02 0.90437611E+02</pdfrwt>
<pdfrwt beam="2">  1        2 0.64836554E-01 0.90437611E+02</pdfrwt>
<totfact> 0.15929522E+06</totfact>
</mgrwt>
</event>
<event>
 6    2  0.9453093E+000  0.8318748E+02  0.7546771E-02  0.1320242E+00
         21   -1    0    0  501  502  0.00000000000E+00  0.00000000000E+00  0.32011341776E+02  0.32011341776E+02  0.00000000000E+00 0. -1.
          2   -1    0    0  502    0 -0.00000000000E+00 -0.00000000000E+00 -0.96116080777E+02  0.96116080777E+02  0.00000000000E+00 0. -1.
         24    2    1    2    0    0 -0.17965793490E+01  0.24739052045E+02 -0.60943503301E+02  0.10312258693E+03  0.79403456768E+02 0.  0.
        -13    1    3    3    0    0  0.16824922260E+02 -0.14514011405E+02  0.62719424136E+01  0.23088347662E+02  0.00000000000E+00 0.  1.
         14    1    3    3    0    0 -0.18621501609E+02  0.39253063450E+02 -0.67215445715E+02  0.80034239267E+02  0.00000000000E+00 0. -1.
          1    1    1    2  501    0  0.17965793490E+01 -0.24739052045E+02 -0.31612356998E+01  0.25004835624E+02  0.00000000000E+00 0. -1.
<mgrwt>
<rscale>  1 0.83187483E+02</rscale>
<asrwt>0</asrwt>
<pdfrwt beam="1">  1       21 0.49248219E-02 0.83187483E+02</pdfrwt>
<pdfrwt beam="2">  1        2 0.14787089E-01 0.83187483E+02</pdfrwt>
<totfact> 0.12221340E+06</totfact>
</mgrwt>
</event>
<event>
 6    2  0.1260865E+001  0.9249703E+02  0.7546771E-02  0.1296915E+00
         -1   -1    0    0    0  501 -0.00000000000E+00  0.00000000000E+00  0.32709158681E+03  0.32709158681E+03  0.00000000000E+00 0.  1.
         21   -1    0    0  501  502  0.00000000000E+00 -0.00000000000E+00 -0.48103426186E+02  0.48103426186E+02  0.00000000000E+00 0.  1.
         24    2    1    2    0    0 -0.49024312478E+02 -0.48388490001E+01  0.30553893340E+03  0.31923305084E+03  0.78287312205E+02 0.  0.
        -11    1    3    3    0    0 -0.55216431224E+02 -0.74616737908E+01  0.30727663505E+03  0.31228746581E+03  0.00000000000E+00 0.  1.
         12    1    3    3    0    0  0.61921187461E+01  0.26228247907E+01 -0.17377016488E+01  0.69455850343E+01  0.00000000000E+00 0. -1.
         -2    1    1    2    0  502  0.49024312478E+02  0.48388490001E+01 -0.26550772775E+02  0.55961962157E+02  0.00000000000E+00 0.  1.
<mgrwt>
<rscale>  1 0.92497032E+02</rscale>
<asrwt>0</asrwt>
<pdfrwt beam="1">  1       21 0.74005273E-02 0.92497032E+02</pdfrwt>
<pdfrwt beam="2">  1       -1 0.50321781E-01 0.92497032E+02</pdfrwt>
<totfact> 0.50397206E+04</totfact>
</mgrwt>
</event>
<event>
 6    2  0.9453093E+000  0.9170291E+02  0.7546771E-02  0.1298779E+00
          2   -1    0    0  502    0 -0.00000000000E+00  0.00000000000E+00  0.28668388015E+02  0.28668388015E+02  0.00000000000E+00 0. -1.
         21   -1    0    0  501  502  0.00000000000E+00 -0.00000000000E+00 -0.18572476008E+03  0.18572476008E+03  0.00000000000E+00 0. -1.
         24    2    1    2    0    0  0.32863602036E+02 -0.35249090469E+02 -0.71834547519E+02  0.11648873504E+03  0.78018641716E+02 0.  0.
        -11    1    3    3    0    0  0.21550574062E+01 -0.95857510367E+01 -0.75651527268E+02  0.76286856491E+02  0.00000000000E+00 0.  1.
         12    1    3    3    0    0  0.30708544630E+02 -0.25663339432E+02  0.38169797484E+01  0.40201878544E+02  0.00000000000E+00 0. -1.
          1    1    1    2  501    0 -0.32863602036E+02  0.35249090469E+02 -0.85221824545E+02  0.97904413059E+02  0.00000000000E+00 0. -1.
<mgrwt>
<rscale>  1 0.91702907E+02</rscale>
<asrwt>0</asrwt>
<pdfrwt beam="1">  1       21 0.28573039E-01 0.91702907E+02</pdfrwt>
<pdfrwt beam="2">  1        2 0.44105214E-02 0.91702907E+02</pdfrwt>
<totfact> 0.24845523E+05</totfact>
</mgrwt>
</event>
<event>
 6    2  0.9453093E+000  0.8484847E+02  0.7546771E-02  0.1315829E+00
          2   -1    0    0  502    0 -0.00000000000E+00  0.00000000000E+00  0.16321175674E+04  0.16321175674E+04  0.00000000000E+00 0. -1.
         21   -1    0    0  501  502  0.00000000000E+00 -0.00000000000E+00 -0.46420273867E+01  0.46420273867E+01  0.00000000000E+00 0. -1.
         24    2    1    2    0    0  0.21714668435E+02  0.42724505888E+01  0.15961580136E+04  0.15984116076E+04  0.81911429532E+02 0.  0.
        -13    1    3    3    0    0 -0.21220149073E+02  0.24676930044E+02  0.40507565545E+03  0.40638101855E+03  0.00000000000E+00 0.  1.
         14    1    3    3    0    0  0.42934817508E+02 -0.20404479456E+02  0.11910823582E+04  0.11920305891E+04  0.00000000000E+00 0. -1.
          1    1    1    2  501    0 -0.21714668435E+02 -0.42724505888E+01  0.31317526345E+02  0.38347987113E+02  0.00000000000E+00 0. -1.
<mgrwt>
<rscale>  1 0.84848471E+02</rscale>
<asrwt>0</asrwt>
<pdfrwt beam="1">  1       21 0.71415936E-03 0.84848471E+02</pdfrwt>
<pdfrwt beam="2">  1        2 0.25109455E+00 0.84848471E+02</pdfrwt>
<totfact> 0.92188628E+05</totfact>
</mgrwt>
</event>
<event>
 6    2  0.9453093E+000  0.8744885E+02  0.7546771E-02  0.1309150E+00
          2   -1    0    0  502    0 -0.00000000000E+00  0.00000000000E+00  0.12778989708E+04  0.12778989708E+04  0.00000000000E+00 0. -1.
         21   -1    0    0  501  502  0.00000000000E+00 -0.00000000000E+00 -0.11279074213E+02  0.11279074213E+02  0.00000000000E+00 0. -1.
         24    2    1    2    0    0  0.13130995330E+02 -0.17882665404E+02  0.12637905656E+04  0.12668124939E+04  0.84587755753E+02 0.  0.
        -11    1    3    3    0    0 -0.27709573801E+02  0.11414812308E+02  0.25225258796E+03  0.25402654695E+03  0.00000000000E+00 0.  1.
         12    1    3    3    0    0  0.40840569131E+02 -0.29297477712E+02  0.10115379776E+04  0.10127859470E+04  0.00000000000E+00 0. -1.
          1    1    1    2  501    0 -0.13130995330E+02  0.17882665404E+02  0.28293310064E+01  0.22365551060E+02  0.00000000000E+00 0. -1.
<mgrwt>
<rscale>  1 0.87448849E+02</rscale>
<asrwt>0</asrwt>
<pdfrwt beam="1">  1       21 0.17352432E-02 0.87448849E+02</pdfrwt>
<pdfrwt beam="2">  1        2 0.19659973E+00 0.87448849E+02</pdfrwt>
<totfact> 0.34943103E+05</totfact>
</mgrwt>
</event>
<event>
 6    2  0.9453093E+000  0.1037589E+03  0.7546771E-02  0.1272584E+00
         -1   -1    0    0    0  501 -0.00000000000E+00  0.00000000000E+00  0.15972813478E+02  0.15972813478E+02  0.00000000000E+00 0.  1.
         21   -1    0    0  501  502  0.00000000000E+00 -0.00000000000E+00 -0.53040270868E+03  0.53040270868E+03  0.00000000000E+00 0. -1.
         24    2    1    2    0    0 -0.64055963459E+02  0.60810309523E+01 -0.19874197574E+03  0.22419698798E+03  0.81398839705E+02 0.  0.
        -11    1    3    3    0    0 -0.43468658279E+02  0.39886302757E+02 -0.82667317981E+02  0.10155947451E+03  0.00000000000E+00 0.  1.
         12    1    3    3    0    0 -0.20587305180E+02 -0.33805271804E+02 -0.11607465776E+03  0.12263751347E+03  0.00000000000E+00 0. -1.
         -2    1    1    2    0  502  0.64055963459E+02 -0.60810309523E+01 -0.31568791947E+03  0.32217853418E+03  0.00000000000E+00 0.  1.
<mgrwt>
<rscale>  1 0.10375893E+03</rscale>
<asrwt>0</asrwt>
<pdfrwt beam="1">  1       21 0.81600419E-01 0.10375893E+03</pdfrwt>
<pdfrwt beam="2">  1       -1 0.24573558E-02 0.10375893E+03</pdfrwt>
<totfact> 0.57335141E+04</totfact>
</mgrwt>
</event>
<event>
 6    2  0.9453093E+000  0.8866835E+02  0.7546771E-02  0.1306109E+00
         21   -1    0    0  501  502  0.00000000000E+00  0.00000000000E+00  0.37089877255E+01  0.37089877255E+01  0.00000000000E+00 0. -1.
         -1   -1    0    0    0  501 -0.00000000000E+00 -0.00000000000E+00 -0.82703037839E+03  0.82703037839E+03  0.00000000000E+00 0.  1.
         24    2    1    2    0    0 -0.38061528552E+01  0.21768249123E+02 -0.66115052380E+03  0.66706977966E+03  0.85870439334E+02 0.  0.
        -13    1    3    3    0    0  0.38985877476E+02 -0.31237650502E+01 -0.28047368763E+03  0.28318747501E+03  0.00000000000E+00 0.  1.
         14    1    3    3    0    0 -0.42792030331E+02  0.24892014173E+02 -0.38067683617E+03  0.38388230465E+03  0.00000000000E+00 0. -1.
         -2    1    1    2    0  502  0.38061528552E+01 -0.21768249123E+02 -0.16217086687E+03  0.16366958646E+03  0.00000000000E+00 0.  1.
<mgrwt>
<rscale>  1 0.88668347E+02</rscale>
<asrwt>0</asrwt>
<pdfrwt beam="1">  1       21 0.57061357E-03 0.88668347E+02</pdfrwt>
<pdfrwt beam="2">  1       -1 0.12723543E+00 0.88668347E+02</pdfrwt>
<totfact> 0.46157024E+05</totfact>
</mgrwt>
</event>
<event>
 6    2  0.9453093E+000  0.1150615E+03  0.7546771E-02  0.1251474E+00
         21   -1    0    0  501  502  0.00000000000E+00  0.00000000000E+00  0.12263959231E+02  0.12263959231E+02  0.00000000000E+00 0.  1.
         -3   -1    0    0    0  501 -0.00000000000E+00 -0.00000000000E+00 -0.95819451876E+03  0.95819451876E+03  0.00000000000E+00 0.  1.
         24    2    1    2    0    0 -0.59175923979E+02  0.66091383447E+02 -0.36252204812E+03  0.38034378394E+03  0.73275491591E+02 0.  0.
        -11    1    3    3    0    0 -0.63276817172E+02  0.22749811533E+02 -0.26752447037E+03  0.27584570282E+03  0.00000000000E+00 0.  1.
         12    1    3    3    0    0  0.41008931930E+01  0.43341571914E+02 -0.94997577749E+02  0.10449808113E+03  0.00000000000E+00 0. -1.
         -4    1    1    2    0  502  0.59175923979E+02 -0.66091383447E+02 -0.58340851142E+03  0.59011469405E+03  0.00000000000E+00 0.  1.
<mgrwt>
<rscale>  1 0.11506154E+03</rscale>
<asrwt>0</asrwt>
<pdfrwt beam="1">  1       21 0.18867628E-02 0.11506154E+03</pdfrwt>
<pdfrwt beam="2">  1       -3 0.14741456E+00 0.11506154E+03</pdfrwt>
<totfact> 0.23037888E+04</totfact>
</mgrwt>
</event>
<event>
 6    2  0.9453093E+000  0.8805433E+02  0.7546771E-02  0.1307633E+00
          2   -1    0    0  502    0 -0.00000000000E+00  0.00000000000E+00  0.82459716480E+03  0.82459716480E+03  0.00000000000E+00 0. -1.
         21   -1    0    0  501  502  0.00000000000E+00 -0.00000000000E+00 -0.54169907207E+01  0.54169907207E+01  0.00000000000E+00 0.  1.
         24    2    1    2    0    0 -0.31290824008E+02  0.17887756094E+02  0.69961514433E+03  0.70513467832E+03  0.80339759265E+02 0.  0.
        -13    1    3    3    0    0 -0.58112528698E+02  0.55984225646E+01  0.44364356122E+03  0.44746845447E+03  0.00000000000E+00 0.  1.
         14    1    3    3    0    0  0.26821704690E+02  0.12289333529E+02  0.25597158310E+03  0.25766622386E+03  0.00000000000E+00 0. -1.
          1    1    1    2  501    0  0.31290824008E+02 -0.17887756094E+02  0.11956502975E+03  0.12487947720E+03  0.00000000000E+00 0. -1.
<mgrwt>
<rscale>  1 0.88054326E+02</rscale>
<asrwt>0</asrwt>
<pdfrwt beam="1">  1       21 0.83338384E-03 0.88054326E+02</pdfrwt>
<pdfrwt beam="2">  1        2 0.12686100E+00 0.88054326E+02</pdfrwt>
<totfact> 0.20228686E+06</totfact>
</mgrwt>
</event>
<event>
 6    2  0.9453093E+000  0.9037031E+02  0.7546771E-02  0.1301957E+00
          2   -1    0    0  502    0 -0.00000000000E+00  0.00000000000E+00  0.27950191538E+03  0.27950191538E+03  0.00000000000E+00 0. -1.
         21   -1    0    0  501  502  0.00000000000E+00 -0.00000000000E+00 -0.46232202014E+02  0.46232202014E+02  0.00000000000E+00 0. -1.
         24    2    1    2    0    0 -0.38915748670E+02  0.11424492461E+02  0.26126466422E+03  0.27645256106E+03  0.80757905026E+02 0.  0.
        -13    1    3    3    0    0 -0.43843491522E+02 -0.25854132638E+02  0.17711386120E+03  0.18428241303E+03  0.00000000000E+00 0.  1.
         14    1    3    3    0    0  0.49277428513E+01  0.37278625099E+02  0.84150803017E+02  0.92170148027E+02  0.00000000000E+00 0. -1.
          1    1    1    2  501    0  0.38915748670E+02 -0.11424492461E+02 -0.27994950846E+02  0.49281556341E+02  0.00000000000E+00 0. -1.
<mgrwt>
<rscale>  1 0.90370315E+02</rscale>
<asrwt>0</asrwt>
<pdfrwt beam="1">  1       21 0.71126466E-02 0.90370315E+02</pdfrwt>
<pdfrwt beam="2">  1        2 0.43000294E-01 0.90370315E+02</pdfrwt>
<totfact> 0.20744781E+05</totfact>
</mgrwt>
</event>
<event>
 6    2  0.9453093E+000  0.9171941E+02  0.7546771E-02  0.1298741E+00
          2   -1    0    0  502    0 -0.00000000000E+00  0.00000000000E+00  0.13641096807E+04  0.13641096807E+04  0.00000000000E+00 0. -1.
         21   -1    0    0  501  502  0.00000000000E+00 -0.00000000000E+00 -0.59832482774E+01  0.59832482774E+01  0.00000000000E+00 0. -1.
         24    2    1    2    0    0 -0.70212847673E+01  0.42555839017E+02  0.12545053932E+04  0.12578538197E+04  0.80945366651E+02 0.  0.
        -11    1    3    3    0    0  0.35698088520E+02  0.12108317624E+02  0.41385739889E+03  0.41557058545E+03  0.00000000000E+00 0.  1.
         12    1    3    3    0    0 -0.42719373287E+02  0.30447521393E+02  0.84064799427E+03  0.84228323424E+03  0.00000000000E+00 0. -1.
          1    1    1    2  501    0  0.70212847673E+01 -0.42555839017E+02  0.10362103925E+03  0.11223910927E+03  0.00000000000E+00 0. -1.
<mgrwt>
<rscale>  1 0.91719410E+02</rscale>
<asrwt>0</asrwt>
<pdfrwt beam="1">  1       21 0.92050082E-03 0.91719410E+02</pdfrwt>
<pdfrwt beam="2">  1        2 0.20986278E+00 0.91719410E+02</pdfrwt>
<totfact> 0.85628078E+05</totfact>
</mgrwt>
</event>
<event>
 6    2  0.9453093E+000  0.8850671E+02  0.7546771E-02  0.1306509E+00
         21   -1    0    0  501  502  0.00000000000E+00  0.00000000000E+00  0.10803308034E+03  0.10803308034E+03  0.00000000000E+00 0.  1.
          4   -1    0    0  502    0 -0.00000000000E+00 -0.00000000000E+00 -0.41866013470E+02  0.41866013470E+02  0.00000000000E+00 0. -1.
         24    2    1    2    0    0 -0.98887655874E+01 -0.29166463426E+02  0.14409692333E+02  0.89672055924E+02  0.82975707933E+02 0.  0.
        -11    1    3    3    0    0  0.60504839407E+01 -0.56328189644E+02  0.53641756441E+01  0.56905603281E+02  0.00000000000E+00 0.  1.
         12    1    3    3    0    0 -0.15939249528E+02  0.27161726218E+02  0.90455166889E+01  0.32766452643E+02  0.00000000000E+00 0. -1.
          3    1    1    2  501    0  0.98887655874E+01  0.29166463426E+02  0.51757374540E+02  0.60227037889E+02  0.00000000000E+00 0. -1.
<mgrwt>
<rscale>  1 0.88506714E+02</rscale>
<asrwt>0</asrwt>
<pdfrwt beam="1">  1       21 0.16620474E-01 0.88506714E+02</pdfrwt>
<pdfrwt beam="2">  1        4 0.64409252E-02 0.88506714E+02</pdfrwt>
<totfact> 0.19258000E+05</totfact>
</mgrwt>
</event>
<event>
 6    2  0.9453093E+000  0.8306316E+02  0.7546771E-02  0.1320577E+00
         -1   -1    0    0    0  501 -0.00000000000E+00  0.00000000000E+00  0.58307135796E+02  0.58307135796E+02  0.00000000000E+00 0.  1.
         21   -1    0    0  501  502  0.00000000000E+00 -0.00000000000E+00 -0.54786937516E+03  0.54786937516E+03  0.00000000000E+00 0.  1.
         24    2    1    2    0    0  0.20578001877E+02  0.40505926789E+01  0.28404336766E+02  0.87785504621E+02  0.80371804833E+02 0.  0.
        -13    1    3    3    0    0  0.23569906215E+02  0.15573193114E+02  0.53225043704E+02  0.60257531480E+02  0.00000000000E+00 0.  1.
         14    1    3    3    0    0 -0.29919043377E+01 -0.11522600435E+02 -0.24820706938E+02  0.27527973141E+02  0.00000000000E+00 0. -1.
         -2    1    1    2    0  502 -0.20578001877E+02 -0.40505926789E+01 -0.51796657613E+03  0.51839100633E+03  0.00000000000E+00 0.  1.
<mgrwt>
<rscale>  1 0.83063160E+02</rscale>
<asrwt>0</asrwt>
<pdfrwt beam="1">  1       21 0.84287593E-01 0.83063160E+02</pdfrwt>
<pdfrwt beam="2">  1       -1 0.89703289E-02 0.83063160E+02</pdfrwt>
<totfact> 0.79979480E+03</totfact>
</mgrwt>
</event>
<event>
 6    2  0.9453093E+000  0.8358199E+02  0.7546771E-02  0.1319183E+00
          2   -1    0    0  502    0 -0.00000000000E+00  0.00000000000E+00  0.19445341658E+03  0.19445341658E+03  0.00000000000E+00 0. -1.
         21   -1    0    0  501  502  0.00000000000E+00 -0.00000000000E+00 -0.14541841344E+02  0.14541841344E+02  0.00000000000E+00 0. -1.
         24    2    1    2    0    0 -0.18382636289E+02  0.13249321803E+02  0.13752532658E+03  0.16093217520E+03  0.80451747778E+02 0.  0.
        -13    1    3    3    0    0  0.48577408992E+01 -0.74072581883E+01 -0.81128272608E+01  0.12011789487E+02  0.00000000000E+00 0.  1.
         14    1    3    3    0    0 -0.23240377188E+02  0.20656579991E+02  0.14563815384E+03  0.14892038572E+03  0.00000000000E+00 0. -1.
          1    1    1    2  501    0  0.18382636289E+02 -0.13249321803E+02  0.42386248659E+02  0.48063082720E+02  0.00000000000E+00 0. -1.
<mgrwt>
<rscale>  1 0.83581993E+02</rscale>
<asrwt>0</asrwt>
<pdfrwt beam="1">  1       21 0.22372065E-02 0.83581993E+02</pdfrwt>
<pdfrwt beam="2">  1        2 0.29915908E-01 0.83581993E+02</pdfrwt>
<totfact> 0.20263667E+06</totfact>
</mgrwt>
</event>
<event>
 6    2  0.9453093E+000  0.9481529E+02  0.7546771E-02  0.1291593E+00
          4   -1    0    0  502    0 -0.00000000000E+00  0.00000000000E+00  0.50692257254E+02  0.50692257254E+02  0.00000000000E+00 0. -1.
         21   -1    0    0  501  502  0.00000000000E+00 -0.00000000000E+00 -0.81417228112E+03  0.81417228112E+03  0.00000000000E+00 0. -1.
         24    2    1    2    0    0  0.86497669084E+01 -0.59109017099E+02  0.41571778391E+01  0.94906378594E+02  0.73629098869E+02 0.  0.
        -13    1    3    3    0    0 -0.10930678111E+02 -0.58987611837E+01 -0.27352452335E+02  0.30040501930E+02  0.00000000000E+00 0.  1.
         14    1    3    3    0    0  0.19580445019E+02 -0.53210255915E+02  0.31509630174E+02  0.64865876664E+02  0.00000000000E+00 0. -1.
          3    1    1    2  501    0 -0.86497669084E+01  0.59109017099E+02 -0.76763720171E+03  0.76995815978E+03  0.00000000000E+00 0. -1.
<mgrwt>
<rscale>  1 0.94815287E+02</rscale>
<asrwt>0</asrwt>
<pdfrwt beam="1">  1       21 0.12525728E+00 0.94815287E+02</pdfrwt>
<pdfrwt beam="2">  1        4 0.77988082E-02 0.94815287E+02</pdfrwt>
<totfact> 0.22670213E+03</totfact>
</mgrwt>
</event>
<event>
 6    2  0.9453093E+000  0.1017862E+03  0.7546771E-02  0.1276584E+00
         -1   -1    0    0    0  501 -0.00000000000E+00  0.00000000000E+00  0.43878421536E+02  0.43878421536E+02  0.00000000000E+00 0.  1.
         21   -1    0    0  501  502  0.00000000000E+00 -0.00000000000E+00 -0.14099740751E+03  0.14099740751E+03  0.00000000000E+00 0.  1.
         24    2    1    2    0    0  0.45809141034E+02  0.31347642441E+02 -0.61528438298E+02  0.11893768248E+03  0.85318646882E+02 0.  0.
        -13    1    3    3    0    0  0.59721809881E+02 -0.18691733283E+01 -0.17917977722E+02  0.62379822940E+02  0.00000000000E+00 0.  1.
         14    1    3    3    0    0 -0.13912668847E+02  0.33216815769E+02 -0.43610460576E+02  0.56557859542E+02  0.00000000000E+00 0. -1.
         -2    1    1    2    0  502 -0.45809141034E+02 -0.31347642441E+02 -0.35590547681E+02  0.65938146570E+02  0.00000000000E+00 0.  1.
<mgrwt>
<rscale>  1 0.10178617E+03</rscale>
<asrwt>0</asrwt>
<pdfrwt beam="1">  1       21 0.21691909E-01 0.10178617E+03</pdfrwt>
<pdfrwt beam="2">  1       -1 0.67505263E-02 0.10178617E+03</pdfrwt>
<totfact> 0.18865115E+05</totfact>
</mgrwt>
</event>
<event>
 6    2  0.9453093E+000  0.8282560E+02  0.7546771E-02  0.1321219E+00
         21   -1    0    0  501  502  0.00000000000E+00  0.00000000000E+00  0.52290447727E+01  0.52290447727E+01  0.00000000000E+00 0. -1.
          2   -1    0    0  502    0 -0.00000000000E+00 -0.00000000000E+00 -0.29336735076E+04  0.29336735076E+04  0.00000000000E+00 0. -1.
         24    2    1    2    0    0  0.74327620454E+01  0.24430069002E+02 -0.28979284834E+04  0.28991118597E+04  0.78790899947E+02 0.  0.
        -13    1    3    3    0    0 -0.13263692601E+02  0.19669774216E+01 -0.87852573781E+02  0.88869957024E+02  0.00000000000E+00 0.  1.
         14    1    3    3    0    0  0.20696454646E+02  0.22463091581E+02 -0.28100759096E+04  0.28102419027E+04  0.00000000000E+00 0. -1.
          1    1    1    2  501    0 -0.74327620454E+01 -0.24430069002E+02 -0.30515979422E+02  0.39790692670E+02  0.00000000000E+00 0. -1.
<mgrwt>
<rscale>  1 0.82825601E+02</rscale>
<asrwt>0</asrwt>
<pdfrwt beam="1">  1       21 0.80446703E-03 0.82825601E+02</pdfrwt>
<pdfrwt beam="2">  1        2 0.45133517E+00 0.82825601E+02</pdfrwt>
<totfact> 0.16262043E+05</totfact>
</mgrwt>
</event>
<event>
 6    2  0.9453093E+000  0.1073454E+03  0.7546771E-02  0.1265566E+00
          2   -1    0    0  502    0 -0.00000000000E+00  0.00000000000E+00  0.63283101021E+03  0.63283101021E+03  0.00000000000E+00 0. -1.
         21   -1    0    0  501  502  0.00000000000E+00 -0.00000000000E+00 -0.22979276352E+02  0.22979276352E+02  0.00000000000E+00 0. -1.
         24    2    1    2    0    0  0.40556048922E+01  0.63686092012E+02  0.57120715853E+03  0.58120620189E+03  0.86317234210E+02 0.  0.
        -11    1    3    3    0    0 -0.13557342601E+02  0.21308303570E+02  0.35667035253E+02  0.43703349336E+02  0.00000000000E+00 0.  1.
         12    1    3    3    0    0  0.17612947493E+02  0.42377788441E+02  0.53554012327E+03  0.53750285256E+03  0.00000000000E+00 0. -1.
          1    1    1    2  501    0 -0.40556048922E+01 -0.63686092012E+02  0.38644575335E+02  0.74604084671E+02  0.00000000000E+00 0. -1.
<mgrwt>
<rscale>  1 0.10734538E+03</rscale>
<asrwt>0</asrwt>
<pdfrwt beam="1">  1       21 0.35352738E-02 0.10734538E+03</pdfrwt>
<pdfrwt beam="2">  1        2 0.97358604E-01 0.10734538E+03</pdfrwt>
<totfact> 0.28020263E+05</totfact>
</mgrwt>
</event>
<event>
 6    2  0.9453093E+000  0.9622590E+02  0.7546771E-02  0.1288439E+00
          2   -1    0    0  502    0 -0.00000000000E+00  0.00000000000E+00  0.30644078095E+02  0.30644078095E+02  0.00000000000E+00 0. -1.
         21   -1    0    0  501  502  0.00000000000E+00 -0.00000000000E+00 -0.17954107298E+03  0.17954107298E+03  0.00000000000E+00 0. -1.
         24    2    1    2    0    0  0.38200696510E+02  0.31292522172E+02 -0.11660590579E+03  0.15118320541E+03  0.82588795696E+02 0.  0.
        -11    1    3    3    0    0  0.10324508136E+02 -0.28020441208E+02 -0.27689998059E+02  0.40724397924E+02  0.00000000000E+00 0.  1.
         12    1    3    3    0    0  0.27876188375E+02  0.59312963380E+02 -0.88915907728E+02  0.11045880748E+03  0.00000000000E+00 0. -1.
          1    1    1    2  501    0 -0.38200696510E+02 -0.31292522172E+02 -0.32291089099E+02  0.59001945671E+02  0.00000000000E+00 0. -1.
<mgrwt>
<rscale>  1 0.96225903E+02</rscale>
<asrwt>0</asrwt>
<pdfrwt beam="1">  1       21 0.27621703E-01 0.96225903E+02</pdfrwt>
<pdfrwt beam="2">  1        2 0.47144737E-02 0.96225903E+02</pdfrwt>
<totfact> 0.24384758E+05</totfact>
</mgrwt>
</event>
<event>
 6    2  0.9453093E+000  0.8670895E+02  0.7546771E-02  0.1311023E+00
          2   -1    0    0  502    0 -0.00000000000E+00  0.00000000000E+00  0.20833441698E+02  0.20833441698E+02  0.00000000000E+00 0. -1.
         21   -1    0    0  501  502  0.00000000000E+00 -0.00000000000E+00 -0.25025787331E+03  0.25025787331E+03  0.00000000000E+00 0. -1.
         24    2    1    2    0    0  0.29411198467E+02  0.13129970106E+02 -0.22157919557E+03  0.23794071262E+03  0.80504832783E+02 0.  0.
        -11    1    3    3    0    0 -0.27492098184E+02  0.39737892345E-02 -0.56429954995E+02  0.62770656354E+02  0.00000000000E+00 0.  1.
         12    1    3    3    0    0  0.56903296651E+02  0.13125996317E+02 -0.16514924057E+03  0.17517005626E+03  0.00000000000E+00 0. -1.
          1    1    1    2  501    0 -0.29411198467E+02 -0.13129970106E+02 -0.78452360429E+01  0.33150602390E+02  0.00000000000E+00 0. -1.
<mgrwt>
<rscale>  1 0.86708955E+02</rscale>
<asrwt>0</asrwt>
<pdfrwt beam="1">  1       21 0.38501213E-01 0.86708955E+02</pdfrwt>
<pdfrwt beam="2">  1        2 0.32051448E-02 0.86708955E+02</pdfrwt>
<totfact> 0.21135210E+05</totfact>
</mgrwt>
</event>
<event>
 6    2  0.9453093E+000  0.1130115E+03  0.7546771E-02  0.1255093E+00
          2   -1    0    0  502    0 -0.00000000000E+00  0.00000000000E+00  0.22489045496E+03  0.22489045496E+03  0.00000000000E+00 0. -1.
         21   -1    0    0  501  502  0.00000000000E+00 -0.00000000000E+00 -0.42189502457E+02  0.42189502457E+02  0.00000000000E+00 0. -1.
         24    2    1    2    0    0  0.79651797832E+02 -0.17652382504E+02  0.11228954599E+03  0.15931270046E+03  0.78202166731E+02 0.  0.
        -13    1    3    3    0    0  0.78033854375E+01 -0.57218648876E+01 -0.11902647468E+02  0.15339673361E+02  0.00000000000E+00 0.  1.
         14    1    3    3    0    0  0.71848412394E+02 -0.11930517616E+02  0.12419219346E+03  0.14397302710E+03  0.00000000000E+00 0. -1.
          1    1    1    2  501    0 -0.79651797832E+02  0.17652382504E+02  0.70411406504E+02  0.10776725696E+03  0.00000000000E+00 0. -1.
<mgrwt>
<rscale>  1 0.11301148E+03</rscale>
<asrwt>0</asrwt>
<pdfrwt beam="1">  1       21 0.64906928E-02 0.11301148E+03</pdfrwt>
<pdfrwt beam="2">  1        2 0.34598531E-01 0.11301148E+03</pdfrwt>
<totfact> 0.30913621E+05</totfact>
</mgrwt>
</event>
<event>
 6    2  0.9453093E+000  0.8560951E+02  0.7546771E-02  0.1313846E+00
          2   -1    0    0  502    0 -0.00000000000E+00  0.00000000000E+00  0.15191545015E+04  0.15191545015E+04  0.00000000000E+00 0. -1.
         21   -1    0    0  501  502  0.00000000000E+00 -0.00000000000E+00 -0.76866248602E+01  0.76866248602E+01  0.00000000000E+00 0. -1.
         24    2    1    2    0    0  0.26779063500E+02  0.61216317398E+01  0.14887081318E+04  0.14911676264E+04  0.81082646485E+02 0.  0.
        -13    1    3    3    0    0 -0.27403660320E+02 -0.86292114185E+01  0.59962043389E+03  0.60030832797E+03  0.00000000000E+00 0.  1.
         14    1    3    3    0    0  0.54182723820E+02  0.14750843158E+02  0.88908769793E+03  0.89085929840E+03  0.00000000000E+00 0. -1.
          1    1    1    2  501    0 -0.26779063500E+02 -0.61216317398E+01  0.22759744804E+02  0.35673499977E+02  0.00000000000E+00 0. -1.
<mgrwt>
<rscale>  1 0.85609510E+02</rscale>
<asrwt>0</asrwt>
<pdfrwt beam="1">  1       21 0.11825589E-02 0.85609510E+02</pdfrwt>
<pdfrwt beam="2">  1        2 0.23371584E+00 0.85609510E+02</pdfrwt>
<totfact> 0.47971806E+05</totfact>
</mgrwt>
</event>
<event>
 6    2  0.9453093E+000  0.1197685E+03  0.7546771E-02  0.1243479E+00
         21   -1    0    0  501  502  0.00000000000E+00  0.00000000000E+00  0.12680233568E+02  0.12680233568E+02  0.00000000000E+00 0. -1.
          2   -1    0    0  502    0 -0.00000000000E+00 -0.00000000000E+00 -0.83422393656E+03  0.83422393656E+03  0.00000000000E+00 0. -1.
         24    2    1    2    0    0  0.16813269021E+02  0.43004439668E+02 -0.76299855944E+03  0.77234143359E+03  0.11050982077E+03 0.  0.
        -13    1    3    3    0    0 -0.30089758438E+02 -0.19516196335E+02 -0.36380228716E+03  0.36556583487E+03  0.00000000000E+00 0.  1.
         14    1    3    3    0    0  0.46903027459E+02  0.62520636003E+02 -0.39919627228E+03  0.40677559872E+03  0.00000000000E+00 0. -1.
          1    1    1    2  501    0 -0.16813269021E+02 -0.43004439668E+02 -0.58545143552E+02  0.74562736537E+02  0.00000000000E+00 0. -1.
<mgrwt>
<rscale>  1 0.11976848E+03</rscale>
<asrwt>0</asrwt>
<pdfrwt beam="1">  1       21 0.19508046E-02 0.11976848E+03</pdfrwt>
<pdfrwt beam="2">  1        2 0.12834218E+00 0.11976848E+03</pdfrwt>
<totfact> 0.53287301E+05</totfact>
</mgrwt>
</event>
<event>
 6    2  0.9453093E+000  0.8691677E+02  0.7546771E-02  0.1310495E+00
         21   -1    0    0  501  502  0.00000000000E+00  0.00000000000E+00  0.50248608206E+02  0.50248608206E+02  0.00000000000E+00 0. -1.
          2   -1    0    0  502    0 -0.00000000000E+00 -0.00000000000E+00 -0.11752758158E+04  0.11752758158E+04  0.00000000000E+00 0. -1.
         24    2    1    2    0    0  0.32551360233E+02 -0.17296436456E+01 -0.11681992201E+04  0.11714281636E+04  0.80572587230E+02 0.  0.
        -13    1    3    3    0    0 -0.10902399334E+01 -0.23260172591E+02 -0.10822759181E+03  0.11070427219E+03  0.00000000000E+00 0.  1.
         14    1    3    3    0    0  0.33641600166E+02  0.21530528945E+02 -0.10599716283E+04  0.10607238914E+04  0.00000000000E+00 0. -1.
          1    1    1    2  501    0 -0.32551360233E+02  0.17296436456E+01  0.43172012560E+02  0.54096260394E+02  0.00000000000E+00 0. -1.
<mgrwt>
<rscale>  1 0.86916768E+02</rscale>
<asrwt>0</asrwt>
<pdfrwt beam="1">  1       21 0.77305553E-02 0.86916768E+02</pdfrwt>
<pdfrwt beam="2">  1        2 0.18081166E+00 0.86916768E+02</pdfrwt>
<totfact> 0.34180229E+04</totfact>
</mgrwt>
</event>
<event>
 6    2  0.9453093E+000  0.9079651E+02  0.7546771E-02  0.1300934E+00
         -3   -1    0    0    0  501 -0.00000000000E+00  0.00000000000E+00  0.69594909728E+02  0.69594909728E+02  0.00000000000E+00 0.  1.
         21   -1    0    0  501  502  0.00000000000E+00 -0.00000000000E+00 -0.78754248772E+02  0.78754248772E+02  0.00000000000E+00 0.  1.
         24    2    1    2    0    0  0.89810810387E+01  0.40704036454E+02  0.25312260394E+02  0.94258775177E+02  0.80663050843E+02 0.  0.
        -13    1    3    3    0    0  0.34915166636E+02 -0.45057127409E+01 -0.22934977090E+01  0.35279320292E+02  0.00000000000E+00 0.  1.
         14    1    3    3    0    0 -0.25934085598E+02  0.45209749194E+02  0.27605758103E+02  0.58979454884E+02  0.00000000000E+00 0. -1.
         -4    1    1    2    0  502 -0.89810810387E+01 -0.40704036454E+02 -0.34471599439E+02  0.54090383324E+02  0.00000000000E+00 0.  1.
<mgrwt>
<rscale>  1 0.90796510E+02</rscale>
<asrwt>0</asrwt>
<pdfrwt beam="1">  1       21 0.12116038E-01 0.90796510E+02</pdfrwt>
<pdfrwt beam="2">  1       -3 0.10706909E-01 0.90796510E+02</pdfrwt>
<totfact> 0.17033841E+05</totfact>
</mgrwt>
</event>
<event>
 6    2  0.9453093E+000  0.8726726E+02  0.7546771E-02  0.1309608E+00
         21   -1    0    0  501  502  0.00000000000E+00  0.00000000000E+00  0.35364983201E+02  0.35364983201E+02  0.00000000000E+00 0.  1.
          2   -1    0    0  502    0 -0.00000000000E+00 -0.00000000000E+00 -0.14773885769E+03  0.14773885769E+03  0.00000000000E+00 0. -1.
         24    2    1    2    0    0  0.25222756638E+02 -0.22733458164E+02 -0.11992765789E+03  0.14831796421E+03  0.80390159891E+02 0.  0.
        -11    1    3    3    0    0  0.23808155302E+02 -0.29572163021E+02 -0.11504050608E+02  0.39669689500E+02  0.00000000000E+00 0.  1.
         12    1    3    3    0    0  0.14146013360E+01  0.68387048565E+01 -0.10842360728E+03  0.10864827471E+03  0.00000000000E+00 0. -1.
          1    1    1    2  501    0 -0.25222756638E+02  0.22733458164E+02  0.75537834062E+01  0.34785876678E+02  0.00000000000E+00 0. -1.
<mgrwt>
<rscale>  1 0.87267264E+02</rscale>
<asrwt>0</asrwt>
<pdfrwt beam="1">  1       21 0.54407666E-02 0.87267264E+02</pdfrwt>
<pdfrwt beam="2">  1        2 0.22729055E-01 0.87267264E+02</pdfrwt>
<totfact> 0.64132003E+05</totfact>
</mgrwt>
</event>
<event>
 6    2  0.9453093E+000  0.8172908E+02  0.7546771E-02  0.1324215E+00
         -1   -1    0    0    0  501 -0.00000000000E+00  0.00000000000E+00  0.62762673117E+01  0.62762673117E+01  0.00000000000E+00 0.  1.
         21   -1    0    0  501  502  0.00000000000E+00 -0.00000000000E+00 -0.48063309660E+03  0.48063309660E+03  0.00000000000E+00 0. -1.
         24    2    1    2    0    0 -0.89028151687E+01  0.19183490561E+02 -0.43086776690E+03  0.43855065244E+03  0.78945397405E+02 0.  0.
        -11    1    3    3    0    0 -0.95129633324E+00  0.33620314366E+02 -0.73801562645E+02  0.81104260995E+02  0.00000000000E+00 0.  1.
         12    1    3    3    0    0 -0.79515188355E+01 -0.14436823806E+02 -0.35706620426E+03  0.35744639145E+03  0.00000000000E+00 0. -1.
         -2    1    1    2    0  502  0.89028151687E+01 -0.19183490561E+02 -0.43489062381E+02  0.48358711467E+02  0.00000000000E+00 0.  1.
<mgrwt>
<rscale>  1 0.81729078E+02</rscale>
<asrwt>0</asrwt>
<pdfrwt beam="1">  1       21 0.73943563E-01 0.81729078E+02</pdfrwt>
<pdfrwt beam="2">  1       -1 0.96557946E-03 0.81729078E+02</pdfrwt>
<totfact> 0.26443984E+05</totfact>
</mgrwt>
</event>
<event>
 6    2  0.9453093E+000  0.8943364E+02  0.7546771E-02  0.1304229E+00
          2   -1    0    0  502    0 -0.00000000000E+00  0.00000000000E+00  0.20771474070E+04  0.20771474070E+04  0.00000000000E+00 0. -1.
         21   -1    0    0  501  502  0.00000000000E+00 -0.00000000000E+00 -0.19733989089E+01  0.19733989089E+01  0.00000000000E+00 0.  1.
         24    2    1    2    0    0 -0.10613562358E+02 -0.36543965836E+02  0.13631597143E+04  0.13660903271E+04  0.80933713405E+02 0.  0.
        -13    1    3    3    0    0  0.27742016870E+02  0.68641230299E+01  0.62902583011E+03  0.62967470223E+03  0.00000000000E+00 0.  1.
         14    1    3    3    0    0 -0.38355579228E+02 -0.43408088866E+02  0.73413388419E+03  0.73641562487E+03  0.00000000000E+00 0. -1.
          1    1    1    2  501    0  0.10613562358E+02  0.36543965836E+02  0.71201429376E+03  0.71303047878E+03  0.00000000000E+00 0. -1.
<mgrwt>
<rscale>  1 0.89433635E+02</rscale>
<asrwt>0</asrwt>
<pdfrwt beam="1">  1       21 0.30360149E-03 0.89433635E+02</pdfrwt>
<pdfrwt beam="2">  1        2 0.31955939E+00 0.89433635E+02</pdfrwt>
<totfact> 0.20455264E+06</totfact>
</mgrwt>
</event>
<event>
 6    2  0.9453093E+000  0.1278761E+03  0.7546771E-02  0.1230642E+00
          2   -1    0    0  502    0 -0.00000000000E+00  0.00000000000E+00  0.63344387720E+03  0.63344387720E+03  0.00000000000E+00 0. -1.
         21   -1    0    0  501  502  0.00000000000E+00 -0.00000000000E+00 -0.35043904259E+02  0.35043904259E+02  0.00000000000E+00 0. -1.
         24    2    1    2    0    0 -0.10543625797E+03  0.25155464803E+02  0.51794338736E+03  0.53349569255E+03  0.67843198274E+02 0.  0.
        -11    1    3    3    0    0 -0.77390093647E+02  0.32789362449E+02  0.24514812169E+03  0.25915626648E+03  0.00000000000E+00 0.  1.
         12    1    3    3    0    0 -0.28046164326E+02 -0.76338976451E+01  0.27279526567E+03  0.27433942607E+03  0.00000000000E+00 0. -1.
          1    1    1    2  501    0  0.10543625797E+03 -0.25155464803E+02  0.80456585576E+02  0.13499208891E+03  0.00000000000E+00 0. -1.
<mgrwt>
<rscale>  1 0.12787612E+03</rscale>
<asrwt>0</asrwt>
<pdfrwt beam="1">  1       21 0.53913703E-02 0.12787612E+03</pdfrwt>
<pdfrwt beam="2">  1        2 0.97452896E-01 0.12787612E+03</pdfrwt>
<totfact> 0.13965034E+05</totfact>
</mgrwt>
</event>
<event>
 6    2  0.9453093E+000  0.8858775E+02  0.7546771E-02  0.1306308E+00
         -1   -1    0    0    0  501 -0.00000000000E+00  0.00000000000E+00  0.19879867708E+02  0.19879867708E+02  0.00000000000E+00 0.  1.
         21   -1    0    0  501  502  0.00000000000E+00 -0.00000000000E+00 -0.20843041238E+03  0.20843041238E+03  0.00000000000E+00 0. -1.
         24    2    1    2    0    0  0.35091619701E+02 -0.18392948584E+02 -0.12038252298E+03  0.14946485212E+03  0.79234259308E+02 0.  0.
        -11    1    3    3    0    0 -0.33829427801E+01  0.27692893761E+02 -0.46964264780E+02  0.54625844003E+02  0.00000000000E+00 0.  1.
         12    1    3    3    0    0  0.38474562481E+02 -0.46085842344E+02 -0.73418258201E+02  0.94839008113E+02  0.00000000000E+00 0. -1.
         -2    1    1    2    0  502 -0.35091619701E+02  0.18392948584E+02 -0.68168021690E+02  0.78845427971E+02  0.00000000000E+00 0.  1.
<mgrwt>
<rscale>  1 0.88587754E+02</rscale>
<asrwt>0</asrwt>
<pdfrwt beam="1">  1       21 0.32066217E-01 0.88587754E+02</pdfrwt>
<pdfrwt beam="2">  1       -1 0.30584412E-02 0.88587754E+02</pdfrwt>
<totfact> 0.28371385E+05</totfact>
</mgrwt>
</event>
<event>
 6    2  0.9453093E+000  0.8279670E+02  0.7546771E-02  0.1321297E+00
         21   -1    0    0  501  502  0.00000000000E+00  0.00000000000E+00  0.57618785532E+01  0.57618785532E+01  0.00000000000E+00 0. -1.
          2   -1    0    0  502    0 -0.00000000000E+00 -0.00000000000E+00 -0.48751706946E+03  0.48751706946E+03  0.00000000000E+00 0. -1.
         24    2    1    2    0    0  0.10023946322E+02  0.19268316946E+02 -0.41133809315E+03  0.41958827564E+03  0.79897100344E+02 0.  0.
        -11    1    3    3    0    0 -0.33919968972E+02  0.18606583864E+02 -0.20562417614E+03  0.20923209857E+03  0.00000000000E+00 0.  1.
         12    1    3    3    0    0  0.43943915294E+02  0.66173308195E+00 -0.20571391701E+03  0.21035617708E+03  0.00000000000E+00 0. -1.
          1    1    1    2  501    0 -0.10023946322E+02 -0.19268316946E+02 -0.70417097756E+02  0.73690672369E+02  0.00000000000E+00 0. -1.
<mgrwt>
<rscale>  1 0.82796704E+02</rscale>
<asrwt>0</asrwt>
<pdfrwt beam="1">  1       21 0.88644267E-03 0.82796704E+02</pdfrwt>
<pdfrwt beam="2">  1        2 0.75002641E-01 0.82796704E+02</pdfrwt>
<totfact> 0.33193242E+06</totfact>
</mgrwt>
</event>
<event>
 6    2  0.9453093E+000  0.8894886E+02  0.7546771E-02  0.1305417E+00
         21   -1    0    0  501  502  0.00000000000E+00  0.00000000000E+00  0.36096513900E+01  0.36096513900E+01  0.00000000000E+00 0. -1.
          2   -1    0    0  502    0 -0.00000000000E+00 -0.00000000000E+00 -0.14579297318E+04  0.14579297318E+04  0.00000000000E+00 0. -1.
         24    2    1    2    0    0 -0.34672612781E+02  0.15725817211E+02 -0.12811224395E+04  0.12842066050E+04  0.80389103282E+02 0.  0.
        -11    1    3    3    0    0 -0.31788568783E+01 -0.26216468456E+02 -0.19026893835E+03  0.19209288704E+03  0.00000000000E+00 0.  1.
         12    1    3    3    0    0 -0.31493755902E+02  0.41942285667E+02 -0.10908535012E+04  0.10921137180E+04  0.00000000000E+00 0. -1.
          1    1    1    2  501    0  0.34672612781E+02 -0.15725817211E+02 -0.17319764085E+03  0.17733277813E+03  0.00000000000E+00 0. -1.
<mgrwt>
<rscale>  1 0.88948858E+02</rscale>
<asrwt>0</asrwt>
<pdfrwt beam="1">  1       21 0.55533159E-03 0.88948858E+02</pdfrwt>
<pdfrwt beam="2">  1        2 0.22429664E+00 0.88948858E+02</pdfrwt>
<totfact> 0.16702507E+06</totfact>
</mgrwt>
</event>
<event>
 6    2  0.9453093E+000  0.8631675E+02  0.7546771E-02  0.1312025E+00
         21   -1    0    0  501  502  0.00000000000E+00  0.00000000000E+00  0.38815601465E+01  0.38815601465E+01  0.00000000000E+00 0. -1.
         -1   -1    0    0    0  501 -0.00000000000E+00 -0.00000000000E+00 -0.97064277291E+03  0.97064277291E+03  0.00000000000E+00 0.  1.
         24    2    1    2    0    0 -0.20164038392E+02  0.25539191189E+02 -0.79799573899E+03  0.80265047272E+03  0.79948378168E+02 0.  0.
        -11    1    3    3    0    0 -0.19883815945E+02 -0.23723969838E+02 -0.17554725765E+03  0.17825552600E+03  0.00000000000E+00 0.  1.
         12    1    3    3    0    0 -0.28022244655E+00  0.49263161027E+02 -0.62244848134E+03  0.62439494672E+03  0.00000000000E+00 0. -1.
         -2    1    1    2    0  502  0.20164038392E+02 -0.25539191189E+02 -0.16876547377E+03  0.17187386034E+03  0.00000000000E+00 0.  1.
<mgrwt>
<rscale>  1 0.86316753E+02</rscale>
<asrwt>0</asrwt>
<pdfrwt beam="1">  1       21 0.59716254E-03 0.86316753E+02</pdfrwt>
<pdfrwt beam="2">  1       -1 0.14932980E+00 0.86316753E+02</pdfrwt>
<totfact> 0.28931984E+05</totfact>
</mgrwt>
</event>
<event>
 6    2  0.9453093E+000  0.1010645E+03  0.7546771E-02  0.1278073E+00
         21   -1    0    0  501  502  0.00000000000E+00  0.00000000000E+00  0.17488018133E+02  0.17488018133E+02  0.00000000000E+00 0. -1.
          2   -1    0    0  502    0 -0.00000000000E+00 -0.00000000000E+00 -0.44197674311E+03  0.44197674311E+03  0.00000000000E+00 0. -1.
         24    2    1    2    0    0 -0.52764367289E+02  0.31323551848E+02 -0.34222765253E+03  0.35683860768E+03  0.80304311321E+02 0.  0.
        -11    1    3    3    0    0 -0.10093840491E+01 -0.22382772347E+02 -0.12927402397E+03  0.13120129811E+03  0.00000000000E+00 0.  1.
         12    1    3    3    0    0 -0.51754983240E+02  0.53706324195E+02 -0.21295362857E+03  0.22563730957E+03  0.00000000000E+00 0. -1.
          1    1    1    2  501    0  0.52764367289E+02 -0.31323551848E+02 -0.82261072445E+02  0.10262615356E+03  0.00000000000E+00 0. -1.
<mgrwt>
<rscale>  1 0.10106446E+03</rscale>
<asrwt>0</asrwt>
<pdfrwt beam="1">  1       21 0.26904645E-02 0.10106446E+03</pdfrwt>
<pdfrwt beam="2">  1        2 0.67996418E-01 0.10106446E+03</pdfrwt>
<totfact> 0.64683367E+05</totfact>
</mgrwt>
</event>
<event>
 6    2  0.9453093E+000  0.8313053E+02  0.7546771E-02  0.1320395E+00
          2   -1    0    0  502    0 -0.00000000000E+00  0.00000000000E+00  0.82534321826E+02  0.82534321826E+02  0.00000000000E+00 0. -1.
         21   -1    0    0  501  502  0.00000000000E+00 -0.00000000000E+00 -0.38716994108E+02  0.38716994108E+02  0.00000000000E+00 0. -1.
         24    2    1    2    0    0 -0.21154132737E+02  0.21164960902E+02  0.32575839092E+02  0.89285334511E+02  0.77557931667E+02 0.  0.
        -13    1    3    3    0    0  0.28875792783E+02  0.86107898965E+00  0.80928491409E+01  0.30000784541E+02  0.00000000000E+00 0.  1.
         14    1    3    3    0    0 -0.50029925520E+02  0.20303881912E+02  0.24482989951E+02  0.59284549970E+02  0.00000000000E+00 0. -1.
          1    1    1    2  501    0  0.21154132737E+02 -0.21164960902E+02  0.11241488626E+02  0.31965981424E+02  0.00000000000E+00 0. -1.
<mgrwt>
<rscale>  1 0.83130534E+02</rscale>
<asrwt>0</asrwt>
<pdfrwt beam="1">  1       21 0.59564607E-02 0.83130534E+02</pdfrwt>
<pdfrwt beam="2">  1        2 0.12697588E-01 0.83130534E+02</pdfrwt>
<totfact> 0.10628758E+06</totfact>
</mgrwt>
</event>
<event>
 6    2  0.9453093E+000  0.7889717E+02  0.7546771E-02  0.1332211E+00
         -1   -1    0    0    0  501 -0.00000000000E+00  0.00000000000E+00  0.68438908232E+02  0.68438908232E+02  0.00000000000E+00 0.  1.
         21   -1    0    0  501  502  0.00000000000E+00 -0.00000000000E+00 -0.57033010599E+02  0.57033010599E+02  0.00000000000E+00 0.  1.
         24    2    1    2    0    0 -0.53795391250E+01 -0.26376829401E+02  0.38052476212E+02  0.87594264198E+02  0.74162575495E+02 0.  0.
        -11    1    3    3    0    0 -0.17312379189E+02 -0.15363230110E+02  0.57661902363E+02  0.62134067119E+02  0.00000000000E+00 0.  1.
         12    1    3    3    0    0  0.11932840064E+02 -0.11013599291E+02 -0.19609426151E+02  0.25460197079E+02  0.00000000000E+00 0. -1.
         -2    1    1    2    0  502  0.53795391250E+01  0.26376829401E+02 -0.26646578579E+02  0.37877654632E+02  0.00000000000E+00 0.  1.
<mgrwt>
<rscale>  1 0.78897175E+02</rscale>
<asrwt>0</asrwt>
<pdfrwt beam="1">  1       21 0.87743093E-02 0.78897175E+02</pdfrwt>
<pdfrwt beam="2">  1       -1 0.10529063E-01 0.78897175E+02</pdfrwt>
<totfact> 0.47253332E+05</totfact>
</mgrwt>
</event>
<event>
 6    2  0.9453093E+000  0.8532058E+02  0.7546771E-02  0.1314596E+00
          2   -1    0    0  502    0 -0.00000000000E+00  0.00000000000E+00  0.34302286380E+02  0.34302286380E+02  0.00000000000E+00 0. -1.
         21   -1    0    0  501  502  0.00000000000E+00 -0.00000000000E+00 -0.19586958854E+03  0.19586958854E+03  0.00000000000E+00 0. -1.
         24    2    1    2    0    0  0.17088181198E+01 -0.23724824473E+02 -0.21349887915E+02  0.87951234318E+02  0.81937870051E+02 0.  0.
        -13    1    3    3    0    0  0.40717378794E+01  0.25719046078E+02 -0.27732322625E+02  0.38041163214E+02  0.00000000000E+00 0.  1.
         14    1    3    3    0    0 -0.23629197596E+01 -0.49443870551E+02  0.63824347096E+01  0.49910071104E+02  0.00000000000E+00 0. -1.
          1    1    1    2  501    0 -0.17088181198E+01  0.23724824473E+02 -0.14021741424E+03  0.14222064060E+03  0.00000000000E+00 0. -1.
<mgrwt>
<rscale>  1 0.85320583E+02</rscale>
<asrwt>0</asrwt>
<pdfrwt beam="1">  1       21 0.30133784E-01 0.85320583E+02</pdfrwt>
<pdfrwt beam="2">  1        2 0.52772747E-02 0.85320583E+02</pdfrwt>
<totfact> 0.17713405E+05</totfact>
</mgrwt>
</event>
<event>
 6    2  0.9453093E+000  0.1031548E+03  0.7546771E-02  0.1273798E+00
          2   -1    0    0  502    0 -0.00000000000E+00  0.00000000000E+00  0.13495874292E+03  0.13495874292E+03  0.00000000000E+00 0. -1.
         21   -1    0    0  501  502  0.00000000000E+00 -0.00000000000E+00 -0.89346863860E+02  0.89346863860E+02  0.00000000000E+00 0. -1.
         24    2    1    2    0    0 -0.55342980320E+02  0.30217370553E+02  0.98032132716E+02  0.14230671687E+03  0.81639253228E+02 0.  0.
        -11    1    3    3    0    0 -0.59376651163E+02 -0.10548721955E+02  0.44744857886E+02  0.75093039261E+02  0.00000000000E+00 0.  1.
         12    1    3    3    0    0  0.40336708431E+01  0.40766092508E+02  0.53287274830E+02  0.67213677608E+02  0.00000000000E+00 0. -1.
          1    1    1    2  501    0  0.55342980320E+02 -0.30217370553E+02 -0.52420253653E+02  0.81998889912E+02  0.00000000000E+00 0. -1.
<mgrwt>
<rscale>  1 0.10315475E+03</rscale>
<asrwt>0</asrwt>
<pdfrwt beam="1">  1       21 0.13745671E-01 0.10315475E+03</pdfrwt>
<pdfrwt beam="2">  1        2 0.20762884E-01 0.10315475E+03</pdfrwt>
<totfact> 0.14570632E+05</totfact>
</mgrwt>
</event>
<event>
 6    2  0.9453093E+000  0.8505758E+02  0.7546771E-02  0.1315282E+00
          2   -1    0    0  502    0 -0.00000000000E+00  0.00000000000E+00  0.51260488138E+02  0.51260488138E+02  0.00000000000E+00 0. -1.
         21   -1    0    0  501  502  0.00000000000E+00 -0.00000000000E+00 -0.66537152911E+02  0.66537152911E+02  0.00000000000E+00 0.  1.
         24    2    1    2    0    0  0.24370689983E+02 -0.82459994439E+01 -0.27392519704E+02  0.89359621115E+02  0.81073205889E+02 0.  0.
        -13    1    3    3    0    0  0.40788520398E+02 -0.12413815378E+02 -0.46994462349E+02  0.63453019628E+02  0.00000000000E+00 0.  1.
         14    1    3    3    0    0 -0.16417830415E+02  0.41678159338E+01  0.19601942645E+02  0.25906601488E+02  0.00000000000E+00 0. -1.
          1    1    1    2  501    0 -0.24370689983E+02  0.82459994439E+01  0.12115854931E+02  0.28438019934E+02  0.00000000000E+00 0. -1.
<mgrwt>
<rscale>  1 0.85057579E+02</rscale>
<asrwt>0</asrwt>
<pdfrwt beam="1">  1       21 0.10236485E-01 0.85057579E+02</pdfrwt>
<pdfrwt beam="2">  1        2 0.78862289E-02 0.85057579E+02</pdfrwt>
<totfact> 0.75356990E+05</totfact>
</mgrwt>
</event>
<event>
 6    2  0.9453093E+000  0.9469417E+02  0.7546771E-02  0.1291866E+00
          2   -1    0    0  502    0 -0.00000000000E+00  0.00000000000E+00  0.50563605472E+02  0.50563605472E+02  0.00000000000E+00 0. -1.
         21   -1    0    0  501  502  0.00000000000E+00 -0.00000000000E+00 -0.45376590300E+03  0.45376590300E+03  0.00000000000E+00 0. -1.
         24    2    1    2    0    0 -0.47126818189E+02  0.74407110664E+01  0.35771043048E+01  0.94761708310E+02  0.81796604530E+02 0.  0.
        -13    1    3    3    0    0 -0.20892806960E+02 -0.20399109188E+02 -0.31435331001E+02  0.42904697568E+02  0.00000000000E+00 0.  1.
         14    1    3    3    0    0 -0.26234011230E+02  0.27839820254E+02  0.35012435305E+02  0.51857010741E+02  0.00000000000E+00 0. -1.
          1    1    1    2  501    0  0.47126818189E+02 -0.74407110664E+01 -0.40677940183E+03  0.40956780016E+03  0.00000000000E+00 0. -1.
<mgrwt>
<rscale>  1 0.94694169E+02</rscale>
<asrwt>0</asrwt>
<pdfrwt beam="1">  1       21 0.69810135E-01 0.94694169E+02</pdfrwt>
<pdfrwt beam="2">  1        2 0.77790167E-02 0.94694169E+02</pdfrwt>
<totfact> 0.19914058E+04</totfact>
</mgrwt>
</event>
<event>
 6    2  0.9453093E+000  0.8851601E+02  0.7546771E-02  0.1306486E+00
         21   -1    0    0  501  502  0.00000000000E+00  0.00000000000E+00  0.47063187831E+01  0.47063187831E+01  0.00000000000E+00 0. -1.
         -1   -1    0    0    0  501 -0.00000000000E+00 -0.00000000000E+00 -0.89696676701E+03  0.89696676701E+03  0.00000000000E+00 0.  1.
         24    2    1    2    0    0  0.19247448795E+02 -0.34385839447E+02 -0.53875421020E+03  0.54597727395E+03  0.79260547694E+02 0.  0.
        -13    1    3    3    0    0 -0.21753220787E+02  0.13274004754E+02 -0.17085120333E+03  0.17274123855E+03  0.00000000000E+00 0.  1.
         14    1    3    3    0    0  0.41000669583E+02 -0.47659844201E+02 -0.36790300687E+03  0.37323603539E+03  0.00000000000E+00 0. -1.
         -2    1    1    2    0  502 -0.19247448795E+02  0.34385839447E+02 -0.35350623803E+03  0.35569581185E+03  0.00000000000E+00 0.  1.
<mgrwt>
<rscale>  1 0.88516014E+02</rscale>
<asrwt>0</asrwt>
<pdfrwt beam="1">  1       21 0.72404842E-03 0.88516014E+02</pdfrwt>
<pdfrwt beam="2">  1       -1 0.13799501E+00 0.88516014E+02</pdfrwt>
<totfact> 0.26261199E+05</totfact>
</mgrwt>
</event>
<event>
 6    2  0.9453093E+000  0.1263704E+03  0.7546771E-02  0.1232943E+00
          4   -1    0    0  502    0 -0.00000000000E+00  0.00000000000E+00  0.25471215780E+02  0.25471215780E+02  0.00000000000E+00 0. -1.
         21   -1    0    0  501  502  0.00000000000E+00 -0.00000000000E+00 -0.49252224176E+03  0.49252224176E+03  0.00000000000E+00 0. -1.
         24    2    1    2    0    0  0.74993434873E+02 -0.62151486973E+02 -0.25182127408E+03  0.28175064028E+03  0.80514884390E+02 0.  0.
        -11    1    3    3    0    0 -0.13960093923E+02  0.40052432347E+01 -0.42064307828E+02  0.44500923460E+02  0.00000000000E+00 0.  1.
         12    1    3    3    0    0  0.88953528796E+02 -0.66156730208E+02 -0.20975696626E+03  0.23724971682E+03  0.00000000000E+00 0. -1.
          3    1    1    2  501    0 -0.74993434873E+02  0.62151486973E+02 -0.21522975189E+03  0.23624281726E+03  0.00000000000E+00 0. -1.
<mgrwt>
<rscale>  1 0.12637037E+03</rscale>
<asrwt>0</asrwt>
<pdfrwt beam="1">  1       21 0.75772643E-01 0.12637037E+03</pdfrwt>
<pdfrwt beam="2">  1        4 0.39186491E-02 0.12637037E+03</pdfrwt>
<totfact> 0.22413524E+04</totfact>
</mgrwt>
</event>
<event>
 6    2  0.9453093E+000  0.9034356E+02  0.7546771E-02  0.1302022E+00
         21   -1    0    0  501  502  0.00000000000E+00  0.00000000000E+00  0.24653045241E+02  0.24653045241E+02  0.00000000000E+00 0.  1.
          2   -1    0    0  502    0 -0.00000000000E+00 -0.00000000000E+00 -0.26170394304E+03  0.26170394304E+03  0.00000000000E+00 0. -1.
         24    2    1    2    0    0 -0.20613714110E+02  0.35389184585E+02 -0.22681017637E+03  0.24414097272E+03  0.80527255371E+02 0.  0.
        -11    1    3    3    0    0 -0.24849219966E+02  0.37825458778E+02 -0.50693219769E+02  0.67956247654E+02  0.00000000000E+00 0.  1.
         12    1    3    3    0    0  0.42355058569E+01 -0.24362741926E+01 -0.17611695660E+03  0.17618472506E+03  0.00000000000E+00 0. -1.
          1    1    1    2  501    0  0.20613714110E+02 -0.35389184585E+02 -0.10240721428E+02  0.42216015567E+02  0.00000000000E+00 0. -1.
<mgrwt>
<rscale>  1 0.90343558E+02</rscale>
<asrwt>0</asrwt>
<pdfrwt beam="1">  1       21 0.37927762E-02 0.90343558E+02</pdfrwt>
<pdfrwt beam="2">  1        2 0.40262145E-01 0.90343558E+02</pdfrwt>
<totfact> 0.63433701E+05</totfact>
</mgrwt>
</event>
<event>
 6    2  0.9453093E+000  0.9757804E+02  0.7546771E-02  0.1285473E+00
         21   -1    0    0  501  502  0.00000000000E+00  0.00000000000E+00  0.57295927561E+03  0.57295927561E+03  0.00000000000E+00 0.  1.
          2   -1    0    0  502    0 -0.00000000000E+00 -0.00000000000E+00 -0.25147335756E+02  0.25147335756E+02  0.00000000000E+00 0. -1.
         24    2    1    2    0    0  0.10309604183E+02 -0.53844377471E+02  0.77500162226E+02  0.12461038847E+03  0.80721551307E+02 0.  0.
        -13    1    3    3    0    0 -0.27412821194E+02  0.45990594631E+01  0.25998128338E+02  0.38059385056E+02  0.00000000000E+00 0.  1.
         14    1    3    3    0    0  0.37722425377E+02 -0.58443436934E+02  0.51502033888E+02  0.86551003412E+02  0.00000000000E+00 0. -1.
          1    1    1    2  501    0 -0.10309604183E+02  0.53844377471E+02  0.47031177763E+03  0.47349622290E+03  0.00000000000E+00 0. -1.
<mgrwt>
<rscale>  1 0.97578039E+02</rscale>
<asrwt>0</asrwt>
<pdfrwt beam="1">  1       21 0.88147571E-01 0.97578039E+02</pdfrwt>
<pdfrwt beam="2">  1        2 0.38688213E-02 0.97578039E+02</pdfrwt>
<totfact> 0.29145442E+04</totfact>
</mgrwt>
</event>
<event>
 6    2  0.9453093E+000  0.8474163E+02  0.7546771E-02  0.1316110E+00
         21   -1    0    0  501  502  0.00000000000E+00  0.00000000000E+00  0.30398978905E+02  0.30398978905E+02  0.00000000000E+00 0.  1.
          2   -1    0    0  502    0 -0.00000000000E+00 -0.00000000000E+00 -0.10604102702E+03  0.10604102702E+03  0.00000000000E+00 0. -1.
         24    2    1    2    0    0 -0.67231736313E+01 -0.25897085146E+02 -0.67893978868E+02  0.10858515608E+03  0.80406987707E+02 0.  0.
        -11    1    3    3    0    0 -0.17488832925E+02  0.26035718969E+02 -0.29999871898E+02  0.43401730993E+02  0.00000000000E+00 0.  1.
         12    1    3    3    0    0  0.10765659294E+02 -0.51932804115E+02 -0.37894106971E+02  0.65183425089E+02  0.00000000000E+00 0. -1.
          1    1    1    2  501    0  0.67231736313E+01  0.25897085146E+02 -0.77480692472E+01  0.27854849843E+02  0.00000000000E+00 0. -1.
<mgrwt>
<rscale>  1 0.84741629E+02</rscale>
<asrwt>0</asrwt>
<pdfrwt beam="1">  1       21 0.46767659E-02 0.84741629E+02</pdfrwt>
<pdfrwt beam="2">  1        2 0.16314004E-01 0.84741629E+02</pdfrwt>
<totfact> 0.11919858E+06</totfact>
</mgrwt>
</event>
<event>
 6    2  0.9453093E+000  0.8325688E+02  0.7546771E-02  0.1320055E+00
          2   -1    0    0  502    0 -0.00000000000E+00  0.00000000000E+00  0.37728405148E+03  0.37728405148E+03  0.00000000000E+00 0. -1.
         21   -1    0    0  501  502  0.00000000000E+00 -0.00000000000E+00 -0.21389333769E+02  0.21389333769E+02  0.00000000000E+00 0. -1.
         24    2    1    2    0    0 -0.21818483292E+01 -0.21150509109E+02  0.36584401350E+03  0.37519801551E+03  0.80495988307E+02 0.  0.
        -11    1    3    3    0    0 -0.31242593266E+01  0.13284229522E+02  0.82457582663E+01  0.15944412178E+02  0.00000000000E+00 0.  1.
         12    1    3    3    0    0  0.94241099740E+00 -0.34434738630E+02  0.35759825523E+03  0.35925360334E+03  0.00000000000E+00 0. -1.
          1    1    1    2  501    0  0.21818483292E+01  0.21150509109E+02 -0.99492957865E+01  0.23475369738E+02  0.00000000000E+00 0. -1.
<mgrwt>
<rscale>  1 0.83256883E+02</rscale>
<asrwt>0</asrwt>
<pdfrwt beam="1">  1       21 0.32906670E-02 0.83256883E+02</pdfrwt>
<pdfrwt beam="2">  1        2 0.58043695E-01 0.83256883E+02</pdfrwt>
<totfact> 0.54204349E+05</totfact>
</mgrwt>
</event>
<event>
 6    2  0.9453093E+000  0.8521262E+02  0.7546771E-02  0.1314877E+00
          2   -1    0    0  502    0 -0.00000000000E+00  0.00000000000E+00  0.10451879221E+04  0.10451879221E+04  0.00000000000E+00 0. -1.
         21   -1    0    0  501  502  0.00000000000E+00 -0.00000000000E+00 -0.35629019085E+01  0.35629019085E+01  0.00000000000E+00 0.  1.
         24    2    1    2    0    0  0.33687722741E+02  0.10072112347E+02  0.65253451971E+03  0.65807483591E+03  0.77620101367E+02 0.  0.
        -11    1    3    3    0    0  0.18914821227E+02 -0.29684542619E+02  0.16575154113E+03  0.16944767900E+03  0.00000000000E+00 0.  1.
         12    1    3    3    0    0  0.14772901515E+02  0.39756654967E+02  0.48678297858E+03  0.48862715691E+03  0.00000000000E+00 0. -1.
          1    1    1    2  501    0 -0.33687722741E+02 -0.10072112347E+02  0.38909050050E+03  0.39067598811E+03  0.00000000000E+00 0. -1.
<mgrwt>
<rscale>  1 0.85212618E+02</rscale>
<asrwt>0</asrwt>
<pdfrwt beam="1">  1       21 0.54813959E-03 0.85212618E+02</pdfrwt>
<pdfrwt beam="2">  1        2 0.16079790E+00 0.85212618E+02</pdfrwt>
<totfact> 0.28275916E+06</totfact>
</mgrwt>
</event>
<event>
 6    2  0.9453093E+000  0.8271236E+02  0.7546771E-02  0.1321526E+00
         21   -1    0    0  501  502  0.00000000000E+00  0.00000000000E+00  0.26619508292E+01  0.26619508292E+01  0.00000000000E+00 0. -1.
          2   -1    0    0  502    0 -0.00000000000E+00 -0.00000000000E+00 -0.10311829994E+04  0.10311829994E+04  0.00000000000E+00 0. -1.
         24    2    1    2    0    0  0.30039579045E+01 -0.19944237885E+02 -0.89432080360E+03  0.89813753651E+03  0.80215574238E+02 0.  0.
        -13    1    3    3    0    0  0.12164183520E+02  0.21464771280E+02 -0.11278942370E+03  0.11545630284E+03  0.00000000000E+00 0.  1.
         14    1    3    3    0    0 -0.91602256153E+01 -0.41409009164E+02 -0.78153137989E+03  0.78268123366E+03  0.00000000000E+00 0. -1.
          1    1    1    2  501    0 -0.30039579045E+01  0.19944237885E+02 -0.13420024498E+03  0.13570741373E+03  0.00000000000E+00 0. -1.
<mgrwt>
<rscale>  1 0.82712361E+02</rscale>
<asrwt>0</asrwt>
<pdfrwt beam="1">  1       21 0.40953083E-03 0.82712361E+02</pdfrwt>
<pdfrwt beam="2">  1        2 0.15864356E+00 0.82712361E+02</pdfrwt>
<totfact> 0.44815176E+06</totfact>
</mgrwt>
</event>
<event>
 6    2  0.9453093E+000  0.1001301E+03  0.7546771E-02  0.1280023E+00
         21   -1    0    0  501  502  0.00000000000E+00  0.00000000000E+00  0.35747452620E+03  0.35747452620E+03  0.00000000000E+00 0.  1.
          4   -1    0    0  502    0 -0.00000000000E+00 -0.00000000000E+00 -0.20437090341E+02  0.20437090341E+02  0.00000000000E+00 0. -1.
         24    2    1    2    0    0 -0.59716283321E+02  0.12455110875E+02  0.14344455074E+03  0.17493533849E+03  0.79403206716E+02 0.  0.
        -13    1    3    3    0    0  0.41802088081E+01  0.19093306074E+02  0.87790681434E+02  0.89940159157E+02  0.00000000000E+00 0.  1.
         14    1    3    3    0    0 -0.63896492129E+02 -0.66381951996E+01  0.55653869304E+02  0.84995179336E+02  0.00000000000E+00 0. -1.
          3    1    1    2  501    0  0.59716283321E+02 -0.12455110875E+02  0.19359288513E+03  0.20297627805E+03  0.00000000000E+00 0. -1.
<mgrwt>
<rscale>  1 0.10013008E+03</rscale>
<asrwt>0</asrwt>
<pdfrwt beam="1">  1       21 0.54996076E-01 0.10013008E+03</pdfrwt>
<pdfrwt beam="2">  1        4 0.31441680E-02 0.10013008E+03</pdfrwt>
<totfact> 0.61397445E+04</totfact>
</mgrwt>
</event>
<event>
 6    2  0.9453093E+000  0.8539550E+02  0.7546771E-02  0.1314401E+00
          4   -1    0    0  502    0 -0.00000000000E+00  0.00000000000E+00  0.16852109171E+02  0.16852109171E+02  0.00000000000E+00 0. -1.
         21   -1    0    0  501  502  0.00000000000E+00 -0.00000000000E+00 -0.20906737361E+03  0.20906737361E+03  0.00000000000E+00 0.  1.
         24    2    1    2    0    0 -0.29112294466E+02 -0.17474001961E+01 -0.11395339567E+03  0.14240002876E+03  0.80260903995E+02 0.  0.
        -11    1    3    3    0    0 -0.40263250547E+02 -0.27546953576E+02 -0.39346759724E+02  0.62674807512E+02  0.00000000000E+00 0.  1.
         12    1    3    3    0    0  0.11150956081E+02  0.25799553380E+02 -0.74606635945E+02  0.79725221248E+02  0.00000000000E+00 0. -1.
          3    1    1    2  501    0  0.29112294466E+02  0.17474001961E+01 -0.78261868773E+02  0.83519454023E+02  0.00000000000E+00 0. -1.
<mgrwt>
<rscale>  1 0.85395502E+02</rscale>
<asrwt>0</asrwt>
<pdfrwt beam="1">  1       21 0.32164211E-01 0.85395502E+02</pdfrwt>
<pdfrwt beam="2">  1        4 0.25926322E-02 0.85395502E+02</pdfrwt>
<totfact> 0.23570729E+05</totfact>
</mgrwt>
</event>
<event>
 6    2  0.9453093E+000  0.8685423E+02  0.7546771E-02  0.1310654E+00
          2   -1    0    0  502    0 -0.00000000000E+00  0.00000000000E+00  0.22963315965E+04  0.22963315965E+04  0.00000000000E+00 0. -1.
         21   -1    0    0  501  502  0.00000000000E+00 -0.00000000000E+00 -0.23895783013E+01  0.23895783013E+01  0.00000000000E+00 0.  1.
         24    2    1    2    0    0 -0.27328670374E+02 -0.16021434830E+02  0.21286305464E+04  0.21304017603E+04  0.80870974448E+02 0.  0.
        -13    1    3    3    0    0 -0.24961185857E+02 -0.17131722547E+02  0.25811946494E+03  0.25988885104E+03  0.00000000000E+00 0.  1.
         14    1    3    3    0    0 -0.23674845171E+01  0.11102877171E+01  0.18705110815E+04  0.18705129093E+04  0.00000000000E+00 0. -1.
          1    1    1    2  501    0  0.27328670374E+02  0.16021434830E+02  0.16531147171E+03  0.16831941444E+03  0.00000000000E+00 0. -1.
<mgrwt>
<rscale>  1 0.86854229E+02</rscale>
<asrwt>0</asrwt>
<pdfrwt beam="1">  1       21 0.36762927E-03 0.86854229E+02</pdfrwt>
<pdfrwt beam="2">  1        2 0.35328002E+00 0.86854229E+02</pdfrwt>
<totfact> 0.11827073E+06</totfact>
</mgrwt>
</event>
<event>
 6    2  0.9453093E+000  0.7812287E+02  0.7546771E-02  0.1334464E+00
         21   -1    0    0  501  502  0.00000000000E+00  0.00000000000E+00  0.24698685849E+01  0.24698685849E+01  0.00000000000E+00 0. -1.
          2   -1    0    0  502    0 -0.00000000000E+00 -0.00000000000E+00 -0.10853849422E+04  0.10853849422E+04  0.00000000000E+00 0. -1.
         24    2    1    2    0    0  0.18632182477E+02 -0.88648180248E+01 -0.96422006935E+03  0.96737972099E+03  0.75348783884E+02 0.  0.
        -13    1    3    3    0    0 -0.12662150965E+02  0.27289013833E+02 -0.40852540984E+03  0.40963157939E+03  0.00000000000E+00 0.  1.
         14    1    3    3    0    0  0.31294333442E+02 -0.36153831858E+02 -0.55569465950E+03  0.55774814161E+03  0.00000000000E+00 0. -1.
          1    1    1    2  501    0 -0.18632182477E+02  0.88648180248E+01 -0.11869500428E+03  0.12047508981E+03  0.00000000000E+00 0. -1.
<mgrwt>
<rscale>  1 0.78122868E+02</rscale>
<asrwt>0</asrwt>
<pdfrwt beam="1">  1       21 0.37997913E-03 0.78122868E+02</pdfrwt>
<pdfrwt beam="2">  1        2 0.16698259E+00 0.78122868E+02</pdfrwt>
<totfact> 0.46467060E+06</totfact>
</mgrwt>
</event>
<event>
 6    2  0.9453093E+000  0.9136358E+02  0.7546771E-02  0.1299583E+00
         21   -1    0    0  501  502  0.00000000000E+00  0.00000000000E+00  0.15256195403E+04  0.15256195403E+04  0.00000000000E+00 0. -1.
          4   -1    0    0  502    0 -0.00000000000E+00 -0.00000000000E+00 -0.35634029719E+01  0.35634029719E+01  0.00000000000E+00 0. -1.
         24    2    1    2    0    0 -0.11884601656E+02  0.40689718987E+02  0.68659362038E+03  0.69264572700E+03  0.80934582181E+02 0.  0.
        -11    1    3    3    0    0 -0.43100833131E+02  0.29547715829E+02  0.53075445046E+03  0.53332076278E+03  0.00000000000E+00 0.  1.
         12    1    3    3    0    0  0.31216231475E+02  0.11142003159E+02  0.15583916991E+03  0.15932496421E+03  0.00000000000E+00 0. -1.
          3    1    1    2  501    0  0.11884601656E+02 -0.40689718987E+02  0.83546251694E+03  0.83653721626E+03  0.00000000000E+00 0. -1.
<mgrwt>
<rscale>  1 0.91363579E+02</rscale>
<asrwt>0</asrwt>
<pdfrwt beam="1">  1       21 0.23471018E+00 0.91363579E+02</pdfrwt>
<pdfrwt beam="2">  1        4 0.54821706E-03 0.91363579E+02</pdfrwt>
<totfact> 0.24665856E+04</totfact>
</mgrwt>
</event>
<event>
 6    2  0.9453093E+000  0.9003598E+02  0.7546771E-02  0.1302765E+00
          2   -1    0    0  502    0 -0.00000000000E+00  0.00000000000E+00  0.82776372345E+03  0.82776372345E+03  0.00000000000E+00 0. -1.
         21   -1    0    0  501  502  0.00000000000E+00 -0.00000000000E+00 -0.52134306092E+01  0.52134306092E+01  0.00000000000E+00 0. -1.
         24    2    1    2    0    0  0.34542839449E+02  0.73169829310E-01  0.69591509004E+03  0.70171524908E+03  0.83146046997E+02 0.  0.
        -11    1    3    3    0    0  0.13665749449E+02  0.27622763330E+02  0.96441162496E+02  0.10124558057E+03  0.00000000000E+00 0.  1.
         12    1    3    3    0    0  0.20877090001E+02 -0.27549593500E+02  0.59947392754E+03  0.60046966850E+03  0.00000000000E+00 0. -1.
          1    1    1    2  501    0 -0.34542839449E+02 -0.73169829310E-01  0.12663520280E+03  0.13126190498E+03  0.00000000000E+00 0. -1.
<mgrwt>
<rscale>  1 0.90035983E+02</rscale>
<asrwt>0</asrwt>
<pdfrwt beam="1">  1       21 0.80206690E-03 0.90035983E+02</pdfrwt>
<pdfrwt beam="2">  1        2 0.12734816E+00 0.90035983E+02</pdfrwt>
<totfact> 0.21416472E+06</totfact>
</mgrwt>
</event>
<event>
 6    2  0.9453093E+000  0.8044474E+02  0.7546771E-02  0.1327794E+00
          4   -1    0    0  502    0 -0.00000000000E+00  0.00000000000E+00  0.41400981688E+02  0.41400981688E+02  0.00000000000E+00 0. -1.
         21   -1    0    0  501  502  0.00000000000E+00 -0.00000000000E+00 -0.92122867564E+02  0.92122867564E+02  0.00000000000E+00 0. -1.
         24    2    1    2    0    0  0.17566917821E+02  0.98662988062E+01 -0.16332795934E+01  0.80461322733E+02  0.77880783252E+02 0.  0.
        -13    1    3    3    0    0 -0.10398226240E+02  0.13668076030E+02 -0.33651408228E+02  0.37780374364E+02  0.00000000000E+00 0.  1.
         14    1    3    3    0    0  0.27965144061E+02 -0.38017772241E+01  0.32018128635E+02  0.42680948370E+02  0.00000000000E+00 0. -1.
          3    1    1    2  501    0 -0.17566917821E+02 -0.98662988062E+01 -0.49088606282E+02  0.53062526519E+02  0.00000000000E+00 0. -1.
<mgrwt>
<rscale>  1 0.80444744E+02</rscale>
<asrwt>0</asrwt>
<pdfrwt beam="1">  1       21 0.14172749E-01 0.80444744E+02</pdfrwt>
<pdfrwt beam="2">  1        4 0.63693819E-02 0.80444744E+02</pdfrwt>
<totfact> 0.25600624E+05</totfact>
</mgrwt>
</event>
<event>
 6    2  0.1063350E+001  0.9488293E+02  0.7546771E-02  0.1291440E+00
         -1   -1    0    0    0  501 -0.00000000000E+00  0.00000000000E+00  0.94276566903E+03  0.94276566903E+03  0.00000000000E+00 0.  1.
         21   -1    0    0  501  502  0.00000000000E+00 -0.00000000000E+00 -0.75859311684E+01  0.75859311684E+01  0.00000000000E+00 0.  1.
         24    2    1    2    0    0 -0.35923360309E+02  0.36476059304E+02  0.80328649704E+03  0.80887079693E+03  0.79886038116E+02 0.  0.
        -11    1    3    3    0    0 -0.43463528511E+02  0.25122461387E+02  0.78190414008E+03  0.78351407176E+03  0.00000000000E+00 0.  1.
         12    1    3    3    0    0  0.75401682017E+01  0.11353597917E+02  0.21382356961E+02  0.25356725170E+02  0.00000000000E+00 0. -1.
         -2    1    1    2    0  502  0.35923360309E+02 -0.36476059304E+02  0.13189324082E+03  0.14148080327E+03  0.00000000000E+00 0.  1.
<mgrwt>
<rscale>  1 0.94882927E+02</rscale>
<asrwt>0</asrwt>
<pdfrwt beam="1">  1       21 0.11670671E-02 0.94882927E+02</pdfrwt>
<pdfrwt beam="2">  1       -1 0.14504078E+00 0.94882927E+02</pdfrwt>
<totfact> 0.11070886E+05</totfact>
</mgrwt>
</event>
<event>
 6    2  0.9453093E+000  0.8481488E+02  0.7546771E-02  0.1315917E+00
         21   -1    0    0  501  502  0.00000000000E+00  0.00000000000E+00  0.21821038019E+02  0.21821038019E+02  0.00000000000E+00 0. -1.
          2   -1    0    0  502    0 -0.00000000000E+00 -0.00000000000E+00 -0.17909926071E+04  0.17909926071E+04  0.00000000000E+00 0. -1.
         24    2    1    2    0    0  0.10933529915E+02 -0.18196592602E+02 -0.17845724768E+04  0.17865868265E+04  0.82115196730E+02 0.  0.
        -13    1    3    3    0    0 -0.62223660391E+01 -0.39711572199E+02 -0.46690794358E+03  0.46863499078E+03  0.00000000000E+00 0.  1.
         14    1    3    3    0    0  0.17155895954E+02  0.21514979596E+02 -0.13176645332E+04  0.13179518357E+04  0.00000000000E+00 0. -1.
          1    1    1    2  501    0 -0.10933529915E+02  0.18196592602E+02  0.15400907704E+02  0.26226818656E+02  0.00000000000E+00 0. -1.
<mgrwt>
<rscale>  1 0.84814878E+02</rscale>
<asrwt>0</asrwt>
<pdfrwt beam="1">  1       21 0.33570817E-02 0.84814878E+02</pdfrwt>
<pdfrwt beam="2">  1        2 0.27553741E+00 0.84814878E+02</pdfrwt>
<totfact> 0.66078384E+04</totfact>
</mgrwt>
</event>
<event>
 6    2  0.9453093E+000  0.8814071E+02  0.7546771E-02  0.1307418E+00
          2   -1    0    0  502    0 -0.00000000000E+00  0.00000000000E+00  0.25469768215E+04  0.25469768215E+04  0.00000000000E+00 0. -1.
         21   -1    0    0  501  502  0.00000000000E+00 -0.00000000000E+00 -0.16936009202E+01  0.16936009202E+01  0.00000000000E+00 0.  1.
         24    2    1    2    0    0 -0.10029986674E+02  0.38991968340E+02  0.14758714657E+04  0.14785010547E+04  0.78407978682E+02 0.  0.
        -13    1    3    3    0    0 -0.32604336306E+02  0.24358931481E+02  0.35800872115E+03  0.36031464682E+03  0.00000000000E+00 0.  1.
         14    1    3    3    0    0  0.22574349632E+02  0.14633036859E+02  0.11178627446E+04  0.11181864078E+04  0.00000000000E+00 0. -1.
          1    1    1    2  501    0  0.10029986674E+02 -0.38991968340E+02  0.10694117548E+04  0.10701693677E+04  0.00000000000E+00 0. -1.
<mgrwt>
<rscale>  1 0.88140713E+02</rscale>
<asrwt>0</asrwt>
<pdfrwt beam="1">  1       21 0.26055603E-03 0.88140713E+02</pdfrwt>
<pdfrwt beam="2">  1        2 0.39183952E+00 0.88140713E+02</pdfrwt>
<totfact> 0.14763200E+06</totfact>
</mgrwt>
</event>
<event>
 6    2  0.9453093E+000  0.1000422E+03  0.7546771E-02  0.1280207E+00
         21   -1    0    0  501  502  0.00000000000E+00  0.00000000000E+00  0.74133940621E+03  0.74133940621E+03  0.00000000000E+00 0.  1.
         -1   -1    0    0    0  501 -0.00000000000E+00 -0.00000000000E+00 -0.91667754238E+01  0.91667754238E+01  0.00000000000E+00 0.  1.
         24    2    1    2    0    0 -0.57019805797E+02 -0.15846007939E+02  0.35935854881E+03  0.37302413711E+03  0.80660312673E+02 0.  0.
        -13    1    3    3    0    0 -0.56170288432E+02 -0.39038781674E+02  0.18715978013E+03  0.19926843974E+03  0.00000000000E+00 0.  1.
         14    1    3    3    0    0 -0.84951736472E+00  0.23192773735E+02  0.17219876868E+03  0.17375569737E+03  0.00000000000E+00 0. -1.
         -2    1    1    2    0  502  0.57019805797E+02  0.15846007939E+02  0.37281408197E+03  0.37748204452E+03  0.00000000000E+00 0.  1.
<mgrwt>
<rscale>  1 0.10004219E+03</rscale>
<asrwt>0</asrwt>
<pdfrwt beam="1">  1       21 0.11405217E+00 0.10004219E+03</pdfrwt>
<pdfrwt beam="2">  1       -1 0.14102737E-02 0.10004219E+03</pdfrwt>
<totfact> 0.58535773E+04</totfact>
</mgrwt>
</event>
<event>
 6    2  0.9453093E+000  0.9070894E+02  0.7546771E-02  0.1301144E+00
          2   -1    0    0  502    0 -0.00000000000E+00  0.00000000000E+00  0.35584312194E+03  0.35584312194E+03  0.00000000000E+00 0. -1.
         21   -1    0    0  501  502  0.00000000000E+00 -0.00000000000E+00 -0.11448410270E+02  0.11448410270E+02  0.00000000000E+00 0.  1.
         24    2    1    2    0    0  0.32060046614E+02  0.10700743104E+01  0.29288483425E+03  0.30660991127E+03  0.84847627596E+02 0.  0.
        -13    1    3    3    0    0  0.57129357118E+02  0.39275026818E+01  0.13383693074E+03  0.14557304954E+03  0.00000000000E+00 0.  1.
         14    1    3    3    0    0 -0.25069310504E+02 -0.28574283714E+01  0.15904790351E+03  0.16103686173E+03  0.00000000000E+00 0. -1.
          1    1    1    2  501    0 -0.32060046614E+02 -0.10700743104E+01  0.51509877422E+02  0.60681620940E+02  0.00000000000E+00 0. -1.
<mgrwt>
<rscale>  1 0.90708939E+02</rscale>
<asrwt>0</asrwt>
<pdfrwt beam="1">  1       21 0.17612942E-02 0.90708939E+02</pdfrwt>
<pdfrwt beam="2">  1        2 0.54745087E-01 0.90708939E+02</pdfrwt>
<totfact> 0.15900416E+06</totfact>
</mgrwt>
</event>
<event>
 6    2  0.9453093E+000  0.8649557E+02  0.7546771E-02  0.1311567E+00
         21   -1    0    0  501  502  0.00000000000E+00  0.00000000000E+00  0.13818725666E+02  0.13818725666E+02  0.00000000000E+00 0. -1.
          2   -1    0    0  502    0 -0.00000000000E+00 -0.00000000000E+00 -0.53348648618E+03  0.53348648618E+03  0.00000000000E+00 0. -1.
         24    2    1    2    0    0  0.24640267791E+02 -0.20054975257E+01 -0.51491689675E+03  0.52213110762E+03  0.82887382397E+02 0.  0.
        -11    1    3    3    0    0 -0.16155198072E+02 -0.14778962877E+02 -0.42730441180E+02  0.48013526968E+02  0.00000000000E+00 0.  1.
         12    1    3    3    0    0  0.40795465863E+02  0.12773465352E+02 -0.47218645557E+03  0.47411758065E+03  0.00000000000E+00 0. -1.
          1    1    1    2  501    0 -0.24640267791E+02  0.20054975257E+01 -0.47508637560E+01  0.25174104226E+02  0.00000000000E+00 0. -1.
<mgrwt>
<rscale>  1 0.86495566E+02</rscale>
<asrwt>0</asrwt>
<pdfrwt beam="1">  1       21 0.21259580E-02 0.86495566E+02</pdfrwt>
<pdfrwt beam="2">  1        2 0.82074834E-01 0.86495566E+02</pdfrwt>
<totfact> 0.76176889E+05</totfact>
</mgrwt>
</event>
<event>
 6    2  0.9453093E+000  0.1080472E+03  0.7546771E-02  0.1264229E+00
         -3   -1    0    0    0  501 -0.00000000000E+00  0.00000000000E+00  0.25948975186E+04  0.25948975186E+04  0.00000000000E+00 0.  1.
         21   -1    0    0  501  502  0.00000000000E+00 -0.00000000000E+00 -0.31434998237E+01  0.31434998237E+01  0.00000000000E+00 0. -1.
         24    2    1    2    0    0  0.71677400435E+02 -0.51132328166E+01  0.14404453670E+04  0.14444919703E+04  0.80687061709E+02 0.  0.
        -13    1    3    3    0    0  0.60390601971E+02  0.35269729203E+01  0.14050143783E+04  0.14063160624E+04  0.00000000000E+00 0.  1.
         14    1    3    3    0    0  0.11286798464E+02 -0.86402057369E+01  0.35430988772E+02  0.38175907849E+02  0.00000000000E+00 0. -1.
         -4    1    1    2    0  502 -0.71677400435E+02  0.51132328166E+01  0.11513086517E+04  0.11535490481E+04  0.00000000000E+00 0.  1.
<mgrwt>
<rscale>  1 0.10804720E+03</rscale>
<asrwt>0</asrwt>
<pdfrwt beam="1">  1       21 0.48361743E-03 0.10804720E+03</pdfrwt>
<pdfrwt beam="2">  1       -3 0.39921329E+00 0.10804720E+03</pdfrwt>
<totfact> 0.77080823E+03</totfact>
</mgrwt>
</event>
<event>
 6    2  0.9453093E+000  0.9288061E+02  0.7546771E-02  0.1296022E+00
         -3   -1    0    0    0  501 -0.00000000000E+00  0.00000000000E+00  0.73393558104E+02  0.73393558104E+02  0.00000000000E+00 0.  1.
         21   -1    0    0  501  502  0.00000000000E+00 -0.00000000000E+00 -0.76294084085E+02  0.76294084085E+02  0.00000000000E+00 0.  1.
         24    2    1    2    0    0  0.20509901770E+02 -0.43524932531E+02  0.22087408320E+02  0.95470738154E+02  0.79446412222E+02 0.  0.
        -13    1    3    3    0    0  0.25630765172E+02 -0.49524669748E+02  0.44734103961E+02  0.71489643265E+02  0.00000000000E+00 0.  1.
         14    1    3    3    0    0 -0.51208634015E+01  0.59997372167E+01 -0.22646695641E+02  0.23981094890E+02  0.00000000000E+00 0. -1.
         -4    1    1    2    0  502 -0.20509901770E+02  0.43524932531E+02 -0.24987934301E+02  0.54216904035E+02  0.00000000000E+00 0.  1.
<mgrwt>
<rscale>  1 0.92880613E+02</rscale>
<asrwt>0</asrwt>
<pdfrwt beam="1">  1       21 0.11737551E-01 0.92880613E+02</pdfrwt>
<pdfrwt beam="2">  1       -3 0.11291317E-01 0.92880613E+02</pdfrwt>
<totfact> 0.16550964E+05</totfact>
</mgrwt>
</event>
<event>
 6    2  0.9453093E+000  0.8727178E+02  0.7546771E-02  0.1309596E+00
         21   -1    0    0  501  502  0.00000000000E+00  0.00000000000E+00  0.24064038614E+01  0.24064038614E+01  0.00000000000E+00 0.  1.
          2   -1    0    0  502    0 -0.00000000000E+00 -0.00000000000E+00 -0.16290261524E+04  0.16290261524E+04  0.00000000000E+00 0. -1.
         24    2    1    2    0    0  0.28982421018E+01 -0.34267655241E+02 -0.13220572913E+04  0.13249346568E+04  0.80210294600E+02 0.  0.
        -13    1    3    3    0    0 -0.12117264591E+02 -0.36113139031E+02 -0.26056740790E+03  0.26333697228E+03  0.00000000000E+00 0.  1.
         14    1    3    3    0    0  0.15015506692E+02  0.18454837904E+01 -0.10614898834E+04  0.10615976846E+04  0.00000000000E+00 0. -1.
          1    1    1    2  501    0 -0.28982421018E+01  0.34267655241E+02 -0.30456245727E+03  0.30649789947E+03  0.00000000000E+00 0. -1.
<mgrwt>
<rscale>  1 0.87271779E+02</rscale>
<asrwt>0</asrwt>
<pdfrwt beam="1">  1       21 0.37021542E-03 0.87271779E+02</pdfrwt>
<pdfrwt beam="2">  1        2 0.25061979E+00 0.87271779E+02</pdfrwt>
<totfact> 0.25364033E+06</totfact>
</mgrwt>
</event>
<event>
 6    2  0.9453093E+000  0.1044226E+03  0.7546771E-02  0.1271262E+00
         21   -1    0    0  501  502  0.00000000000E+00  0.00000000000E+00  0.26827602795E+02  0.26827602795E+02  0.00000000000E+00 0. -1.
          2   -1    0    0  502    0 -0.00000000000E+00 -0.00000000000E+00 -0.19343072976E+04  0.19343072976E+04  0.00000000000E+00 0. -1.
         24    2    1    2    0    0  0.37357174704E+02  0.24074819317E+02 -0.19134462463E+04  0.19162934557E+04  0.94492937887E+02 0.  0.
        -13    1    3    3    0    0 -0.12894997735E+01 -0.24485829674E+02 -0.17170927461E+03  0.17345112756E+03  0.00000000000E+00 0.  1.
         14    1    3    3    0    0  0.38646674477E+02  0.48560648991E+02 -0.17417369717E+04  0.17428423281E+04  0.00000000000E+00 0. -1.
          1    1    1    2  501    0 -0.37357174704E+02 -0.24074819317E+02  0.59665515145E+01  0.44841444713E+02  0.00000000000E+00 0. -1.
<mgrwt>
<rscale>  1 0.10442256E+03</rscale>
<asrwt>0</asrwt>
<pdfrwt beam="1">  1       21 0.41273241E-02 0.10442256E+03</pdfrwt>
<pdfrwt beam="2">  1        2 0.29758569E+00 0.10442256E+03</pdfrwt>
<totfact> 0.39693613E+04</totfact>
</mgrwt>
</event>
<event>
 6    2  0.9453093E+000  0.8546331E+02  0.7546771E-02  0.1314225E+00
          2   -1    0    0  502    0 -0.00000000000E+00  0.00000000000E+00  0.43866720590E+03  0.43866720590E+03  0.00000000000E+00 0. -1.
         21   -1    0    0  501  502  0.00000000000E+00 -0.00000000000E+00 -0.10867278214E+02  0.10867278214E+02  0.00000000000E+00 0.  1.
         24    2    1    2    0    0 -0.77015601569E+01  0.28360387723E+02  0.40018221520E+03  0.40920628475E+03  0.80251806822E+02 0.  0.
        -13    1    3    3    0    0  0.23305204391E+02  0.39962364904E+02  0.15371275462E+03  0.16052331324E+03  0.00000000000E+00 0.  1.
         14    1    3    3    0    0 -0.31006764548E+02 -0.11601977181E+02  0.24646946058E+03  0.24868297151E+03  0.00000000000E+00 0. -1.
          1    1    1    2  501    0  0.77015601569E+01 -0.28360387723E+02  0.27617712485E+02  0.40328199359E+02  0.00000000000E+00 0. -1.
<mgrwt>
<rscale>  1 0.85463314E+02</rscale>
<asrwt>0</asrwt>
<pdfrwt beam="1">  1       21 0.16718893E-02 0.85463314E+02</pdfrwt>
<pdfrwt beam="2">  1        2 0.67487249E-01 0.85463314E+02</pdfrwt>
<totfact> 0.13769130E+06</totfact>
</mgrwt>
</event>
<event>
 6    2  0.9453093E+000  0.8489189E+02  0.7546771E-02  0.1315715E+00
         21   -1    0    0  501  502  0.00000000000E+00  0.00000000000E+00  0.48191523111E+03  0.48191523111E+03  0.00000000000E+00 0. -1.
          2   -1    0    0  502    0 -0.00000000000E+00 -0.00000000000E+00 -0.66510177871E+01  0.66510177871E+01  0.00000000000E+00 0. -1.
         24    2    1    2    0    0  0.22259862788E+02  0.17491278259E+02  0.35166830487E+03  0.36176958139E+03  0.80032412541E+02 0.  0.
        -13    1    3    3    0    0  0.36690718270E+02  0.11389576820E+02  0.34017688676E+03  0.34233937190E+03  0.00000000000E+00 0.  1.
         14    1    3    3    0    0 -0.14430855482E+02  0.61017014386E+01  0.11491418113E+02  0.19430209486E+02  0.00000000000E+00 0. -1.
          1    1    1    2  501    0 -0.22259862788E+02 -0.17491278259E+02  0.12359590845E+03  0.12679666751E+03  0.00000000000E+00 0. -1.
<mgrwt>
<rscale>  1 0.84891892E+02</rscale>
<asrwt>0</asrwt>
<pdfrwt beam="1">  1       21 0.74140778E-01 0.84891892E+02</pdfrwt>
<pdfrwt beam="2">  1        2 0.10232339E-02 0.84891892E+02</pdfrwt>
<totfact> 0.25436417E+05</totfact>
</mgrwt>
</event>
<event>
 6    2  0.9453093E+000  0.8284571E+02  0.7546771E-02  0.1321164E+00
          2   -1    0    0  502    0 -0.00000000000E+00  0.00000000000E+00  0.32160153934E+03  0.32160153934E+03  0.00000000000E+00 0. -1.
         21   -1    0    0  501  502  0.00000000000E+00 -0.00000000000E+00 -0.19603933268E+02  0.19603933268E+02  0.00000000000E+00 0. -1.
         24    2    1    2    0    0 -0.19689538986E+02  0.12320017044E+02  0.30654127580E+03  0.31753892026E+03  0.79523275489E+02 0.  0.
        -11    1    3    3    0    0  0.15399911030E+02  0.13608710334E+02  0.19409237648E+02  0.28267875102E+02  0.00000000000E+00 0.  1.
         12    1    3    3    0    0 -0.35089450016E+02 -0.12886932902E+01  0.28713203815E+03  0.28927104516E+03  0.00000000000E+00 0. -1.
          1    1    1    2  501    0  0.19689538986E+02 -0.12320017044E+02 -0.45436697283E+01  0.23666552348E+02  0.00000000000E+00 0. -1.
<mgrwt>
<rscale>  1 0.82845713E+02</rscale>
<asrwt>0</asrwt>
<pdfrwt beam="1">  1       21 0.30159900E-02 0.82845713E+02</pdfrwt>
<pdfrwt beam="2">  1        2 0.49477156E-01 0.82845713E+02</pdfrwt>
<totfact> 0.73746548E+05</totfact>
</mgrwt>
</event>
<event>
 6    2  0.9453093E+000  0.9437812E+02  0.7546771E-02  0.1292583E+00
         21   -1    0    0  501  502  0.00000000000E+00  0.00000000000E+00  0.28799662649E+02  0.28799662649E+02  0.00000000000E+00 0. -1.
          2   -1    0    0  502    0 -0.00000000000E+00 -0.00000000000E+00 -0.19762356992E+03  0.19762356992E+03  0.00000000000E+00 0. -1.
         24    2    1    2    0    0  0.41483276517E+02  0.97067844823E+01 -0.15529233078E+03  0.18172214245E+03  0.84214874943E+02 0.  0.
        -13    1    3    3    0    0 -0.14138058473E+02  0.16971811911E+01  0.22875138411E+01  0.14422130250E+02  0.00000000000E+00 0.  1.
         14    1    3    3    0    0  0.55621334990E+02  0.80096032912E+01 -0.15757984462E+03  0.16730001220E+03  0.00000000000E+00 0. -1.
          1    1    1    2  501    0 -0.41483276517E+02 -0.97067844823E+01 -0.13531576490E+02  0.44701090119E+02  0.00000000000E+00 0. -1.
<mgrwt>
<rscale>  1 0.94378117E+02</rscale>
<asrwt>0</asrwt>
<pdfrwt beam="1">  1       21 0.44307173E-02 0.94378117E+02</pdfrwt>
<pdfrwt beam="2">  1        2 0.30403627E-01 0.94378117E+02</pdfrwt>
<totfact> 0.66339117E+05</totfact>
</mgrwt>
</event>
<event>
 6    2  0.9453093E+000  0.8039098E+02  0.7546771E-02  0.1327946E+00
         -1   -1    0    0    0  501 -0.00000000000E+00  0.00000000000E+00  0.20520252655E+03  0.20520252655E+03  0.00000000000E+00 0.  1.
         21   -1    0    0  501  502  0.00000000000E+00 -0.00000000000E+00 -0.12774536240E+02  0.12774536240E+02  0.00000000000E+00 0. -1.
         24    2    1    2    0    0 -0.17261953337E+02 -0.10137933609E+02  0.16910362350E+03  0.18723980823E+03  0.77858574180E+02 0.  0.
        -11    1    3    3    0    0 -0.16615315018E+02  0.10004424631E+02  0.16566425294E+03  0.16679568911E+03  0.00000000000E+00 0.  1.
         12    1    3    3    0    0 -0.64663831914E+00 -0.20142358240E+02  0.34393705648E+01  0.20444119117E+02  0.00000000000E+00 0. -1.
         -2    1    1    2    0  502  0.17261953337E+02  0.10137933609E+02  0.23324366806E+02  0.30737254558E+02  0.00000000000E+00 0.  1.
<mgrwt>
<rscale>  1 0.80390984E+02</rscale>
<asrwt>0</asrwt>
<pdfrwt beam="1">  1       21 0.19653134E-02 0.80390984E+02</pdfrwt>
<pdfrwt beam="2">  1       -1 0.31569617E-01 0.80390984E+02</pdfrwt>
<totfact> 0.98663160E+05</totfact>
</mgrwt>
</event>
<event>
 6    2  0.9453093E+000  0.9211872E+02  0.7546771E-02  0.1297801E+00
          2   -1    0    0  502    0 -0.00000000000E+00  0.00000000000E+00  0.61379936623E+03  0.61379936623E+03  0.00000000000E+00 0. -1.
         21   -1    0    0  501  502  0.00000000000E+00 -0.00000000000E+00 -0.11464042010E+02  0.11464042010E+02  0.00000000000E+00 0. -1.
         24    2    1    2    0    0  0.43068573904E+02 -0.12541012336E+01  0.19509026989E+03  0.21574538776E+03  0.81421029855E+02 0.  0.
        -11    1    3    3    0    0 -0.12455768215E+02 -0.23925195656E+02  0.31293407688E+02  0.41313902185E+02  0.00000000000E+00 0.  1.
         12    1    3    3    0    0  0.55524342119E+02  0.22671094422E+02  0.16379686221E+03  0.17443148557E+03  0.00000000000E+00 0. -1.
          1    1    1    2  501    0 -0.43068573904E+02  0.12541012336E+01  0.40724505432E+03  0.40951802048E+03  0.00000000000E+00 0. -1.
<mgrwt>
<rscale>  1 0.92118722E+02</rscale>
<asrwt>0</asrwt>
<pdfrwt beam="1">  1       21 0.17636993E-02 0.92118722E+02</pdfrwt>
<pdfrwt beam="2">  1        2 0.94430646E-01 0.92118722E+02</pdfrwt>
<totfact> 0.88401857E+05</totfact>
</mgrwt>
</event>
<event>
 6    2  0.9453093E+000  0.8443547E+02  0.7546771E-02  0.1316915E+00
         -1   -1    0    0    0  501 -0.00000000000E+00  0.00000000000E+00  0.50675331491E+03  0.50675331491E+03  0.00000000000E+00 0.  1.
         21   -1    0    0  501  502  0.00000000000E+00 -0.00000000000E+00 -0.67312412726E+01  0.67312412726E+01  0.00000000000E+00 0. -1.
         24    2    1    2    0    0 -0.26671325579E+01 -0.25282259712E+02  0.44409397131E+03  0.45204955898E+03  0.80517340749E+02 0.  0.
        -11    1    3    3    0    0 -0.86040604110E+01  0.50876593347E+01  0.38683149414E+03  0.38696061685E+03  0.00000000000E+00 0.  1.
         12    1    3    3    0    0  0.59369278531E+01 -0.30369919046E+02  0.57262477170E+02  0.65088942124E+02  0.00000000000E+00 0. -1.
         -2    1    1    2    0  502  0.26671325579E+01  0.25282259712E+02  0.55928102326E+02  0.61434997208E+02  0.00000000000E+00 0.  1.
<mgrwt>
<rscale>  1 0.84435469E+02</rscale>
<asrwt>0</asrwt>
<pdfrwt beam="1">  1       21 0.10355760E-02 0.84435469E+02</pdfrwt>
<pdfrwt beam="2">  1       -1 0.77962018E-01 0.84435469E+02</pdfrwt>
<totfact> 0.53008562E+05</totfact>
</mgrwt>
</event>
<event>
 6    2  0.9453093E+000  0.8378521E+02  0.7546771E-02  0.1318640E+00
          2   -1    0    0  502    0 -0.00000000000E+00  0.00000000000E+00  0.14673348463E+04  0.14673348463E+04  0.00000000000E+00 0. -1.
         21   -1    0    0  501  502  0.00000000000E+00 -0.00000000000E+00 -0.34641719353E+01  0.34641719353E+01  0.00000000000E+00 0. -1.
         24    2    1    2    0    0  0.28607039860E+01  0.25145009378E+02  0.13934918704E+04  0.13960084361E+04  0.79871808339E+02 0.  0.
        -11    1    3    3    0    0  0.15319560600E+02 -0.63098529834E+01  0.64756317445E+02  0.66842230893E+02  0.00000000000E+00 0.  1.
         12    1    3    3    0    0 -0.12458856614E+02  0.31454862362E+02  0.13287355529E+04  0.13291662052E+04  0.00000000000E+00 0. -1.
          1    1    1    2  501    0 -0.28607039860E+01 -0.25145009378E+02  0.70378804039E+02  0.74790582174E+02  0.00000000000E+00 0. -1.
<mgrwt>
<rscale>  1 0.83785207E+02</rscale>
<asrwt>0</asrwt>
<pdfrwt beam="1">  1       21 0.53295070E-03 0.83785207E+02</pdfrwt>
<pdfrwt beam="2">  1        2 0.22574333E+00 0.83785207E+02</pdfrwt>
<totfact> 0.17511954E+06</totfact>
</mgrwt>
</event>
<event>
 6    2  0.9453093E+000  0.8950457E+02  0.7546771E-02  0.1304056E+00
         -1   -1    0    0    0  501 -0.00000000000E+00  0.00000000000E+00  0.21992492653E+03  0.21992492653E+03  0.00000000000E+00 0.  1.
         21   -1    0    0  501  502  0.00000000000E+00 -0.00000000000E+00 -0.24516697395E+02  0.24516697395E+02  0.00000000000E+00 0. -1.
         24    2    1    2    0    0 -0.33647558351E+02  0.43783149458E+01  0.19007450241E+03  0.21009374967E+03  0.82823543511E+02 0.  0.
        -13    1    3    3    0    0 -0.52969440983E+01  0.41924760350E+02  0.96949137471E+02  0.10575858548E+03  0.00000000000E+00 0.  1.
         14    1    3    3    0    0 -0.28350614253E+02 -0.37546445404E+02  0.93125364943E+02  0.10433516419E+03  0.00000000000E+00 0. -1.
         -2    1    1    2    0  502  0.33647558351E+02 -0.43783149458E+01  0.53337267204E+01  0.34347874250E+02  0.00000000000E+00 0.  1.
<mgrwt>
<rscale>  1 0.89504565E+02</rscale>
<asrwt>0</asrwt>
<pdfrwt beam="1">  1       21 0.37717997E-02 0.89504565E+02</pdfrwt>
<pdfrwt beam="2">  1       -1 0.33834603E-01 0.89504565E+02</pdfrwt>
<totfact> 0.30984608E+05</totfact>
</mgrwt>
</event>
<event>
 6    2  0.9453093E+000  0.8464888E+02  0.7546771E-02  0.1316353E+00
          2   -1    0    0  502    0 -0.00000000000E+00  0.00000000000E+00  0.51119079825E+03  0.51119079825E+03  0.00000000000E+00 0. -1.
         21   -1    0    0  501  502  0.00000000000E+00 -0.00000000000E+00 -0.79834072786E+01  0.79834072786E+01  0.00000000000E+00 0. -1.
         24    2    1    2    0    0 -0.29858994521E+02  0.45986186103E+01  0.45083367818E+03  0.45871171602E+03  0.79074181492E+02 0.  0.
        -13    1    3    3    0    0 -0.30316169736E+01 -0.70198022615E+01  0.75400028675E+00  0.76835435639E+01  0.00000000000E+00 0.  1.
         14    1    3    3    0    0 -0.26827377547E+02  0.11618420872E+02  0.45007967790E+03  0.45102817245E+03  0.00000000000E+00 0. -1.
          1    1    1    2  501    0  0.29858994521E+02 -0.45986186103E+01  0.52373712790E+02  0.60462489515E+02  0.00000000000E+00 0. -1.
<mgrwt>
<rscale>  1 0.84648881E+02</rscale>
<asrwt>0</asrwt>
<pdfrwt beam="1">  1       21 0.12282169E-02 0.84648881E+02</pdfrwt>
<pdfrwt beam="2">  1        2 0.78644712E-01 0.84648881E+02</pdfrwt>
<totfact> 0.19002657E+06</totfact>
</mgrwt>
</event>
<event>
 6    2  0.9453093E+000  0.8695606E+02  0.7546771E-02  0.1310395E+00
          2   -1    0    0  502    0 -0.00000000000E+00  0.00000000000E+00  0.17122856700E+03  0.17122856700E+03  0.00000000000E+00 0. -1.
         21   -1    0    0  501  502  0.00000000000E+00 -0.00000000000E+00 -0.62162741826E+02  0.62162741826E+02  0.00000000000E+00 0. -1.
         24    2    1    2    0    0  0.20932555713E+02  0.26217281320E+02  0.15427525614E+03  0.17709379222E+03  0.80223680145E+02 0.  0.
        -11    1    3    3    0    0  0.10398214107E+02 -0.15506037632E+02  0.19087972866E+01  0.18767087327E+02  0.00000000000E+00 0.  1.
         12    1    3    3    0    0  0.10534341606E+02  0.41723318952E+02  0.15236645886E+03  0.15832670489E+03  0.00000000000E+00 0. -1.
          1    1    1    2  501    0 -0.20932555713E+02 -0.26217281320E+02 -0.45209430964E+02  0.56297516611E+02  0.00000000000E+00 0. -1.
<mgrwt>
<rscale>  1 0.86956061E+02</rscale>
<asrwt>0</asrwt>
<pdfrwt beam="1">  1       21 0.95634988E-02 0.86956061E+02</pdfrwt>
<pdfrwt beam="2">  1        2 0.26342856E-01 0.86956061E+02</pdfrwt>
<totfact> 0.20964561E+05</totfact>
</mgrwt>
</event>
<event>
 6    2  0.9453093E+000  0.8489955E+02  0.7546771E-02  0.1315695E+00
          2   -1    0    0  502    0 -0.00000000000E+00  0.00000000000E+00  0.16917622600E+04  0.16917622600E+04  0.00000000000E+00 0. -1.
         21   -1    0    0  501  502  0.00000000000E+00 -0.00000000000E+00 -0.20991420814E+01  0.20991420814E+01  0.00000000000E+00 0.  1.
         24    2    1    2    0    0 -0.95762517621E+01 -0.22622318802E+02  0.15265248907E+04  0.15288839640E+04  0.81267825434E+02 0.  0.
        -13    1    3    3    0    0  0.92593791073E+01 -0.33997471419E+02  0.28578954434E+03  0.28795351677E+03  0.00000000000E+00 0.  1.
         14    1    3    3    0    0 -0.18835630869E+02  0.11375152618E+02  0.12407353464E+04  0.12409304472E+04  0.00000000000E+00 0. -1.
          1    1    1    2  501    0  0.95762517621E+01  0.22622318802E+02  0.16313822717E+03  0.16497743806E+03  0.00000000000E+00 0. -1.
<mgrwt>
<rscale>  1 0.84899549E+02</rscale>
<asrwt>0</asrwt>
<pdfrwt beam="1">  1       21 0.32294629E-03 0.84899549E+02</pdfrwt>
<pdfrwt beam="2">  1        2 0.26027003E+00 0.84899549E+02</pdfrwt>
<totfact> 0.28951071E+06</totfact>
</mgrwt>
</event>
<event>
 6    2  0.9453093E+000  0.8780039E+02  0.7546771E-02  0.1308268E+00
          2   -1    0    0  502    0 -0.00000000000E+00  0.00000000000E+00  0.21256736056E+04  0.21256736056E+04  0.00000000000E+00 0. -1.
         21   -1    0    0  501  502  0.00000000000E+00 -0.00000000000E+00 -0.69941335151E+01  0.69941335151E+01  0.00000000000E+00 0. -1.
         24    2    1    2    0    0 -0.90366375576E+01  0.28851056526E+02  0.20871117585E+04  0.20889577309E+04  0.82430968247E+02 0.  0.
        -13    1    3    3    0    0 -0.20586276626E+02  0.79777966282E+01  0.14254437536E+03  0.14424402577E+03  0.00000000000E+00 0.  1.
         14    1    3    3    0    0  0.11549639068E+02  0.20873259898E+02  0.19445673832E+04  0.19447137051E+04  0.00000000000E+00 0. -1.
          1    1    1    2  501    0  0.90366375576E+01 -0.28851056526E+02  0.31567713560E+02  0.43710008241E+02  0.00000000000E+00 0. -1.
<mgrwt>
<rscale>  1 0.87800392E+02</rscale>
<asrwt>0</asrwt>
<pdfrwt beam="1">  1       21 0.10760222E-02 0.87800392E+02</pdfrwt>
<pdfrwt beam="2">  1        2 0.32702619E+00 0.87800392E+02</pdfrwt>
<totfact> 0.27602162E+05</totfact>
</mgrwt>
</event>
<event>
 6    2  0.9453093E+000  0.1085685E+03  0.7546771E-02  0.1263244E+00
          2   -1    0    0  502    0 -0.00000000000E+00  0.00000000000E+00  0.13405024700E+04  0.13405024700E+04  0.00000000000E+00 0. -1.
         21   -1    0    0  501  502  0.00000000000E+00 -0.00000000000E+00 -0.54824268833E+01  0.54824268833E+01  0.00000000000E+00 0.  1.
         24    2    1    2    0    0  0.58206151248E+02  0.21013427535E+02  0.77824627560E+03  0.78578265807E+03  0.89205381307E+02 0.  0.
        -13    1    3    3    0    0  0.79640169219E+02  0.19027578700E+02  0.49566722896E+03  0.50238491933E+03  0.00000000000E+00 0.  1.
         14    1    3    3    0    0 -0.21434017971E+02  0.19858488355E+01  0.28257904664E+03  0.28339773873E+03  0.00000000000E+00 0. -1.
          1    1    1    2  501    0 -0.58206151248E+02 -0.21013427535E+02  0.55677376753E+03  0.56020223883E+03  0.00000000000E+00 0. -1.
<mgrwt>
<rscale>  1 0.10856850E+03</rscale>
<asrwt>0</asrwt>
<pdfrwt beam="1">  1       21 0.84345135E-03 0.10856850E+03</pdfrwt>
<pdfrwt beam="2">  1        2 0.20623089E+00 0.10856850E+03</pdfrwt>
<totfact> 0.10203839E+06</totfact>
</mgrwt>
</event>
<event>
 6    2  0.9453093E+000  0.8292336E+02  0.7546771E-02  0.1320954E+00
         -3   -1    0    0    0  501 -0.00000000000E+00  0.00000000000E+00  0.78859807660E+01  0.78859807660E+01  0.00000000000E+00 0.  1.
         21   -1    0    0  501  502  0.00000000000E+00 -0.00000000000E+00 -0.34992336911E+03  0.34992336911E+03  0.00000000000E+00 0. -1.
         24    2    1    2    0    0 -0.47203379839E+01 -0.19532593220E+02 -0.24315833666E+03  0.25690904933E+03  0.80451719380E+02 0.  0.
        -11    1    3    3    0    0 -0.27488030356E+02  0.21174618209E+02 -0.79678509032E+02  0.86905817243E+02  0.00000000000E+00 0.  1.
         12    1    3    3    0    0  0.22767692372E+02 -0.40707211429E+02 -0.16347982763E+03  0.17000323208E+03  0.00000000000E+00 0. -1.
         -4    1    1    2    0  502  0.47203379839E+01  0.19532593220E+02 -0.98879051684E+02  0.10090030055E+03  0.00000000000E+00 0.  1.
<mgrwt>
<rscale>  1 0.82923356E+02</rscale>
<asrwt>0</asrwt>
<pdfrwt beam="1">  1       21 0.53834372E-01 0.82923356E+02</pdfrwt>
<pdfrwt beam="2">  1       -3 0.12132276E-02 0.82923356E+02</pdfrwt>
<totfact> 0.29479915E+05</totfact>
</mgrwt>
</event>
<event>
 6    2  0.9453093E+000  0.9438245E+02  0.7546771E-02  0.1292573E+00
         21   -1    0    0  501  502  0.00000000000E+00  0.00000000000E+00  0.80941677459E+02  0.80941677459E+02  0.00000000000E+00 0. -1.
          2   -1    0    0  502    0 -0.00000000000E+00 -0.00000000000E+00 -0.10785382070E+03  0.10785382070E+03  0.00000000000E+00 0. -1.
         24    2    1    2    0    0  0.54250672135E+02  0.25549079144E+01  0.40091907950E+02  0.10254466710E+03  0.77190573821E+02 0.  0.
        -13    1    3    3    0    0 -0.19293233279E+02 -0.61060190179E+01  0.67487976830E+01  0.21332102305E+02  0.00000000000E+00 0.  1.
         14    1    3    3    0    0  0.73543905414E+02  0.86609269323E+01  0.33343110267E+02  0.81212564799E+02  0.00000000000E+00 0. -1.
          1    1    1    2  501    0 -0.54250672135E+02 -0.25549079144E+01 -0.67004051192E+02  0.86250831055E+02  0.00000000000E+00 0. -1.
<mgrwt>
<rscale>  1 0.94382454E+02</rscale>
<asrwt>0</asrwt>
<pdfrwt beam="1">  1       21 0.12452566E-01 0.94382454E+02</pdfrwt>
<pdfrwt beam="2">  1        2 0.16592895E-01 0.94382454E+02</pdfrwt>
<totfact> 0.22241802E+05</totfact>
</mgrwt>
</event>
<event>
 6    2  0.9453093E+000  0.8598291E+02  0.7546771E-02  0.1312882E+00
         21   -1    0    0  501  502  0.00000000000E+00  0.00000000000E+00  0.55782133179E+01  0.55782133179E+01  0.00000000000E+00 0. -1.
          2   -1    0    0  502    0 -0.00000000000E+00 -0.00000000000E+00 -0.94875360194E+03  0.94875360194E+03  0.00000000000E+00 0. -1.
         24    2    1    2    0    0 -0.25438277202E+02 -0.36189657044E+01 -0.89993606014E+03  0.90403427668E+03  0.82053995668E+02 0.  0.
        -13    1    3    3    0    0  0.34424238538E+01  0.10422329263E+02 -0.15377172101E+02  0.18892661303E+02  0.00000000000E+00 0.  1.
         14    1    3    3    0    0 -0.28880701056E+02 -0.14041294967E+02 -0.88455888804E+03  0.88514161537E+03  0.00000000000E+00 0. -1.
          1    1    1    2  501    0  0.25438277202E+02  0.36189657044E+01 -0.43239328478E+02  0.50297538578E+02  0.00000000000E+00 0. -1.
<mgrwt>
<rscale>  1 0.85982911E+02</rscale>
<asrwt>0</asrwt>
<pdfrwt beam="1">  1       21 0.85818641E-03 0.85982911E+02</pdfrwt>
<pdfrwt beam="2">  1        2 0.14596214E+00 0.85982911E+02</pdfrwt>
<totfact> 0.16133568E+06</totfact>
</mgrwt>
</event>
<event>
 6    2  0.9453093E+000  0.1503389E+03  0.7546771E-02  0.1200057E+00
          2   -1    0    0  502    0 -0.00000000000E+00  0.00000000000E+00  0.10683983688E+04  0.10683983688E+04  0.00000000000E+00 0. -1.
         21   -1    0    0  501  502  0.00000000000E+00 -0.00000000000E+00 -0.25738878128E+02  0.25738878128E+02  0.00000000000E+00 0.  1.
         24    2    1    2    0    0  0.31630961390E+02  0.12333747604E+03  0.85007213884E+03  0.86326382101E+03  0.79932050560E+02 0.  0.
        -11    1    3    3    0    0  0.12874300190E+02  0.99226428165E+02  0.40621050311E+03  0.41835224929E+03  0.00000000000E+00 0.  1.
         12    1    3    3    0    0  0.18756661199E+02  0.24111047880E+02  0.44386163573E+03  0.44491157171E+03  0.00000000000E+00 0. -1.
          1    1    1    2  501    0 -0.31630961390E+02 -0.12333747604E+03  0.19258735187E+03  0.23087342597E+03  0.00000000000E+00 0. -1.
<mgrwt>
<rscale>  1 0.15033890E+03</rscale>
<asrwt>0</asrwt>
<pdfrwt beam="1">  1       21 0.39598282E-02 0.15033890E+03</pdfrwt>
<pdfrwt beam="2">  1        2 0.16436895E+00 0.15033890E+03</pdfrwt>
<totfact> 0.12103603E+05</totfact>
</mgrwt>
</event>
<event>
 6    2  0.9453093E+000  0.9409498E+02  0.7546771E-02  0.1293228E+00
         21   -1    0    0  501  502  0.00000000000E+00  0.00000000000E+00  0.20190023915E+01  0.20190023915E+01  0.00000000000E+00 0. -1.
          2   -1    0    0  502    0 -0.00000000000E+00 -0.00000000000E+00 -0.23050080491E+04  0.23050080491E+04  0.00000000000E+00 0. -1.
         24    2    1    2    0    0  0.29004360132E+01 -0.41613155153E+02 -0.14894047234E+04  0.14923740466E+04  0.84343332467E+02 0.  0.
        -13    1    3    3    0    0  0.12283812582E+02  0.20320175296E+02 -0.19272635595E+03  0.19418354682E+03  0.00000000000E+00 0.  1.
         14    1    3    3    0    0 -0.93833765691E+01 -0.61933330449E+02 -0.12966783674E+04  0.12981904998E+04  0.00000000000E+00 0. -1.
          1    1    1    2  501    0 -0.29004360132E+01  0.41613155153E+02 -0.81358432335E+03  0.81465300491E+03  0.00000000000E+00 0. -1.
<mgrwt>
<rscale>  1 0.94094978E+02</rscale>
<asrwt>0</asrwt>
<pdfrwt beam="1">  1       21 0.31061546E-03 0.94094978E+02</pdfrwt>
<pdfrwt beam="2">  1        2 0.35461696E+00 0.94094978E+02</pdfrwt>
<totfact> 0.15172826E+06</totfact>
</mgrwt>
</event>
<event>
 6    2  0.1263424E+001  0.8365928E+02  0.7546771E-02  0.1318976E+00
         21   -1    0    0  501  502  0.00000000000E+00  0.00000000000E+00  0.74796939248E+01  0.74796939248E+01  0.00000000000E+00 0. -1.
         -1   -1    0    0    0  501 -0.00000000000E+00 -0.00000000000E+00 -0.37431404094E+03  0.37431404094E+03  0.00000000000E+00 0.  1.
         24    2    1    2    0    0 -0.15871525778E+02 -0.13350536129E+02 -0.26588454440E+03  0.27873547564E+03  0.81047716109E+02 0.  0.
        -11    1    3    3    0    0  0.69343012077E+01 -0.34138144591E+01 -0.24794420390E+03  0.24806464261E+03  0.00000000000E+00 0.  1.
         12    1    3    3    0    0 -0.22805826986E+02 -0.99367216700E+01 -0.17940340494E+02  0.30670833036E+02  0.00000000000E+00 0. -1.
         -2    1    1    2    0  502  0.15871525778E+02  0.13350536129E+02 -0.10094980262E+03  0.10305825923E+03  0.00000000000E+00 0.  1.
<mgrwt>
<rscale>  1 0.83659276E+02</rscale>
<asrwt>0</asrwt>
<pdfrwt beam="1">  1       21 0.11507222E-02 0.83659276E+02</pdfrwt>
<pdfrwt beam="2">  1       -1 0.57586771E-01 0.83659276E+02</pdfrwt>
<totfact> 0.80538943E+05</totfact>
</mgrwt>
</event>
<event>
 6    2  0.9453093E+000  0.8397790E+02  0.7546771E-02  0.1318127E+00
         21   -1    0    0  501  502  0.00000000000E+00  0.00000000000E+00  0.46680226516E+02  0.46680226516E+02  0.00000000000E+00 0.  1.
         -3   -1    0    0    0  501 -0.00000000000E+00 -0.00000000000E+00 -0.78382448935E+02  0.78382448935E+02  0.00000000000E+00 0.  1.
         24    2    1    2    0    0 -0.26438239792E+02 -0.96891779472E+00 -0.45192373642E+02  0.95365815263E+02  0.79701748791E+02 0.  0.
        -13    1    3    3    0    0 -0.49668701057E+02  0.13605616844E+02 -0.13073454132E+02  0.53131985445E+02  0.00000000000E+00 0.  1.
         14    1    3    3    0    0  0.23230461265E+02 -0.14574534639E+02 -0.32118919510E+02  0.42233829817E+02  0.00000000000E+00 0. -1.
         -4    1    1    2    0  502  0.26438239792E+02  0.96891779472E+00  0.13490151224E+02  0.29696860188E+02  0.00000000000E+00 0.  1.
<mgrwt>
<rscale>  1 0.83977902E+02</rscale>
<asrwt>0</asrwt>
<pdfrwt beam="1">  1       21 0.71815733E-02 0.83977902E+02</pdfrwt>
<pdfrwt beam="2">  1       -3 0.12058838E-01 0.83977902E+02</pdfrwt>
<totfact> 0.34047148E+05</totfact>
</mgrwt>
</event>
<event>
 6    2  0.9453093E+000  0.8485723E+02  0.7546771E-02  0.1315806E+00
         -3   -1    0    0    0  501 -0.00000000000E+00  0.00000000000E+00  0.47545661532E+03  0.47545661532E+03  0.00000000000E+00 0.  1.
         21   -1    0    0  501  502  0.00000000000E+00 -0.00000000000E+00 -0.12687650431E+02  0.12687650431E+02  0.00000000000E+00 0.  1.
         24    2    1    2    0    0  0.27032605611E+02  0.16843904557E+01  0.45047842925E+03  0.45840109505E+03  0.80418591038E+02 0.  0.
        -13    1    3    3    0    0 -0.15434939288E+02  0.38265697968E+01  0.33442783014E+03  0.33480569523E+03  0.00000000000E+00 0.  1.
         14    1    3    3    0    0  0.42467544899E+02 -0.21421793410E+01  0.11605059911E+03  0.12359539981E+03  0.00000000000E+00 0. -1.
         -4    1    1    2    0  502 -0.27032605611E+02 -0.16843904557E+01  0.12290535642E+02  0.29743170706E+02  0.00000000000E+00 0.  1.
<mgrwt>
<rscale>  1 0.84857226E+02</rscale>
<asrwt>0</asrwt>
<pdfrwt beam="1">  1       21 0.19519466E-02 0.84857226E+02</pdfrwt>
<pdfrwt beam="2">  1       -3 0.73147158E-01 0.84857226E+02</pdfrwt>
<totfact> 0.10367377E+05</totfact>
</mgrwt>
</event>
<event>
 6    2  0.9453093E+000  0.8076701E+02  0.7546771E-02  0.1326889E+00
          2   -1    0    0  502    0 -0.00000000000E+00  0.00000000000E+00  0.66600374493E+03  0.66600374493E+03  0.00000000000E+00 0. -1.
         21   -1    0    0  501  502  0.00000000000E+00 -0.00000000000E+00 -0.43134764763E+01  0.43134764763E+01  0.00000000000E+00 0.  1.
         24    2    1    2    0    0  0.15065846519E+01  0.25853789002E+02  0.52800446752E+03  0.53414607331E+03  0.76502429414E+02 0.  0.
        -13    1    3    3    0    0  0.24669279681E+01 -0.12797300056E+02  0.15787379156E+02  0.20471882252E+02  0.00000000000E+00 0.  1.
         14    1    3    3    0    0 -0.96034331614E+00  0.38651089059E+02  0.51221708836E+03  0.51367419105E+03  0.00000000000E+00 0. -1.
          1    1    1    2  501    0 -0.15065846519E+01 -0.25853789002E+02  0.13368580093E+03  0.13617114809E+03  0.00000000000E+00 0. -1.
<mgrwt>
<rscale>  1 0.80767010E+02</rscale>
<asrwt>0</asrwt>
<pdfrwt beam="1">  1       21 0.66361229E-03 0.80767010E+02</pdfrwt>
<pdfrwt beam="2">  1        2 0.10246203E+00 0.80767010E+02</pdfrwt>
<totfact> 0.36700827E+06</totfact>
</mgrwt>
</event>
<event>
 6    2  0.9453093E+000  0.8962574E+02  0.7546771E-02  0.1303761E+00
          2   -1    0    0  502    0 -0.00000000000E+00  0.00000000000E+00  0.15297080613E+04  0.15297080613E+04  0.00000000000E+00 0. -1.
         21   -1    0    0  501  502  0.00000000000E+00 -0.00000000000E+00 -0.61099113275E+01  0.61099113275E+01  0.00000000000E+00 0. -1.
         24    2    1    2    0    0  0.23881925600E+02 -0.27812339664E+02  0.14573507467E+04  0.14601040964E+04  0.81785701016E+02 0.  0.
        -13    1    3    3    0    0 -0.27479800278E+02  0.30297842613E+00  0.67806650555E+03  0.67862317760E+03  0.00000000000E+00 0.  1.
         14    1    3    3    0    0  0.51361725878E+02 -0.28115318090E+02  0.77928424116E+03  0.78148091885E+03  0.00000000000E+00 0. -1.
          1    1    1    2  501    0 -0.23881925600E+02  0.27812339664E+02  0.66247403225E+02  0.75713876152E+02  0.00000000000E+00 0. -1.
<mgrwt>
<rscale>  1 0.89625741E+02</rscale>
<asrwt>0</asrwt>
<pdfrwt beam="1">  1       21 0.93998758E-03 0.89625741E+02</pdfrwt>
<pdfrwt beam="2">  1        2 0.23533940E+00 0.89625741E+02</pdfrwt>
<totfact> 0.68011384E+05</totfact>
</mgrwt>
</event>
<event>
 6    2  0.9453093E+000  0.8984293E+02  0.7546771E-02  0.1303233E+00
          2   -1    0    0  502    0 -0.00000000000E+00  0.00000000000E+00  0.87170988674E+03  0.87170988674E+03  0.00000000000E+00 0. -1.
         21   -1    0    0  501  502  0.00000000000E+00 -0.00000000000E+00 -0.55408024207E+01  0.55408024207E+01  0.00000000000E+00 0. -1.
         24    2    1    2    0    0  0.23870452093E+02  0.30767728853E+02  0.73358379499E+03  0.73906490636E+03  0.80964806661E+02 0.  0.
        -13    1    3    3    0    0 -0.12795885357E+02 -0.15298259790E+01  0.19887132887E+02  0.23697533713E+02  0.00000000000E+00 0.  1.
         14    1    3    3    0    0  0.36666337450E+02  0.32297554832E+02  0.71369666211E+03  0.71536737265E+03  0.00000000000E+00 0. -1.
          1    1    1    2  501    0 -0.23870452093E+02 -0.30767728853E+02  0.13258528932E+03  0.13818578280E+03  0.00000000000E+00 0. -1.
<mgrwt>
<rscale>  1 0.89842927E+02</rscale>
<asrwt>0</asrwt>
<pdfrwt beam="1">  1       21 0.85243183E-03 0.89842927E+02</pdfrwt>
<pdfrwt beam="2">  1        2 0.13410910E+00 0.89842927E+02</pdfrwt>
<totfact> 0.18258339E+06</totfact>
</mgrwt>
</event>
<event>
 6    2  0.9453093E+000  0.8851995E+02  0.7546771E-02  0.1306476E+00
         21   -1    0    0  501  502  0.00000000000E+00  0.00000000000E+00  0.12513471199E+02  0.12513471199E+02  0.00000000000E+00 0. -1.
          2   -1    0    0  502    0 -0.00000000000E+00 -0.00000000000E+00 -0.62264877384E+03  0.62264877384E+03  0.00000000000E+00 0. -1.
         24    2    1    2    0    0 -0.26550567246E+02 -0.46056402555E+01 -0.59980686973E+03  0.60630360561E+03  0.84318661373E+02 0.  0.
        -11    1    3    3    0    0  0.10167245196E+01 -0.14762843887E+02 -0.16136597099E+02  0.21894406918E+02  0.00000000000E+00 0.  1.
         12    1    3    3    0    0 -0.27567291765E+02  0.10157203631E+02 -0.58367027263E+03  0.58440919869E+03  0.00000000000E+00 0. -1.
          1    1    1    2  501    0  0.26550567246E+02  0.46056402555E+01 -0.10328432907E+02  0.28858639427E+02  0.00000000000E+00 0. -1.
<mgrwt>
<rscale>  1 0.88519948E+02</rscale>
<asrwt>0</asrwt>
<pdfrwt beam="1">  1       21 0.19251496E-02 0.88519948E+02</pdfrwt>
<pdfrwt beam="2">  1        2 0.95792108E-01 0.88519948E+02</pdfrwt>
<totfact> 0.75384904E+05</totfact>
</mgrwt>
</event>
<event>
 6    2  0.9453093E+000  0.8146545E+02  0.7546771E-02  0.1324943E+00
         -1   -1    0    0    0  501 -0.00000000000E+00  0.00000000000E+00  0.33319781363E+02  0.33319781363E+02  0.00000000000E+00 0.  1.
         21   -1    0    0  501  502  0.00000000000E+00 -0.00000000000E+00 -0.28677405780E+03  0.28677405780E+03  0.00000000000E+00 0. -1.
         24    2    1    2    0    0  0.14130674648E+02 -0.21804060666E+02 -0.18283321014E+02  0.83491913343E+02  0.77210923702E+02 0.  0.
        -11    1    3    3    0    0 -0.60872040835E+01  0.13438602841E+02  0.21861892576E+02  0.26374086655E+02  0.00000000000E+00 0.  1.
         12    1    3    3    0    0  0.20217878731E+02 -0.35242663507E+02 -0.40145213590E+02  0.57117826689E+02  0.00000000000E+00 0. -1.
         -2    1    1    2    0  502 -0.14130674648E+02  0.21804060666E+02 -0.23517095542E+03  0.23660192582E+03  0.00000000000E+00 0.  1.
<mgrwt>
<rscale>  1 0.81465451E+02</rscale>
<asrwt>0</asrwt>
<pdfrwt beam="1">  1       21 0.44119085E-01 0.81465451E+02</pdfrwt>
<pdfrwt beam="2">  1       -1 0.51261203E-02 0.81465451E+02</pdfrwt>
<totfact> 0.71366865E+04</totfact>
</mgrwt>
</event>
<event>
 6    2  0.9453093E+000  0.8334493E+02  0.7546771E-02  0.1319818E+00
         21   -1    0    0  501  502  0.00000000000E+00  0.00000000000E+00  0.19189653669E+03  0.19189653669E+03  0.00000000000E+00 0.  1.
          2   -1    0    0  502    0 -0.00000000000E+00 -0.00000000000E+00 -0.14689450697E+02  0.14689450697E+02  0.00000000000E+00 0. -1.
         24    2    1    2    0    0 -0.10953581026E+02 -0.20035101157E+02  0.13811956118E+03  0.16131766721E+03  0.80156037564E+02 0.  0.
        -13    1    3    3    0    0  0.24987356070E+01 -0.18620379361E+02  0.14495135295E+03  0.14616380171E+03  0.00000000000E+00 0.  1.
         14    1    3    3    0    0 -0.13452316633E+02 -0.14147217960E+01 -0.68317917789E+01  0.15153865496E+02  0.00000000000E+00 0. -1.
          1    1    1    2  501    0  0.10953581026E+02  0.20035101157E+02  0.39087524820E+02  0.45268320183E+02  0.00000000000E+00 0. -1.
<mgrwt>
<rscale>  1 0.83344925E+02</rscale>
<asrwt>0</asrwt>
<pdfrwt beam="1">  1       21 0.29522542E-01 0.83344925E+02</pdfrwt>
<pdfrwt beam="2">  1        2 0.22599156E-02 0.83344925E+02</pdfrwt>
<totfact> 0.56015866E+05</totfact>
</mgrwt>
</event>
<event>
 6    2  0.9453093E+000  0.1067744E+03  0.7546771E-02  0.1266663E+00
         21   -1    0    0  501  502  0.00000000000E+00  0.00000000000E+00  0.26439456080E+02  0.26439456080E+02  0.00000000000E+00 0. -1.
          2   -1    0    0  502    0 -0.00000000000E+00 -0.00000000000E+00 -0.32973973176E+03  0.32973973176E+03  0.00000000000E+00 0. -1.
         24    2    1    2    0    0  0.39560736746E+02 -0.58754739813E+02 -0.23340201261E+03  0.25666567859E+03  0.79897432597E+02 0.  0.
        -11    1    3    3    0    0  0.13721556203E+02 -0.24525564290E+02 -0.11020862922E+02  0.30186815465E+02  0.00000000000E+00 0.  1.
         12    1    3    3    0    0  0.25839180543E+02 -0.34229175523E+02 -0.22238114969E+03  0.22647886313E+03  0.00000000000E+00 0. -1.
          1    1    1    2  501    0 -0.39560736746E+02  0.58754739813E+02 -0.69898263071E+02  0.99513509247E+02  0.00000000000E+00 0. -1.
<mgrwt>
<rscale>  1 0.10677439E+03</rscale>
<asrwt>0</asrwt>
<pdfrwt beam="1">  1       21 0.40676086E-02 0.10677439E+03</pdfrwt>
<pdfrwt beam="2">  1        2 0.50729190E-01 0.10677439E+03</pdfrwt>
<totfact> 0.44982103E+05</totfact>
</mgrwt>
</event>
<event>
 6    2  0.9453093E+000  0.8842528E+02  0.7546771E-02  0.1306711E+00
          2   -1    0    0  502    0 -0.00000000000E+00  0.00000000000E+00  0.42726363643E+02  0.42726363643E+02  0.00000000000E+00 0. -1.
         21   -1    0    0  501  502  0.00000000000E+00 -0.00000000000E+00 -0.91432453797E+02  0.91432453797E+02  0.00000000000E+00 0.  1.
         24    2    1    2    0    0  0.68355760945E+01  0.35737211368E+02 -0.31071324284E+02  0.93725435882E+02  0.80592535396E+02 0.  0.
        -11    1    3    3    0    0 -0.33935683364E+02  0.28798867755E+01 -0.22099033913E+02  0.40599158281E+02  0.00000000000E+00 0.  1.
         12    1    3    3    0    0  0.40771259459E+02  0.32857324593E+02 -0.89722903715E+01  0.53126277601E+02  0.00000000000E+00 0. -1.
          1    1    1    2  501    0 -0.68355760945E+01 -0.35737211368E+02 -0.17634765870E+02  0.40433381558E+02  0.00000000000E+00 0. -1.
<mgrwt>
<rscale>  1 0.88425280E+02</rscale>
<asrwt>0</asrwt>
<pdfrwt beam="1">  1       21 0.14066531E-01 0.88425280E+02</pdfrwt>
<pdfrwt beam="2">  1        2 0.65732868E-02 0.88425280E+02</pdfrwt>
<totfact> 0.54426024E+05</totfact>
</mgrwt>
</event>
<event>
 6    2  0.9453093E+000  0.8319175E+02  0.7546771E-02  0.1320230E+00
         21   -1    0    0  501  502  0.00000000000E+00  0.00000000000E+00  0.30751281885E+02  0.30751281885E+02  0.00000000000E+00 0. -1.
         -3   -1    0    0    0  501 -0.00000000000E+00 -0.00000000000E+00 -0.98039999578E+02  0.98039999578E+02  0.00000000000E+00 0.  1.
         24    2    1    2    0    0  0.17978490567E+02  0.13646477476E+02 -0.65983824830E+02  0.10618253944E+03  0.80071306168E+02 0.  0.
        -13    1    3    3    0    0 -0.75754503755E+01  0.29517412729E+01 -0.76218349315E+02  0.76650746880E+02  0.00000000000E+00 0.  1.
         14    1    3    3    0    0  0.25553940943E+02  0.10694736204E+02  0.10234524485E+02  0.29531792557E+02  0.00000000000E+00 0. -1.
         -4    1    1    2    0  502 -0.17978490567E+02 -0.13646477476E+02 -0.13048928627E+01  0.22608742026E+02  0.00000000000E+00 0.  1.
<mgrwt>
<rscale>  1 0.83191746E+02</rscale>
<asrwt>0</asrwt>
<pdfrwt beam="1">  1       21 0.47309664E-02 0.83191746E+02</pdfrwt>
<pdfrwt beam="2">  1       -3 0.15083077E-01 0.83191746E+02</pdfrwt>
<totfact> 0.47003868E+05</totfact>
</mgrwt>
</event>
<event>
 6    2  0.9453093E+000  0.8318828E+02  0.7546771E-02  0.1320240E+00
          2   -1    0    0  502    0 -0.00000000000E+00  0.00000000000E+00  0.34969722869E+03  0.34969722869E+03  0.00000000000E+00 0. -1.
         21   -1    0    0  501  502  0.00000000000E+00 -0.00000000000E+00 -0.86293362980E+01  0.86293362980E+01  0.00000000000E+00 0.  1.
         24    2    1    2    0    0 -0.75804348784E+01 -0.19985605475E+02  0.21638692687E+03  0.23182664173E+03  0.80395287669E+02 0.  0.
        -11    1    3    3    0    0  0.19004953107E+02  0.11715409124E+02  0.16652524780E+02  0.27852210596E+02  0.00000000000E+00 0.  1.
         12    1    3    3    0    0 -0.26585387985E+02 -0.31701014599E+02  0.19973440209E+03  0.20397443114E+03  0.00000000000E+00 0. -1.
          1    1    1    2  501    0  0.75804348784E+01  0.19985605475E+02  0.12468096552E+03  0.12649992325E+03  0.00000000000E+00 0. -1.
<mgrwt>
<rscale>  1 0.83188279E+02</rscale>
<asrwt>0</asrwt>
<pdfrwt beam="1">  1       21 0.13275905E-02 0.83188279E+02</pdfrwt>
<pdfrwt beam="2">  1        2 0.53799563E-01 0.83188279E+02</pdfrwt>
<totfact> 0.25067430E+06</totfact>
</mgrwt>
</event>
<event>
 6    2  0.9453093E+000  0.9731247E+02  0.7546771E-02  0.1286051E+00
         -1   -1    0    0    0  501 -0.00000000000E+00  0.00000000000E+00  0.29002169104E+04  0.29002169104E+04  0.00000000000E+00 0.  1.
         21   -1    0    0  501  502  0.00000000000E+00 -0.00000000000E+00 -0.21261204813E+01  0.21261204813E+01  0.00000000000E+00 0. -1.
         24    2    1    2    0    0  0.38270438879E+02 -0.39428719271E+02  0.14855137290E+04  0.14886976710E+04  0.80314794946E+02 0.  0.
        -13    1    3    3    0    0 -0.19621920104E+02 -0.30193831804E+02  0.74358994808E+03  0.74446134762E+03  0.00000000000E+00 0.  1.
         14    1    3    3    0    0  0.57892358984E+02 -0.92348874675E+01  0.74192378092E+03  0.74423632341E+03  0.00000000000E+00 0. -1.
         -2    1    1    2    0  502 -0.38270438879E+02  0.39428719271E+02  0.14125770609E+04  0.14136453599E+04  0.00000000000E+00 0.  1.
<mgrwt>
<rscale>  1 0.97312469E+02</rscale>
<asrwt>0</asrwt>
<pdfrwt beam="1">  1       21 0.32709778E-03 0.97312469E+02</pdfrwt>
<pdfrwt beam="2">  1       -1 0.44618405E+00 0.97312469E+02</pdfrwt>
<totfact> 0.91026652E+03</totfact>
</mgrwt>
</event>
<event>
 6    2  0.1162239E+001  0.8794564E+02  0.7546771E-02  0.1307904E+00
         21   -1    0    0  501  502  0.00000000000E+00  0.00000000000E+00  0.49919372512E+01  0.49919372512E+01  0.00000000000E+00 0. -1.
         -1   -1    0    0    0  501 -0.00000000000E+00 -0.00000000000E+00 -0.96302930540E+03  0.96302930540E+03  0.00000000000E+00 0.  1.
         24    2    1    2    0    0 -0.32807418895E+02  0.55722882228E+01 -0.42810067273E+03  0.43704075499E+03  0.81406746622E+02 0.  0.
        -13    1    3    3    0    0 -0.51494822264E+02  0.11563864866E+02 -0.39537546756E+03  0.39888243887E+03  0.00000000000E+00 0.  1.
         14    1    3    3    0    0  0.18687403369E+02 -0.59915766434E+01 -0.32725205174E+02  0.38158316119E+02  0.00000000000E+00 0. -1.
         -2    1    1    2    0  502  0.32807418895E+02 -0.55722882228E+01 -0.52993669541E+03  0.53098048766E+03  0.00000000000E+00 0.  1.
<mgrwt>
<rscale>  1 0.87945640E+02</rscale>
<asrwt>0</asrwt>
<pdfrwt beam="1">  1       21 0.76799084E-03 0.87945640E+02</pdfrwt>
<pdfrwt beam="2">  1       -1 0.14815826E+00 0.87945640E+02</pdfrwt>
<totfact> 0.20049409E+05</totfact>
</mgrwt>
</event>
<event>
 6    2  0.9453093E+000  0.1468836E+03  0.7546771E-02  0.1204356E+00
          4   -1    0    0  502    0 -0.00000000000E+00  0.00000000000E+00  0.39733229741E+03  0.39733229741E+03  0.00000000000E+00 0. -1.
         21   -1    0    0  501  502  0.00000000000E+00 -0.00000000000E+00 -0.10505679746E+03  0.10505679746E+03  0.00000000000E+00 0. -1.
         24    2    1    2    0    0  0.10066188758E+03  0.71325068318E+02  0.33979582683E+03  0.37018371507E+03  0.79716359607E+02 0.  0.
        -13    1    3    3    0    0  0.61063159405E+02  0.75541952601E+02  0.17012796509E+03  0.19590513150E+03  0.00000000000E+00 0.  1.
         14    1    3    3    0    0  0.39598728180E+02 -0.42168842835E+01  0.16966786173E+03  0.17427858357E+03  0.00000000000E+00 0. -1.
          3    1    1    2  501    0 -0.10066188758E+03 -0.71325068318E+02 -0.47520326874E+02  0.13220537980E+03  0.00000000000E+00 0. -1.
<mgrwt>
<rscale>  1 0.14688356E+03</rscale>
<asrwt>0</asrwt>
<pdfrwt beam="1">  1       21 0.16162584E-01 0.14688356E+03</pdfrwt>
<pdfrwt beam="2">  1        4 0.61128045E-01 0.14688356E+03</pdfrwt>
<totfact> 0.36212098E+03</totfact>
</mgrwt>
</event>
<event>
 6    2  0.9453093E+000  0.9202066E+02  0.7546771E-02  0.1298031E+00
          2   -1    0    0  502    0 -0.00000000000E+00  0.00000000000E+00  0.57953952904E+03  0.57953952904E+03  0.00000000000E+00 0. -1.
         21   -1    0    0  501  502  0.00000000000E+00 -0.00000000000E+00 -0.82589584386E+01  0.82589584386E+01  0.00000000000E+00 0.  1.
         24    2    1    2    0    0 -0.40796001448E+02  0.21600652544E+02  0.36584251929E+03  0.37723805708E+03  0.79604653519E+02 0.  0.
        -11    1    3    3    0    0 -0.64630863600E+02  0.14932172398E+02  0.24078721932E+03  0.24975708857E+03  0.00000000000E+00 0.  1.
         12    1    3    3    0    0  0.23834862152E+02  0.66684801463E+01  0.12505529997E+03  0.12748096851E+03  0.00000000000E+00 0. -1.
          1    1    1    2  501    0  0.40796001448E+02 -0.21600652544E+02  0.20543805131E+03  0.21056043040E+03  0.00000000000E+00 0. -1.
<mgrwt>
<rscale>  1 0.92020665E+02</rscale>
<asrwt>0</asrwt>
<pdfrwt beam="1">  1       21 0.12706094E-02 0.92020665E+02</pdfrwt>
<pdfrwt beam="2">  1        2 0.89159896E-01 0.92020665E+02</pdfrwt>
<totfact> 0.15845978E+06</totfact>
</mgrwt>
</event>
<event>
 6    2  0.9453093E+000  0.7495906E+02  0.7546771E-02  0.1343998E+00
         21   -1    0    0  501  502  0.00000000000E+00  0.00000000000E+00  0.23092086061E+02  0.23092086061E+02  0.00000000000E+00 0. -1.
          2   -1    0    0  502    0 -0.00000000000E+00 -0.00000000000E+00 -0.10695986033E+03  0.10695986033E+03  0.00000000000E+00 0. -1.
         24    2    1    2    0    0 -0.45896723415E+01  0.22369816638E+02 -0.73469603914E+02  0.10496020003E+03  0.71395987999E+02 0.  0.
        -11    1    3    3    0    0 -0.14810978570E+02  0.16364665964E+02  0.73594112531E+01  0.23266463253E+02  0.00000000000E+00 0.  1.
         12    1    3    3    0    0  0.10221306229E+02  0.60051506741E+01 -0.80829015167E+02  0.81693736777E+02  0.00000000000E+00 0. -1.
          1    1    1    2  501    0  0.45896723415E+01 -0.22369816638E+02 -0.10398170351E+02  0.25091746358E+02  0.00000000000E+00 0. -1.
<mgrwt>
<rscale>  1 0.74959061E+02</rscale>
<asrwt>0</asrwt>
<pdfrwt beam="1">  1       21 0.35526286E-02 0.74959061E+02</pdfrwt>
<pdfrwt beam="2">  1        2 0.16455363E-01 0.74959061E+02</pdfrwt>
<totfact> 0.18254592E+06</totfact>
</mgrwt>
</event>
<event>
 6    2  0.9453093E+000  0.9651735E+02  0.7546771E-02  0.1287795E+00
          4   -1    0    0  502    0 -0.00000000000E+00  0.00000000000E+00  0.14689204169E+03  0.14689204169E+03  0.00000000000E+00 0. -1.
         21   -1    0    0  501  502  0.00000000000E+00 -0.00000000000E+00 -0.55196228388E+02  0.55196228388E+02  0.00000000000E+00 0. -1.
         24    2    1    2    0    0  0.19584422850E+01 -0.24664146750E+02  0.12666768763E+03  0.15924918015E+03  0.93292243290E+02 0.  0.
        -11    1    3    3    0    0  0.16986089930E+02 -0.49455009778E+02  0.34541206982E+02  0.62669132937E+02  0.00000000000E+00 0.  1.
         12    1    3    3    0    0 -0.15027647645E+02  0.24790863027E+02  0.92126480650E+02  0.96580047216E+02  0.00000000000E+00 0. -1.
          3    1    1    2  501    0 -0.19584422850E+01  0.24664146750E+02 -0.34971874333E+02  0.42839089923E+02  0.00000000000E+00 0. -1.
<mgrwt>
<rscale>  1 0.96517347E+02</rscale>
<asrwt>0</asrwt>
<pdfrwt beam="1">  1       21 0.84917275E-02 0.96517347E+02</pdfrwt>
<pdfrwt beam="2">  1        4 0.22598776E-01 0.96517347E+02</pdfrwt>
<totfact> 0.74962748E+04</totfact>
</mgrwt>
</event>
<event>
 6    2  0.9453093E+000  0.8840606E+02  0.7546771E-02  0.1306758E+00
          2   -1    0    0  502    0 -0.00000000000E+00  0.00000000000E+00  0.45811219559E+03  0.45811219559E+03  0.00000000000E+00 0. -1.
         21   -1    0    0  501  502  0.00000000000E+00 -0.00000000000E+00 -0.10334658089E+02  0.10334658089E+02  0.00000000000E+00 0. -1.
         24    2    1    2    0    0  0.25446332702E+02  0.28496860753E+02  0.38448288964E+03  0.39451580899E+03  0.79724802900E+02 0.  0.
        -11    1    3    3    0    0 -0.18071917991E+02 -0.12686149884E+02  0.18258249744E+03  0.18391275374E+03  0.00000000000E+00 0.  1.
         12    1    3    3    0    0  0.43518250693E+02  0.41183010637E+02  0.20190039220E+03  0.21060305525E+03  0.00000000000E+00 0. -1.
          1    1    1    2  501    0 -0.25446332702E+02 -0.28496860753E+02  0.63294647868E+02  0.73931044694E+02  0.00000000000E+00 0. -1.
<mgrwt>
<rscale>  1 0.88406058E+02</rscale>
<asrwt>0</asrwt>
<pdfrwt beam="1">  1       21 0.15899478E-02 0.88406058E+02</pdfrwt>
<pdfrwt beam="2">  1        2 0.70478784E-01 0.88406058E+02</pdfrwt>
<totfact> 0.14292700E+06</totfact>
</mgrwt>
</event>
<event>
 6    2  0.9453093E+000  0.9413391E+02  0.7546771E-02  0.1293139E+00
          2   -1    0    0  502    0 -0.00000000000E+00  0.00000000000E+00  0.20091503629E+04  0.20091503629E+04  0.00000000000E+00 0. -1.
         21   -1    0    0  501  502  0.00000000000E+00 -0.00000000000E+00 -0.25588781564E+02  0.25588781564E+02  0.00000000000E+00 0. -1.
         24    2    1    2    0    0 -0.34519765650E+01  0.49264062871E+02  0.19831194105E+04  0.19853523087E+04  0.80139436106E+02 0.  0.
        -13    1    3    3    0    0 -0.27791452213E+02  0.38196979852E+02  0.56209519168E+03  0.56407657157E+03  0.00000000000E+00 0.  1.
         14    1    3    3    0    0  0.24339475648E+02  0.11067083019E+02  0.14210242188E+04  0.14212757371E+04  0.00000000000E+00 0. -1.
          1    1    1    2  501    0  0.34519765650E+01 -0.49264062871E+02  0.44217081925E+00  0.49386835775E+02  0.00000000000E+00 0. -1.
<mgrwt>
<rscale>  1 0.94133911E+02</rscale>
<asrwt>0</asrwt>
<pdfrwt beam="1">  1       21 0.39367372E-02 0.94133911E+02</pdfrwt>
<pdfrwt beam="2">  1        2 0.30909993E+00 0.94133911E+02</pdfrwt>
<totfact> 0.39477509E+04</totfact>
</mgrwt>
</event>
<event>
 6    2  0.9453093E+000  0.8544149E+02  0.7546771E-02  0.1314282E+00
          4   -1    0    0  502    0 -0.00000000000E+00  0.00000000000E+00  0.33406041191E+02  0.33406041191E+02  0.00000000000E+00 0. -1.
         21   -1    0    0  501  502  0.00000000000E+00 -0.00000000000E+00 -0.21264917196E+03  0.21264917196E+03  0.00000000000E+00 0. -1.
         24    2    1    2    0    0 -0.18925782870E+02 -0.25892126183E+02 -0.25735666681E+02  0.89233247258E+02  0.79193815549E+02 0.  0.
        -13    1    3    3    0    0  0.30634607015E+02 -0.79202032374E+01 -0.16590813787E+02  0.35727634520E+02  0.00000000000E+00 0.  1.
         14    1    3    3    0    0 -0.49560389886E+02 -0.17971922945E+02 -0.91448528938E+01  0.53505612738E+02  0.00000000000E+00 0. -1.
          3    1    1    2  501    0  0.18925782870E+02  0.25892126183E+02 -0.15350746408E+03  0.15682196589E+03  0.00000000000E+00 0. -1.
<mgrwt>
<rscale>  1 0.85441488E+02</rscale>
<asrwt>0</asrwt>
<pdfrwt beam="1">  1       21 0.32715256E-01 0.85441488E+02</pdfrwt>
<pdfrwt beam="2">  1        4 0.51393912E-02 0.85441488E+02</pdfrwt>
<totfact> 0.78147543E+04</totfact>
</mgrwt>
</event>
<event>
 6    2  0.9453093E+000  0.8327461E+02  0.7546771E-02  0.1320007E+00
          2   -1    0    0  502    0 -0.00000000000E+00  0.00000000000E+00  0.42019200984E+03  0.42019200984E+03  0.00000000000E+00 0. -1.
         21   -1    0    0  501  502  0.00000000000E+00 -0.00000000000E+00 -0.11964602583E+02  0.11964602583E+02  0.00000000000E+00 0. -1.
         24    2    1    2    0    0 -0.16884169999E+02 -0.15265322644E+02  0.39899674036E+03  0.40759423299E+03  0.80103399922E+02 0.  0.
        -13    1    3    3    0    0  0.22234577181E+02  0.12133464011E+02  0.58280282688E+02  0.63546744381E+02  0.00000000000E+00 0.  1.
         14    1    3    3    0    0 -0.39118747180E+02 -0.27398786655E+02  0.34071645767E+03  0.34404748861E+03  0.00000000000E+00 0. -1.
          1    1    1    2  501    0  0.16884169999E+02  0.15265322644E+02  0.92306668996E+01  0.24562379432E+02  0.00000000000E+00 0. -1.
<mgrwt>
<rscale>  1 0.83274606E+02</rscale>
<asrwt>0</asrwt>
<pdfrwt beam="1">  1       21 0.18407084E-02 0.83274606E+02</pdfrwt>
<pdfrwt beam="2">  1        2 0.64644913E-01 0.83274606E+02</pdfrwt>
<totfact> 0.12331895E+06</totfact>
</mgrwt>
</event>
<event>
 6    2  0.9453093E+000  0.8117526E+02  0.7546771E-02  0.1325749E+00
          2   -1    0    0  502    0 -0.00000000000E+00  0.00000000000E+00  0.34480921083E+03  0.34480921083E+03  0.00000000000E+00 0. -1.
         21   -1    0    0  501  502  0.00000000000E+00 -0.00000000000E+00 -0.83919052000E+01  0.83919052000E+01  0.00000000000E+00 0.  1.
         24    2    1    2    0    0  0.21135046754E+02  0.97583658793E+01  0.29173957493E+03  0.30282239506E+03  0.77765721654E+02 0.  0.
        -13    1    3    3    0    0  0.80936892370E+00 -0.27359447162E+02  0.46495593786E+02  0.53954005120E+02  0.00000000000E+00 0.  1.
         14    1    3    3    0    0  0.20325677831E+02  0.37117813041E+02  0.24524398114E+03  0.24886838994E+03  0.00000000000E+00 0. -1.
          1    1    1    2  501    0 -0.21135046754E+02 -0.97583658793E+01  0.44677730701E+02  0.50378720970E+02  0.00000000000E+00 0. -1.
<mgrwt>
<rscale>  1 0.81175263E+02</rscale>
<asrwt>0</asrwt>
<pdfrwt beam="1">  1       21 0.12910626E-02 0.81175263E+02</pdfrwt>
<pdfrwt beam="2">  1        2 0.53047560E-01 0.81175263E+02</pdfrwt>
<totfact> 0.26495164E+06</totfact>
</mgrwt>
</event>
<event>
 6    2  0.9453093E+000  0.8607123E+02  0.7546771E-02  0.1312655E+00
         21   -1    0    0  501  502  0.00000000000E+00  0.00000000000E+00  0.23078966073E+02  0.23078966073E+02  0.00000000000E+00 0. -1.
          2   -1    0    0  502    0 -0.00000000000E+00 -0.00000000000E+00 -0.60307144061E+03  0.60307144061E+03  0.00000000000E+00 0. -1.
         24    2    1    2    0    0  0.27177447460E+02  0.99087700617E+01 -0.58946175153E+03  0.59571252598E+03  0.81064540483E+02 0.  0.
        -11    1    3    3    0    0  0.39972946781E+02  0.31634898060E+02 -0.24060997208E+03  0.24595073066E+03  0.00000000000E+00 0.  1.
         12    1    3    3    0    0 -0.12795499322E+02 -0.21726127999E+02 -0.34885177945E+03  0.34976179532E+03  0.00000000000E+00 0. -1.
          1    1    1    2  501    0 -0.27177447460E+02 -0.99087700617E+01  0.94692769938E+01  0.30437880697E+02  0.00000000000E+00 0. -1.
<mgrwt>
<rscale>  1 0.86071233E+02</rscale>
<asrwt>0</asrwt>
<pdfrwt beam="1">  1       21 0.35506102E-02 0.86071233E+02</pdfrwt>
<pdfrwt beam="2">  1        2 0.92780221E-01 0.86071233E+02</pdfrwt>
<totfact> 0.29008646E+05</totfact>
</mgrwt>
</event>
<event>
 6    2  0.9453093E+000  0.8450383E+02  0.7546771E-02  0.1316735E+00
         21   -1    0    0  501  502  0.00000000000E+00  0.00000000000E+00  0.48223603335E+01  0.48223603335E+01  0.00000000000E+00 0. -1.
         -1   -1    0    0    0  501 -0.00000000000E+00 -0.00000000000E+00 -0.80701723513E+03  0.80701723513E+03  0.00000000000E+00 0.  1.
         24    2    1    2    0    0  0.11189493524E+02 -0.24241121111E+02 -0.40360438282E+03  0.41235590742E+03  0.80175182167E+02 0.  0.
        -11    1    3    3    0    0  0.34255898587E+02  0.13621596624E+02 -0.24151931873E+03  0.24431658929E+03  0.00000000000E+00 0.  1.
         12    1    3    3    0    0 -0.23066405063E+02 -0.37862717735E+02 -0.16208506409E+03  0.16803931813E+03  0.00000000000E+00 0. -1.
         -2    1    1    2    0  502 -0.11189493524E+02  0.24241121111E+02 -0.39859049198E+03  0.39948368804E+03  0.00000000000E+00 0.  1.
<mgrwt>
<rscale>  1 0.84503826E+02</rscale>
<asrwt>0</asrwt>
<pdfrwt beam="1">  1       21 0.74190192E-03 0.84503826E+02</pdfrwt>
<pdfrwt beam="2">  1       -1 0.12415644E+00 0.84503826E+02</pdfrwt>
<totfact> 0.32481482E+05</totfact>
</mgrwt>
</event>
<event>
 6    2  0.9453093E+000  0.1074526E+03  0.7546771E-02  0.1265361E+00
         -1   -1    0    0    0  501 -0.00000000000E+00  0.00000000000E+00  0.10148983806E+03  0.10148983806E+03  0.00000000000E+00 0.  1.
         21   -1    0    0  501  502  0.00000000000E+00 -0.00000000000E+00 -0.82214662041E+02  0.82214662041E+02  0.00000000000E+00 0.  1.
         24    2    1    2    0    0 -0.67305993680E+02  0.21608759367E+02  0.31479853356E+02  0.11196894813E+03  0.80926070655E+02 0.  0.
        -11    1    3    3    0    0 -0.62444505567E+02  0.21628163674E+02  0.56215629434E+02  0.86759960420E+02  0.00000000000E+00 0.  1.
         12    1    3    3    0    0 -0.48614881134E+01 -0.19404307409E-01 -0.24735776078E+02  0.25208987711E+02  0.00000000000E+00 0. -1.
         -2    1    1    2    0  502  0.67305993680E+02 -0.21608759367E+02 -0.12204677341E+02  0.71735551965E+02  0.00000000000E+00 0.  1.
<mgrwt>
<rscale>  1 0.10745261E+03</rscale>
<asrwt>0</asrwt>
<pdfrwt beam="1">  1       21 0.12648410E-01 0.10745261E+03</pdfrwt>
<pdfrwt beam="2">  1       -1 0.15613821E-01 0.10745261E+03</pdfrwt>
<totfact> 0.14045666E+05</totfact>
</mgrwt>
</event>
<event>
 6    2  0.9453093E+000  0.8484904E+02  0.7546771E-02  0.1315828E+00
         -3   -1    0    0    0  501 -0.00000000000E+00  0.00000000000E+00  0.10222315667E+03  0.10222315667E+03  0.00000000000E+00 0.  1.
         21   -1    0    0  501  502  0.00000000000E+00 -0.00000000000E+00 -0.36551397214E+02  0.36551397214E+02  0.00000000000E+00 0.  1.
         24    2    1    2    0    0 -0.27570728066E+02 -0.11071956336E+01  0.71042910960E+02  0.11066369839E+03  0.80237073822E+02 0.  0.
        -13    1    3    3    0    0 -0.42720712459E+02 -0.28106600583E+02  0.57271891267E+02  0.76779618380E+02  0.00000000000E+00 0.  1.
         14    1    3    3    0    0  0.15149984393E+02  0.26999404950E+02  0.13771019693E+02  0.33884080010E+02  0.00000000000E+00 0. -1.
         -4    1    1    2    0  502  0.27570728066E+02  0.11071956336E+01 -0.53711515004E+01  0.28110855496E+02  0.00000000000E+00 0.  1.
<mgrwt>
<rscale>  1 0.84849036E+02</rscale>
<asrwt>0</asrwt>
<pdfrwt beam="1">  1       21 0.56232919E-02 0.84849036E+02</pdfrwt>
<pdfrwt beam="2">  1       -3 0.15726639E-01 0.84849036E+02</pdfrwt>
<totfact> 0.32964504E+05</totfact>
</mgrwt>
</event>
<event>
 6    2  0.9453093E+000  0.9615695E+02  0.7546771E-02  0.1288591E+00
          2   -1    0    0  502    0 -0.00000000000E+00  0.00000000000E+00  0.92285975160E+03  0.92285975160E+03  0.00000000000E+00 0. -1.
         21   -1    0    0  501  502  0.00000000000E+00 -0.00000000000E+00 -0.60687150255E+01  0.60687150255E+01  0.00000000000E+00 0.  1.
         24    2    1    2    0    0 -0.47942364400E+02 -0.23137421285E+02  0.56223381188E+03  0.57039724602E+03  0.80077140774E+02 0.  0.
        -11    1    3    3    0    0 -0.52615885429E+02  0.15743746586E+02  0.38432953258E+03  0.38823380400E+03  0.00000000000E+00 0.  1.
         12    1    3    3    0    0  0.46735210284E+01 -0.38881167871E+02  0.17790427930E+03  0.18216344202E+03  0.00000000000E+00 0. -1.
          1    1    1    2  501    0  0.47942364400E+02  0.23137421285E+02  0.35455722470E+03  0.35853122061E+03  0.00000000000E+00 0. -1.
<mgrwt>
<rscale>  1 0.96156950E+02</rscale>
<asrwt>0</asrwt>
<pdfrwt beam="1">  1       21 0.93364920E-03 0.96156950E+02</pdfrwt>
<pdfrwt beam="2">  1        2 0.14197831E+00 0.96156950E+02</pdfrwt>
<totfact> 0.14818732E+06</totfact>
</mgrwt>
</event>
<event>
 6    2  0.9453093E+000  0.8927025E+02  0.7546771E-02  0.1304629E+00
          2   -1    0    0  502    0 -0.00000000000E+00  0.00000000000E+00  0.52187877331E+02  0.52187877331E+02  0.00000000000E+00 0. -1.
         21   -1    0    0  501  502  0.00000000000E+00 -0.00000000000E+00 -0.77637210514E+02  0.77637210514E+02  0.00000000000E+00 0. -1.
         24    2    1    2    0    0 -0.36026782244E+02 -0.11803790399E+02 -0.15223537750E+02  0.90559003257E+02  0.80820284970E+02 0.  0.
        -11    1    3    3    0    0  0.27947188213E+01  0.10760367851E+02 -0.38435854095E+02  0.40011384000E+02  0.00000000000E+00 0.  1.
         12    1    3    3    0    0 -0.38821501066E+02 -0.22564158251E+02  0.23212316344E+02  0.50547619258E+02  0.00000000000E+00 0. -1.
          1    1    1    2  501    0  0.36026782244E+02  0.11803790399E+02 -0.10225795432E+02  0.39266084588E+02  0.00000000000E+00 0. -1.
<mgrwt>
<rscale>  1 0.89270247E+02</rscale>
<asrwt>0</asrwt>
<pdfrwt beam="1">  1       21 0.11944186E-01 0.89270247E+02</pdfrwt>
<pdfrwt beam="2">  1        2 0.80289042E-02 0.89270247E+02</pdfrwt>
<totfact> 0.56614511E+05</totfact>
</mgrwt>
</event>
<event>
 6    2  0.9453093E+000  0.1049349E+03  0.7546771E-02  0.1270248E+00
         21   -1    0    0  501  502  0.00000000000E+00  0.00000000000E+00  0.22133751333E+03  0.22133751333E+03  0.00000000000E+00 0.  1.
         -3   -1    0    0    0  501 -0.00000000000E+00 -0.00000000000E+00 -0.46003083193E+02  0.46003083193E+02  0.00000000000E+00 0.  1.
         24    2    1    2    0    0 -0.64923548477E+02 -0.84531591452E+01  0.31910235038E+02  0.10967949547E+03  0.82004911923E+02 0.  0.
        -11    1    3    3    0    0 -0.60816885106E+02 -0.35100019098E+02  0.31964931086E+01  0.70291695263E+02  0.00000000000E+00 0.  1.
         12    1    3    3    0    0 -0.41066633706E+01  0.26646859953E+02  0.28713741929E+02  0.39387800205E+02  0.00000000000E+00 0. -1.
         -4    1    1    2    0  502  0.64923548477E+02  0.84531591452E+01  0.14342419510E+03  0.15766110106E+03  0.00000000000E+00 0.  1.
<mgrwt>
<rscale>  1 0.10493488E+03</rscale>
<asrwt>0</asrwt>
<pdfrwt beam="1">  1       21 0.34051924E-01 0.10493488E+03</pdfrwt>
<pdfrwt beam="2">  1       -3 0.70773976E-02 0.10493488E+03</pdfrwt>
<totfact> 0.50618551E+04</totfact>
</mgrwt>
</event>
<event>
 6    2  0.9453093E+000  0.8304636E+02  0.7546771E-02  0.1320622E+00
         21   -1    0    0  501  502  0.00000000000E+00  0.00000000000E+00  0.19701791262E+01  0.19701791262E+01  0.00000000000E+00 0. -1.
          2   -1    0    0  502    0 -0.00000000000E+00 -0.00000000000E+00 -0.27354401331E+04  0.27354401331E+04  0.00000000000E+00 0. -1.
         24    2    1    2    0    0 -0.26297369018E+02 -0.28185407900E-01 -0.26025864924E+04  0.26039111253E+04  0.78772744810E+02 0.  0.
        -11    1    3    3    0    0 -0.34541491956E+02 -0.23369906563E+02 -0.74956475188E+03  0.75072404015E+03  0.00000000000E+00 0.  1.
         12    1    3    3    0    0  0.82441229387E+01  0.23341721156E+02 -0.18530217405E+04  0.18531870851E+04  0.00000000000E+00 0. -1.
          1    1    1    2  501    0  0.26297369018E+02  0.28185407900E-01 -0.13088346154E+03  0.13349918695E+03  0.00000000000E+00 0. -1.
<mgrwt>
<rscale>  1 0.83046359E+02</rscale>
<asrwt>0</asrwt>
<pdfrwt beam="1">  1       21 0.30310350E-03 0.83046359E+02</pdfrwt>
<pdfrwt beam="2">  1        2 0.42083831E+00 0.83046359E+02</pdfrwt>
<totfact> 0.93004494E+05</totfact>
</mgrwt>
</event>
<event>
 6    2  0.9453093E+000  0.8321374E+02  0.7546771E-02  0.1320171E+00
          2   -1    0    0  502    0 -0.00000000000E+00  0.00000000000E+00  0.67978578488E+02  0.67978578488E+02  0.00000000000E+00 0. -1.
         21   -1    0    0  501  502  0.00000000000E+00 -0.00000000000E+00 -0.51174703610E+02  0.51174703610E+02  0.00000000000E+00 0.  1.
         24    2    1    2    0    0 -0.34099446035E+01  0.22365707064E+02 -0.10298981953E+02  0.83848644681E+02  0.80079170893E+02 0.  0.
        -11    1    3    3    0    0 -0.88639082079E+01  0.99899109536E+01 -0.44822884263E+02  0.46770269864E+02  0.00000000000E+00 0.  1.
         12    1    3    3    0    0  0.54539636043E+01  0.12375796111E+02  0.34523902309E+02  0.37078374816E+02  0.00000000000E+00 0. -1.
          1    1    1    2  501    0  0.34099446035E+01 -0.22365707064E+02  0.27102856832E+02  0.35304637417E+02  0.00000000000E+00 0. -1.
<mgrwt>
<rscale>  1 0.83213738E+02</rscale>
<asrwt>0</asrwt>
<pdfrwt beam="1">  1       21 0.78730313E-02 0.83213738E+02</pdfrwt>
<pdfrwt beam="2">  1        2 0.10458243E-01 0.83213738E+02</pdfrwt>
<totfact> 0.83588629E+05</totfact>
</mgrwt>
</event>
<event>
 6    2  0.9453093E+000  0.1008762E+03  0.7546771E-02  0.1278464E+00
         21   -1    0    0  501  502  0.00000000000E+00  0.00000000000E+00  0.35320312834E+02  0.35320312834E+02  0.00000000000E+00 0. -1.
         -3   -1    0    0    0  501 -0.00000000000E+00 -0.00000000000E+00 -0.21181935269E+03  0.21181935269E+03  0.00000000000E+00 0.  1.
         24    2    1    2    0    0 -0.44224857080E+02  0.39446396374E+02 -0.15327229318E+03  0.18348954430E+03  0.81634311652E+02 0.  0.
        -13    1    3    3    0    0 -0.51459876640E+02 -0.55170970524E+01 -0.10536587946E+03  0.11739048436E+03  0.00000000000E+00 0.  1.
         14    1    3    3    0    0  0.72350195597E+01  0.44963493426E+02 -0.47906413720E+02  0.66099059938E+02  0.00000000000E+00 0. -1.
         -4    1    1    2    0  502  0.44224857080E+02 -0.39446396374E+02 -0.23226746668E+02  0.63650121221E+02  0.00000000000E+00 0.  1.
<mgrwt>
<rscale>  1 0.10087625E+03</rscale>
<asrwt>0</asrwt>
<pdfrwt beam="1">  1       21 0.54338942E-02 0.10087625E+03</pdfrwt>
<pdfrwt beam="2">  1       -3 0.32587593E-01 0.10087625E+03</pdfrwt>
<totfact> 0.98491230E+04</totfact>
</mgrwt>
</event>
<event>
 6    2  0.9453093E+000  0.8277138E+02  0.7546771E-02  0.1321366E+00
         -1   -1    0    0    0  501 -0.00000000000E+00  0.00000000000E+00  0.15850687656E+02  0.15850687656E+02  0.00000000000E+00 0.  1.
         21   -1    0    0  501  502  0.00000000000E+00 -0.00000000000E+00 -0.17263393283E+03  0.17263393283E+03  0.00000000000E+00 0. -1.
         24    2    1    2    0    0 -0.12118920351E+02 -0.17993381983E+02 -0.12825474007E+03  0.15264462008E+03  0.79877854646E+02 0.  0.
        -13    1    3    3    0    0  0.49217137345E+01 -0.45479351675E+02 -0.48941499484E+02  0.66991529812E+02  0.00000000000E+00 0.  1.
         14    1    3    3    0    0 -0.17040634086E+02  0.27485969691E+02 -0.79313240586E+02  0.85653090266E+02  0.00000000000E+00 0. -1.
         -2    1    1    2    0  502  0.12118920351E+02  0.17993381983E+02 -0.28528505104E+02  0.35840000406E+02  0.00000000000E+00 0.  1.
<mgrwt>
<rscale>  1 0.82771382E+02</rscale>
<asrwt>0</asrwt>
<pdfrwt beam="1">  1       21 0.26559068E-01 0.82771382E+02</pdfrwt>
<pdfrwt beam="2">  1       -1 0.24385672E-02 0.82771382E+02</pdfrwt>
<totfact> 0.55775672E+05</totfact>
</mgrwt>
</event>
<event>
 6    2  0.9453093E+000  0.9485192E+02  0.7546771E-02  0.1291510E+00
         -3   -1    0    0    0  501 -0.00000000000E+00  0.00000000000E+00  0.20054991781E+03  0.20054991781E+03  0.00000000000E+00 0.  1.
         21   -1    0    0  501  502  0.00000000000E+00 -0.00000000000E+00 -0.31715393817E+02  0.31715393817E+02  0.00000000000E+00 0. -1.
         24    2    1    2    0    0  0.18613453124E+02  0.60864956776E+02  0.88054938900E+02  0.12942395337E+03  0.70326978039E+02 0.  0.
        -13    1    3    3    0    0  0.26178535549E+01 -0.14370058126E+02  0.28932106331E+02  0.32410160514E+02  0.00000000000E+00 0.  1.
         14    1    3    3    0    0  0.15995599569E+02  0.75235014902E+02  0.59122832570E+02  0.97013792854E+02  0.00000000000E+00 0. -1.
         -4    1    1    2    0  502 -0.18613453124E+02 -0.60864956776E+02  0.80779585089E+02  0.10284135825E+03  0.00000000000E+00 0.  1.
<mgrwt>
<rscale>  1 0.94851924E+02</rscale>
<asrwt>0</asrwt>
<pdfrwt beam="1">  1       21 0.48792915E-02 0.94851924E+02</pdfrwt>
<pdfrwt beam="2">  1       -3 0.30853833E-01 0.94851924E+02</pdfrwt>
<totfact> 0.12936227E+05</totfact>
</mgrwt>
</event>
<event>
 6    2  0.9453093E+000  0.1020072E+03  0.7546771E-02  0.1276131E+00
          2   -1    0    0  502    0 -0.00000000000E+00  0.00000000000E+00  0.13109715220E+03  0.13109715220E+03  0.00000000000E+00 0. -1.
         21   -1    0    0  501  502  0.00000000000E+00 -0.00000000000E+00 -0.68195097607E+02  0.68195097607E+02  0.00000000000E+00 0.  1.
         24    2    1    2    0    0  0.21601056083E+02  0.56737119841E+02 -0.12185173539E+02  0.10273243301E+03  0.81974190729E+02 0.  0.
        -13    1    3    3    0    0  0.15810664071E+02  0.33397382197E+02 -0.47393380800E+02  0.60095713488E+02  0.00000000000E+00 0.  1.
         14    1    3    3    0    0  0.57903920116E+01  0.23339737644E+02  0.35208207260E+02  0.42636719520E+02  0.00000000000E+00 0. -1.
          1    1    1    2  501    0 -0.21601056083E+02 -0.56737119841E+02  0.75087228133E+02  0.96559816800E+02  0.00000000000E+00 0. -1.
<mgrwt>
<rscale>  1 0.10200723E+03</rscale>
<asrwt>0</asrwt>
<pdfrwt beam="1">  1       21 0.10491553E-01 0.10200723E+03</pdfrwt>
<pdfrwt beam="2">  1        2 0.20168793E-01 0.10200723E+03</pdfrwt>
<totfact> 0.24206136E+05</totfact>
</mgrwt>
</event>
<event>
 6    2  0.9453093E+000  0.8976846E+02  0.7546771E-02  0.1303413E+00
         -3   -1    0    0    0  501 -0.00000000000E+00  0.00000000000E+00  0.45963461705E+01  0.45963461705E+01  0.00000000000E+00 0.  1.
         21   -1    0    0  501  502  0.00000000000E+00 -0.00000000000E+00 -0.99233626057E+03  0.99233626057E+03  0.00000000000E+00 0. -1.
         24    2    1    2    0    0 -0.23061031950E+02  0.85775533315E+01 -0.46334385936E+03  0.47195964729E+03  0.86330707431E+02 0.  0.
        -13    1    3    3    0    0 -0.28587717323E+02  0.31284296550E+02 -0.11058009430E+03  0.11842264162E+03  0.00000000000E+00 0.  1.
         14    1    3    3    0    0  0.55266853730E+01 -0.22706743218E+02 -0.35276376506E+03  0.35353700567E+03  0.00000000000E+00 0. -1.
         -4    1    1    2    0  502  0.23061031950E+02 -0.85775533315E+01 -0.52439605504E+03  0.52497295945E+03  0.00000000000E+00 0.  1.
<mgrwt>
<rscale>  1 0.89768461E+02</rscale>
<asrwt>0</asrwt>
<pdfrwt beam="1">  1       21 0.15266718E+00 0.89768461E+02</pdfrwt>
<pdfrwt beam="2">  1       -3 0.70712990E-03 0.89768461E+02</pdfrwt>
<totfact> 0.61500878E+04</totfact>
</mgrwt>
</event>
<event>
 6    2  0.9453093E+000  0.1134027E+03  0.7546771E-02  0.1254395E+00
          2   -1    0    0  502    0 -0.00000000000E+00  0.00000000000E+00  0.16107594867E+04  0.16107594867E+04  0.00000000000E+00 0. -1.
         21   -1    0    0  501  502  0.00000000000E+00 -0.00000000000E+00 -0.13824357534E+02  0.13824357534E+02  0.00000000000E+00 0. -1.
         24    2    1    2    0    0  0.78266247512E+02 -0.19541121658E+02  0.14687932934E+04  0.14731645885E+04  0.79703858930E+02 0.  0.
        -11    1    3    3    0    0 -0.82638446941E+01 -0.14936254013E+02  0.87109874821E+02  0.88766621567E+02  0.00000000000E+00 0.  1.
         12    1    3    3    0    0  0.86530092206E+02 -0.46048676453E+01  0.13816834186E+04  0.13843979669E+04  0.00000000000E+00 0. -1.
          1    1    1    2  501    0 -0.78266247512E+02  0.19541121658E+02  0.12814183578E+03  0.15141925575E+03  0.00000000000E+00 0. -1.
<mgrwt>
<rscale>  1 0.11340267E+03</rscale>
<asrwt>0</asrwt>
<pdfrwt beam="1">  1       21 0.21268255E-02 0.11340267E+03</pdfrwt>
<pdfrwt beam="2">  1        2 0.24780900E+00 0.11340267E+03</pdfrwt>
<totfact> 0.17074932E+05</totfact>
</mgrwt>
</event>
<event>
 6    2  0.1732022E+001  0.9077886E+02  0.7546771E-02  0.1300976E+00
         -3   -1    0    0    0  501 -0.00000000000E+00  0.00000000000E+00  0.12480505241E+04  0.12480505241E+04  0.00000000000E+00 0.  1.
         21   -1    0    0  501  502  0.00000000000E+00 -0.00000000000E+00 -0.39322036164E+01  0.39322036164E+01  0.00000000000E+00 0. -1.
         24    2    1    2    0    0  0.31171978744E+02  0.27809871331E+02  0.63791971586E+03  0.64434646361E+03  0.80596030232E+02 0.  0.
        -11    1    3    3    0    0  0.14146135551E+02  0.62093136253E+01  0.58023224183E+03  0.58043787194E+03  0.00000000000E+00 0.  1.
         12    1    3    3    0    0  0.17025843194E+02  0.21600557705E+02  0.57687474030E+02  0.63908591673E+02  0.00000000000E+00 0. -1.
         -4    1    1    2    0  502 -0.31171978744E+02 -0.27809871331E+02  0.60619860458E+03  0.60763626406E+03  0.00000000000E+00 0.  1.
<mgrwt>
<rscale>  1 0.90778859E+02</rscale>
<asrwt>0</asrwt>
<pdfrwt beam="1">  1       21 0.60495540E-03 0.90778859E+02</pdfrwt>
<pdfrwt beam="2">  1       -3 0.19200746E+00 0.90778859E+02</pdfrwt>
<totfact> 0.68200230E+04</totfact>
</mgrwt>
</event>
<event>
 6    2  0.9453093E+000  0.9978488E+02  0.7546771E-02  0.1280749E+00
         21   -1    0    0  501  502  0.00000000000E+00  0.00000000000E+00  0.94919147545E+02  0.94919147545E+02  0.00000000000E+00 0. -1.
          2   -1    0    0  502    0 -0.00000000000E+00 -0.00000000000E+00 -0.85886326152E+02  0.85886326152E+02  0.00000000000E+00 0. -1.
         24    2    1    2    0    0 -0.13879298822E+02  0.58556409900E+02 -0.35531785420E+02  0.10592228295E+03  0.79596068835E+02 0.  0.
        -13    1    3    3    0    0 -0.46355820009E+02  0.29627249966E+02 -0.28181164597E+02  0.61812733537E+02  0.00000000000E+00 0.  1.
         14    1    3    3    0    0  0.32476521187E+02  0.28929159934E+02 -0.73506208225E+01  0.44109549413E+02  0.00000000000E+00 0. -1.
          1    1    1    2  501    0  0.13879298822E+02 -0.58556409900E+02  0.44564606812E+02  0.74883190748E+02  0.00000000000E+00 0. -1.
<mgrwt>
<rscale>  1 0.99784880E+02</rscale>
<asrwt>0</asrwt>
<pdfrwt beam="1">  1       21 0.14602946E-01 0.99784880E+02</pdfrwt>
<pdfrwt beam="2">  1        2 0.13213281E-01 0.99784880E+02</pdfrwt>
<totfact> 0.21919718E+05</totfact>
</mgrwt>
</event>
<event>
 6    2  0.9453093E+000  0.9936453E+02  0.7546771E-02  0.1281638E+00
         21   -1    0    0  501  502  0.00000000000E+00  0.00000000000E+00  0.56673893895E+03  0.56673893895E+03  0.00000000000E+00 0. -1.
         -1   -1    0    0    0  501 -0.00000000000E+00 -0.00000000000E+00 -0.11165469387E+02  0.11165469387E+02  0.00000000000E+00 0.  1.
         24    2    1    2    0    0  0.31854216585E+02  0.50483220144E+02  0.35321768875E+03  0.36692784884E+03  0.79435911123E+02 0.  0.
        -11    1    3    3    0    0  0.47644904037E+01 -0.20689550144E+02  0.50568461274E+02  0.54844572472E+02  0.00000000000E+00 0.  1.
         12    1    3    3    0    0  0.27089726181E+02  0.71172770289E+02  0.30264922748E+03  0.31208327636E+03  0.00000000000E+00 0. -1.
         -2    1    1    2    0  502 -0.31854216585E+02 -0.50483220144E+02  0.20235578081E+03  0.21097655950E+03  0.00000000000E+00 0.  1.
<mgrwt>
<rscale>  1 0.99364534E+02</rscale>
<asrwt>0</asrwt>
<pdfrwt beam="1">  1       21 0.87190584E-01 0.99364534E+02</pdfrwt>
<pdfrwt beam="2">  1       -1 0.17177650E-02 0.99364534E+02</pdfrwt>
<totfact> 0.82383820E+04</totfact>
</mgrwt>
</event>
<event>
 6    2  0.9453093E+000  0.1076644E+03  0.7546771E-02  0.1264957E+00
         21   -1    0    0  501  502  0.00000000000E+00  0.00000000000E+00  0.12462015384E+03  0.12462015384E+03  0.00000000000E+00 0.  1.
         -1   -1    0    0    0  501 -0.00000000000E+00 -0.00000000000E+00 -0.54166447263E+02  0.54166447263E+02  0.00000000000E+00 0.  1.
         24    2    1    2    0    0  0.40914059645E+02 -0.36931476130E+02  0.57948325168E+02  0.12226865023E+03  0.92486324581E+02 0.  0.
        -13    1    3    3    0    0  0.31533001855E+02 -0.68119455156E+02  0.39034376114E+02  0.84606577140E+02  0.00000000000E+00 0.  1.
         14    1    3    3    0    0  0.93810577894E+01  0.31187979026E+02  0.18913949054E+02  0.37662073094E+02  0.00000000000E+00 0. -1.
         -2    1    1    2    0  502 -0.40914059645E+02  0.36931476130E+02  0.12505381404E+02  0.56517950864E+02  0.00000000000E+00 0.  1.
<mgrwt>
<rscale>  1 0.10766436E+03</rscale>
<asrwt>0</asrwt>
<pdfrwt beam="1">  1       21 0.19172331E-01 0.10766436E+03</pdfrwt>
<pdfrwt beam="2">  1       -1 0.83332996E-02 0.10766436E+03</pdfrwt>
<totfact> 0.17362787E+05</totfact>
</mgrwt>
</event>
<event>
 6    2  0.9453093E+000  0.8019023E+02  0.7546771E-02  0.1328512E+00
          2   -1    0    0  502    0 -0.00000000000E+00  0.00000000000E+00  0.28381577385E+03  0.28381577385E+03  0.00000000000E+00 0. -1.
         21   -1    0    0  501  502  0.00000000000E+00 -0.00000000000E+00 -0.10469386293E+02  0.10469386293E+02  0.00000000000E+00 0.  1.
         24    2    1    2    0    0  0.21114194829E+02  0.12053414103E+02  0.23981656078E+03  0.25286845701E+03  0.76415834158E+02 0.  0.
        -13    1    3    3    0    0  0.26649815670E+02  0.16191417089E+01  0.21626686404E+02  0.34359101559E+02  0.00000000000E+00 0.  1.
         14    1    3    3    0    0 -0.55356208403E+01  0.10434272394E+02  0.21818987438E+03  0.21850935545E+03  0.00000000000E+00 0. -1.
          1    1    1    2  501    0 -0.21114194829E+02 -0.12053414103E+02  0.33529826774E+02  0.41416703132E+02  0.00000000000E+00 0. -1.
<mgrwt>
<rscale>  1 0.80190235E+02</rscale>
<asrwt>0</asrwt>
<pdfrwt beam="1">  1       21 0.16106750E-02 0.80190235E+02</pdfrwt>
<pdfrwt beam="2">  1        2 0.43663959E-01 0.80190235E+02</pdfrwt>
<totfact> 0.22854047E+06</totfact>
</mgrwt>
</event>
<event>
 6    2  0.9453093E+000  0.8423884E+02  0.7546771E-02  0.1317435E+00
         21   -1    0    0  501  502  0.00000000000E+00  0.00000000000E+00  0.10258030240E+02  0.10258030240E+02  0.00000000000E+00 0. -1.
         -3   -1    0    0    0  501 -0.00000000000E+00 -0.00000000000E+00 -0.38406390575E+03  0.38406390575E+03  0.00000000000E+00 0.  1.
         24    2    1    2    0    0  0.81438966167E+01  0.26473787978E+02 -0.34164822016E+03  0.35188021949E+03  0.79555000008E+02 0.  0.
        -11    1    3    3    0    0 -0.11556533104E+02  0.11008270158E+02 -0.31464684125E+03  0.31505137704E+03  0.00000000000E+00 0.  1.
         12    1    3    3    0    0  0.19700429721E+02  0.15465517821E+02 -0.27001378909E+02  0.36828842443E+02  0.00000000000E+00 0. -1.
         -4    1    1    2    0  502 -0.81438966167E+01 -0.26473787978E+02 -0.32157655352E+02  0.42441716503E+02  0.00000000000E+00 0.  1.
<mgrwt>
<rscale>  1 0.84238842E+02</rscale>
<asrwt>0</asrwt>
<pdfrwt beam="1">  1       21 0.15781586E-02 0.84238842E+02</pdfrwt>
<pdfrwt beam="2">  1       -3 0.59086753E-01 0.84238842E+02</pdfrwt>
<totfact> 0.22589342E+05</totfact>
</mgrwt>
</event>
<event>
 6    2  0.9453093E+000  0.8390409E+02  0.7546771E-02  0.1318324E+00
         21   -1    0    0  501  502  0.00000000000E+00  0.00000000000E+00  0.34638505540E+01  0.34638505540E+01  0.00000000000E+00 0. -1.
          2   -1    0    0  502    0 -0.00000000000E+00 -0.00000000000E+00 -0.17713421900E+04  0.17713421900E+04  0.00000000000E+00 0. -1.
         24    2    1    2    0    0 -0.19545907869E+02  0.82530144823E+01 -0.17242704000E+04  0.17263106063E+04  0.81177227640E+02 0.  0.
        -11    1    3    3    0    0  0.16594573792E+02 -0.15365011406E+02 -0.17712684729E+03  0.17856478792E+03  0.00000000000E+00 0.  1.
         12    1    3    3    0    0 -0.36140481662E+02  0.23618025888E+02 -0.15471435527E+04  0.15477458183E+04  0.00000000000E+00 0. -1.
          1    1    1    2  501    0  0.19545907869E+02 -0.82530144823E+01 -0.43607939456E+02  0.48495434280E+02  0.00000000000E+00 0. -1.
<mgrwt>
<rscale>  1 0.83904094E+02</rscale>
<asrwt>0</asrwt>
<pdfrwt beam="1">  1       21 0.53289892E-03 0.83904094E+02</pdfrwt>
<pdfrwt beam="2">  1        2 0.27251478E+00 0.83904094E+02</pdfrwt>
<totfact> 0.12310176E+06</totfact>
</mgrwt>
</event>
<event>
 6    2  0.9453093E+000  0.8412298E+02  0.7546771E-02  0.1317742E+00
          2   -1    0    0  502    0 -0.00000000000E+00  0.00000000000E+00  0.97727122327E+03  0.97727122327E+03  0.00000000000E+00 0. -1.
         21   -1    0    0  501  502  0.00000000000E+00 -0.00000000000E+00 -0.30563302687E+01  0.30563302687E+01  0.00000000000E+00 0.  1.
         24    2    1    2    0    0 -0.19808573197E+02 -0.81883810388E+01  0.65266228323E+03  0.65806134369E+03  0.81346462484E+02 0.  0.
        -13    1    3    3    0    0 -0.38976834794E+02 -0.25483581026E+02  0.23313889530E+03  0.23774429763E+03  0.00000000000E+00 0.  1.
         14    1    3    3    0    0  0.19168261597E+02  0.17295199987E+02  0.41952338793E+03  0.42031704607E+03  0.00000000000E+00 0. -1.
          1    1    1    2  501    0  0.19808573197E+02  0.81883810388E+01  0.32155260978E+03  0.32226620985E+03  0.00000000000E+00 0. -1.
<mgrwt>
<rscale>  1 0.84122982E+02</rscale>
<asrwt>0</asrwt>
<pdfrwt beam="1">  1       21 0.47020544E-03 0.84122982E+02</pdfrwt>
<pdfrwt beam="2">  1        2 0.15034917E+00 0.84122982E+02</pdfrwt>
<totfact> 0.39105108E+06</totfact>
</mgrwt>
</event>
<event>
 6    2  0.9453093E+000  0.1310378E+03  0.7546771E-02  0.1225924E+00
         21   -1    0    0  501  502  0.00000000000E+00  0.00000000000E+00  0.24528121703E+03  0.24528121703E+03  0.00000000000E+00 0.  1.
         -1   -1    0    0    0  501 -0.00000000000E+00 -0.00000000000E+00 -0.89363916931E+02  0.89363916931E+02  0.00000000000E+00 0.  1.
         24    2    1    2    0    0 -0.10299957073E+03  0.70681280067E+01 -0.18124660994E+02  0.13228536962E+03  0.80697247001E+02 0.  0.
        -13    1    3    3    0    0 -0.82490901275E+02 -0.25659309585E+02  0.62489121083E+01  0.86615228823E+02  0.00000000000E+00 0.  1.
         14    1    3    3    0    0 -0.20508669458E+02  0.32727437592E+02 -0.24373573102E+02  0.45670140793E+02  0.00000000000E+00 0. -1.
         -2    1    1    2    0  502  0.10299957073E+03 -0.70681280067E+01  0.17404196109E+03  0.20235976435E+03  0.00000000000E+00 0.  1.
<mgrwt>
<rscale>  1 0.13103784E+03</rscale>
<asrwt>0</asrwt>
<pdfrwt beam="1">  1       21 0.37735571E-01 0.13103784E+03</pdfrwt>
<pdfrwt beam="2">  1       -1 0.13748295E-01 0.13103784E+03</pdfrwt>
<totfact> 0.22454187E+04</totfact>
</mgrwt>
</event>
<event>
 6    2  0.9453093E+000  0.1139461E+03  0.7546771E-02  0.1253432E+00
         -1   -1    0    0    0  501 -0.00000000000E+00  0.00000000000E+00  0.69138146168E+02  0.69138146168E+02  0.00000000000E+00 0.  1.
         21   -1    0    0  501  502  0.00000000000E+00 -0.00000000000E+00 -0.14745012183E+03  0.14745012183E+03  0.00000000000E+00 0.  1.
         24    2    1    2    0    0  0.84774750107E+02  0.12703139084E+02 -0.60592227136E+02  0.12905474593E+03  0.75070509918E+02 0.  0.
        -11    1    3    3    0    0  0.97481397414E+02  0.28168921556E+01 -0.48479337881E+02  0.10890731805E+03  0.00000000000E+00 0.  1.
         12    1    3    3    0    0 -0.12706647307E+02  0.98862469289E+01 -0.12112889255E+02  0.20147427881E+02  0.00000000000E+00 0. -1.
         -2    1    1    2    0  502 -0.84774750107E+02 -0.12703139084E+02 -0.17719748529E+02  0.87533522072E+02  0.00000000000E+00 0.  1.
<mgrwt>
<rscale>  1 0.11394608E+03</rscale>
<asrwt>0</asrwt>
<pdfrwt beam="1">  1       21 0.22684634E-01 0.11394608E+03</pdfrwt>
<pdfrwt beam="2">  1       -1 0.10636638E-01 0.11394608E+03</pdfrwt>
<totfact> 0.88244055E+04</totfact>
</mgrwt>
</event>
<event>
 6    2  0.9453093E+000  0.9494499E+02  0.7546771E-02  0.1291300E+00
         21   -1    0    0  501  502  0.00000000000E+00  0.00000000000E+00  0.10518414651E+02  0.10518414651E+02  0.00000000000E+00 0.  1.
          2   -1    0    0  502    0 -0.00000000000E+00 -0.00000000000E+00 -0.58408052867E+03  0.58408052867E+03  0.00000000000E+00 0. -1.
         24    2    1    2    0    0  0.18320794040E+02 -0.45721507157E+02 -0.25212087804E+03  0.26940580702E+03  0.81169230623E+02 0.  0.
        -11    1    3    3    0    0 -0.31468890508E+02 -0.13632782815E+02 -0.71080154749E+02  0.78921050654E+02  0.00000000000E+00 0.  1.
         12    1    3    3    0    0  0.49789684548E+02 -0.32088724343E+02 -0.18104072329E+03  0.19048475636E+03  0.00000000000E+00 0. -1.
          1    1    1    2  501    0 -0.18320794040E+02  0.45721507157E+02 -0.32144123598E+03  0.32519313630E+03  0.00000000000E+00 0. -1.
<mgrwt>
<rscale>  1 0.94944993E+02</rscale>
<asrwt>0</asrwt>
<pdfrwt beam="1">  1       21 0.16182178E-02 0.94944993E+02</pdfrwt>
<pdfrwt beam="2">  1        2 0.89858533E-01 0.94944993E+02</pdfrwt>
<totfact> 0.10746058E+06</totfact>
</mgrwt>
</event>
<event>
 6    2  0.9453093E+000  0.9344159E+02  0.7546771E-02  0.1294725E+00
         21   -1    0    0  501  502  0.00000000000E+00  0.00000000000E+00  0.37968291273E+01  0.37968291273E+01  0.00000000000E+00 0. -1.
          2   -1    0    0  502    0 -0.00000000000E+00 -0.00000000000E+00 -0.12786939048E+04  0.12786939048E+04  0.00000000000E+00 0. -1.
         24    2    1    2    0    0 -0.37358212963E+02 -0.24877295756E+02 -0.93088330184E+03  0.93556135710E+03  0.81956179341E+02 0.  0.
        -13    1    3    3    0    0 -0.94831644427E+01  0.15494340680E+02 -0.48103628458E+02  0.51419491166E+02  0.00000000000E+00 0.  1.
         14    1    3    3    0    0 -0.27875048521E+02 -0.40371636436E+02 -0.88277967338E+03  0.88414186594E+03  0.00000000000E+00 0. -1.
          1    1    1    2  501    0  0.37358212963E+02  0.24877295756E+02 -0.34401377382E+03  0.34692937682E+03  0.00000000000E+00 0. -1.
<mgrwt>
<rscale>  1 0.93441593E+02</rscale>
<asrwt>0</asrwt>
<pdfrwt beam="1">  1       21 0.58412780E-03 0.93441593E+02</pdfrwt>
<pdfrwt beam="2">  1        2 0.19672206E+00 0.93441593E+02</pdfrwt>
<totfact> 0.19243084E+06</totfact>
</mgrwt>
</event>
<event>
 6    2  0.9453093E+000  0.8744054E+02  0.7546771E-02  0.1309171E+00
         21   -1    0    0  501  502  0.00000000000E+00  0.00000000000E+00  0.65104443726E+01  0.65104443726E+01  0.00000000000E+00 0.  1.
          2   -1    0    0  502    0 -0.00000000000E+00 -0.00000000000E+00 -0.57338217461E+03  0.57338217461E+03  0.00000000000E+00 0. -1.
         24    2    1    2    0    0 -0.73192583920E+01  0.33972648455E+02 -0.40760200568E+03  0.41687557218E+03  0.80237991393E+02 0.  0.
        -13    1    3    3    0    0 -0.15243482344E+02  0.58196449874E+02 -0.32151669631E+03  0.32709658594E+03  0.00000000000E+00 0.  1.
         14    1    3    3    0    0  0.79242239525E+01 -0.24223801419E+02 -0.86085309370E+02  0.89778986238E+02  0.00000000000E+00 0. -1.
          1    1    1    2  501    0  0.73192583920E+01 -0.33972648455E+02 -0.15926972456E+03  0.16301704681E+03  0.00000000000E+00 0. -1.
<mgrwt>
<rscale>  1 0.87440538E+02</rscale>
<asrwt>0</asrwt>
<pdfrwt beam="1">  1       21 0.10016067E-02 0.87440538E+02</pdfrwt>
<pdfrwt beam="2">  1        2 0.88212651E-01 0.87440538E+02</pdfrwt>
<totfact> 0.23156533E+06</totfact>
</mgrwt>
</event>
<event>
 6    2  0.9453093E+000  0.1593111E+03  0.7546771E-02  0.1189477E+00
         21   -1    0    0  501  502  0.00000000000E+00  0.00000000000E+00  0.39751636718E+02  0.39751636718E+02  0.00000000000E+00 0. -1.
          2   -1    0    0  502    0 -0.00000000000E+00 -0.00000000000E+00 -0.88215429724E+03  0.88215429724E+03  0.00000000000E+00 0. -1.
         24    2    1    2    0    0  0.13313382268E+03 -0.26089876269E+02 -0.72560858834E+03  0.74289154436E+03  0.83514830001E+02 0.  0.
        -13    1    3    3    0    0  0.79928211687E+02 -0.45939042539E+02 -0.56650798220E+03  0.57396011059E+03  0.00000000000E+00 0.  1.
         14    1    3    3    0    0  0.53205610993E+02  0.19849166270E+02 -0.15910060614E+03  0.16893143378E+03  0.00000000000E+00 0. -1.
          1    1    1    2  501    0 -0.13313382268E+03  0.26089876269E+02 -0.11679407218E+03  0.17901438959E+03  0.00000000000E+00 0. -1.
<mgrwt>
<rscale>  1 0.15931109E+03</rscale>
<asrwt>0</asrwt>
<pdfrwt beam="1">  1       21 0.61156364E-02 0.15931109E+03</pdfrwt>
<pdfrwt beam="2">  1        2 0.13571605E+00 0.15931109E+03</pdfrwt>
<totfact> 0.75580081E+04</totfact>
</mgrwt>
</event>
<event>
 6    2  0.9453093E+000  0.1028803E+03  0.7546771E-02  0.1274353E+00
         21   -1    0    0  501  502  0.00000000000E+00  0.00000000000E+00  0.18507738957E+02  0.18507738957E+02  0.00000000000E+00 0. -1.
          2   -1    0    0  502    0 -0.00000000000E+00 -0.00000000000E+00 -0.37716953717E+03  0.37716953717E+03  0.00000000000E+00 0. -1.
         24    2    1    2    0    0 -0.13958177058E+01 -0.44950691532E+02 -0.32078742727E+03  0.33688117974E+03  0.92530226364E+02 0.  0.
        -11    1    3    3    0    0  0.30549001008E+02 -0.10245228045E+02 -0.36416525220E+02  0.48624782461E+02  0.00000000000E+00 0.  1.
         12    1    3    3    0    0 -0.31944818714E+02 -0.34705463487E+02 -0.28437090205E+03  0.28825639728E+03  0.00000000000E+00 0. -1.
          1    1    1    2  501    0  0.13958177058E+01  0.44950691532E+02 -0.37874370945E+02  0.58796096390E+02  0.00000000000E+00 0. -1.
<mgrwt>
<rscale>  1 0.10288030E+03</rscale>
<asrwt>0</asrwt>
<pdfrwt beam="1">  1       21 0.28473446E-02 0.10288030E+03</pdfrwt>
<pdfrwt beam="2">  1        2 0.58026080E-01 0.10288030E+03</pdfrwt>
<totfact> 0.69891301E+05</totfact>
</mgrwt>
</event>
<event>
 6    2  0.9453093E+000  0.9616491E+02  0.7546771E-02  0.1288574E+00
         -3   -1    0    0    0  501 -0.00000000000E+00  0.00000000000E+00  0.42125486823E+03  0.42125486823E+03  0.00000000000E+00 0.  1.
         21   -1    0    0  501  502  0.00000000000E+00 -0.00000000000E+00 -0.11930708363E+02  0.11930708363E+02  0.00000000000E+00 0.  1.
         24    2    1    2    0    0  0.20598425284E+01  0.32103047954E+02  0.37044476597E+03  0.38272315583E+03  0.90624724761E+02 0.  0.
        -13    1    3    3    0    0 -0.24734934386E+02  0.53346870699E+02  0.18396487142E+03  0.19313409722E+03  0.00000000000E+00 0.  1.
         14    1    3    3    0    0  0.26794776915E+02 -0.21243822745E+02  0.18647989455E+03  0.18958905861E+03  0.00000000000E+00 0. -1.
         -4    1    1    2    0  502 -0.20598425284E+01 -0.32103047954E+02  0.38879393900E+02  0.50462420762E+02  0.00000000000E+00 0.  1.
<mgrwt>
<rscale>  1 0.96164907E+02</rscale>
<asrwt>0</asrwt>
<pdfrwt beam="1">  1       21 0.18354939E-02 0.96164907E+02</pdfrwt>
<pdfrwt beam="2">  1       -3 0.64808430E-01 0.96164907E+02</pdfrwt>
<totfact> 0.15004499E+05</totfact>
</mgrwt>
</event>
<event>
 6    2  0.9453093E+000  0.9516459E+02  0.7546771E-02  0.1290806E+00
         21   -1    0    0  501  502  0.00000000000E+00  0.00000000000E+00  0.44491622354E+02  0.44491622354E+02  0.00000000000E+00 0.  1.
          2   -1    0    0  502    0 -0.00000000000E+00 -0.00000000000E+00 -0.12358516994E+03  0.12358516994E+03  0.00000000000E+00 0. -1.
         24    2    1    2    0    0  0.42434097900E+02 -0.15179669631E+02 -0.26439134693E+02  0.98769056565E+02  0.83816607286E+02 0.  0.
        -13    1    3    3    0    0  0.53054545057E+02 -0.64898199065E+01  0.14672829053E+02  0.55427379750E+02  0.00000000000E+00 0.  1.
         14    1    3    3    0    0 -0.10620447157E+02 -0.86898497244E+01 -0.41111963746E+02  0.43341676815E+02  0.00000000000E+00 0. -1.
          1    1    1    2  501    0 -0.42434097900E+02  0.15179669631E+02 -0.52654412894E+02  0.69307735729E+02  0.00000000000E+00 0. -1.
<mgrwt>
<rscale>  1 0.95164587E+02</rscale>
<asrwt>0</asrwt>
<pdfrwt beam="1">  1       21 0.68448650E-02 0.95164587E+02</pdfrwt>
<pdfrwt beam="2">  1        2 0.19013103E-01 0.95164587E+02</pdfrwt>
<totfact> 0.53592348E+05</totfact>
</mgrwt>
</event>
<event>
 6    2  0.9453093E+000  0.8524471E+02  0.7546771E-02  0.1314794E+00
          4   -1    0    0  502    0 -0.00000000000E+00  0.00000000000E+00  0.24226844830E+03  0.24226844830E+03  0.00000000000E+00 0. -1.
         21   -1    0    0  501  502  0.00000000000E+00 -0.00000000000E+00 -0.29328140630E+02  0.29328140630E+02  0.00000000000E+00 0. -1.
         24    2    1    2    0    0 -0.23360859768E+02 -0.22151857466E+02  0.22228844947E+03  0.23807312978E+03  0.78931779397E+02 0.  0.
        -11    1    3    3    0    0 -0.93210342216E+00  0.26223882485E+02  0.37669732377E+02  0.45908273402E+02  0.00000000000E+00 0.  1.
         12    1    3    3    0    0 -0.22428756346E+02 -0.48375739951E+02  0.18461871709E+03  0.19216485638E+03  0.00000000000E+00 0. -1.
          3    1    1    2  501    0  0.23360859768E+02  0.22151857466E+02 -0.93481417971E+01  0.33523459149E+02  0.00000000000E+00 0. -1.
<mgrwt>
<rscale>  1 0.85244709E+02</rscale>
<asrwt>0</asrwt>
<pdfrwt beam="1">  1       21 0.45120218E-02 0.85244709E+02</pdfrwt>
<pdfrwt beam="2">  1        4 0.37272068E-01 0.85244709E+02</pdfrwt>
<totfact> 0.83746850E+04</totfact>
</mgrwt>
</event>
<event>
 6    2  0.9453093E+000  0.8965224E+02  0.7546771E-02  0.1303696E+00
          2   -1    0    0  502    0 -0.00000000000E+00  0.00000000000E+00  0.20510573789E+04  0.20510573789E+04  0.00000000000E+00 0. -1.
         21   -1    0    0  501  502  0.00000000000E+00 -0.00000000000E+00 -0.20412906016E+01  0.20412906016E+01  0.00000000000E+00 0. -1.
         24    2    1    2    0    0  0.35197945284E+02  0.16076161557E+02  0.15453196253E+04  0.15479180433E+04  0.80871415826E+02 0.  0.
        -13    1    3    3    0    0 -0.24775048418E+01 -0.94458320240E+01  0.23900456016E+02  0.25818473438E+02  0.00000000000E+00 0.  1.
         14    1    3    3    0    0  0.37675450126E+02  0.25521993581E+02  0.15214191693E+04  0.15220995698E+04  0.00000000000E+00 0. -1.
          1    1    1    2  501    0 -0.35197945284E+02 -0.16076161557E+02  0.50369646292E+03  0.50518062619E+03  0.00000000000E+00 0. -1.
<mgrwt>
<rscale>  1 0.89652240E+02</rscale>
<asrwt>0</asrwt>
<pdfrwt beam="1">  1       21 0.31404635E-03 0.89652240E+02</pdfrwt>
<pdfrwt beam="2">  1        2 0.31554564E+00 0.89652240E+02</pdfrwt>
<totfact> 0.20034774E+06</totfact>
</mgrwt>
</event>
<event>
 6    2  0.9453093E+000  0.1479436E+03  0.7546771E-02  0.1203023E+00
          2   -1    0    0  502    0 -0.00000000000E+00  0.00000000000E+00  0.15317674767E+04  0.15317674767E+04  0.00000000000E+00 0. -1.
         21   -1    0    0  501  502  0.00000000000E+00 -0.00000000000E+00 -0.12663670166E+02  0.12663670166E+02  0.00000000000E+00 0. -1.
         24    2    1    2    0    0  0.12224249556E+03  0.20016101249E+02  0.99179471642E+03  0.10027681995E+04  0.80891472884E+02 0.  0.
        -13    1    3    3    0    0  0.10525952961E+03  0.16873647397E+02  0.96512401898E+03  0.97099364600E+03  0.00000000000E+00 0.  1.
         14    1    3    3    0    0  0.16982965950E+02  0.31424538526E+01  0.26670697439E+02  0.31774553507E+02  0.00000000000E+00 0. -1.
          1    1    1    2  501    0 -0.12224249556E+03 -0.20016101249E+02  0.52730909015E+03  0.54166294739E+03  0.00000000000E+00 0. -1.
<mgrwt>
<rscale>  1 0.14794358E+03</rscale>
<asrwt>0</asrwt>
<pdfrwt beam="1">  1       21 0.19482582E-02 0.14794358E+03</pdfrwt>
<pdfrwt beam="2">  1        2 0.23565639E+00 0.14794358E+03</pdfrwt>
<totfact> 0.21667613E+05</totfact>
</mgrwt>
</event>
<event>
 6    2  0.9453093E+000  0.9687828E+02  0.7546771E-02  0.1287001E+00
          2   -1    0    0  502    0 -0.00000000000E+00  0.00000000000E+00  0.80504003042E+03  0.80504003042E+03  0.00000000000E+00 0. -1.
         21   -1    0    0  501  502  0.00000000000E+00 -0.00000000000E+00 -0.76274333853E+01  0.76274333853E+01  0.00000000000E+00 0.  1.
         24    2    1    2    0    0  0.51984139571E+02 -0.88978598200E+01  0.38986130680E+03  0.40171786002E+03  0.81264247034E+02 0.  0.
        -11    1    3    3    0    0  0.30853351204E+02  0.18709483166E+02  0.59888064922E+02  0.69918197638E+02  0.00000000000E+00 0.  1.
         12    1    3    3    0    0  0.21130788367E+02 -0.27607342986E+02  0.32997324188E+03  0.33179966238E+03  0.00000000000E+00 0. -1.
          1    1    1    2  501    0 -0.51984139571E+02  0.88978598200E+01  0.40755129023E+03  0.41094960378E+03  0.00000000000E+00 0. -1.
<mgrwt>
<rscale>  1 0.96878277E+02</rscale>
<asrwt>0</asrwt>
<pdfrwt beam="1">  1       21 0.11734519E-02 0.96878277E+02</pdfrwt>
<pdfrwt beam="2">  1        2 0.12385224E+00 0.96878277E+02</pdfrwt>
<totfact> 0.12313379E+06</totfact>
</mgrwt>
</event>
<event>
 6    2  0.9453093E+000  0.8355194E+02  0.7546771E-02  0.1319263E+00
         -3   -1    0    0    0  501 -0.00000000000E+00  0.00000000000E+00  0.34472361524E+01  0.34472361524E+01  0.00000000000E+00 0.  1.
         21   -1    0    0  501  502  0.00000000000E+00 -0.00000000000E+00 -0.86139167053E+03  0.86139167053E+03  0.00000000000E+00 0. -1.
         24    2    1    2    0    0  0.23909540199E+02  0.37867417314E+01 -0.71416301987E+03  0.71903389756E+03  0.79968252291E+02 0.  0.
        -13    1    3    3    0    0 -0.22482235113E+02 -0.20543298700E+02 -0.30937519511E+03  0.31087053473E+03  0.00000000000E+00 0.  1.
         14    1    3    3    0    0  0.46391775312E+02  0.24330040431E+02 -0.40478782476E+03  0.40816336283E+03  0.00000000000E+00 0. -1.
         -4    1    1    2    0  502 -0.23909540199E+02 -0.37867417314E+01 -0.14378141451E+03  0.14580500911E+03  0.00000000000E+00 0.  1.
<mgrwt>
<rscale>  1 0.83551941E+02</rscale>
<asrwt>0</asrwt>
<pdfrwt beam="1">  1       21 0.13252196E+00 0.83551941E+02</pdfrwt>
<pdfrwt beam="2">  1       -3 0.53034335E-03 0.83551941E+02</pdfrwt>
<totfact> 0.13271758E+05</totfact>
</mgrwt>
</event>
<event>
 6    2  0.9453093E+000  0.8507595E+02  0.7546771E-02  0.1315234E+00
          2   -1    0    0  502    0 -0.00000000000E+00  0.00000000000E+00  0.21187036535E+03  0.21187036535E+03  0.00000000000E+00 0. -1.
         21   -1    0    0  501  502  0.00000000000E+00 -0.00000000000E+00 -0.20559569676E+02  0.20559569676E+02  0.00000000000E+00 0.  1.
         24    2    1    2    0    0  0.12745488466E+02 -0.19367138697E+02  0.19116861425E+03  0.20924472955E+03  0.81855874750E+02 0.  0.
        -11    1    3    3    0    0  0.23520174773E+02 -0.43107897594E+01  0.81064453209E+01  0.25248682846E+02  0.00000000000E+00 0.  1.
         12    1    3    3    0    0 -0.10774686307E+02 -0.15056348938E+02  0.18306216893E+03  0.18399604670E+03  0.00000000000E+00 0. -1.
          1    1    1    2  501    0 -0.12745488466E+02  0.19367138697E+02  0.14218142286E+00  0.23185205479E+02  0.00000000000E+00 0. -1.
<mgrwt>
<rscale>  1 0.85075953E+02</rscale>
<asrwt>0</asrwt>
<pdfrwt beam="1">  1       21 0.31630109E-02 0.85075953E+02</pdfrwt>
<pdfrwt beam="2">  1        2 0.32595439E-01 0.85075953E+02</pdfrwt>
<totfact> 0.10597219E+06</totfact>
</mgrwt>
</event>
<event>
 6    2  0.9453093E+000  0.8597404E+02  0.7546771E-02  0.1312905E+00
          4   -1    0    0  502    0 -0.00000000000E+00  0.00000000000E+00  0.90140873061E+02  0.90140873061E+02  0.00000000000E+00 0. -1.
         21   -1    0    0  501  502  0.00000000000E+00 -0.00000000000E+00 -0.33000965844E+02  0.33000965844E+02  0.00000000000E+00 0.  1.
         24    2    1    2    0    0 -0.88200230367E+01  0.21247864818E+02  0.42867730738E+02  0.96068612515E+02  0.82838827891E+02 0.  0.
        -13    1    3    3    0    0 -0.25567626877E+02 -0.12005355755E+02 -0.11230049351E+02  0.30396482023E+02  0.00000000000E+00 0.  1.
         14    1    3    3    0    0  0.16747603840E+02  0.33253220573E+02  0.54097780089E+02  0.65672130493E+02  0.00000000000E+00 0. -1.
          3    1    1    2  501    0  0.88200230367E+01 -0.21247864818E+02  0.14272176479E+02  0.27073226389E+02  0.00000000000E+00 0. -1.
<mgrwt>
<rscale>  1 0.85974042E+02</rscale>
<asrwt>0</asrwt>
<pdfrwt beam="1">  1       21 0.50770717E-02 0.85974042E+02</pdfrwt>
<pdfrwt beam="2">  1        4 0.13867827E-01 0.85974042E+02</pdfrwt>
<totfact> 0.41362128E+05</totfact>
</mgrwt>
</event>
<event>
 6    2  0.9453093E+000  0.1147360E+03  0.7546771E-02  0.1252043E+00
          4   -1    0    0  502    0 -0.00000000000E+00  0.00000000000E+00  0.12463915397E+04  0.12463915397E+04  0.00000000000E+00 0. -1.
         21   -1    0    0  501  502  0.00000000000E+00 -0.00000000000E+00 -0.89614904703E+01  0.89614904703E+01  0.00000000000E+00 0. -1.
         24    2    1    2    0    0 -0.77827179253E+02 -0.19637757839E+02  0.95075316899E+03  0.95765125821E+03  0.81985563640E+02 0.  0.
        -13    1    3    3    0    0 -0.10359708007E+02 -0.64567904420E+01  0.14834255773E+02  0.19211164388E+02  0.00000000000E+00 0.  1.
         14    1    3    3    0    0 -0.67467471246E+02 -0.13180967397E+02  0.93591891322E+03  0.93844009382E+03  0.00000000000E+00 0. -1.
          3    1    1    2  501    0  0.77827179253E+02  0.19637757839E+02  0.28667688023E+03  0.29770177195E+03  0.00000000000E+00 0. -1.
<mgrwt>
<rscale>  1 0.11473598E+03</rscale>
<asrwt>0</asrwt>
<pdfrwt beam="1">  1       21 0.13786918E-02 0.11473598E+03</pdfrwt>
<pdfrwt beam="2">  1        4 0.19175241E+00 0.11473598E+03</pdfrwt>
<totfact> 0.14830417E+04</totfact>
</mgrwt>
</event>
<event>
 6    2  0.9453093E+000  0.1856885E+03  0.7546771E-02  0.1162408E+00
          2   -1    0    0  502    0 -0.00000000000E+00  0.00000000000E+00  0.15497287312E+03  0.15497287312E+03  0.00000000000E+00 0. -1.
         21   -1    0    0  501  502  0.00000000000E+00 -0.00000000000E+00 -0.29073179048E+03  0.29073179048E+03  0.00000000000E+00 0. -1.
         24    2    1    2    0    0 -0.16509265819E+03 -0.19457993241E+02  0.54047194702E+02  0.19339422095E+03  0.82740716415E+02 0.  0.
        -11    1    3    3    0    0 -0.46669755278E+02  0.18182153238E+02  0.47393931242E+02  0.68955358549E+02  0.00000000000E+00 0.  1.
         12    1    3    3    0    0 -0.11842290291E+03 -0.37640146479E+02  0.66532634597E+01  0.12443886240E+03  0.00000000000E+00 0. -1.
          1    1    1    2  501    0  0.16509265819E+03  0.19457993241E+02 -0.18980611207E+03  0.25231044265E+03  0.00000000000E+00 0. -1.
<mgrwt>
<rscale>  1 0.18568852E+03</rscale>
<asrwt>0</asrwt>
<pdfrwt beam="1">  1       21 0.44727968E-01 0.18568852E+03</pdfrwt>
<pdfrwt beam="2">  1        2 0.23841980E-01 0.18568852E+03</pdfrwt>
<totfact> 0.13374751E+04</totfact>
</mgrwt>
</event>
<event>
 6    2  0.9453093E+000  0.8772657E+02  0.7546771E-02  0.1308452E+00
         21   -1    0    0  501  502  0.00000000000E+00  0.00000000000E+00  0.22183264037E+03  0.22183264037E+03  0.00000000000E+00 0. -1.
          2   -1    0    0  502    0 -0.00000000000E+00 -0.00000000000E+00 -0.20519748652E+02  0.20519748652E+02  0.00000000000E+00 0. -1.
         24    2    1    2    0    0 -0.22613138954E+02 -0.25888777445E+02  0.18404747466E+03  0.20388581292E+03  0.80711640606E+02 0.  0.
        -13    1    3    3    0    0  0.59623254111E+01  0.26651611652E+02  0.69296467423E+02  0.74483945419E+02  0.00000000000E+00 0.  1.
         14    1    3    3    0    0 -0.28575464365E+02 -0.52540389096E+02  0.11475100724E+03  0.12940186750E+03  0.00000000000E+00 0. -1.
          1    1    1    2  501    0  0.22613138954E+02  0.25888777445E+02  0.17265417056E+02  0.38466576103E+02  0.00000000000E+00 0. -1.
<mgrwt>
<rscale>  1 0.87726574E+02</rscale>
<asrwt>0</asrwt>
<pdfrwt beam="1">  1       21 0.34128097E-01 0.87726574E+02</pdfrwt>
<pdfrwt beam="2">  1        2 0.31568846E-02 0.87726574E+02</pdfrwt>
<totfact> 0.27308565E+05</totfact>
</mgrwt>
</event>
<event>
 6    2  0.9453093E+000  0.9208669E+02  0.7546771E-02  0.1297876E+00
          2   -1    0    0  502    0 -0.00000000000E+00  0.00000000000E+00  0.13505826926E+03  0.13505826926E+03  0.00000000000E+00 0. -1.
         21   -1    0    0  501  502  0.00000000000E+00 -0.00000000000E+00 -0.34299219655E+02  0.34299219655E+02  0.00000000000E+00 0.  1.
         24    2    1    2    0    0  0.36307814575E+02 -0.23777756093E+02  0.75947938302E+02  0.11936518622E+03  0.81217727536E+02 0.  0.
        -11    1    3    3    0    0  0.28914507010E+00  0.27131443887E+02  0.10866244186E+02  0.29227968027E+02  0.00000000000E+00 0.  1.
         12    1    3    3    0    0  0.36018669505E+02 -0.50909199980E+02  0.65081694116E+02  0.90137218198E+02  0.00000000000E+00 0. -1.
          1    1    1    2  501    0 -0.36307814575E+02  0.23777756093E+02  0.24811111299E+02  0.49992302687E+02  0.00000000000E+00 0. -1.
<mgrwt>
<rscale>  1 0.92086689E+02</rscale>
<asrwt>0</asrwt>
<pdfrwt beam="1">  1       21 0.52768031E-02 0.92086689E+02</pdfrwt>
<pdfrwt beam="2">  1        2 0.20778195E-01 0.92086689E+02</pdfrwt>
<totfact> 0.74938921E+05</totfact>
</mgrwt>
</event>
<event>
 6    2  0.9453093E+000  0.7785414E+02  0.7546771E-02  0.1335254E+00
         21   -1    0    0  501  502  0.00000000000E+00  0.00000000000E+00  0.45666521138E+03  0.45666521138E+03  0.00000000000E+00 0.  1.
          2   -1    0    0  502    0 -0.00000000000E+00 -0.00000000000E+00 -0.19154206436E+02  0.19154206436E+02  0.00000000000E+00 0. -1.
         24    2    1    2    0    0  0.76874026102E+01 -0.19779629212E+02  0.61511724076E+02  0.99221768986E+02  0.74906190340E+02 0.  0.
        -11    1    3    3    0    0  0.23119771571E+02  0.10240832633E+02  0.60365376563E+02  0.65447514683E+02  0.00000000000E+00 0.  1.
         12    1    3    3    0    0 -0.15432368961E+02 -0.30020461845E+02  0.11463475126E+01  0.33774254303E+02  0.00000000000E+00 0. -1.
          1    1    1    2  501    0 -0.76874026102E+01  0.19779629212E+02  0.37599928087E+03  0.37659764883E+03  0.00000000000E+00 0. -1.
<mgrwt>
<rscale>  1 0.77854141E+02</rscale>
<asrwt>0</asrwt>
<pdfrwt beam="1">  1       21 0.70256178E-01 0.77854141E+02</pdfrwt>
<pdfrwt beam="2">  1        2 0.29468013E-02 0.77854141E+02</pdfrwt>
<totfact> 0.68324417E+04</totfact>
</mgrwt>
</event>
<event>
 6    2  0.9453093E+000  0.1394525E+03  0.7546771E-02  0.1214068E+00
          2   -1    0    0  502    0 -0.00000000000E+00  0.00000000000E+00  0.34142615861E+04  0.34142615861E+04  0.00000000000E+00 0. -1.
         21   -1    0    0  501  502  0.00000000000E+00 -0.00000000000E+00 -0.50055372103E+01  0.50055372103E+01  0.00000000000E+00 0. -1.
         24    2    1    2    0    0  0.76051755772E+02 -0.82509907573E+02  0.23365798468E+04  0.23407375739E+04  0.82796467505E+02 0.  0.
        -13    1    3    3    0    0  0.12676157714E+02  0.73097357068E+01  0.70987995375E+02  0.72480429758E+02  0.00000000000E+00 0.  1.
         14    1    3    3    0    0  0.63375598059E+02 -0.89819643280E+02  0.22655918514E+04  0.22682571442E+04  0.00000000000E+00 0. -1.
          1    1    1    2  501    0 -0.76051755772E+02  0.82509907573E+02  0.10726762021E+04  0.10785295494E+04  0.00000000000E+00 0. -1.
<mgrwt>
<rscale>  1 0.13945253E+03</rscale>
<asrwt>0</asrwt>
<pdfrwt beam="1">  1       21 0.77008538E-03 0.13945253E+03</pdfrwt>
<pdfrwt beam="2">  1        2 0.52526915E+00 0.13945253E+03</pdfrwt>
<totfact> 0.88535771E+04</totfact>
</mgrwt>
</event>
<event>
 6    2  0.9453093E+000  0.8347035E+02  0.7546771E-02  0.1319482E+00
         21   -1    0    0  501  502  0.00000000000E+00  0.00000000000E+00  0.77827554088E+03  0.77827554088E+03  0.00000000000E+00 0.  1.
         -3   -1    0    0    0  501 -0.00000000000E+00 -0.00000000000E+00 -0.59408229581E+01  0.59408229581E+01  0.00000000000E+00 0.  1.
         24    2    1    2    0    0  0.26508350517E+02  0.16731457840E+02  0.70521216839E+03  0.71013484803E+03  0.77360620562E+02 0.  0.
        -13    1    3    3    0    0  0.32411978538E+02  0.19590365307E+02  0.14438671148E+03  0.14927103275E+03  0.00000000000E+00 0.  1.
         14    1    3    3    0    0 -0.59036280208E+01 -0.28589074660E+01  0.56082545691E+03  0.56086381528E+03  0.00000000000E+00 0. -1.
         -4    1    1    2    0  502 -0.26508350517E+02 -0.16731457840E+02  0.67122549527E+02  0.74081515803E+02  0.00000000000E+00 0.  1.
<mgrwt>
<rscale>  1 0.83470354E+02</rscale>
<asrwt>0</asrwt>
<pdfrwt beam="1">  1       21 0.11973462E+00 0.83470354E+02</pdfrwt>
<pdfrwt beam="2">  1       -3 0.91397338E-03 0.83470354E+02</pdfrwt>
<totfact> 0.76476023E+04</totfact>
</mgrwt>
</event>
<event>
 6    2  0.9453093E+000  0.8548112E+02  0.7546771E-02  0.1314179E+00
         21   -1    0    0  501  502  0.00000000000E+00  0.00000000000E+00  0.14338947031E+02  0.14338947031E+02  0.00000000000E+00 0. -1.
         -3   -1    0    0    0  501 -0.00000000000E+00 -0.00000000000E+00 -0.23554759744E+03  0.23554759744E+03  0.00000000000E+00 0.  1.
         24    2    1    2    0    0  0.23899459452E+02  0.18395949360E+02 -0.17405514896E+03  0.19391290948E+03  0.79983913819E+02 0.  0.
        -13    1    3    3    0    0  0.12889695230E+02  0.40165605393E+02 -0.16061133124E+03  0.16605848314E+03  0.00000000000E+00 0.  1.
         14    1    3    3    0    0  0.11009764222E+02 -0.21769656034E+02 -0.13443817719E+02  0.27854426343E+02  0.00000000000E+00 0. -1.
         -4    1    1    2    0  502 -0.23899459452E+02 -0.18395949360E+02 -0.47153501452E+02  0.55973634992E+02  0.00000000000E+00 0.  1.
<mgrwt>
<rscale>  1 0.85481118E+02</rscale>
<asrwt>0</asrwt>
<pdfrwt beam="1">  1       21 0.22059920E-02 0.85481118E+02</pdfrwt>
<pdfrwt beam="2">  1       -3 0.36238089E-01 0.85481118E+02</pdfrwt>
<totfact> 0.34479657E+05</totfact>
</mgrwt>
</event>
<event>
 6    2  0.9453093E+000  0.8504297E+02  0.7546771E-02  0.1315320E+00
         21   -1    0    0  501  502  0.00000000000E+00  0.00000000000E+00  0.88881773395E+01  0.88881773395E+01  0.00000000000E+00 0.  1.
          2   -1    0    0  502    0 -0.00000000000E+00 -0.00000000000E+00 -0.44350124659E+03  0.44350124659E+03  0.00000000000E+00 0. -1.
         24    2    1    2    0    0  0.40341406723E+02 -0.61544157451E+00 -0.30587036149E+03  0.31747281018E+03  0.74863203909E+02 0.  0.
        -11    1    3    3    0    0  0.47010327857E+02 -0.21199778845E+02 -0.12365830369E+03  0.13398051209E+03  0.00000000000E+00 0.  1.
         12    1    3    3    0    0 -0.66689211340E+01  0.20584337271E+02 -0.18221205780E+03  0.18349229809E+03  0.00000000000E+00 0. -1.
          1    1    1    2  501    0 -0.40341406723E+02  0.61544157451E+00 -0.12874270776E+03  0.13491661375E+03  0.00000000000E+00 0. -1.
<mgrwt>
<rscale>  1 0.85042972E+02</rscale>
<asrwt>0</asrwt>
<pdfrwt beam="1">  1       21 0.13674117E-02 0.85042972E+02</pdfrwt>
<pdfrwt beam="2">  1        2 0.68230970E-01 0.85042972E+02</pdfrwt>
<totfact> 0.18694772E+06</totfact>
</mgrwt>
</event>
<event>
 6    2  0.9453093E+000  0.8723879E+02  0.7546771E-02  0.1309680E+00
         21   -1    0    0  501  502  0.00000000000E+00  0.00000000000E+00  0.20979356822E+02  0.20979356822E+02  0.00000000000E+00 0.  1.
          4   -1    0    0  502    0 -0.00000000000E+00 -0.00000000000E+00 -0.20905286481E+03  0.20905286481E+03  0.00000000000E+00 0. -1.
         24    2    1    2    0    0 -0.19864193768E+01 -0.30438734438E+02 -0.17744435559E+03  0.19772987966E+03  0.81732145227E+02 0.  0.
        -13    1    3    3    0    0 -0.29784386228E+02 -0.43504388592E+02 -0.82201295456E+02  0.97656512657E+02  0.00000000000E+00 0.  1.
         14    1    3    3    0    0  0.27797966851E+02  0.13065654154E+02 -0.95243060138E+02  0.10007336701E+03  0.00000000000E+00 0. -1.
          3    1    1    2  501    0  0.19864193768E+01  0.30438734438E+02 -0.10629152398E+02  0.32302341971E+02  0.00000000000E+00 0. -1.
<mgrwt>
<rscale>  1 0.87238787E+02</rscale>
<asrwt>0</asrwt>
<pdfrwt beam="1">  1       21 0.32275934E-02 0.87238787E+02</pdfrwt>
<pdfrwt beam="2">  1        4 0.32161978E-01 0.87238787E+02</pdfrwt>
<totfact> 0.19308029E+05</totfact>
</mgrwt>
</event>
<event>
 6    2  0.9453093E+000  0.8692412E+02  0.7546771E-02  0.1310476E+00
         -3   -1    0    0    0  501 -0.00000000000E+00  0.00000000000E+00  0.23038094064E+03  0.23038094064E+03  0.00000000000E+00 0.  1.
         21   -1    0    0  501  502  0.00000000000E+00 -0.00000000000E+00 -0.15160953379E+02  0.15160953379E+02  0.00000000000E+00 0. -1.
         24    2    1    2    0    0  0.20094290449E+02 -0.19692960397E+02  0.13532181963E+03  0.16083469014E+03  0.82244814347E+02 0.  0.
        -13    1    3    3    0    0 -0.25434597814E+02  0.15137686184E+02  0.45623436598E+02  0.54383511067E+02  0.00000000000E+00 0.  1.
         14    1    3    3    0    0  0.45528888262E+02 -0.34830646581E+02  0.89698383030E+02  0.10645117907E+03  0.00000000000E+00 0. -1.
         -4    1    1    2    0  502 -0.20094290449E+02  0.19692960397E+02  0.79898167630E+02  0.84707203876E+02  0.00000000000E+00 0.  1.
<mgrwt>
<rscale>  1 0.86924120E+02</rscale>
<asrwt>0</asrwt>
<pdfrwt beam="1">  1       21 0.23324545E-02 0.86924120E+02</pdfrwt>
<pdfrwt beam="2">  1       -3 0.35443219E-01 0.86924120E+02</pdfrwt>
<totfact> 0.32963302E+05</totfact>
</mgrwt>
</event>
<event>
 6    2  0.9453093E+000  0.1002305E+03  0.7546771E-02  0.1279812E+00
         21   -1    0    0  501  502  0.00000000000E+00  0.00000000000E+00  0.39408525095E+01  0.39408525095E+01  0.00000000000E+00 0. -1.
          2   -1    0    0  502    0 -0.00000000000E+00 -0.00000000000E+00 -0.15978558345E+04  0.15978558345E+04  0.00000000000E+00 0. -1.
         24    2    1    2    0    0  0.54490594345E+02  0.19433572975E+02 -0.94058686045E+03  0.94591215218E+03  0.81849062077E+02 0.  0.
        -13    1    3    3    0    0  0.71979312349E+00  0.54704621105E+01 -0.22929893376E+01  0.59751031744E+01  0.00000000000E+00 0.  1.
         14    1    3    3    0    0  0.53770801222E+02  0.13963110865E+02 -0.93829387111E+03  0.93993704901E+03  0.00000000000E+00 0. -1.
          1    1    1    2  501    0 -0.54490594345E+02 -0.19433572975E+02 -0.65332812150E+03  0.65588453478E+03  0.00000000000E+00 0. -1.
<mgrwt>
<rscale>  1 0.10023052E+03</rscale>
<asrwt>0</asrwt>
<pdfrwt beam="1">  1       21 0.60628405E-03 0.10023052E+03</pdfrwt>
<pdfrwt beam="2">  1        2 0.24582436E+00 0.10023052E+03</pdfrwt>
<totfact> 0.12478850E+06</totfact>
</mgrwt>
</event>
<event>
 6    2  0.9453093E+000  0.1223260E+03  0.7546771E-02  0.1239308E+00
         21   -1    0    0  501  502  0.00000000000E+00  0.00000000000E+00  0.62586756906E+01  0.62586756906E+01  0.00000000000E+00 0. -1.
          2   -1    0    0  502    0 -0.00000000000E+00 -0.00000000000E+00 -0.29892868976E+04  0.29892868976E+04  0.00000000000E+00 0. -1.
         24    2    1    2    0    0  0.59034797167E+02  0.66759406510E+02 -0.25747588178E+04  0.25776630156E+04  0.83795744946E+02 0.  0.
        -13    1    3    3    0    0  0.53565029212E+02  0.46995294329E+02 -0.91263660517E+03  0.91541430136E+03  0.00000000000E+00 0.  1.
         14    1    3    3    0    0  0.54697679544E+01  0.19764112181E+02 -0.16621222126E+04  0.16622487143E+04  0.00000000000E+00 0. -1.
          1    1    1    2  501    0 -0.59034797167E+02 -0.66759406510E+02 -0.40826940415E+03  0.41788255767E+03  0.00000000000E+00 0. -1.
<mgrwt>
<rscale>  1 0.12232601E+03</rscale>
<asrwt>0</asrwt>
<pdfrwt beam="1">  1       21 0.96287052E-03 0.12232601E+03</pdfrwt>
<pdfrwt beam="2">  1        2 0.45989156E+00 0.12232601E+03</pdfrwt>
<totfact> 0.11310539E+05</totfact>
</mgrwt>
</event>
<event>
 6    2  0.9453093E+000  0.8579356E+02  0.7546771E-02  0.1313370E+00
         21   -1    0    0  501  502  0.00000000000E+00  0.00000000000E+00  0.86480547167E+00  0.86480547167E+00  0.00000000000E+00 0.  1.
          2   -1    0    0  502    0 -0.00000000000E+00 -0.00000000000E+00 -0.37771032535E+04  0.37771032535E+04  0.00000000000E+00 0. -1.
         24    2    1    2    0    0 -0.11386989773E+02 -0.19294547062E+02 -0.33862142647E+04  0.33873009287E+04  0.82816617479E+02 0.  0.
        -11    1    3    3    0    0 -0.37480289987E+02 -0.44562491457E+01 -0.77898883156E+03  0.77990270547E+03  0.00000000000E+00 0.  1.
         12    1    3    3    0    0  0.26093300215E+02 -0.14838297916E+02 -0.26072254332E+04  0.26073982233E+04  0.00000000000E+00 0. -1.
          1    1    1    2  501    0  0.11386989773E+02  0.19294547062E+02 -0.39002418335E+03  0.39066713028E+03  0.00000000000E+00 0. -1.
<mgrwt>
<rscale>  1 0.85793562E+02</rscale>
<asrwt>0</asrwt>
<pdfrwt beam="1">  1       21 0.13304698E-03 0.85793562E+02</pdfrwt>
<pdfrwt beam="2">  1        2 0.58109286E+00 0.85793562E+02</pdfrwt>
<totfact> 0.74884468E+05</totfact>
</mgrwt>
</event>
<event>
 6    2  0.9453093E+000  0.1118958E+03  0.7546771E-02  0.1257099E+00
          2   -1    0    0  502    0 -0.00000000000E+00  0.00000000000E+00  0.26441761871E+04  0.26441761871E+04  0.00000000000E+00 0. -1.
         21   -1    0    0  501  502  0.00000000000E+00 -0.00000000000E+00 -0.12659922406E+02  0.12659922406E+02  0.00000000000E+00 0. -1.
         24    2    1    2    0    0  0.36467644836E+01  0.39298201327E+02  0.26089990054E+04  0.26113974202E+04  0.10470448180E+03 0.  0.
        -11    1    3    3    0    0  0.29184038509E+02  0.29977484686E+02  0.39102065633E+03  0.39325247789E+03  0.00000000000E+00 0.  1.
         12    1    3    3    0    0 -0.25537274026E+02  0.93207166403E+01  0.22179783491E+04  0.22181449423E+04  0.00000000000E+00 0. -1.
          1    1    1    2  501    0 -0.36467644836E+01 -0.39298201327E+02  0.22517259265E+02  0.45438689280E+02  0.00000000000E+00 0. -1.
<mgrwt>
<rscale>  1 0.11189583E+03</rscale>
<asrwt>0</asrwt>
<pdfrwt beam="1">  1       21 0.19476825E-02 0.11189583E+03</pdfrwt>
<pdfrwt beam="2">  1        2 0.40679590E+00 0.11189583E+03</pdfrwt>
<totfact> 0.57673067E+04</totfact>
</mgrwt>
</event>
<event>
 6    2  0.9453093E+000  0.1074602E+03  0.7546771E-02  0.1265347E+00
         -1   -1    0    0    0  501 -0.00000000000E+00  0.00000000000E+00  0.24039681282E+03  0.24039681282E+03  0.00000000000E+00 0.  1.
         21   -1    0    0  501  502  0.00000000000E+00 -0.00000000000E+00 -0.19989848470E+02  0.19989848470E+02  0.00000000000E+00 0. -1.
         24    2    1    2    0    0  0.14464046174E+02 -0.27118461134E+02  0.17970835743E+03  0.20938669883E+03  0.10297124040E+03 0.  0.
        -13    1    3    3    0    0 -0.43699737561E+02 -0.34492911008E+01  0.61345951404E+02  0.75398212351E+02  0.00000000000E+00 0.  1.
         14    1    3    3    0    0  0.58163783735E+02 -0.23669170033E+02  0.11836240602E+03  0.13398848648E+03  0.00000000000E+00 0. -1.
         -2    1    1    2    0  502 -0.14464046174E+02  0.27118461134E+02  0.40698606926E+02  0.50999962468E+02  0.00000000000E+00 0.  1.
<mgrwt>
<rscale>  1 0.10746021E+03</rscale>
<asrwt>0</asrwt>
<pdfrwt beam="1">  1       21 0.30753615E-02 0.10746021E+03</pdfrwt>
<pdfrwt beam="2">  1       -1 0.36984123E-01 0.10746021E+03</pdfrwt>
<totfact> 0.37827712E+05</totfact>
</mgrwt>
</event>
<event>
 6    2  0.9453093E+000  0.2021856E+03  0.7546771E-02  0.1147908E+00
         -1   -1    0    0    0  501 -0.00000000000E+00  0.00000000000E+00  0.96735895164E+02  0.96735895164E+02  0.00000000000E+00 0.  1.
         21   -1    0    0  501  502  0.00000000000E+00 -0.00000000000E+00 -0.39044761846E+03  0.39044761846E+03  0.00000000000E+00 0.  1.
         24    2    1    2    0    0 -0.13960367193E+03  0.12327265360E+03 -0.16188047900E+03  0.25900636903E+03  0.78699919809E+02 0.  0.
        -11    1    3    3    0    0 -0.48606788636E+02  0.50519126742E+02 -0.11230819761E+03  0.13239310148E+03  0.00000000000E+00 0.  1.
         12    1    3    3    0    0 -0.90996883290E+02  0.72753526858E+02 -0.49572281387E+02  0.12661326755E+03  0.00000000000E+00 0. -1.
         -2    1    1    2    0  502  0.13960367193E+03 -0.12327265360E+03 -0.13183124430E+03  0.22817714459E+03  0.00000000000E+00 0.  1.
<mgrwt>
<rscale>  1 0.20218558E+03</rscale>
<asrwt>0</asrwt>
<pdfrwt beam="1">  1       21 0.60068863E-01 0.20218558E+03</pdfrwt>
<pdfrwt beam="2">  1       -1 0.14882446E-01 0.20218558E+03</pdfrwt>
<totfact> 0.75636080E+03</totfact>
</mgrwt>
</event>
<event>
 6    2  0.1414440E+001  0.8492386E+02  0.7546771E-02  0.1315632E+00
         -3   -1    0    0    0  501 -0.00000000000E+00  0.00000000000E+00  0.37420958035E+03  0.37420958035E+03  0.00000000000E+00 0.  1.
         21   -1    0    0  501  502  0.00000000000E+00 -0.00000000000E+00 -0.95530315352E+01  0.95530315352E+01  0.00000000000E+00 0. -1.
         24    2    1    2    0    0 -0.22732228729E+02 -0.11596517720E+02  0.20214106294E+03  0.21925572268E+03  0.80998945400E+02 0.  0.
        -11    1    3    3    0    0 -0.12213689721E+01  0.13849643077E+02  0.17692302769E+03  0.17746848194E+03  0.00000000000E+00 0.  1.
         12    1    3    3    0    0 -0.21510859757E+02 -0.25446160798E+02  0.25218035250E+02  0.41787240740E+02  0.00000000000E+00 0. -1.
         -4    1    1    2    0  502  0.22732228729E+02  0.11596517720E+02  0.16251548588E+03  0.16450688920E+03  0.00000000000E+00 0.  1.
<mgrwt>
<rscale>  1 0.84923864E+02</rscale>
<asrwt>0</asrwt>
<pdfrwt beam="1">  1       21 0.14696974E-02 0.84923864E+02</pdfrwt>
<pdfrwt beam="2">  1       -3 0.57570693E-01 0.84923864E+02</pdfrwt>
<totfact> 0.26686517E+05</totfact>
</mgrwt>
</event>
<event>
 6    2  0.9453093E+000  0.8939937E+02  0.7546771E-02  0.1304313E+00
         21   -1    0    0  501  502  0.00000000000E+00  0.00000000000E+00  0.10117159129E+02  0.10117159129E+02  0.00000000000E+00 0. -1.
          2   -1    0    0  502    0 -0.00000000000E+00 -0.00000000000E+00 -0.13354144127E+04  0.13354144127E+04  0.00000000000E+00 0. -1.
         24    2    1    2    0    0 -0.25843797013E+02 -0.26510647623E+02 -0.12939084985E+04  0.12969932342E+04  0.81372787764E+02 0.  0.
        -11    1    3    3    0    0  0.12131559760E-01  0.27911253986E+02 -0.31595364316E+03  0.31718408358E+03  0.00000000000E+00 0.  1.
         12    1    3    3    0    0 -0.25855928573E+02 -0.54421901610E+02 -0.97795485536E+03  0.97980915057E+03  0.00000000000E+00 0. -1.
          1    1    1    2  501    0  0.25843797013E+02  0.26510647623E+02 -0.31388755043E+02  0.48538337679E+02  0.00000000000E+00 0. -1.
<mgrwt>
<rscale>  1 0.89399367E+02</rscale>
<asrwt>0</asrwt>
<pdfrwt beam="1">  1       21 0.15564866E-02 0.89399367E+02</pdfrwt>
<pdfrwt beam="2">  1        2 0.20544830E+00 0.89399367E+02</pdfrwt>
<totfact> 0.38763660E+05</totfact>
</mgrwt>
</event>
<event>
 6    2  0.9453093E+000  0.8483492E+02  0.7546771E-02  0.1315865E+00
         21   -1    0    0  501  502  0.00000000000E+00  0.00000000000E+00  0.15447485166E+01  0.15447485166E+01  0.00000000000E+00 0. -1.
         -1   -1    0    0    0  501 -0.00000000000E+00 -0.00000000000E+00 -0.18827462318E+04  0.18827462318E+04  0.00000000000E+00 0.  1.
         24    2    1    2    0    0  0.21536795398E+02  0.68680400915E+01 -0.14134744927E+04  0.14160180458E+04  0.81767724901E+02 0.  0.
        -11    1    3    3    0    0  0.28129272392E+02 -0.23734810499E+02 -0.11647363895E+04  0.11653177481E+04  0.00000000000E+00 0.  1.
         12    1    3    3    0    0 -0.65924769940E+01  0.30602850591E+02 -0.24873810324E+03  0.25070029761E+03  0.00000000000E+00 0. -1.
         -2    1    1    2    0  502 -0.21536795398E+02 -0.68680400915E+01 -0.46772699060E+03  0.46827293459E+03  0.00000000000E+00 0.  1.
<mgrwt>
<rscale>  1 0.84834924E+02</rscale>
<asrwt>0</asrwt>
<pdfrwt beam="1">  1       21 0.23765304E-03 0.84834924E+02</pdfrwt>
<pdfrwt beam="2">  1       -1 0.28965397E+00 0.84834924E+02</pdfrwt>
<totfact> 0.14610068E+05</totfact>
</mgrwt>
</event>
<event>
 6    2  0.9453093E+000  0.9072042E+02  0.7546771E-02  0.1301116E+00
         21   -1    0    0  501  502  0.00000000000E+00  0.00000000000E+00  0.76243605715E+01  0.76243605715E+01  0.00000000000E+00 0.  1.
         -3   -1    0    0    0  501 -0.00000000000E+00 -0.00000000000E+00 -0.93923626983E+03  0.93923626983E+03  0.00000000000E+00 0.  1.
         24    2    1    2    0    0  0.65636531869E+01  0.35836981876E+02 -0.87399754710E+03  0.87869329556E+03  0.83083238387E+02 0.  0.
        -13    1    3    3    0    0 -0.26919784106E+02  0.45424642177E+02 -0.63204773129E+03  0.63424948366E+03  0.00000000000E+00 0.  1.
         14    1    3    3    0    0  0.33483437292E+02 -0.95876603010E+01 -0.24194981581E+03  0.24444381190E+03  0.00000000000E+00 0. -1.
         -4    1    1    2    0  502 -0.65636531869E+01 -0.35836981876E+02 -0.57614362149E+02  0.68167334838E+02  0.00000000000E+00 0.  1.
<mgrwt>
<rscale>  1 0.90720424E+02</rscale>
<asrwt>0</asrwt>
<pdfrwt beam="1">  1       21 0.11729785E-02 0.90720424E+02</pdfrwt>
<pdfrwt beam="2">  1       -3 0.14449790E+00 0.90720424E+02</pdfrwt>
<totfact> 0.50198974E+04</totfact>
</mgrwt>
</event>
<event>
 6    2  0.9453093E+000  0.1111984E+03  0.7546771E-02  0.1258367E+00
          2   -1    0    0  502    0 -0.00000000000E+00  0.00000000000E+00  0.17200025706E+04  0.17200025706E+04  0.00000000000E+00 0. -1.
         21   -1    0    0  501  502  0.00000000000E+00 -0.00000000000E+00 -0.49738394979E+01  0.49738394979E+01  0.00000000000E+00 0. -1.
         24    2    1    2    0    0 -0.21536084045E+02 -0.70488065518E+02  0.10566319665E+04  0.10624670366E+04  0.83262962927E+02 0.  0.
        -13    1    3    3    0    0 -0.10761901495E+02 -0.14715123194E+02  0.36935594850E+02  0.41189701884E+02  0.00000000000E+00 0.  1.
         14    1    3    3    0    0 -0.10774182549E+02 -0.55772942324E+02  0.10196963716E+04  0.10212773347E+04  0.00000000000E+00 0. -1.
          1    1    1    2  501    0  0.21536084045E+02  0.70488065518E+02  0.65839676459E+03  0.66250937346E+03  0.00000000000E+00 0. -1.
<mgrwt>
<rscale>  1 0.11119843E+03</rscale>
<asrwt>0</asrwt>
<pdfrwt beam="1">  1       21 0.76520745E-03 0.11119843E+03</pdfrwt>
<pdfrwt beam="2">  1        2 0.26461531E+00 0.11119843E+03</pdfrwt>
<totfact> 0.75803616E+05</totfact>
</mgrwt>
</event>
<event>
 6    2  0.9453093E+000  0.8877445E+02  0.7546771E-02  0.1305847E+00
          2   -1    0    0  502    0 -0.00000000000E+00  0.00000000000E+00  0.15995935933E+04  0.15995935933E+04  0.00000000000E+00 0. -1.
         21   -1    0    0  501  502  0.00000000000E+00 -0.00000000000E+00 -0.26053139145E+01  0.26053139145E+01  0.00000000000E+00 0.  1.
         24    2    1    2    0    0  0.15764843869E+02 -0.34580527592E+02  0.96743479943E+03  0.97149935330E+03  0.80228169072E+02 0.  0.
        -13    1    3    3    0    0  0.31592217754E+02 -0.31884927348E+02  0.25748401849E+03  0.26136705338E+03  0.00000000000E+00 0.  1.
         14    1    3    3    0    0 -0.15827373885E+02 -0.26956002439E+01  0.70995078094E+03  0.71013229992E+03  0.00000000000E+00 0. -1.
          1    1    1    2  501    0 -0.15764843869E+02  0.34580527592E+02  0.62955347991E+03  0.63069955387E+03  0.00000000000E+00 0. -1.
<mgrwt>
<rscale>  1 0.88774446E+02</rscale>
<asrwt>0</asrwt>
<pdfrwt beam="1">  1       21 0.40081880E-03 0.88774446E+02</pdfrwt>
<pdfrwt beam="2">  1        2 0.24609054E+00 0.88774446E+02</pdfrwt>
<totfact> 0.23291765E+06</totfact>
</mgrwt>
</event>
<event>
 6    2  0.9453093E+000  0.8212907E+02  0.7546771E-02  0.1323116E+00
          2   -1    0    0  502    0 -0.00000000000E+00  0.00000000000E+00  0.69036778922E+03  0.69036778922E+03  0.00000000000E+00 0. -1.
         21   -1    0    0  501  502  0.00000000000E+00 -0.00000000000E+00 -0.34131364072E+02  0.34131364072E+02  0.00000000000E+00 0. -1.
         24    2    1    2    0    0  0.20523117654E+02 -0.11656207898E+02  0.68351253496E+03  0.68842905893E+03  0.78664592924E+02 0.  0.
        -13    1    3    3    0    0 -0.19297875544E+02  0.35564601778E+01  0.53655231800E+02  0.57130905026E+02  0.00000000000E+00 0.  1.
         14    1    3    3    0    0  0.39820993198E+02 -0.15212668076E+02  0.62985730316E+03  0.63129815390E+03  0.00000000000E+00 0. -1.
          1    1    1    2  501    0 -0.20523117654E+02  0.11656207898E+02 -0.27276109817E+02  0.36070094366E+02  0.00000000000E+00 0. -1.
<mgrwt>
<rscale>  1 0.82129067E+02</rscale>
<asrwt>0</asrwt>
<pdfrwt beam="1">  1       21 0.52509796E-02 0.82129067E+02</pdfrwt>
<pdfrwt beam="2">  1        2 0.10621042E+00 0.82129067E+02</pdfrwt>
<totfact> 0.13016559E+05</totfact>
</mgrwt>
</event>
<event>
 6    2  0.9453093E+000  0.8932595E+02  0.7546771E-02  0.1304492E+00
         21   -1    0    0  501  502  0.00000000000E+00  0.00000000000E+00  0.86785318278E+01  0.86785318278E+01  0.00000000000E+00 0. -1.
          2   -1    0    0  502    0 -0.00000000000E+00 -0.00000000000E+00 -0.64329390533E+03  0.64329390533E+03  0.00000000000E+00 0. -1.
         24    2    1    2    0    0  0.17820979497E+02 -0.29703875633E+02 -0.58304711571E+03  0.58985003581E+03  0.82336007106E+02 0.  0.
        -11    1    3    3    0    0  0.49568434072E+02 -0.67993827050E+01 -0.31026201685E+03  0.31427023461E+03  0.00000000000E+00 0.  1.
         12    1    3    3    0    0 -0.31747454575E+02 -0.22904492928E+02 -0.27278509886E+03  0.27557980120E+03  0.00000000000E+00 0. -1.
          1    1    1    2  501    0 -0.17820979497E+02  0.29703875633E+02 -0.51568257791E+02  0.62122401350E+02  0.00000000000E+00 0. -1.
<mgrwt>
<rscale>  1 0.89325951E+02</rscale>
<asrwt>0</asrwt>
<pdfrwt beam="1">  1       21 0.13351585E-02 0.89325951E+02</pdfrwt>
<pdfrwt beam="2">  1        2 0.98968314E-01 0.89325951E+02</pdfrwt>
<totfact> 0.12994618E+06</totfact>
</mgrwt>
</event>
<event>
 6    2  0.9938513E+000  0.8242734E+02  0.7546771E-02  0.1322301E+00
         21   -1    0    0  501  502  0.00000000000E+00  0.00000000000E+00  0.40959484223E+01  0.40959484223E+01  0.00000000000E+00 0.  1.
         -3   -1    0    0    0  501 -0.00000000000E+00 -0.00000000000E+00 -0.25246759280E+04  0.25246759280E+04  0.00000000000E+00 0.  1.
         24    2    1    2    0    0  0.47776336367E+01 -0.21577890811E+02 -0.24882213766E+04  0.24895862880E+04  0.79409288954E+02 0.  0.
        -11    1    3    3    0    0 -0.85108624586E+01 -0.37039771262E+01 -0.23046523539E+04  0.23046710452E+04  0.00000000000E+00 0.  1.
         12    1    3    3    0    0  0.13288496095E+02 -0.17873913685E+02 -0.18356902272E+03  0.18491524280E+03  0.00000000000E+00 0. -1.
         -4    1    1    2    0  502 -0.47776336367E+01  0.21577890811E+02 -0.32358602984E+02  0.39185588449E+02  0.00000000000E+00 0.  1.
<mgrwt>
<rscale>  1 0.82427340E+02</rscale>
<asrwt>0</asrwt>
<pdfrwt beam="1">  1       21 0.63014368E-03 0.82427340E+02</pdfrwt>
<pdfrwt beam="2">  1       -3 0.38841305E+00 0.82427340E+02</pdfrwt>
<totfact> 0.57970500E+03</totfact>
</mgrwt>
</event>
<event>
 6    2  0.9453093E+000  0.7241433E+02  0.7546771E-02  0.1352070E+00
          2   -1    0    0  502    0 -0.00000000000E+00  0.00000000000E+00  0.39532984111E+03  0.39532984111E+03  0.00000000000E+00 0. -1.
         21   -1    0    0  501  502  0.00000000000E+00 -0.00000000000E+00 -0.90351010838E+01  0.90351010838E+01  0.00000000000E+00 0.  1.
         24    2    1    2    0    0  0.28893156511E+02  0.10595661025E+02  0.34688488819E+03  0.35436275277E+03  0.65549617600E+02 0.  0.
        -11    1    3    3    0    0  0.17910781096E+02  0.19535675691E+02  0.45581495290E+02  0.52726761868E+02  0.00000000000E+00 0.  1.
         12    1    3    3    0    0  0.10982375415E+02 -0.89400146666E+01  0.30130339290E+03  0.30163599090E+03  0.00000000000E+00 0. -1.
          1    1    1    2  501    0 -0.28893156511E+02 -0.10595661025E+02  0.39409851831E+02  0.50002189423E+02  0.00000000000E+00 0. -1.
<mgrwt>
<rscale>  1 0.72414328E+02</rscale>
<asrwt>0</asrwt>
<pdfrwt beam="1">  1       21 0.13900159E-02 0.72414328E+02</pdfrwt>
<pdfrwt beam="2">  1        2 0.60819962E-01 0.72414328E+02</pdfrwt>
<totfact> 0.20160798E+06</totfact>
</mgrwt>
</event>
<event>
 6    2  0.9453093E+000  0.8766084E+02  0.7546771E-02  0.1308617E+00
         21   -1    0    0  501  502  0.00000000000E+00  0.00000000000E+00  0.15542412540E+02  0.15542412540E+02  0.00000000000E+00 0.  1.
          2   -1    0    0  502    0 -0.00000000000E+00 -0.00000000000E+00 -0.28805714918E+03  0.28805714918E+03  0.00000000000E+00 0. -1.
         24    2    1    2    0    0  0.45220747793E+02 -0.66066015213E+01 -0.19078397043E+03  0.20995939213E+03  0.74805479465E+02 0.  0.
        -13    1    3    3    0    0  0.51926358866E+02 -0.29219861807E+02 -0.10231070375E+03  0.11839606062E+03  0.00000000000E+00 0.  1.
         14    1    3    3    0    0 -0.67056110729E+01  0.22613260286E+02 -0.88473266679E+02  0.91563331511E+02  0.00000000000E+00 0. -1.
          1    1    1    2  501    0 -0.45220747793E+02  0.66066015213E+01 -0.81730766212E+02  0.93640169587E+02  0.00000000000E+00 0. -1.
<mgrwt>
<rscale>  1 0.87660841E+02</rscale>
<asrwt>0</asrwt>
<pdfrwt beam="1">  1       21 0.23911405E-02 0.87660841E+02</pdfrwt>
<pdfrwt beam="2">  1        2 0.44316483E-01 0.87660841E+02</pdfrwt>
<totfact> 0.12107866E+06</totfact>
</mgrwt>
</event>
<event>
 6    2  0.9453093E+000  0.8903297E+02  0.7546771E-02  0.1305211E+00
          2   -1    0    0  502    0 -0.00000000000E+00  0.00000000000E+00  0.21348814823E+03  0.21348814823E+03  0.00000000000E+00 0. -1.
         21   -1    0    0  501  502  0.00000000000E+00 -0.00000000000E+00 -0.27535726626E+02  0.27535726626E+02  0.00000000000E+00 0. -1.
         24    2    1    2    0    0  0.18873287087E+02 -0.28349811923E+02  0.18682501725E+03  0.20695520560E+03  0.82261517444E+02 0.  0.
        -11    1    3    3    0    0  0.91491691131E+01 -0.27563320587E+02  0.11305891374E+02  0.31165158703E+02  0.00000000000E+00 0.  1.
         12    1    3    3    0    0  0.97241179743E+01 -0.78649133630E+00  0.17551912588E+03  0.17579004690E+03  0.00000000000E+00 0. -1.
          1    1    1    2  501    0 -0.18873287087E+02  0.28349811923E+02 -0.87259565028E+00  0.34068669254E+02  0.00000000000E+00 0. -1.
<mgrwt>
<rscale>  1 0.89032972E+02</rscale>
<asrwt>0</asrwt>
<pdfrwt beam="1">  1       21 0.42362658E-02 0.89032972E+02</pdfrwt>
<pdfrwt beam="2">  1        2 0.32844329E-01 0.89032972E+02</pdfrwt>
<totfact> 0.65448338E+05</totfact>
</mgrwt>
</event>
<event>
 6    2  0.9453093E+000  0.7648752E+02  0.7546771E-02  0.1339326E+00
         21   -1    0    0  501  502  0.00000000000E+00  0.00000000000E+00  0.10582036641E+02  0.10582036641E+02  0.00000000000E+00 0. -1.
          2   -1    0    0  502    0 -0.00000000000E+00 -0.00000000000E+00 -0.79137192774E+03  0.79137192774E+03  0.00000000000E+00 0. -1.
         24    2    1    2    0    0 -0.10700437386E+02 -0.22402966548E+02 -0.77175170178E+03  0.77553273926E+03  0.72346030991E+02 0.  0.
        -11    1    3    3    0    0 -0.94274261597E+01 -0.34977315870E+02 -0.17811422565E+03  0.18176073934E+03  0.00000000000E+00 0.  1.
         12    1    3    3    0    0 -0.12730112262E+01  0.12574349322E+02 -0.59363747613E+03  0.59377199992E+03  0.00000000000E+00 0. -1.
          1    1    1    2  501    0  0.10700437386E+02  0.22402966548E+02 -0.90381893170E+01  0.26421225114E+02  0.00000000000E+00 0. -1.
<mgrwt>
<rscale>  1 0.76487518E+02</rscale>
<asrwt>0</asrwt>
<pdfrwt beam="1">  1       21 0.16280060E-02 0.76487518E+02</pdfrwt>
<pdfrwt beam="2">  1        2 0.12174950E+00 0.76487518E+02</pdfrwt>
<totfact> 0.73515801E+05</totfact>
</mgrwt>
</event>
<event>
 6    2  0.9453093E+000  0.9359227E+02  0.7546771E-02  0.1294378E+00
         -1   -1    0    0    0  501 -0.00000000000E+00  0.00000000000E+00  0.72275615103E+02  0.72275615103E+02  0.00000000000E+00 0.  1.
         21   -1    0    0  501  502  0.00000000000E+00 -0.00000000000E+00 -0.68506535615E+02  0.68506535615E+02  0.00000000000E+00 0. -1.
         24    2    1    2    0    0 -0.17336869180E+02 -0.40283380594E+02 -0.11606733761E+02  0.94309218617E+02  0.82681283629E+02 0.  0.
        -11    1    3    3    0    0 -0.20241563858E+02  0.95347562275E+01  0.24147328574E+02  0.32919993332E+02  0.00000000000E+00 0.  1.
         12    1    3    3    0    0  0.29046946778E+01 -0.49818136822E+02 -0.35754062335E+02  0.61389225284E+02  0.00000000000E+00 0. -1.
         -2    1    1    2    0  502  0.17336869180E+02  0.40283380594E+02  0.15375813249E+02  0.46472932102E+02  0.00000000000E+00 0.  1.
<mgrwt>
<rscale>  1 0.93592267E+02</rscale>
<asrwt>0</asrwt>
<pdfrwt beam="1">  1       21 0.10539467E-01 0.93592267E+02</pdfrwt>
<pdfrwt beam="2">  1       -1 0.11119325E-01 0.93592267E+02</pdfrwt>
<totfact> 0.32274858E+05</totfact>
</mgrwt>
</event>
<event>
 6    2  0.9453093E+000  0.8772546E+02  0.7546771E-02  0.1308455E+00
         -1   -1    0    0    0  501 -0.00000000000E+00  0.00000000000E+00  0.28501722208E+03  0.28501722208E+03  0.00000000000E+00 0.  1.
         21   -1    0    0  501  502  0.00000000000E+00 -0.00000000000E+00 -0.11483663823E+02  0.11483663823E+02  0.00000000000E+00 0. -1.
         24    2    1    2    0    0 -0.13156181981E+02 -0.17850855832E+02  0.24584013471E+03  0.26102323257E+03  0.84876486311E+02 0.  0.
        -11    1    3    3    0    0  0.91286917552E+01  0.17069547053E+02  0.19257605475E+03  0.19354647843E+03  0.00000000000E+00 0.  1.
         12    1    3    3    0    0 -0.22284873736E+02 -0.34920402885E+02  0.53264079959E+02  0.67476754138E+02  0.00000000000E+00 0. -1.
         -2    1    1    2    0  502  0.13156181981E+02  0.17850855832E+02  0.27693423541E+02  0.35477653329E+02  0.00000000000E+00 0.  1.
<mgrwt>
<rscale>  1 0.87725459E+02</rscale>
<asrwt>0</asrwt>
<pdfrwt beam="1">  1       21 0.17667177E-02 0.87725459E+02</pdfrwt>
<pdfrwt beam="2">  1       -1 0.43848798E-01 0.87725459E+02</pdfrwt>
<totfact> 0.67339405E+05</totfact>
</mgrwt>
</event>
<event>
 6    2  0.9453093E+000  0.1467342E+03  0.7546771E-02  0.1204544E+00
         21   -1    0    0  501  502  0.00000000000E+00  0.00000000000E+00  0.52547213645E+02  0.52547213645E+02  0.00000000000E+00 0. -1.
          2   -1    0    0  502    0 -0.00000000000E+00 -0.00000000000E+00 -0.68985942798E+03  0.68985942798E+03  0.00000000000E+00 0. -1.
         24    2    1    2    0    0  0.11776630231E+03 -0.32395041748E+02 -0.59549349746E+03  0.61330534120E+03  0.81317866078E+02 0.  0.
        -13    1    3    3    0    0  0.72928989756E+01 -0.16251425708E+02 -0.18778884482E+02  0.25883232321E+02  0.00000000000E+00 0.  1.
         14    1    3    3    0    0  0.11047340334E+03 -0.16143616040E+02 -0.57671461297E+03  0.58742210888E+03  0.00000000000E+00 0. -1.
          1    1    1    2  501    0 -0.11776630231E+03  0.32395041748E+02 -0.41818716880E+02  0.12910130042E+03  0.00000000000E+00 0. -1.
<mgrwt>
<rscale>  1 0.14673424E+03</rscale>
<asrwt>0</asrwt>
<pdfrwt beam="1">  1       21 0.80841878E-02 0.14673424E+03</pdfrwt>
<pdfrwt beam="2">  1        2 0.10613221E+00 0.14673424E+03</pdfrwt>
<totfact> 0.63445213E+04</totfact>
</mgrwt>
</event>
<event>
 6    2  0.9453093E+000  0.1279491E+03  0.7546771E-02  0.1230531E+00
         21   -1    0    0  501  502  0.00000000000E+00  0.00000000000E+00  0.24013551563E+02  0.24013551563E+02  0.00000000000E+00 0. -1.
          2   -1    0    0  502    0 -0.00000000000E+00 -0.00000000000E+00 -0.55351714461E+03  0.55351714461E+03  0.00000000000E+00 0. -1.
         24    2    1    2    0    0  0.50261267230E+02  0.87268754931E+02 -0.33273800505E+03  0.35649059305E+03  0.78923585537E+02 0.  0.
        -13    1    3    3    0    0  0.23074652028E+02  0.25658143877E+02 -0.28109963230E+02  0.44507863869E+02  0.00000000000E+00 0.  1.
         14    1    3    3    0    0  0.27186615203E+02  0.61610611054E+02 -0.30462804182E+03  0.31198272918E+03  0.00000000000E+00 0. -1.
          1    1    1    2  501    0 -0.50261267230E+02 -0.87268754931E+02 -0.19676558799E+03  0.22104010312E+03  0.00000000000E+00 0. -1.
<mgrwt>
<rscale>  1 0.12794906E+03</rscale>
<asrwt>0</asrwt>
<pdfrwt beam="1">  1       21 0.36943929E-02 0.12794906E+03</pdfrwt>
<pdfrwt beam="2">  1        2 0.85156476E-01 0.12794906E+03</pdfrwt>
<totfact> 0.30582997E+05</totfact>
</mgrwt>
</event>
<event>
 6    2  0.9453093E+000  0.1025135E+03  0.7546771E-02  0.1275097E+00
         21   -1    0    0  501  502  0.00000000000E+00  0.00000000000E+00  0.91528558845E+01  0.91528558845E+01  0.00000000000E+00 0. -1.
          2   -1    0    0  502    0 -0.00000000000E+00 -0.00000000000E+00 -0.60323041978E+03  0.60323041978E+03  0.00000000000E+00 0. -1.
         24    2    1    2    0    0 -0.32417715499E+02  0.31276875523E+02 -0.37756745787E+03  0.39123676940E+03  0.92086227361E+02 0.  0.
        -11    1    3    3    0    0  0.98888827178E+01 -0.27016389347E+02 -0.78135222218E+02  0.83263366770E+02  0.00000000000E+00 0.  1.
         12    1    3    3    0    0 -0.42306598217E+02  0.58293264870E+02 -0.29943223565E+03  0.30797340263E+03  0.00000000000E+00 0. -1.
          1    1    1    2  501    0  0.32417715499E+02 -0.31276875523E+02 -0.21651010602E+03  0.22114650626E+03  0.00000000000E+00 0. -1.
<mgrwt>
<rscale>  1 0.10251353E+03</rscale>
<asrwt>0</asrwt>
<pdfrwt beam="1">  1       21 0.14081319E-02 0.10251353E+03</pdfrwt>
<pdfrwt beam="2">  1        2 0.92804664E-01 0.10251353E+03</pdfrwt>
<totfact> 0.13016263E+06</totfact>
</mgrwt>
</event>
<event>
 6    2  0.9453093E+000  0.8177530E+02  0.7546771E-02  0.1324088E+00
         -1   -1    0    0    0  501 -0.00000000000E+00  0.00000000000E+00  0.18461231411E+03  0.18461231411E+03  0.00000000000E+00 0.  1.
         21   -1    0    0  501  502  0.00000000000E+00 -0.00000000000E+00 -0.15824185228E+02  0.15824185228E+02  0.00000000000E+00 0. -1.
         24    2    1    2    0    0 -0.13179233018E+02 -0.16083559103E+02  0.10344004791E+03  0.13185993816E+03  0.79087462492E+02 0.  0.
        -11    1    3    3    0    0 -0.26998712433E+02 -0.28934569116E+02  0.10568886074E+03  0.11285510644E+03  0.00000000000E+00 0.  1.
         12    1    3    3    0    0  0.13819479415E+02  0.12851010013E+02 -0.22488128360E+01  0.19004831723E+02  0.00000000000E+00 0. -1.
         -2    1    1    2    0  502  0.13179233018E+02  0.16083559103E+02  0.65348080978E+02  0.68576561185E+02  0.00000000000E+00 0.  1.
<mgrwt>
<rscale>  1 0.81775301E+02</rscale>
<asrwt>0</asrwt>
<pdfrwt beam="1">  1       21 0.24344902E-02 0.81775301E+02</pdfrwt>
<pdfrwt beam="2">  1       -1 0.28401893E-01 0.81775301E+02</pdfrwt>
<totfact> 0.83621745E+05</totfact>
</mgrwt>
</event>
<event>
 6    2  0.9453093E+000  0.8568041E+02  0.7546771E-02  0.1313663E+00
          4   -1    0    0  502    0 -0.00000000000E+00  0.00000000000E+00  0.38917986059E+02  0.38917986059E+02  0.00000000000E+00 0. -1.
         21   -1    0    0  501  502  0.00000000000E+00 -0.00000000000E+00 -0.90991502355E+02  0.90991502355E+02  0.00000000000E+00 0. -1.
         24    2    1    2    0    0  0.25260464270E+02  0.16235850961E+02 -0.24431616031E+02  0.89095660343E+02  0.80246114663E+02 0.  0.
        -11    1    3    3    0    0  0.39456015539E+02 -0.72240454820E+01  0.13471779404E+02  0.42313742870E+02  0.00000000000E+00 0.  1.
         12    1    3    3    0    0 -0.14195551269E+02  0.23459896443E+02 -0.37903395435E+02  0.46781917473E+02  0.00000000000E+00 0. -1.
          3    1    1    2  501    0 -0.25260464270E+02 -0.16235850961E+02 -0.27641900265E+02  0.40813828071E+02  0.00000000000E+00 0. -1.
<mgrwt>
<rscale>  1 0.85680411E+02</rscale>
<asrwt>0</asrwt>
<pdfrwt beam="1">  1       21 0.13998693E-01 0.85680411E+02</pdfrwt>
<pdfrwt beam="2">  1        4 0.59873825E-02 0.85680411E+02</pdfrwt>
<totfact> 0.29260503E+05</totfact>
</mgrwt>
</event>
<event>
 6    2  0.9453093E+000  0.9793868E+02  0.7546771E-02  0.1284691E+00
         21   -1    0    0  501  502  0.00000000000E+00  0.00000000000E+00  0.18975093796E+03  0.18975093796E+03  0.00000000000E+00 0. -1.
          2   -1    0    0  502    0 -0.00000000000E+00 -0.00000000000E+00 -0.30908893595E+02  0.30908893595E+02  0.00000000000E+00 0. -1.
         24    2    1    2    0    0 -0.38255804022E+01 -0.54460265100E+02  0.11141638341E+03  0.14834282901E+03  0.81310693556E+02 0.  0.
        -11    1    3    3    0    0  0.62710346001E+01 -0.15172084093E+02  0.10617975945E+03  0.10744142278E+03  0.00000000000E+00 0.  1.
         12    1    3    3    0    0 -0.10096615002E+02 -0.39288181007E+02  0.52366239551E+01  0.40901406233E+02  0.00000000000E+00 0. -1.
          1    1    1    2  501    0  0.38255804022E+01  0.54460265100E+02  0.47425660958E+02  0.72317002548E+02  0.00000000000E+00 0. -1.
<mgrwt>
<rscale>  1 0.97938677E+02</rscale>
<asrwt>0</asrwt>
<pdfrwt beam="1">  1       21 0.29192451E-01 0.97938677E+02</pdfrwt>
<pdfrwt beam="2">  1        2 0.47552145E-02 0.97938677E+02</pdfrwt>
<totfact> 0.21733983E+05</totfact>
</mgrwt>
</event>
<event>
 6    2  0.9453093E+000  0.9476583E+02  0.7546771E-02  0.1291704E+00
          2   -1    0    0  502    0 -0.00000000000E+00  0.00000000000E+00  0.72161958721E+03  0.72161958721E+03  0.00000000000E+00 0. -1.
         21   -1    0    0  501  502  0.00000000000E+00 -0.00000000000E+00 -0.85198046123E+01  0.85198046123E+01  0.00000000000E+00 0. -1.
         24    2    1    2    0    0  0.44943916989E+02  0.13298065985E+02  0.60412706520E+03  0.61151457414E+03  0.82363640312E+02 0.  0.
        -13    1    3    3    0    0 -0.17840848430E+02  0.22848559196E+02  0.13272163045E+03  0.13585059337E+03  0.00000000000E+00 0.  1.
         14    1    3    3    0    0  0.62784765418E+02 -0.95504932106E+01  0.47140543475E+03  0.47566398076E+03  0.00000000000E+00 0. -1.
          1    1    1    2  501    0 -0.44943916989E+02 -0.13298065985E+02  0.10897271741E+03  0.11862481769E+03  0.00000000000E+00 0. -1.
<mgrwt>
<rscale>  1 0.94765835E+02</rscale>
<asrwt>0</asrwt>
<pdfrwt beam="1">  1       21 0.13107397E-02 0.94765835E+02</pdfrwt>
<pdfrwt beam="2">  1        2 0.11101835E+00 0.94765835E+02</pdfrwt>
<totfact> 0.11775957E+06</totfact>
</mgrwt>
</event>
<event>
 6    2  0.9453093E+000  0.9630155E+02  0.7546771E-02  0.1288271E+00
         -1   -1    0    0    0  501 -0.00000000000E+00  0.00000000000E+00  0.10010397671E+04  0.10010397671E+04  0.00000000000E+00 0.  1.
         21   -1    0    0  501  502  0.00000000000E+00 -0.00000000000E+00 -0.55995006476E+01  0.55995006476E+01  0.00000000000E+00 0. -1.
         24    2    1    2    0    0 -0.23247438243E+02  0.47884842586E+02  0.66597779557E+03  0.67290446098E+03  0.80253273259E+02 0.  0.
        -11    1    3    3    0    0  0.15659779266E+02  0.29560366973E+02  0.51030738549E+03  0.51140265121E+03  0.00000000000E+00 0.  1.
         12    1    3    3    0    0 -0.38907217509E+02  0.18324475613E+02  0.15567041008E+03  0.16150180976E+03  0.00000000000E+00 0. -1.
         -2    1    1    2    0  502  0.23247438243E+02 -0.47884842586E+02  0.32946247092E+03  0.33373480682E+03  0.00000000000E+00 0.  1.
<mgrwt>
<rscale>  1 0.96301555E+02</rscale>
<asrwt>0</asrwt>
<pdfrwt beam="1">  1       21 0.86146244E-03 0.96301555E+02</pdfrwt>
<pdfrwt beam="2">  1       -1 0.15400598E+00 0.96301555E+02</pdfrwt>
<totfact> 0.15285484E+05</totfact>
</mgrwt>
</event>
<event>
 6    2  0.9453093E+000  0.8279025E+02  0.7546771E-02  0.1321315E+00
         21   -1    0    0  501  502  0.00000000000E+00  0.00000000000E+00  0.40662428795E+03  0.40662428795E+03  0.00000000000E+00 0. -1.
         -3   -1    0    0    0  501 -0.00000000000E+00 -0.00000000000E+00 -0.70030905835E+01  0.70030905835E+01  0.00000000000E+00 0.  1.
         24    2    1    2    0    0  0.15141808352E+01 -0.21659478637E+02  0.27733631712E+03  0.28942988381E+03  0.79892421986E+02 0.  0.
        -13    1    3    3    0    0 -0.96229984739E+01  0.27191109346E+02  0.62596546176E+02  0.68922319464E+02  0.00000000000E+00 0.  1.
         14    1    3    3    0    0  0.11137179309E+02 -0.48850587983E+02  0.21473977094E+03  0.22050756435E+03  0.00000000000E+00 0. -1.
         -4    1    1    2    0  502 -0.15141808352E+01  0.21659478637E+02  0.12228488025E+03  0.12419749473E+03  0.00000000000E+00 0.  1.
<mgrwt>
<rscale>  1 0.82790246E+02</rscale>
<asrwt>0</asrwt>
<pdfrwt beam="1">  1       21 0.62557564E-01 0.82790246E+02</pdfrwt>
<pdfrwt beam="2">  1       -3 0.10773989E-02 0.82790246E+02</pdfrwt>
<totfact> 0.25698146E+05</totfact>
</mgrwt>
</event>
<event>
 6    2  0.9453093E+000  0.1314922E+03  0.7546771E-02  0.1225258E+00
         -3   -1    0    0    0  501 -0.00000000000E+00  0.00000000000E+00  0.72499825842E+02  0.72499825842E+02  0.00000000000E+00 0.  1.
         21   -1    0    0  501  502  0.00000000000E+00 -0.00000000000E+00 -0.85551912561E+03  0.85551912561E+03  0.00000000000E+00 0.  1.
         24    2    1    2    0    0 -0.59610512848E+02 -0.84380172479E+02  0.66115120482E+01  0.13165832603E+03  0.81343567492E+02 0.  0.
        -13    1    3    3    0    0 -0.39730293160E+02 -0.39063576490E+02  0.42877935359E+02  0.70306305147E+02  0.00000000000E+00 0.  1.
         14    1    3    3    0    0 -0.19880219688E+02 -0.45316595989E+02 -0.36266423311E+02  0.61352020885E+02  0.00000000000E+00 0. -1.
         -4    1    1    2    0  502  0.59610512848E+02  0.84380172479E+02 -0.78963081182E+03  0.79636062542E+03  0.00000000000E+00 0.  1.
<mgrwt>
<rscale>  1 0.13149222E+03</rscale>
<asrwt>0</asrwt>
<pdfrwt beam="1">  1       21 0.13161833E+00 0.13149222E+03</pdfrwt>
<pdfrwt beam="2">  1       -3 0.11153819E-01 0.13149222E+03</pdfrwt>
<totfact> 0.12793434E+03</totfact>
</mgrwt>
</event>
<event>
 6    2  0.9453093E+000  0.9728142E+02  0.7546771E-02  0.1286119E+00
         -1   -1    0    0    0  501 -0.00000000000E+00  0.00000000000E+00  0.40111817355E+02  0.40111817355E+02  0.00000000000E+00 0.  1.
         21   -1    0    0  501  502  0.00000000000E+00 -0.00000000000E+00 -0.14705067436E+03  0.14705067436E+03  0.00000000000E+00 0. -1.
         24    2    1    2    0    0 -0.50576857843E+01  0.56010076245E+02 -0.70723815987E+02  0.12027274645E+03  0.79378627875E+02 0.  0.
        -11    1    3    3    0    0  0.41750520852E+01  0.18393255828E+02  0.16357216313E+02  0.24966005796E+02  0.00000000000E+00 0.  1.
         12    1    3    3    0    0 -0.92327378695E+01  0.37616820416E+02 -0.87081032300E+02  0.95306740650E+02  0.00000000000E+00 0. -1.
         -2    1    1    2    0  502  0.50576857843E+01 -0.56010076245E+02 -0.36215041022E+02  0.66889745273E+02  0.00000000000E+00 0.  1.
<mgrwt>
<rscale>  1 0.97281424E+02</rscale>
<asrwt>0</asrwt>
<pdfrwt beam="1">  1       21 0.22623181E-01 0.97281424E+02</pdfrwt>
<pdfrwt beam="2">  1       -1 0.61710488E-02 0.97281424E+02</pdfrwt>
<totfact> 0.19863411E+05</totfact>
</mgrwt>
</event>
<event>
 6    2  0.9453093E+000  0.8356832E+02  0.7546771E-02  0.1319220E+00
         21   -1    0    0  501  502  0.00000000000E+00  0.00000000000E+00  0.27681836891E+02  0.27681836891E+02  0.00000000000E+00 0.  1.
          2   -1    0    0  502    0 -0.00000000000E+00 -0.00000000000E+00 -0.99439387920E+02  0.99439387920E+02  0.00000000000E+00 0. -1.
         24    2    1    2    0    0 -0.13686447582E+02 -0.14625328235E+02 -0.49291081647E+02  0.97022033462E+02  0.81132269621E+02 0.  0.
        -11    1    3    3    0    0 -0.47078133850E+02 -0.79481253051E+00 -0.32198835360E+02  0.57041628766E+02  0.00000000000E+00 0.  1.
         12    1    3    3    0    0  0.33391686269E+02 -0.13830515705E+02 -0.17092246287E+02  0.39980404696E+02  0.00000000000E+00 0. -1.
          1    1    1    2  501    0  0.13686447582E+02  0.14625328235E+02 -0.22466469382E+02  0.30099191350E+02  0.00000000000E+00 0. -1.
<mgrwt>
<rscale>  1 0.83568321E+02</rscale>
<asrwt>0</asrwt>
<pdfrwt beam="1">  1       21 0.42587441E-02 0.83568321E+02</pdfrwt>
<pdfrwt beam="2">  1        2 0.15298368E-01 0.83568321E+02</pdfrwt>
<totfact> 0.14952293E+06</totfact>
</mgrwt>
</event>
<event>
 6    2  0.9453093E+000  0.8481331E+02  0.7546771E-02  0.1315921E+00
         21   -1    0    0  501  502  0.00000000000E+00  0.00000000000E+00  0.63715051320E+01  0.63715051320E+01  0.00000000000E+00 0.  1.
          2   -1    0    0  502    0 -0.00000000000E+00 -0.00000000000E+00 -0.65335928503E+03  0.65335928503E+03  0.00000000000E+00 0. -1.
         24    2    1    2    0    0  0.21165004830E+02  0.21779562286E+02 -0.58015234529E+03  0.58631906029E+03  0.79189582381E+02 0.  0.
        -11    1    3    3    0    0  0.90136496727E+01 -0.76027510784E+01 -0.10527395003E+02  0.15807395419E+02  0.00000000000E+00 0.  1.
         12    1    3    3    0    0  0.12151355158E+02  0.29382313364E+02 -0.56962495028E+03  0.57051166487E+03  0.00000000000E+00 0. -1.
          1    1    1    2  501    0 -0.21165004830E+02 -0.21779562286E+02 -0.66835434616E+02  0.73411729875E+02  0.00000000000E+00 0. -1.
<mgrwt>
<rscale>  1 0.84813305E+02</rscale>
<asrwt>0</asrwt>
<pdfrwt beam="1">  1       21 0.98023161E-03 0.84813305E+02</pdfrwt>
<pdfrwt beam="2">  1        2 0.10051681E+00 0.84813305E+02</pdfrwt>
<totfact> 0.20613873E+06</totfact>
</mgrwt>
</event>
<event>
 6    2  0.9453093E+000  0.1113528E+03  0.7546771E-02  0.1258085E+00
          2   -1    0    0  502    0 -0.00000000000E+00  0.00000000000E+00  0.65079438882E+03  0.65079438882E+03  0.00000000000E+00 0. -1.
         21   -1    0    0  501  502  0.00000000000E+00 -0.00000000000E+00 -0.54230150302E+02  0.54230150302E+02  0.00000000000E+00 0. -1.
         24    2    1    2    0    0 -0.58344943943E+02 -0.50688301959E+02  0.61546652981E+03  0.62545863527E+03  0.80162451826E+02 0.  0.
        -11    1    3    3    0    0  0.16180620084E+02 -0.68191517181E+01  0.42218627599E+02  0.45724455304E+02  0.00000000000E+00 0.  1.
         12    1    3    3    0    0 -0.74525564027E+02 -0.43869150241E+02  0.57324790221E+03  0.57973417997E+03  0.00000000000E+00 0. -1.
          1    1    1    2  501    0  0.58344943943E+02  0.50688301959E+02 -0.18902291292E+02  0.79565903849E+02  0.00000000000E+00 0. -1.
<mgrwt>
<rscale>  1 0.11135284E+03</rscale>
<asrwt>0</asrwt>
<pdfrwt beam="1">  1       21 0.83431005E-02 0.11135284E+03</pdfrwt>
<pdfrwt beam="2">  1        2 0.10012221E+00 0.11135284E+03</pdfrwt>
<totfact> 0.64157075E+04</totfact>
</mgrwt>
</event>
<event>
 6    2  0.9453093E+000  0.8393801E+02  0.7546771E-02  0.1318233E+00
         21   -1    0    0  501  502  0.00000000000E+00  0.00000000000E+00  0.89715509105E+01  0.89715509105E+01  0.00000000000E+00 0.  1.
          2   -1    0    0  502    0 -0.00000000000E+00 -0.00000000000E+00 -0.30392922346E+03  0.30392922346E+03  0.00000000000E+00 0. -1.
         24    2    1    2    0    0  0.87421146529E+01  0.18221057509E+02 -0.22802173623E+03  0.24298045489E+03  0.81468753272E+02 0.  0.
        -11    1    3    3    0    0  0.31677981174E+02 -0.18573136315E+02 -0.69110789150E+02  0.78260827116E+02  0.00000000000E+00 0.  1.
         12    1    3    3    0    0 -0.22935866521E+02  0.36794193824E+02 -0.15891094708E+03  0.16471962777E+03  0.00000000000E+00 0. -1.
          1    1    1    2  501    0 -0.87421146529E+01 -0.18221057509E+02 -0.66935936326E+02  0.69920319487E+02  0.00000000000E+00 0. -1.
<mgrwt>
<rscale>  1 0.83938008E+02</rscale>
<asrwt>0</asrwt>
<pdfrwt beam="1">  1       21 0.13802388E-02 0.83938008E+02</pdfrwt>
<pdfrwt beam="2">  1        2 0.46758336E-01 0.83938008E+02</pdfrwt>
<totfact> 0.27321719E+06</totfact>
</mgrwt>
</event>
<event>
 6    2  0.9453093E+000  0.8304310E+02  0.7546771E-02  0.1320631E+00
          2   -1    0    0  502    0 -0.00000000000E+00  0.00000000000E+00  0.19018926015E+04  0.19018926015E+04  0.00000000000E+00 0. -1.
         21   -1    0    0  501  502  0.00000000000E+00 -0.00000000000E+00 -0.11461228573E+02  0.11461228573E+02  0.00000000000E+00 0. -1.
         24    2    1    2    0    0 -0.17841480074E+02 -0.90703326443E+01  0.18914891057E+04  0.18933111720E+04  0.80595084521E+02 0.  0.
        -11    1    3    3    0    0  0.29609522318E+02  0.53573050123E+01  0.99156373826E+03  0.99202019716E+03  0.00000000000E+00 0.  1.
         12    1    3    3    0    0 -0.47451002392E+02 -0.14427637657E+02  0.89992536746E+03  0.90129097485E+03  0.00000000000E+00 0. -1.
          1    1    1    2  501    0  0.17841480074E+02  0.90703326443E+01 -0.10577327479E+01  0.20042658109E+02  0.00000000000E+00 0. -1.
<mgrwt>
<rscale>  1 0.83043103E+02</rscale>
<asrwt>0</asrwt>
<pdfrwt beam="1">  1       21 0.17632674E-02 0.83043103E+02</pdfrwt>
<pdfrwt beam="2">  1        2 0.29259861E+00 0.83043103E+02</pdfrwt>
<totfact> 0.16393587E+05</totfact>
</mgrwt>
</event>
<event>
 6    2  0.9453093E+000  0.8223669E+02  0.7546771E-02  0.1322821E+00
         21   -1    0    0  501  502  0.00000000000E+00  0.00000000000E+00  0.65650962747E+03  0.65650962747E+03  0.00000000000E+00 0. -1.
          2   -1    0    0  502    0 -0.00000000000E+00 -0.00000000000E+00 -0.49253970556E+02  0.49253970556E+02  0.00000000000E+00 0. -1.
         24    2    1    2    0    0  0.16433389281E+02  0.18788442361E+02 -0.14501588698E+02  0.83505505013E+02  0.78356948914E+02 0.  0.
        -11    1    3    3    0    0  0.66206361484E+01  0.28558747140E+02  0.26938205865E+02  0.39813336917E+02  0.00000000000E+00 0.  1.
         12    1    3    3    0    0  0.98127531326E+01 -0.97703047795E+01 -0.41439794563E+02  0.43692168096E+02  0.00000000000E+00 0. -1.
          1    1    1    2  501    0 -0.16433389281E+02 -0.18788442361E+02  0.62175724562E+03  0.62225809302E+03  0.00000000000E+00 0. -1.
<mgrwt>
<rscale>  1 0.82236691E+02</rscale>
<asrwt>0</asrwt>
<pdfrwt beam="1">  1       21 0.10100147E+00 0.82236691E+02</pdfrwt>
<pdfrwt beam="2">  1        2 0.75775344E-02 0.82236691E+02</pdfrwt>
<totfact> 0.90431861E+03</totfact>
</mgrwt>
</event>
<event>
 6    2  0.9453093E+000  0.9635429E+02  0.7546771E-02  0.1288155E+00
          4   -1    0    0  502    0 -0.00000000000E+00  0.00000000000E+00  0.90507103132E+01  0.90507103132E+01  0.00000000000E+00 0. -1.
         21   -1    0    0  501  502  0.00000000000E+00 -0.00000000000E+00 -0.64028098846E+03  0.64028098846E+03  0.00000000000E+00 0.  1.
         24    2    1    2    0    0  0.51130711373E+02 -0.18486010775E+02 -0.44584582491E+03  0.45613884760E+03  0.79549144978E+02 0.  0.
        -11    1    3    3    0    0  0.72389589491E+02 -0.13491667937E+02 -0.36760656471E+03  0.37490914125E+03  0.00000000000E+00 0.  1.
         12    1    3    3    0    0 -0.21258878118E+02 -0.49943428377E+01 -0.78239260194E+02  0.81229706358E+02  0.00000000000E+00 0. -1.
          3    1    1    2  501    0 -0.51130711373E+02  0.18486010775E+02 -0.18538445324E+03  0.19319285117E+03  0.00000000000E+00 0. -1.
<mgrwt>
<rscale>  1 0.96354287E+02</rscale>
<asrwt>0</asrwt>
<pdfrwt beam="1">  1       21 0.98504761E-01 0.96354287E+02</pdfrwt>
<pdfrwt beam="2">  1        4 0.13924171E-02 0.96354287E+02</pdfrwt>
<totfact> 0.59600732E+04</totfact>
</mgrwt>
</event>
<event>
 6    2  0.9453093E+000  0.9341600E+02  0.7546771E-02  0.1294784E+00
          2   -1    0    0  502    0 -0.00000000000E+00  0.00000000000E+00  0.30771302025E+04  0.30771302025E+04  0.00000000000E+00 0. -1.
         21   -1    0    0  501  502  0.00000000000E+00 -0.00000000000E+00 -0.34622038254E+01  0.34622038254E+01  0.00000000000E+00 0. -1.
         24    2    1    2    0    0  0.25622724818E+00  0.38330894510E+02  0.29413745575E+04  0.29428575970E+04  0.85189350920E+02 0.  0.
        -13    1    3    3    0    0 -0.25369211734E+02  0.22907718684E+02  0.44744110395E+03  0.44874480719E+03  0.00000000000E+00 0.  1.
         14    1    3    3    0    0  0.25625438982E+02  0.15423175826E+02  0.24939334535E+04  0.24941127898E+04  0.00000000000E+00 0. -1.
          1    1    1    2  501    0 -0.25622724818E+00 -0.38330894510E+02  0.13229344124E+03  0.13773480940E+03  0.00000000000E+00 0. -1.
<mgrwt>
<rscale>  1 0.93415998E+02</rscale>
<asrwt>0</asrwt>
<pdfrwt beam="1">  1       21 0.53264920E-03 0.93415998E+02</pdfrwt>
<pdfrwt beam="2">  1        2 0.47340246E+00 0.93415998E+02</pdfrwt>
<totfact> 0.25410901E+05</totfact>
</mgrwt>
</event>
<event>
 6    2  0.9453093E+000  0.9037014E+02  0.7546771E-02  0.1301958E+00
          2   -1    0    0  502    0 -0.00000000000E+00  0.00000000000E+00  0.16892483563E+04  0.16892483563E+04  0.00000000000E+00 0. -1.
         21   -1    0    0  501  502  0.00000000000E+00 -0.00000000000E+00 -0.23794003548E+01  0.23794003548E+01  0.00000000000E+00 0. -1.
         24    2    1    2    0    0 -0.25763785960E+02  0.16667717772E+02  0.14444954499E+04  0.14473195458E+04  0.85001042615E+02 0.  0.
        -13    1    3    3    0    0  0.10827248599E+02 -0.24032056788E+02  0.21549016126E+03  0.21709624286E+03  0.00000000000E+00 0.  1.
         14    1    3    3    0    0 -0.36591034559E+02  0.40699774561E+02  0.12290052887E+04  0.12302233029E+04  0.00000000000E+00 0. -1.
          1    1    1    2  501    0  0.25763785960E+02 -0.16667717772E+02  0.24237350601E+03  0.24430821087E+03  0.00000000000E+00 0. -1.
<mgrwt>
<rscale>  1 0.90370143E+02</rscale>
<asrwt>0</asrwt>
<pdfrwt beam="1">  1       21 0.36606294E-03 0.90370143E+02</pdfrwt>
<pdfrwt beam="2">  1        2 0.25988340E+00 0.90370143E+02</pdfrwt>
<totfact> 0.24130516E+06</totfact>
</mgrwt>
</event>
<event>
 6    2  0.9453093E+000  0.8868466E+02  0.7546771E-02  0.1306069E+00
         21   -1    0    0  501  502  0.00000000000E+00  0.00000000000E+00  0.35978372005E+01  0.35978372005E+01  0.00000000000E+00 0. -1.
          2   -1    0    0  502    0 -0.00000000000E+00 -0.00000000000E+00 -0.12017974364E+04  0.12017974364E+04  0.00000000000E+00 0. -1.
         24    2    1    2    0    0  0.22512474265E+02 -0.11123050614E+02 -0.11141722899E+04  0.11176962288E+04  0.85055479074E+02 0.  0.
        -13    1    3    3    0    0 -0.14692178771E+02  0.27123128840E+02 -0.25317995640E+03  0.25505218007E+03  0.00000000000E+00 0.  1.
         14    1    3    3    0    0  0.37204653036E+02 -0.38246179454E+02 -0.86099233352E+03  0.86264404874E+03  0.00000000000E+00 0. -1.
          1    1    1    2  501    0 -0.22512474265E+02  0.11123050614E+02 -0.84027309318E+02  0.87699044828E+02  0.00000000000E+00 0. -1.
<mgrwt>
<rscale>  1 0.88684656E+02</rscale>
<asrwt>0</asrwt>
<pdfrwt beam="1">  1       21 0.55351338E-03 0.88684656E+02</pdfrwt>
<pdfrwt beam="2">  1        2 0.18489193E+00 0.88684656E+02</pdfrwt>
<totfact> 0.22884144E+06</totfact>
</mgrwt>
</event>
<event>
 6    2  0.9453093E+000  0.8512557E+02  0.7546771E-02  0.1315104E+00
         21   -1    0    0  501  502  0.00000000000E+00  0.00000000000E+00  0.36167388495E+02  0.36167388495E+02  0.00000000000E+00 0. -1.
          2   -1    0    0  502    0 -0.00000000000E+00 -0.00000000000E+00 -0.23571325295E+03  0.23571325295E+03  0.00000000000E+00 0. -1.
         24    2    1    2    0    0  0.18625729771E+02  0.21515779682E+02 -0.22061746004E+03  0.23647077381E+03  0.80227904178E+02 0.  0.
        -13    1    3    3    0    0 -0.17504683006E+02 -0.31050030427E+01 -0.81599961783E+01  0.19561199060E+02  0.00000000000E+00 0.  1.
         14    1    3    3    0    0  0.36130412777E+02  0.24620782725E+02 -0.21245746386E+03  0.21690957475E+03  0.00000000000E+00 0. -1.
          1    1    1    2  501    0 -0.18625729771E+02 -0.21515779682E+02  0.21071595588E+02  0.35409867629E+02  0.00000000000E+00 0. -1.
<mgrwt>
<rscale>  1 0.85125573E+02</rscale>
<asrwt>0</asrwt>
<pdfrwt beam="1">  1       21 0.55642139E-02 0.85125573E+02</pdfrwt>
<pdfrwt beam="2">  1        2 0.36263576E-01 0.85125573E+02</pdfrwt>
<totfact> 0.37331832E+05</totfact>
</mgrwt>
</event>
<event>
 6    2  0.9453093E+000  0.1139660E+03  0.7546771E-02  0.1253397E+00
          2   -1    0    0  502    0 -0.00000000000E+00  0.00000000000E+00  0.50172242172E+03  0.50172242172E+03  0.00000000000E+00 0. -1.
         21   -1    0    0  501  502  0.00000000000E+00 -0.00000000000E+00 -0.23992658076E+02  0.23992658076E+02  0.00000000000E+00 0. -1.
         24    2    1    2    0    0 -0.64343138208E+02 -0.47658095150E+02  0.39276813866E+03  0.40896829745E+03  0.81098237385E+02 0.  0.
        -11    1    3    3    0    0 -0.43576038325E+00 -0.30378919674E+02  0.41029433143E+02  0.51053726913E+02  0.00000000000E+00 0.  1.
         12    1    3    3    0    0 -0.63907377825E+02 -0.17279175475E+02  0.35173870552E+03  0.35791457054E+03  0.00000000000E+00 0. -1.
          1    1    1    2  501    0  0.64343138208E+02  0.47658095150E+02  0.84961624987E+02  0.11674678235E+03  0.00000000000E+00 0. -1.
<mgrwt>
<rscale>  1 0.11396604E+03</rscale>
<asrwt>0</asrwt>
<pdfrwt beam="1">  1       21 0.36911785E-02 0.11396604E+03</pdfrwt>
<pdfrwt beam="2">  1        2 0.77188057E-01 0.11396604E+03</pdfrwt>
<totfact> 0.33913673E+05</totfact>
</mgrwt>
</event>
<event>
 6    2  0.9453093E+000  0.1009075E+03  0.7546771E-02  0.1278399E+00
         21   -1    0    0  501  502  0.00000000000E+00  0.00000000000E+00  0.34685283625E+01  0.34685283625E+01  0.00000000000E+00 0. -1.
          2   -1    0    0  502    0 -0.00000000000E+00 -0.00000000000E+00 -0.18538930885E+04  0.18538930885E+04  0.00000000000E+00 0. -1.
         24    2    1    2    0    0  0.59288070364E+02  0.12384076482E+00 -0.11222823511E+04  0.11268096562E+04  0.81653139098E+02 0.  0.
        -11    1    3    3    0    0  0.14672589076E+02 -0.13359901708E+02 -0.54325850150E+02  0.57836578723E+02  0.00000000000E+00 0.  1.
         12    1    3    3    0    0  0.44615481288E+02  0.13483742473E+02 -0.10679565009E+04  0.10689730775E+04  0.00000000000E+00 0. -1.
          1    1    1    2  501    0 -0.59288070364E+02 -0.12384076482E+00 -0.72814220901E+03  0.73055196062E+03  0.00000000000E+00 0. -1.
<mgrwt>
<rscale>  1 0.10090751E+03</rscale>
<asrwt>0</asrwt>
<pdfrwt beam="1">  1       21 0.53362024E-03 0.10090751E+03</pdfrwt>
<pdfrwt beam="2">  1        2 0.28521406E+00 0.10090751E+03</pdfrwt>
<totfact> 0.11284251E+06</totfact>
</mgrwt>
</event>
<event>
 6    2  0.9453093E+000  0.8612396E+02  0.7546771E-02  0.1312519E+00
         21   -1    0    0  501  502  0.00000000000E+00  0.00000000000E+00  0.68754516248E+01  0.68754516248E+01  0.00000000000E+00 0. -1.
          2   -1    0    0  502    0 -0.00000000000E+00 -0.00000000000E+00 -0.48635717310E+03  0.48635717310E+03  0.00000000000E+00 0. -1.
         24    2    1    2    0    0 -0.94463281136E+00  0.21906416130E+02 -0.43721633710E+03  0.44561806692E+03  0.83285969630E+02 0.  0.
        -13    1    3    3    0    0 -0.18879854300E+02 -0.27114805302E+02 -0.20152911129E+03  0.20421959814E+03  0.00000000000E+00 0.  1.
         14    1    3    3    0    0  0.17935221489E+02  0.49021221432E+02 -0.23568722581E+03  0.24139846879E+03  0.00000000000E+00 0. -1.
          1    1    1    2  501    0  0.94463281136E+00 -0.21906416130E+02 -0.42265384375E+02  0.47614557807E+02  0.00000000000E+00 0. -1.
<mgrwt>
<rscale>  1 0.86123958E+02</rscale>
<asrwt>0</asrwt>
<pdfrwt beam="1">  1       21 0.10577615E-02 0.86123958E+02</pdfrwt>
<pdfrwt beam="2">  1        2 0.74824201E-01 0.86123958E+02</pdfrwt>
<totfact> 0.25391882E+06</totfact>
</mgrwt>
</event>
<event>
 6    2  0.9453093E+000  0.1109131E+03  0.7546771E-02  0.1258888E+00
         21   -1    0    0  501  502  0.00000000000E+00  0.00000000000E+00  0.54480609693E+01  0.54480609693E+01  0.00000000000E+00 0.  1.
          2   -1    0    0  502    0 -0.00000000000E+00 -0.00000000000E+00 -0.16678278401E+04  0.16678278401E+04  0.00000000000E+00 0. -1.
         24    2    1    2    0    0 -0.74635578762E+02 -0.15744205354E+02 -0.82355470733E+03  0.83098981505E+03  0.80519358745E+02 0.  0.
        -13    1    3    3    0    0 -0.91936011403E+02 -0.12875231474E+02 -0.65979819260E+03  0.66629697338E+03  0.00000000000E+00 0.  1.
         14    1    3    3    0    0  0.17300432641E+02 -0.28689738795E+01 -0.16375651473E+03  0.16469284167E+03  0.00000000000E+00 0. -1.
          1    1    1    2  501    0  0.74635578762E+02  0.15744205354E+02 -0.83882507180E+03  0.84228608602E+03  0.00000000000E+00 0. -1.
<mgrwt>
<rscale>  1 0.11091310E+03</rscale>
<asrwt>0</asrwt>
<pdfrwt beam="1">  1       21 0.83816201E-03 0.11091310E+03</pdfrwt>
<pdfrwt beam="2">  1        2 0.25658927E+00 0.11091310E+03</pdfrwt>
<totfact> 0.69893914E+05</totfact>
</mgrwt>
</event>
<event>
 6    2  0.9453093E+000  0.8538255E+02  0.7546771E-02  0.1314435E+00
          2   -1    0    0  502    0 -0.00000000000E+00  0.00000000000E+00  0.25920850057E+04  0.25920850057E+04  0.00000000000E+00 0. -1.
         21   -1    0    0  501  502  0.00000000000E+00 -0.00000000000E+00 -0.13428652619E+01  0.13428652619E+01  0.00000000000E+00 0. -1.
         24    2    1    2    0    0 -0.23711971472E+02 -0.22077183641E+02  0.18058991355E+04  0.18079164440E+04  0.78996967869E+02 0.  0.
        -13    1    3    3    0    0  0.23592683545E+02  0.89908400405E+01  0.34558233111E+03  0.34650338742E+03  0.00000000000E+00 0.  1.
         14    1    3    3    0    0 -0.47304655017E+02 -0.31068023681E+02  0.14603168044E+04  0.14614130565E+04  0.00000000000E+00 0. -1.
          1    1    1    2  501    0  0.23711971472E+02  0.22077183641E+02  0.78484300490E+03  0.78551142702E+03  0.00000000000E+00 0. -1.
<mgrwt>
<rscale>  1 0.85382554E+02</rscale>
<asrwt>0</asrwt>
<pdfrwt beam="1">  1       21 0.20659673E-03 0.85382554E+02</pdfrwt>
<pdfrwt beam="2">  1        2 0.39877831E+00 0.85382554E+02</pdfrwt>
<totfact> 0.19773670E+06</totfact>
</mgrwt>
</event>
<event>
 6    2  0.9453093E+000  0.8612675E+02  0.7546771E-02  0.1312512E+00
         -3   -1    0    0    0  501 -0.00000000000E+00  0.00000000000E+00  0.16079363234E+02  0.16079363234E+02  0.00000000000E+00 0.  1.
         21   -1    0    0  501  502  0.00000000000E+00 -0.00000000000E+00 -0.20812957900E+03  0.20812957900E+03  0.00000000000E+00 0. -1.
         24    2    1    2    0    0 -0.60121632847E+01 -0.27202294981E+02 -0.16027699608E+03  0.18195200850E+03  0.81496668420E+02 0.  0.
        -11    1    3    3    0    0  0.19220422480E+02 -0.23122812297E+02 -0.13488876831E+02  0.32955104112E+02  0.00000000000E+00 0.  1.
         12    1    3    3    0    0 -0.25232585765E+02 -0.40794826839E+01 -0.14678811925E+03  0.14899690439E+03  0.00000000000E+00 0. -1.
         -4    1    1    2    0  502  0.60121632847E+01  0.27202294981E+02 -0.31773219679E+02  0.42256933731E+02  0.00000000000E+00 0.  1.
<mgrwt>
<rscale>  1 0.86126755E+02</rscale>
<asrwt>0</asrwt>
<pdfrwt beam="1">  1       21 0.32019936E-01 0.86126755E+02</pdfrwt>
<pdfrwt beam="2">  1       -3 0.24737482E-02 0.86126755E+02</pdfrwt>
<totfact> 0.28576266E+05</totfact>
</mgrwt>
</event>
<event>
 6    2  0.1101823E+001  0.8578643E+02  0.7546771E-02  0.1313389E+00
         21   -1    0    0  501  502  0.00000000000E+00  0.00000000000E+00  0.10674343310E+02  0.10674343310E+02  0.00000000000E+00 0. -1.
         -1   -1    0    0    0  501 -0.00000000000E+00 -0.00000000000E+00 -0.33761782538E+03  0.33761782538E+03  0.00000000000E+00 0.  1.
         24    2    1    2    0    0 -0.28703294082E+02 -0.10933874342E+02 -0.19881257207E+03  0.21653117750E+03  0.80099209241E+02 0.  0.
        -13    1    3    3    0    0  0.56986093004E+01 -0.11274507566E+02 -0.17315097226E+03  0.17361119741E+03  0.00000000000E+00 0.  1.
         14    1    3    3    0    0 -0.34401903383E+02  0.34063322455E+00 -0.25661599802E+02  0.42919980100E+02  0.00000000000E+00 0. -1.
         -2    1    1    2    0  502  0.28703294082E+02  0.10933874342E+02 -0.12813091000E+03  0.13176099118E+03  0.00000000000E+00 0.  1.
<mgrwt>
<rscale>  1 0.85786433E+02</rscale>
<asrwt>0</asrwt>
<pdfrwt beam="1">  1       21 0.16422067E-02 0.85786433E+02</pdfrwt>
<pdfrwt beam="2">  1       -1 0.51941204E-01 0.85786433E+02</pdfrwt>
<totfact> 0.55728092E+05</totfact>
</mgrwt>
</event>
<event>
 6    2  0.9453093E+000  0.9076317E+02  0.7546771E-02  0.1301014E+00
          4   -1    0    0  502    0 -0.00000000000E+00  0.00000000000E+00  0.24838925996E+02  0.24838925996E+02  0.00000000000E+00 0. -1.
         21   -1    0    0  501  502  0.00000000000E+00 -0.00000000000E+00 -0.19010764908E+03  0.19010764908E+03  0.00000000000E+00 0. -1.
         24    2    1    2    0    0  0.10356971763E+02  0.41459861167E+02 -0.86754068360E+02  0.12555564736E+03  0.80073499076E+02 0.  0.
        -11    1    3    3    0    0 -0.32622444557E+02  0.32054863703E+01 -0.37579849671E+02  0.49867265145E+02  0.00000000000E+00 0.  1.
         12    1    3    3    0    0  0.42979416320E+02  0.38254374796E+02 -0.49174218689E+02  0.75688382212E+02  0.00000000000E+00 0. -1.
          3    1    1    2  501    0 -0.10356971763E+02 -0.41459861167E+02 -0.78514654724E+02  0.89390927719E+02  0.00000000000E+00 0. -1.
<mgrwt>
<rscale>  1 0.90763165E+02</rscale>
<asrwt>0</asrwt>
<pdfrwt beam="1">  1       21 0.29247331E-01 0.90763165E+02</pdfrwt>
<pdfrwt beam="2">  1        4 0.38213731E-02 0.90763165E+02</pdfrwt>
<totfact> 0.15627682E+05</totfact>
</mgrwt>
</event>
<event>
 6    2  0.9453093E+000  0.9002433E+02  0.7546771E-02  0.1302793E+00
         21   -1    0    0  501  502  0.00000000000E+00  0.00000000000E+00  0.11348973414E+04  0.11348973414E+04  0.00000000000E+00 0. -1.
          4   -1    0    0  502    0 -0.00000000000E+00 -0.00000000000E+00 -0.70366383704E+01  0.70366383704E+01  0.00000000000E+00 0. -1.
         24    2    1    2    0    0  0.37337653965E+02  0.19217977816E+02  0.30515182999E+03  0.31815408147E+03  0.79630076801E+02 0.  0.
        -13    1    3    3    0    0 -0.25118667926E+02  0.88813636674E+01  0.84526856361E+02  0.88626268934E+02  0.00000000000E+00 0.  1.
         14    1    3    3    0    0  0.62456321890E+02  0.10336614149E+02  0.22062497363E+03  0.22952781253E+03  0.00000000000E+00 0. -1.
          3    1    1    2  501    0 -0.37337653965E+02 -0.19217977816E+02  0.82270887301E+03  0.82377989827E+03  0.00000000000E+00 0. -1.
<mgrwt>
<rscale>  1 0.90024331E+02</rscale>
<asrwt>0</asrwt>
<pdfrwt beam="1">  1       21 0.17459945E+00 0.90024331E+02</pdfrwt>
<pdfrwt beam="2">  1        4 0.10825607E-02 0.90024331E+02</pdfrwt>
<totfact> 0.20977058E+04</totfact>
</mgrwt>
</event>
<event>
 6    2  0.9453093E+000  0.8264458E+02  0.7546771E-02  0.1321710E+00
          2   -1    0    0  502    0 -0.00000000000E+00  0.00000000000E+00  0.79102281781E+03  0.79102281781E+03  0.00000000000E+00 0. -1.
         21   -1    0    0  501  502  0.00000000000E+00 -0.00000000000E+00 -0.45353302798E+01  0.45353302798E+01  0.00000000000E+00 0.  1.
         24    2    1    2    0    0  0.40170236142E+01 -0.20383372198E+02  0.74047637958E+03  0.74507408728E+03  0.79990677467E+02 0.  0.
        -13    1    3    3    0    0 -0.31532396626E+02 -0.11557420217E+02  0.16227845478E+03  0.16571711705E+03  0.00000000000E+00 0.  1.
         14    1    3    3    0    0  0.35549420240E+02 -0.88259519809E+01  0.57819792480E+03  0.57935697023E+03  0.00000000000E+00 0. -1.
          1    1    1    2  501    0 -0.40170236142E+01  0.20383372198E+02  0.46011107947E+02  0.50484060805E+02  0.00000000000E+00 0. -1.
<mgrwt>
<rscale>  1 0.82644581E+02</rscale>
<asrwt>0</asrwt>
<pdfrwt beam="1">  1       21 0.69774375E-03 0.82644581E+02</pdfrwt>
<pdfrwt beam="2">  1        2 0.12169571E+00 0.82644581E+02</pdfrwt>
<totfact> 0.27828207E+06</totfact>
</mgrwt>
</event>
<event>
 6    2  0.9453093E+000  0.9214000E+02  0.7546771E-02  0.1297751E+00
          2   -1    0    0  502    0 -0.00000000000E+00  0.00000000000E+00  0.16666763142E+03  0.16666763142E+03  0.00000000000E+00 0. -1.
         21   -1    0    0  501  502  0.00000000000E+00 -0.00000000000E+00 -0.27800324641E+02  0.27800324641E+02  0.00000000000E+00 0.  1.
         24    2    1    2    0    0  0.34118546831E+02 -0.27320252580E+02  0.88159584054E+02  0.12752212286E+03  0.81112934355E+02 0.  0.
        -11    1    3    3    0    0  0.30929271874E+02 -0.30870890456E+02  0.47282461691E+01  0.43954385993E+02  0.00000000000E+00 0.  1.
         12    1    3    3    0    0  0.31892749565E+01  0.35506378764E+01  0.83431337885E+02  0.83567736868E+02  0.00000000000E+00 0. -1.
          1    1    1    2  501    0 -0.34118546831E+02  0.27320252580E+02  0.50707722724E+02  0.66945833199E+02  0.00000000000E+00 0. -1.
<mgrwt>
<rscale>  1 0.92140000E+02</rscale>
<asrwt>0</asrwt>
<pdfrwt beam="1">  1       21 0.42769731E-02 0.92140000E+02</pdfrwt>
<pdfrwt beam="2">  1        2 0.25641173E-01 0.92140000E+02</pdfrwt>
<totfact> 0.84310352E+05</totfact>
</mgrwt>
</event>
<event>
 6    2  0.9453093E+000  0.8544314E+02  0.7546771E-02  0.1314278E+00
          2   -1    0    0  502    0 -0.00000000000E+00  0.00000000000E+00  0.80231937383E+03  0.80231937383E+03  0.00000000000E+00 0. -1.
         21   -1    0    0  501  502  0.00000000000E+00 -0.00000000000E+00 -0.54385654260E+01  0.54385654260E+01  0.00000000000E+00 0. -1.
         24    2    1    2    0    0 -0.27517985318E+02 -0.84114255448E+01  0.72954662064E+03  0.73453304979E+03  0.80452084796E+02 0.  0.
        -11    1    3    3    0    0 -0.82791554501E+01 -0.14266798716E+02  0.26603123173E+02  0.31301950788E+02  0.00000000000E+00 0.  1.
         12    1    3    3    0    0 -0.19238829868E+02  0.58553731715E+01  0.70294349747E+03  0.70323109900E+03  0.00000000000E+00 0. -1.
          1    1    1    2  501    0  0.27517985318E+02  0.84114255448E+01  0.67334187757E+02  0.73224889461E+02  0.00000000000E+00 0. -1.
<mgrwt>
<rscale>  1 0.85443136E+02</rscale>
<asrwt>0</asrwt>
<pdfrwt beam="1">  1       21 0.83670301E-03 0.85443136E+02</pdfrwt>
<pdfrwt beam="2">  1        2 0.12343366E+00 0.85443136E+02</pdfrwt>
<totfact> 0.20725694E+06</totfact>
</mgrwt>
</event>
<event>
 6    2  0.9453093E+000  0.8638680E+02  0.7546771E-02  0.1311845E+00
          2   -1    0    0  502    0 -0.00000000000E+00  0.00000000000E+00  0.12250389192E+02  0.12250389192E+02  0.00000000000E+00 0. -1.
         21   -1    0    0  501  502  0.00000000000E+00 -0.00000000000E+00 -0.39320417089E+03  0.39320417089E+03  0.00000000000E+00 0. -1.
         24    2    1    2    0    0  0.23175134795E+02 -0.12425590038E+02 -0.15070142245E+03  0.17370549083E+03  0.82287281246E+02 0.  0.
        -11    1    3    3    0    0 -0.18398231210E+02  0.22877497151E+02 -0.73816266331E+02  0.79440014870E+02  0.00000000000E+00 0.  1.
         12    1    3    3    0    0  0.41573366005E+02 -0.35303087189E+02 -0.76885156121E+02  0.94265475959E+02  0.00000000000E+00 0. -1.
          1    1    1    2  501    0 -0.23175134795E+02  0.12425590038E+02 -0.23025235925E+03  0.23174906925E+03  0.00000000000E+00 0. -1.
<mgrwt>
<rscale>  1 0.86386798E+02</rscale>
<asrwt>0</asrwt>
<pdfrwt beam="1">  1       21 0.60492942E-01 0.86386798E+02</pdfrwt>
<pdfrwt beam="2">  1        2 0.18846755E-02 0.86386798E+02</pdfrwt>
<totfact> 0.17163843E+05</totfact>
</mgrwt>
</event>
<event>
 6    2  0.9453093E+000  0.2191535E+03  0.7546771E-02  0.1134516E+00
          2   -1    0    0  502    0 -0.00000000000E+00  0.00000000000E+00  0.80650350080E+03  0.80650350080E+03  0.00000000000E+00 0. -1.
         21   -1    0    0  501  502  0.00000000000E+00 -0.00000000000E+00 -0.61851901616E+02  0.61851901616E+02  0.00000000000E+00 0. -1.
         24    2    1    2    0    0  0.17048763475E+03 -0.11200611351E+03  0.24526136572E+03  0.32890938256E+03  0.80105189293E+02 0.  0.
        -13    1    3    3    0    0  0.35672395406E+02  0.52735661602E+01  0.19517499014E+02  0.41003207946E+02  0.00000000000E+00 0.  1.
         14    1    3    3    0    0  0.13481523934E+03 -0.11727967967E+03  0.22574386671E+03  0.28790617461E+03  0.00000000000E+00 0. -1.
          1    1    1    2  501    0 -0.17048763475E+03  0.11200611351E+03  0.49939023346E+03  0.53944601986E+03  0.00000000000E+00 0. -1.
<mgrwt>
<rscale>  1 0.21915347E+03</rscale>
<asrwt>0</asrwt>
<pdfrwt beam="1">  1       21 0.95156778E-02 0.21915347E+03</pdfrwt>
<pdfrwt beam="2">  1        2 0.12407745E+00 0.21915347E+03</pdfrwt>
<totfact> 0.39209774E+04</totfact>
</mgrwt>
</event>
<event>
 6    2  0.9453093E+000  0.9170092E+02  0.7546771E-02  0.1298784E+00
         21   -1    0    0  501  502  0.00000000000E+00  0.00000000000E+00  0.18369977481E+01  0.18369977481E+01  0.00000000000E+00 0. -1.
          2   -1    0    0  502    0 -0.00000000000E+00 -0.00000000000E+00 -0.26745938464E+04  0.26745938464E+04  0.00000000000E+00 0. -1.
         24    2    1    2    0    0  0.33970362745E+02 -0.29503226967E+02 -0.20504815769E+04  0.20525310607E+04  0.79903892306E+02 0.  0.
        -13    1    3    3    0    0 -0.13930829685E+02  0.52776558433E+01 -0.95626626207E+02  0.96780025350E+02  0.00000000000E+00 0.  1.
         14    1    3    3    0    0  0.47901192430E+02 -0.34780882811E+02 -0.19548549506E+04  0.19557510353E+04  0.00000000000E+00 0. -1.
          1    1    1    2  501    0 -0.33970362745E+02  0.29503226967E+02 -0.62227527177E+03  0.62389978347E+03  0.00000000000E+00 0. -1.
<mgrwt>
<rscale>  1 0.91700916E+02</rscale>
<asrwt>0</asrwt>
<pdfrwt beam="1">  1       21 0.28261610E-03 0.91700916E+02</pdfrwt>
<pdfrwt beam="2">  1        2 0.41147443E+00 0.91700916E+02</pdfrwt>
<totfact> 0.11183089E+06</totfact>
</mgrwt>
</event>
<event>
 6    2  0.9453093E+000  0.2129406E+03  0.7546771E-02  0.1139258E+00
          2   -1    0    0  502    0 -0.00000000000E+00  0.00000000000E+00  0.89891773194E+03  0.89891773194E+03  0.00000000000E+00 0. -1.
         21   -1    0    0  501  502  0.00000000000E+00 -0.00000000000E+00 -0.94309762822E+02  0.94309762822E+02  0.00000000000E+00 0.  1.
         24    2    1    2    0    0 -0.11635700072E+03 -0.15844638469E+03  0.57326823777E+02  0.22052229961E+03  0.81850543442E+02 0.  0.
        -11    1    3    3    0    0 -0.49686590690E+02 -0.12364775250E+03  0.57953841529E+02  0.14531404523E+03  0.00000000000E+00 0.  1.
         12    1    3    3    0    0 -0.66670410027E+02 -0.34798632195E+02 -0.62701775220E+00  0.75208254381E+02  0.00000000000E+00 0. -1.
          1    1    1    2  501    0  0.11635700072E+03  0.15844638469E+03  0.74728114534E+03  0.77270519515E+03  0.00000000000E+00 0. -1.
<mgrwt>
<rscale>  1 0.21294065E+03</rscale>
<asrwt>0</asrwt>
<pdfrwt beam="1">  1       21 0.14509195E-01 0.21294065E+03</pdfrwt>
<pdfrwt beam="2">  1        2 0.13829503E+00 0.21294065E+03</pdfrwt>
<totfact> 0.16006722E+04</totfact>
</mgrwt>
</event>
<event>
 6    2  0.9453093E+000  0.8719762E+02  0.7546771E-02  0.1309784E+00
         21   -1    0    0  501  502  0.00000000000E+00  0.00000000000E+00  0.18582408720E+02  0.18582408720E+02  0.00000000000E+00 0.  1.
          4   -1    0    0  502    0 -0.00000000000E+00 -0.00000000000E+00 -0.28718114293E+03  0.28718114293E+03  0.00000000000E+00 0. -1.
         24    2    1    2    0    0  0.22559790718E+02  0.95642828942E+01 -0.26736956310E+03  0.28122927917E+03  0.83683956216E+02 0.  0.
        -11    1    3    3    0    0  0.13624578273E+02  0.10201115001E+02 -0.37130528993E+01  0.17420638399E+02  0.00000000000E+00 0.  1.
         12    1    3    3    0    0  0.89352124450E+01 -0.63683210660E+00 -0.26365651020E+03  0.26380864077E+03  0.00000000000E+00 0. -1.
          3    1    1    2  501    0 -0.22559790718E+02 -0.95642828942E+01 -0.12291711144E+01  0.24534272481E+02  0.00000000000E+00 0. -1.
<mgrwt>
<rscale>  1 0.87197616E+02</rscale>
<asrwt>0</asrwt>
<pdfrwt beam="1">  1       21 0.28588322E-02 0.87197616E+02</pdfrwt>
<pdfrwt beam="2">  1        4 0.44181713E-01 0.87197616E+02</pdfrwt>
<totfact> 0.12730785E+05</totfact>
</mgrwt>
</event>
<event>
 6    2  0.9453093E+000  0.8351788E+02  0.7546771E-02  0.1319355E+00
          2   -1    0    0  502    0 -0.00000000000E+00  0.00000000000E+00  0.21457113990E+01  0.21457113990E+01  0.00000000000E+00 0. -1.
         21   -1    0    0  501  502  0.00000000000E+00 -0.00000000000E+00 -0.13896696643E+04  0.13896696643E+04  0.00000000000E+00 0. -1.
         24    2    1    2    0    0  0.18485725236E+02  0.16240845492E+02 -0.11467609544E+04  0.11497982099E+04  0.79810712479E+02 0.  0.
        -13    1    3    3    0    0  0.22373341320E+02 -0.29073392407E+02 -0.41153719542E+03  0.41316908374E+03  0.00000000000E+00 0.  1.
         14    1    3    3    0    0 -0.38876160847E+01  0.45314237900E+02 -0.73522375895E+03  0.73662912612E+03  0.00000000000E+00 0. -1.
          1    1    1    2  501    0 -0.18485725236E+02 -0.16240845492E+02 -0.24076299850E+03  0.24201716581E+03  0.00000000000E+00 0. -1.
<mgrwt>
<rscale>  1 0.83517884E+02</rscale>
<asrwt>0</asrwt>
<pdfrwt beam="1">  1       21 0.21379509E+00 0.83517884E+02</pdfrwt>
<pdfrwt beam="2">  1        2 0.33010982E-03 0.83517884E+02</pdfrwt>
<totfact> 0.88342729E+04</totfact>
</mgrwt>
</event>
<event>
 6    2  0.9453093E+000  0.8857765E+02  0.7546771E-02  0.1306333E+00
         21   -1    0    0  501  502  0.00000000000E+00  0.00000000000E+00  0.30961153459E+02  0.30961153459E+02  0.00000000000E+00 0. -1.
          2   -1    0    0  502    0 -0.00000000000E+00 -0.00000000000E+00 -0.20924744089E+03  0.20924744089E+03  0.00000000000E+00 0. -1.
         24    2    1    2    0    0 -0.27120398647E+02  0.10080758923E+02 -0.18949862496E+03  0.20917870173E+03  0.83718950494E+02 0.  0.
        -13    1    3    3    0    0 -0.20480552931E+01 -0.95837973577E+01  0.57396886976E+01  0.11357276461E+02  0.00000000000E+00 0.  1.
         14    1    3    3    0    0 -0.25072343354E+02  0.19664556281E+02 -0.19523831365E+03  0.19782142526E+03  0.00000000000E+00 0. -1.
          1    1    1    2  501    0  0.27120398647E+02 -0.10080758923E+02  0.11212337528E+02  0.31029892621E+02  0.00000000000E+00 0. -1.
<mgrwt>
<rscale>  1 0.88577652E+02</rscale>
<asrwt>0</asrwt>
<pdfrwt beam="1">  1       21 0.47632543E-02 0.88577652E+02</pdfrwt>
<pdfrwt beam="2">  1        2 0.32191914E-01 0.88577652E+02</pdfrwt>
<totfact> 0.55038277E+05</totfact>
</mgrwt>
</event>
<event>
 6    2  0.9453093E+000  0.8427638E+02  0.7546771E-02  0.1317336E+00
         21   -1    0    0  501  502  0.00000000000E+00  0.00000000000E+00  0.80460342928E+03  0.80460342928E+03  0.00000000000E+00 0.  1.
         -1   -1    0    0    0  501 -0.00000000000E+00 -0.00000000000E+00 -0.69936908669E+01  0.69936908669E+01  0.00000000000E+00 0.  1.
         24    2    1    2    0    0  0.16815203846E+02 -0.20392040672E+02  0.25957004331E+03  0.27290862026E+03  0.80024503905E+02 0.  0.
        -11    1    3    3    0    0 -0.15128109049E+02 -0.38637355618E+02  0.86046492610E+02  0.95528549780E+02  0.00000000000E+00 0.  1.
         12    1    3    3    0    0  0.31943312895E+02  0.18245314946E+02  0.17352355070E+03  0.17738007048E+03  0.00000000000E+00 0. -1.
         -2    1    1    2    0  502 -0.16815203846E+02  0.20392040672E+02  0.53803969510E+03  0.53868849989E+03  0.00000000000E+00 0.  1.
<mgrwt>
<rscale>  1 0.84276376E+02</rscale>
<asrwt>0</asrwt>
<pdfrwt beam="1">  1       21 0.12378507E+00 0.84276376E+02</pdfrwt>
<pdfrwt beam="2">  1       -1 0.10759531E-02 0.84276376E+02</pdfrwt>
<totfact> 0.70044023E+04</totfact>
</mgrwt>
</event>
<event>
 6    2  0.9453093E+000  0.8978451E+02  0.7546771E-02  0.1303374E+00
          2   -1    0    0  502    0 -0.00000000000E+00  0.00000000000E+00  0.29133508330E+03  0.29133508330E+03  0.00000000000E+00 0. -1.
         21   -1    0    0  501  502  0.00000000000E+00 -0.00000000000E+00 -0.25638980860E+02  0.25638980860E+02  0.00000000000E+00 0. -1.
         24    2    1    2    0    0 -0.30286354322E+02  0.26384717667E+02  0.26162322981E+03  0.27660074530E+03  0.80298451670E+02 0.  0.
        -11    1    3    3    0    0 -0.33454470715E+01 -0.10570846915E+02  0.78669243052E-01  0.11087876688E+02  0.00000000000E+00 0.  1.
         12    1    3    3    0    0 -0.26940907250E+02  0.36955564582E+02  0.26154456057E+03  0.26551286861E+03  0.00000000000E+00 0. -1.
          1    1    1    2  501    0  0.30286354322E+02 -0.26384717667E+02  0.40728726336E+01  0.40373318862E+02  0.00000000000E+00 0. -1.
<mgrwt>
<rscale>  1 0.89784508E+02</rscale>
<asrwt>0</asrwt>
<pdfrwt beam="1">  1       21 0.39444588E-02 0.89784508E+02</pdfrwt>
<pdfrwt beam="2">  1        2 0.44820780E-01 0.89784508E+02</pdfrwt>
<totfact> 0.53133737E+05</totfact>
</mgrwt>
</event>
<event>
 6    2  0.9453093E+000  0.8745955E+02  0.7546771E-02  0.1309123E+00
          2   -1    0    0  502    0 -0.00000000000E+00  0.00000000000E+00  0.37386710556E+03  0.37386710556E+03  0.00000000000E+00 0. -1.
         21   -1    0    0  501  502  0.00000000000E+00 -0.00000000000E+00 -0.96294181226E+01  0.96294181226E+01  0.00000000000E+00 0.  1.
         24    2    1    2    0    0 -0.11338274540E+02  0.28830027806E+02  0.29393540821E+03  0.30667115393E+03  0.81789030325E+02 0.  0.
        -13    1    3    3    0    0 -0.34944351529E+02  0.13215469133E+02  0.57652201294E+02  0.68698854737E+02  0.00000000000E+00 0.  1.
         14    1    3    3    0    0  0.23606076989E+02  0.15614558673E+02  0.23628320691E+03  0.23797229919E+03  0.00000000000E+00 0. -1.
          1    1    1    2  501    0  0.11338274540E+02 -0.28830027806E+02  0.70302279235E+02  0.76825369758E+02  0.00000000000E+00 0. -1.
<mgrwt>
<rscale>  1 0.87459548E+02</rscale>
<asrwt>0</asrwt>
<pdfrwt beam="1">  1       21 0.14814492E-02 0.87459548E+02</pdfrwt>
<pdfrwt beam="2">  1        2 0.57518005E-01 0.87459548E+02</pdfrwt>
<totfact> 0.19784030E+06</totfact>
</mgrwt>
</event>
<event>
 6    2  0.9453093E+000  0.9551535E+02  0.7546771E-02  0.1290020E+00
          2   -1    0    0  502    0 -0.00000000000E+00  0.00000000000E+00  0.31099557492E+03  0.31099557492E+03  0.00000000000E+00 0. -1.
         21   -1    0    0  501  502  0.00000000000E+00 -0.00000000000E+00 -0.19887335655E+02  0.19887335655E+02  0.00000000000E+00 0.  1.
         24    2    1    2    0    0 -0.23725556980E+02 -0.45890662351E+02  0.12748070865E+03  0.15929379752E+03  0.80338831859E+02 0.  0.
        -13    1    3    3    0    0 -0.33157468113E+02 -0.13305014359E+02  0.10126228652E+02  0.37134641583E+02  0.00000000000E+00 0.  1.
         14    1    3    3    0    0  0.94319111332E+01 -0.32585647992E+02  0.11735448000E+03  0.12215915594E+03  0.00000000000E+00 0. -1.
          1    1    1    2  501    0  0.23725556980E+02  0.45890662351E+02  0.16362753061E+03  0.17158911306E+03  0.00000000000E+00 0. -1.
<mgrwt>
<rscale>  1 0.95515354E+02</rscale>
<asrwt>0</asrwt>
<pdfrwt beam="1">  1       21 0.30595903E-02 0.95515354E+02</pdfrwt>
<pdfrwt beam="2">  1        2 0.47845470E-01 0.95515354E+02</pdfrwt>
<totfact> 0.75631905E+05</totfact>
</mgrwt>
</event>
<event>
 6    2  0.9453093E+000  0.8815548E+02  0.7546771E-02  0.1307381E+00
         21   -1    0    0  501  502  0.00000000000E+00  0.00000000000E+00  0.20369091666E+01  0.20369091666E+01  0.00000000000E+00 0. -1.
          2   -1    0    0  502    0 -0.00000000000E+00 -0.00000000000E+00 -0.19757219225E+04  0.19757219225E+04  0.00000000000E+00 0. -1.
         24    2    1    2    0    0  0.38457189391E+02  0.97755181505E+00 -0.14297077009E+04  0.14324229467E+04  0.79318831993E+02 0.  0.
        -13    1    3    3    0    0 -0.20118693832E+02  0.19356602738E+01 -0.14758872659E+03  0.14896624060E+03  0.00000000000E+00 0.  1.
         14    1    3    3    0    0  0.58575883223E+02 -0.95810845871E+00 -0.12821189743E+04  0.12834567061E+04  0.00000000000E+00 0. -1.
          1    1    1    2  501    0 -0.38457189391E+02 -0.97755181505E+00 -0.54397731241E+03  0.54533588497E+03  0.00000000000E+00 0. -1.
<mgrwt>
<rscale>  1 0.88155477E+02</rscale>
<asrwt>0</asrwt>
<pdfrwt beam="1">  1       21 0.31337027E-03 0.88155477E+02</pdfrwt>
<pdfrwt beam="2">  1        2 0.30395758E+00 0.88155477E+02</pdfrwt>
<totfact> 0.21906511E+06</totfact>
</mgrwt>
</event>
<event>
 6    2  0.9453093E+000  0.1248977E+03  0.7546771E-02  0.1235229E+00
         21   -1    0    0  501  502  0.00000000000E+00  0.00000000000E+00  0.18329208834E+02  0.18329208834E+02  0.00000000000E+00 0. -1.
          2   -1    0    0  502    0 -0.00000000000E+00 -0.00000000000E+00 -0.13078694521E+04  0.13078694521E+04  0.00000000000E+00 0. -1.
         24    2    1    2    0    0  0.48344340192E+02  0.82577713308E+02 -0.11513986791E+04  0.11581529954E+04  0.80269474436E+02 0.  0.
        -13    1    3    3    0    0  0.28529467579E+00  0.63465174020E+02 -0.40274272723E+03  0.40771266113E+03  0.00000000000E+00 0.  1.
         14    1    3    3    0    0  0.48059045516E+02  0.19112539288E+02 -0.74865595183E+03  0.75044033422E+03  0.00000000000E+00 0. -1.
          1    1    1    2  501    0 -0.48344340192E+02 -0.82577713308E+02 -0.13814156425E+03  0.16804566563E+03  0.00000000000E+00 0. -1.
<mgrwt>
<rscale>  1 0.12489773E+03</rscale>
<asrwt>0</asrwt>
<pdfrwt beam="1">  1       21 0.28198770E-02 0.12489773E+03</pdfrwt>
<pdfrwt beam="2">  1        2 0.20121078E+00 0.12489773E+03</pdfrwt>
<totfact> 0.15557535E+05</totfact>
</mgrwt>
</event>
<event>
 6    2  0.9453093E+000  0.8634400E+02  0.7546771E-02  0.1311955E+00
          2   -1    0    0  502    0 -0.00000000000E+00  0.00000000000E+00  0.10432698982E+04  0.10432698982E+04  0.00000000000E+00 0. -1.
         21   -1    0    0  501  502  0.00000000000E+00 -0.00000000000E+00 -0.38635457983E+01  0.38635457983E+01  0.00000000000E+00 0. -1.
         24    2    1    2    0    0  0.31933316740E+02  0.83175632877E+01  0.56266668560E+03  0.56925309445E+03  0.79789522407E+02 0.  0.
        -11    1    3    3    0    0  0.30703595628E+02 -0.31276031537E+02  0.22150685891E+03  0.22580121673E+03  0.00000000000E+00 0.  1.
         12    1    3    3    0    0  0.12297211120E+01  0.39593594824E+02  0.34115982669E+03  0.34345187772E+03  0.00000000000E+00 0. -1.
          1    1    1    2  501    0 -0.31933316740E+02 -0.83175632877E+01  0.47673966679E+03  0.47788034954E+03  0.00000000000E+00 0. -1.
<mgrwt>
<rscale>  1 0.86344001E+02</rscale>
<asrwt>0</asrwt>
<pdfrwt beam="1">  1       21 0.59439249E-03 0.86344001E+02</pdfrwt>
<pdfrwt beam="2">  1        2 0.16050284E+00 0.86344001E+02</pdfrwt>
<totfact> 0.25065052E+06</totfact>
</mgrwt>
</event>
<event>
 6    2  0.1164076E+001  0.8833130E+02  0.7546771E-02  0.1306944E+00
         21   -1    0    0  501  502  0.00000000000E+00  0.00000000000E+00  0.54176810981E+01  0.54176810981E+01  0.00000000000E+00 0.  1.
         -3   -1    0    0    0  501 -0.00000000000E+00 -0.00000000000E+00 -0.76970337987E+03  0.76970337987E+03  0.00000000000E+00 0.  1.
         24    2    1    2    0    0 -0.29120722448E+02 -0.22251831492E+02 -0.61965850520E+03  0.62592258377E+03  0.80369504874E+02 0.  0.
        -11    1    3    3    0    0 -0.31687725452E+02 -0.30549928905E+02 -0.61395623379E+03  0.61553201957E+03  0.00000000000E+00 0.  1.
         12    1    3    3    0    0  0.25670030037E+01  0.82980974132E+01 -0.57022714146E+01  0.10390564200E+02  0.00000000000E+00 0. -1.
         -4    1    1    2    0  502  0.29120722448E+02  0.22251831492E+02 -0.14462719357E+03  0.14919847721E+03  0.00000000000E+00 0.  1.
<mgrwt>
<rscale>  1 0.88331296E+02</rscale>
<asrwt>0</asrwt>
<pdfrwt beam="1">  1       21 0.83348976E-03 0.88331296E+02</pdfrwt>
<pdfrwt beam="2">  1       -3 0.11841585E+00 0.88331296E+02</pdfrwt>
<totfact> 0.13698839E+05</totfact>
</mgrwt>
</event>
<event>
 6    2  0.9453093E+000  0.9203988E+02  0.7546771E-02  0.1297986E+00
         21   -1    0    0  501  502  0.00000000000E+00  0.00000000000E+00  0.77561376109E+02  0.77561376109E+02  0.00000000000E+00 0. -1.
          2   -1    0    0  502    0 -0.00000000000E+00 -0.00000000000E+00 -0.80436599430E+02  0.80436599430E+02  0.00000000000E+00 0. -1.
         24    2    1    2    0    0 -0.42157843567E+02  0.11196783584E+02 -0.40345524477E+02  0.10049427822E+03  0.81047435941E+02 0.  0.
        -11    1    3    3    0    0  0.16136537479E+02 -0.14788204753E+02  0.46855429321E+01  0.22383769884E+02  0.00000000000E+00 0.  1.
         12    1    3    3    0    0 -0.58294381046E+02  0.25984988337E+02 -0.45031067409E+02  0.78110508335E+02  0.00000000000E+00 0. -1.
          1    1    1    2  501    0  0.42157843567E+02 -0.11196783584E+02  0.37470301156E+02  0.57503697321E+02  0.00000000000E+00 0. -1.
<mgrwt>
<rscale>  1 0.92039875E+02</rscale>
<asrwt>0</asrwt>
<pdfrwt beam="1">  1       21 0.11932519E-01 0.92039875E+02</pdfrwt>
<pdfrwt beam="2">  1        2 0.12374862E-01 0.92039875E+02</pdfrwt>
<totfact> 0.33665441E+05</totfact>
</mgrwt>
</event>
<event>
 6    2  0.9453093E+000  0.9864175E+02  0.7546771E-02  0.1283178E+00
          2   -1    0    0  502    0 -0.00000000000E+00  0.00000000000E+00  0.66773002382E+03  0.66773002382E+03  0.00000000000E+00 0. -1.
         21   -1    0    0  501  502  0.00000000000E+00 -0.00000000000E+00 -0.12247088244E+02  0.12247088244E+02  0.00000000000E+00 0. -1.
         24    2    1    2    0    0 -0.47792962171E+02 -0.35003479052E+02  0.55193986708E+03  0.56068512653E+03  0.78871943437E+02 0.  0.
        -13    1    3    3    0    0  0.34758434192E+01  0.28407644360E+01 -0.55888005383E+00  0.45236906360E+01  0.00000000000E+00 0.  1.
         14    1    3    3    0    0 -0.51268805590E+02 -0.37844243488E+02  0.55249874714E+03  0.55616143590E+03  0.00000000000E+00 0. -1.
          1    1    1    2  501    0  0.47792962171E+02  0.35003479052E+02  0.10354306849E+03  0.11929198553E+03  0.00000000000E+00 0. -1.
<mgrwt>
<rscale>  1 0.98641747E+02</rscale>
<asrwt>0</asrwt>
<pdfrwt beam="1">  1       21 0.18841679E-02 0.98641747E+02</pdfrwt>
<pdfrwt beam="2">  1        2 0.10272767E+00 0.98641747E+02</pdfrwt>
<totfact> 0.72674418E+05</totfact>
</mgrwt>
</event>
<event>
 6    2  0.9453093E+000  0.8762311E+02  0.7546771E-02  0.1308712E+00
         -1   -1    0    0    0  501 -0.00000000000E+00  0.00000000000E+00  0.33682109572E+03  0.33682109572E+03  0.00000000000E+00 0.  1.
         21   -1    0    0  501  502  0.00000000000E+00 -0.00000000000E+00 -0.13806435070E+02  0.13806435070E+02  0.00000000000E+00 0. -1.
         24    2    1    2    0    0  0.26099865742E+02  0.22543142835E+02  0.28975914731E+03  0.30271797591E+03  0.80550687227E+02 0.  0.
        -13    1    3    3    0    0 -0.76023055591E+01 -0.22300962672E+02  0.15452086152E+03  0.15630682849E+03  0.00000000000E+00 0.  1.
         14    1    3    3    0    0  0.33702171301E+02  0.44844105506E+02  0.13523828578E+03  0.14641114743E+03  0.00000000000E+00 0. -1.
         -2    1    1    2    0  502 -0.26099865742E+02 -0.22543142835E+02  0.33255513340E+02  0.47909554873E+02  0.00000000000E+00 0.  1.
<mgrwt>
<rscale>  1 0.87623110E+02</rscale>
<asrwt>0</asrwt>
<pdfrwt beam="1">  1       21 0.21240672E-02 0.87623110E+02</pdfrwt>
<pdfrwt beam="2">  1       -1 0.51818624E-01 0.87623110E+02</pdfrwt>
<totfact> 0.37220543E+05</totfact>
</mgrwt>
</event>
<event>
 6    2  0.9453093E+000  0.8345624E+02  0.7546771E-02  0.1319520E+00
         21   -1    0    0  501  502  0.00000000000E+00  0.00000000000E+00  0.59968223043E+01  0.59968223043E+01  0.00000000000E+00 0.  1.
          2   -1    0    0  502    0 -0.00000000000E+00 -0.00000000000E+00 -0.62273611061E+03  0.62273611061E+03  0.00000000000E+00 0. -1.
         24    2    1    2    0    0 -0.98364537761E+01 -0.24748749519E+02 -0.55840371217E+03  0.56460574782E+03  0.79092909132E+02 0.  0.
        -11    1    3    3    0    0 -0.43579787111E+02 -0.16896733848E+02 -0.38049905709E+03  0.38335913959E+03  0.00000000000E+00 0.  1.
         12    1    3    3    0    0  0.33743333335E+02 -0.78520156710E+01 -0.17790465509E+03  0.18124660823E+03  0.00000000000E+00 0. -1.
          1    1    1    2  501    0  0.98364537761E+01  0.24748749519E+02 -0.58335576133E+02  0.64127185096E+02  0.00000000000E+00 0. -1.
<mgrwt>
<rscale>  1 0.83456244E+02</rscale>
<asrwt>0</asrwt>
<pdfrwt beam="1">  1       21 0.92258815E-03 0.83456244E+02</pdfrwt>
<pdfrwt beam="2">  1        2 0.95805544E-01 0.83456244E+02</pdfrwt>
<totfact> 0.23876549E+06</totfact>
</mgrwt>
</event>
<event>
 6    2  0.9453093E+000  0.8565390E+02  0.7546771E-02  0.1313731E+00
         21   -1    0    0  501  502  0.00000000000E+00  0.00000000000E+00  0.73120292869E+01  0.73120292869E+01  0.00000000000E+00 0. -1.
          2   -1    0    0  502    0 -0.00000000000E+00 -0.00000000000E+00 -0.67310453274E+03  0.67310453274E+03  0.00000000000E+00 0. -1.
         24    2    1    2    0    0 -0.86937231525E+01  0.24512659432E+02 -0.63198078316E+03  0.63775881098E+03  0.81609677207E+02 0.  0.
        -13    1    3    3    0    0  0.33686454430E+02  0.26011129913E+02 -0.35686411664E+03  0.35939303532E+03  0.00000000000E+00 0.  1.
         14    1    3    3    0    0 -0.42380177583E+02 -0.14984704805E+01 -0.27511666652E+03  0.27836577567E+03  0.00000000000E+00 0. -1.
          1    1    1    2  501    0  0.86937231525E+01 -0.24512659432E+02 -0.33811720300E+02  0.42657751047E+02  0.00000000000E+00 0. -1.
<mgrwt>
<rscale>  1 0.85653901E+02</rscale>
<asrwt>0</asrwt>
<pdfrwt beam="1">  1       21 0.11249272E-02 0.85653901E+02</pdfrwt>
<pdfrwt beam="2">  1        2 0.10355458E+00 0.85653901E+02</pdfrwt>
<totfact> 0.16082277E+06</totfact>
</mgrwt>
</event>
<event>
 6    2  0.9453093E+000  0.9246248E+02  0.7546771E-02  0.1296996E+00
          2   -1    0    0  502    0 -0.00000000000E+00  0.00000000000E+00  0.20911619596E+02  0.20911619596E+02  0.00000000000E+00 0. -1.
         21   -1    0    0  501  502  0.00000000000E+00 -0.00000000000E+00 -0.23061365860E+03  0.23061365860E+03  0.00000000000E+00 0.  1.
         24    2    1    2    0    0  0.70920327732E+01 -0.28872050681E+02 -0.19985361342E+03  0.22020621490E+03  0.87552373147E+02 0.  0.
        -13    1    3    3    0    0  0.84273574986E+01 -0.59945584047E+02 -0.11753811004E+03  0.13221081920E+03  0.00000000000E+00 0.  1.
         14    1    3    3    0    0 -0.13353247254E+01  0.31073533366E+02 -0.82315503374E+02  0.87995395696E+02  0.00000000000E+00 0. -1.
          1    1    1    2  501    0 -0.70920327732E+01  0.28872050681E+02 -0.98484255854E+01  0.31319063299E+02  0.00000000000E+00 0. -1.
<mgrwt>
<rscale>  1 0.92462480E+02</rscale>
<asrwt>0</asrwt>
<pdfrwt beam="1">  1       21 0.35479024E-01 0.92462480E+02</pdfrwt>
<pdfrwt beam="2">  1        2 0.32171723E-02 0.92462480E+02</pdfrwt>
<totfact> 0.24803580E+05</totfact>
</mgrwt>
</event>
<event>
 6    2  0.9453093E+000  0.8812984E+02  0.7546771E-02  0.1307445E+00
         21   -1    0    0  501  502  0.00000000000E+00  0.00000000000E+00  0.31066639481E+03  0.31066639481E+03  0.00000000000E+00 0. -1.
          4   -1    0    0  502    0 -0.00000000000E+00 -0.00000000000E+00 -0.17407876361E+02  0.17407876361E+02  0.00000000000E+00 0. -1.
         24    2    1    2    0    0  0.24113155733E+02  0.25258724602E+02  0.10724131336E+03  0.13880766547E+03  0.80916137155E+02 0.  0.
        -13    1    3    3    0    0 -0.37494274494E+01  0.53292705422E+01  0.10421417966E+03  0.10441769281E+03  0.00000000000E+00 0.  1.
         14    1    3    3    0    0  0.27862583182E+02  0.19929454060E+02  0.30271337086E+01  0.34389972655E+02  0.00000000000E+00 0. -1.
          3    1    1    2  501    0 -0.24113155733E+02 -0.25258724602E+02  0.18601720508E+03  0.18926660571E+03  0.00000000000E+00 0. -1.
<mgrwt>
<rscale>  1 0.88129840E+02</rscale>
<asrwt>0</asrwt>
<pdfrwt beam="1">  1       21 0.47794826E-01 0.88129840E+02</pdfrwt>
<pdfrwt beam="2">  1        4 0.26781350E-02 0.88129840E+02</pdfrwt>
<totfact> 0.10319569E+05</totfact>
</mgrwt>
</event>
<event>
 6    2  0.9453093E+000  0.9508688E+02  0.7546771E-02  0.1290981E+00
         21   -1    0    0  501  502  0.00000000000E+00  0.00000000000E+00  0.25448252292E+02  0.25448252292E+02  0.00000000000E+00 0.  1.
          2   -1    0    0  502    0 -0.00000000000E+00 -0.00000000000E+00 -0.30678419248E+03  0.30678419248E+03  0.00000000000E+00 0. -1.
         24    2    1    2    0    0 -0.44961584426E+02  0.14192145734E+02 -0.26626488777E+03  0.28273398322E+03  0.82574534430E+02 0.  0.
        -13    1    3    3    0    0 -0.40361405999E+02 -0.81877873318E+01 -0.47871655858E+02  0.63148858978E+02  0.00000000000E+00 0.  1.
         14    1    3    3    0    0 -0.46001784271E+01  0.22379933066E+02 -0.21839323191E+03  0.21958512425E+03  0.00000000000E+00 0. -1.
          1    1    1    2  501    0  0.44961584426E+02 -0.14192145734E+02 -0.15071052419E+02  0.49498461548E+02  0.00000000000E+00 0. -1.
<mgrwt>
<rscale>  1 0.95086880E+02</rscale>
<asrwt>0</asrwt>
<pdfrwt beam="1">  1       21 0.39151155E-02 0.95086880E+02</pdfrwt>
<pdfrwt beam="2">  1        2 0.47197571E-01 0.95086880E+02</pdfrwt>
<totfact> 0.51207738E+05</totfact>
</mgrwt>
</event>
<event>
 6    2  0.9453093E+000  0.8273517E+02  0.7546771E-02  0.1321464E+00
          2   -1    0    0  502    0 -0.00000000000E+00  0.00000000000E+00  0.88199986713E+02  0.88199986713E+02  0.00000000000E+00 0. -1.
         21   -1    0    0  501  502  0.00000000000E+00 -0.00000000000E+00 -0.58795813969E+02  0.58795813969E+02  0.00000000000E+00 0. -1.
         24    2    1    2    0    0  0.14174464252E+02  0.15885969970E+02  0.65205929975E+02  0.10534192572E+03  0.79948912009E+02 0.  0.
        -13    1    3    3    0    0 -0.11419649015E+02 -0.16404901092E+02 -0.78443439535E+01  0.21472375172E+02  0.00000000000E+00 0.  1.
         14    1    3    3    0    0  0.25594113267E+02  0.32290871062E+02  0.73050273928E+02  0.83869550546E+02  0.00000000000E+00 0. -1.
          1    1    1    2  501    0 -0.14174464252E+02 -0.15885969970E+02 -0.35801757231E+02  0.41653874964E+02  0.00000000000E+00 0. -1.
<mgrwt>
<rscale>  1 0.82735168E+02</rscale>
<asrwt>0</asrwt>
<pdfrwt beam="1">  1       21 0.90455099E-02 0.82735168E+02</pdfrwt>
<pdfrwt beam="2">  1        2 0.13569229E-01 0.82735168E+02</pdfrwt>
<totfact> 0.48395813E+05</totfact>
</mgrwt>
</event>
<event>
 6    2  0.9453093E+000  0.7606782E+02  0.7546771E-02  0.1340596E+00
          2   -1    0    0  502    0 -0.00000000000E+00  0.00000000000E+00  0.14436489048E+02  0.14436489048E+02  0.00000000000E+00 0. -1.
         21   -1    0    0  501  502  0.00000000000E+00 -0.00000000000E+00 -0.16716830609E+03  0.16716830609E+03  0.00000000000E+00 0.  1.
         24    2    1    2    0    0 -0.99416781434E+01  0.19096467783E+02 -0.10977362386E+03  0.13355358904E+03  0.72957526026E+02 0.  0.
        -11    1    3    3    0    0 -0.39840118844E+02 -0.11767110210E+01 -0.60760775715E+02  0.72666991019E+02  0.00000000000E+00 0.  1.
         12    1    3    3    0    0  0.29898440701E+02  0.20273178804E+02 -0.49012848147E+02  0.60886598022E+02  0.00000000000E+00 0. -1.
          1    1    1    2  501    0  0.99416781434E+01 -0.19096467783E+02 -0.42958193179E+02  0.48051206096E+02  0.00000000000E+00 0. -1.
<mgrwt>
<rscale>  1 0.76067816E+02</rscale>
<asrwt>0</asrwt>
<pdfrwt beam="1">  1       21 0.25718200E-01 0.76067816E+02</pdfrwt>
<pdfrwt beam="2">  1        2 0.22209984E-02 0.76067816E+02</pdfrwt>
<totfact> 0.73590902E+05</totfact>
</mgrwt>
</event>
<event>
 6    2  0.9453093E+000  0.8818208E+02  0.7546771E-02  0.1307315E+00
         -3   -1    0    0    0  501 -0.00000000000E+00  0.00000000000E+00  0.30984002654E+02  0.30984002654E+02  0.00000000000E+00 0.  1.
         21   -1    0    0  501  502  0.00000000000E+00 -0.00000000000E+00 -0.39368849790E+03  0.39368849790E+03  0.00000000000E+00 0.  1.
         24    2    1    2    0    0 -0.24929743573E+02  0.26905818654E+02 -0.34923882455E+02  0.94845962335E+02  0.80191419824E+02 0.  0.
        -13    1    3    3    0    0 -0.22986730223E+02 -0.13498935647E+02  0.15002475020E+02  0.30588973286E+02  0.00000000000E+00 0.  1.
         14    1    3    3    0    0 -0.19430133501E+01  0.40404754300E+02 -0.49926357475E+02  0.64256989049E+02  0.00000000000E+00 0. -1.
         -4    1    1    2    0  502  0.24929743573E+02 -0.26905818654E+02 -0.32778061279E+03  0.32982653822E+03  0.00000000000E+00 0.  1.
<mgrwt>
<rscale>  1 0.88182079E+02</rscale>
<asrwt>0</asrwt>
<pdfrwt beam="1">  1       21 0.60567468E-01 0.88182079E+02</pdfrwt>
<pdfrwt beam="2">  1       -3 0.47667691E-02 0.88182079E+02</pdfrwt>
<totfact> 0.29079918E+04</totfact>
</mgrwt>
</event>
<event>
 6    2  0.9453093E+000  0.8851082E+02  0.7546771E-02  0.1306499E+00
         21   -1    0    0  501  502  0.00000000000E+00  0.00000000000E+00  0.62431410349E+02  0.62431410349E+02  0.00000000000E+00 0. -1.
          2   -1    0    0  502    0 -0.00000000000E+00 -0.00000000000E+00 -0.98782775595E+02  0.98782775595E+02  0.00000000000E+00 0. -1.
         24    2    1    2    0    0  0.22615989367E+02 -0.31352074411E+02 -0.67707552618E+02  0.11143822758E+03  0.79622423593E+02 0.  0.
        -13    1    3    3    0    0 -0.12915707818E+02  0.16342982287E+02  0.63491164177E+00  0.20840146143E+02  0.00000000000E+00 0.  1.
         14    1    3    3    0    0  0.35531697185E+02 -0.47695056698E+02 -0.68342464259E+02  0.90598081433E+02  0.00000000000E+00 0. -1.
          1    1    1    2  501    0 -0.22615989367E+02  0.31352074411E+02  0.31356187371E+02  0.49775958367E+02  0.00000000000E+00 0. -1.
<mgrwt>
<rscale>  1 0.88510824E+02</rscale>
<asrwt>0</asrwt>
<pdfrwt beam="1">  1       21 0.96048324E-02 0.88510824E+02</pdfrwt>
<pdfrwt beam="2">  1        2 0.15197350E-01 0.88510824E+02</pdfrwt>
<totfact> 0.38506291E+05</totfact>
</mgrwt>
</event>
<event>
 6    2  0.9453093E+000  0.8362066E+02  0.7546771E-02  0.1319080E+00
         -1   -1    0    0    0  501 -0.00000000000E+00  0.00000000000E+00  0.55295577819E+02  0.55295577819E+02  0.00000000000E+00 0.  1.
         21   -1    0    0  501  502  0.00000000000E+00 -0.00000000000E+00 -0.59925784742E+02  0.59925784742E+02  0.00000000000E+00 0. -1.
         24    2    1    2    0    0  0.58701834384E+01 -0.24857178295E+02  0.12383353799E+02  0.84532608680E+02  0.79624594897E+02 0.  0.
        -13    1    3    3    0    0  0.36460821571E+02  0.64582120578E+01  0.16547941902E+02  0.40557790791E+02  0.00000000000E+00 0.  1.
         14    1    3    3    0    0 -0.30590638133E+02 -0.31315390353E+02 -0.41645881033E+01  0.43974817889E+02  0.00000000000E+00 0. -1.
         -2    1    1    2    0  502 -0.58701834384E+01  0.24857178295E+02 -0.17013560721E+02  0.30688753881E+02  0.00000000000E+00 0.  1.
<mgrwt>
<rscale>  1 0.83620658E+02</rscale>
<asrwt>0</asrwt>
<pdfrwt beam="1">  1       21 0.92193515E-02 0.83620658E+02</pdfrwt>
<pdfrwt beam="2">  1       -1 0.85070120E-02 0.83620658E+02</pdfrwt>
<totfact> 0.60175949E+05</totfact>
</mgrwt>
</event>
<event>
 6    2  0.9453093E+000  0.9350845E+02  0.7546771E-02  0.1294571E+00
         21   -1    0    0  501  502  0.00000000000E+00  0.00000000000E+00  0.34805047734E+02  0.34805047734E+02  0.00000000000E+00 0. -1.
          2   -1    0    0  502    0 -0.00000000000E+00 -0.00000000000E+00 -0.48668714647E+03  0.48668714647E+03  0.00000000000E+00 0. -1.
         24    2    1    2    0    0  0.23834644424E+02  0.41792399955E+02 -0.46280457646E+03  0.47215665440E+03  0.80181889051E+02 0.  0.
        -13    1    3    3    0    0 -0.53485047701E+01  0.40779278964E+02 -0.99291013478E+02  0.10747214269E+03  0.00000000000E+00 0.  1.
         14    1    3    3    0    0  0.29183149194E+02  0.10131209911E+01 -0.36351356298E+03  0.36468451171E+03  0.00000000000E+00 0. -1.
          1    1    1    2  501    0 -0.23834644424E+02 -0.41792399955E+02  0.10922477719E+02  0.49335539810E+02  0.00000000000E+00 0. -1.
<mgrwt>
<rscale>  1 0.93508450E+02</rscale>
<asrwt>0</asrwt>
<pdfrwt beam="1">  1       21 0.53546228E-02 0.93508450E+02</pdfrwt>
<pdfrwt beam="2">  1        2 0.74874945E-01 0.93508450E+02</pdfrwt>
<totfact> 0.18692431E+05</totfact>
</mgrwt>
</event>
<event>
 6    2  0.9453093E+000  0.9035172E+02  0.7546771E-02  0.1302002E+00
          2   -1    0    0  502    0 -0.00000000000E+00  0.00000000000E+00  0.31521641279E+04  0.31521641279E+04  0.00000000000E+00 0. -1.
         21   -1    0    0  501  502  0.00000000000E+00 -0.00000000000E+00 -0.44432038958E+01  0.44432038958E+01  0.00000000000E+00 0. -1.
         24    2    1    2    0    0  0.18829501515E+01  0.27678830674E+02  0.31006716073E+04  0.31019877257E+04  0.85987038581E+02 0.  0.
        -11    1    3    3    0    0  0.39064811077E+02 -0.51279964560E+01  0.11112572539E+04  0.11119555028E+04  0.00000000000E+00 0.  1.
         12    1    3    3    0    0 -0.37181860926E+02  0.32806827130E+02  0.19894143535E+04  0.19900322230E+04  0.00000000000E+00 0. -1.
          1    1    1    2  501    0 -0.18829501515E+01 -0.27678830674E+02  0.47049316649E+02  0.54619606058E+02  0.00000000000E+00 0. -1.
<mgrwt>
<rscale>  1 0.90351724E+02</rscale>
<asrwt>0</asrwt>
<pdfrwt beam="1">  1       21 0.68357235E-03 0.90351724E+02</pdfrwt>
<pdfrwt beam="2">  1        2 0.48494654E+00 0.90351724E+02</pdfrwt>
<totfact> 0.15652591E+05</totfact>
</mgrwt>
</event>
<event>
 6    2  0.9453093E+000  0.8351102E+02  0.7546771E-02  0.1319373E+00
          2   -1    0    0  502    0 -0.00000000000E+00  0.00000000000E+00  0.10080731503E+04  0.10080731503E+04  0.00000000000E+00 0. -1.
         21   -1    0    0  501  502  0.00000000000E+00 -0.00000000000E+00 -0.27716463010E+01  0.27716463010E+01  0.00000000000E+00 0. -1.
         24    2    1    2    0    0 -0.18655789714E+02  0.11902577483E+02  0.80995324351E+03  0.81424710405E+03  0.80525647710E+02 0.  0.
        -11    1    3    3    0    0  0.21824668676E+02 -0.21384017432E+02  0.25476765790E+03  0.25659335899E+03  0.00000000000E+00 0.  1.
         12    1    3    3    0    0 -0.40480458390E+02  0.33286594915E+02  0.55518558561E+03  0.55765374507E+03  0.00000000000E+00 0. -1.
          1    1    1    2  501    0  0.18655789714E+02 -0.11902577483E+02  0.19534826044E+03  0.19659769250E+03  0.00000000000E+00 0. -1.
<mgrwt>
<rscale>  1 0.83511016E+02</rscale>
<asrwt>0</asrwt>
<pdfrwt beam="1">  1       21 0.42640793E-03 0.83511016E+02</pdfrwt>
<pdfrwt beam="2">  1        2 0.15508788E+00 0.83511016E+02</pdfrwt>
<totfact> 0.43509199E+06</totfact>
</mgrwt>
</event>
<event>
 6    2  0.1319035E+001  0.8761309E+02  0.7546771E-02  0.1308737E+00
         21   -1    0    0  501  502  0.00000000000E+00  0.00000000000E+00  0.67319654259E+01  0.67319654259E+01  0.00000000000E+00 0.  1.
         -1   -1    0    0    0  501 -0.00000000000E+00 -0.00000000000E+00 -0.96685511006E+03  0.96685511006E+03  0.00000000000E+00 0.  1.
         24    2    1    2    0    0 -0.89385735817E+01 -0.30055865616E+02 -0.91168534415E+03  0.91588548390E+03  0.81809533238E+02 0.  0.
        -11    1    3    3    0    0 -0.32934257148E+00 -0.37796610348E+02 -0.89368122233E+03  0.89448019507E+03  0.00000000000E+00 0.  1.
         12    1    3    3    0    0 -0.86092310102E+01  0.77407447324E+01 -0.18004121815E+02  0.21405288831E+02  0.00000000000E+00 0. -1.
         -2    1    1    2    0  502  0.89385735817E+01  0.30055865616E+02 -0.48437800483E+02  0.57701591583E+02  0.00000000000E+00 0.  1.
<mgrwt>
<rscale>  1 0.87613086E+02</rscale>
<asrwt>0</asrwt>
<pdfrwt beam="1">  1       21 0.10356869E-02 0.87613086E+02</pdfrwt>
<pdfrwt beam="2">  1       -1 0.14874696E+00 0.87613086E+02</pdfrwt>
<totfact> 0.12458166E+05</totfact>
</mgrwt>
</event>
<event>
 6    2  0.9453093E+000  0.8402722E+02  0.7546771E-02  0.1317996E+00
         21   -1    0    0  501  502  0.00000000000E+00  0.00000000000E+00  0.23718261238E+02  0.23718261238E+02  0.00000000000E+00 0. -1.
          2   -1    0    0  502    0 -0.00000000000E+00 -0.00000000000E+00 -0.91984067796E+03  0.91984067796E+03  0.00000000000E+00 0. -1.
         24    2    1    2    0    0 -0.78344552474E+01  0.20878908450E+02 -0.91220334448E+03  0.91606523547E+03  0.81013989251E+02 0.  0.
        -11    1    3    3    0    0  0.16487856028E+02 -0.18900755807E+02 -0.12552259052E+03  0.12800394017E+03  0.00000000000E+00 0.  1.
         12    1    3    3    0    0 -0.24322311275E+02  0.39779664257E+02 -0.78668075395E+03  0.78806129530E+03  0.00000000000E+00 0. -1.
          1    1    1    2  501    0  0.78344552474E+01 -0.20878908450E+02  0.16080927757E+02  0.27493703727E+02  0.00000000000E+00 0. -1.
<mgrwt>
<rscale>  1 0.84027222E+02</rscale>
<asrwt>0</asrwt>
<pdfrwt beam="1">  1       21 0.36489637E-02 0.84027222E+02</pdfrwt>
<pdfrwt beam="2">  1        2 0.14151393E+00 0.84027222E+02</pdfrwt>
<totfact> 0.16746977E+05</totfact>
</mgrwt>
</event>
<event>
 6    2  0.9453093E+000  0.9095290E+02  0.7546771E-02  0.1300560E+00
          2   -1    0    0  502    0 -0.00000000000E+00  0.00000000000E+00  0.22665500856E+04  0.22665500856E+04  0.00000000000E+00 0. -1.
         21   -1    0    0  501  502  0.00000000000E+00 -0.00000000000E+00 -0.16064522280E+01  0.16064522280E+01  0.00000000000E+00 0. -1.
         24    2    1    2    0    0  0.11109386494E+00 -0.27203788254E+02  0.19141536889E+04  0.19163133290E+04  0.86789238027E+02 0.  0.
        -11    1    3    3    0    0 -0.42383461647E+02 -0.53083524944E+01  0.81037511737E+03  0.81150007226E+03  0.00000000000E+00 0.  1.
         12    1    3    3    0    0  0.42494555512E+02 -0.21895435759E+02  0.11037785715E+04  0.11048132567E+04  0.00000000000E+00 0. -1.
          1    1    1    2  501    0 -0.11109386494E+00  0.27203788254E+02  0.35078994450E+03  0.35184320883E+03  0.00000000000E+00 0. -1.
<mgrwt>
<rscale>  1 0.90952901E+02</rscale>
<asrwt>0</asrwt>
<pdfrwt beam="1">  1       21 0.24714831E-03 0.90952901E+02</pdfrwt>
<pdfrwt beam="2">  1        2 0.34869746E+00 0.90952901E+02</pdfrwt>
<totfact> 0.22385147E+06</totfact>
</mgrwt>
</event>
<event>
 6    2  0.9453093E+000  0.8390190E+02  0.7546771E-02  0.1318329E+00
         -3   -1    0    0    0  501 -0.00000000000E+00  0.00000000000E+00  0.26955145774E+02  0.26955145774E+02  0.00000000000E+00 0.  1.
         21   -1    0    0  501  502  0.00000000000E+00 -0.00000000000E+00 -0.45082338446E+03  0.45082338446E+03  0.00000000000E+00 0.  1.
         24    2    1    2    0    0 -0.17856194845E+02 -0.11892272645E+02 -0.39365585088E+02  0.92677815528E+02  0.81112627616E+02 0.  0.
        -11    1    3    3    0    0 -0.10853288812E+02 -0.11985815026E+02  0.23993187241E+02  0.28933141444E+02  0.00000000000E+00 0.  1.
         12    1    3    3    0    0 -0.70029060339E+01  0.93542380450E-01 -0.63358772328E+02  0.63744674084E+02  0.00000000000E+00 0. -1.
         -4    1    1    2    0  502  0.17856194845E+02  0.11892272645E+02 -0.38450265360E+03  0.38510071471E+03  0.00000000000E+00 0.  1.
<mgrwt>
<rscale>  1 0.83901896E+02</rscale>
<asrwt>0</asrwt>
<pdfrwt beam="1">  1       21 0.69357443E-01 0.83901896E+02</pdfrwt>
<pdfrwt beam="2">  1       -3 0.41469455E-02 0.83901896E+02</pdfrwt>
<totfact> 0.26958055E+04</totfact>
</mgrwt>
</event>
<event>
 6    2  0.9453093E+000  0.2085896E+03  0.7546771E-02  0.1142688E+00
         21   -1    0    0  501  502  0.00000000000E+00  0.00000000000E+00  0.43396247108E+02  0.43396247108E+02  0.00000000000E+00 0. -1.
          2   -1    0    0  502    0 -0.00000000000E+00 -0.00000000000E+00 -0.97171622586E+03  0.97171622586E+03  0.00000000000E+00 0. -1.
         24    2    1    2    0    0 -0.14014202343E+03  0.14454757924E+03 -0.50363809513E+03  0.54512471603E+03  0.54551221519E+02 0.  0.
        -13    1    3    3    0    0 -0.30404039326E+02  0.37143296377E+02 -0.68140618581E+02  0.83349708900E+02  0.00000000000E+00 0.  1.
         14    1    3    3    0    0 -0.10973798410E+03  0.10740428286E+03 -0.43549747655E+03  0.46177500713E+03  0.00000000000E+00 0. -1.
          1    1    1    2  501    0  0.14014202343E+03 -0.14454757924E+03 -0.42468188362E+03  0.46998775694E+03  0.00000000000E+00 0. -1.
<mgrwt>
<rscale>  1 0.20858961E+03</rscale>
<asrwt>0</asrwt>
<pdfrwt beam="1">  1       21 0.66763458E-02 0.20858961E+03</pdfrwt>
<pdfrwt beam="2">  1        2 0.14949480E+00 0.20858961E+03</pdfrwt>
<totfact> 0.56930806E+04</totfact>
</mgrwt>
</event>
<event>
 6    2  0.9453093E+000  0.9676022E+02  0.7546771E-02  0.1287260E+00
         21   -1    0    0  501  502  0.00000000000E+00  0.00000000000E+00  0.11922602656E+02  0.11922602656E+02  0.00000000000E+00 0. -1.
          2   -1    0    0  502    0 -0.00000000000E+00 -0.00000000000E+00 -0.55746467121E+03  0.55746467121E+03  0.00000000000E+00 0. -1.
         24    2    1    2    0    0  0.13601720928E+02 -0.43376770971E+02 -0.47979531505E+03  0.48945488576E+03  0.85416566176E+02 0.  0.
        -13    1    3    3    0    0  0.27686987184E+02 -0.15706831280E+02 -0.55159811528E+02  0.63685780328E+02  0.00000000000E+00 0.  1.
         14    1    3    3    0    0 -0.14085266256E+02 -0.27669939691E+02 -0.42463550353E+03  0.42576910543E+03  0.00000000000E+00 0. -1.
          1    1    1    2  501    0 -0.13601720928E+02  0.43376770971E+02 -0.65746753496E+02  0.79932388100E+02  0.00000000000E+00 0. -1.
<mgrwt>
<rscale>  1 0.96760223E+02</rscale>
<asrwt>0</asrwt>
<pdfrwt beam="1">  1       21 0.18342461E-02 0.96760223E+02</pdfrwt>
<pdfrwt beam="2">  1        2 0.85763818E-01 0.96760223E+02</pdfrwt>
<totfact> 0.92838162E+05</totfact>
</mgrwt>
</event>
<event>
 6    2  0.9453093E+000  0.1036515E+03  0.7546771E-02  0.1272799E+00
         21   -1    0    0  501  502  0.00000000000E+00  0.00000000000E+00  0.19174786211E+01  0.19174786211E+01  0.00000000000E+00 0. -1.
          2   -1    0    0  502    0 -0.00000000000E+00 -0.00000000000E+00 -0.30442658227E+04  0.30442658227E+04  0.00000000000E+00 0. -1.
         24    2    1    2    0    0 -0.23761926852E+02 -0.18266304879E+02 -0.28098462356E+04  0.28117573696E+04  0.99223737958E+02 0.  0.
        -11    1    3    3    0    0  0.14765529924E+02  0.10160877026E+02 -0.10727794135E+03  0.10876498056E+03  0.00000000000E+00 0.  1.
         12    1    3    3    0    0 -0.38527456776E+02 -0.28427181906E+02 -0.27025682943E+04  0.27029923890E+04  0.00000000000E+00 0. -1.
          1    1    1    2  501    0  0.23761926852E+02  0.18266304879E+02 -0.23250210840E+03  0.23442593174E+03  0.00000000000E+00 0. -1.
<mgrwt>
<rscale>  1 0.10365152E+03</rscale>
<asrwt>0</asrwt>
<pdfrwt beam="1">  1       21 0.29499593E-03 0.10365152E+03</pdfrwt>
<pdfrwt beam="2">  1        2 0.46834982E+00 0.10365152E+03</pdfrwt>
<totfact> 0.65404063E+05</totfact>
</mgrwt>
</event>
<event>
 6    2  0.9453093E+000  0.8255155E+02  0.7546771E-02  0.1321963E+00
          2   -1    0    0  502    0 -0.00000000000E+00  0.00000000000E+00  0.97686977246E+03  0.97686977246E+03  0.00000000000E+00 0. -1.
         21   -1    0    0  501  502  0.00000000000E+00 -0.00000000000E+00 -0.28477439041E+01  0.28477439041E+01  0.00000000000E+00 0.  1.
         24    2    1    2    0    0  0.16250409091E+02  0.12339909391E+02  0.68086390952E+03  0.68585014506E+03  0.79990055852E+02 0.  0.
        -11    1    3    3    0    0  0.23995532297E+02 -0.25547415358E+00  0.57442941887E+02  0.62253854578E+02  0.00000000000E+00 0.  1.
         12    1    3    3    0    0 -0.77451232061E+01  0.12595383545E+02  0.62342096763E+03  0.62359629048E+03  0.00000000000E+00 0. -1.
          1    1    1    2  501    0 -0.16250409091E+02 -0.12339909391E+02  0.29315811903E+03  0.29386737130E+03  0.00000000000E+00 0. -1.
<mgrwt>
<rscale>  1 0.82551549E+02</rscale>
<asrwt>0</asrwt>
<pdfrwt beam="1">  1       21 0.43811523E-03 0.82551549E+02</pdfrwt>
<pdfrwt beam="2">  1        2 0.15028739E+00 0.82551549E+02</pdfrwt>
<totfact> 0.43486164E+06</totfact>
</mgrwt>
</event>
<event>
 6    2  0.9453093E+000  0.8435361E+02  0.7546771E-02  0.1317132E+00
          2   -1    0    0  502    0 -0.00000000000E+00  0.00000000000E+00  0.30314388398E+03  0.30314388398E+03  0.00000000000E+00 0. -1.
         21   -1    0    0  501  502  0.00000000000E+00 -0.00000000000E+00 -0.10242077059E+03  0.10242077059E+03  0.00000000000E+00 0. -1.
         24    2    1    2    0    0 -0.24410213561E+02  0.58244214577E+01  0.29561281637E+03  0.30741253721E+03  0.80534144421E+02 0.  0.
        -11    1    3    3    0    0 -0.22302709413E+01  0.32983045856E+02  0.54345482160E+02  0.63610430384E+02  0.00000000000E+00 0.  1.
         12    1    3    3    0    0 -0.22179942620E+02 -0.27158624399E+02  0.24126733422E+03  0.24380210683E+03  0.00000000000E+00 0. -1.
          1    1    1    2  501    0  0.24410213561E+02 -0.58244214577E+01 -0.94889702980E+02  0.98152117364E+02  0.00000000000E+00 0. -1.
<mgrwt>
<rscale>  1 0.84353606E+02</rscale>
<asrwt>0</asrwt>
<pdfrwt beam="1">  1       21 0.15757042E-01 0.84353606E+02</pdfrwt>
<pdfrwt beam="2">  1        2 0.46637520E-01 0.84353606E+02</pdfrwt>
<totfact> 0.47639147E+04</totfact>
</mgrwt>
</event>
<event>
 6    2  0.9453093E+000  0.9747622E+02  0.7546771E-02  0.1285694E+00
          4   -1    0    0  502    0 -0.00000000000E+00  0.00000000000E+00  0.66905266129E+01  0.66905266129E+01  0.00000000000E+00 0. -1.
         21   -1    0    0  501  502  0.00000000000E+00 -0.00000000000E+00 -0.92573814799E+03  0.92573814799E+03  0.00000000000E+00 0.  1.
         24    2    1    2    0    0  0.50646267777E+02  0.23714866380E+02 -0.67848508415E+03  0.68545140106E+03  0.79838427343E+02 0.  0.
        -13    1    3    3    0    0  0.75813063876E+01 -0.17698240675E+01 -0.50063644344E+03  0.50069697122E+03  0.00000000000E+00 0.  1.
         14    1    3    3    0    0  0.43064961389E+02  0.25484690448E+02 -0.17784864071E+03  0.18475442985E+03  0.00000000000E+00 0. -1.
          3    1    1    2  501    0 -0.50646267777E+02 -0.23714866380E+02 -0.24056253722E+03  0.24697727353E+03  0.00000000000E+00 0. -1.
<mgrwt>
<rscale>  1 0.97476222E+02</rscale>
<asrwt>0</asrwt>
<pdfrwt beam="1">  1       21 0.14242122E+00 0.97476222E+02</pdfrwt>
<pdfrwt beam="2">  1        4 0.10293120E-02 0.97476222E+02</pdfrwt>
<totfact> 0.38656411E+04</totfact>
</mgrwt>
</event>
<event>
 6    2  0.9453093E+000  0.1009321E+03  0.7546771E-02  0.1278348E+00
          2   -1    0    0  502    0 -0.00000000000E+00  0.00000000000E+00  0.25138967013E+03  0.25138967013E+03  0.00000000000E+00 0. -1.
         21   -1    0    0  501  502  0.00000000000E+00 -0.00000000000E+00 -0.20985757771E+02  0.20985757771E+02  0.00000000000E+00 0.  1.
         24    2    1    2    0    0  0.35724166728E+02  0.24649325651E+02  0.17467316441E+03  0.20173746637E+03  0.91123463639E+02 0.  0.
        -13    1    3    3    0    0  0.35986520130E+02  0.52167568874E+02  0.74286835510E+02  0.97647420874E+02  0.00000000000E+00 0.  1.
         14    1    3    3    0    0 -0.26235340252E+00 -0.27518243223E+02  0.10038632890E+03  0.10409004549E+03  0.00000000000E+00 0. -1.
          1    1    1    2  501    0 -0.35724166728E+02 -0.24649325651E+02  0.55730747947E+02  0.70637961537E+02  0.00000000000E+00 0. -1.
<mgrwt>
<rscale>  1 0.10093211E+03</rscale>
<asrwt>0</asrwt>
<pdfrwt beam="1">  1       21 0.32285783E-02 0.10093211E+03</pdfrwt>
<pdfrwt beam="2">  1        2 0.38675332E-01 0.10093211E+03</pdfrwt>
<totfact> 0.87052818E+05</totfact>
</mgrwt>
</event>
<event>
 6    2  0.9453093E+000  0.8929811E+02  0.7546771E-02  0.1304560E+00
         21   -1    0    0  501  502  0.00000000000E+00  0.00000000000E+00  0.28358860978E+02  0.28358860978E+02  0.00000000000E+00 0. -1.
         -1   -1    0    0    0  501 -0.00000000000E+00 -0.00000000000E+00 -0.14288850340E+03  0.14288850340E+03  0.00000000000E+00 0.  1.
         24    2    1    2    0    0  0.27840993287E+02 -0.25733908086E+02 -0.83502342099E+02  0.12225707659E+03  0.80850458916E+02 0.  0.
        -11    1    3    3    0    0 -0.65809950266E+01 -0.46783049912E+02 -0.56772347351E+02  0.73858396126E+02  0.00000000000E+00 0.  1.
         12    1    3    3    0    0  0.34421988313E+02  0.21049141826E+02 -0.26729994748E+02  0.48398680460E+02  0.00000000000E+00 0. -1.
         -2    1    1    2    0  502 -0.27840993287E+02  0.25733908086E+02 -0.31027300323E+02  0.48990287791E+02  0.00000000000E+00 0.  1.
<mgrwt>
<rscale>  1 0.89298105E+02</rscale>
<asrwt>0</asrwt>
<pdfrwt beam="1">  1       21 0.43629016E-02 0.89298105E+02</pdfrwt>
<pdfrwt beam="2">  1       -1 0.21982847E-01 0.89298105E+02</pdfrwt>
<totfact> 0.49494262E+05</totfact>
</mgrwt>
</event>
<event>
 6    2  0.9453093E+000  0.8565450E+02  0.7546771E-02  0.1313730E+00
          4   -1    0    0  502    0 -0.00000000000E+00  0.00000000000E+00  0.67200754411E+03  0.67200754411E+03  0.00000000000E+00 0. -1.
         21   -1    0    0  501  502  0.00000000000E+00 -0.00000000000E+00 -0.61998938824E+01  0.61998938824E+01  0.00000000000E+00 0.  1.
         24    2    1    2    0    0  0.21293721049E+02  0.25878661168E+02  0.33772851057E+03  0.34842106845E+03  0.78826178554E+02 0.  0.
        -11    1    3    3    0    0  0.12235111150E+02  0.24000206615E+01  0.31003565284E+01  0.12847966946E+02  0.00000000000E+00 0.  1.
         12    1    3    3    0    0  0.90586098982E+01  0.23478640506E+02  0.33462815404E+03  0.33557310150E+03  0.00000000000E+00 0. -1.
          3    1    1    2  501    0 -0.21293721049E+02 -0.25878661168E+02  0.32807913966E+03  0.32978636955E+03  0.00000000000E+00 0. -1.
<mgrwt>
<rscale>  1 0.85654504E+02</rscale>
<asrwt>0</asrwt>
<pdfrwt beam="1">  1       21 0.95383036E-03 0.85654504E+02</pdfrwt>
<pdfrwt beam="2">  1        4 0.10338572E+00 0.85654504E+02</pdfrwt>
<totfact> 0.11884607E+05</totfact>
</mgrwt>
</event>
<event>
 6    2  0.9453093E+000  0.8395740E+02  0.7546771E-02  0.1318182E+00
         21   -1    0    0  501  502  0.00000000000E+00  0.00000000000E+00  0.52886940024E+01  0.52886940024E+01  0.00000000000E+00 0.  1.
          2   -1    0    0  502    0 -0.00000000000E+00 -0.00000000000E+00 -0.64431405187E+03  0.64431405187E+03  0.00000000000E+00 0. -1.
         24    2    1    2    0    0 -0.73093149922E+01  0.21854747044E+02 -0.58313469693E+03  0.58914762173E+03  0.80732827171E+02 0.  0.
        -13    1    3    3    0    0 -0.45707069948E+01  0.48185223968E+02 -0.23084105940E+03  0.23586076799E+03  0.00000000000E+00 0.  1.
         14    1    3    3    0    0 -0.27386079973E+01 -0.26330476923E+02 -0.35229363752E+03  0.35328685374E+03  0.00000000000E+00 0. -1.
          1    1    1    2  501    0  0.73093149922E+01 -0.21854747044E+02 -0.55890660945E+02  0.60455124141E+02  0.00000000000E+00 0. -1.
<mgrwt>
<rscale>  1 0.83957403E+02</rscale>
<asrwt>0</asrwt>
<pdfrwt beam="1">  1       21 0.81364475E-03 0.83957403E+02</pdfrwt>
<pdfrwt beam="2">  1        2 0.99125298E-01 0.83957403E+02</pdfrwt>
<totfact> 0.27946304E+06</totfact>
</mgrwt>
</event>
<event>
 6    2  0.9453093E+000  0.9984658E+02  0.7546771E-02  0.1280619E+00
          4   -1    0    0  502    0 -0.00000000000E+00  0.00000000000E+00  0.11350252142E+02  0.11350252142E+02  0.00000000000E+00 0. -1.
         21   -1    0    0  501  502  0.00000000000E+00 -0.00000000000E+00 -0.81587608814E+03  0.81587608814E+03  0.00000000000E+00 0.  1.
         24    2    1    2    0    0 -0.57733798574E+02  0.14091328204E+02 -0.69918449290E+03  0.70627777438E+03  0.80234546435E+02 0.  0.
        -11    1    3    3    0    0 -0.40517085705E+02  0.33835364467E+02 -0.63147348409E+03  0.63367596391E+03  0.00000000000E+00 0.  1.
         12    1    3    3    0    0 -0.17216712868E+02 -0.19744036262E+02 -0.67711008803E+02  0.72601810467E+02  0.00000000000E+00 0. -1.
          3    1    1    2  501    0  0.57733798574E+02 -0.14091328204E+02 -0.10534134310E+03  0.12094856590E+03  0.00000000000E+00 0. -1.
<mgrwt>
<rscale>  1 0.99846580E+02</rscale>
<asrwt>0</asrwt>
<pdfrwt beam="1">  1       21 0.12551940E+00 0.99846580E+02</pdfrwt>
<pdfrwt beam="2">  1        4 0.17461926E-02 0.99846580E+02</pdfrwt>
<totfact> 0.23867394E+04</totfact>
</mgrwt>
</event>
<event>
 6    2  0.9453093E+000  0.8313482E+02  0.7546771E-02  0.1320384E+00
         21   -1    0    0  501  502  0.00000000000E+00  0.00000000000E+00  0.80918583064E+01  0.80918583064E+01  0.00000000000E+00 0.  1.
          4   -1    0    0  502    0 -0.00000000000E+00 -0.00000000000E+00 -0.37192854510E+03  0.37192854510E+03  0.00000000000E+00 0. -1.
         24    2    1    2    0    0  0.56575114311E+01  0.21692995816E+02 -0.23556746812E+03  0.24980678675E+03  0.80055013383E+02 0.  0.
        -13    1    3    3    0    0 -0.12889777053E+02 -0.25461518485E+02 -0.51348226323E+02  0.58745856216E+02  0.00000000000E+00 0.  1.
         14    1    3    3    0    0  0.18547288484E+02  0.47154514300E+02 -0.18421924179E+03  0.19106093053E+03  0.00000000000E+00 0. -1.
          3    1    1    2  501    0 -0.56575114311E+01 -0.21692995816E+02 -0.12826921868E+03  0.13021361666E+03  0.00000000000E+00 0. -1.
<mgrwt>
<rscale>  1 0.83134822E+02</rscale>
<asrwt>0</asrwt>
<pdfrwt beam="1">  1       21 0.12449015E-02 0.83134822E+02</pdfrwt>
<pdfrwt beam="2">  1        4 0.57219766E-01 0.83134822E+02</pdfrwt>
<totfact> 0.28173574E+05</totfact>
</mgrwt>
</event>
<event>
 6    2  0.9453093E+000  0.1200713E+03  0.7546771E-02  0.1242979E+00
         -3   -1    0    0    0  501 -0.00000000000E+00  0.00000000000E+00  0.73865484136E+02  0.73865484136E+02  0.00000000000E+00 0.  1.
         21   -1    0    0  501  502  0.00000000000E+00 -0.00000000000E+00 -0.16976070127E+03  0.16976070127E+03  0.00000000000E+00 0. -1.
         24    2    1    2    0    0  0.62999833133E+02  0.63956174204E+02 -0.96193649942E+02  0.15385168872E+03  0.79735516803E+02 0.  0.
        -13    1    3    3    0    0  0.25701703806E+01  0.31777453592E+02 -0.76088051654E+02  0.82497296544E+02  0.00000000000E+00 0.  1.
         14    1    3    3    0    0  0.60429662752E+02  0.32178720612E+02 -0.20105598288E+02  0.71354392178E+02  0.00000000000E+00 0. -1.
         -4    1    1    2    0  502 -0.62999833133E+02 -0.63956174204E+02  0.29843280368E+00  0.89774496689E+02  0.00000000000E+00 0.  1.
<mgrwt>
<rscale>  1 0.12007133E+03</rscale>
<asrwt>0</asrwt>
<pdfrwt beam="1">  1       21 0.26117031E-01 0.12007133E+03</pdfrwt>
<pdfrwt beam="2">  1       -3 0.11363921E-01 0.12007133E+03</pdfrwt>
<totfact> 0.39383083E+04</totfact>
</mgrwt>
</event>
<event>
 6    2  0.9453093E+000  0.8651489E+02  0.7546771E-02  0.1311518E+00
         -1   -1    0    0    0  501 -0.00000000000E+00  0.00000000000E+00  0.46586743048E+02  0.46586743048E+02  0.00000000000E+00 0.  1.
         21   -1    0    0  501  502  0.00000000000E+00 -0.00000000000E+00 -0.78043641945E+02  0.78043641945E+02  0.00000000000E+00 0.  1.
         24    2    1    2    0    0 -0.31765127252E+02 -0.54311819925E+01 -0.12980073886E+02  0.87483189815E+02  0.80288885500E+02 0.  0.
        -11    1    3    3    0    0 -0.36728280246E+02 -0.24348736464E+02  0.20583959556E+02  0.48636682948E+02  0.00000000000E+00 0.  1.
         12    1    3    3    0    0  0.49631529937E+01  0.18917554471E+02 -0.33564033442E+02  0.38846506867E+02  0.00000000000E+00 0. -1.
         -2    1    1    2    0  502  0.31765127252E+02  0.54311819925E+01 -0.18476825011E+02  0.37147195179E+02  0.00000000000E+00 0.  1.
<mgrwt>
<rscale>  1 0.86514890E+02</rscale>
<asrwt>0</asrwt>
<pdfrwt beam="1">  1       21 0.12006714E-01 0.86514890E+02</pdfrwt>
<pdfrwt beam="2">  1       -1 0.71671913E-02 0.86514890E+02</pdfrwt>
<totfact> 0.49283262E+05</totfact>
</mgrwt>
</event>
<event>
 6    2  0.9453093E+000  0.7355562E+02  0.7546771E-02  0.1348403E+00
          2   -1    0    0  502    0 -0.00000000000E+00  0.00000000000E+00  0.17370084281E+03  0.17370084281E+03  0.00000000000E+00 0. -1.
         21   -1    0    0  501  502  0.00000000000E+00 -0.00000000000E+00 -0.36891762213E+02  0.36891762213E+02  0.00000000000E+00 0. -1.
         24    2    1    2    0    0 -0.23993186609E+02 -0.63212965082E+01  0.16033392052E+03  0.17640123350E+03  0.69244475003E+02 0.  0.
        -11    1    3    3    0    0 -0.34050509900E+02  0.44719698699E+01  0.31112182861E+02  0.46340086981E+02  0.00000000000E+00 0.  1.
         12    1    3    3    0    0  0.10057323292E+02 -0.10793266378E+02  0.12922173765E+03  0.13006114652E+03  0.00000000000E+00 0. -1.
          1    1    1    2  501    0  0.23993186609E+02  0.63212965082E+01 -0.23524839922E+02  0.34191371522E+02  0.00000000000E+00 0. -1.
<mgrwt>
<rscale>  1 0.73555619E+02</rscale>
<asrwt>0</asrwt>
<pdfrwt beam="1">  1       21 0.56756558E-02 0.73555619E+02</pdfrwt>
<pdfrwt beam="2">  1        2 0.26723206E-01 0.73555619E+02</pdfrwt>
<totfact> 0.49296613E+05</totfact>
</mgrwt>
</event>
<event>
 6    2  0.9453093E+000  0.1320281E+03  0.7546771E-02  0.1224477E+00
          2   -1    0    0  502    0 -0.00000000000E+00  0.00000000000E+00  0.59631821254E+03  0.59631821254E+03  0.00000000000E+00 0. -1.
         21   -1    0    0  501  502  0.00000000000E+00 -0.00000000000E+00 -0.26089451995E+02  0.26089451995E+02  0.00000000000E+00 0. -1.
         24    2    1    2    0    0  0.26981921339E+02  0.10075287729E+03  0.41414555267E+03  0.43468144329E+03  0.80945981885E+02 0.  0.
        -13    1    3    3    0    0 -0.21878345749E+02  0.57591196813E+01  0.44653977288E+02  0.50058037914E+02  0.00000000000E+00 0.  1.
         14    1    3    3    0    0  0.48860267088E+02  0.94993757612E+02  0.36949157538E+03  0.38462340538E+03  0.00000000000E+00 0. -1.
          1    1    1    2  501    0 -0.26981921339E+02 -0.10075287729E+03  0.15608320788E+03  0.18772622125E+03  0.00000000000E+00 0. -1.
<mgrwt>
<rscale>  1 0.13202810E+03</rscale>
<asrwt>0</asrwt>
<pdfrwt beam="1">  1       21 0.40137623E-02 0.13202810E+03</pdfrwt>
<pdfrwt beam="2">  1        2 0.91741253E-01 0.13202810E+03</pdfrwt>
<totfact> 0.24550239E+05</totfact>
</mgrwt>
</event>
<event>
 6    2  0.9453093E+000  0.8468510E+02  0.7546771E-02  0.1316258E+00
         21   -1    0    0  501  502  0.00000000000E+00  0.00000000000E+00  0.32359196448E+01  0.32359196448E+01  0.00000000000E+00 0.  1.
          2   -1    0    0  502    0 -0.00000000000E+00 -0.00000000000E+00 -0.11970834320E+04  0.11970834320E+04  0.00000000000E+00 0. -1.
         24    2    1    2    0    0  0.21963048533E+02 -0.95676963970E+01 -0.11068117506E+04  0.11100467637E+04  0.81225919214E+02 0.  0.
        -11    1    3    3    0    0  0.36988545093E+02 -0.32664962872E+01 -0.22192788327E+03  0.22501290594E+03  0.00000000000E+00 0.  1.
         12    1    3    3    0    0 -0.15025496561E+02 -0.63012001098E+01 -0.88488386737E+03  0.88503385777E+03  0.00000000000E+00 0. -1.
          1    1    1    2  501    0 -0.21963048533E+02  0.95676963970E+01 -0.87035761719E+02  0.90272587939E+02  0.00000000000E+00 0. -1.
<mgrwt>
<rscale>  1 0.84685101E+02</rscale>
<asrwt>0</asrwt>
<pdfrwt beam="1">  1       21 0.49783344E-03 0.84685101E+02</pdfrwt>
<pdfrwt beam="2">  1        2 0.18416681E+00 0.84685101E+02</pdfrwt>
<totfact> 0.26961836E+06</totfact>
</mgrwt>
</event>
<event>
 6    2  0.9453093E+000  0.8491451E+02  0.7546771E-02  0.1315656E+00
          2   -1    0    0  502    0 -0.00000000000E+00  0.00000000000E+00  0.16092772925E+04  0.16092772925E+04  0.00000000000E+00 0. -1.
         21   -1    0    0  501  502  0.00000000000E+00 -0.00000000000E+00 -0.24560511618E+01  0.24560511618E+01  0.00000000000E+00 0.  1.
         24    2    1    2    0    0  0.23460366008E+02  0.41396768713E+01  0.14946560419E+04  0.14970661833E+04  0.81504281659E+02 0.  0.
        -13    1    3    3    0    0 -0.29234404403E+02  0.39800041454E+01  0.36910999840E+03  0.37028729624E+03  0.00000000000E+00 0.  1.
         14    1    3    3    0    0  0.52694770411E+02  0.15967272592E+00  0.11255460435E+04  0.11267788871E+04  0.00000000000E+00 0. -1.
          1    1    1    2  501    0 -0.23460366008E+02 -0.41396768713E+01  0.11216519945E+03  0.11466716036E+03  0.00000000000E+00 0. -1.
<mgrwt>
<rscale>  1 0.84914508E+02</rscale>
<asrwt>0</asrwt>
<pdfrwt beam="1">  1       21 0.37785531E-03 0.84914508E+02</pdfrwt>
<pdfrwt beam="2">  1        2 0.24758028E+00 0.84914508E+02</pdfrwt>
<totfact> 0.25102123E+06</totfact>
</mgrwt>
</event>
<event>
 6    2  0.9453093E+000  0.8874786E+02  0.7546771E-02  0.1305913E+00
         -3   -1    0    0    0  501 -0.00000000000E+00  0.00000000000E+00  0.62423102911E+02  0.62423102911E+02  0.00000000000E+00 0.  1.
         21   -1    0    0  501  502  0.00000000000E+00 -0.00000000000E+00 -0.21157277501E+03  0.21157277501E+03  0.00000000000E+00 0.  1.
         24    2    1    2    0    0 -0.12354002564E+02  0.33125298265E+02  0.28228211107E+02  0.93129020219E+02  0.81401939413E+02 0.  0.
        -11    1    3    3    0    0  0.66229564267E+01 -0.59046002994E+01  0.45546238523E+02  0.46402453600E+02  0.00000000000E+00 0.  1.
         12    1    3    3    0    0 -0.18976958990E+02  0.39029898564E+02 -0.17318027416E+02  0.46726566619E+02  0.00000000000E+00 0. -1.
         -4    1    1    2    0  502  0.12354002564E+02 -0.33125298265E+02 -0.17737788321E+03  0.18086685770E+03  0.00000000000E+00 0.  1.
<mgrwt>
<rscale>  1 0.88747859E+02</rscale>
<asrwt>0</asrwt>
<pdfrwt beam="1">  1       21 0.32549658E-01 0.88747859E+02</pdfrwt>
<pdfrwt beam="2">  1       -3 0.96035542E-02 0.88747859E+02</pdfrwt>
<totfact> 0.33163546E+04</totfact>
</mgrwt>
</event>
<event>
 6    2  0.9453093E+000  0.1067610E+03  0.7546771E-02  0.1266688E+00
         21   -1    0    0  501  502  0.00000000000E+00  0.00000000000E+00  0.24509065428E+02  0.24509065428E+02  0.00000000000E+00 0. -1.
          2   -1    0    0  502    0 -0.00000000000E+00 -0.00000000000E+00 -0.33591898564E+03  0.33591898564E+03  0.00000000000E+00 0. -1.
         24    2    1    2    0    0  0.63324966280E+02 -0.34185079534E+02 -0.15444385605E+03  0.18775200665E+03  0.78862160207E+02 0.  0.
        -11    1    3    3    0    0  0.64065638822E+02 -0.55382360249E+02 -0.11317099773E+03  0.14134810445E+03  0.00000000000E+00 0.  1.
         12    1    3    3    0    0 -0.74067254197E+00  0.21197280715E+02 -0.41272858315E+02  0.46403902196E+02  0.00000000000E+00 0. -1.
          1    1    1    2  501    0 -0.63324966280E+02  0.34185079534E+02 -0.15696606417E+03  0.17267604442E+03  0.00000000000E+00 0. -1.
<mgrwt>
<rscale>  1 0.10676100E+03</rscale>
<asrwt>0</asrwt>
<pdfrwt beam="1">  1       21 0.37706260E-02 0.10676100E+03</pdfrwt>
<pdfrwt beam="2">  1        2 0.51679836E-01 0.10676100E+03</pdfrwt>
<totfact> 0.49996237E+05</totfact>
</mgrwt>
</event>
<event>
 6    2  0.9453093E+000  0.1180954E+03  0.7546771E-02  0.1246272E+00
         21   -1    0    0  501  502  0.00000000000E+00  0.00000000000E+00  0.66173529445E+02  0.66173529445E+02  0.00000000000E+00 0.  1.
          2   -1    0    0  502    0 -0.00000000000E+00 -0.00000000000E+00 -0.16204599153E+03  0.16204599153E+03  0.00000000000E+00 0. -1.
         24    2    1    2    0    0  0.29752004521E+02  0.82155749859E+02 -0.40847564144E+02  0.12496019500E+03  0.79446698036E+02 0.  0.
        -11    1    3    3    0    0  0.46178736716E+02  0.76074771543E+02 -0.10088712456E+02  0.89563545648E+02  0.00000000000E+00 0.  1.
         12    1    3    3    0    0 -0.16426732195E+02  0.60809783163E+01 -0.30758851688E+02  0.35396649348E+02  0.00000000000E+00 0. -1.
          1    1    1    2  501    0 -0.29752004521E+02 -0.82155749859E+02 -0.55024897937E+02  0.10325932598E+03  0.00000000000E+00 0. -1.
<mgrwt>
<rscale>  1 0.11809541E+03</rscale>
<asrwt>0</asrwt>
<pdfrwt beam="1">  1       21 0.10180543E-01 0.11809541E+03</pdfrwt>
<pdfrwt beam="2">  1        2 0.24930152E-01 0.11809541E+03</pdfrwt>
<totfact> 0.20350311E+05</totfact>
</mgrwt>
</event>
<event>
 6    2  0.9453093E+000  0.7154447E+02  0.7546771E-02  0.1354918E+00
          2   -1    0    0  502    0 -0.00000000000E+00  0.00000000000E+00  0.20820342578E+04  0.20820342578E+04  0.00000000000E+00 0. -1.
         21   -1    0    0  501  502  0.00000000000E+00 -0.00000000000E+00 -0.22651955730E+01  0.22651955730E+01  0.00000000000E+00 0. -1.
         24    2    1    2    0    0  0.13260491466E+02  0.25306193510E+02  0.19546935005E+04  0.19560023755E+04  0.65592436911E+02 0.  0.
        -11    1    3    3    0    0  0.35103224170E+02  0.10075496895E+02  0.64135571786E+03  0.64239466749E+03  0.00000000000E+00 0.  1.
         12    1    3    3    0    0 -0.21842732704E+02  0.15230696615E+02  0.13133377827E+04  0.13136077080E+04  0.00000000000E+00 0. -1.
          1    1    1    2  501    0 -0.13260491466E+02 -0.25306193510E+02  0.12507556172E+03  0.12829707792E+03  0.00000000000E+00 0. -1.
<mgrwt>
<rscale>  1 0.71544475E+02</rscale>
<asrwt>0</asrwt>
<pdfrwt beam="1">  1       21 0.34849329E-03 0.71544475E+02</pdfrwt>
<pdfrwt beam="2">  1        2 0.32031143E+00 0.71544475E+02</pdfrwt>
<totfact> 0.16277018E+06</totfact>
</mgrwt>
</event>
<event>
 6    2  0.9453093E+000  0.8655367E+02  0.7546771E-02  0.1311419E+00
         21   -1    0    0  501  502  0.00000000000E+00  0.00000000000E+00  0.11164224565E+02  0.11164224565E+02  0.00000000000E+00 0. -1.
          2   -1    0    0  502    0 -0.00000000000E+00 -0.00000000000E+00 -0.91817292835E+03  0.91817292835E+03  0.00000000000E+00 0. -1.
         24    2    1    2    0    0  0.19901735259E+00  0.21714572670E+02 -0.90314211220E+03  0.90728011765E+03  0.83785289830E+02 0.  0.
        -11    1    3    3    0    0 -0.17271893777E+02  0.56142048388E+01 -0.41374019307E+02  0.45184589012E+02  0.00000000000E+00 0.  1.
         12    1    3    3    0    0  0.17470911129E+02  0.16100367831E+02 -0.86176809289E+03  0.86209552864E+03  0.00000000000E+00 0. -1.
          1    1    1    2  501    0 -0.19901735259E+00 -0.21714572670E+02 -0.38665915917E+01  0.22057035265E+02  0.00000000000E+00 0. -1.
<mgrwt>
<rscale>  1 0.86553666E+02</rscale>
<asrwt>0</asrwt>
<pdfrwt beam="1">  1       21 0.17175732E-02 0.86553666E+02</pdfrwt>
<pdfrwt beam="2">  1        2 0.14125736E+00 0.86553666E+02</pdfrwt>
<totfact> 0.56636628E+05</totfact>
</mgrwt>
</event>
<event>
 6    2  0.9453093E+000  0.8399421E+02  0.7546771E-02  0.1318084E+00
          2   -1    0    0  502    0 -0.00000000000E+00  0.00000000000E+00  0.33518860934E+01  0.33518860934E+01  0.00000000000E+00 0. -1.
         21   -1    0    0  501  502  0.00000000000E+00 -0.00000000000E+00 -0.10359766362E+04  0.10359766362E+04  0.00000000000E+00 0.  1.
         24    2    1    2    0    0 -0.11720508215E+02  0.22647856018E+02 -0.58750004398E+03  0.59347394992E+03  0.80029568731E+02 0.  0.
        -13    1    3    3    0    0  0.20572137392E+02  0.94708327321E+01 -0.47837426598E+03  0.47891006239E+03  0.00000000000E+00 0.  1.
         14    1    3    3    0    0 -0.32292645606E+02  0.13177023286E+02 -0.10912577800E+03  0.11456388754E+03  0.00000000000E+00 0. -1.
          1    1    1    2  501    0  0.11720508215E+02 -0.22647856018E+02 -0.44512470612E+03  0.44585457236E+03  0.00000000000E+00 0. -1.
<mgrwt>
<rscale>  1 0.83994212E+02</rscale>
<asrwt>0</asrwt>
<pdfrwt beam="1">  1       21 0.15938101E+00 0.83994212E+02</pdfrwt>
<pdfrwt beam="2">  1        2 0.51567482E-03 0.83994212E+02</pdfrwt>
<totfact> 0.10696029E+05</totfact>
</mgrwt>
</event>
<event>
 6    2  0.9453093E+000  0.8263673E+02  0.7546771E-02  0.1321731E+00
         21   -1    0    0  501  502  0.00000000000E+00  0.00000000000E+00  0.28901330373E+01  0.28901330373E+01  0.00000000000E+00 0. -1.
          4   -1    0    0  502    0 -0.00000000000E+00 -0.00000000000E+00 -0.12680201893E+04  0.12680201893E+04  0.00000000000E+00 0. -1.
         24    2    1    2    0    0  0.20830209366E+02 -0.11585649844E+02 -0.11671877746E+04  0.11701094521E+04  0.79124609283E+02 0.  0.
        -13    1    3    3    0    0  0.10275971674E+02  0.32430952762E+02 -0.67082384581E+03  0.67168593435E+03  0.00000000000E+00 0.  1.
         14    1    3    3    0    0  0.10554237692E+02 -0.44016602607E+02 -0.49636392882E+03  0.49842351777E+03  0.00000000000E+00 0. -1.
          3    1    1    2  501    0 -0.20830209366E+02  0.11585649844E+02 -0.97942281588E+02  0.10080087017E+03  0.00000000000E+00 0. -1.
<mgrwt>
<rscale>  1 0.82636727E+02</rscale>
<asrwt>0</asrwt>
<pdfrwt beam="1">  1       21 0.44463573E-03 0.82636727E+02</pdfrwt>
<pdfrwt beam="2">  1        4 0.19508008E+00 0.82636727E+02</pdfrwt>
<totfact> 0.78748834E+04</totfact>
</mgrwt>
</event>
<event>
 6    2  0.9453093E+000  0.8297094E+02  0.7546771E-02  0.1320826E+00
         -1   -1    0    0    0  501 -0.00000000000E+00  0.00000000000E+00  0.31338992626E+02  0.31338992626E+02  0.00000000000E+00 0.  1.
         21   -1    0    0  501  502  0.00000000000E+00 -0.00000000000E+00 -0.52354373274E+03  0.52354373274E+03  0.00000000000E+00 0.  1.
         24    2    1    2    0    0 -0.23571437703E+02 -0.25209600160E+00 -0.24399820832E+02  0.86484263870E+02  0.79551872465E+02 0.  0.
        -13    1    3    3    0    0 -0.72148732982E+01  0.13276991576E+02  0.26962755319E+02  0.30908301092E+02  0.00000000000E+00 0.  1.
         14    1    3    3    0    0 -0.16356564405E+02 -0.13529087578E+02 -0.51362576151E+02  0.55575962778E+02  0.00000000000E+00 0. -1.
         -2    1    1    2    0  502  0.23571437703E+02  0.25209600160E+00 -0.46780491929E+03  0.46839846150E+03  0.00000000000E+00 0.  1.
<mgrwt>
<rscale>  1 0.82970939E+02</rscale>
<asrwt>0</asrwt>
<pdfrwt beam="1">  1       21 0.80545186E-01 0.82970939E+02</pdfrwt>
<pdfrwt beam="2">  1       -1 0.48213837E-02 0.82970939E+02</pdfrwt>
<totfact> 0.22113124E+04</totfact>
</mgrwt>
</event>
<event>
 6    2  0.9453093E+000  0.8489465E+02  0.7546771E-02  0.1315708E+00
          2   -1    0    0  502    0 -0.00000000000E+00  0.00000000000E+00  0.14459665690E+04  0.14459665690E+04  0.00000000000E+00 0. -1.
         21   -1    0    0  501  502  0.00000000000E+00 -0.00000000000E+00 -0.24444692124E+01  0.24444692124E+01  0.00000000000E+00 0. -1.
         24    2    1    2    0    0 -0.15527483380E+02 -0.16316526474E+02  0.13281728820E+04  0.13308832805E+04  0.81852123981E+02 0.  0.
        -11    1    3    3    0    0  0.31610018256E+02 -0.51884163727E+01  0.33436930404E+03  0.33590020006E+03  0.00000000000E+00 0.  1.
         12    1    3    3    0    0 -0.47137501636E+02 -0.11128110102E+02  0.99380357793E+03  0.99498308046E+03  0.00000000000E+00 0. -1.
          1    1    1    2  501    0  0.15527483380E+02  0.16316526474E+02  0.11534921783E+03  0.11752775771E+03  0.00000000000E+00 0. -1.
<mgrwt>
<rscale>  1 0.84894652E+02</rscale>
<asrwt>0</asrwt>
<pdfrwt beam="1">  1       21 0.37607334E-03 0.84894652E+02</pdfrwt>
<pdfrwt beam="2">  1        2 0.22245571E+00 0.84894652E+02</pdfrwt>
<totfact> 0.30602962E+06</totfact>
</mgrwt>
</event>
<event>
 6    2  0.9453093E+000  0.8237721E+02  0.7546771E-02  0.1322437E+00
          2   -1    0    0  502    0 -0.00000000000E+00  0.00000000000E+00  0.20085722660E+03  0.20085722660E+03  0.00000000000E+00 0. -1.
         21   -1    0    0  501  502  0.00000000000E+00 -0.00000000000E+00 -0.15045305001E+02  0.15045305001E+02  0.00000000000E+00 0. -1.
         24    2    1    2    0    0 -0.22822772218E+02  0.62610293379E+01  0.11665955842E+03  0.14281266395E+03  0.78904530880E+02 0.  0.
        -11    1    3    3    0    0  0.23969628577E+02 -0.12372063964E+02  0.19205057829E+02  0.33112615528E+02  0.00000000000E+00 0.  1.
         12    1    3    3    0    0 -0.46792400796E+02  0.18633093302E+02  0.97454500589E+02  0.10970004842E+03  0.00000000000E+00 0. -1.
          1    1    1    2  501    0  0.22822772218E+02 -0.62610293379E+01  0.69152363183E+02  0.73089867656E+02  0.00000000000E+00 0. -1.
<mgrwt>
<rscale>  1 0.82377208E+02</rscale>
<asrwt>0</asrwt>
<pdfrwt beam="1">  1       21 0.23146624E-02 0.82377208E+02</pdfrwt>
<pdfrwt beam="2">  1        2 0.30901110E-01 0.82377208E+02</pdfrwt>
<totfact> 0.18501970E+06</totfact>
</mgrwt>
</event>
<event>
 6    2  0.9453093E+000  0.1242622E+03  0.7546771E-02  0.1236227E+00
         21   -1    0    0  501  502  0.00000000000E+00  0.00000000000E+00  0.33905236143E+02  0.33905236143E+02  0.00000000000E+00 0. -1.
          2   -1    0    0  502    0 -0.00000000000E+00 -0.00000000000E+00 -0.40007668952E+03  0.40007668952E+03  0.00000000000E+00 0. -1.
         24    2    1    2    0    0 -0.19209575994E+02  0.93133567783E+02 -0.27710505454E+03  0.30369112530E+03  0.79988868437E+02 0.  0.
        -11    1    3    3    0    0  0.31430782090E+02  0.36918027379E+02 -0.10189353413E+03  0.11284115874E+03  0.00000000000E+00 0.  1.
         12    1    3    3    0    0 -0.50640358084E+02  0.56215540404E+02 -0.17521152041E+03  0.19084996656E+03  0.00000000000E+00 0. -1.
          1    1    1    2  501    0  0.19209575994E+02 -0.93133567783E+02 -0.89066398830E+02  0.13029080036E+03  0.00000000000E+00 0. -1.
<mgrwt>
<rscale>  1 0.12426218E+03</rscale>
<asrwt>0</asrwt>
<pdfrwt beam="1">  1       21 0.52161902E-02 0.12426218E+03</pdfrwt>
<pdfrwt beam="2">  1        2 0.61550260E-01 0.12426218E+03</pdfrwt>
<totfact> 0.24444035E+05</totfact>
</mgrwt>
</event>
<event>
 6    2  0.9453093E+000  0.8499834E+02  0.7546771E-02  0.1315437E+00
         21   -1    0    0  501  502  0.00000000000E+00  0.00000000000E+00  0.49186545036E+01  0.49186545036E+01  0.00000000000E+00 0.  1.
          2   -1    0    0  502    0 -0.00000000000E+00 -0.00000000000E+00 -0.63136062913E+03  0.63136062913E+03  0.00000000000E+00 0. -1.
         24    2    1    2    0    0  0.26267944613E+02 -0.30424510962E+01 -0.48159139019E+03  0.48903474813E+03  0.80780296823E+02 0.  0.
        -11    1    3    3    0    0  0.16098699619E+02 -0.71565268642E+01 -0.17562477600E+02  0.24876185914E+02  0.00000000000E+00 0.  1.
         12    1    3    3    0    0  0.10169244994E+02  0.41140757679E+01 -0.46402891259E+03  0.46415856222E+03  0.00000000000E+00 0. -1.
          1    1    1    2  501    0 -0.26267944613E+02  0.30424510962E+01 -0.14485058444E+03  0.14724453550E+03  0.00000000000E+00 0. -1.
<mgrwt>
<rscale>  1 0.84998340E+02</rscale>
<asrwt>0</asrwt>
<pdfrwt beam="1">  1       21 0.75671591E-03 0.84998340E+02</pdfrwt>
<pdfrwt beam="2">  1        2 0.97132426E-01 0.84998340E+02</pdfrwt>
<totfact> 0.32045092E+06</totfact>
</mgrwt>
</event>
<event>
 6    2  0.9453093E+000  0.1079915E+03  0.7546771E-02  0.1264335E+00
         21   -1    0    0  501  502  0.00000000000E+00  0.00000000000E+00  0.70039013377E+02  0.70039013377E+02  0.00000000000E+00 0. -1.
          4   -1    0    0  502    0 -0.00000000000E+00 -0.00000000000E+00 -0.15089659440E+03  0.15089659440E+03  0.00000000000E+00 0. -1.
         24    2    1    2    0    0 -0.50665008043E+02 -0.54505015953E+02 -0.96577753654E+02  0.14487731677E+03  0.78258766975E+02 0.  0.
        -13    1    3    3    0    0 -0.12510059918E+01 -0.55896219719E+02 -0.35200343542E+02  0.66068272116E+02  0.00000000000E+00 0.  1.
         14    1    3    3    0    0 -0.49414002051E+02  0.13912037663E+01 -0.61377410112E+02  0.78809044651E+02  0.00000000000E+00 0. -1.
          3    1    1    2  501    0  0.50665008043E+02  0.54505015953E+02  0.15720172631E+02  0.76058291012E+02  0.00000000000E+00 0. -1.
<mgrwt>
<rscale>  1 0.10799155E+03</rscale>
<asrwt>0</asrwt>
<pdfrwt beam="1">  1       21 0.10775233E-01 0.10799155E+03</pdfrwt>
<pdfrwt beam="2">  1        4 0.23214860E-01 0.10799155E+03</pdfrwt>
<totfact> 0.48021226E+04</totfact>
</mgrwt>
</event>
<event>
 6    2  0.9815282E+000  0.8914488E+02  0.7546771E-02  0.1304936E+00
         -1   -1    0    0    0  501 -0.00000000000E+00  0.00000000000E+00  0.67741048567E+03  0.67741048567E+03  0.00000000000E+00 0.  1.
         21   -1    0    0  501  502  0.00000000000E+00 -0.00000000000E+00 -0.97575063974E+01  0.97575063974E+01  0.00000000000E+00 0.  1.
         24    2    1    2    0    0  0.28425318621E+02 -0.15171227804E+02  0.63524178020E+03  0.64146623371E+03  0.83118257836E+02 0.  0.
        -13    1    3    3    0    0  0.48774594055E+02 -0.31231144705E+02  0.52655934640E+03  0.52973492494E+03  0.00000000000E+00 0.  1.
         14    1    3    3    0    0 -0.20349275434E+02  0.16059916901E+02  0.10868243380E+03  0.11173130877E+03  0.00000000000E+00 0. -1.
         -2    1    1    2    0  502 -0.28425318621E+02  0.15171227804E+02  0.32411199075E+02  0.45701758361E+02  0.00000000000E+00 0.  1.
<mgrwt>
<rscale>  1 0.89144880E+02</rscale>
<asrwt>0</asrwt>
<pdfrwt beam="1">  1       21 0.15011554E-02 0.89144880E+02</pdfrwt>
<pdfrwt beam="2">  1       -1 0.10421696E+00 0.89144880E+02</pdfrwt>
<totfact> 0.16145015E+05</totfact>
</mgrwt>
</event>
<event>
 6    2  0.9453093E+000  0.9934820E+02  0.7546771E-02  0.1281673E+00
         21   -1    0    0  501  502  0.00000000000E+00  0.00000000000E+00  0.87605857102E+02  0.87605857102E+02  0.00000000000E+00 0.  1.
          2   -1    0    0  502    0 -0.00000000000E+00 -0.00000000000E+00 -0.15259023345E+03  0.15259023345E+03  0.00000000000E+00 0. -1.
         24    2    1    2    0    0 -0.50280315966E+02 -0.20688986102E+02  0.51312749803E+02  0.11181709745E+03  0.83149988994E+02 0.  0.
        -11    1    3    3    0    0 -0.42262184189E+02 -0.45614423100E+02  0.57739608345E+02  0.84856527026E+02  0.00000000000E+00 0.  1.
         12    1    3    3    0    0 -0.80181317764E+01  0.24925436998E+02 -0.64268585421E+01  0.26960570421E+02  0.00000000000E+00 0. -1.
          1    1    1    2  501    0  0.50280315966E+02  0.20688986102E+02 -0.11629712615E+03  0.12837899311E+03  0.00000000000E+00 0. -1.
<mgrwt>
<rscale>  1 0.99348201E+02</rscale>
<asrwt>0</asrwt>
<pdfrwt beam="1">  1       21 0.13477824E-01 0.99348201E+02</pdfrwt>
<pdfrwt beam="2">  1        2 0.23475420E-01 0.99348201E+02</pdfrwt>
<totfact> 0.13144624E+05</totfact>
</mgrwt>
</event>
<event>
 6    2  0.9453093E+000  0.8542604E+02  0.7546771E-02  0.1314322E+00
          2   -1    0    0  502    0 -0.00000000000E+00  0.00000000000E+00  0.14505013658E+03  0.14505013658E+03  0.00000000000E+00 0. -1.
         21   -1    0    0  501  502  0.00000000000E+00 -0.00000000000E+00 -0.23238322262E+02  0.23238322262E+02  0.00000000000E+00 0. -1.
         24    2    1    2    0    0  0.35280697955E+01  0.30484225817E+02  0.90062827211E+02  0.12413267233E+03  0.79723724164E+02 0.  0.
        -11    1    3    3    0    0  0.26808389927E+02 -0.15335320615E+02  0.18415629399E+02  0.35958270745E+02  0.00000000000E+00 0.  1.
         12    1    3    3    0    0 -0.23280320132E+02  0.45819546431E+02  0.71647197812E+02  0.88174401585E+02  0.00000000000E+00 0. -1.
          1    1    1    2  501    0 -0.35280697955E+01 -0.30484225817E+02  0.31748987107E+02  0.44155786512E+02  0.00000000000E+00 0. -1.
<mgrwt>
<rscale>  1 0.85426035E+02</rscale>
<asrwt>0</asrwt>
<pdfrwt beam="1">  1       21 0.35751266E-02 0.85426035E+02</pdfrwt>
<pdfrwt beam="2">  1        2 0.22315405E-01 0.85426035E+02</pdfrwt>
<totfact> 0.13066215E+06</totfact>
</mgrwt>
</event>
<event>
 6    2  0.9453093E+000  0.8689703E+02  0.7546771E-02  0.1310545E+00
          2   -1    0    0  502    0 -0.00000000000E+00  0.00000000000E+00  0.16692381538E+04  0.16692381538E+04  0.00000000000E+00 0. -1.
         21   -1    0    0  501  502  0.00000000000E+00 -0.00000000000E+00 -0.72581224103E+01  0.72581224103E+01  0.00000000000E+00 0. -1.
         24    2    1    2    0    0 -0.24692084130E+02 -0.12806679078E+02  0.16364035739E+04  0.16387091723E+04  0.82324871665E+02 0.  0.
        -11    1    3    3    0    0 -0.14490313173E+02  0.21355201033E+02  0.17713065672E+03  0.17900079144E+03  0.00000000000E+00 0.  1.
         12    1    3    3    0    0 -0.10201770957E+02 -0.34161880110E+02  0.14592729172E+04  0.14597083808E+04  0.00000000000E+00 0. -1.
          1    1    1    2  501    0  0.24692084130E+02  0.12806679078E+02  0.25576457476E+02  0.37787103947E+02  0.00000000000E+00 0. -1.
<mgrwt>
<rscale>  1 0.86897034E+02</rscale>
<asrwt>0</asrwt>
<pdfrwt beam="1">  1       21 0.11166355E-02 0.86897034E+02</pdfrwt>
<pdfrwt beam="2">  1        2 0.25680556E+00 0.86897034E+02</pdfrwt>
<totfact> 0.44109495E+05</totfact>
</mgrwt>
</event>
<event>
 6    2  0.9453093E+000  0.8313030E+02  0.7546771E-02  0.1320396E+00
         -1   -1    0    0    0  501 -0.00000000000E+00  0.00000000000E+00  0.25821862321E+02  0.25821862321E+02  0.00000000000E+00 0.  1.
         21   -1    0    0  501  502  0.00000000000E+00 -0.00000000000E+00 -0.19704079458E+03  0.19704079458E+03  0.00000000000E+00 0.  1.
         24    2    1    2    0    0  0.22349921558E+02  0.97688943758E+01 -0.45436634868E+02  0.94737184695E+02  0.79471353863E+02 0.  0.
        -13    1    3    3    0    0  0.24046095910E+02 -0.60217004785E+01  0.17165635740E+02  0.30151859902E+02  0.00000000000E+00 0.  1.
         14    1    3    3    0    0 -0.16961743518E+01  0.15790594854E+02 -0.62602270608E+02  0.64585324793E+02  0.00000000000E+00 0. -1.
         -2    1    1    2    0  502 -0.22349921558E+02 -0.97688943758E+01 -0.12578229739E+03  0.12812547221E+03  0.00000000000E+00 0.  1.
<mgrwt>
<rscale>  1 0.83130298E+02</rscale>
<asrwt>0</asrwt>
<pdfrwt beam="1">  1       21 0.30313966E-01 0.83130298E+02</pdfrwt>
<pdfrwt beam="2">  1       -1 0.39725945E-02 0.83130298E+02</pdfrwt>
<totfact> 0.21533639E+05</totfact>
</mgrwt>
</event>
<event>
 6    2  0.9453093E+000  0.8937699E+02  0.7546771E-02  0.1304367E+00
          2   -1    0    0  502    0 -0.00000000000E+00  0.00000000000E+00  0.21417343813E+04  0.21417343813E+04  0.00000000000E+00 0. -1.
         21   -1    0    0  501  502  0.00000000000E+00 -0.00000000000E+00 -0.22417821584E+01  0.22417821584E+01  0.00000000000E+00 0. -1.
         24    2    1    2    0    0 -0.61028363977E+01 -0.47257414013E+02  0.15409851863E+04  0.15435749384E+04  0.75615728236E+02 0.  0.
        -11    1    3    3    0    0 -0.20942851345E+02 -0.19622192480E+02  0.18378005113E+03  0.18600736720E+03  0.00000000000E+00 0.  1.
         12    1    3    3    0    0  0.14840014947E+02 -0.27635221533E+02  0.13572051352E+04  0.13575675712E+04  0.00000000000E+00 0. -1.
          1    1    1    2  501    0  0.61028363977E+01  0.47257414013E+02  0.59850741284E+03  0.60040122503E+03  0.00000000000E+00 0. -1.
<mgrwt>
<rscale>  1 0.89376989E+02</rscale>
<asrwt>0</asrwt>
<pdfrwt beam="1">  1       21 0.34489128E-03 0.89376989E+02</pdfrwt>
<pdfrwt beam="2">  1        2 0.32949596E+00 0.89376989E+02</pdfrwt>
<totfact> 0.15640775E+06</totfact>
</mgrwt>
</event>
<event>
 6    2  0.9453093E+000  0.8625904E+02  0.7546771E-02  0.1312172E+00
         21   -1    0    0  501  502  0.00000000000E+00  0.00000000000E+00  0.15280952191E+01  0.15280952191E+01  0.00000000000E+00 0.  1.
          2   -1    0    0  502    0 -0.00000000000E+00 -0.00000000000E+00 -0.21450557205E+04  0.21450557205E+04  0.00000000000E+00 0. -1.
         24    2    1    2    0    0  0.15301185827E+02 -0.17869518275E+02 -0.13795930595E+04  0.13822871019E+04  0.82989012931E+02 0.  0.
        -11    1    3    3    0    0  0.91290652400E+01 -0.36274427856E+02 -0.27598624622E+03  0.27850957264E+03  0.00000000000E+00 0.  1.
         12    1    3    3    0    0  0.61721205872E+01  0.18404909582E+02 -0.11036068133E+04  0.11037775293E+04  0.00000000000E+00 0. -1.
          1    1    1    2  501    0 -0.15301185827E+02  0.17869518275E+02 -0.76393456575E+03  0.76429671379E+03  0.00000000000E+00 0. -1.
<mgrwt>
<rscale>  1 0.86259041E+02</rscale>
<asrwt>0</asrwt>
<pdfrwt beam="1">  1       21 0.23509315E-03 0.86259041E+02</pdfrwt>
<pdfrwt beam="2">  1        2 0.33000636E+00 0.86259041E+02</pdfrwt>
<totfact> 0.27729286E+06</totfact>
</mgrwt>
</event>
<event>
 6    2  0.9453093E+000  0.8967036E+02  0.7546771E-02  0.1303652E+00
         21   -1    0    0  501  502  0.00000000000E+00  0.00000000000E+00  0.44331293366E+02  0.44331293366E+02  0.00000000000E+00 0. -1.
         -3   -1    0    0    0  501 -0.00000000000E+00 -0.00000000000E+00 -0.93911659329E+02  0.93911659329E+02  0.00000000000E+00 0.  1.
         24    2    1    2    0    0  0.14518878003E+02 -0.35867994825E+02 -0.28017631853E+02  0.93945521917E+02  0.80891671527E+02 0.  0.
        -13    1    3    3    0    0  0.30007484019E+02 -0.55934814396E+02 -0.25734307369E+02  0.68493847420E+02  0.00000000000E+00 0.  1.
         14    1    3    3    0    0 -0.15488606016E+02  0.20066819571E+02 -0.22833244842E+01  0.25451674497E+02  0.00000000000E+00 0. -1.
         -4    1    1    2    0  502 -0.14518878003E+02  0.35867994825E+02 -0.21562734109E+02  0.44297430778E+02  0.00000000000E+00 0.  1.
<mgrwt>
<rscale>  1 0.89670360E+02</rscale>
<asrwt>0</asrwt>
<pdfrwt beam="1">  1       21 0.68201991E-02 0.89670360E+02</pdfrwt>
<pdfrwt beam="2">  1       -3 0.14447947E-01 0.89670360E+02</pdfrwt>
<totfact> 0.27767313E+05</totfact>
</mgrwt>
</event>
<event>
 6    2  0.9453093E+000  0.8408918E+02  0.7546771E-02  0.1317832E+00
         21   -1    0    0  501  502  0.00000000000E+00  0.00000000000E+00  0.81747963536E+02  0.81747963536E+02  0.00000000000E+00 0. -1.
          2   -1    0    0  502    0 -0.00000000000E+00 -0.00000000000E+00 -0.26272060248E+03  0.26272060248E+03  0.00000000000E+00 0. -1.
         24    2    1    2    0    0  0.21767586643E+02  0.99372206520E+01 -0.25403337338E+03  0.26758913379E+03  0.80612738147E+02 0.  0.
        -13    1    3    3    0    0  0.34128913265E+02 -0.11628338035E+02 -0.23068607381E+03  0.23348675683E+03  0.00000000000E+00 0.  1.
         14    1    3    3    0    0 -0.12361326622E+02  0.21565558687E+02 -0.23347299573E+02  0.34102376966E+02  0.00000000000E+00 0. -1.
          1    1    1    2  501    0 -0.21767586643E+02 -0.99372206520E+01  0.73060734435E+02  0.76879432222E+02  0.00000000000E+00 0. -1.
<mgrwt>
<rscale>  1 0.84089177E+02</rscale>
<asrwt>0</asrwt>
<pdfrwt beam="1">  1       21 0.12576610E-01 0.84089177E+02</pdfrwt>
<pdfrwt beam="2">  1        2 0.40418554E-01 0.84089177E+02</pdfrwt>
<totfact> 0.82475159E+04</totfact>
</mgrwt>
</event>
<event>
 6    2  0.9453093E+000  0.8471782E+02  0.7546771E-02  0.1316172E+00
         21   -1    0    0  501  502  0.00000000000E+00  0.00000000000E+00  0.17135115863E+02  0.17135115863E+02  0.00000000000E+00 0.  1.
          2   -1    0    0  502    0 -0.00000000000E+00 -0.00000000000E+00 -0.22389657148E+03  0.22389657148E+03  0.00000000000E+00 0. -1.
         24    2    1    2    0    0  0.12336135071E+02  0.16986827478E+02 -0.20264147825E+03  0.21963760522E+03  0.82075431059E+02 0.  0.
        -11    1    3    3    0    0 -0.93592518024E+01  0.35196569115E+02 -0.38217473118E+02  0.52791754311E+02  0.00000000000E+00 0.  1.
         12    1    3    3    0    0  0.21695386874E+02 -0.18209741637E+02 -0.16442400513E+03  0.16684585091E+03  0.00000000000E+00 0. -1.
          1    1    1    2  501    0 -0.12336135071E+02 -0.16986827478E+02 -0.41199773648E+01  0.21394082120E+02  0.00000000000E+00 0. -1.
<mgrwt>
<rscale>  1 0.84717819E+02</rscale>
<asrwt>0</asrwt>
<pdfrwt beam="1">  1       21 0.26361717E-02 0.84717819E+02</pdfrwt>
<pdfrwt beam="2">  1        2 0.34445626E-01 0.84717819E+02</pdfrwt>
<totfact> 0.13422632E+06</totfact>
</mgrwt>
</event>
<event>
 6    2  0.9453093E+000  0.8270395E+02  0.7546771E-02  0.1321549E+00
         21   -1    0    0  501  502  0.00000000000E+00  0.00000000000E+00  0.59864759582E+01  0.59864759582E+01  0.00000000000E+00 0.  1.
          2   -1    0    0  502    0 -0.00000000000E+00 -0.00000000000E+00 -0.47824315309E+03  0.47824315309E+03  0.00000000000E+00 0. -1.
         24    2    1    2    0    0  0.21825912867E+02 -0.80843448484E+01 -0.39392545581E+03  0.40251361264E+03  0.79361303669E+02 0.  0.
        -13    1    3    3    0    0 -0.10108225898E+02 -0.32187562362E+02 -0.92810423033E+02  0.98752164661E+02  0.00000000000E+00 0.  1.
         14    1    3    3    0    0  0.31934138765E+02  0.24103217514E+02 -0.30111503278E+03  0.30376144798E+03  0.00000000000E+00 0. -1.
          1    1    1    2  501    0 -0.21825912867E+02  0.80843448484E+01 -0.78331221318E+02  0.81716016406E+02  0.00000000000E+00 0. -1.
<mgrwt>
<rscale>  1 0.82703952E+02</rscale>
<asrwt>0</asrwt>
<pdfrwt beam="1">  1       21 0.92099593E-03 0.82703952E+02</pdfrwt>
<pdfrwt beam="2">  1        2 0.73575900E-01 0.82703952E+02</pdfrwt>
<totfact> 0.31922803E+06</totfact>
</mgrwt>
</event>
<event>
 6    2  0.9453093E+000  0.8559334E+02  0.7546771E-02  0.1313888E+00
          2   -1    0    0  502    0 -0.00000000000E+00  0.00000000000E+00  0.23170223887E+03  0.23170223887E+03  0.00000000000E+00 0. -1.
         21   -1    0    0  501  502  0.00000000000E+00 -0.00000000000E+00 -0.14088919257E+02  0.14088919257E+02  0.00000000000E+00 0.  1.
         24    2    1    2    0    0  0.21634673271E+02  0.17940085073E+02  0.17388442528E+03  0.19380921953E+03  0.80847476666E+02 0.  0.
        -13    1    3    3    0    0  0.49666050116E+02  0.24678897928E+02  0.97566504963E+02  0.11222739161E+03  0.00000000000E+00 0.  1.
         14    1    3    3    0    0 -0.28031376846E+02 -0.67388128549E+01  0.76317920313E+02  0.81581827924E+02  0.00000000000E+00 0. -1.
          1    1    1    2  501    0 -0.21634673271E+02 -0.17940085073E+02  0.43728894341E+02  0.51981938596E+02  0.00000000000E+00 0. -1.
<mgrwt>
<rscale>  1 0.85593342E+02</rscale>
<asrwt>0</asrwt>
<pdfrwt beam="1">  1       21 0.21675262E-02 0.85593342E+02</pdfrwt>
<pdfrwt beam="2">  1        2 0.35646496E-01 0.85593342E+02</pdfrwt>
<totfact> 0.17758062E+06</totfact>
</mgrwt>
</event>
<event>
 6    2  0.9453093E+000  0.8338685E+02  0.7546771E-02  0.1319706E+00
         21   -1    0    0  501  502  0.00000000000E+00  0.00000000000E+00  0.34464161646E+01  0.34464161646E+01  0.00000000000E+00 0.  1.
          2   -1    0    0  502    0 -0.00000000000E+00 -0.00000000000E+00 -0.93815269262E+03  0.93815269262E+03  0.00000000000E+00 0. -1.
         24    2    1    2    0    0  0.24093171806E+02 -0.72837793928E+01 -0.57521063115E+03  0.58122339739E+03  0.79497378039E+02 0.  0.
        -13    1    3    3    0    0  0.15223777717E+00 -0.38401684036E+02 -0.17904295508E+03  0.18311497011E+03  0.00000000000E+00 0.  1.
         14    1    3    3    0    0  0.23940934029E+02  0.31117904643E+02 -0.39616767607E+03  0.39810842728E+03  0.00000000000E+00 0. -1.
          1    1    1    2  501    0 -0.24093171806E+02  0.72837793928E+01 -0.35949564531E+03  0.36037571139E+03  0.00000000000E+00 0. -1.
<mgrwt>
<rscale>  1 0.83386854E+02</rscale>
<asrwt>0</asrwt>
<pdfrwt beam="1">  1       21 0.53021798E-03 0.83386854E+02</pdfrwt>
<pdfrwt beam="2">  1        2 0.14433115E+00 0.83386854E+02</pdfrwt>
<totfact> 0.34303337E+06</totfact>
</mgrwt>
</event>
<event>
 6    2  0.9453093E+000  0.9157667E+02  0.7546771E-02  0.1299078E+00
         21   -1    0    0  501  502  0.00000000000E+00  0.00000000000E+00  0.72732486674E+01  0.72732486674E+01  0.00000000000E+00 0.  1.
          2   -1    0    0  502    0 -0.00000000000E+00 -0.00000000000E+00 -0.50931348944E+03  0.50931348944E+03  0.00000000000E+00 0. -1.
         24    2    1    2    0    0  0.29693942486E+02 -0.36090797460E+01 -0.39184731851E+03  0.40240602260E+03  0.86553626869E+02 0.  0.
        -13    1    3    3    0    0  0.27198517574E+02  0.36304780312E+02 -0.13386184294E+03  0.14133927065E+03  0.00000000000E+00 0.  1.
         14    1    3    3    0    0  0.24954249124E+01 -0.39913860058E+02 -0.25798547557E+03  0.26106675195E+03  0.00000000000E+00 0. -1.
          1    1    1    2  501    0 -0.29693942486E+02  0.36090797460E+01 -0.11019292225E+03  0.11418071550E+03  0.00000000000E+00 0. -1.
<mgrwt>
<rscale>  1 0.91576667E+02</rscale>
<asrwt>0</asrwt>
<pdfrwt beam="1">  1       21 0.11189610E-02 0.91576667E+02</pdfrwt>
<pdfrwt beam="2">  1        2 0.78355947E-01 0.91576667E+02</pdfrwt>
<totfact> 0.22284071E+06</totfact>
</mgrwt>
</event>
<event>
 6    2  0.9453093E+000  0.1258211E+03  0.7546771E-02  0.1233792E+00
          2   -1    0    0  502    0 -0.00000000000E+00  0.00000000000E+00  0.10893829596E+03  0.10893829596E+03  0.00000000000E+00 0. -1.
         21   -1    0    0  501  502  0.00000000000E+00 -0.00000000000E+00 -0.98350546388E+02  0.98350546388E+02  0.00000000000E+00 0. -1.
         24    2    1    2    0    0  0.57941683409E+02  0.56831919877E+02  0.83288630685E+01  0.12609642668E+03  0.96144854615E+02 0.  0.
        -11    1    3    3    0    0  0.92960317212E+01  0.30388072412E+02 -0.41046485654E+02  0.51910164084E+02  0.00000000000E+00 0.  1.
         12    1    3    3    0    0  0.48645651688E+02  0.26443847465E+02  0.49375348723E+02  0.74186262599E+02  0.00000000000E+00 0. -1.
          1    1    1    2  501    0 -0.57941683409E+02 -0.56831919877E+02  0.22588865029E+01  0.81192415665E+02  0.00000000000E+00 0. -1.
<mgrwt>
<rscale>  1 0.12582106E+03</rscale>
<asrwt>0</asrwt>
<pdfrwt beam="1">  1       21 0.15130853E-01 0.12582106E+03</pdfrwt>
<pdfrwt beam="2">  1        2 0.16759738E-01 0.12582106E+03</pdfrwt>
<totfact> 0.15801291E+05</totfact>
</mgrwt>
</event>
<event>
 6    2  0.9453093E+000  0.9526373E+02  0.7546771E-02  0.1290583E+00
         -3   -1    0    0    0  501 -0.00000000000E+00  0.00000000000E+00  0.12598351374E+04  0.12598351374E+04  0.00000000000E+00 0.  1.
         21   -1    0    0  501  502  0.00000000000E+00 -0.00000000000E+00 -0.45041444648E+01  0.45041444648E+01  0.00000000000E+00 0. -1.
         24    2    1    2    0    0 -0.91205638576E+01  0.49484630196E+02  0.96391699563E+03  0.96861300448E+03  0.80890448584E+02 0.  0.
        -13    1    3    3    0    0 -0.21094933606E+02 -0.81077108942E+01  0.55783376153E+03  0.55829135467E+03  0.00000000000E+00 0.  1.
         14    1    3    3    0    0  0.11974369748E+02  0.57592341090E+02  0.40608323410E+03  0.41032164980E+03  0.00000000000E+00 0. -1.
         -4    1    1    2    0  502  0.91205638576E+01 -0.49484630196E+02  0.29141399730E+03  0.29572627738E+03  0.00000000000E+00 0.  1.
<mgrwt>
<rscale>  1 0.95263729E+02</rscale>
<asrwt>0</asrwt>
<pdfrwt beam="1">  1       21 0.69294631E-03 0.95263729E+02</pdfrwt>
<pdfrwt beam="2">  1       -3 0.19382051E+00 0.95263729E+02</pdfrwt>
<totfact> 0.54224239E+04</totfact>
</mgrwt>
</event>
<event>
 6    2  0.9453093E+000  0.8491495E+02  0.7546771E-02  0.1315655E+00
          2   -1    0    0  502    0 -0.00000000000E+00  0.00000000000E+00  0.11209459423E+04  0.11209459423E+04  0.00000000000E+00 0. -1.
         21   -1    0    0  501  502  0.00000000000E+00 -0.00000000000E+00 -0.27103049673E+01  0.27103049673E+01  0.00000000000E+00 0. -1.
         24    2    1    2    0    0  0.68857890702E+01 -0.24203583591E+02  0.88708574068E+03  0.89114065150E+03  0.81100689876E+02 0.  0.
        -11    1    3    3    0    0 -0.11199434601E+02  0.15687378055E+02  0.62784277507E+02  0.65676378308E+02  0.00000000000E+00 0.  1.
         12    1    3    3    0    0  0.18085223671E+02 -0.39890961646E+02  0.82430146317E+03  0.82546427319E+03  0.00000000000E+00 0. -1.
          1    1    1    2  501    0 -0.68857890702E+01  0.24203583591E+02  0.23114989663E+03  0.23251559574E+03  0.00000000000E+00 0. -1.
<mgrwt>
<rscale>  1 0.84914954E+02</rscale>
<asrwt>0</asrwt>
<pdfrwt beam="1">  1       21 0.41697089E-03 0.84914954E+02</pdfrwt>
<pdfrwt beam="2">  1        2 0.17245285E+00 0.84914954E+02</pdfrwt>
<totfact> 0.38914834E+06</totfact>
</mgrwt>
</event>
<event>
 6    2  0.9453093E+000  0.8572744E+02  0.7546771E-02  0.1313541E+00
         21   -1    0    0  501  502  0.00000000000E+00  0.00000000000E+00  0.22728345928E+03  0.22728345928E+03  0.00000000000E+00 0. -1.
          2   -1    0    0  502    0 -0.00000000000E+00 -0.00000000000E+00 -0.11743372068E+03  0.11743372068E+03  0.00000000000E+00 0. -1.
         24    2    1    2    0    0  0.17866643666E+02 -0.21349724444E+02 -0.10074926830E+03  0.13228608667E+03  0.81081230710E+02 0.  0.
        -11    1    3    3    0    0 -0.37579867168E+01 -0.34471591130E+02 -0.72498231924E+01  0.35425598026E+02  0.00000000000E+00 0.  1.
         12    1    3    3    0    0  0.21624630382E+02  0.13121866686E+02 -0.93499445112E+02  0.96860488646E+02  0.00000000000E+00 0. -1.
          1    1    1    2  501    0 -0.17866643666E+02  0.21349724444E+02  0.21059900690E+03  0.21243109329E+03  0.00000000000E+00 0. -1.
<mgrwt>
<rscale>  1 0.85727438E+02</rscale>
<asrwt>0</asrwt>
<pdfrwt beam="1">  1       21 0.34966686E-01 0.85727438E+02</pdfrwt>
<pdfrwt beam="2">  1        2 0.18066726E-01 0.85727438E+02</pdfrwt>
<totfact> 0.30015256E+04</totfact>
</mgrwt>
</event>
<event>
 6    2  0.9453093E+000  0.9168514E+02  0.7546771E-02  0.1298821E+00
         21   -1    0    0  501  502  0.00000000000E+00  0.00000000000E+00  0.78068532599E+03  0.78068532599E+03  0.00000000000E+00 0.  1.
          4   -1    0    0  502    0 -0.00000000000E+00 -0.00000000000E+00 -0.56529131322E+01  0.56529131322E+01  0.00000000000E+00 0. -1.
         24    2    1    2    0    0  0.40837237770E+02 -0.52641614640E+01  0.53717870935E+03  0.54494690610E+03  0.81919309734E+02 0.  0.
        -13    1    3    3    0    0  0.90458854521E+00 -0.35334861894E+02  0.32702559271E+03  0.32893024950E+03  0.00000000000E+00 0.  1.
         14    1    3    3    0    0  0.39932649224E+02  0.30070700430E+02  0.21015311663E+03  0.21601665660E+03  0.00000000000E+00 0. -1.
          3    1    1    2  501    0 -0.40837237770E+02  0.52641614640E+01  0.23785370351E+03  0.24139133302E+03  0.00000000000E+00 0. -1.
<mgrwt>
<rscale>  1 0.91685139E+02</rscale>
<asrwt>0</asrwt>
<pdfrwt beam="1">  1       21 0.12010535E+00 0.91685139E+02</pdfrwt>
<pdfrwt beam="2">  1        4 0.86967956E-03 0.91685139E+02</pdfrwt>
<totfact> 0.75156175E+04</totfact>
</mgrwt>
</event>
<event>
 6    2  0.9453093E+000  0.8482175E+02  0.7546771E-02  0.1315899E+00
          2   -1    0    0  502    0 -0.00000000000E+00  0.00000000000E+00  0.16013336126E+02  0.16013336126E+02  0.00000000000E+00 0. -1.
         21   -1    0    0  501  502  0.00000000000E+00 -0.00000000000E+00 -0.12312776139E+04  0.12312776139E+04  0.00000000000E+00 0. -1.
         24    2    1    2    0    0 -0.19355064609E+02  0.12495260993E+02 -0.97267984893E+02  0.12905731569E+03  0.81633202644E+02 0.  0.
        -11    1    3    3    0    0 -0.41801790397E+02  0.26507577318E+02 -0.88100169546E+02  0.10105286344E+03  0.00000000000E+00 0.  1.
         12    1    3    3    0    0  0.22446725788E+02 -0.14012316324E+02 -0.91678153470E+01  0.28004452246E+02  0.00000000000E+00 0. -1.
          1    1    1    2  501    0  0.19355064609E+02 -0.12495260993E+02 -0.11179962929E+04  0.11182336344E+04  0.00000000000E+00 0. -1.
<mgrwt>
<rscale>  1 0.84821753E+02</rscale>
<asrwt>0</asrwt>
<pdfrwt beam="1">  1       21 0.18942726E+00 0.84821753E+02</pdfrwt>
<pdfrwt beam="2">  1        2 0.24635910E-02 0.84821753E+02</pdfrwt>
<totfact> 0.80295817E+03</totfact>
</mgrwt>
</event>
<event>
 6    2  0.9453093E+000  0.8980119E+02  0.7546771E-02  0.1303334E+00
         21   -1    0    0  501  502  0.00000000000E+00  0.00000000000E+00  0.73575408042E+01  0.73575408042E+01  0.00000000000E+00 0.  1.
          4   -1    0    0  502    0 -0.00000000000E+00 -0.00000000000E+00 -0.62345028277E+03  0.62345028277E+03  0.00000000000E+00 0. -1.
         24    2    1    2    0    0 -0.44662801559E+02  0.33027434901E+01 -0.44341959600E+03  0.45242147518E+03  0.77836875094E+02 0.  0.
        -13    1    3    3    0    0 -0.98928030651E+01  0.38829338254E+02 -0.19300975274E+03  0.19712521329E+03  0.00000000000E+00 0.  1.
         14    1    3    3    0    0 -0.34769998494E+02 -0.35526594764E+02 -0.25040984326E+03  0.25529626189E+03  0.00000000000E+00 0. -1.
          3    1    1    2  501    0  0.44662801559E+02 -0.33027434901E+01 -0.17267314596E+03  0.17838634840E+03  0.00000000000E+00 0. -1.
<mgrwt>
<rscale>  1 0.89801186E+02</rscale>
<asrwt>0</asrwt>
<pdfrwt beam="1">  1       21 0.11319289E-02 0.89801186E+02</pdfrwt>
<pdfrwt beam="2">  1        4 0.95915466E-01 0.89801186E+02</pdfrwt>
<totfact> 0.10887087E+05</totfact>
</mgrwt>
</event>
<event>
 6    2  0.9453093E+000  0.8299134E+02  0.7546771E-02  0.1320771E+00
         21   -1    0    0  501  502  0.00000000000E+00  0.00000000000E+00  0.84097302014E+01  0.84097302014E+01  0.00000000000E+00 0. -1.
          4   -1    0    0  502    0 -0.00000000000E+00 -0.00000000000E+00 -0.44629446389E+03  0.44629446389E+03  0.00000000000E+00 0. -1.
         24    2    1    2    0    0 -0.60627952035E+01  0.24333903673E+02 -0.40463174074E+03  0.41305496968E+03  0.79111731200E+02 0.  0.
        -11    1    3    3    0    0  0.20379422729E+02  0.41729800271E+02 -0.16744595691E+03  0.17376664118E+03  0.00000000000E+00 0.  1.
         12    1    3    3    0    0 -0.26442217932E+02 -0.17395896598E+02 -0.23718578383E+03  0.23928832851E+03  0.00000000000E+00 0. -1.
          3    1    1    2  501    0  0.60627952035E+01 -0.24333903673E+02 -0.33252992953E+02  0.41649224410E+02  0.00000000000E+00 0. -1.
<mgrwt>
<rscale>  1 0.82991339E+02</rscale>
<asrwt>0</asrwt>
<pdfrwt beam="1">  1       21 0.12938046E-02 0.82991339E+02</pdfrwt>
<pdfrwt beam="2">  1        4 0.68660691E-01 0.82991339E+02</pdfrwt>
<totfact> 0.18102729E+05</totfact>
</mgrwt>
</event>
<event>
 6    2  0.9453093E+000  0.9405202E+02  0.7546771E-02  0.1293326E+00
          2   -1    0    0  502    0 -0.00000000000E+00  0.00000000000E+00  0.25794385542E+04  0.25794385542E+04  0.00000000000E+00 0. -1.
         21   -1    0    0  501  502  0.00000000000E+00 -0.00000000000E+00 -0.32719406086E+01  0.32719406086E+01  0.00000000000E+00 0. -1.
         24    2    1    2    0    0  0.51373966523E+02  0.57422995325E+01  0.22887829665E+04  0.22907145718E+04  0.78571771396E+02 0.  0.
        -11    1    3    3    0    0 -0.17479878949E+02 -0.11145713173E+02  0.33111707338E+03  0.33176541316E+03  0.00000000000E+00 0.  1.
         12    1    3    3    0    0  0.68853845473E+02  0.16888012706E+02  0.19576658931E+04  0.19589491586E+04  0.00000000000E+00 0. -1.
          1    1    1    2  501    0 -0.51373966523E+02 -0.57422995325E+01  0.28738364711E+03  0.29199592304E+03  0.00000000000E+00 0. -1.
<mgrwt>
<rscale>  1 0.94052016E+02</rscale>
<asrwt>0</asrwt>
<pdfrwt beam="1">  1       21 0.50337754E-03 0.94052016E+02</pdfrwt>
<pdfrwt beam="2">  1        2 0.39683508E+00 0.94052016E+02</pdfrwt>
<totfact> 0.52248969E+05</totfact>
</mgrwt>
</event>
<event>
 6    2  0.9453093E+000  0.8887854E+02  0.7546771E-02  0.1305590E+00
         21   -1    0    0  501  502  0.00000000000E+00  0.00000000000E+00  0.75774575332E+01  0.75774575332E+01  0.00000000000E+00 0.  1.
         -3   -1    0    0    0  501 -0.00000000000E+00 -0.00000000000E+00 -0.87484546281E+03  0.87484546281E+03  0.00000000000E+00 0.  1.
         24    2    1    2    0    0 -0.73694218958E+01 -0.34773233839E+02 -0.81108232841E+03  0.81593745986E+03  0.81461087478E+02 0.  0.
        -13    1    3    3    0    0  0.18847007090E+02 -0.52800750107E+02 -0.45627025068E+03  0.45970171910E+03  0.00000000000E+00 0.  1.
         14    1    3    3    0    0 -0.26216428986E+02  0.18027516268E+02 -0.35481207773E+03  0.35623574076E+03  0.00000000000E+00 0. -1.
         -4    1    1    2    0  502  0.73694218958E+01  0.34773233839E+02 -0.56185676868E+02  0.66485460485E+02  0.00000000000E+00 0.  1.
<mgrwt>
<rscale>  1 0.88878540E+02</rscale>
<asrwt>0</asrwt>
<pdfrwt beam="1">  1       21 0.11657628E-02 0.88878540E+02</pdfrwt>
<pdfrwt beam="2">  1       -3 0.13459160E+00 0.88878540E+02</pdfrwt>
<totfact> 0.60020053E+04</totfact>
</mgrwt>
</event>
<event>
 6    2  0.9453093E+000  0.8767508E+02  0.7546771E-02  0.1308582E+00
         21   -1    0    0  501  502  0.00000000000E+00  0.00000000000E+00  0.20131849168E+03  0.20131849168E+03  0.00000000000E+00 0.  1.
         -1   -1    0    0    0  501 -0.00000000000E+00 -0.00000000000E+00 -0.17756881544E+02  0.17756881544E+02  0.00000000000E+00 0.  1.
         24    2    1    2    0    0  0.20361766909E+02  0.23057344389E+02  0.14833413591E+03  0.17230767473E+03  0.82101621258E+02 0.  0.
        -11    1    3    3    0    0  0.57463009566E+01  0.45964989789E+02  0.41905569650E+02  0.62465006433E+02  0.00000000000E+00 0.  1.
         12    1    3    3    0    0  0.14615465953E+02 -0.22907645400E+02  0.10642856626E+03  0.10984266829E+03  0.00000000000E+00 0. -1.
         -2    1    1    2    0  502 -0.20361766909E+02 -0.23057344389E+02  0.35227474231E+02  0.46767698496E+02  0.00000000000E+00 0.  1.
<mgrwt>
<rscale>  1 0.87675076E+02</rscale>
<asrwt>0</asrwt>
<pdfrwt beam="1">  1       21 0.30972074E-01 0.87675076E+02</pdfrwt>
<pdfrwt beam="2">  1       -1 0.27318281E-02 0.87675076E+02</pdfrwt>
<totfact> 0.35636175E+05</totfact>
</mgrwt>
</event>
<event>
 6    2  0.9453093E+000  0.8393334E+02  0.7546771E-02  0.1318246E+00
          2   -1    0    0  502    0 -0.00000000000E+00  0.00000000000E+00  0.10106678411E+04  0.10106678411E+04  0.00000000000E+00 0. -1.
         21   -1    0    0  501  502  0.00000000000E+00 -0.00000000000E+00 -0.68508913608E+01  0.68508913608E+01  0.00000000000E+00 0. -1.
         24    2    1    2    0    0  0.11180633377E+02  0.16856534265E+02  0.98872589538E+03  0.99228206803E+03  0.81459542354E+02 0.  0.
        -13    1    3    3    0    0 -0.22888567792E+02 -0.12257013613E+02  0.14087465052E+03  0.14324729693E+03  0.00000000000E+00 0.  1.
         14    1    3    3    0    0  0.34069201169E+02  0.29113547878E+02  0.84785124485E+03  0.84903477110E+03  0.00000000000E+00 0. -1.
          1    1    1    2  501    0 -0.11180633377E+02 -0.16856534265E+02  0.15091054384E+02  0.25236664450E+02  0.00000000000E+00 0. -1.
<mgrwt>
<rscale>  1 0.83933345E+02</rscale>
<asrwt>0</asrwt>
<pdfrwt beam="1">  1       21 0.10539841E-02 0.83933345E+02</pdfrwt>
<pdfrwt beam="2">  1        2 0.15548724E+00 0.83933345E+02</pdfrwt>
<totfact> 0.10744265E+06</totfact>
</mgrwt>
</event>
<event>
 6    2  0.9453093E+000  0.9062334E+02  0.7546771E-02  0.1301349E+00
          2   -1    0    0  502    0 -0.00000000000E+00  0.00000000000E+00  0.16529856254E+03  0.16529856254E+03  0.00000000000E+00 0. -1.
         21   -1    0    0  501  502  0.00000000000E+00 -0.00000000000E+00 -0.43669350746E+02  0.43669350746E+02  0.00000000000E+00 0.  1.
         24    2    1    2    0    0 -0.28730620266E+02 -0.19765032747E+02  0.14209480980E+03  0.16853345073E+03  0.83644987786E+02 0.  0.
        -11    1    3    3    0    0  0.17932282072E+01  0.15664043643E+02 -0.30345495878E+01  0.16055728631E+02  0.00000000000E+00 0.  1.
         12    1    3    3    0    0 -0.30523848473E+02 -0.35429076390E+02  0.14512935939E+03  0.15247772210E+03  0.00000000000E+00 0. -1.
          1    1    1    2  501    0  0.28730620266E+02  0.19765032747E+02 -0.20465598009E+02  0.40434462556E+02  0.00000000000E+00 0. -1.
<mgrwt>
<rscale>  1 0.90623336E+02</rscale>
<asrwt>0</asrwt>
<pdfrwt beam="1">  1       21 0.67183617E-02 0.90623336E+02</pdfrwt>
<pdfrwt beam="2">  1        2 0.25430548E-01 0.90623336E+02</pdfrwt>
<totfact> 0.39936575E+05</totfact>
</mgrwt>
</event>
<event>
 6    2  0.9453093E+000  0.7623021E+02  0.7546771E-02  0.1340103E+00
         21   -1    0    0  501  502  0.00000000000E+00  0.00000000000E+00  0.37213876455E+01  0.37213876455E+01  0.00000000000E+00 0.  1.
          2   -1    0    0  502    0 -0.00000000000E+00 -0.00000000000E+00 -0.75540471048E+03  0.75540471048E+03  0.00000000000E+00 0. -1.
         24    2    1    2    0    0 -0.10126240612E+02 -0.25823064439E+02 -0.47793977428E+03  0.48398086051E+03  0.71004747007E+02 0.  0.
        -13    1    3    3    0    0  0.19884707076E+02  0.10036159590E+02 -0.72259144362E+02  0.75614218364E+02  0.00000000000E+00 0.  1.
         14    1    3    3    0    0 -0.30010947688E+02 -0.35859224030E+02 -0.40568062992E+03  0.40836664215E+03  0.00000000000E+00 0. -1.
          1    1    1    2  501    0  0.10126240612E+02  0.25823064439E+02 -0.27374354855E+03  0.27514523761E+03  0.00000000000E+00 0. -1.
<mgrwt>
<rscale>  1 0.76230214E+02</rscale>
<asrwt>0</asrwt>
<pdfrwt beam="1">  1       21 0.57252108E-03 0.76230214E+02</pdfrwt>
<pdfrwt beam="2">  1        2 0.11621613E+00 0.76230214E+02</pdfrwt>
<totfact> 0.39474514E+06</totfact>
</mgrwt>
</event>
<event>
 6    2  0.9453093E+000  0.9434054E+02  0.7546771E-02  0.1292668E+00
         21   -1    0    0  501  502  0.00000000000E+00  0.00000000000E+00  0.34279741971E+01  0.34279741971E+01  0.00000000000E+00 0.  1.
          2   -1    0    0  502    0 -0.00000000000E+00 -0.00000000000E+00 -0.16726051635E+04  0.16726051635E+04  0.00000000000E+00 0. -1.
         24    2    1    2    0    0 -0.51593151449E+02 -0.29619759532E+01 -0.84803029228E+03  0.85326169127E+03  0.78927248610E+02 0.  0.
        -13    1    3    3    0    0 -0.63650836800E+02 -0.23430935090E+02 -0.70683732818E+03  0.71008411210E+03  0.00000000000E+00 0.  1.
         14    1    3    3    0    0  0.12057685351E+02  0.20468959137E+02 -0.14119296410E+03  0.14317757917E+03  0.00000000000E+00 0. -1.
          1    1    1    2  501    0  0.51593151449E+02  0.29619759532E+01 -0.82114689698E+03  0.82277144639E+03  0.00000000000E+00 0. -1.
<mgrwt>
<rscale>  1 0.94340538E+02</rscale>
<asrwt>0</asrwt>
<pdfrwt beam="1">  1       21 0.52738012E-03 0.94340538E+02</pdfrwt>
<pdfrwt beam="2">  1        2 0.25732413E+00 0.94340538E+02</pdfrwt>
<totfact> 0.14123994E+06</totfact>
</mgrwt>
</event>
<event>
 6    2  0.9453093E+000  0.8213366E+02  0.7546771E-02  0.1323103E+00
         -3   -1    0    0    0  501 -0.00000000000E+00  0.00000000000E+00  0.23836663099E+02  0.23836663099E+02  0.00000000000E+00 0.  1.
         21   -1    0    0  501  502  0.00000000000E+00 -0.00000000000E+00 -0.12631398185E+03  0.12631398185E+03  0.00000000000E+00 0. -1.
         24    2    1    2    0    0 -0.16539062518E+02 -0.15940893810E+02 -0.59503793830E+02  0.10142307033E+03  0.78856103313E+02 0.  0.
        -13    1    3    3    0    0 -0.59023109458E+01  0.22724001487E+02  0.63488405265E+01  0.24321293019E+02  0.00000000000E+00 0.  1.
         14    1    3    3    0    0 -0.10636751572E+02 -0.38664895296E+02 -0.65852634357E+02  0.77101777307E+02  0.00000000000E+00 0. -1.
         -4    1    1    2    0  502  0.16539062518E+02  0.15940893810E+02 -0.42973524921E+02  0.48727574623E+02  0.00000000000E+00 0.  1.
<mgrwt>
<rscale>  1 0.82133658E+02</rscale>
<asrwt>0</asrwt>
<pdfrwt beam="1">  1       21 0.19432920E-01 0.82133658E+02</pdfrwt>
<pdfrwt beam="2">  1       -3 0.36671790E-02 0.82133658E+02</pdfrwt>
<totfact> 0.39486219E+05</totfact>
</mgrwt>
</event>
<event>
 6    2  0.9453093E+000  0.9955579E+02  0.7546771E-02  0.1281233E+00
          2   -1    0    0  502    0 -0.00000000000E+00  0.00000000000E+00  0.59890736943E+03  0.59890736943E+03  0.00000000000E+00 0. -1.
         21   -1    0    0  501  502  0.00000000000E+00 -0.00000000000E+00 -0.10239636935E+02  0.10239636935E+02  0.00000000000E+00 0.  1.
         24    2    1    2    0    0 -0.30117593995E+02  0.47770927130E+02  0.34952263401E+03  0.36342458355E+03  0.81989177903E+02 0.  0.
        -11    1    3    3    0    0 -0.11361136534E+02  0.17975179108E+02  0.12703222879E+02  0.24770029448E+02  0.00000000000E+00 0.  1.
         12    1    3    3    0    0 -0.18756457461E+02  0.29795748022E+02  0.33681941113E+03  0.33865455410E+03  0.00000000000E+00 0. -1.
          1    1    1    2  501    0  0.30117593995E+02 -0.47770927130E+02  0.23914509848E+03  0.24572242281E+03  0.00000000000E+00 0. -1.
<mgrwt>
<rscale>  1 0.99555795E+02</rscale>
<asrwt>0</asrwt>
<pdfrwt beam="1">  1       21 0.15753292E-02 0.99555795E+02</pdfrwt>
<pdfrwt beam="2">  1        2 0.92139568E-01 0.99555795E+02</pdfrwt>
<totfact> 0.10951559E+06</totfact>
</mgrwt>
</event>
<event>
 6    2  0.9453093E+000  0.8386316E+02  0.7546771E-02  0.1318433E+00
         21   -1    0    0  501  502  0.00000000000E+00  0.00000000000E+00  0.52164396717E+01  0.52164396717E+01  0.00000000000E+00 0.  1.
          2   -1    0    0  502    0 -0.00000000000E+00 -0.00000000000E+00 -0.66972625408E+03  0.66972625408E+03  0.00000000000E+00 0. -1.
         24    2    1    2    0    0  0.14530621692E+02 -0.22006566275E+02 -0.58943445060E+03  0.59537047387E+03  0.79609055240E+02 0.  0.
        -11    1    3    3    0    0  0.46354155363E+02 -0.22768992374E+02 -0.39174764527E+03  0.39513713102E+03  0.00000000000E+00 0.  1.
         12    1    3    3    0    0 -0.31823533671E+02  0.76242609964E+00 -0.19768680533E+03  0.20023334285E+03  0.00000000000E+00 0. -1.
          1    1    1    2  501    0 -0.14530621692E+02  0.22006566275E+02 -0.75075363811E+02  0.79572219884E+02  0.00000000000E+00 0. -1.
<mgrwt>
<rscale>  1 0.83863160E+02</rscale>
<asrwt>0</asrwt>
<pdfrwt beam="1">  1       21 0.80252966E-03 0.83863160E+02</pdfrwt>
<pdfrwt beam="2">  1        2 0.10303475E+00 0.83863160E+02</pdfrwt>
<totfact> 0.27312198E+06</totfact>
</mgrwt>
</event>
<event>
 6    2  0.9453093E+000  0.9208560E+02  0.7546771E-02  0.1297878E+00
          2   -1    0    0  502    0 -0.00000000000E+00  0.00000000000E+00  0.43219056621E+03  0.43219056621E+03  0.00000000000E+00 0. -1.
         21   -1    0    0  501  502  0.00000000000E+00 -0.00000000000E+00 -0.24048373283E+02  0.24048373283E+02  0.00000000000E+00 0. -1.
         24    2    1    2    0    0 -0.44849216251E+02 -0.87927280674E+00  0.40023207268E+03  0.41068901830E+03  0.80420970068E+02 0.  0.
        -13    1    3    3    0    0 -0.46881959883E+02  0.11878994462E+02  0.10991582345E+03  0.12008545672E+03  0.00000000000E+00 0.  1.
         14    1    3    3    0    0  0.20327436315E+01 -0.12758267269E+02  0.29031624923E+03  0.29060356157E+03  0.00000000000E+00 0. -1.
          1    1    1    2  501    0  0.44849216251E+02  0.87927280674E+00  0.79101202482E+01  0.45549921200E+02  0.00000000000E+00 0. -1.
<mgrwt>
<rscale>  1 0.92085600E+02</rscale>
<asrwt>0</asrwt>
<pdfrwt beam="1">  1       21 0.36997500E-02 0.92085600E+02</pdfrwt>
<pdfrwt beam="2">  1        2 0.66490851E-01 0.92085600E+02</pdfrwt>
<totfact> 0.39110101E+05</totfact>
</mgrwt>
</event>
<event>
 6    2  0.9453093E+000  0.8616239E+02  0.7546771E-02  0.1312420E+00
         21   -1    0    0  501  502  0.00000000000E+00  0.00000000000E+00  0.31023936396E+01  0.31023936396E+01  0.00000000000E+00 0.  1.
          2   -1    0    0  502    0 -0.00000000000E+00 -0.00000000000E+00 -0.11058801088E+04  0.11058801088E+04  0.00000000000E+00 0. -1.
         24    2    1    2    0    0 -0.24573045596E+02  0.18492360036E+02 -0.84234089801E+03  0.84673617229E+03  0.80486986860E+02 0.  0.
        -13    1    3    3    0    0 -0.37902852198E+02  0.38780436174E+02 -0.39093255545E+03  0.39467557734E+03  0.00000000000E+00 0.  1.
         14    1    3    3    0    0  0.13329806602E+02 -0.20288076138E+02 -0.45140834255E+03  0.45206059495E+03  0.00000000000E+00 0. -1.
          1    1    1    2  501    0  0.24573045596E+02 -0.18492360036E+02 -0.26043681713E+03  0.26224633013E+03  0.00000000000E+00 0. -1.
<mgrwt>
<rscale>  1 0.86162387E+02</rscale>
<asrwt>0</asrwt>
<pdfrwt beam="1">  1       21 0.47729122E-03 0.86162387E+02</pdfrwt>
<pdfrwt beam="2">  1        2 0.17013544E+00 0.86162387E+02</pdfrwt>
<totfact> 0.32333625E+06</totfact>
</mgrwt>
</event>
<event>
 6    2  0.9453093E+000  0.9816271E+02  0.7546771E-02  0.1284208E+00
          2   -1    0    0  502    0 -0.00000000000E+00  0.00000000000E+00  0.28806056174E+03  0.28806056174E+03  0.00000000000E+00 0. -1.
         21   -1    0    0  501  502  0.00000000000E+00 -0.00000000000E+00 -0.21880515911E+02  0.21880515911E+02  0.00000000000E+00 0.  1.
         24    2    1    2    0    0  0.17053065795E+02  0.53215562113E+02  0.20369054724E+03  0.22611005393E+03  0.80704487794E+02 0.  0.
        -13    1    3    3    0    0  0.67346158929E+01 -0.19147192136E+02  0.20377295661E+02  0.28761157772E+02  0.00000000000E+00 0.  1.
         14    1    3    3    0    0  0.10318449902E+02  0.72362754249E+02  0.18331325158E+03  0.19734889616E+03  0.00000000000E+00 0. -1.
          1    1    1    2  501    0 -0.17053065795E+02 -0.53215562113E+02  0.62489498593E+02  0.83831023723E+02  0.00000000000E+00 0. -1.
<mgrwt>
<rscale>  1 0.98162709E+02</rscale>
<asrwt>0</asrwt>
<pdfrwt beam="1">  1       21 0.33662334E-02 0.98162709E+02</pdfrwt>
<pdfrwt beam="2">  1        2 0.44317007E-01 0.98162709E+02</pdfrwt>
<totfact> 0.70285517E+05</totfact>
</mgrwt>
</event>
<event>
 6    2  0.9453093E+000  0.9116872E+02  0.7546771E-02  0.1300046E+00
         21   -1    0    0  501  502  0.00000000000E+00  0.00000000000E+00  0.12148632263E+04  0.12148632263E+04  0.00000000000E+00 0.  1.
          2   -1    0    0  502    0 -0.00000000000E+00 -0.00000000000E+00 -0.10994497826E+02  0.10994497826E+02  0.00000000000E+00 0. -1.
         24    2    1    2    0    0  0.76641267055E+01 -0.41276212819E+02  0.11652623502E+04  0.11688233746E+04  0.80927570374E+02 0.  0.
        -13    1    3    3    0    0  0.23847100130E+02 -0.36727153078E+02  0.11143005417E+04  0.11151606455E+04  0.00000000000E+00 0.  1.
         14    1    3    3    0    0 -0.16182973424E+02 -0.45490597404E+01  0.50961808513E+02  0.53662729154E+02  0.00000000000E+00 0. -1.
          1    1    1    2  501    0 -0.76641267055E+01  0.41276212819E+02  0.38606378299E+02  0.57034349547E+02  0.00000000000E+00 0. -1.
<mgrwt>
<rscale>  1 0.91168724E+02</rscale>
<asrwt>0</asrwt>
<pdfrwt beam="1">  1       21 0.18690193E+00 0.91168724E+02</pdfrwt>
<pdfrwt beam="2">  1        2 0.16914622E-02 0.91168724E+02</pdfrwt>
<totfact> 0.13781026E+04</totfact>
</mgrwt>
</event>
<event>
 6    2  0.9453093E+000  0.8996253E+02  0.7546771E-02  0.1302942E+00
          2   -1    0    0  502    0 -0.00000000000E+00  0.00000000000E+00  0.96728946457E+02  0.96728946457E+02  0.00000000000E+00 0. -1.
         21   -1    0    0  501  502  0.00000000000E+00 -0.00000000000E+00 -0.44437978086E+02  0.44437978086E+02  0.00000000000E+00 0. -1.
         24    2    1    2    0    0  0.34832008239E+02  0.11266211442E+02  0.19570168066E+02  0.92066546837E+02  0.82177011690E+02 0.  0.
        -11    1    3    3    0    0  0.26777569797E+00  0.36220407030E+02  0.31278037248E+02  0.47857133254E+02  0.00000000000E+00 0.  1.
         12    1    3    3    0    0  0.34564232541E+02 -0.24954195588E+02 -0.11707869182E+02  0.44209413583E+02  0.00000000000E+00 0. -1.
          1    1    1    2  501    0 -0.34832008239E+02 -0.11266211442E+02  0.32720800305E+02  0.49100377705E+02  0.00000000000E+00 0. -1.
<mgrwt>
<rscale>  1 0.89962534E+02</rscale>
<asrwt>0</asrwt>
<pdfrwt beam="1">  1       21 0.68366121E-02 0.89962534E+02</pdfrwt>
<pdfrwt beam="2">  1        2 0.14881376E-01 0.89962534E+02</pdfrwt>
<totfact> 0.70649764E+05</totfact>
</mgrwt>
</event>
<event>
 6    2  0.9453093E+000  0.8485196E+02  0.7546771E-02  0.1315820E+00
          4   -1    0    0  502    0 -0.00000000000E+00  0.00000000000E+00  0.63731609589E+03  0.63731609589E+03  0.00000000000E+00 0. -1.
         21   -1    0    0  501  502  0.00000000000E+00 -0.00000000000E+00 -0.54150716206E+01  0.54150716206E+01  0.00000000000E+00 0.  1.
         24    2    1    2    0    0 -0.24927919420E+02 -0.12264655005E+02  0.38312688429E+03  0.39241058175E+03  0.80175010327E+02 0.  0.
        -11    1    3    3    0    0 -0.45867072540E+02 -0.15168973472E+02  0.13497977286E+03  0.14336465806E+03  0.00000000000E+00 0.  1.
         12    1    3    3    0    0  0.20939153120E+02  0.29043184676E+01  0.24814711142E+03  0.24904592369E+03  0.00000000000E+00 0. -1.
          3    1    1    2  501    0  0.24927919420E+02  0.12264655005E+02  0.24877413998E+03  0.25032058575E+03  0.00000000000E+00 0. -1.
<mgrwt>
<rscale>  1 0.84851961E+02</rscale>
<asrwt>0</asrwt>
<pdfrwt beam="1">  1       21 0.83308844E-03 0.84851961E+02</pdfrwt>
<pdfrwt beam="2">  1        4 0.98048571E-01 0.84851961E+02</pdfrwt>
<totfact> 0.16532786E+05</totfact>
</mgrwt>
</event>
<event>
 6    2  0.9453093E+000  0.8605599E+02  0.7546771E-02  0.1312694E+00
         21   -1    0    0  501  502  0.00000000000E+00  0.00000000000E+00  0.18547364792E+02  0.18547364792E+02  0.00000000000E+00 0. -1.
          2   -1    0    0  502    0 -0.00000000000E+00 -0.00000000000E+00 -0.37574805549E+03  0.37574805549E+03  0.00000000000E+00 0. -1.
         24    2    1    2    0    0  0.18888925451E+02 -0.28918518071E+02 -0.34809479129E+03  0.35857442371E+03  0.78819803489E+02 0.  0.
        -13    1    3    3    0    0  0.51118973467E+01 -0.54784807821E+02 -0.19091269304E+03  0.19868357513E+03  0.00000000000E+00 0.  1.
         14    1    3    3    0    0  0.13777028104E+02  0.25866289749E+02 -0.15718209825E+03  0.15989084858E+03  0.00000000000E+00 0. -1.
          1    1    1    2  501    0 -0.18888925451E+02  0.28918518071E+02 -0.91058994072E+01  0.35720996573E+02  0.00000000000E+00 0. -1.
<mgrwt>
<rscale>  1 0.86055991E+02</rscale>
<asrwt>0</asrwt>
<pdfrwt beam="1">  1       21 0.28534408E-02 0.86055991E+02</pdfrwt>
<pdfrwt beam="2">  1        2 0.57807391E-01 0.86055991E+02</pdfrwt>
<totfact> 0.68827295E+05</totfact>
</mgrwt>
</event>
<event>
 6    2  0.9453093E+000  0.1181648E+03  0.7546771E-02  0.1246156E+00
          2   -1    0    0  502    0 -0.00000000000E+00  0.00000000000E+00  0.11174390586E+03  0.11174390586E+03  0.00000000000E+00 0. -1.
         21   -1    0    0  501  502  0.00000000000E+00 -0.00000000000E+00 -0.94897594352E+02  0.94897594352E+02  0.00000000000E+00 0. -1.
         24    2    1    2    0    0  0.62294545993E+02  0.60394001750E+02 -0.47153837223E+00  0.11816577568E+03  0.80217718026E+02 0.  0.
        -13    1    3    3    0    0  0.34047445636E+02  0.13450461080E+02 -0.37211888678E+02  0.52200269315E+02  0.00000000000E+00 0.  1.
         14    1    3    3    0    0  0.28247100357E+02  0.46943540670E+02  0.36740350305E+02  0.65965506363E+02  0.00000000000E+00 0. -1.
          1    1    1    2  501    0 -0.62294545993E+02 -0.60394001750E+02  0.17317849884E+02  0.88475724537E+02  0.00000000000E+00 0. -1.
<mgrwt>
<rscale>  1 0.11816483E+03</rscale>
<asrwt>0</asrwt>
<pdfrwt beam="1">  1       21 0.14599630E-01 0.11816483E+03</pdfrwt>
<pdfrwt beam="2">  1        2 0.17191370E-01 0.11816483E+03</pdfrwt>
<totfact> 0.16312610E+05</totfact>
</mgrwt>
</event>
<event>
 6    2  0.1153245E+001  0.8766242E+02  0.7546771E-02  0.1308613E+00
         21   -1    0    0  501  502  0.00000000000E+00  0.00000000000E+00  0.29706384135E+02  0.29706384135E+02  0.00000000000E+00 0.  1.
         -3   -1    0    0    0  501 -0.00000000000E+00 -0.00000000000E+00 -0.22311167396E+03  0.22311167396E+03  0.00000000000E+00 0.  1.
         24    2    1    2    0    0 -0.14306290475E+02  0.27683412798E+02 -0.20224560012E+03  0.22042681889E+03  0.81936917352E+02 0.  0.
        -13    1    3    3    0    0 -0.25565377731E+02  0.33592026059E+02 -0.20332955330E+03  0.20766540396E+03  0.00000000000E+00 0.  1.
         14    1    3    3    0    0  0.11259087256E+02 -0.59086132614E+01  0.10839531848E+01  0.12761414930E+02  0.00000000000E+00 0. -1.
         -4    1    1    2    0  502  0.14306290475E+02 -0.27683412798E+02  0.88403102964E+01  0.32391239208E+02  0.00000000000E+00 0.  1.
<mgrwt>
<rscale>  1 0.87662419E+02</rscale>
<asrwt>0</asrwt>
<pdfrwt beam="1">  1       21 0.45702131E-02 0.87662419E+02</pdfrwt>
<pdfrwt beam="2">  1       -3 0.34324872E-01 0.87662419E+02</pdfrwt>
<totfact> 0.11704078E+05</totfact>
</mgrwt>
</event>
<event>
 6    2  0.9453093E+000  0.8425873E+02  0.7546771E-02  0.1317382E+00
          2   -1    0    0  502    0 -0.00000000000E+00  0.00000000000E+00  0.42157523758E+02  0.42157523758E+02  0.00000000000E+00 0. -1.
         21   -1    0    0  501  502  0.00000000000E+00 -0.00000000000E+00 -0.10069007950E+03  0.10069007950E+03  0.00000000000E+00 0.  1.
         24    2    1    2    0    0 -0.43150668102E+01  0.24119815019E+02 -0.55117911069E+01  0.84438813161E+02  0.80617293733E+02 0.  0.
        -13    1    3    3    0    0  0.20789741147E+02  0.46085008780E+02  0.41443751090E+00  0.50559006415E+02  0.00000000000E+00 0.  1.
         14    1    3    3    0    0 -0.25104807957E+02 -0.21965193762E+02 -0.59262286178E+01  0.33879806746E+02  0.00000000000E+00 0. -1.
          1    1    1    2  501    0  0.43150668102E+01 -0.24119815019E+02 -0.53020764635E+02  0.58408790097E+02  0.00000000000E+00 0. -1.
<mgrwt>
<rscale>  1 0.84258728E+02</rscale>
<asrwt>0</asrwt>
<pdfrwt beam="1">  1       21 0.15490781E-01 0.84258728E+02</pdfrwt>
<pdfrwt beam="2">  1        2 0.64857730E-02 0.84258728E+02</pdfrwt>
<totfact> 0.46394051E+05</totfact>
</mgrwt>
</event>
<event>
 6    2  0.9453093E+000  0.8939554E+02  0.7546771E-02  0.1304322E+00
          2   -1    0    0  502    0 -0.00000000000E+00  0.00000000000E+00  0.10880331544E+04  0.10880331544E+04  0.00000000000E+00 0. -1.
         21   -1    0    0  501  502  0.00000000000E+00 -0.00000000000E+00 -0.39525021923E+01  0.39525021923E+01  0.00000000000E+00 0.  1.
         24    2    1    2    0    0 -0.25138783583E+02  0.20485352866E+02  0.94291250348E+03  0.94714072455E+03  0.83306390909E+02 0.  0.
        -11    1    3    3    0    0 -0.30771212381E+02 -0.15921860156E+02  0.17793752144E+03  0.18127916228E+03  0.00000000000E+00 0.  1.
         12    1    3    3    0    0  0.56324287976E+01  0.36407213022E+02  0.76497498204E+03  0.76586156227E+03  0.00000000000E+00 0. -1.
          1    1    1    2  501    0  0.25138783583E+02 -0.20485352866E+02  0.14116814871E+03  0.14484493202E+03  0.00000000000E+00 0. -1.
<mgrwt>
<rscale>  1 0.89395542E+02</rscale>
<asrwt>0</asrwt>
<pdfrwt beam="1">  1       21 0.60807813E-03 0.89395542E+02</pdfrwt>
<pdfrwt beam="2">  1        2 0.16738948E+00 0.89395542E+02</pdfrwt>
<totfact> 0.22903697E+06</totfact>
</mgrwt>
</event>
<event>
 6    2  0.9453093E+000  0.8302227E+02  0.7546771E-02  0.1320687E+00
         21   -1    0    0  501  502  0.00000000000E+00  0.00000000000E+00  0.31092496020E+02  0.31092496020E+02  0.00000000000E+00 0. -1.
         -1   -1    0    0    0  501 -0.00000000000E+00 -0.00000000000E+00 -0.90331719969E+02  0.90331719969E+02  0.00000000000E+00 0.  1.
         24    2    1    2    0    0  0.16429980367E+02  0.14523052369E+02 -0.39583689510E+02  0.91975899584E+02  0.80073930365E+02 0.  0.
        -13    1    3    3    0    0  0.13705238871E+02 -0.23922055720E+02 -0.45282695247E+02  0.53015288467E+02  0.00000000000E+00 0.  1.
         14    1    3    3    0    0  0.27247414958E+01  0.38445108089E+02  0.56990057369E+01  0.38960611117E+02  0.00000000000E+00 0. -1.
         -2    1    1    2    0  502 -0.16429980367E+02 -0.14523052369E+02 -0.19655534439E+02  0.29448316404E+02  0.00000000000E+00 0.  1.
<mgrwt>
<rscale>  1 0.83022272E+02</rscale>
<asrwt>0</asrwt>
<pdfrwt beam="1">  1       21 0.47834608E-02 0.83022272E+02</pdfrwt>
<pdfrwt beam="2">  1       -1 0.13897188E-01 0.83022272E+02</pdfrwt>
<totfact> 0.86484147E+05</totfact>
</mgrwt>
</event>
<event>
 6    2  0.9453093E+000  0.8908576E+02  0.7546771E-02  0.1305081E+00
         -1   -1    0    0    0  501 -0.00000000000E+00  0.00000000000E+00  0.15208252123E+02  0.15208252123E+02  0.00000000000E+00 0.  1.
         21   -1    0    0  501  502  0.00000000000E+00 -0.00000000000E+00 -0.84901552132E+03  0.84901552132E+03  0.00000000000E+00 0. -1.
         24    2    1    2    0    0  0.37220088195E+02  0.33689597896E+01 -0.81930863196E+03  0.82413767439E+03  0.80867713549E+02 0.  0.
        -11    1    3    3    0    0  0.11618512420E+02  0.11899373881E+02 -0.29474903805E+02  0.33843092115E+02  0.00000000000E+00 0.  1.
         12    1    3    3    0    0  0.25601575775E+02 -0.85304140910E+01 -0.78983372815E+03  0.79029458228E+03  0.00000000000E+00 0. -1.
         -2    1    1    2    0  502 -0.37220088195E+02 -0.33689597896E+01 -0.14498637237E+02  0.40086099050E+02  0.00000000000E+00 0.  1.
<mgrwt>
<rscale>  1 0.89085756E+02</rscale>
<asrwt>0</asrwt>
<pdfrwt beam="1">  1       21 0.13061776E+00 0.89085756E+02</pdfrwt>
<pdfrwt beam="2">  1       -1 0.23397313E-02 0.89085756E+02</pdfrwt>
<totfact> 0.20432167E+04</totfact>
</mgrwt>
</event>
<event>
 6    2  0.9453093E+000  0.9921553E+02  0.7546771E-02  0.1281954E+00
          2   -1    0    0  502    0 -0.00000000000E+00  0.00000000000E+00  0.11575720185E+02  0.11575720185E+02  0.00000000000E+00 0. -1.
         21   -1    0    0  501  502  0.00000000000E+00 -0.00000000000E+00 -0.10086380210E+04  0.10086380210E+04  0.00000000000E+00 0. -1.
         24    2    1    2    0    0  0.48954583449E+02 -0.29971242810E+02 -0.22358925038E+03  0.24461372417E+03  0.80925240398E+02 0.  0.
        -11    1    3    3    0    0 -0.12591910389E+02  0.34013319315E+01 -0.11283409881E+03  0.11358547055E+03  0.00000000000E+00 0.  1.
         12    1    3    3    0    0  0.61546493838E+02 -0.33372574741E+02 -0.11075515157E+03  0.13102825363E+03  0.00000000000E+00 0. -1.
          1    1    1    2  501    0 -0.48954583449E+02  0.29971242810E+02 -0.77347305046E+03  0.77560001703E+03  0.00000000000E+00 0. -1.
<mgrwt>
<rscale>  1 0.99215529E+02</rscale>
<asrwt>0</asrwt>
<pdfrwt beam="1">  1       21 0.15517505E+00 0.99215529E+02</pdfrwt>
<pdfrwt beam="2">  1        2 0.17808803E-02 0.99215529E+02</pdfrwt>
<totfact> 0.21086173E+04</totfact>
</mgrwt>
</event>
<event>
 6    2  0.9453093E+000  0.1059290E+03  0.7546771E-02  0.1268300E+00
         21   -1    0    0  501  502  0.00000000000E+00  0.00000000000E+00  0.21188913550E+03  0.21188913550E+03  0.00000000000E+00 0. -1.
          4   -1    0    0  502    0 -0.00000000000E+00 -0.00000000000E+00 -0.46001606086E+02  0.46001606086E+02  0.00000000000E+00 0. -1.
         24    2    1    2    0    0 -0.25193535082E+02 -0.28860760350E+02  0.20956708161E+02  0.10798210058E+03  0.98758760278E+02 0.  0.
        -11    1    3    3    0    0 -0.27286581356E+02 -0.75260763031E+01  0.58365122366E+02  0.64866685251E+02  0.00000000000E+00 0.  1.
         12    1    3    3    0    0  0.20930462736E+01 -0.21334684047E+02 -0.37408414205E+02  0.43115415334E+02  0.00000000000E+00 0. -1.
          3    1    1    2  501    0  0.25193535082E+02  0.28860760350E+02  0.14493082125E+03  0.14990864100E+03  0.00000000000E+00 0. -1.
<mgrwt>
<rscale>  1 0.10592899E+03</rscale>
<asrwt>0</asrwt>
<pdfrwt beam="1">  1       21 0.32598328E-01 0.10592899E+03</pdfrwt>
<pdfrwt beam="2">  1        4 0.70771703E-02 0.10592899E+03</pdfrwt>
<totfact> 0.48379582E+04</totfact>
</mgrwt>
</event>
<event>
 6    2  0.9453093E+000  0.8469404E+02  0.7546771E-02  0.1316235E+00
         21   -1    0    0  501  502  0.00000000000E+00  0.00000000000E+00  0.13989463785E+03  0.13989463785E+03  0.00000000000E+00 0.  1.
         -3   -1    0    0    0  501 -0.00000000000E+00 -0.00000000000E+00 -0.39174185110E+02  0.39174185110E+02  0.00000000000E+00 0.  1.
         24    2    1    2    0    0 -0.11476981964E+01  0.28429770020E+02  0.11561052631E+02  0.85479466394E+02  0.79771625297E+02 0.  0.
        -13    1    3    3    0    0 -0.17090311989E+02 -0.14005139687E+02 -0.20353128937E+02  0.30041181053E+02  0.00000000000E+00 0.  1.
         14    1    3    3    0    0  0.15942613793E+02  0.42434909707E+02  0.31914181568E+02  0.55438285341E+02  0.00000000000E+00 0. -1.
         -4    1    1    2    0  502  0.11476981964E+01 -0.28429770020E+02  0.89159400114E+02  0.93589356570E+02  0.00000000000E+00 0.  1.
<mgrwt>
<rscale>  1 0.84694045E+02</rscale>
<asrwt>0</asrwt>
<pdfrwt beam="1">  1       21 0.21522252E-01 0.84694045E+02</pdfrwt>
<pdfrwt beam="2">  1       -3 0.60267977E-02 0.84694045E+02</pdfrwt>
<totfact> 0.15166480E+05</totfact>
</mgrwt>
</event>
<event>
 6    2  0.9453093E+000  0.1258683E+03  0.7546771E-02  0.1233719E+00
         21   -1    0    0  501  502  0.00000000000E+00  0.00000000000E+00  0.13301748412E+03  0.13301748412E+03  0.00000000000E+00 0.  1.
         -1   -1    0    0    0  501 -0.00000000000E+00 -0.00000000000E+00 -0.94938303768E+02  0.94938303768E+02  0.00000000000E+00 0.  1.
         24    2    1    2    0    0 -0.82987415384E+02 -0.52046199149E+02  0.31654260908E+02  0.12978757741E+03  0.79038630172E+02 0.  0.
        -13    1    3    3    0    0 -0.76417910735E+02 -0.49667125944E+02 -0.61458975878E+01  0.91347099231E+02  0.00000000000E+00 0.  1.
         14    1    3    3    0    0 -0.65695046486E+01 -0.23790732048E+01  0.37800158496E+02  0.38440478183E+02  0.00000000000E+00 0. -1.
         -2    1    1    2    0  502  0.82987415384E+02  0.52046199149E+02  0.64249194440E+01  0.98168210475E+02  0.00000000000E+00 0.  1.
<mgrwt>
<rscale>  1 0.12586828E+03</rscale>
<asrwt>0</asrwt>
<pdfrwt beam="1">  1       21 0.20464228E-01 0.12586828E+03</pdfrwt>
<pdfrwt beam="2">  1       -1 0.14605893E-01 0.12586828E+03</pdfrwt>
<totfact> 0.65832539E+04</totfact>
</mgrwt>
</event>
<event>
 6    2  0.9453093E+000  0.8509775E+02  0.7546771E-02  0.1315177E+00
         21   -1    0    0  501  502  0.00000000000E+00  0.00000000000E+00  0.47444984747E+01  0.47444984747E+01  0.00000000000E+00 0.  1.
          2   -1    0    0  502    0 -0.00000000000E+00 -0.00000000000E+00 -0.67856556656E+03  0.67856556656E+03  0.00000000000E+00 0. -1.
         24    2    1    2    0    0 -0.92845038681E+01 -0.24605281277E+02 -0.56401702487E+03  0.57040058897E+03  0.80932105341E+02 0.  0.
        -13    1    3    3    0    0 -0.48349801457E+01 -0.33529578968E+02 -0.88244189354E+02  0.94523259854E+02  0.00000000000E+00 0.  1.
         14    1    3    3    0    0 -0.44495237224E+01  0.89242976912E+01 -0.47577283552E+03  0.47587732912E+03  0.00000000000E+00 0. -1.
          1    1    1    2  501    0  0.92845038681E+01  0.24605281277E+02 -0.10980404321E+03  0.11290947606E+03  0.00000000000E+00 0. -1.
<mgrwt>
<rscale>  1 0.85097753E+02</rscale>
<asrwt>0</asrwt>
<pdfrwt beam="1">  1       21 0.72992322E-03 0.85097753E+02</pdfrwt>
<pdfrwt beam="2">  1        2 0.10439465E+00 0.85097753E+02</pdfrwt>
<totfact> 0.31211855E+06</totfact>
</mgrwt>
</event>
<event>
 6    2  0.9453093E+000  0.8575971E+02  0.7546771E-02  0.1313458E+00
         21   -1    0    0  501  502  0.00000000000E+00  0.00000000000E+00  0.73006668183E+01  0.73006668183E+01  0.00000000000E+00 0.  1.
          2   -1    0    0  502    0 -0.00000000000E+00 -0.00000000000E+00 -0.82786838639E+03  0.82786838639E+03  0.00000000000E+00 0. -1.
         24    2    1    2    0    0 -0.32315466144E+01  0.27520268193E+02 -0.78692454844E+03  0.79158383761E+03  0.81159835975E+02 0.  0.
        -13    1    3    3    0    0  0.38737845689E+02  0.17525958945E+02 -0.40958464679E+03  0.41178557868E+03  0.00000000000E+00 0.  1.
         14    1    3    3    0    0 -0.41969392303E+02  0.99943092477E+01 -0.37733990165E+03  0.37979825893E+03  0.00000000000E+00 0. -1.
          1    1    1    2  501    0  0.32315466144E+01 -0.27520268193E+02 -0.33643171137E+02  0.43585215602E+02  0.00000000000E+00 0. -1.
<mgrwt>
<rscale>  1 0.85759705E+02</rscale>
<asrwt>0</asrwt>
<pdfrwt beam="1">  1       21 0.11231795E-02 0.85759705E+02</pdfrwt>
<pdfrwt beam="2">  1        2 0.12736437E+00 0.85759705E+02</pdfrwt>
<totfact> 0.12605197E+06</totfact>
</mgrwt>
</event>
<event>
 6    2  0.9453093E+000  0.8820665E+02  0.7546771E-02  0.1307254E+00
         -3   -1    0    0    0  501 -0.00000000000E+00  0.00000000000E+00  0.77508262035E+02  0.77508262035E+02  0.00000000000E+00 0.  1.
         21   -1    0    0  501  502  0.00000000000E+00 -0.00000000000E+00 -0.48848023762E+02  0.48848023762E+02  0.00000000000E+00 0. -1.
         24    2    1    2    0    0 -0.27568846899E+01  0.32701407972E+02  0.30900295833E+02  0.93462512004E+02  0.81874479363E+02 0.  0.
        -11    1    3    3    0    0 -0.14607406143E+02 -0.50219227550E+01  0.47969132055E+02  0.50394778028E+02  0.00000000000E+00 0.  1.
         12    1    3    3    0    0  0.11850521453E+02  0.37723330727E+02 -0.17068836222E+02  0.43067733976E+02  0.00000000000E+00 0. -1.
         -4    1    1    2    0  502  0.27568846899E+01 -0.32701407972E+02 -0.22400575604E+01  0.32893773794E+02  0.00000000000E+00 0.  1.
<mgrwt>
<rscale>  1 0.88206649E+02</rscale>
<asrwt>0</asrwt>
<pdfrwt beam="1">  1       21 0.75150806E-02 0.88206649E+02</pdfrwt>
<pdfrwt beam="2">  1       -3 0.11924348E-01 0.88206649E+02</pdfrwt>
<totfact> 0.32384626E+05</totfact>
</mgrwt>
</event>
<event>
 6    2  0.9453093E+000  0.9916653E+02  0.7546771E-02  0.1282058E+00
          2   -1    0    0  502    0 -0.00000000000E+00  0.00000000000E+00  0.13212836803E+03  0.13212836803E+03  0.00000000000E+00 0. -1.
         21   -1    0    0  501  502  0.00000000000E+00 -0.00000000000E+00 -0.51396765988E+02  0.51396765988E+02  0.00000000000E+00 0. -1.
         24    2    1    2    0    0 -0.42443643200E+02  0.38558473025E+02  0.77913213257E+02  0.12611292272E+03  0.80906005880E+02 0.  0.
        -13    1    3    3    0    0 -0.61746644448E+01 -0.74898678080E+01 -0.14038139983E+02  0.17067336493E+02  0.00000000000E+00 0.  1.
         14    1    3    3    0    0 -0.36268978755E+02  0.46048340833E+02  0.91951353240E+02  0.10904558623E+03  0.00000000000E+00 0. -1.
          1    1    1    2  501    0  0.42443643200E+02 -0.38558473025E+02  0.28183887802E+01  0.57412211292E+02  0.00000000000E+00 0. -1.
<mgrwt>
<rscale>  1 0.99166529E+02</rscale>
<asrwt>0</asrwt>
<pdfrwt beam="1">  1       21 0.79071948E-02 0.99166529E+02</pdfrwt>
<pdfrwt beam="2">  1        2 0.20327441E-01 0.99166529E+02</pdfrwt>
<totfact> 0.39026638E+05</totfact>
</mgrwt>
</event>
<event>
 6    2  0.9453093E+000  0.8672833E+02  0.7546771E-02  0.1310974E+00
         21   -1    0    0  501  502  0.00000000000E+00  0.00000000000E+00  0.37550758417E+02  0.37550758417E+02  0.00000000000E+00 0.  1.
         -1   -1    0    0    0  501 -0.00000000000E+00 -0.00000000000E+00 -0.12430743277E+03  0.12430743277E+03  0.00000000000E+00 0.  1.
         24    2    1    2    0    0 -0.27668567529E+02 -0.32478178393E+02 -0.81243877208E+02  0.11883758411E+03  0.75507761932E+02 0.  0.
        -11    1    3    3    0    0 -0.12810305947E+02 -0.54271114615E+02 -0.35712475401E+02  0.66218114736E+02  0.00000000000E+00 0.  1.
         12    1    3    3    0    0 -0.14858261582E+02  0.21792936222E+02 -0.45531401807E+02  0.52619469372E+02  0.00000000000E+00 0. -1.
         -2    1    1    2    0  502  0.27668567529E+02  0.32478178393E+02 -0.55127971426E+01  0.43020607076E+02  0.00000000000E+00 0.  1.
<mgrwt>
<rscale>  1 0.86728333E+02</rscale>
<asrwt>0</asrwt>
<pdfrwt beam="1">  1       21 0.57770397E-02 0.86728333E+02</pdfrwt>
<pdfrwt beam="2">  1       -1 0.19124221E-01 0.86728333E+02</pdfrwt>
<totfact> 0.38601664E+05</totfact>
</mgrwt>
</event>
<event>
 6    2  0.9453093E+000  0.8494373E+02  0.7546771E-02  0.1315580E+00
          4   -1    0    0  502    0 -0.00000000000E+00  0.00000000000E+00  0.34495545412E+03  0.34495545412E+03  0.00000000000E+00 0. -1.
         21   -1    0    0  501  502  0.00000000000E+00 -0.00000000000E+00 -0.10643781703E+02  0.10643781703E+02  0.00000000000E+00 0.  1.
         24    2    1    2    0    0 -0.26623693434E+02 -0.12825673963E+02  0.29116352169E+03  0.30330122558E+03  0.79637416508E+02 0.  0.
        -11    1    3    3    0    0 -0.24667800090E+02 -0.17264366757E+02  0.31438395203E+02  0.43530809937E+02  0.00000000000E+00 0.  1.
         12    1    3    3    0    0 -0.19558933436E+01  0.44386927937E+01  0.25972512649E+03  0.25977041564E+03  0.00000000000E+00 0. -1.
          3    1    1    2  501    0  0.26623693434E+02  0.12825673963E+02  0.43148150730E+02  0.52298010250E+02  0.00000000000E+00 0. -1.
<mgrwt>
<rscale>  1 0.84943729E+02</rscale>
<asrwt>0</asrwt>
<pdfrwt beam="1">  1       21 0.16375051E-02 0.84943729E+02</pdfrwt>
<pdfrwt beam="2">  1        4 0.53070061E-01 0.84943729E+02</pdfrwt>
<totfact> 0.21420267E+05</totfact>
</mgrwt>
</event>
<event>
 6    2  0.9453093E+000  0.1331108E+03  0.7546771E-02  0.1222912E+00
         21   -1    0    0  501  502  0.00000000000E+00  0.00000000000E+00  0.17986415336E+02  0.17986415336E+02  0.00000000000E+00 0. -1.
          2   -1    0    0  502    0 -0.00000000000E+00 -0.00000000000E+00 -0.16213285897E+04  0.16213285897E+04  0.00000000000E+00 0. -1.
         24    2    1    2    0    0  0.26222535760E+02  0.99822530596E+02 -0.14397256486E+04  0.14458659768E+04  0.84061411055E+02 0.  0.
        -13    1    3    3    0    0  0.18986824361E+02 -0.31875892919E+01 -0.82459041662E+02  0.84676760546E+02  0.00000000000E+00 0.  1.
         14    1    3    3    0    0  0.72357113993E+01  0.10301011989E+03 -0.13572666069E+04  0.13611892163E+04  0.00000000000E+00 0. -1.
          1    1    1    2  501    0 -0.26222535760E+02 -0.99822530596E+02 -0.16361652576E+03  0.19344902817E+03  0.00000000000E+00 0. -1.
<mgrwt>
<rscale>  1 0.13311078E+03</rscale>
<asrwt>0</asrwt>
<pdfrwt beam="1">  1       21 0.27671416E-02 0.13311078E+03</pdfrwt>
<pdfrwt beam="2">  1        2 0.24943510E+00 0.13311078E+03</pdfrwt>
<totfact> 0.11003406E+05</totfact>
</mgrwt>
</event>
<event>
 6    2  0.9453093E+000  0.1087281E+03  0.7546771E-02  0.1262944E+00
         21   -1    0    0  501  502  0.00000000000E+00  0.00000000000E+00  0.97500168122E+02  0.97500168122E+02  0.00000000000E+00 0. -1.
          4   -1    0    0  502    0 -0.00000000000E+00 -0.00000000000E+00 -0.15040218982E+03  0.15040218982E+03  0.00000000000E+00 0. -1.
         24    2    1    2    0    0 -0.70373770450E+00 -0.79691655006E+02 -0.10623203642E+03  0.15200999331E+03  0.73963081190E+02 0.  0.
        -13    1    3    3    0    0  0.80631855412E+01 -0.24292717997E+02  0.62248405402E+01  0.26341976929E+02  0.00000000000E+00 0.  1.
         14    1    3    3    0    0 -0.87669232457E+01 -0.55398937009E+02 -0.11245687696E+03  0.12566801638E+03  0.00000000000E+00 0. -1.
          3    1    1    2  501    0  0.70373770450E+00  0.79691655006E+02  0.53330014724E+02  0.95892364632E+02  0.00000000000E+00 0. -1.
<mgrwt>
<rscale>  1 0.10872807E+03</rscale>
<asrwt>0</asrwt>
<pdfrwt beam="1">  1       21 0.15000026E-01 0.10872807E+03</pdfrwt>
<pdfrwt beam="2">  1        4 0.23138798E-01 0.10872807E+03</pdfrwt>
<totfact> 0.26909145E+04</totfact>
</mgrwt>
</event>
<event>
 6    2  0.9453093E+000  0.8357177E+02  0.7546771E-02  0.1319210E+00
          4   -1    0    0  502    0 -0.00000000000E+00  0.00000000000E+00  0.87361766748E+02  0.87361766748E+02  0.00000000000E+00 0. -1.
         21   -1    0    0  501  502  0.00000000000E+00 -0.00000000000E+00 -0.30922040915E+02  0.30922040915E+02  0.00000000000E+00 0.  1.
         24    2    1    2    0    0 -0.87142942426E+01  0.18420475235E+02  0.45223501772E+02  0.95023186127E+02  0.81049293378E+02 0.  0.
        -11    1    3    3    0    0 -0.30143443118E+02  0.13669201166E+02 -0.10830493336E+02  0.34824902145E+02  0.00000000000E+00 0.  1.
         12    1    3    3    0    0  0.21429148876E+02  0.47512740698E+01  0.56053995107E+02  0.60198283981E+02  0.00000000000E+00 0. -1.
          3    1    1    2  501    0  0.87142942426E+01 -0.18420475235E+02  0.11216224061E+02  0.23260621536E+02  0.00000000000E+00 0. -1.
<mgrwt>
<rscale>  1 0.83571770E+02</rscale>
<asrwt>0</asrwt>
<pdfrwt beam="1">  1       21 0.47572371E-02 0.83571770E+02</pdfrwt>
<pdfrwt beam="2">  1        4 0.13440272E-01 0.83571770E+02</pdfrwt>
<totfact> 0.48328810E+05</totfact>
</mgrwt>
</event>
<event>
 6    2  0.9453093E+000  0.8499933E+02  0.7546771E-02  0.1315434E+00
          2   -1    0    0  502    0 -0.00000000000E+00  0.00000000000E+00  0.73045451358E+03  0.73045451358E+03  0.00000000000E+00 0. -1.
         21   -1    0    0  501  502  0.00000000000E+00 -0.00000000000E+00 -0.15069849456E+02  0.15069849456E+02  0.00000000000E+00 0. -1.
         24    2    1    2    0    0 -0.23943861462E+02 -0.25143966130E+02  0.70381156849E+03  0.70892567348E+03  0.77584528379E+02 0.  0.
        -13    1    3    3    0    0 -0.51613351249E+02 -0.24833229287E+02  0.48594801906E+03  0.48931186838E+03  0.00000000000E+00 0.  1.
         14    1    3    3    0    0  0.27669489787E+02 -0.31073684307E+00  0.21786354943E+03  0.21961380511E+03  0.00000000000E+00 0. -1.
          1    1    1    2  501    0  0.23943861462E+02  0.25143966130E+02  0.11573095628E+02  0.36598689551E+02  0.00000000000E+00 0. -1.
<mgrwt>
<rscale>  1 0.84999333E+02</rscale>
<asrwt>0</asrwt>
<pdfrwt beam="1">  1       21 0.23184389E-02 0.84999333E+02</pdfrwt>
<pdfrwt beam="2">  1        2 0.11237759E+00 0.84999333E+02</pdfrwt>
<totfact> 0.46420734E+05</totfact>
</mgrwt>
</event>
<event>
 6    2  0.9453093E+000  0.8242863E+02  0.7546771E-02  0.1322297E+00
         21   -1    0    0  501  502  0.00000000000E+00  0.00000000000E+00  0.10712968700E+02  0.10712968700E+02  0.00000000000E+00 0.  1.
          2   -1    0    0  502    0 -0.00000000000E+00 -0.00000000000E+00 -0.25240891781E+03  0.25240891781E+03  0.00000000000E+00 0. -1.
         24    2    1    2    0    0  0.11087158208E+02  0.18215816666E+02 -0.19902345035E+03  0.21541776505E+03  0.79622475818E+02 0.  0.
        -11    1    3    3    0    0  0.77934776098E+01  0.10377209848E+02  0.29143396704E+01  0.13301058349E+02  0.00000000000E+00 0.  1.
         12    1    3    3    0    0  0.32936805981E+01  0.78386068173E+01 -0.20193779002E+03  0.20211670670E+03  0.00000000000E+00 0. -1.
          1    1    1    2  501    0 -0.11087158208E+02 -0.18215816666E+02 -0.42672498756E+02  0.47704121457E+02  0.00000000000E+00 0. -1.
<mgrwt>
<rscale>  1 0.82428634E+02</rscale>
<asrwt>0</asrwt>
<pdfrwt beam="1">  1       21 0.16481491E-02 0.82428634E+02</pdfrwt>
<pdfrwt beam="2">  1        2 0.38832140E-01 0.82428634E+02</pdfrwt>
<totfact> 0.24993547E+06</totfact>
</mgrwt>
</event>
<event>
 6    2  0.9453093E+000  0.1100668E+03  0.7546771E-02  0.1260446E+00
         -3   -1    0    0    0  501 -0.00000000000E+00  0.00000000000E+00  0.25658113933E+02  0.25658113933E+02  0.00000000000E+00 0.  1.
         21   -1    0    0  501  502  0.00000000000E+00 -0.00000000000E+00 -0.32705630393E+03  0.32705630393E+03  0.00000000000E+00 0.  1.
         24    2    1    2    0    0 -0.65177273293E+02  0.20556358322E+02 -0.14505722793E+03  0.18208869518E+03  0.86278923941E+02 0.  0.
        -13    1    3    3    0    0 -0.45911393080E+02 -0.93747883507E+00 -0.14171453808E+02  0.48057933624E+02  0.00000000000E+00 0.  1.
         14    1    3    3    0    0 -0.19265880213E+02  0.21493837157E+02 -0.13088577412E+03  0.13403076156E+03  0.00000000000E+00 0. -1.
         -4    1    1    2    0  502  0.65177273293E+02 -0.20556358322E+02 -0.15634096207E+03  0.17062572269E+03  0.00000000000E+00 0.  1.
<mgrwt>
<rscale>  1 0.11006677E+03</rscale>
<asrwt>0</asrwt>
<pdfrwt beam="1">  1       21 0.50316354E-01 0.11006677E+03</pdfrwt>
<pdfrwt beam="2">  1       -3 0.39474022E-02 0.11006677E+03</pdfrwt>
<totfact> 0.58579171E+04</totfact>
</mgrwt>
</event>
<event>
 6    2  0.9453093E+000  0.7754835E+02  0.7546771E-02  0.1336156E+00
         21   -1    0    0  501  502  0.00000000000E+00  0.00000000000E+00  0.20684786170E+01  0.20684786170E+01  0.00000000000E+00 0.  1.
          2   -1    0    0  502    0 -0.00000000000E+00 -0.00000000000E+00 -0.16121239256E+04  0.16121239256E+04  0.00000000000E+00 0. -1.
         24    2    1    2    0    0 -0.26093166890E+02  0.13054198658E+02 -0.83649279872E+03  0.84007972750E+03  0.71850405643E+02 0.  0.
        -13    1    3    3    0    0 -0.50691926179E+02  0.27819956575E+01 -0.57053119450E+03  0.57278552250E+03  0.00000000000E+00 0.  1.
         14    1    3    3    0    0  0.24598759290E+02  0.10272203001E+02 -0.26596160422E+03  0.26729420501E+03  0.00000000000E+00 0. -1.
          1    1    1    2  501    0  0.26093166890E+02 -0.13054198658E+02 -0.77356264826E+03  0.77411267671E+03  0.00000000000E+00 0. -1.
<mgrwt>
<rscale>  1 0.77548348E+02</rscale>
<asrwt>0</asrwt>
<pdfrwt beam="1">  1       21 0.31822738E-03 0.77548348E+02</pdfrwt>
<pdfrwt beam="2">  1        2 0.24801915E+00 0.77548348E+02</pdfrwt>
<totfact> 0.32192912E+06</totfact>
</mgrwt>
</event>
<event>
 6    2  0.9453093E+000  0.8677205E+02  0.7546771E-02  0.1310862E+00
         21   -1    0    0  501  502  0.00000000000E+00  0.00000000000E+00  0.22231799087E+03  0.22231799087E+03  0.00000000000E+00 0. -1.
         -3   -1    0    0    0  501 -0.00000000000E+00 -0.00000000000E+00 -0.21316747954E+02  0.21316747954E+02  0.00000000000E+00 0.  1.
         24    2    1    2    0    0  0.15606461828E+01  0.32475529553E+02  0.78903888756E+02  0.11728261368E+03  0.80450557326E+02 0.  0.
        -11    1    3    3    0    0  0.36892698211E+02  0.71960697684E+00  0.21261044251E+02  0.42586629570E+02  0.00000000000E+00 0.  1.
         12    1    3    3    0    0 -0.35332052028E+02  0.31755922576E+02  0.57642844505E+02  0.74695984108E+02  0.00000000000E+00 0. -1.
         -4    1    1    2    0  502 -0.15606461828E+01 -0.32475529553E+02  0.12209735415E+03  0.12635212514E+03  0.00000000000E+00 0.  1.
<mgrwt>
<rscale>  1 0.86772045E+02</rscale>
<asrwt>0</asrwt>
<pdfrwt beam="1">  1       21 0.34202766E-01 0.86772045E+02</pdfrwt>
<pdfrwt beam="2">  1       -3 0.32794998E-02 0.86772045E+02</pdfrwt>
<totfact> 0.16379048E+05</totfact>
</mgrwt>
</event>
<event>
 6    2  0.9453093E+000  0.8640517E+02  0.7546771E-02  0.1311798E+00
          2   -1    0    0  502    0 -0.00000000000E+00  0.00000000000E+00  0.47742815571E+03  0.47742815571E+03  0.00000000000E+00 0. -1.
         21   -1    0    0  501  502  0.00000000000E+00 -0.00000000000E+00 -0.75125300401E+01  0.75125300401E+01  0.00000000000E+00 0. -1.
         24    2    1    2    0    0 -0.25471452096E+02 -0.21313698311E+02  0.35039983162E+03  0.36089596141E+03  0.79767063127E+02 0.  0.
        -11    1    3    3    0    0  0.26703559514E+02  0.13296366777E+01  0.73419185464E+02  0.78135938074E+02  0.00000000000E+00 0.  1.
         12    1    3    3    0    0 -0.52175011611E+02 -0.22643334989E+02  0.27698064615E+03  0.28276002334E+03  0.00000000000E+00 0. -1.
          1    1    1    2  501    0  0.25471452096E+02  0.21313698311E+02  0.11951579405E+03  0.12404472434E+03  0.00000000000E+00 0. -1.
<mgrwt>
<rscale>  1 0.86405167E+02</rscale>
<asrwt>0</asrwt>
<pdfrwt beam="1">  1       21 0.11557742E-02 0.86405167E+02</pdfrwt>
<pdfrwt beam="2">  1        2 0.73450462E-01 0.86405167E+02</pdfrwt>
<totfact> 0.22554176E+06</totfact>
</mgrwt>
</event>
<event>
 6    2  0.9453093E+000  0.8371886E+02  0.7546771E-02  0.1318817E+00
          2   -1    0    0  502    0 -0.00000000000E+00  0.00000000000E+00  0.14675808731E+04  0.14675808731E+04  0.00000000000E+00 0. -1.
         21   -1    0    0  501  502  0.00000000000E+00 -0.00000000000E+00 -0.13361178068E+02  0.13361178068E+02  0.00000000000E+00 0. -1.
         24    2    1    2    0    0 -0.14061590061E+02  0.14630652350E+02  0.14579142526E+04  0.14603159983E+04  0.81222303473E+02 0.  0.
        -13    1    3    3    0    0 -0.31455239910E+02  0.43807345067E+01  0.22436888166E+03  0.22660542361E+03  0.00000000000E+00 0.  1.
         14    1    3    3    0    0  0.17393649848E+02  0.10249917844E+02  0.12335453709E+04  0.12337105747E+04  0.00000000000E+00 0. -1.
          1    1    1    2  501    0  0.14061590061E+02 -0.14630652350E+02 -0.36945575484E+01  0.20626052912E+02  0.00000000000E+00 0. -1.
<mgrwt>
<rscale>  1 0.83718856E+02</rscale>
<asrwt>0</asrwt>
<pdfrwt beam="1">  1       21 0.20555670E-02 0.83718856E+02</pdfrwt>
<pdfrwt beam="2">  1        2 0.22578155E+00 0.83718856E+02</pdfrwt>
<totfact> 0.21220836E+05</totfact>
</mgrwt>
</event>
<event>
 6    2  0.9453093E+000  0.1040974E+03  0.7546771E-02  0.1271908E+00
         -1   -1    0    0    0  501 -0.00000000000E+00  0.00000000000E+00  0.53918232145E+02  0.53918232145E+02  0.00000000000E+00 0.  1.
         21   -1    0    0  501  502  0.00000000000E+00 -0.00000000000E+00 -0.28365372655E+03  0.28365372655E+03  0.00000000000E+00 0.  1.
         24    2    1    2    0    0 -0.59853433007E+02  0.25827295596E+02 -0.57089719968E+01  0.10425379527E+03  0.81158972560E+02 0.  0.
        -13    1    3    3    0    0 -0.60184386451E+02  0.19536928362E+02  0.28551329449E+02  0.69419236207E+02  0.00000000000E+00 0.  1.
         14    1    3    3    0    0  0.33095344454E+00  0.62903672341E+01 -0.34260301445E+02  0.34834559065E+02  0.00000000000E+00 0. -1.
         -2    1    1    2    0  502  0.59853433007E+02 -0.25827295596E+02 -0.22402652241E+03  0.23331816343E+03  0.00000000000E+00 0.  1.
<mgrwt>
<rscale>  1 0.10409737E+03</rscale>
<asrwt>0</asrwt>
<pdfrwt beam="1">  1       21 0.43639035E-01 0.10409737E+03</pdfrwt>
<pdfrwt beam="2">  1       -1 0.82951127E-02 0.10409737E+03</pdfrwt>
<totfact> 0.36157103E+04</totfact>
</mgrwt>
</event>
<event>
 6    2  0.9453093E+000  0.9561212E+02  0.7546771E-02  0.1289803E+00
         21   -1    0    0  501  502  0.00000000000E+00  0.00000000000E+00  0.19668911616E+02  0.19668911616E+02  0.00000000000E+00 0. -1.
          2   -1    0    0  502    0 -0.00000000000E+00 -0.00000000000E+00 -0.61335692199E+03  0.61335692199E+03  0.00000000000E+00 0. -1.
         24    2    1    2    0    0  0.52838693375E+02  0.13137128542E+02 -0.56190363441E+03  0.56998015001E+03  0.78594945015E+02 0.  0.
        -11    1    3    3    0    0  0.14282150580E+02 -0.24905909512E+02 -0.79129745894E+02  0.84177199045E+02  0.00000000000E+00 0.  1.
         12    1    3    3    0    0  0.38556542795E+02  0.38043038054E+02 -0.48277388852E+03  0.48580295097E+03  0.00000000000E+00 0. -1.
          1    1    1    2  501    0 -0.52838693375E+02 -0.13137128542E+02 -0.31784375959E+02  0.63045683588E+02  0.00000000000E+00 0. -1.
<mgrwt>
<rscale>  1 0.95612118E+02</rscale>
<asrwt>0</asrwt>
<pdfrwt beam="1">  1       21 0.30259864E-02 0.95612118E+02</pdfrwt>
<pdfrwt beam="2">  1        2 0.94362604E-01 0.95612118E+02</pdfrwt>
<totfact> 0.37195288E+05</totfact>
</mgrwt>
</event>
<event>
 6    2  0.9453093E+000  0.8973777E+02  0.7546771E-02  0.1303488E+00
         21   -1    0    0  501  502  0.00000000000E+00  0.00000000000E+00  0.56265761340E+01  0.56265761340E+01  0.00000000000E+00 0.  1.
          4   -1    0    0  502    0 -0.00000000000E+00 -0.00000000000E+00 -0.71275135062E+03  0.71275135062E+03  0.00000000000E+00 0. -1.
         24    2    1    2    0    0 -0.22436281388E+01  0.33512891657E+02 -0.57951907034E+03  0.58642580095E+03  0.83214898630E+02 0.  0.
        -11    1    3    3    0    0  0.13838264354E+02  0.23222795508E+02 -0.52411220436E+02  0.58972297048E+02  0.00000000000E+00 0.  1.
         12    1    3    3    0    0 -0.16081892493E+02  0.10290096149E+02 -0.52710784990E+03  0.52745350390E+03  0.00000000000E+00 0. -1.
          3    1    1    2  501    0  0.22436281388E+01 -0.33512891657E+02 -0.12760570415E+03  0.13195212581E+03  0.00000000000E+00 0. -1.
<mgrwt>
<rscale>  1 0.89737769E+02</rscale>
<asrwt>0</asrwt>
<pdfrwt beam="1">  1       21 0.86562794E-03 0.89737769E+02</pdfrwt>
<pdfrwt beam="2">  1        4 0.10965395E+00 0.89737769E+02</pdfrwt>
<totfact> 0.12163799E+05</totfact>
</mgrwt>
</event>
<event>
 6    2  0.9453093E+000  0.1077428E+03  0.7546771E-02  0.1264808E+00
         21   -1    0    0  501  502  0.00000000000E+00  0.00000000000E+00  0.10752942325E+04  0.10752942325E+04  0.00000000000E+00 0. -1.
          2   -1    0    0  502    0 -0.00000000000E+00 -0.00000000000E+00 -0.13890597872E+02  0.13890597872E+02  0.00000000000E+00 0. -1.
         24    2    1    2    0    0  0.66292920328E+02  0.26908498994E+02  0.22227346334E+03  0.24701010802E+03  0.80558564754E+02 0.  0.
        -11    1    3    3    0    0  0.39712156483E+02  0.32139337785E+02  0.21194842882E+03  0.21801864343E+03  0.00000000000E+00 0.  1.
         12    1    3    3    0    0  0.26580763845E+02 -0.52308387911E+01  0.10325034521E+02  0.28991464587E+02  0.00000000000E+00 0. -1.
          1    1    1    2  501    0 -0.66292920328E+02 -0.26908498994E+02  0.83913017132E+03  0.84217472238E+03  0.00000000000E+00 0. -1.
<mgrwt>
<rscale>  1 0.10774275E+03</rscale>
<asrwt>0</asrwt>
<pdfrwt beam="1">  1       21 0.16542982E+00 0.10774275E+03</pdfrwt>
<pdfrwt beam="2">  1        2 0.21370159E-02 0.10774275E+03</pdfrwt>
<totfact> 0.13903877E+04</totfact>
</mgrwt>
</event>
<event>
 6    2  0.9453093E+000  0.8314013E+02  0.7546771E-02  0.1320369E+00
         21   -1    0    0  501  502  0.00000000000E+00  0.00000000000E+00  0.15304864750E+02  0.15304864750E+02  0.00000000000E+00 0. -1.
          2   -1    0    0  502    0 -0.00000000000E+00 -0.00000000000E+00 -0.39220052544E+03  0.39220052544E+03  0.00000000000E+00 0. -1.
         24    2    1    2    0    0  0.20436992869E+02  0.13555133985E+02 -0.37362619673E+03  0.38276470044E+03  0.79440976109E+02 0.  0.
        -13    1    3    3    0    0 -0.59344810534E+01 -0.55809557052E+01 -0.43952808406E+00  0.81583280697E+01  0.00000000000E+00 0.  1.
         14    1    3    3    0    0  0.26371473922E+02  0.19136089690E+02 -0.37318666864E+03  0.37460637237E+03  0.00000000000E+00 0. -1.
          1    1    1    2  501    0 -0.20436992869E+02 -0.13555133985E+02 -0.32694639624E+01  0.24740689753E+02  0.00000000000E+00 0. -1.
<mgrwt>
<rscale>  1 0.83140129E+02</rscale>
<asrwt>0</asrwt>
<pdfrwt beam="1">  1       21 0.23545949E-02 0.83140129E+02</pdfrwt>
<pdfrwt beam="2">  1        2 0.60338535E-01 0.83140129E+02</pdfrwt>
<totfact> 0.89420881E+05</totfact>
</mgrwt>
</event>
<event>
 6    2  0.9453093E+000  0.9710129E+02  0.7546771E-02  0.1286512E+00
          2   -1    0    0  502    0 -0.00000000000E+00  0.00000000000E+00  0.14491564091E+04  0.14491564091E+04  0.00000000000E+00 0. -1.
         21   -1    0    0  501  502  0.00000000000E+00 -0.00000000000E+00 -0.41326960624E+01  0.41326960624E+01  0.00000000000E+00 0.  1.
         24    2    1    2    0    0  0.54341161127E+02  0.60641046384E+01  0.10535545724E+04  0.10580198004E+04  0.80242918765E+02 0.  0.
        -13    1    3    3    0    0  0.65638490538E+02  0.23443610514E+02  0.60776626604E+03  0.61174982505E+03  0.00000000000E+00 0.  1.
         14    1    3    3    0    0 -0.11297329412E+02 -0.17379505876E+02  0.44578830633E+03  0.44626997539E+03  0.00000000000E+00 0. -1.
          1    1    1    2  501    0 -0.54341161127E+02 -0.60641046384E+01  0.39146914068E+03  0.39526930473E+03  0.00000000000E+00 0. -1.
<mgrwt>
<rscale>  1 0.97101293E+02</rscale>
<asrwt>0</asrwt>
<pdfrwt beam="1">  1       21 0.63580055E-03 0.97101293E+02</pdfrwt>
<pdfrwt beam="2">  1        2 0.22294673E+00 0.97101293E+02</pdfrwt>
<totfact> 0.13788502E+06</totfact>
</mgrwt>
</event>
<event>
 6    2  0.9453093E+000  0.9612375E+02  0.7546771E-02  0.1288665E+00
          2   -1    0    0  502    0 -0.00000000000E+00  0.00000000000E+00  0.21878276021E+04  0.21878276021E+04  0.00000000000E+00 0. -1.
         21   -1    0    0  501  502  0.00000000000E+00 -0.00000000000E+00 -0.25419088611E+01  0.25419088611E+01  0.00000000000E+00 0. -1.
         24    2    1    2    0    0 -0.49732818364E+02  0.61389129317E+01  0.16280587689E+04  0.16308939666E+04  0.82028872894E+02 0.  0.
        -13    1    3    3    0    0  0.15071293736E+02  0.24011612114E+02  0.56641614715E+03  0.56712516534E+03  0.00000000000E+00 0.  1.
         14    1    3    3    0    0 -0.64804112100E+02 -0.17872699182E+02  0.10616426217E+04  0.10637688013E+04  0.00000000000E+00 0. -1.
          1    1    1    2  501    0  0.49732818364E+02 -0.61389129317E+01  0.55722692443E+03  0.55947554440E+03  0.00000000000E+00 0. -1.
<mgrwt>
<rscale>  1 0.96123751E+02</rscale>
<asrwt>0</asrwt>
<pdfrwt beam="1">  1       21 0.39106465E-03 0.96123751E+02</pdfrwt>
<pdfrwt beam="2">  1        2 0.33658735E+00 0.96123751E+02</pdfrwt>
<totfact> 0.12286433E+06</totfact>
</mgrwt>
</event>
<event>
 6    2  0.9453093E+000  0.1148650E+03  0.7546771E-02  0.1251817E+00
          2   -1    0    0  502    0 -0.00000000000E+00  0.00000000000E+00  0.96421929547E+02  0.96421929547E+02  0.00000000000E+00 0. -1.
         21   -1    0    0  501  502  0.00000000000E+00 -0.00000000000E+00 -0.15974988647E+03  0.15974988647E+03  0.00000000000E+00 0. -1.
         24    2    1    2    0    0 -0.70276292664E+02  0.39157665024E+02  0.43164483357E+02  0.12270751413E+03  0.81987080449E+02 0.  0.
        -11    1    3    3    0    0 -0.22743824838E+02 -0.18644506159E+02 -0.98291741715E+01  0.31008254434E+02  0.00000000000E+00 0.  1.
         12    1    3    3    0    0 -0.47532467826E+02  0.57802171183E+02  0.52993657528E+02  0.91699259699E+02  0.00000000000E+00 0. -1.
          1    1    1    2  501    0  0.70276292664E+02 -0.39157665024E+02 -0.10649244028E+03  0.13346430188E+03  0.00000000000E+00 0. -1.
<mgrwt>
<rscale>  1 0.11486497E+03</rscale>
<asrwt>0</asrwt>
<pdfrwt beam="1">  1       21 0.24576905E-01 0.11486497E+03</pdfrwt>
<pdfrwt beam="2">  1        2 0.14834143E-01 0.11486497E+03</pdfrwt>
<totfact> 0.74293519E+04</totfact>
</mgrwt>
</event>
<event>
 6    2  0.1004878E+001  0.8619317E+02  0.7546771E-02  0.1312341E+00
         -1   -1    0    0    0  501 -0.00000000000E+00  0.00000000000E+00  0.23706127314E+03  0.23706127314E+03  0.00000000000E+00 0.  1.
         21   -1    0    0  501  502  0.00000000000E+00 -0.00000000000E+00 -0.17005753367E+02  0.17005753367E+02  0.00000000000E+00 0.  1.
         24    2    1    2    0    0  0.24516317814E+02 -0.16494197358E+02  0.20153766746E+03  0.21919555909E+03  0.80970076771E+02 0.  0.
        -13    1    3    3    0    0  0.74309511292E+01 -0.10352274192E+02  0.20061184593E+03  0.20101617185E+03  0.00000000000E+00 0.  1.
         14    1    3    3    0    0  0.17085366685E+02 -0.61419231660E+01  0.92582152913E+00  0.18179387241E+02  0.00000000000E+00 0. -1.
         -2    1    1    2    0  502 -0.24516317814E+02  0.16494197358E+02  0.18517852312E+02  0.34871467418E+02  0.00000000000E+00 0.  1.
<mgrwt>
<rscale>  1 0.86193165E+02</rscale>
<asrwt>0</asrwt>
<pdfrwt beam="1">  1       21 0.26162699E-02 0.86193165E+02</pdfrwt>
<pdfrwt beam="2">  1       -1 0.36470963E-01 0.86193165E+02</pdfrwt>
<totfact> 0.49288436E+05</totfact>
</mgrwt>
</event>
<event>
 6    2  0.9453093E+000  0.9690441E+02  0.7546771E-02  0.1286944E+00
         21   -1    0    0  501  502  0.00000000000E+00  0.00000000000E+00  0.36974586253E+02  0.36974586253E+02  0.00000000000E+00 0.  1.
          4   -1    0    0  502    0 -0.00000000000E+00 -0.00000000000E+00 -0.15150354909E+03  0.15150354909E+03  0.00000000000E+00 0. -1.
         24    2    1    2    0    0 -0.43122447533E+02 -0.29116117926E+02 -0.65331682143E+02  0.11687041068E+03  0.81750659913E+02 0.  0.
        -13    1    3    3    0    0 -0.93935612564E+01 -0.85340452499E+01  0.19512440763E+02  0.23276689325E+02  0.00000000000E+00 0.  1.
         14    1    3    3    0    0 -0.33728886276E+02 -0.20582072676E+02 -0.84844122906E+02  0.93593721353E+02  0.00000000000E+00 0. -1.
          3    1    1    2  501    0  0.43122447533E+02  0.29116117926E+02 -0.49197280698E+02  0.71607724670E+02  0.00000000000E+00 0. -1.
<mgrwt>
<rscale>  1 0.96904408E+02</rscale>
<asrwt>0</asrwt>
<pdfrwt beam="1">  1       21 0.56883980E-02 0.96904408E+02</pdfrwt>
<pdfrwt beam="2">  1        4 0.23308238E-01 0.96904408E+02</pdfrwt>
<totfact> 0.14000240E+05</totfact>
</mgrwt>
</event>
<event>
 6    2  0.9453093E+000  0.9748345E+02  0.7546771E-02  0.1285679E+00
         -1   -1    0    0    0  501 -0.00000000000E+00  0.00000000000E+00  0.12058334647E+03  0.12058334647E+03  0.00000000000E+00 0.  1.
         21   -1    0    0  501  502  0.00000000000E+00 -0.00000000000E+00 -0.44307099481E+02  0.44307099481E+02  0.00000000000E+00 0. -1.
         24    2    1    2    0    0  0.86738452636E+00 -0.48044616035E+02  0.43658729269E+02  0.10681342857E+03  0.84817370835E+02 0.  0.
        -11    1    3    3    0    0  0.33011656433E+01  0.16289717906E+02 -0.12961506798E+02  0.21077316303E+02  0.00000000000E+00 0.  1.
         12    1    3    3    0    0 -0.24337811169E+01 -0.64334333941E+02  0.56620236067E+02  0.85736112265E+02  0.00000000000E+00 0. -1.
         -2    1    1    2    0  502 -0.86738452636E+00  0.48044616035E+02  0.32617517719E+02  0.58077017382E+02  0.00000000000E+00 0.  1.
<mgrwt>
<rscale>  1 0.97483454E+02</rscale>
<asrwt>0</asrwt>
<pdfrwt beam="1">  1       21 0.68164769E-02 0.97483454E+02</pdfrwt>
<pdfrwt beam="2">  1       -1 0.18551284E-01 0.97483454E+02</pdfrwt>
<totfact> 0.30994888E+05</totfact>
</mgrwt>
</event>
<event>
 6    2  0.9453093E+000  0.8188737E+02  0.7546771E-02  0.1323779E+00
          2   -1    0    0  502    0 -0.00000000000E+00  0.00000000000E+00  0.19169416559E+02  0.19169416559E+02  0.00000000000E+00 0. -1.
         21   -1    0    0  501  502  0.00000000000E+00 -0.00000000000E+00 -0.14808948488E+03  0.14808948488E+03  0.00000000000E+00 0.  1.
         24    2    1    2    0    0 -0.23328520179E+02 -0.77561573246E+00 -0.88419703460E+02  0.12051383766E+03  0.78490252101E+02 0.  0.
        -13    1    3    3    0    0 -0.19820938065E+02  0.72825157990E+01 -0.10209618318E+03  0.10425706327E+03  0.00000000000E+00 0.  1.
         14    1    3    3    0    0 -0.35075821147E+01 -0.80581315315E+01  0.13676479720E+02  0.16256774391E+02  0.00000000000E+00 0. -1.
          1    1    1    2  501    0  0.23328520179E+02  0.77561573246E+00 -0.40500364858E+02  0.46745063773E+02  0.00000000000E+00 0. -1.
<mgrwt>
<rscale>  1 0.81887368E+02</rscale>
<asrwt>0</asrwt>
<pdfrwt beam="1">  1       21 0.22782998E-01 0.81887368E+02</pdfrwt>
<pdfrwt beam="2">  1        2 0.29491410E-02 0.81887368E+02</pdfrwt>
<totfact> 0.63736112E+05</totfact>
</mgrwt>
</event>
<event>
 6    2  0.9453093E+000  0.8391665E+02  0.7546771E-02  0.1318290E+00
          2   -1    0    0  502    0 -0.00000000000E+00  0.00000000000E+00  0.51932327986E+03  0.51932327986E+03  0.00000000000E+00 0. -1.
         21   -1    0    0  501  502  0.00000000000E+00 -0.00000000000E+00 -0.56557480086E+01  0.56557480086E+01  0.00000000000E+00 0.  1.
         24    2    1    2    0    0 -0.32807405815E+01 -0.23554489455E+02  0.37376343280E+03  0.38306801997E+03  0.80476251098E+02 0.  0.
        -13    1    3    3    0    0  0.17130000545E+01 -0.21723580940E+02  0.20995078791E+02  0.30259571568E+02  0.00000000000E+00 0.  1.
         14    1    3    3    0    0 -0.49937406361E+01 -0.18309085149E+01  0.35276835401E+03  0.35280844840E+03  0.00000000000E+00 0. -1.
          1    1    1    2  501    0  0.32807405815E+01  0.23554489455E+02  0.13990409906E+03  0.14191100791E+03  0.00000000000E+00 0. -1.
<mgrwt>
<rscale>  1 0.83916650E+02</rscale>
<asrwt>0</asrwt>
<pdfrwt beam="1">  1       21 0.87011549E-03 0.83916650E+02</pdfrwt>
<pdfrwt beam="2">  1        2 0.79895852E-01 0.83916650E+02</pdfrwt>
<totfact> 0.31970808E+06</totfact>
</mgrwt>
</event>
<event>
 6    2  0.9453093E+000  0.8455128E+02  0.7546771E-02  0.1316610E+00
         21   -1    0    0  501  502  0.00000000000E+00  0.00000000000E+00  0.58320890562E+01  0.58320890562E+01  0.00000000000E+00 0. -1.
          2   -1    0    0  502    0 -0.00000000000E+00 -0.00000000000E+00 -0.17190101113E+04  0.17190101113E+04  0.00000000000E+00 0. -1.
         24    2    1    2    0    0 -0.14638723988E+02 -0.21202218188E+02 -0.16831640042E+04  0.16852863212E+04  0.80530075461E+02 0.  0.
        -13    1    3    3    0    0  0.24528369784E+02 -0.49447766859E+01 -0.20605173148E+03  0.20756543014E+03  0.00000000000E+00 0.  1.
         14    1    3    3    0    0 -0.39167093772E+02 -0.16257441502E+02 -0.14771122728E+04  0.14777208911E+04  0.00000000000E+00 0. -1.
          1    1    1    2  501    0  0.14638723988E+02  0.21202218188E+02 -0.30014017964E+02  0.39555879088E+02  0.00000000000E+00 0. -1.
<mgrwt>
<rscale>  1 0.84551282E+02</rscale>
<asrwt>0</asrwt>
<pdfrwt beam="1">  1       21 0.89724444E-03 0.84551282E+02</pdfrwt>
<pdfrwt beam="2">  1        2 0.26446310E+00 0.84551282E+02</pdfrwt>
<totfact> 0.58527620E+05</totfact>
</mgrwt>
</event>
<event>
 6    2  0.9453093E+000  0.8409602E+02  0.7546771E-02  0.1317814E+00
         21   -1    0    0  501  502  0.00000000000E+00  0.00000000000E+00  0.16535591320E+03  0.16535591320E+03  0.00000000000E+00 0.  1.
         -1   -1    0    0    0  501 -0.00000000000E+00 -0.00000000000E+00 -0.55032104608E+02  0.55032104608E+02  0.00000000000E+00 0.  1.
         24    2    1    2    0    0 -0.23969637049E+02  0.68601634038E+01 -0.21032730942E+02  0.86686313181E+02  0.80315227571E+02 0.  0.
        -13    1    3    3    0    0 -0.66256011423E+01  0.33334822241E+01 -0.51187007970E+02  0.51721566867E+02  0.00000000000E+00 0.  1.
         14    1    3    3    0    0 -0.17344035906E+02  0.35266811797E+01  0.30154277028E+02  0.34964746314E+02  0.00000000000E+00 0. -1.
         -2    1    1    2    0  502  0.23969637049E+02 -0.68601634038E+01  0.13135653953E+03  0.13370170463E+03  0.00000000000E+00 0.  1.
<mgrwt>
<rscale>  1 0.84096023E+02</rscale>
<asrwt>0</asrwt>
<pdfrwt beam="1">  1       21 0.25439371E-01 0.84096023E+02</pdfrwt>
<pdfrwt beam="2">  1       -1 0.84664777E-02 0.84096023E+02</pdfrwt>
<totfact> 0.98757716E+04</totfact>
</mgrwt>
</event>
<event>
 6    2  0.9453093E+000  0.1476870E+03  0.7546771E-02  0.1203344E+00
          2   -1    0    0  502    0 -0.00000000000E+00  0.00000000000E+00  0.66888351864E+03  0.66888351864E+03  0.00000000000E+00 0. -1.
         21   -1    0    0  501  502  0.00000000000E+00 -0.00000000000E+00 -0.28599404622E+02  0.28599404622E+02  0.00000000000E+00 0. -1.
         24    2    1    2    0    0  0.12582266239E+02  0.12295997373E+03  0.27960122848E+03  0.31620925189E+03  0.80833009644E+02 0.  0.
        -11    1    3    3    0    0 -0.30692139427E+02  0.39709136692E+02  0.13299559943E+03  0.14215010526E+03  0.00000000000E+00 0.  1.
         12    1    3    3    0    0  0.43274405667E+02  0.83250837039E+02  0.14660562905E+03  0.17405914662E+03  0.00000000000E+00 0. -1.
          1    1    1    2  501    0 -0.12582266239E+02 -0.12295997373E+03  0.36068288554E+03  0.38127367138E+03  0.00000000000E+00 0. -1.
<mgrwt>
<rscale>  1 0.14768698E+03</rscale>
<asrwt>0</asrwt>
<pdfrwt beam="1">  1       21 0.43999089E-02 0.14768698E+03</pdfrwt>
<pdfrwt beam="2">  1        2 0.10290514E+00 0.14768698E+03</pdfrwt>
<totfact> 0.18524792E+05</totfact>
</mgrwt>
</event>
<event>
 6    2  0.9453093E+000  0.8777798E+02  0.7546771E-02  0.1308324E+00
         21   -1    0    0  501  502  0.00000000000E+00  0.00000000000E+00  0.21621253645E+02  0.21621253645E+02  0.00000000000E+00 0. -1.
          2   -1    0    0  502    0 -0.00000000000E+00 -0.00000000000E+00 -0.23241916380E+03  0.23241916380E+03  0.00000000000E+00 0. -1.
         24    2    1    2    0    0  0.14507214698E+02  0.32863377356E+02 -0.19679675514E+03  0.21548535045E+03  0.80090652213E+02 0.  0.
        -11    1    3    3    0    0  0.62757939949E+01 -0.57389681944E+01  0.49997315542E+01  0.98650221397E+01  0.00000000000E+00 0.  1.
         12    1    3    3    0    0  0.82314207029E+01  0.38602345550E+02 -0.20179648670E+03  0.20562032831E+03  0.00000000000E+00 0. -1.
          1    1    1    2  501    0 -0.14507214698E+02 -0.32863377356E+02 -0.14001155006E+02  0.38555066995E+02  0.00000000000E+00 0. -1.
<mgrwt>
<rscale>  1 0.87777978E+02</rscale>
<asrwt>0</asrwt>
<pdfrwt beam="1">  1       21 0.33263464E-02 0.87777978E+02</pdfrwt>
<pdfrwt beam="2">  1        2 0.35756798E-01 0.87777978E+02</pdfrwt>
<totfact> 0.88826217E+05</totfact>
</mgrwt>
</event>
<event>
 6    2  0.9453093E+000  0.8387133E+02  0.7546771E-02  0.1318411E+00
          2   -1    0    0  502    0 -0.00000000000E+00  0.00000000000E+00  0.10669285511E+04  0.10669285511E+04  0.00000000000E+00 0. -1.
         21   -1    0    0  501  502  0.00000000000E+00 -0.00000000000E+00 -0.28778492181E+01  0.28778492181E+01  0.00000000000E+00 0. -1.
         24    2    1    2    0    0  0.14566480262E+02  0.19985607400E+02  0.72012778038E+03  0.72499546258E+03  0.80142334843E+02 0.  0.
        -13    1    3    3    0    0  0.41006234741E+02 -0.10805339875E+02  0.42017095499E+03  0.42230545589E+03  0.00000000000E+00 0.  1.
         14    1    3    3    0    0 -0.26439754479E+02  0.30790947274E+02  0.29995682539E+03  0.30269000669E+03  0.00000000000E+00 0. -1.
          1    1    1    2  501    0 -0.14566480262E+02 -0.19985607400E+02  0.34392292146E+03  0.34481093770E+03  0.00000000000E+00 0. -1.
<mgrwt>
<rscale>  1 0.83871334E+02</rscale>
<asrwt>0</asrwt>
<pdfrwt beam="1">  1       21 0.44274689E-03 0.83871334E+02</pdfrwt>
<pdfrwt beam="2">  1        2 0.16414254E+00 0.83871334E+02</pdfrwt>
<totfact> 0.38030052E+06</totfact>
</mgrwt>
</event>
<event>
 6    2  0.9453093E+000  0.9762908E+02  0.7546771E-02  0.1285362E+00
         21   -1    0    0  501  502  0.00000000000E+00  0.00000000000E+00  0.31166987939E+02  0.31166987939E+02  0.00000000000E+00 0. -1.
          2   -1    0    0  502    0 -0.00000000000E+00 -0.00000000000E+00 -0.27529789960E+03  0.27529789960E+03  0.00000000000E+00 0. -1.
         24    2    1    2    0    0 -0.34954870779E+02  0.42818498335E+02 -0.22932524965E+03  0.24924186404E+03  0.80474653597E+02 0.  0.
        -13    1    3    3    0    0 -0.26577033057E+02 -0.20553395489E+02 -0.73502881896E+02  0.80817413960E+02  0.00000000000E+00 0.  1.
         14    1    3    3    0    0 -0.83778377224E+01  0.63371893824E+02 -0.15582236775E+03  0.16842445008E+03  0.00000000000E+00 0. -1.
          1    1    1    2  501    0  0.34954870779E+02 -0.42818498335E+02 -0.14805662011E+02  0.57223023499E+02  0.00000000000E+00 0. -1.
<mgrwt>
<rscale>  1 0.97629077E+02</rscale>
<asrwt>0</asrwt>
<pdfrwt beam="1">  1       21 0.47949213E-02 0.97629077E+02</pdfrwt>
<pdfrwt beam="2">  1        2 0.42353522E-01 0.97629077E+02</pdfrwt>
<totfact> 0.41090985E+05</totfact>
</mgrwt>
</event>
<event>
 6    2  0.9453093E+000  0.8681436E+02  0.7546771E-02  0.1310755E+00
         21   -1    0    0  501  502  0.00000000000E+00  0.00000000000E+00  0.22722155169E+02  0.22722155169E+02  0.00000000000E+00 0.  1.
          2   -1    0    0  502    0 -0.00000000000E+00 -0.00000000000E+00 -0.13016151480E+03  0.13016151480E+03  0.00000000000E+00 0. -1.
         24    2    1    2    0    0 -0.12465932502E+01 -0.21910179315E+02 -0.86440021656E+02  0.12250963257E+03  0.83994778273E+02 0.  0.
        -13    1    3    3    0    0  0.15524752706E+02 -0.49124260019E+02 -0.68947780693E+02  0.86069781755E+02  0.00000000000E+00 0.  1.
         14    1    3    3    0    0 -0.16771345956E+02  0.27214080704E+02 -0.17492240963E+02  0.36439850819E+02  0.00000000000E+00 0. -1.
          1    1    1    2  501    0  0.12465932502E+01  0.21910179315E+02 -0.20999337977E+02  0.30374037397E+02  0.00000000000E+00 0. -1.
<mgrwt>
<rscale>  1 0.86814358E+02</rscale>
<asrwt>0</asrwt>
<pdfrwt beam="1">  1       21 0.34957161E-02 0.86814358E+02</pdfrwt>
<pdfrwt beam="2">  1        2 0.20024849E-01 0.86814358E+02</pdfrwt>
<totfact> 0.15312627E+06</totfact>
</mgrwt>
</event>
<event>
 6    2  0.9453093E+000  0.1767362E+03  0.7546771E-02  0.1171000E+00
         21   -1    0    0  501  502  0.00000000000E+00  0.00000000000E+00  0.61076476131E+02  0.61076476131E+02  0.00000000000E+00 0.  1.
         -3   -1    0    0    0  501 -0.00000000000E+00 -0.00000000000E+00 -0.57872481943E+03  0.57872481943E+03  0.00000000000E+00 0.  1.
         24    2    1    2    0    0  0.15652844230E+02  0.15631777959E+03 -0.41783302724E+03  0.45367403515E+03  0.80965620884E+02 0.  0.
        -11    1    3    3    0    0 -0.77338429975E+01  0.15104540357E+03 -0.37865956221E+03  0.40774696850E+03  0.00000000000E+00 0.  1.
         12    1    3    3    0    0  0.23386687227E+02  0.52723760206E+01 -0.39173465025E+02  0.45927066643E+02  0.00000000000E+00 0. -1.
         -4    1    1    2    0  502 -0.15652844230E+02 -0.15631777959E+03 -0.99815316057E+02  0.18612726041E+03  0.00000000000E+00 0.  1.
<mgrwt>
<rscale>  1 0.17673622E+03</rscale>
<asrwt>0</asrwt>
<pdfrwt beam="1">  1       21 0.93963808E-02 0.17673622E+03</pdfrwt>
<pdfrwt beam="2">  1       -3 0.89034589E-01 0.17673622E+03</pdfrwt>
<totfact> 0.52519846E+03</totfact>
</mgrwt>
</event>
<event>
 6    2  0.9453093E+000  0.9560387E+02  0.7546771E-02  0.1289822E+00
          4   -1    0    0  502    0 -0.00000000000E+00  0.00000000000E+00  0.58776802172E+03  0.58776802172E+03  0.00000000000E+00 0. -1.
         21   -1    0    0  501  502  0.00000000000E+00 -0.00000000000E+00 -0.83334798783E+01  0.83334798783E+01  0.00000000000E+00 0.  1.
         24    2    1    2    0    0 -0.55456535197E-01 -0.43873994495E+02  0.37312092188E+03  0.38517440460E+03  0.84942151743E+02 0.  0.
        -11    1    3    3    0    0 -0.40680761752E+02 -0.24527863748E+02  0.14263183219E+03  0.15033422774E+03  0.00000000000E+00 0.  1.
         12    1    3    3    0    0  0.40625305217E+02 -0.19346130747E+02  0.23048908969E+03  0.23484017685E+03  0.00000000000E+00 0. -1.
          3    1    1    2  501    0  0.55456535197E-01  0.43873994495E+02  0.20631361996E+03  0.21092709700E+03  0.00000000000E+00 0. -1.
<mgrwt>
<rscale>  1 0.95603868E+02</rscale>
<asrwt>0</asrwt>
<pdfrwt beam="1">  1       21 0.12820743E-02 0.95603868E+02</pdfrwt>
<pdfrwt beam="2">  1        4 0.90425817E-01 0.95603868E+02</pdfrwt>
<totfact> 0.10331877E+05</totfact>
</mgrwt>
</event>
<event>
 6    2  0.9453093E+000  0.8074682E+02  0.7546771E-02  0.1326945E+00
         21   -1    0    0  501  502  0.00000000000E+00  0.00000000000E+00  0.10594917921E+02  0.10594917921E+02  0.00000000000E+00 0.  1.
          2   -1    0    0  502    0 -0.00000000000E+00 -0.00000000000E+00 -0.24017837088E+03  0.24017837088E+03  0.00000000000E+00 0. -1.
         24    2    1    2    0    0 -0.72724484250E+01 -0.18716983236E+02 -0.18729953684E+03  0.20396363670E+03  0.78210195160E+02 0.  0.
        -13    1    3    3    0    0  0.10536230468E+02 -0.83646645053E-01  0.37494447956E+01  0.11183804608E+02  0.00000000000E+00 0.  1.
         14    1    3    3    0    0 -0.17808678893E+02 -0.18633336590E+02 -0.19104898164E+03  0.19277983209E+03  0.00000000000E+00 0. -1.
          1    1    1    2  501    0  0.72724484250E+01  0.18716983236E+02 -0.42283916112E+02  0.46809652096E+02  0.00000000000E+00 0. -1.
<mgrwt>
<rscale>  1 0.80746818E+02</rscale>
<asrwt>0</asrwt>
<pdfrwt beam="1">  1       21 0.16299876E-02 0.80746818E+02</pdfrwt>
<pdfrwt beam="2">  1        2 0.36950513E-01 0.80746818E+02</pdfrwt>
<totfact> 0.26722347E+06</totfact>
</mgrwt>
</event>
<event>
 6    2  0.9453093E+000  0.8404893E+02  0.7546771E-02  0.1317939E+00
          2   -1    0    0  502    0 -0.00000000000E+00  0.00000000000E+00  0.81995682786E+03  0.81995682786E+03  0.00000000000E+00 0. -1.
         21   -1    0    0  501  502  0.00000000000E+00 -0.00000000000E+00 -0.17305305133E+02  0.17305305133E+02  0.00000000000E+00 0. -1.
         24    2    1    2    0    0 -0.11692749205E+02 -0.18020234371E+02  0.81015866402E+03  0.81450677315E+03  0.81257451309E+02 0.  0.
        -11    1    3    3    0    0 -0.19609888750E+02 -0.33127359235E+02  0.17787430459E+03  0.18199241165E+03  0.00000000000E+00 0.  1.
         12    1    3    3    0    0  0.79171395449E+01  0.15107124864E+02  0.63228435943E+03  0.63251436150E+03  0.00000000000E+00 0. -1.
          1    1    1    2  501    0  0.11692749205E+02  0.18020234371E+02 -0.75071412984E+01  0.22755359835E+02  0.00000000000E+00 0. -1.
<mgrwt>
<rscale>  1 0.84048930E+02</rscale>
<asrwt>0</asrwt>
<pdfrwt beam="1">  1       21 0.26623553E-02 0.84048930E+02</pdfrwt>
<pdfrwt beam="2">  1        2 0.12614717E+00 0.84048930E+02</pdfrwt>
<totfact> 0.32305630E+05</totfact>
</mgrwt>
</event>
<event>
 6    2  0.9453093E+000  0.8507881E+02  0.7546771E-02  0.1315227E+00
         -1   -1    0    0    0  501 -0.00000000000E+00  0.00000000000E+00  0.20647225745E+03  0.20647225745E+03  0.00000000000E+00 0.  1.
         21   -1    0    0  501  502  0.00000000000E+00 -0.00000000000E+00 -0.69602131511E+02  0.69602131511E+02  0.00000000000E+00 0.  1.
         24    2    1    2    0    0 -0.18402969711E+01  0.26238956803E+02  0.19473642349E+03  0.21251042165E+03  0.80910661409E+02 0.  0.
        -13    1    3    3    0    0 -0.23411801298E+02 -0.17439986448E+02  0.11846406584E+03  0.12200819834E+03  0.00000000000E+00 0.  1.
         14    1    3    3    0    0  0.21571504327E+02  0.43678943251E+02  0.76272357652E+02  0.90502223311E+02  0.00000000000E+00 0. -1.
         -2    1    1    2    0  502  0.18402969711E+01 -0.26238956803E+02 -0.57866297555E+02  0.63563967306E+02  0.00000000000E+00 0.  1.
<mgrwt>
<rscale>  1 0.85078814E+02</rscale>
<asrwt>0</asrwt>
<pdfrwt beam="1">  1       21 0.10708020E-01 0.85078814E+02</pdfrwt>
<pdfrwt beam="2">  1       -1 0.31764962E-01 0.85078814E+02</pdfrwt>
<totfact> 0.59102824E+04</totfact>
</mgrwt>
</event>
<event>
 6    2  0.9453093E+000  0.1194391E+03  0.7546771E-02  0.1244025E+00
          2   -1    0    0  502    0 -0.00000000000E+00  0.00000000000E+00  0.85877754716E+03  0.85877754716E+03  0.00000000000E+00 0. -1.
         21   -1    0    0  501  502  0.00000000000E+00 -0.00000000000E+00 -0.14489250994E+03  0.14489250994E+03  0.00000000000E+00 0. -1.
         24    2    1    2    0    0  0.30207198574E+02 -0.86125240183E+02  0.83974724313E+03  0.84819875198E+03  0.77043225964E+02 0.  0.
        -11    1    3    3    0    0  0.55755188351E+02 -0.50279560374E+02  0.49773540488E+03  0.50336587934E+03  0.00000000000E+00 0.  1.
         12    1    3    3    0    0 -0.25547989777E+02 -0.35845679809E+02  0.34201183825E+03  0.34483287263E+03  0.00000000000E+00 0. -1.
          1    1    1    2  501    0 -0.30207198574E+02  0.86125240183E+02 -0.12586220591E+03  0.15547130513E+03  0.00000000000E+00 0. -1.
<mgrwt>
<rscale>  1 0.11943907E+03</rscale>
<asrwt>0</asrwt>
<pdfrwt beam="1">  1       21 0.22291156E-01 0.11943907E+03</pdfrwt>
<pdfrwt beam="2">  1        2 0.13211962E+00 0.11943907E+03</pdfrwt>
<totfact> 0.79181932E+03</totfact>
</mgrwt>
</event>
<event>
 6    2  0.9453093E+000  0.8601269E+02  0.7546771E-02  0.1312805E+00
         21   -1    0    0  501  502  0.00000000000E+00  0.00000000000E+00  0.12974670128E+01  0.12974670128E+01  0.00000000000E+00 0. -1.
          2   -1    0    0  502    0 -0.00000000000E+00 -0.00000000000E+00 -0.27408810307E+04  0.27408810307E+04  0.00000000000E+00 0. -1.
         24    2    1    2    0    0  0.25883631759E+01  0.29018001536E+02 -0.23145629381E+04  0.23161605683E+04  0.80928607540E+02 0.  0.
        -13    1    3    3    0    0 -0.34649186373E+02 -0.52301532286E+01 -0.84219744569E+03  0.84292612852E+03  0.00000000000E+00 0.  1.
         14    1    3    3    0    0  0.37237549549E+02  0.34248154765E+02 -0.14723654925E+04  0.14732344398E+04  0.00000000000E+00 0. -1.
          1    1    1    2  501    0 -0.25883631759E+01 -0.29018001536E+02 -0.42502062553E+03  0.42601792939E+03  0.00000000000E+00 0. -1.
<mgrwt>
<rscale>  1 0.86012694E+02</rscale>
<asrwt>0</asrwt>
<pdfrwt beam="1">  1       21 0.19960864E-03 0.86012694E+02</pdfrwt>
<pdfrwt beam="2">  1        2 0.42167752E+00 0.86012694E+02</pdfrwt>
<totfact> 0.17330712E+06</totfact>
</mgrwt>
</event>
<event>
 6    2  0.9453093E+000  0.8498330E+02  0.7546771E-02  0.1315476E+00
          2   -1    0    0  502    0 -0.00000000000E+00  0.00000000000E+00  0.11234729127E+04  0.11234729127E+04  0.00000000000E+00 0. -1.
         21   -1    0    0  501  502  0.00000000000E+00 -0.00000000000E+00 -0.80609397922E+01  0.80609397922E+01  0.00000000000E+00 0. -1.
         24    2    1    2    0    0 -0.17135938982E+02 -0.14033660605E+02  0.11027523090E+04  0.11060220684E+04  0.82046187771E+02 0.  0.
        -11    1    3    3    0    0 -0.26892918587E+02 -0.25203276948E+02  0.21432725824E+03  0.21747323482E+03  0.00000000000E+00 0.  1.
         12    1    3    3    0    0  0.97569796050E+01  0.11169616343E+02  0.88842505072E+03  0.88854883362E+03  0.00000000000E+00 0. -1.
          1    1    1    2  501    0  0.17135938982E+02  0.14033660605E+02  0.12659663970E+02  0.25511784073E+02  0.00000000000E+00 0. -1.
<mgrwt>
<rscale>  1 0.84983298E+02</rscale>
<asrwt>0</asrwt>
<pdfrwt beam="1">  1       21 0.12401455E-02 0.84983298E+02</pdfrwt>
<pdfrwt beam="2">  1        2 0.17284186E+00 0.84983298E+02</pdfrwt>
<totfact> 0.71930687E+05</totfact>
</mgrwt>
</event>
<event>
 6    2  0.9453093E+000  0.8528395E+02  0.7546771E-02  0.1314692E+00
         -1   -1    0    0    0  501 -0.00000000000E+00  0.00000000000E+00  0.10876271973E+04  0.10876271973E+04  0.00000000000E+00 0.  1.
         21   -1    0    0  501  502  0.00000000000E+00 -0.00000000000E+00 -0.29324141793E+01  0.29324141793E+01  0.00000000000E+00 0.  1.
         24    2    1    2    0    0 -0.11982529423E+02  0.20405546247E+02  0.94830775689E+03  0.95213494513E+03  0.81935246615E+02 0.  0.
        -11    1    3    3    0    0  0.40307907901E+01 -0.23312878238E+02  0.62959725011E+03  0.63004161363E+03  0.00000000000E+00 0.  1.
         12    1    3    3    0    0 -0.16013320213E+02  0.43718424485E+02  0.31871050678E+03  0.32209333149E+03  0.00000000000E+00 0. -1.
         -2    1    1    2    0  502  0.11982529423E+02 -0.20405546247E+02  0.13638702627E+03  0.13842466639E+03  0.00000000000E+00 0.  1.
<mgrwt>
<rscale>  1 0.85283949E+02</rscale>
<asrwt>0</asrwt>
<pdfrwt beam="1">  1       21 0.45114151E-03 0.85283949E+02</pdfrwt>
<pdfrwt beam="2">  1       -1 0.16732694E+00 0.85283949E+02</pdfrwt>
<totfact> 0.32937386E+05</totfact>
</mgrwt>
</event>
<event>
 6    2  0.9453093E+000  0.8642161E+02  0.7546771E-02  0.1311756E+00
         21   -1    0    0  501  502  0.00000000000E+00  0.00000000000E+00  0.58161290809E+01  0.58161290809E+01  0.00000000000E+00 0. -1.
          2   -1    0    0  502    0 -0.00000000000E+00 -0.00000000000E+00 -0.25069869314E+04  0.25069869314E+04  0.00000000000E+00 0. -1.
         24    2    1    2    0    0 -0.31875094275E+02  0.18495231166E+02 -0.24390001075E+04  0.24405307248E+04  0.78170321271E+02 0.  0.
        -11    1    3    3    0    0 -0.30057829763E+02 -0.27178153517E+02 -0.10659738989E+04  0.10667438672E+04  0.00000000000E+00 0.  1.
         12    1    3    3    0    0 -0.18172645117E+01  0.45673384683E+02 -0.13730262086E+04  0.13737868576E+04  0.00000000000E+00 0. -1.
          1    1    1    2  501    0  0.31875094275E+02 -0.18495231166E+02 -0.62170694885E+02  0.72272335741E+02  0.00000000000E+00 0. -1.
<mgrwt>
<rscale>  1 0.86421608E+02</rscale>
<asrwt>0</asrwt>
<pdfrwt beam="1">  1       21 0.89479038E-03 0.86421608E+02</pdfrwt>
<pdfrwt beam="2">  1        2 0.38568974E+00 0.86421608E+02</pdfrwt>
<totfact> 0.23445314E+05</totfact>
</mgrwt>
</event>
<event>
 6    2  0.9453093E+000  0.9418854E+02  0.7546771E-02  0.1293014E+00
         21   -1    0    0  501  502  0.00000000000E+00  0.00000000000E+00  0.33047244532E+02  0.33047244532E+02  0.00000000000E+00 0. -1.
          2   -1    0    0  502    0 -0.00000000000E+00 -0.00000000000E+00 -0.19629162820E+03  0.19629162820E+03  0.00000000000E+00 0. -1.
         24    2    1    2    0    0 -0.49934746004E+02  0.28592443640E+01 -0.15079915536E+03  0.17779725999E+03  0.79811191359E+02 0.  0.
        -11    1    3    3    0    0  0.13143606188E+02 -0.72253619071E+01 -0.84160071841E+02  0.85486127124E+02  0.00000000000E+00 0.  1.
         12    1    3    3    0    0 -0.63078352192E+02  0.10084606271E+02 -0.66639083516E+02  0.92311132865E+02  0.00000000000E+00 0. -1.
          1    1    1    2  501    0  0.49934746004E+02 -0.28592443640E+01 -0.12445228315E+02  0.51541612747E+02  0.00000000000E+00 0. -1.
<mgrwt>
<rscale>  1 0.94188536E+02</rscale>
<asrwt>0</asrwt>
<pdfrwt beam="1">  1       21 0.50841917E-02 0.94188536E+02</pdfrwt>
<pdfrwt beam="2">  1        2 0.30198711E-01 0.94188536E+02</pdfrwt>
<totfact> 0.53153655E+05</totfact>
</mgrwt>
</event>
<event>
 6    2  0.9453093E+000  0.8352095E+02  0.7546771E-02  0.1319346E+00
         21   -1    0    0  501  502  0.00000000000E+00  0.00000000000E+00  0.29670249795E+02  0.29670249795E+02  0.00000000000E+00 0. -1.
         -1   -1    0    0    0  501 -0.00000000000E+00 -0.00000000000E+00 -0.10346131572E+03  0.10346131572E+03  0.00000000000E+00 0.  1.
         24    2    1    2    0    0  0.15118381937E+02 -0.13716710594E+02 -0.75577844477E+02  0.11263995261E+03  0.80987867777E+02 0.  0.
        -11    1    3    3    0    0  0.16426116780E+02 -0.46310564622E+02 -0.33819582573E+02  0.59651067665E+02  0.00000000000E+00 0.  1.
         12    1    3    3    0    0 -0.13077348433E+01  0.32593854029E+02 -0.41758261904E+02  0.52988884949E+02  0.00000000000E+00 0. -1.
         -2    1    1    2    0  502 -0.15118381937E+02  0.13716710594E+02  0.17867785481E+01  0.20491612906E+02  0.00000000000E+00 0.  1.
<mgrwt>
<rscale>  1 0.83520946E+02</rscale>
<asrwt>0</asrwt>
<pdfrwt beam="1">  1       21 0.45646538E-02 0.83520946E+02</pdfrwt>
<pdfrwt beam="2">  1       -1 0.15917125E-01 0.83520946E+02</pdfrwt>
<totfact> 0.75827692E+05</totfact>
</mgrwt>
</event>
<event>
 6    2  0.9453093E+000  0.8392070E+02  0.7546771E-02  0.1318279E+00
          2   -1    0    0  502    0 -0.00000000000E+00  0.00000000000E+00  0.10777211181E+03  0.10777211181E+03  0.00000000000E+00 0. -1.
         21   -1    0    0  501  502  0.00000000000E+00 -0.00000000000E+00 -0.27192462378E+02  0.27192462378E+02  0.00000000000E+00 0. -1.
         24    2    1    2    0    0 -0.18611375096E+02  0.13032534411E+02  0.53102796204E+02  0.99310574420E+02  0.80786465394E+02 0.  0.
        -11    1    3    3    0    0  0.35602230432E+01  0.28648691615E+02 -0.10060323911E+02  0.30571765349E+02  0.00000000000E+00 0.  1.
         12    1    3    3    0    0 -0.22171598139E+02 -0.15616157204E+02  0.63163120115E+02  0.68738809071E+02  0.00000000000E+00 0. -1.
          1    1    1    2  501    0  0.18611375096E+02 -0.13032534411E+02  0.27476853223E+02  0.35653999764E+02  0.00000000000E+00 0. -1.
<mgrwt>
<rscale>  1 0.83920696E+02</rscale>
<asrwt>0</asrwt>
<pdfrwt beam="1">  1       21 0.41834558E-02 0.83920696E+02</pdfrwt>
<pdfrwt beam="2">  1        2 0.16580325E-01 0.83920696E+02</pdfrwt>
<totfact> 0.14050032E+06</totfact>
</mgrwt>
</event>
<event>
 6    2  0.9453093E+000  0.1000082E+03  0.7546771E-02  0.1280279E+00
         21   -1    0    0  501  502  0.00000000000E+00  0.00000000000E+00  0.11726309495E+04  0.11726309495E+04  0.00000000000E+00 0. -1.
          4   -1    0    0  502    0 -0.00000000000E+00 -0.00000000000E+00 -0.11219118599E+02  0.11219118599E+02  0.00000000000E+00 0. -1.
         24    2    1    2    0    0  0.46045584584E+00  0.21518846876E+02  0.21422899682E+03  0.23642271259E+03  0.97664544024E+02 0.  0.
        -11    1    3    3    0    0  0.40828557871E+02  0.26837301106E+02  0.16731780063E+03  0.17430564614E+03  0.00000000000E+00 0.  1.
         12    1    3    3    0    0 -0.40368102025E+02 -0.53184542297E+01  0.46911196191E+02  0.62117066451E+02  0.00000000000E+00 0. -1.
          3    1    1    2  501    0 -0.46045584584E+00 -0.21518846876E+02  0.94718283408E+03  0.94742735551E+03  0.00000000000E+00 0. -1.
<mgrwt>
<rscale>  1 0.10000818E+03</rscale>
<asrwt>0</asrwt>
<pdfrwt beam="1">  1       21 0.18040466E+00 0.10000818E+03</pdfrwt>
<pdfrwt beam="2">  1        4 0.17260192E-02 0.10000818E+03</pdfrwt>
<totfact> 0.95547702E+03</totfact>
</mgrwt>
</event>
<event>
 6    2  0.9453093E+000  0.9177772E+02  0.7546771E-02  0.1298603E+00
          2   -1    0    0  502    0 -0.00000000000E+00  0.00000000000E+00  0.70314025407E+01  0.70314025407E+01  0.00000000000E+00 0. -1.
         21   -1    0    0  501  502  0.00000000000E+00 -0.00000000000E+00 -0.65938512317E+03  0.65938512317E+03  0.00000000000E+00 0. -1.
         24    2    1    2    0    0 -0.25904858791E+01 -0.43206062619E+02 -0.48123822667E+03  0.48991160585E+03  0.80930070235E+02 0.  0.
        -11    1    3    3    0    0  0.32735428156E+02 -0.25240475652E+02 -0.12924699640E+03  0.13569626357E+03  0.00000000000E+00 0.  1.
         12    1    3    3    0    0 -0.35325914035E+02 -0.17965586967E+02 -0.35199123027E+03  0.35421534228E+03  0.00000000000E+00 0. -1.
          1    1    1    2  501    0  0.25904858791E+01  0.43206062619E+02 -0.17111549396E+03  0.17650491986E+03  0.00000000000E+00 0. -1.
<mgrwt>
<rscale>  1 0.91777725E+02</rscale>
<asrwt>0</asrwt>
<pdfrwt beam="1">  1       21 0.10144387E+00 0.91777725E+02</pdfrwt>
<pdfrwt beam="2">  1        2 0.10817542E-02 0.91777725E+02</pdfrwt>
<totfact> 0.11728349E+05</totfact>
</mgrwt>
</event>
<event>
 6    2  0.9453093E+000  0.1056549E+03  0.7546771E-02  0.1268835E+00
          2   -1    0    0  502    0 -0.00000000000E+00  0.00000000000E+00  0.62400180959E+03  0.62400180959E+03  0.00000000000E+00 0. -1.
         21   -1    0    0  501  502  0.00000000000E+00 -0.00000000000E+00 -0.24981928132E+02  0.24981928132E+02  0.00000000000E+00 0. -1.
         24    2    1    2    0    0  0.12673668358E+02 -0.69502279386E+02  0.55668409563E+03  0.56662168656E+03  0.78560579467E+02 0.  0.
        -11    1    3    3    0    0 -0.25490929935E+01 -0.40752652269E+02  0.90281390756E+02  0.99085851961E+02  0.00000000000E+00 0.  1.
         12    1    3    3    0    0  0.15222761352E+02 -0.28749627117E+02  0.46640270487E+03  0.46753583460E+03  0.00000000000E+00 0. -1.
          1    1    1    2  501    0 -0.12673668358E+02  0.69502279386E+02  0.42335785826E+02  0.82362051158E+02  0.00000000000E+00 0. -1.
<mgrwt>
<rscale>  1 0.10565488E+03</rscale>
<asrwt>0</asrwt>
<pdfrwt beam="1">  1       21 0.38433740E-02 0.10565488E+03</pdfrwt>
<pdfrwt beam="2">  1        2 0.96000267E-01 0.10565488E+03</pdfrwt>
<totfact> 0.24790715E+05</totfact>
</mgrwt>
</event>
<event>
 6    2  0.9453093E+000  0.1164435E+03  0.7546771E-02  0.1249082E+00
         21   -1    0    0  501  502  0.00000000000E+00  0.00000000000E+00  0.24837950696E+03  0.24837950696E+03  0.00000000000E+00 0. -1.
          2   -1    0    0  502    0 -0.00000000000E+00 -0.00000000000E+00 -0.57107972693E+02  0.57107972693E+02  0.00000000000E+00 0. -1.
         24    2    1    2    0    0  0.81122267505E+02  0.51284499310E+01  0.23114952587E+02  0.11871553517E+03  0.83378378335E+02 0.  0.
        -13    1    3    3    0    0  0.15894633521E+02  0.20068041844E+02  0.41998274131E+02  0.49185574188E+02  0.00000000000E+00 0.  1.
         14    1    3    3    0    0  0.65227633984E+02 -0.14939591913E+02 -0.18883321544E+02  0.69529960982E+02  0.00000000000E+00 0. -1.
          1    1    1    2  501    0 -0.81122267505E+02 -0.51284499310E+01  0.16815658168E+03  0.18677194448E+03  0.00000000000E+00 0. -1.
<mgrwt>
<rscale>  1 0.11644345E+03</rscale>
<asrwt>0</asrwt>
<pdfrwt beam="1">  1       21 0.38212231E-01 0.11644345E+03</pdfrwt>
<pdfrwt beam="2">  1        2 0.87858421E-02 0.11644345E+03</pdfrwt>
<totfact> 0.59575908E+04</totfact>
</mgrwt>
</event>
<event>
 6    2  0.9453093E+000  0.8903382E+02  0.7546771E-02  0.1305208E+00
         21   -1    0    0  501  502  0.00000000000E+00  0.00000000000E+00  0.29451925509E+01  0.29451925509E+01  0.00000000000E+00 0. -1.
          2   -1    0    0  502    0 -0.00000000000E+00 -0.00000000000E+00 -0.22556188133E+04  0.22556188133E+04  0.00000000000E+00 0. -1.
         24    2    1    2    0    0 -0.15884917815E+02  0.38922325587E+02 -0.20303217272E+04  0.20322729485E+04  0.78484033300E+02 0.  0.
        -13    1    3    3    0    0 -0.27880151321E+01  0.54174938083E+02 -0.82398793671E+03  0.82577164930E+03  0.00000000000E+00 0.  1.
         14    1    3    3    0    0 -0.13096902683E+02 -0.15252612495E+02 -0.12063337905E+04  0.12065012992E+04  0.00000000000E+00 0. -1.
          1    1    1    2  501    0  0.15884917815E+02 -0.38922325587E+02 -0.22235189357E+03  0.22629105730E+03  0.00000000000E+00 0. -1.
<mgrwt>
<rscale>  1 0.89033822E+02</rscale>
<asrwt>0</asrwt>
<pdfrwt beam="1">  1       21 0.45310635E-03 0.89033822E+02</pdfrwt>
<pdfrwt beam="2">  1        2 0.34701843E+00 0.89033822E+02</pdfrwt>
<totfact> 0.90329940E+05</totfact>
</mgrwt>
</event>
<event>
 6    2  0.9453093E+000  0.8712613E+02  0.7546771E-02  0.1309964E+00
         -1   -1    0    0    0  501 -0.00000000000E+00  0.00000000000E+00  0.19363773906E+02  0.19363773906E+02  0.00000000000E+00 0.  1.
         21   -1    0    0  501  502  0.00000000000E+00 -0.00000000000E+00 -0.35824332782E+03  0.35824332782E+03  0.00000000000E+00 0. -1.
         24    2    1    2    0    0 -0.11343073111E+02 -0.28229016012E+02 -0.33592673917E+03  0.34704140580E+03  0.81642027162E+02 0.  0.
        -13    1    3    3    0    0  0.99872995793E+01  0.46064946225E+01 -0.24425734611E+01  0.11266415167E+02  0.00000000000E+00 0.  1.
         14    1    3    3    0    0 -0.21330372690E+02 -0.32835510635E+02 -0.33348416571E+03  0.33577499063E+03  0.00000000000E+00 0. -1.
         -2    1    1    2    0  502  0.11343073111E+02  0.28229016012E+02 -0.29528147480E+01  0.30565695928E+02  0.00000000000E+00 0.  1.
<mgrwt>
<rscale>  1 0.87126134E+02</rscale>
<asrwt>0</asrwt>
<pdfrwt beam="1">  1       21 0.55114350E-01 0.87126134E+02</pdfrwt>
<pdfrwt beam="2">  1       -1 0.29790426E-02 0.87126134E+02</pdfrwt>
<totfact> 0.10001979E+05</totfact>
</mgrwt>
</event>
<event>
 6    2  0.9453093E+000  0.8648422E+02  0.7546771E-02  0.1311596E+00
          2   -1    0    0  502    0 -0.00000000000E+00  0.00000000000E+00  0.12537394110E+03  0.12537394110E+03  0.00000000000E+00 0. -1.
         21   -1    0    0  501  502  0.00000000000E+00 -0.00000000000E+00 -0.30646848495E+02  0.30646848495E+02  0.00000000000E+00 0. -1.
         24    2    1    2    0    0 -0.26959272056E+02  0.20908087844E+01  0.95667393222E+02  0.12896421929E+03  0.82148316481E+02 0.  0.
        -11    1    3    3    0    0  0.10812738899E+02  0.16801932723E+02 -0.48675703685E+01  0.20564860977E+02  0.00000000000E+00 0.  1.
         12    1    3    3    0    0 -0.37772010955E+02 -0.14711123938E+02  0.10053496359E+03  0.10839935832E+03  0.00000000000E+00 0. -1.
          1    1    1    2  501    0  0.26959272056E+02 -0.20908087844E+01 -0.94030061958E+00  0.27056570300E+02  0.00000000000E+00 0. -1.
<mgrwt>
<rscale>  1 0.86484217E+02</rscale>
<asrwt>0</asrwt>
<pdfrwt beam="1">  1       21 0.47148998E-02 0.86484217E+02</pdfrwt>
<pdfrwt beam="2">  1        2 0.19288298E-01 0.86484217E+02</pdfrwt>
<totfact> 0.97540505E+05</totfact>
</mgrwt>
</event>
<event>
 6    2  0.9453093E+000  0.1319610E+03  0.7546771E-02  0.1224575E+00
          2   -1    0    0  502    0 -0.00000000000E+00  0.00000000000E+00  0.44046525909E+03  0.44046525909E+03  0.00000000000E+00 0. -1.
         21   -1    0    0  501  502  0.00000000000E+00 -0.00000000000E+00 -0.86278778631E+02  0.86278778631E+02  0.00000000000E+00 0. -1.
         24    2    1    2    0    0 -0.76990924727E+02  0.71084666955E+02  0.39333544556E+03  0.41488129220E+03  0.80206492982E+02 0.  0.
        -13    1    3    3    0    0 -0.73757914834E+02  0.85996911053E+02  0.30765064066E+03  0.32784846410E+03  0.00000000000E+00 0.  1.
         14    1    3    3    0    0 -0.32330098934E+01 -0.14912244098E+02  0.85684804898E+02  0.87032828101E+02  0.00000000000E+00 0. -1.
          1    1    1    2  501    0  0.76990924727E+02 -0.71084666955E+02 -0.39148965103E+02  0.11186274552E+03  0.00000000000E+00 0. -1.
<mgrwt>
<rscale>  1 0.13196103E+03</rscale>
<asrwt>0</asrwt>
<pdfrwt beam="1">  1       21 0.13273659E-01 0.13196103E+03</pdfrwt>
<pdfrwt beam="2">  1        2 0.67763884E-01 0.13196103E+03</pdfrwt>
<totfact> 0.43899427E+04</totfact>
</mgrwt>
</event>
<event>
 6    2  0.9453093E+000  0.1027204E+03  0.7546771E-02  0.1274677E+00
          2   -1    0    0  502    0 -0.00000000000E+00  0.00000000000E+00  0.66443818210E+03  0.66443818210E+03  0.00000000000E+00 0. -1.
         21   -1    0    0  501  502  0.00000000000E+00 -0.00000000000E+00 -0.91987133313E+01  0.91987133313E+01  0.00000000000E+00 0. -1.
         24    2    1    2    0    0  0.36231701786E+01 -0.45301221610E+02  0.54145435511E+03  0.55111187704E+03  0.92120325148E+02 0.  0.
        -11    1    3    3    0    0 -0.16297475882E+02  0.21060632844E+02  0.76038250267E+02  0.80566577932E+02  0.00000000000E+00 0.  1.
         12    1    3    3    0    0  0.19920646060E+02 -0.66361854453E+02  0.46541610484E+03  0.47054529911E+03  0.00000000000E+00 0. -1.
          1    1    1    2  501    0 -0.36231701786E+01  0.45301221610E+02  0.11378511366E+03  0.12252501839E+03  0.00000000000E+00 0. -1.
<mgrwt>
<rscale>  1 0.10272041E+03</rscale>
<asrwt>0</asrwt>
<pdfrwt beam="1">  1       21 0.14151872E-02 0.10272041E+03</pdfrwt>
<pdfrwt beam="2">  1        2 0.10222122E+00 0.10272041E+03</pdfrwt>
<totfact> 0.11568301E+06</totfact>
</mgrwt>
</event>
<event>
 6    2  0.9453093E+000  0.6972658E+02  0.7546771E-02  0.1361025E+00
          4   -1    0    0  502    0 -0.00000000000E+00  0.00000000000E+00  0.13655355086E+03  0.13655355086E+03  0.00000000000E+00 0. -1.
         21   -1    0    0  501  502  0.00000000000E+00 -0.00000000000E+00 -0.22262602857E+02  0.22262602857E+02  0.00000000000E+00 0.  1.
         24    2    1    2    0    0 -0.38681465200E+01 -0.20000439312E+02  0.11898597109E+03  0.13791104975E+03  0.66684452429E+02 0.  0.
        -11    1    3    3    0    0  0.12687366456E+01 -0.44567423283E+02  0.73790136071E+02  0.86213972720E+02  0.00000000000E+00 0.  1.
         12    1    3    3    0    0 -0.51368831656E+01  0.24566983970E+02  0.45195835021E+02  0.51697077028E+02  0.00000000000E+00 0. -1.
          3    1    1    2  501    0  0.38681465200E+01  0.20000439312E+02 -0.46950230877E+01  0.20905103970E+02  0.00000000000E+00 0. -1.
<mgrwt>
<rscale>  1 0.69726583E+02</rscale>
<asrwt>0</asrwt>
<pdfrwt beam="1">  1       21 0.34250159E-02 0.69726583E+02</pdfrwt>
<pdfrwt beam="2">  1        4 0.21008238E-01 0.69726583E+02</pdfrwt>
<totfact> 0.36530661E+05</totfact>
</mgrwt>
</event>
<event>
 6    2  0.9453093E+000  0.1009080E+03  0.7546771E-02  0.1278398E+00
         21   -1    0    0  501  502  0.00000000000E+00  0.00000000000E+00  0.51165362099E+02  0.51165362099E+02  0.00000000000E+00 0. -1.
          2   -1    0    0  502    0 -0.00000000000E+00 -0.00000000000E+00 -0.16524036441E+03  0.16524036441E+03  0.00000000000E+00 0. -1.
         24    2    1    2    0    0  0.59218467003E+02  0.27261823379E+02 -0.11259672639E+03  0.15119668459E+03  0.77021950041E+02 0.  0.
        -11    1    3    3    0    0 -0.12026980903E+02 -0.13433750027E+02 -0.13403887707E+02  0.22467267637E+02  0.00000000000E+00 0.  1.
         12    1    3    3    0    0  0.71245447906E+02  0.40695573406E+02 -0.99192838685E+02  0.12872941695E+03  0.00000000000E+00 0. -1.
          1    1    1    2  501    0 -0.59218467003E+02 -0.27261823379E+02 -0.14782759151E+01  0.65209041917E+02  0.00000000000E+00 0. -1.
<mgrwt>
<rscale>  1 0.10090795E+03</rscale>
<asrwt>0</asrwt>
<pdfrwt beam="1">  1       21 0.78715942E-02 0.10090795E+03</pdfrwt>
<pdfrwt beam="2">  1        2 0.25421595E-01 0.10090795E+03</pdfrwt>
<totfact> 0.30765604E+05</totfact>
</mgrwt>
</event>
<event>
 6    2  0.9453093E+000  0.8736469E+02  0.7546771E-02  0.1309362E+00
         21   -1    0    0  501  502  0.00000000000E+00  0.00000000000E+00  0.78022182566E+01  0.78022182566E+01  0.00000000000E+00 0. -1.
         -1   -1    0    0    0  501 -0.00000000000E+00 -0.00000000000E+00 -0.65957607913E+03  0.65957607913E+03  0.00000000000E+00 0.  1.
         24    2    1    2    0    0  0.25887113638E+02 -0.33669544389E+02 -0.55302966707E+03  0.55988784812E+03  0.76346636797E+02 0.  0.
        -13    1    3    3    0    0  0.16589754567E+02  0.21151380072E+02 -0.27780573795E+03  0.27910325844E+03  0.00000000000E+00 0.  1.
         14    1    3    3    0    0  0.92973590716E+01 -0.54820924461E+02 -0.27522392912E+03  0.28078458968E+03  0.00000000000E+00 0. -1.
         -2    1    1    2    0  502 -0.25887113638E+02  0.33669544389E+02 -0.98744193804E+02  0.10749044926E+03  0.00000000000E+00 0.  1.
<mgrwt>
<rscale>  1 0.87364694E+02</rscale>
<asrwt>0</asrwt>
<pdfrwt beam="1">  1       21 0.12003412E-02 0.87364694E+02</pdfrwt>
<pdfrwt beam="2">  1       -1 0.10147325E+00 0.87364694E+02</pdfrwt>
<totfact> 0.24318518E+05</totfact>
</mgrwt>
</event>
<event>
 6    2  0.9453093E+000  0.8254218E+02  0.7546771E-02  0.1321988E+00
          2   -1    0    0  502    0 -0.00000000000E+00  0.00000000000E+00  0.69778259756E+03  0.69778259756E+03  0.00000000000E+00 0. -1.
         21   -1    0    0  501  502  0.00000000000E+00 -0.00000000000E+00 -0.17942625023E+02  0.17942625023E+02  0.00000000000E+00 0. -1.
         24    2    1    2    0    0  0.20536778352E+02 -0.10389330174E+02  0.68675189809E+03  0.69169457213E+03  0.79268620100E+02 0.  0.
        -11    1    3    3    0    0 -0.29393489702E+02 -0.10537676700E+02  0.32834786172E+03  0.32982925607E+03  0.00000000000E+00 0.  1.
         12    1    3    3    0    0  0.49930268054E+02  0.14834652546E+00  0.35840403637E+03  0.36186531605E+03  0.00000000000E+00 0. -1.
          1    1    1    2  501    0 -0.20536778352E+02  0.10389330174E+02 -0.69119255523E+01  0.24030650457E+02  0.00000000000E+00 0. -1.
<mgrwt>
<rscale>  1 0.82542181E+02</rscale>
<asrwt>0</asrwt>
<pdfrwt beam="1">  1       21 0.27604044E-02 0.82542181E+02</pdfrwt>
<pdfrwt beam="2">  1        2 0.10735115E+00 0.82542181E+02</pdfrwt>
<totfact> 0.36897265E+05</totfact>
</mgrwt>
</event>
<event>
 6    2  0.9453093E+000  0.8555925E+02  0.7546771E-02  0.1313976E+00
         -3   -1    0    0    0  501 -0.00000000000E+00  0.00000000000E+00  0.11833792957E+02  0.11833792957E+02  0.00000000000E+00 0.  1.
         21   -1    0    0  501  502  0.00000000000E+00 -0.00000000000E+00 -0.45184846645E+03  0.45184846645E+03  0.00000000000E+00 0.  1.
         24    2    1    2    0    0 -0.39555653579E+01 -0.26967158051E+02 -0.15236377981E+03  0.17474297383E+03  0.81101858150E+02 0.  0.
        -11    1    3    3    0    0 -0.28405692889E+01 -0.44815157570E+01  0.97356446763E+01  0.11087632508E+02  0.00000000000E+00 0.  1.
         12    1    3    3    0    0 -0.11149960690E+01 -0.22485642294E+02 -0.16209942448E+03  0.16365534132E+03  0.00000000000E+00 0. -1.
         -4    1    1    2    0  502  0.39555653579E+01  0.26967158051E+02 -0.28765089368E+03  0.28893928557E+03  0.00000000000E+00 0.  1.
<mgrwt>
<rscale>  1 0.85559251E+02</rscale>
<asrwt>0</asrwt>
<pdfrwt beam="1">  1       21 0.69515149E-01 0.85559251E+02</pdfrwt>
<pdfrwt beam="2">  1       -3 0.18205835E-02 0.85559251E+02</pdfrwt>
<totfact> 0.94301917E+04</totfact>
</mgrwt>
</event>
<event>
 6    2  0.9453093E+000  0.5608082E+02  0.7546771E-02  0.1415056E+00
          4   -1    0    0  502    0 -0.00000000000E+00  0.00000000000E+00  0.22716055138E+02  0.22716055138E+02  0.00000000000E+00 0. -1.
         21   -1    0    0  501  502  0.00000000000E+00 -0.00000000000E+00 -0.89659606530E+02  0.89659606530E+02  0.00000000000E+00 0.  1.
         24    2    1    2    0    0  0.18180327128E+00  0.20970913041E+02 -0.17627916829E+02  0.58786072581E+02  0.52011985461E+02 0.  0.
        -11    1    3    3    0    0  0.21033670502E+02  0.15420623055E+02 -0.24857509134E+02  0.36029247433E+02  0.00000000000E+00 0.  1.
         12    1    3    3    0    0 -0.20851867231E+02  0.55502899862E+01  0.72295923054E+01  0.22756825149E+02  0.00000000000E+00 0. -1.
          3    1    1    2  501    0 -0.18180327128E+00 -0.20970913041E+02 -0.49315634562E+02  0.53589589087E+02  0.00000000000E+00 0. -1.
<mgrwt>
<rscale>  1 0.56080825E+02</rscale>
<asrwt>0</asrwt>
<pdfrwt beam="1">  1       21 0.13793786E-01 0.56080825E+02</pdfrwt>
<pdfrwt beam="2">  1        4 0.34947777E-02 0.56080825E+02</pdfrwt>
<totfact> 0.63895650E+05</totfact>
</mgrwt>
</event>
<event>
 6    2  0.9453093E+000  0.9133051E+02  0.7546771E-02  0.1299661E+00
          2   -1    0    0  502    0 -0.00000000000E+00  0.00000000000E+00  0.13710074969E+03  0.13710074969E+03  0.00000000000E+00 0. -1.
         21   -1    0    0  501  502  0.00000000000E+00 -0.00000000000E+00 -0.30941950695E+02  0.30941950695E+02  0.00000000000E+00 0. -1.
         24    2    1    2    0    0  0.64892170062E+01  0.22125738946E+02  0.11174315804E+03  0.14431838107E+03  0.88371960966E+02 0.  0.
        -11    1    3    3    0    0  0.34192784402E+02 -0.12098901559E+02  0.17447027344E+02  0.40248337695E+02  0.00000000000E+00 0.  1.
         12    1    3    3    0    0 -0.27703567396E+02  0.34224640505E+02  0.94296130691E+02  0.10407004337E+03  0.00000000000E+00 0. -1.
          1    1    1    2  501    0 -0.64892170062E+01 -0.22125738946E+02 -0.55843590387E+01  0.23724319319E+02  0.00000000000E+00 0. -1.
<mgrwt>
<rscale>  1 0.91330508E+02</rscale>
<asrwt>0</asrwt>
<pdfrwt beam="1">  1       21 0.47603002E-02 0.91330508E+02</pdfrwt>
<pdfrwt beam="2">  1        2 0.21092423E-01 0.91330508E+02</pdfrwt>
<totfact> 0.87418456E+05</totfact>
</mgrwt>
</event>
<event>
 6    2  0.9453093E+000  0.8247396E+02  0.7546771E-02  0.1322174E+00
         21   -1    0    0  501  502  0.00000000000E+00  0.00000000000E+00  0.29930676853E+01  0.29930676853E+01  0.00000000000E+00 0.  1.
          2   -1    0    0  502    0 -0.00000000000E+00 -0.00000000000E+00 -0.10297082452E+04  0.10297082452E+04  0.00000000000E+00 0. -1.
         24    2    1    2    0    0  0.21131353433E+02  0.15440794851E+01 -0.62365921523E+03  0.62908884156E+03  0.79705931710E+02 0.  0.
        -11    1    3    3    0    0  0.42447076539E+02  0.55120864784E+01 -0.18471739558E+03  0.18961184993E+03  0.00000000000E+00 0.  1.
         12    1    3    3    0    0 -0.21315723106E+02 -0.39680069933E+01 -0.43894181965E+03  0.43947699163E+03  0.00000000000E+00 0. -1.
          1    1    1    2  501    0 -0.21131353433E+02 -0.15440794851E+01 -0.40305596231E+03  0.40361247136E+03  0.00000000000E+00 0. -1.
<mgrwt>
<rscale>  1 0.82473958E+02</rscale>
<asrwt>0</asrwt>
<pdfrwt beam="1">  1       21 0.46047184E-03 0.82473958E+02</pdfrwt>
<pdfrwt beam="2">  1        2 0.15841669E+00 0.82473958E+02</pdfrwt>
<totfact> 0.37545464E+06</totfact>
</mgrwt>
</event>
<event>
 6    2  0.9453093E+000  0.9196571E+02  0.7546771E-02  0.1298160E+00
         21   -1    0    0  501  502  0.00000000000E+00  0.00000000000E+00  0.44804901360E+01  0.44804901360E+01  0.00000000000E+00 0. -1.
          2   -1    0    0  502    0 -0.00000000000E+00 -0.00000000000E+00 -0.15062565923E+04  0.15062565923E+04  0.00000000000E+00 0. -1.
         24    2    1    2    0    0 -0.44670602895E+02 -0.15398434413E+02 -0.13100673165E+04  0.13132913100E+04  0.78899408473E+02 0.  0.
        -11    1    3    3    0    0  0.41060996577E+01  0.26650943229E+02 -0.45858390968E+03  0.45937602795E+03  0.00000000000E+00 0.  1.
         12    1    3    3    0    0 -0.48776702552E+02 -0.42049377643E+02 -0.85148340682E+03  0.85391528207E+03  0.00000000000E+00 0. -1.
          1    1    1    2  501    0  0.44670602895E+02  0.15398434413E+02 -0.19170878564E+03  0.19744577239E+03  0.00000000000E+00 0. -1.
<mgrwt>
<rscale>  1 0.91965707E+02</rscale>
<asrwt>0</asrwt>
<pdfrwt beam="1">  1       21 0.68930589E-03 0.91965707E+02</pdfrwt>
<pdfrwt beam="2">  1        2 0.23173188E+00 0.91965707E+02</pdfrwt>
<totfact> 0.11334377E+06</totfact>
</mgrwt>
</event>
<event>
 6    2  0.9453093E+000  0.8642307E+02  0.7546771E-02  0.1311752E+00
         -3   -1    0    0    0  501 -0.00000000000E+00  0.00000000000E+00  0.70930003425E+01  0.70930003425E+01  0.00000000000E+00 0.  1.
         21   -1    0    0  501  502  0.00000000000E+00 -0.00000000000E+00 -0.79185830244E+03  0.79185830244E+03  0.00000000000E+00 0. -1.
         24    2    1    2    0    0  0.16817684870E+02  0.26395703990E+02 -0.27577514827E+03  0.28899979096E+03  0.80556682279E+02 0.  0.
        -13    1    3    3    0    0  0.22564568993E+02 -0.83282797364E+01 -0.21379062350E+02  0.32180496022E+02  0.00000000000E+00 0.  1.
         14    1    3    3    0    0 -0.57468841239E+01  0.34723983726E+02 -0.25439608592E+03  0.25681929494E+03  0.00000000000E+00 0. -1.
         -4    1    1    2    0  502 -0.16817684870E+02 -0.26395703990E+02 -0.50899015383E+03  0.50995151182E+03  0.00000000000E+00 0.  1.
<mgrwt>
<rscale>  1 0.86423069E+02</rscale>
<asrwt>0</asrwt>
<pdfrwt beam="1">  1       21 0.12182438E+00 0.86423069E+02</pdfrwt>
<pdfrwt beam="2">  1       -3 0.10912306E-02 0.86423069E+02</pdfrwt>
<totfact> 0.56630424E+04</totfact>
</mgrwt>
</event>
<event>
 6    2  0.9453093E+000  0.9100198E+02  0.7546771E-02  0.1300443E+00
          2   -1    0    0  502    0 -0.00000000000E+00  0.00000000000E+00  0.31411780106E+03  0.31411780106E+03  0.00000000000E+00 0. -1.
         21   -1    0    0  501  502  0.00000000000E+00 -0.00000000000E+00 -0.14692085668E+02  0.14692085668E+02  0.00000000000E+00 0.  1.
         24    2    1    2    0    0 -0.40124794075E+02  0.19955231604E+02  0.20491505436E+03  0.22421315917E+03  0.79203225138E+02 0.  0.
        -11    1    3    3    0    0 -0.20820163147E+02  0.13361289411E+01  0.36633741305E+01  0.21182179870E+02  0.00000000000E+00 0.  1.
         12    1    3    3    0    0 -0.19304630929E+02  0.18619102662E+02  0.20125168023E+03  0.20303097930E+03  0.00000000000E+00 0. -1.
          1    1    1    2  501    0  0.40124794075E+02 -0.19955231604E+02  0.94510661036E+02  0.10459672757E+03  0.00000000000E+00 0. -1.
<mgrwt>
<rscale>  1 0.91001985E+02</rscale>
<asrwt>0</asrwt>
<pdfrwt beam="1">  1       21 0.22603211E-02 0.91001985E+02</pdfrwt>
<pdfrwt beam="2">  1        2 0.48325811E-01 0.91001985E+02</pdfrwt>
<totfact> 0.12158888E+06</totfact>
</mgrwt>
</event>
<event>
 6    2  0.9453093E+000  0.7294841E+02  0.7546771E-02  0.1350344E+00
         21   -1    0    0  501  502  0.00000000000E+00  0.00000000000E+00  0.16874191851E+02  0.16874191851E+02  0.00000000000E+00 0.  1.
          2   -1    0    0  502    0 -0.00000000000E+00 -0.00000000000E+00 -0.30846663480E+03  0.30846663480E+03  0.00000000000E+00 0. -1.
         24    2    1    2    0    0  0.29988486778E+02 -0.28695137793E+02 -0.74318226227E+02  0.10413774004E+03  0.59989581429E+02 0.  0.
        -11    1    3    3    0    0  0.24527445926E+02 -0.14327787061E+01  0.23315229095E+00  0.24570364639E+02  0.00000000000E+00 0.  1.
         12    1    3    3    0    0  0.54610408517E+01 -0.27262359086E+02 -0.74551378518E+02  0.79567375406E+02  0.00000000000E+00 0. -1.
          1    1    1    2  501    0 -0.29988486778E+02  0.28695137793E+02 -0.21727421672E+03  0.22120308661E+03  0.00000000000E+00 0. -1.
<mgrwt>
<rscale>  1 0.72948407E+02</rscale>
<asrwt>0</asrwt>
<pdfrwt beam="1">  1       21 0.25960294E-02 0.72948407E+02</pdfrwt>
<pdfrwt beam="2">  1        2 0.47456408E-01 0.72948407E+02</pdfrwt>
<totfact> 0.96813289E+05</totfact>
</mgrwt>
</event>
<event>
 6    2  0.9453093E+000  0.8324545E+02  0.7546771E-02  0.1320086E+00
          2   -1    0    0  502    0 -0.00000000000E+00  0.00000000000E+00  0.40819130045E+03  0.40819130045E+03  0.00000000000E+00 0. -1.
         21   -1    0    0  501  502  0.00000000000E+00 -0.00000000000E+00 -0.95774717758E+01  0.95774717758E+01  0.00000000000E+00 0.  1.
         24    2    1    2    0    0 -0.14393606159E+01 -0.22293024508E+02  0.37901970021E+03  0.38805378323E+03  0.80191987326E+02 0.  0.
        -13    1    3    3    0    0  0.40241973774E+01 -0.17069420790E+01 -0.30886200373E+01  0.53523256187E+01  0.00000000000E+00 0.  1.
         14    1    3    3    0    0 -0.54635579932E+01 -0.20586082429E+02  0.38210832024E+03  0.38270145761E+03  0.00000000000E+00 0. -1.
          1    1    1    2  501    0  0.14393606159E+01  0.22293024508E+02  0.19594128462E+02  0.29714988993E+02  0.00000000000E+00 0. -1.
<mgrwt>
<rscale>  1 0.83245454E+02</rscale>
<asrwt>0</asrwt>
<pdfrwt beam="1">  1       21 0.14734575E-02 0.83245454E+02</pdfrwt>
<pdfrwt beam="2">  1        2 0.62798648E-01 0.83245454E+02</pdfrwt>
<totfact> 0.18091749E+06</totfact>
</mgrwt>
</event>
<event>
 6    2  0.9453093E+000  0.9830344E+02  0.7546771E-02  0.1283905E+00
         21   -1    0    0  501  502  0.00000000000E+00  0.00000000000E+00  0.19839416986E+01  0.19839416986E+01  0.00000000000E+00 0.  1.
          2   -1    0    0  502    0 -0.00000000000E+00 -0.00000000000E+00 -0.32992034945E+04  0.32992034945E+04  0.00000000000E+00 0. -1.
         24    2    1    2    0    0 -0.40198051001E+02 -0.39231774062E+02 -0.15840659674E+04  0.15871132772E+04  0.80675585925E+02 0.  0.
        -11    1    3    3    0    0 -0.59290037999E+02 -0.61600722405E+01 -0.88515958995E+03  0.88716444630E+03  0.00000000000E+00 0.  1.
         12    1    3    3    0    0  0.19091986998E+02 -0.33071701822E+02 -0.69890637746E+03  0.69994883091E+03  0.00000000000E+00 0. -1.
          1    1    1    2  501    0  0.40198051001E+02  0.39231774062E+02 -0.17131535854E+04  0.17140741590E+04  0.00000000000E+00 0. -1.
<mgrwt>
<rscale>  1 0.98303436E+02</rscale>
<asrwt>0</asrwt>
<pdfrwt beam="1">  1       21 0.30521906E-03 0.98303436E+02</pdfrwt>
<pdfrwt beam="2">  1        2 0.50757432E+00 0.98303436E+02</pdfrwt>
<totfact> 0.43861030E+05</totfact>
</mgrwt>
</event>
<event>
 6    2  0.9453093E+000  0.8896026E+02  0.7546771E-02  0.1305389E+00
          2   -1    0    0  502    0 -0.00000000000E+00  0.00000000000E+00  0.16120314953E+03  0.16120314953E+03  0.00000000000E+00 0. -1.
         21   -1    0    0  501  502  0.00000000000E+00 -0.00000000000E+00 -0.25276143520E+02  0.25276143520E+02  0.00000000000E+00 0.  1.
         24    2    1    2    0    0  0.26797927265E+01 -0.36575871412E+02  0.80243737168E+02  0.11980394462E+03  0.81049072383E+02 0.  0.
        -13    1    3    3    0    0 -0.15534713577E+02  0.22336064563E+02  0.22118442401E+02  0.35063550880E+02  0.00000000000E+00 0.  1.
         14    1    3    3    0    0  0.18214506303E+02 -0.58911935975E+02  0.58125294766E+02  0.84740393744E+02  0.00000000000E+00 0. -1.
          1    1    1    2  501    0 -0.26797927265E+01  0.36575871412E+02  0.55683268839E+02  0.66675348422E+02  0.00000000000E+00 0. -1.
<mgrwt>
<rscale>  1 0.88960260E+02</rscale>
<asrwt>0</asrwt>
<pdfrwt beam="1">  1       21 0.38886376E-02 0.88960260E+02</pdfrwt>
<pdfrwt beam="2">  1        2 0.24800484E-01 0.88960260E+02</pdfrwt>
<totfact> 0.10188922E+06</totfact>
</mgrwt>
</event>
<event>
 6    2  0.9453093E+000  0.8725424E+02  0.7546771E-02  0.1309641E+00
         21   -1    0    0  501  502  0.00000000000E+00  0.00000000000E+00  0.51243128653E+01  0.51243128653E+01  0.00000000000E+00 0. -1.
         -3   -1    0    0    0  501 -0.00000000000E+00 -0.00000000000E+00 -0.69617098593E+03  0.69617098593E+03  0.00000000000E+00 0.  1.
         24    2    1    2    0    0  0.13162600831E+02 -0.17014793290E+02 -0.63971808123E+03  0.64564117414E+03  0.84560895468E+02 0.  0.
        -11    1    3    3    0    0 -0.34786654855E+02 -0.18080361989E+02 -0.30224792511E+03  0.30477995190E+03  0.00000000000E+00 0.  1.
         12    1    3    3    0    0  0.47949255685E+02  0.10655686991E+01 -0.33747015612E+03  0.34086122224E+03  0.00000000000E+00 0. -1.
         -4    1    1    2    0  502 -0.13162600831E+02  0.17014793290E+02 -0.51328591836E+02  0.55654124656E+02  0.00000000000E+00 0.  1.
<mgrwt>
<rscale>  1 0.87254239E+02</rscale>
<asrwt>0</asrwt>
<pdfrwt beam="1">  1       21 0.78835606E-03 0.87254239E+02</pdfrwt>
<pdfrwt beam="2">  1       -3 0.10710320E+00 0.87254239E+02</pdfrwt>
<totfact> 0.18773782E+05</totfact>
</mgrwt>
</event>
<event>
 6    2  0.9453093E+000  0.8995327E+02  0.7546771E-02  0.1302965E+00
          2   -1    0    0  502    0 -0.00000000000E+00  0.00000000000E+00  0.24727920130E+03  0.24727920130E+03  0.00000000000E+00 0. -1.
         21   -1    0    0  501  502  0.00000000000E+00 -0.00000000000E+00 -0.21552684904E+02  0.21552684904E+02  0.00000000000E+00 0. -1.
         24    2    1    2    0    0 -0.14909659699E+02  0.36421826910E+02  0.20605530243E+03  0.22483411255E+03  0.80887224445E+02 0.  0.
        -11    1    3    3    0    0  0.13387487191E+02  0.90818492722E+01  0.11862156304E+01  0.16220724614E+02  0.00000000000E+00 0.  1.
         12    1    3    3    0    0 -0.28297146890E+02  0.27339977638E+02  0.20486908680E+03  0.20861338794E+03  0.00000000000E+00 0. -1.
          1    1    1    2  501    0  0.14909659699E+02 -0.36421826910E+02  0.19671213967E+02  0.43997773657E+02  0.00000000000E+00 0. -1.
<mgrwt>
<rscale>  1 0.89953268E+02</rscale>
<asrwt>0</asrwt>
<pdfrwt beam="1">  1       21 0.33157979E-02 0.89953268E+02</pdfrwt>
<pdfrwt beam="2">  1        2 0.38042952E-01 0.89953268E+02</pdfrwt>
<totfact> 0.83859811E+05</totfact>
</mgrwt>
</event>
<event>
 6    2  0.9453093E+000  0.8632543E+02  0.7546771E-02  0.1312002E+00
          2   -1    0    0  502    0 -0.00000000000E+00  0.00000000000E+00  0.19508043125E+04  0.19508043125E+04  0.00000000000E+00 0. -1.
         21   -1    0    0  501  502  0.00000000000E+00 -0.00000000000E+00 -0.69953739723E+01  0.69953739723E+01  0.00000000000E+00 0. -1.
         24    2    1    2    0    0 -0.25247303237E+02 -0.32942393300E+02  0.18780835476E+04  0.18800664593E+04  0.75693143383E+02 0.  0.
        -13    1    3    3    0    0 -0.26146806089E+02 -0.50538658486E+02  0.88540019737E+03  0.88722675849E+03  0.00000000000E+00 0.  1.
         14    1    3    3    0    0  0.89950285258E+00  0.17596265187E+02  0.99268335019E+03  0.99283970076E+03  0.00000000000E+00 0. -1.
          1    1    1    2  501    0  0.25247303237E+02  0.32942393300E+02  0.65725390938E+02  0.77733227201E+02  0.00000000000E+00 0. -1.
<mgrwt>
<rscale>  1 0.86325428E+02</rscale>
<asrwt>0</asrwt>
<pdfrwt beam="1">  1       21 0.10762129E-02 0.86325428E+02</pdfrwt>
<pdfrwt beam="2">  1        2 0.30012331E+00 0.86325428E+02</pdfrwt>
<totfact> 0.33772870E+05</totfact>
</mgrwt>
</event>
<event>
 6    2  0.9453093E+000  0.9292108E+02  0.7546771E-02  0.1295928E+00
         21   -1    0    0  501  502  0.00000000000E+00  0.00000000000E+00  0.22755473349E+03  0.22755473349E+03  0.00000000000E+00 0. -1.
          4   -1    0    0  502    0 -0.00000000000E+00 -0.00000000000E+00 -0.25597058917E+02  0.25597058917E+02  0.00000000000E+00 0. -1.
         24    2    1    2    0    0  0.44541791523E+02 -0.44007365211E+01  0.18157598913E+03  0.20397099559E+03  0.81430888119E+02 0.  0.
        -11    1    3    3    0    0  0.21465812007E+02 -0.42654185430E+02  0.83266695869E+02  0.95986995269E+02  0.00000000000E+00 0.  1.
         12    1    3    3    0    0  0.23075979515E+02  0.38253448909E+02  0.98309293261E+02  0.10798400032E+03  0.00000000000E+00 0. -1.
          3    1    1    2  501    0 -0.44541791523E+02  0.44007365211E+01  0.20381685445E+02  0.49180796817E+02  0.00000000000E+00 0. -1.
<mgrwt>
<rscale>  1 0.92921081E+02</rscale>
<asrwt>0</asrwt>
<pdfrwt beam="1">  1       21 0.35008419E-01 0.92921081E+02</pdfrwt>
<pdfrwt beam="2">  1        4 0.39380092E-02 0.92921081E+02</pdfrwt>
<totfact> 0.10583457E+05</totfact>
</mgrwt>
</event>
<event>
 6    2  0.9453093E+000  0.8347053E+02  0.7546771E-02  0.1319481E+00
          2   -1    0    0  502    0 -0.00000000000E+00  0.00000000000E+00  0.93496808685E+01  0.93496808685E+01  0.00000000000E+00 0. -1.
         21   -1    0    0  501  502  0.00000000000E+00 -0.00000000000E+00 -0.37325426354E+03  0.37325426354E+03  0.00000000000E+00 0. -1.
         24    2    1    2    0    0  0.31488106920E+01 -0.20531296850E+02 -0.34346594398E+03  0.35346312921E+03  0.80844788793E+02 0.  0.
        -11    1    3    3    0    0 -0.78139329202E+01  0.29024016879E+02 -0.17338509669E+03  0.17597114211E+03  0.00000000000E+00 0.  1.
         12    1    3    3    0    0  0.10962743612E+02 -0.49555313729E+02 -0.17008084730E+03  0.17749198710E+03  0.00000000000E+00 0. -1.
          1    1    1    2  501    0 -0.31488106920E+01  0.20531296850E+02 -0.20438638692E+02  0.29140815203E+02  0.00000000000E+00 0. -1.
<mgrwt>
<rscale>  1 0.83470528E+02</rscale>
<asrwt>0</asrwt>
<pdfrwt beam="1">  1       21 0.57423728E-01 0.83470528E+02</pdfrwt>
<pdfrwt beam="2">  1        2 0.14384126E-02 0.83470528E+02</pdfrwt>
<totfact> 0.27510263E+05</totfact>
</mgrwt>
</event>
<event>
 6    2  0.9453093E+000  0.8314097E+02  0.7546771E-02  0.1320367E+00
          2   -1    0    0  502    0 -0.00000000000E+00  0.00000000000E+00  0.22878410334E+03  0.22878410334E+03  0.00000000000E+00 0. -1.
         21   -1    0    0  501  502  0.00000000000E+00 -0.00000000000E+00 -0.13423507676E+02  0.13423507676E+02  0.00000000000E+00 0.  1.
         24    2    1    2    0    0 -0.13242455349E+02 -0.16776443419E+02  0.19773944789E+03  0.21450713220E+03  0.80346803532E+02 0.  0.
        -13    1    3    3    0    0 -0.45077592490E+02 -0.21168147277E+02  0.10179990879E+03  0.11332828964E+03  0.00000000000E+00 0.  1.
         14    1    3    3    0    0  0.31835137141E+02  0.43917038579E+01  0.95939539099E+02  0.10117884256E+03  0.00000000000E+00 0. -1.
          1    1    1    2  501    0  0.13242455349E+02  0.16776443419E+02  0.17621147774E+02  0.27700478811E+02  0.00000000000E+00 0. -1.
<mgrwt>
<rscale>  1 0.83140968E+02</rscale>
<asrwt>0</asrwt>
<pdfrwt beam="1">  1       21 0.20651552E-02 0.83140968E+02</pdfrwt>
<pdfrwt beam="2">  1        2 0.35197552E-01 0.83140968E+02</pdfrwt>
<totfact> 0.19375153E+06</totfact>
</mgrwt>
</event>
<event>
 6    2  0.9453093E+000  0.8783473E+02  0.7546771E-02  0.1308182E+00
         21   -1    0    0  501  502  0.00000000000E+00  0.00000000000E+00  0.27501941788E+02  0.27501941788E+02  0.00000000000E+00 0. -1.
          4   -1    0    0  502    0 -0.00000000000E+00 -0.00000000000E+00 -0.28831806088E+03  0.28831806088E+03  0.00000000000E+00 0. -1.
         24    2    1    2    0    0 -0.22646708935E+02  0.27161479304E+02 -0.26595551342E+03  0.28008440757E+03  0.80401000380E+02 0.  0.
        -13    1    3    3    0    0 -0.28350995625E+02 -0.11106813885E+02 -0.37165825587E+02  0.48046215868E+02  0.00000000000E+00 0.  1.
         14    1    3    3    0    0  0.57042866906E+01  0.38268293189E+02 -0.22878968783E+03  0.23203819170E+03  0.00000000000E+00 0. -1.
          3    1    1    2  501    0  0.22646708935E+02 -0.27161479304E+02  0.51393943203E+01  0.35735595105E+02  0.00000000000E+00 0. -1.
<mgrwt>
<rscale>  1 0.87834733E+02</rscale>
<asrwt>0</asrwt>
<pdfrwt beam="1">  1       21 0.42310678E-02 0.87834733E+02</pdfrwt>
<pdfrwt beam="2">  1        4 0.44356627E-01 0.87834733E+02</pdfrwt>
<totfact> 0.66630788E+04</totfact>
</mgrwt>
</event>
<event>
 6    2  0.9453093E+000  0.8681256E+02  0.7546771E-02  0.1310759E+00
         21   -1    0    0  501  502  0.00000000000E+00  0.00000000000E+00  0.86498029248E+01  0.86498029248E+01  0.00000000000E+00 0. -1.
          2   -1    0    0  502    0 -0.00000000000E+00 -0.00000000000E+00 -0.10526682676E+04  0.10526682676E+04  0.00000000000E+00 0. -1.
         24    2    1    2    0    0 -0.33837140166E+02 -0.11701459002E+02 -0.10034978649E+04  0.10072459409E+04  0.79085677546E+02 0.  0.
        -13    1    3    3    0    0  0.22925716658E+02  0.81578498491E+01 -0.19455265673E+03  0.19606854730E+03  0.00000000000E+00 0.  1.
         14    1    3    3    0    0 -0.56762856824E+02 -0.19859308851E+02 -0.80894520819E+03  0.81117739362E+03  0.00000000000E+00 0. -1.
          1    1    1    2  501    0  0.33837140166E+02  0.11701459002E+02 -0.40520599805E+02  0.54072129659E+02  0.00000000000E+00 0. -1.
<mgrwt>
<rscale>  1 0.86812560E+02</rscale>
<asrwt>0</asrwt>
<pdfrwt beam="1">  1       21 0.13307385E-02 0.86812560E+02</pdfrwt>
<pdfrwt beam="2">  1        2 0.16194901E+00 0.86812560E+02</pdfrwt>
<totfact> 0.70669816E+05</totfact>
</mgrwt>
</event>
<event>
 6    2  0.9453093E+000  0.8589683E+02  0.7546771E-02  0.1313104E+00
          2   -1    0    0  502    0 -0.00000000000E+00  0.00000000000E+00  0.18678249087E+04  0.18678249087E+04  0.00000000000E+00 0. -1.
         21   -1    0    0  501  502  0.00000000000E+00 -0.00000000000E+00 -0.74562883751E+01  0.74562883751E+01  0.00000000000E+00 0. -1.
         24    2    1    2    0    0 -0.26415514008E+02  0.13418330543E+02  0.18327967916E+04  0.18348085308E+04  0.80625272178E+02 0.  0.
        -13    1    3    3    0    0  0.22403877491E+02 -0.58830817105E+01  0.23252074753E+03  0.23367165513E+03  0.00000000000E+00 0.  1.
         14    1    3    3    0    0 -0.48819391499E+02  0.19301412254E+02  0.16002760440E+04  0.16011368757E+04  0.00000000000E+00 0. -1.
          1    1    1    2  501    0  0.26415514008E+02 -0.13418330543E+02  0.27571828753E+02  0.40472666279E+02  0.00000000000E+00 0. -1.
<mgrwt>
<rscale>  1 0.85896830E+02</rscale>
<asrwt>0</asrwt>
<pdfrwt beam="1">  1       21 0.11471228E-02 0.85896830E+02</pdfrwt>
<pdfrwt beam="2">  1        2 0.28735731E+00 0.85896830E+02</pdfrwt>
<totfact> 0.33621108E+05</totfact>
</mgrwt>
</event>
<event>
 6    2  0.9453093E+000  0.8607524E+02  0.7546771E-02  0.1312644E+00
          2   -1    0    0  502    0 -0.00000000000E+00  0.00000000000E+00  0.38103980039E+03  0.38103980039E+03  0.00000000000E+00 0. -1.
         21   -1    0    0  501  502  0.00000000000E+00 -0.00000000000E+00 -0.92856844136E+01  0.92856844136E+01  0.00000000000E+00 0.  1.
         24    2    1    2    0    0 -0.16708027182E+02  0.22236684108E+02  0.22384673513E+03  0.23982557916E+03  0.81457469238E+02 0.  0.
        -13    1    3    3    0    0  0.22980717685E+02  0.36710530864E+02  0.10014663767E+03  0.10911061130E+03  0.00000000000E+00 0.  1.
         14    1    3    3    0    0 -0.39688744866E+02 -0.14473846756E+02  0.12370009746E+03  0.13071496785E+03  0.00000000000E+00 0. -1.
          1    1    1    2  501    0  0.16708027182E+02 -0.22236684108E+02  0.14790738084E+03  0.15049990565E+03  0.00000000000E+00 0. -1.
<mgrwt>
<rscale>  1 0.86075244E+02</rscale>
<asrwt>0</asrwt>
<pdfrwt beam="1">  1       21 0.14285671E-02 0.86075244E+02</pdfrwt>
<pdfrwt beam="2">  1        2 0.58621496E-01 0.86075244E+02</pdfrwt>
<totfact> 0.20501594E+06</totfact>
</mgrwt>
</event>
<event>
 6    2  0.9453093E+000  0.8516241E+02  0.7546771E-02  0.1315008E+00
          2   -1    0    0  502    0 -0.00000000000E+00  0.00000000000E+00  0.21809556676E+04  0.21809556676E+04  0.00000000000E+00 0. -1.
         21   -1    0    0  501  502  0.00000000000E+00 -0.00000000000E+00 -0.84440624970E+01  0.84440624970E+01  0.00000000000E+00 0. -1.
         24    2    1    2    0    0 -0.17005080000E+02  0.11120445529E+02  0.21665523233E+04  0.21682254510E+04  0.82703082417E+02 0.  0.
        -11    1    3    3    0    0 -0.27243864514E+02  0.26231447871E+01  0.22933655198E+03  0.23096398663E+03  0.00000000000E+00 0.  1.
         12    1    3    3    0    0  0.10238784514E+02  0.84973007416E+01  0.19372157713E+04  0.19372614644E+04  0.00000000000E+00 0. -1.
          1    1    1    2  501    0  0.17005080000E+02 -0.11120445529E+02  0.59592818075E+01  0.21174279072E+02  0.00000000000E+00 0. -1.
<mgrwt>
<rscale>  1 0.85162415E+02</rscale>
<asrwt>0</asrwt>
<pdfrwt beam="1">  1       21 0.12990883E-02 0.85162415E+02</pdfrwt>
<pdfrwt beam="2">  1        2 0.33553119E+00 0.85162415E+02</pdfrwt>
<totfact> 0.19250573E+05</totfact>
</mgrwt>
</event>
<event>
 6    2  0.9453093E+000  0.9566977E+02  0.7546771E-02  0.1289675E+00
         -1   -1    0    0    0  501 -0.00000000000E+00  0.00000000000E+00  0.10169676085E+03  0.10169676085E+03  0.00000000000E+00 0.  1.
         21   -1    0    0  501  502  0.00000000000E+00 -0.00000000000E+00 -0.10724387724E+03  0.10724387724E+03  0.00000000000E+00 0.  1.
         24    2    1    2    0    0  0.33482121269E+02  0.25100797536E+02  0.72732604786E+02  0.12017793631E+03  0.86032564152E+02 0.  0.
        -11    1    3    3    0    0 -0.92873144117E+01  0.40720606860E+02  0.59621828005E+02  0.72795497160E+02  0.00000000000E+00 0.  1.
         12    1    3    3    0    0  0.42769435681E+02 -0.15619809324E+02  0.13110776780E+02  0.47382439147E+02  0.00000000000E+00 0. -1.
         -2    1    1    2    0  502 -0.33482121269E+02 -0.25100797536E+02 -0.78279721172E+02  0.88762701786E+02  0.00000000000E+00 0.  1.
<mgrwt>
<rscale>  1 0.95669768E+02</rscale>
<asrwt>0</asrwt>
<pdfrwt beam="1">  1       21 0.16499058E-01 0.95669768E+02</pdfrwt>
<pdfrwt beam="2">  1       -1 0.15645656E-01 0.95669768E+02</pdfrwt>
<totfact> 0.86475734E+04</totfact>
</mgrwt>
</event>
<event>
 6    2  0.1326353E+001  0.8619711E+02  0.7546771E-02  0.1312331E+00
         -3   -1    0    0    0  501 -0.00000000000E+00  0.00000000000E+00  0.58664176567E+03  0.58664176567E+03  0.00000000000E+00 0.  1.
         21   -1    0    0  501  502  0.00000000000E+00 -0.00000000000E+00 -0.83882052588E+01  0.83882052588E+01  0.00000000000E+00 0. -1.
         24    2    1    2    0    0 -0.23706142136E+02  0.13614232307E+02  0.22862786794E+03  0.24433715188E+03  0.81747252516E+02 0.  0.
        -11    1    3    3    0    0 -0.22456844555E+02  0.32398879839E+02  0.22021713445E+03  0.22371764255E+03  0.00000000000E+00 0.  1.
         12    1    3    3    0    0 -0.12492975815E+01 -0.18784647531E+02  0.84107334936E+01  0.20619509335E+02  0.00000000000E+00 0. -1.
         -4    1    1    2    0  502  0.23706142136E+02 -0.13614232307E+02  0.34962569246E+03  0.35069281904E+03  0.00000000000E+00 0.  1.
<mgrwt>
<rscale>  1 0.86197110E+02</rscale>
<asrwt>0</asrwt>
<pdfrwt beam="1">  1       21 0.12904936E-02 0.86197110E+02</pdfrwt>
<pdfrwt beam="2">  1       -3 0.90252547E-01 0.86197110E+02</pdfrwt>
<totfact> 0.12730980E+05</totfact>
</mgrwt>
</event>
<event>
 6    2  0.9453093E+000  0.9668660E+02  0.7546771E-02  0.1287422E+00
         21   -1    0    0  501  502  0.00000000000E+00  0.00000000000E+00  0.11992621721E+02  0.11992621721E+02  0.00000000000E+00 0.  1.
          2   -1    0    0  502    0 -0.00000000000E+00 -0.00000000000E+00 -0.54369836711E+03  0.54369836711E+03  0.00000000000E+00 0. -1.
         24    2    1    2    0    0 -0.37538487010E+02 -0.37374826366E+02 -0.43306204360E+03  0.44372404927E+03  0.80884378205E+02 0.  0.
        -13    1    3    3    0    0 -0.24788002039E+02 -0.43315184269E+02 -0.11513435980E+03  0.12548534193E+03  0.00000000000E+00 0.  1.
         14    1    3    3    0    0 -0.12750484971E+02  0.59403579035E+01 -0.31792768380E+03  0.31823870734E+03  0.00000000000E+00 0. -1.
          1    1    1    2  501    0  0.37538487010E+02  0.37374826366E+02 -0.98643701791E+02  0.11196693957E+03  0.00000000000E+00 0. -1.
<mgrwt>
<rscale>  1 0.96686598E+02</rscale>
<asrwt>0</asrwt>
<pdfrwt beam="1">  1       21 0.18450182E-02 0.96686598E+02</pdfrwt>
<pdfrwt beam="2">  1        2 0.83645926E-01 0.96686598E+02</pdfrwt>
<totfact> 0.94534903E+05</totfact>
</mgrwt>
</event>
<event>
 6    2  0.9453093E+000  0.8484395E+02  0.7546771E-02  0.1315841E+00
         21   -1    0    0  501  502  0.00000000000E+00  0.00000000000E+00  0.56960036912E+01  0.56960036912E+01  0.00000000000E+00 0. -1.
          2   -1    0    0  502    0 -0.00000000000E+00 -0.00000000000E+00 -0.13125856042E+04  0.13125856042E+04  0.00000000000E+00 0. -1.
         24    2    1    2    0    0  0.17065801581E+02  0.19439475146E+02 -0.12721140054E+04  0.12749402097E+04  0.80804461053E+02 0.  0.
        -11    1    3    3    0    0 -0.25815574307E+02  0.25449064504E+02 -0.36563565913E+03  0.36742827053E+03  0.00000000000E+00 0.  1.
         12    1    3    3    0    0  0.42881375888E+02 -0.60095893577E+01 -0.90647834624E+03  0.90751193919E+03  0.00000000000E+00 0. -1.
          1    1    1    2  501    0 -0.17065801581E+02 -0.19439475146E+02 -0.34775595105E+02  0.43341398137E+02  0.00000000000E+00 0. -1.
<mgrwt>
<rscale>  1 0.84843949E+02</rscale>
<asrwt>0</asrwt>
<pdfrwt beam="1">  1       21 0.87630856E-03 0.84843949E+02</pdfrwt>
<pdfrwt beam="2">  1        2 0.20193618E+00 0.84843949E+02</pdfrwt>
<totfact> 0.97860333E+05</totfact>
</mgrwt>
</event>
<event>
 6    2  0.9453093E+000  0.8305695E+02  0.7546771E-02  0.1320593E+00
         -3   -1    0    0    0  501 -0.00000000000E+00  0.00000000000E+00  0.42848915603E+03  0.42848915603E+03  0.00000000000E+00 0.  1.
         21   -1    0    0  501  502  0.00000000000E+00 -0.00000000000E+00 -0.29477037071E+02  0.29477037071E+02  0.00000000000E+00 0.  1.
         24    2    1    2    0    0  0.16152550962E+02 -0.14313941670E+02  0.41983774479E+03  0.42797451892E+03  0.80203884348E+02 0.  0.
        -13    1    3    3    0    0  0.80710831699E+01  0.20453571908E+02  0.33771313454E+03  0.33842820839E+03  0.00000000000E+00 0.  1.
         14    1    3    3    0    0  0.80814677921E+01 -0.34767513578E+02  0.82124610245E+02  0.89546310533E+02  0.00000000000E+00 0. -1.
         -4    1    1    2    0  502 -0.16152550962E+02  0.14313941670E+02 -0.20825625833E+02  0.29991674179E+02  0.00000000000E+00 0.  1.
<mgrwt>
<rscale>  1 0.83056950E+02</rscale>
<asrwt>0</asrwt>
<pdfrwt beam="1">  1       21 0.45349291E-02 0.83056950E+02</pdfrwt>
<pdfrwt beam="2">  1       -3 0.65921404E-01 0.83056950E+02</pdfrwt>
<totfact> 0.32722081E+04</totfact>
</mgrwt>
</event>
<event>
 6    2  0.9453093E+000  0.8140990E+02  0.7546771E-02  0.1325097E+00
         21   -1    0    0  501  502  0.00000000000E+00  0.00000000000E+00  0.29310254839E+02  0.29310254839E+02  0.00000000000E+00 0.  1.
          4   -1    0    0  502    0 -0.00000000000E+00 -0.00000000000E+00 -0.10559826084E+03  0.10559826084E+03  0.00000000000E+00 0. -1.
         24    2    1    2    0    0 -0.18344064261E+02  0.83489813719E+01 -0.80310649550E+02  0.11435634195E+03  0.78875613029E+02 0.  0.
        -13    1    3    3    0    0  0.27178945325E+02 -0.94728591204E+01 -0.14092923191E+02  0.32047474362E+02  0.00000000000E+00 0.  1.
         14    1    3    3    0    0 -0.45523009587E+02  0.17821840492E+02 -0.66217726358E+02  0.82308867593E+02  0.00000000000E+00 0. -1.
          3    1    1    2  501    0  0.18344064261E+02 -0.83489813719E+01  0.40226435514E+01  0.20552173722E+02  0.00000000000E+00 0. -1.
<mgrwt>
<rscale>  1 0.81409904E+02</rscale>
<asrwt>0</asrwt>
<pdfrwt beam="1">  1       21 0.45092700E-02 0.81409904E+02</pdfrwt>
<pdfrwt beam="2">  1        4 0.16245886E-01 0.81409904E+02</pdfrwt>
<totfact> 0.37868643E+05</totfact>
</mgrwt>
</event>
<event>
 6    2  0.9453093E+000  0.8308384E+02  0.7546771E-02  0.1320521E+00
         21   -1    0    0  501  502  0.00000000000E+00  0.00000000000E+00  0.11649197851E+03  0.11649197851E+03  0.00000000000E+00 0.  1.
         -1   -1    0    0    0  501 -0.00000000000E+00 -0.00000000000E+00 -0.44243912551E+02  0.44243912551E+02  0.00000000000E+00 0.  1.
         24    2    1    2    0    0 -0.13527214992E+02  0.16856672432E+02 -0.23022883507E+01  0.83115737244E+02  0.80223389950E+02 0.  0.
        -11    1    3    3    0    0  0.33854084188E+02  0.89975510325E+01  0.52315090392E-01  0.35029383062E+02  0.00000000000E+00 0.  1.
         12    1    3    3    0    0 -0.47381299180E+02  0.78591213991E+01 -0.23546034411E+01  0.48086354182E+02  0.00000000000E+00 0. -1.
         -2    1    1    2    0  502  0.13527214992E+02 -0.16856672432E+02  0.74550354312E+02  0.77620153819E+02  0.00000000000E+00 0.  1.
<mgrwt>
<rscale>  1 0.83083845E+02</rscale>
<asrwt>0</asrwt>
<pdfrwt beam="1">  1       21 0.17921843E-01 0.83083845E+02</pdfrwt>
<pdfrwt beam="2">  1       -1 0.68067558E-02 0.83083845E+02</pdfrwt>
<totfact> 0.25974436E+05</totfact>
</mgrwt>
</event>
<event>
 6    2  0.9453093E+000  0.9053947E+02  0.7546771E-02  0.1301551E+00
         21   -1    0    0  501  502  0.00000000000E+00  0.00000000000E+00  0.71886182908E+01  0.71886182908E+01  0.00000000000E+00 0. -1.
          2   -1    0    0  502    0 -0.00000000000E+00 -0.00000000000E+00 -0.15153789609E+04  0.15153789609E+04  0.00000000000E+00 0. -1.
         24    2    1    2    0    0  0.36706964076E+02  0.17507296188E+02 -0.14422887275E+04  0.14451277348E+04  0.80891839357E+02 0.  0.
        -11    1    3    3    0    0  0.18533175548E+02  0.31761270976E+02 -0.25735699697E+03  0.25997092303E+03  0.00000000000E+00 0.  1.
         12    1    3    3    0    0  0.18173788528E+02 -0.14253974788E+02 -0.11849317306E+04  0.11851568118E+04  0.00000000000E+00 0. -1.
          1    1    1    2  501    0 -0.36706964076E+02 -0.17507296188E+02 -0.65901615126E+02  0.77439844445E+02  0.00000000000E+00 0. -1.
<mgrwt>
<rscale>  1 0.90539474E+02</rscale>
<asrwt>0</asrwt>
<pdfrwt beam="1">  1       21 0.11059412E-02 0.90539474E+02</pdfrwt>
<pdfrwt beam="2">  1        2 0.23313524E+00 0.90539474E+02</pdfrwt>
<totfact> 0.53664091E+05</totfact>
</mgrwt>
</event>
<event>
 6    2  0.9453093E+000  0.8727207E+02  0.7546771E-02  0.1309596E+00
         21   -1    0    0  501  502  0.00000000000E+00  0.00000000000E+00  0.24454508369E+02  0.24454508369E+02  0.00000000000E+00 0. -1.
          4   -1    0    0  502    0 -0.00000000000E+00 -0.00000000000E+00 -0.50483614561E+03  0.50483614561E+03  0.00000000000E+00 0. -1.
         24    2    1    2    0    0  0.34721579716E+02  0.88264201186E+01 -0.48533930906E+03  0.49312337181E+03  0.79579652633E+02 0.  0.
        -13    1    3    3    0    0  0.31474364953E+02 -0.15861561992E+02 -0.85095725276E+02  0.92105956693E+02  0.00000000000E+00 0.  1.
         14    1    3    3    0    0  0.32472147623E+01  0.24687982111E+02 -0.40024358378E+03  0.40101741511E+03  0.00000000000E+00 0. -1.
          3    1    1    2  501    0 -0.34721579716E+02 -0.88264201186E+01  0.49576718160E+01  0.36167282174E+02  0.00000000000E+00 0. -1.
<mgrwt>
<rscale>  1 0.87272074E+02</rscale>
<asrwt>0</asrwt>
<pdfrwt beam="1">  1       21 0.37622323E-02 0.87272074E+02</pdfrwt>
<pdfrwt beam="2">  1        4 0.77667094E-01 0.87272074E+02</pdfrwt>
<totfact> 0.25271983E+04</totfact>
</mgrwt>
</event>
<event>
 6    2  0.9453093E+000  0.8955943E+02  0.7546771E-02  0.1303922E+00
         21   -1    0    0  501  502  0.00000000000E+00  0.00000000000E+00  0.44496800146E+01  0.44496800146E+01  0.00000000000E+00 0. -1.
          2   -1    0    0  502    0 -0.00000000000E+00 -0.00000000000E+00 -0.89058892971E+03  0.89058892971E+03  0.00000000000E+00 0. -1.
         24    2    1    2    0    0 -0.26290256543E+02  0.16236002454E+02 -0.75575020218E+03  0.76103827735E+03  0.84060134015E+02 0.  0.
        -13    1    3    3    0    0 -0.51843182990E+01  0.35451977295E+02 -0.13629060436E+03  0.14092142736E+03  0.00000000000E+00 0.  1.
         14    1    3    3    0    0 -0.21105938244E+02 -0.19215974841E+02 -0.61945959781E+03  0.62011684999E+03  0.00000000000E+00 0. -1.
          1    1    1    2  501    0  0.26290256543E+02 -0.16236002454E+02 -0.13038904752E+03  0.13400033238E+03  0.00000000000E+00 0. -1.
<mgrwt>
<rscale>  1 0.89559430E+02</rscale>
<asrwt>0</asrwt>
<pdfrwt beam="1">  1       21 0.68456693E-03 0.89559430E+02</pdfrwt>
<pdfrwt beam="2">  1        2 0.13701353E+00 0.89559430E+02</pdfrwt>
<totfact> 0.24954599E+06</totfact>
</mgrwt>
</event>
<event>
 6    2  0.9453093E+000  0.1009012E+03  0.7546771E-02  0.1278412E+00
         21   -1    0    0  501  502  0.00000000000E+00  0.00000000000E+00  0.31638949926E+03  0.31638949926E+03  0.00000000000E+00 0. -1.
         -1   -1    0    0    0  501 -0.00000000000E+00 -0.00000000000E+00 -0.30824637173E+02  0.30824637173E+02  0.00000000000E+00 0.  1.
         24    2    1    2    0    0 -0.10900796487E+01 -0.62077637380E+02  0.26208185605E+03  0.28083437363E+03  0.79537568536E+02 0.  0.
        -13    1    3    3    0    0  0.64301447547E+01 -0.52508877110E+02  0.66970748268E+02  0.85344068690E+02  0.00000000000E+00 0.  1.
         14    1    3    3    0    0 -0.75202244034E+01 -0.95687602701E+01  0.19511110778E+03  0.19549030494E+03  0.00000000000E+00 0. -1.
         -2    1    1    2    0  502  0.10900796487E+01  0.62077637380E+02  0.23483006037E+02  0.66379762796E+02  0.00000000000E+00 0.  1.
<mgrwt>
<rscale>  1 0.10090117E+03</rscale>
<asrwt>0</asrwt>
<pdfrwt beam="1">  1       21 0.48675305E-01 0.10090117E+03</pdfrwt>
<pdfrwt beam="2">  1       -1 0.47422521E-02 0.10090117E+03</pdfrwt>
<totfact> 0.66282246E+04</totfact>
</mgrwt>
</event>
<event>
 6    2  0.9453093E+000  0.8851274E+02  0.7546771E-02  0.1306494E+00
         21   -1    0    0  501  502  0.00000000000E+00  0.00000000000E+00  0.21212737734E+01  0.21212737734E+01  0.00000000000E+00 0.  1.
          2   -1    0    0  502    0 -0.00000000000E+00 -0.00000000000E+00 -0.16235410931E+04  0.16235410931E+04  0.00000000000E+00 0. -1.
         24    2    1    2    0    0  0.28450372483E+01  0.28716586397E+02 -0.12254492780E+04  0.12286417048E+04  0.83676574243E+02 0.  0.
        -13    1    3    3    0    0  0.21735533643E+02  0.12754407841E+02 -0.10733121975E+03  0.11025016588E+03  0.00000000000E+00 0.  1.
         14    1    3    3    0    0 -0.18890496395E+02  0.15962178556E+02 -0.11181180583E+04  0.11183915389E+04  0.00000000000E+00 0. -1.
          1    1    1    2  501    0 -0.28450372483E+01 -0.28716586397E+02 -0.39597054133E+03  0.39702066215E+03  0.00000000000E+00 0. -1.
<mgrwt>
<rscale>  1 0.88512743E+02</rscale>
<asrwt>0</asrwt>
<pdfrwt beam="1">  1       21 0.32634926E-03 0.88512743E+02</pdfrwt>
<pdfrwt beam="2">  1        2 0.24977597E+00 0.88512743E+02</pdfrwt>
<totfact> 0.30945871E+06</totfact>
</mgrwt>
</event>
<event>
 6    2  0.9453093E+000  0.8215534E+02  0.7546771E-02  0.1323044E+00
         21   -1    0    0  501  502  0.00000000000E+00  0.00000000000E+00  0.16043159059E+02  0.16043159059E+02  0.00000000000E+00 0. -1.
          2   -1    0    0  502    0 -0.00000000000E+00 -0.00000000000E+00 -0.37536809105E+03  0.37536809105E+03  0.00000000000E+00 0. -1.
         24    2    1    2    0    0 -0.23845297881E+02 -0.37692825905E+01 -0.35792139235E+03  0.36722911526E+03  0.78528302385E+02 0.  0.
        -13    1    3    3    0    0  0.17523090089E+01  0.34867729552E+02 -0.12753469422E+03  0.13222680281E+03  0.00000000000E+00 0.  1.
         14    1    3    3    0    0 -0.25597606890E+02 -0.38637012143E+02 -0.23038669812E+03  0.23500231245E+03  0.00000000000E+00 0. -1.
          1    1    1    2  501    0  0.23845297881E+02  0.37692825905E+01 -0.14035396476E+01  0.24182134848E+02  0.00000000000E+00 0. -1.
<mgrwt>
<rscale>  1 0.82155341E+02</rscale>
<asrwt>0</asrwt>
<pdfrwt beam="1">  1       21 0.24681783E-02 0.82155341E+02</pdfrwt>
<pdfrwt beam="2">  1        2 0.57748937E-01 0.82155341E+02</pdfrwt>
<totfact> 0.86687341E+05</totfact>
</mgrwt>
</event>
<event>
 6    2  0.9453093E+000  0.8436933E+02  0.7546771E-02  0.1317090E+00
          2   -1    0    0  502    0 -0.00000000000E+00  0.00000000000E+00  0.14805816242E+04  0.14805816242E+04  0.00000000000E+00 0. -1.
         21   -1    0    0  501  502  0.00000000000E+00 -0.00000000000E+00 -0.19922357248E+01  0.19922357248E+01  0.00000000000E+00 0.  1.
         24    2    1    2    0    0 -0.13389478971E+02  0.19653234341E+02  0.12071441269E+04  0.12100888919E+04  0.80948473898E+02 0.  0.
        -13    1    3    3    0    0 -0.61893072148E+01  0.22967939793E+02  0.95547223901E+02  0.98463728232E+02  0.00000000000E+00 0.  1.
         14    1    3    3    0    0 -0.72001717566E+01 -0.33147054528E+01  0.11115969030E+04  0.11116251637E+04  0.00000000000E+00 0. -1.
          1    1    1    2  501    0  0.13389478971E+02 -0.19653234341E+02  0.27144526156E+03  0.27248496801E+03  0.00000000000E+00 0. -1.
<mgrwt>
<rscale>  1 0.84369326E+02</rscale>
<asrwt>0</asrwt>
<pdfrwt beam="1">  1       21 0.30649899E-03 0.84369326E+02</pdfrwt>
<pdfrwt beam="2">  1        2 0.22778091E+00 0.84369326E+02</pdfrwt>
<totfact> 0.40031412E+06</totfact>
</mgrwt>
</event>
<event>
 6    2  0.9453093E+000  0.8485828E+02  0.7546771E-02  0.1315804E+00
         21   -1    0    0  501  502  0.00000000000E+00  0.00000000000E+00  0.35159639742E+02  0.35159639742E+02  0.00000000000E+00 0.  1.
          2   -1    0    0  502    0 -0.00000000000E+00 -0.00000000000E+00 -0.94032422310E+02  0.94032422310E+02  0.00000000000E+00 0. -1.
         24    2    1    2    0    0 -0.41682491958E+01 -0.28886705237E+02 -0.50834240387E+02  0.98919397796E+02  0.79681310379E+02 0.  0.
        -13    1    3    3    0    0  0.27171283876E+02 -0.10997397428E+02  0.75628279216E+01  0.30272393097E+02  0.00000000000E+00 0.  1.
         14    1    3    3    0    0 -0.31339533072E+02 -0.17889307809E+02 -0.58397068308E+02  0.68647004698E+02  0.00000000000E+00 0. -1.
          1    1    1    2  501    0  0.41682491958E+01  0.28886705237E+02 -0.80385421807E+01  0.30272664256E+02  0.00000000000E+00 0. -1.
<mgrwt>
<rscale>  1 0.84858278E+02</rscale>
<asrwt>0</asrwt>
<pdfrwt beam="1">  1       21 0.54091754E-02 0.84858278E+02</pdfrwt>
<pdfrwt beam="2">  1        2 0.14466526E-01 0.84858278E+02</pdfrwt>
<totfact> 0.10749282E+06</totfact>
</mgrwt>
</event>
<event>
 6    2  0.9453093E+000  0.9647478E+02  0.7546771E-02  0.1287889E+00
         21   -1    0    0  501  502  0.00000000000E+00  0.00000000000E+00  0.25695259356E+03  0.25695259356E+03  0.00000000000E+00 0. -1.
         -1   -1    0    0    0  501 -0.00000000000E+00 -0.00000000000E+00 -0.22117270387E+02  0.22117270387E+02  0.00000000000E+00 0.  1.
         24    2    1    2    0    0 -0.13179002116E+02  0.52573766391E+02  0.15513038604E+03  0.18268229207E+03  0.79810376223E+02 0.  0.
        -13    1    3    3    0    0  0.20783351403E+02  0.28854487821E+02  0.18854925910E+02  0.40249688124E+02  0.00000000000E+00 0.  1.
         14    1    3    3    0    0 -0.33962353520E+02  0.23719278570E+02  0.13627546013E+03  0.14243260395E+03  0.00000000000E+00 0. -1.
         -2    1    1    2    0  502  0.13179002116E+02 -0.52573766391E+02  0.79704937129E+02  0.96387571875E+02  0.00000000000E+00 0.  1.
<mgrwt>
<rscale>  1 0.96474780E+02</rscale>
<asrwt>0</asrwt>
<pdfrwt beam="1">  1       21 0.39531166E-01 0.96474780E+02</pdfrwt>
<pdfrwt beam="2">  1       -1 0.34026572E-02 0.96474780E+02</pdfrwt>
<totfact> 0.16284241E+05</totfact>
</mgrwt>
</event>
<event>
 6    2  0.9453093E+000  0.8662850E+02  0.7546771E-02  0.1311228E+00
         21   -1    0    0  501  502  0.00000000000E+00  0.00000000000E+00  0.13943020147E+02  0.13943020147E+02  0.00000000000E+00 0. -1.
          2   -1    0    0  502    0 -0.00000000000E+00 -0.00000000000E+00 -0.76297762678E+03  0.76297762678E+03  0.00000000000E+00 0. -1.
         24    2    1    2    0    0 -0.23445858090E+02  0.34431238078E+02 -0.72218335890E+03  0.72736050243E+03  0.75955764841E+02 0.  0.
        -11    1    3    3    0    0  0.57926886278E+01  0.30326132998E+02 -0.10433978658E+03  0.10881185895E+03  0.00000000000E+00 0.  1.
         12    1    3    3    0    0 -0.29238546718E+02  0.41051050802E+01 -0.61784357232E+03  0.61854864348E+03  0.00000000000E+00 0. -1.
          1    1    1    2  501    0  0.23445858090E+02 -0.34431238078E+02 -0.26851247730E+02  0.49560144490E+02  0.00000000000E+00 0. -1.
<mgrwt>
<rscale>  1 0.86628498E+02</rscale>
<asrwt>0</asrwt>
<pdfrwt beam="1">  1       21 0.21450793E-02 0.86628498E+02</pdfrwt>
<pdfrwt beam="2">  1        2 0.11738121E+00 0.86628498E+02</pdfrwt>
<totfact> 0.50000188E+05</totfact>
</mgrwt>
</event>
<event>
 6    2  0.9453093E+000  0.1212924E+03  0.7546771E-02  0.1240980E+00
         21   -1    0    0  501  502  0.00000000000E+00  0.00000000000E+00  0.75939476216E+01  0.75939476216E+01  0.00000000000E+00 0.  1.
          2   -1    0    0  502    0 -0.00000000000E+00 -0.00000000000E+00 -0.14979584365E+04  0.14979584365E+04  0.00000000000E+00 0. -1.
         24    2    1    2    0    0 -0.72674121331E+02  0.55892128872E+02 -0.80654158580E+03  0.81561092229E+03  0.79412775741E+02 0.  0.
        -11    1    3    3    0    0 -0.65322378065E+02  0.48004231382E+02 -0.36313186854E+03  0.37207011874E+03  0.00000000000E+00 0.  1.
         12    1    3    3    0    0 -0.73517432654E+01  0.78878974894E+01 -0.44340971726E+03  0.44354080355E+03  0.00000000000E+00 0. -1.
          1    1    1    2  501    0  0.72674121331E+02 -0.55892128872E+02 -0.68382290304E+03  0.68994146179E+03  0.00000000000E+00 0. -1.
<mgrwt>
<rscale>  1 0.12129240E+03</rscale>
<asrwt>0</asrwt>
<pdfrwt beam="1">  1       21 0.11683001E-02 0.12129240E+03</pdfrwt>
<pdfrwt beam="2">  1        2 0.23045506E+00 0.12129240E+03</pdfrwt>
<totfact> 0.50862315E+05</totfact>
</mgrwt>
</event>
<event>
 6    2  0.9453093E+000  0.8791625E+02  0.7546771E-02  0.1307978E+00
         21   -1    0    0  501  502  0.00000000000E+00  0.00000000000E+00  0.14734821103E+01  0.14734821103E+01  0.00000000000E+00 0. -1.
          2   -1    0    0  502    0 -0.00000000000E+00 -0.00000000000E+00 -0.26496185920E+04  0.26496185920E+04  0.00000000000E+00 0. -1.
         24    2    1    2    0    0  0.34503652408E+02  0.11220584808E+02 -0.20014243723E+04  0.20033543834E+04  0.80080358721E+02 0.  0.
        -13    1    3    3    0    0  0.35090779561E+02  0.38516267913E+02 -0.84323339718E+03  0.84484165843E+03  0.00000000000E+00 0.  1.
         14    1    3    3    0    0 -0.58712715318E+00 -0.27295683105E+02 -0.11581909751E+04  0.11585127250E+04  0.00000000000E+00 0. -1.
          1    1    1    2  501    0 -0.34503652408E+02 -0.11220584808E+02 -0.64672073756E+03  0.64773769069E+03  0.00000000000E+00 0. -1.
<mgrwt>
<rscale>  1 0.87916252E+02</rscale>
<asrwt>0</asrwt>
<pdfrwt beam="1">  1       21 0.22668816E-03 0.87916252E+02</pdfrwt>
<pdfrwt beam="2">  1        2 0.40763615E+00 0.87916252E+02</pdfrwt>
<totfact> 0.16052859E+06</totfact>
</mgrwt>
</event>
<event>
 6    2  0.9453093E+000  0.8613473E+02  0.7546771E-02  0.1312492E+00
         21   -1    0    0  501  502  0.00000000000E+00  0.00000000000E+00  0.33942572874E+02  0.33942572874E+02  0.00000000000E+00 0. -1.
          2   -1    0    0  502    0 -0.00000000000E+00 -0.00000000000E+00 -0.15241822945E+03  0.15241822945E+03  0.00000000000E+00 0. -1.
         24    2    1    2    0    0 -0.25007221832E+02 -0.12257893781E+02 -0.13022515896E+03  0.15613386219E+03  0.81508121026E+02 0.  0.
        -13    1    3    3    0    0  0.18095443259E+02  0.22817362336E+02 -0.58991968549E+02  0.65788520609E+02  0.00000000000E+00 0.  1.
         14    1    3    3    0    0 -0.43102665091E+02 -0.35075256117E+02 -0.71233190412E+02  0.90345341584E+02  0.00000000000E+00 0. -1.
          1    1    1    2  501    0  0.25007221832E+02  0.12257893781E+02  0.11749502381E+02  0.30226940135E+02  0.00000000000E+00 0. -1.
<mgrwt>
<rscale>  1 0.86134725E+02</rscale>
<asrwt>0</asrwt>
<pdfrwt beam="1">  1       21 0.52219343E-02 0.86134725E+02</pdfrwt>
<pdfrwt beam="2">  1        2 0.23448958E-01 0.86134725E+02</pdfrwt>
<totfact> 0.66280236E+05</totfact>
</mgrwt>
</event>
<event>
 6    2  0.9453093E+000  0.8330868E+02  0.7546771E-02  0.1319916E+00
         21   -1    0    0  501  502  0.00000000000E+00  0.00000000000E+00  0.59031253269E+02  0.59031253269E+02  0.00000000000E+00 0. -1.
          4   -1    0    0  502    0 -0.00000000000E+00 -0.00000000000E+00 -0.13911190386E+03  0.13911190386E+03  0.00000000000E+00 0. -1.
         24    2    1    2    0    0  0.19997416970E+02 -0.57653462268E+01 -0.12408982089E+03  0.14946109705E+03  0.80667217509E+02 0.  0.
        -13    1    3    3    0    0  0.47990777699E+02  0.11829131500E+02 -0.63868826809E+02  0.80760572894E+02  0.00000000000E+00 0.  1.
         14    1    3    3    0    0 -0.27993360729E+02 -0.17594477726E+02 -0.60220994083E+02  0.68700524159E+02  0.00000000000E+00 0. -1.
          3    1    1    2  501    0 -0.19997416970E+02  0.57653462268E+01  0.44009170301E+02  0.48682060075E+02  0.00000000000E+00 0. -1.
<mgrwt>
<rscale>  1 0.83308678E+02</rscale>
<asrwt>0</asrwt>
<pdfrwt beam="1">  1       21 0.90817314E-02 0.83308678E+02</pdfrwt>
<pdfrwt beam="2">  1        4 0.21401831E-01 0.83308678E+02</pdfrwt>
<totfact> 0.71966776E+04</totfact>
</mgrwt>
</event>
<event>
 6    2  0.9453093E+000  0.8915806E+02  0.7546771E-02  0.1304903E+00
         21   -1    0    0  501  502  0.00000000000E+00  0.00000000000E+00  0.45350101768E+01  0.45350101768E+01  0.00000000000E+00 0.  1.
          2   -1    0    0  502    0 -0.00000000000E+00 -0.00000000000E+00 -0.76149878004E+03  0.76149878004E+03  0.00000000000E+00 0. -1.
         24    2    1    2    0    0 -0.93907598475E+01 -0.21614758525E+02 -0.67102773836E+03  0.67692494853E+03  0.85987069576E+02 0.  0.
        -11    1    3    3    0    0 -0.28794467143E+02 -0.20620081576E+02 -0.10999926370E+03  0.11556014502E+03  0.00000000000E+00 0.  1.
         12    1    3    3    0    0  0.19403707296E+02 -0.99467694913E+00 -0.56102847466E+03  0.56136480351E+03  0.00000000000E+00 0. -1.
          1    1    1    2  501    0  0.93907598475E+01  0.21614758525E+02 -0.85936031503E+02  0.89108841689E+02  0.00000000000E+00 0. -1.
<mgrwt>
<rscale>  1 0.89158064E+02</rscale>
<asrwt>0</asrwt>
<pdfrwt beam="1">  1       21 0.69769379E-03 0.89158064E+02</pdfrwt>
<pdfrwt beam="2">  1        2 0.11715367E+00 0.89158064E+02</pdfrwt>
<totfact> 0.29390046E+06</totfact>
</mgrwt>
</event>
<event>
 6    2  0.9453093E+000  0.8814131E+02  0.7546771E-02  0.1307416E+00
         21   -1    0    0  501  502  0.00000000000E+00  0.00000000000E+00  0.28847860132E+01  0.28847860132E+01  0.00000000000E+00 0.  1.
          2   -1    0    0  502    0 -0.00000000000E+00 -0.00000000000E+00 -0.15296154555E+04  0.15296154555E+04  0.00000000000E+00 0. -1.
         24    2    1    2    0    0 -0.11236099272E+02  0.33454932997E+02 -0.78546400477E+03  0.79039394812E+03  0.80767617098E+02 0.  0.
        -13    1    3    3    0    0 -0.32634855046E+02  0.47431468601E+02 -0.40492620711E+03  0.40899879118E+03  0.00000000000E+00 0.  1.
         14    1    3    3    0    0  0.21398755774E+02 -0.13976535604E+02 -0.38053779766E+03  0.38139515695E+03  0.00000000000E+00 0. -1.
          1    1    1    2  501    0  0.11236099272E+02 -0.33454932997E+02 -0.74126666468E+03  0.74210629336E+03  0.00000000000E+00 0. -1.
<mgrwt>
<rscale>  1 0.88141309E+02</rscale>
<asrwt>0</asrwt>
<pdfrwt beam="1">  1       21 0.44381395E-03 0.88141309E+02</pdfrwt>
<pdfrwt beam="2">  1        2 0.23532508E+00 0.88141309E+02</pdfrwt>
<totfact> 0.21624254E+06</totfact>
</mgrwt>
</event>
<event>
 6    2  0.9453093E+000  0.8823075E+02  0.7546771E-02  0.1307194E+00
          2   -1    0    0  502    0 -0.00000000000E+00  0.00000000000E+00  0.35088240595E+04  0.35088240595E+04  0.00000000000E+00 0. -1.
         21   -1    0    0  501  502  0.00000000000E+00 -0.00000000000E+00 -0.12942850897E+01  0.12942850897E+01  0.00000000000E+00 0.  1.
         24    2    1    2    0    0  0.29830472994E+02 -0.18667588046E+02  0.17374547403E+04  0.17396935474E+04  0.80909384312E+02 0.  0.
        -11    1    3    3    0    0  0.36214623984E+02 -0.23942919575E+02  0.42479354624E+03  0.42700622866E+03  0.00000000000E+00 0.  1.
         12    1    3    3    0    0 -0.63841509901E+01  0.52753315293E+01  0.13126611940E+04  0.13126873188E+04  0.00000000000E+00 0. -1.
          1    1    1    2  501    0 -0.29830472994E+02  0.18667588046E+02  0.17700750342E+04  0.17704247972E+04  0.00000000000E+00 0. -1.
<mgrwt>
<rscale>  1 0.88230745E+02</rscale>
<asrwt>0</asrwt>
<pdfrwt beam="1">  1       21 0.19912359E-03 0.88230745E+02</pdfrwt>
<pdfrwt beam="2">  1        2 0.53981147E+00 0.88230745E+02</pdfrwt>
<totfact> 0.61811895E+05</totfact>
</mgrwt>
</event>
<event>
 6    2  0.9453093E+000  0.8778649E+02  0.7546771E-02  0.1308302E+00
          2   -1    0    0  502    0 -0.00000000000E+00  0.00000000000E+00  0.11308334888E+04  0.11308334888E+04  0.00000000000E+00 0. -1.
         21   -1    0    0  501  502  0.00000000000E+00 -0.00000000000E+00 -0.34304758719E+01  0.34304758719E+01  0.00000000000E+00 0. -1.
         24    2    1    2    0    0 -0.10997452133E+02  0.17396811294E+02  0.10637527316E+04  0.10673688878E+04  0.85339765988E+02 0.  0.
        -13    1    3    3    0    0  0.35185681193E+02  0.13658276998E+01  0.30131401973E+03  0.30336452682E+03  0.00000000000E+00 0.  1.
         14    1    3    3    0    0 -0.46183133326E+02  0.16030983594E+02  0.76243871186E+03  0.76400436097E+03  0.00000000000E+00 0. -1.
          1    1    1    2  501    0  0.10997452133E+02 -0.17396811294E+02  0.63650281328E+02  0.66895076872E+02  0.00000000000E+00 0. -1.
<mgrwt>
<rscale>  1 0.87786495E+02</rscale>
<asrwt>0</asrwt>
<pdfrwt beam="1">  1       21 0.52776642E-03 0.87786495E+02</pdfrwt>
<pdfrwt beam="2">  1        2 0.17397409E+00 0.87786495E+02</pdfrwt>
<totfact> 0.26899564E+06</totfact>
</mgrwt>
</event>
<event>
 6    2  0.9453093E+000  0.1161169E+03  0.7546771E-02  0.1249644E+00
         21   -1    0    0  501  502  0.00000000000E+00  0.00000000000E+00  0.24056529187E+03  0.24056529187E+03  0.00000000000E+00 0.  1.
         -1   -1    0    0    0  501 -0.00000000000E+00 -0.00000000000E+00 -0.51004171197E+02  0.51004171197E+02  0.00000000000E+00 0.  1.
         24    2    1    2    0    0  0.77581627868E+02 -0.34318884494E+02  0.46162339392E+02  0.12495642250E+03  0.79287143529E+02 0.  0.
        -11    1    3    3    0    0  0.61904353709E+02  0.87348373220E+01  0.48429181570E+02  0.79081173605E+02  0.00000000000E+00 0.  1.
         12    1    3    3    0    0  0.15677274160E+02 -0.43053721816E+02 -0.22668421788E+01  0.45875248890E+02  0.00000000000E+00 0. -1.
         -2    1    1    2    0  502 -0.77581627868E+02  0.34318884494E+02  0.14339878128E+03  0.16661304057E+03  0.00000000000E+00 0.  1.
<mgrwt>
<rscale>  1 0.11611695E+03</rscale>
<asrwt>0</asrwt>
<pdfrwt beam="1">  1       21 0.37010044E-01 0.11611695E+03</pdfrwt>
<pdfrwt beam="2">  1       -1 0.78467957E-02 0.11611695E+03</pdfrwt>
<totfact> 0.54762117E+04</totfact>
</mgrwt>
</event>
<event>
 6    2  0.9453093E+000  0.8220296E+02  0.7546771E-02  0.1322914E+00
         21   -1    0    0  501  502  0.00000000000E+00  0.00000000000E+00  0.12109261062E+02  0.12109261062E+02  0.00000000000E+00 0.  1.
          2   -1    0    0  502    0 -0.00000000000E+00 -0.00000000000E+00 -0.22068685189E+03  0.22068685189E+03  0.00000000000E+00 0. -1.
         24    2    1    2    0    0 -0.19591229611E+02  0.56472494163E+01 -0.15459082837E+03  0.17508755012E+03  0.79634278337E+02 0.  0.
        -13    1    3    3    0    0 -0.15996145255E+02  0.95658727191E+01  0.16914719374E+01  0.18714797921E+02  0.00000000000E+00 0.  1.
         14    1    3    3    0    0 -0.35950843560E+01 -0.39186233028E+01 -0.15628230031E+03  0.15637275220E+03  0.00000000000E+00 0. -1.
          1    1    1    2  501    0  0.19591229611E+02 -0.56472494163E+01 -0.53986762454E+02  0.57708562830E+02  0.00000000000E+00 0. -1.
<mgrwt>
<rscale>  1 0.82202956E+02</rscale>
<asrwt>0</asrwt>
<pdfrwt beam="1">  1       21 0.18629635E-02 0.82202956E+02</pdfrwt>
<pdfrwt beam="2">  1        2 0.33951818E-01 0.82202956E+02</pdfrwt>
<totfact> 0.23685408E+06</totfact>
</mgrwt>
</event>
<event>
 6    2  0.9453093E+000  0.8639969E+02  0.7546771E-02  0.1311812E+00
          2   -1    0    0  502    0 -0.00000000000E+00  0.00000000000E+00  0.22740199753E+04  0.22740199753E+04  0.00000000000E+00 0. -1.
         21   -1    0    0  501  502  0.00000000000E+00 -0.00000000000E+00 -0.46807515191E+01  0.46807515191E+01  0.00000000000E+00 0.  1.
         24    2    1    2    0    0 -0.34904867007E+02 -0.30131076215E+01  0.40874632675E+03  0.41777801025E+03  0.78977703557E+02 0.  0.
        -11    1    3    3    0    0 -0.15390168736E+02  0.22524104658E+02  0.45060942667E+02  0.52675242177E+02  0.00000000000E+00 0.  1.
         12    1    3    3    0    0 -0.19514698272E+02 -0.25537212280E+02  0.36368538408E+03  0.36510276807E+03  0.00000000000E+00 0. -1.
          1    1    1    2  501    0  0.34904867007E+02  0.30131076215E+01  0.18605928971E+04  0.18609227166E+04  0.00000000000E+00 0. -1.
<mgrwt>
<rscale>  1 0.86399689E+02</rscale>
<asrwt>0</asrwt>
<pdfrwt beam="1">  1       21 0.72011744E-03 0.86399689E+02</pdfrwt>
<pdfrwt beam="2">  1        2 0.34984834E+00 0.86399689E+02</pdfrwt>
<totfact> 0.43332307E+05</totfact>
</mgrwt>
</event>
<event>
 6    2  0.9453093E+000  0.8716805E+02  0.7546771E-02  0.1309858E+00
          2   -1    0    0  502    0 -0.00000000000E+00  0.00000000000E+00  0.17884198258E+04  0.17884198258E+04  0.00000000000E+00 0. -1.
         21   -1    0    0  501  502  0.00000000000E+00 -0.00000000000E+00 -0.83800920699E+01  0.83800920699E+01  0.00000000000E+00 0. -1.
         24    2    1    2    0    0  0.14321718642E+02  0.30129601587E+02  0.17491941874E+04  0.17513647746E+04  0.80531757028E+02 0.  0.
        -11    1    3    3    0    0  0.45158973990E+02  0.22010297460E+02  0.76111136143E+03  0.76276752070E+03  0.00000000000E+00 0.  1.
         12    1    3    3    0    0 -0.30837255348E+02  0.81193041271E+01  0.98808282595E+03  0.98859725387E+03  0.00000000000E+00 0. -1.
          1    1    1    2  501    0 -0.14321718642E+02 -0.30129601587E+02  0.30845546307E+02  0.45435143267E+02  0.00000000000E+00 0. -1.
<mgrwt>
<rscale>  1 0.87168047E+02</rscale>
<asrwt>0</asrwt>
<pdfrwt beam="1">  1       21 0.12892464E-02 0.87168047E+02</pdfrwt>
<pdfrwt beam="2">  1        2 0.27514121E+00 0.87168047E+02</pdfrwt>
<totfact> 0.30676846E+05</totfact>
</mgrwt>
</event>
<event>
 6    2  0.9453093E+000  0.8287751E+02  0.7546771E-02  0.1321078E+00
          2   -1    0    0  502    0 -0.00000000000E+00  0.00000000000E+00  0.14858843860E+04  0.14858843860E+04  0.00000000000E+00 0. -1.
         21   -1    0    0  501  502  0.00000000000E+00 -0.00000000000E+00 -0.18201783325E+01  0.18201783325E+01  0.00000000000E+00 0.  1.
         24    2    1    2    0    0  0.92726531933E+01  0.18460636297E+02  0.11269851884E+04  0.11300284494E+04  0.80261475181E+02 0.  0.
        -11    1    3    3    0    0 -0.14166041608E+02  0.27045778138E+02  0.17013560585E+03  0.17285333445E+03  0.00000000000E+00 0.  1.
         12    1    3    3    0    0  0.23438694801E+02 -0.85851418412E+01  0.95684958251E+03  0.95717511492E+03  0.00000000000E+00 0. -1.
          1    1    1    2  501    0 -0.92726531933E+01 -0.18460636297E+02  0.35707901930E+03  0.35767611497E+03  0.00000000000E+00 0. -1.
<mgrwt>
<rscale>  1 0.82877510E+02</rscale>
<asrwt>0</asrwt>
<pdfrwt beam="1">  1       21 0.28002862E-03 0.82877510E+02</pdfrwt>
<pdfrwt beam="2">  1        2 0.22859663E+00 0.82877510E+02</pdfrwt>
<totfact> 0.45511058E+06</totfact>
</mgrwt>
</event>
<event>
 6    2  0.9453093E+000  0.8412331E+02  0.7546771E-02  0.1317741E+00
         21   -1    0    0  501  502  0.00000000000E+00  0.00000000000E+00  0.13409721477E+02  0.13409721477E+02  0.00000000000E+00 0. -1.
         -3   -1    0    0    0  501 -0.00000000000E+00 -0.00000000000E+00 -0.22788249167E+03  0.22788249167E+03  0.00000000000E+00 0.  1.
         24    2    1    2    0    0  0.12819020883E+01  0.26101687875E+02 -0.15573165666E+03  0.17700022452E+03  0.79961173143E+02 0.  0.
        -11    1    3    3    0    0 -0.23753845364E+02  0.93587855292E+01 -0.14132679530E+03  0.14361439728E+03  0.00000000000E+00 0.  1.
         12    1    3    3    0    0  0.25035747453E+02  0.16742902346E+02 -0.14404861358E+02  0.33385827236E+02  0.00000000000E+00 0. -1.
         -4    1    1    2    0  502 -0.12819020883E+01 -0.26101687875E+02 -0.58741113529E+02  0.64291988626E+02  0.00000000000E+00 0.  1.
<mgrwt>
<rscale>  1 0.84123306E+02</rscale>
<asrwt>0</asrwt>
<pdfrwt beam="1">  1       21 0.20630342E-02 0.84123306E+02</pdfrwt>
<pdfrwt beam="2">  1       -3 0.35058842E-01 0.84123306E+02</pdfrwt>
<totfact> 0.40722207E+05</totfact>
</mgrwt>
</event>
<event>
 6    2  0.1236776E+001  0.8301896E+02  0.7546771E-02  0.1320696E+00
         21   -1    0    0  501  502  0.00000000000E+00  0.00000000000E+00  0.60608387954E+01  0.60608387954E+01  0.00000000000E+00 0. -1.
         -1   -1    0    0    0  501 -0.00000000000E+00 -0.00000000000E+00 -0.45062677736E+03  0.45062677736E+03  0.00000000000E+00 0.  1.
         24    2    1    2    0    0  0.15314577863E+02  0.13467082679E+02 -0.38061210276E+03  0.38956093201E+03  0.80475141290E+02 0.  0.
        -13    1    3    3    0    0  0.18219779126E+02  0.91392346280E+01 -0.38319971876E+03  0.38374146299E+03  0.00000000000E+00 0.  1.
         14    1    3    3    0    0 -0.29052012632E+01  0.43278480508E+01  0.25876159939E+01  0.58194690190E+01  0.00000000000E+00 0. -1.
         -2    1    1    2    0  502 -0.15314577863E+02 -0.13467082679E+02 -0.63953835803E+02  0.67126684149E+02  0.00000000000E+00 0.  1.
<mgrwt>
<rscale>  1 0.83018956E+02</rscale>
<asrwt>0</asrwt>
<pdfrwt beam="1">  1       21 0.93243669E-03 0.83018956E+02</pdfrwt>
<pdfrwt beam="2">  1       -1 0.69327200E-01 0.83018956E+02</pdfrwt>
<totfact> 0.78560641E+05</totfact>
</mgrwt>
</event>
<event>
 6    2  0.9453093E+000  0.1188806E+03  0.7546771E-02  0.1244955E+00
          4   -1    0    0  502    0 -0.00000000000E+00  0.00000000000E+00  0.57192253659E+03  0.57192253659E+03  0.00000000000E+00 0. -1.
         21   -1    0    0  501  502  0.00000000000E+00 -0.00000000000E+00 -0.18911035297E+02  0.18911035297E+02  0.00000000000E+00 0. -1.
         24    2    1    2    0    0  0.40499135054E+02 -0.79111971959E+02  0.33039756198E+03  0.35113407246E+03  0.78953808239E+02 0.  0.
        -11    1    3    3    0    0  0.50278798697E+02 -0.13659407523E+02  0.12823885028E+03  0.13841871165E+03  0.00000000000E+00 0.  1.
         12    1    3    3    0    0 -0.97796636432E+01 -0.65452564436E+02  0.20215871170E+03  0.21271536082E+03  0.00000000000E+00 0. -1.
          3    1    1    2  501    0 -0.40499135054E+02  0.79111971959E+02  0.22261393931E+03  0.23969949942E+03  0.00000000000E+00 0. -1.
<mgrwt>
<rscale>  1 0.11888056E+03</rscale>
<asrwt>0</asrwt>
<pdfrwt beam="1">  1       21 0.29093905E-02 0.11888056E+03</pdfrwt>
<pdfrwt beam="2">  1        4 0.87988069E-01 0.11888056E+03</pdfrwt>
<totfact> 0.30453496E+04</totfact>
</mgrwt>
</event>
<event>
 6    2  0.9453093E+000  0.7926667E+02  0.7546771E-02  0.1331145E+00
         21   -1    0    0  501  502  0.00000000000E+00  0.00000000000E+00  0.13992849166E+02  0.13992849166E+02  0.00000000000E+00 0. -1.
          2   -1    0    0  502    0 -0.00000000000E+00 -0.00000000000E+00 -0.32759688240E+03  0.32759688240E+03  0.00000000000E+00 0. -1.
         24    2    1    2    0    0  0.21406463253E+02  0.18168288803E+01 -0.30979008473E+03  0.31977038833E+03  0.76299850056E+02 0.  0.
        -13    1    3    3    0    0 -0.11788682211E+02 -0.20364233076E+02 -0.35501273891E+02  0.42591260429E+02  0.00000000000E+00 0.  1.
         14    1    3    3    0    0  0.33195145464E+02  0.22181061956E+02 -0.27428881084E+03  0.27717912790E+03  0.00000000000E+00 0. -1.
          1    1    1    2  501    0 -0.21406463253E+02 -0.18168288803E+01 -0.38139485065E+01  0.21819343239E+02  0.00000000000E+00 0. -1.
<mgrwt>
<rscale>  1 0.79266668E+02</rscale>
<asrwt>0</asrwt>
<pdfrwt beam="1">  1       21 0.21527461E-02 0.79266668E+02</pdfrwt>
<pdfrwt beam="2">  1        2 0.50399518E-01 0.79266668E+02</pdfrwt>
<totfact> 0.12393352E+06</totfact>
</mgrwt>
</event>
<event>
 6    2  0.9453093E+000  0.8510797E+02  0.7546771E-02  0.1315150E+00
          2   -1    0    0  502    0 -0.00000000000E+00  0.00000000000E+00  0.10317915186E+04  0.10317915186E+04  0.00000000000E+00 0. -1.
         21   -1    0    0  501  502  0.00000000000E+00 -0.00000000000E+00 -0.10313828208E+02  0.10313828208E+02  0.00000000000E+00 0. -1.
         24    2    1    2    0    0 -0.70493971786E+00 -0.26358020652E+02  0.10096089165E+04  0.10131897803E+04  0.80920482211E+02 0.  0.
        -11    1    3    3    0    0  0.20475538785E+02 -0.30385215684E+02  0.20219233774E+03  0.20548540207E+03  0.00000000000E+00 0.  1.
         12    1    3    3    0    0 -0.21180478503E+02  0.40271950316E+01  0.80741657879E+03  0.80770437827E+03  0.00000000000E+00 0. -1.
          1    1    1    2  501    0  0.70493971786E+00  0.26358020652E+02  0.11868773895E+02  0.28915566508E+02  0.00000000000E+00 0. -1.
<mgrwt>
<rscale>  1 0.85107970E+02</rscale>
<asrwt>0</asrwt>
<pdfrwt beam="1">  1       21 0.15867436E-02 0.85107970E+02</pdfrwt>
<pdfrwt beam="2">  1        2 0.15873708E+00 0.85107970E+02</pdfrwt>
<totfact> 0.54940485E+05</totfact>
</mgrwt>
</event>
<event>
 6    2  0.9453093E+000  0.9447461E+02  0.7546771E-02  0.1292364E+00
         21   -1    0    0  501  502  0.00000000000E+00  0.00000000000E+00  0.12858727301E+03  0.12858727301E+03  0.00000000000E+00 0.  1.
         -3   -1    0    0    0  501 -0.00000000000E+00 -0.00000000000E+00 -0.47603467471E+02  0.47603467471E+02  0.00000000000E+00 0.  1.
         24    2    1    2    0    0  0.17723193217E+02  0.49717132766E+02  0.21929297930E+02  0.96986323071E+02  0.78355267130E+02 0.  0.
        -13    1    3    3    0    0 -0.90482790975E+00  0.58340179457E+02 -0.98313479706E+01  0.59169676825E+02  0.00000000000E+00 0.  1.
         14    1    3    3    0    0  0.18628021127E+02 -0.86230466910E+01  0.31760645901E+02  0.37816646247E+02  0.00000000000E+00 0. -1.
         -4    1    1    2    0  502 -0.17723193217E+02 -0.49717132766E+02  0.59054507611E+02  0.79204417411E+02  0.00000000000E+00 0.  1.
<mgrwt>
<rscale>  1 0.94474614E+02</rscale>
<asrwt>0</asrwt>
<pdfrwt beam="1">  1       21 0.19782657E-01 0.94474614E+02</pdfrwt>
<pdfrwt beam="2">  1       -3 0.73236104E-02 0.94474614E+02</pdfrwt>
<totfact> 0.13180725E+05</totfact>
</mgrwt>
</event>
<event>
 6    2  0.9453093E+000  0.8861246E+02  0.7546771E-02  0.1306247E+00
          2   -1    0    0  502    0 -0.00000000000E+00  0.00000000000E+00  0.75116332280E+03  0.75116332280E+03  0.00000000000E+00 0. -1.
         21   -1    0    0  501  502  0.00000000000E+00 -0.00000000000E+00 -0.58354974522E+01  0.58354974522E+01  0.00000000000E+00 0.  1.
         24    2    1    2    0    0 -0.29519755963E+02  0.23141497760E+02  0.61601642267E+03  0.62235713364E+03  0.80282151723E+02 0.  0.
        -11    1    3    3    0    0 -0.17392749880E+02  0.12502225688E+02  0.34444640496E+02  0.40561640184E+02  0.00000000000E+00 0.  1.
         12    1    3    3    0    0 -0.12127006083E+02  0.10639272072E+02  0.58157178218E+03  0.58179549346E+03  0.00000000000E+00 0. -1.
          1    1    1    2  501    0  0.29519755963E+02 -0.23141497760E+02  0.12931140267E+03  0.13464168660E+03  0.00000000000E+00 0. -1.
<mgrwt>
<rscale>  1 0.88612464E+02</rscale>
<asrwt>0</asrwt>
<pdfrwt beam="1">  1       21 0.89776944E-03 0.88612464E+02</pdfrwt>
<pdfrwt beam="2">  1        2 0.11556351E+00 0.88612464E+02</pdfrwt>
<totfact> 0.20189188E+06</totfact>
</mgrwt>
</event>
<event>
 6    2  0.9453093E+000  0.8697613E+02  0.7546771E-02  0.1310344E+00
         21   -1    0    0  501  502  0.00000000000E+00  0.00000000000E+00  0.29803837925E+02  0.29803837925E+02  0.00000000000E+00 0.  1.
         -3   -1    0    0    0  501 -0.00000000000E+00 -0.00000000000E+00 -0.10037706522E+03  0.10037706522E+03  0.00000000000E+00 0.  1.
         24    2    1    2    0    0  0.58290344184E+01  0.20826241281E+02 -0.62471479085E+02  0.10708656851E+03  0.84244510138E+02 0.  0.
        -13    1    3    3    0    0 -0.17885760816E+02  0.45071950486E+02 -0.19310240811E+02  0.52194506998E+02  0.00000000000E+00 0.  1.
         14    1    3    3    0    0  0.23714795235E+02 -0.24245709205E+02 -0.43161238274E+02  0.54892061513E+02  0.00000000000E+00 0. -1.
         -4    1    1    2    0  502 -0.58290344184E+01 -0.20826241281E+02 -0.81017482131E+01  0.23094334635E+02  0.00000000000E+00 0.  1.
<mgrwt>
<rscale>  1 0.86976132E+02</rscale>
<asrwt>0</asrwt>
<pdfrwt beam="1">  1       21 0.45852058E-02 0.86976132E+02</pdfrwt>
<pdfrwt beam="2">  1       -3 0.15442626E-01 0.86976132E+02</pdfrwt>
<totfact> 0.47952916E+05</totfact>
</mgrwt>
</event>
<event>
 6    2  0.9453093E+000  0.1046231E+03  0.7546771E-02  0.1270864E+00
         -1   -1    0    0    0  501 -0.00000000000E+00  0.00000000000E+00  0.16363066932E+04  0.16363066932E+04  0.00000000000E+00 0.  1.
         21   -1    0    0  501  502  0.00000000000E+00 -0.00000000000E+00 -0.44509035071E+01  0.44509035071E+01  0.00000000000E+00 0. -1.
         24    2    1    2    0    0 -0.11672656245E+02 -0.64977675011E+02  0.10178709613E+04  0.10232337359E+04  0.81164248894E+02 0.  0.
        -11    1    3    3    0    0  0.20781055695E+02  0.82733192622E+01  0.14795636806E+03  0.14963751848E+03  0.00000000000E+00 0.  1.
         12    1    3    3    0    0 -0.32453711939E+02 -0.73250994273E+02  0.86991459323E+03  0.87359621743E+03  0.00000000000E+00 0. -1.
         -2    1    1    2    0  502  0.11672656245E+02  0.64977675011E+02  0.61398482838E+03  0.61752386078E+03  0.00000000000E+00 0.  1.
<mgrwt>
<rscale>  1 0.10462306E+03</rscale>
<asrwt>0</asrwt>
<pdfrwt beam="1">  1       21 0.68475569E-03 0.10462306E+03</pdfrwt>
<pdfrwt beam="2">  1       -1 0.25173901E+00 0.10462306E+03</pdfrwt>
<totfact> 0.49953419E+04</totfact>
</mgrwt>
</event>
<event>
 6    2  0.9453093E+000  0.8958129E+02  0.7546771E-02  0.1303869E+00
         21   -1    0    0  501  502  0.00000000000E+00  0.00000000000E+00  0.55757939866E+01  0.55757939866E+01  0.00000000000E+00 0.  1.
          2   -1    0    0  502    0 -0.00000000000E+00 -0.00000000000E+00 -0.88484622986E+03  0.88484622986E+03  0.00000000000E+00 0. -1.
         24    2    1    2    0    0 -0.30865817845E+02  0.20875362644E+02 -0.40988708733E+03  0.41956195189E+03  0.81463658363E+02 0.  0.
        -11    1    3    3    0    0 -0.33018622555E+02 -0.12009506928E+02 -0.72455390434E+02  0.80524786837E+02  0.00000000000E+00 0.  1.
         12    1    3    3    0    0  0.21528047103E+01  0.32884869572E+02 -0.33743169690E+03  0.33903716505E+03  0.00000000000E+00 0. -1.
          1    1    1    2  501    0  0.30865817845E+02 -0.20875362644E+02 -0.46938334854E+03  0.47086007196E+03  0.00000000000E+00 0. -1.
<mgrwt>
<rscale>  1 0.89581288E+02</rscale>
<asrwt>0</asrwt>
<pdfrwt beam="1">  1       21 0.85781459E-03 0.89581288E+02</pdfrwt>
<pdfrwt beam="2">  1        2 0.13613017E+00 0.89581288E+02</pdfrwt>
<totfact> 0.17735620E+06</totfact>
</mgrwt>
</event>
<event>
 6    2  0.9453093E+000  0.7308438E+02  0.7546771E-02  0.1349908E+00
          4   -1    0    0  502    0 -0.00000000000E+00  0.00000000000E+00  0.44840788962E+03  0.44840788962E+03  0.00000000000E+00 0. -1.
         21   -1    0    0  501  502  0.00000000000E+00 -0.00000000000E+00 -0.71416189228E+01  0.71416189228E+01  0.00000000000E+00 0. -1.
         24    2    1    2    0    0 -0.39407116858E+02 -0.27176514064E+01  0.26350855720E+03  0.27345582058E+03  0.61489995960E+02 0.  0.
        -11    1    3    3    0    0  0.79794370569E+01  0.15283534317E+02  0.30866633778E+02  0.35355436890E+02  0.00000000000E+00 0.  1.
         12    1    3    3    0    0 -0.47386553915E+02 -0.18001185723E+02  0.23264192342E+03  0.23810038369E+03  0.00000000000E+00 0. -1.
          3    1    1    2  501    0  0.39407116858E+02  0.27176514064E+01  0.17775771350E+03  0.18209368796E+03  0.00000000000E+00 0. -1.
<mgrwt>
<rscale>  1 0.73084377E+02</rscale>
<asrwt>0</asrwt>
<pdfrwt beam="1">  1       21 0.10987110E-02 0.73084377E+02</pdfrwt>
<pdfrwt beam="2">  1        4 0.68985807E-01 0.73084377E+02</pdfrwt>
<totfact> 0.22557422E+05</totfact>
</mgrwt>
</event>
<event>
 6    2  0.9453093E+000  0.8452381E+02  0.7546771E-02  0.1316683E+00
          2   -1    0    0  502    0 -0.00000000000E+00  0.00000000000E+00  0.36788327180E+03  0.36788327180E+03  0.00000000000E+00 0. -1.
         21   -1    0    0  501  502  0.00000000000E+00 -0.00000000000E+00 -0.74908634181E+01  0.74908634181E+01  0.00000000000E+00 0.  1.
         24    2    1    2    0    0 -0.19621574474E+02  0.56205609180E+01  0.29503810831E+03  0.30690676031E+03  0.82022419342E+02 0.  0.
        -13    1    3    3    0    0 -0.39234470996E+02  0.32653142383E+02  0.17171942709E+03  0.17914556389E+03  0.00000000000E+00 0.  1.
         14    1    3    3    0    0  0.19612896523E+02 -0.27032581465E+02  0.12331868123E+03  0.12776119642E+03  0.00000000000E+00 0. -1.
          1    1    1    2  501    0  0.19621574474E+02 -0.56205609180E+01  0.65354300065E+02  0.68467374908E+02  0.00000000000E+00 0. -1.
<mgrwt>
<rscale>  1 0.84523808E+02</rscale>
<asrwt>0</asrwt>
<pdfrwt beam="1">  1       21 0.11524408E-02 0.84523808E+02</pdfrwt>
<pdfrwt beam="2">  1        2 0.56597413E-01 0.84523808E+02</pdfrwt>
<totfact> 0.29750370E+06</totfact>
</mgrwt>
</event>
<event>
 6    2  0.9453093E+000  0.1044457E+03  0.7546771E-02  0.1271216E+00
         21   -1    0    0  501  502  0.00000000000E+00  0.00000000000E+00  0.18625993702E+02  0.18625993702E+02  0.00000000000E+00 0. -1.
          2   -1    0    0  502    0 -0.00000000000E+00 -0.00000000000E+00 -0.70219922539E+03  0.70219922539E+03  0.00000000000E+00 0. -1.
         24    2    1    2    0    0  0.13548303134E+02 -0.26844470838E+02 -0.68280362939E+03  0.69074575068E+03  0.10002356538E+03 0.  0.
        -13    1    3    3    0    0 -0.36184231418E+02 -0.78010954337E+01 -0.12390947721E+03  0.12932020042E+03  0.00000000000E+00 0.  1.
         14    1    3    3    0    0  0.49732534552E+02 -0.19043375404E+02 -0.55889415218E+03  0.56142555026E+03  0.00000000000E+00 0. -1.
          1    1    1    2  501    0 -0.13548303134E+02  0.26844470838E+02 -0.76960229282E+00  0.30079468414E+02  0.00000000000E+00 0. -1.
<mgrwt>
<rscale>  1 0.10444566E+03</rscale>
<asrwt>0</asrwt>
<pdfrwt beam="1">  1       21 0.28655374E-02 0.10444566E+03</pdfrwt>
<pdfrwt beam="2">  1        2 0.10803065E+00 0.10444566E+03</pdfrwt>
<totfact> 0.34975643E+05</totfact>
</mgrwt>
</event>
<event>
 6    2  0.9453093E+000  0.9129715E+02  0.7546771E-02  0.1299741E+00
          2   -1    0    0  502    0 -0.00000000000E+00  0.00000000000E+00  0.75005659398E+03  0.75005659398E+03  0.00000000000E+00 0. -1.
         21   -1    0    0  501  502  0.00000000000E+00 -0.00000000000E+00 -0.48750714090E+01  0.48750714090E+01  0.00000000000E+00 0.  1.
         24    2    1    2    0    0 -0.99725925466E+01 -0.22435652899E+02  0.47920589487E+03  0.48782523406E+03  0.87933828475E+02 0.  0.
        -13    1    3    3    0    0  0.95578619448E+01 -0.14213321717E+02  0.13958486187E+02  0.22095487680E+02  0.00000000000E+00 0.  1.
         14    1    3    3    0    0 -0.19530454491E+02 -0.82223311822E+01  0.46524740868E+03  0.46572974638E+03  0.00000000000E+00 0. -1.
          1    1    1    2  501    0  0.99725925466E+01  0.22435652899E+02  0.26597562770E+03  0.26710643132E+03  0.00000000000E+00 0. -1.
<mgrwt>
<rscale>  1 0.91297148E+02</rscale>
<asrwt>0</asrwt>
<pdfrwt beam="1">  1       21 0.75001158E-03 0.91297148E+02</pdfrwt>
<pdfrwt beam="2">  1        2 0.11539323E+00 0.91297148E+02</pdfrwt>
<totfact> 0.26829522E+06</totfact>
</mgrwt>
</event>
<event>
 6    2  0.9453093E+000  0.9615030E+02  0.7546771E-02  0.1288606E+00
         -1   -1    0    0    0  501 -0.00000000000E+00  0.00000000000E+00  0.92953688313E+02  0.92953688313E+02  0.00000000000E+00 0.  1.
         21   -1    0    0  501  502  0.00000000000E+00 -0.00000000000E+00 -0.74827606921E+02  0.74827606921E+02  0.00000000000E+00 0. -1.
         24    2    1    2    0    0  0.46430013289E+02 -0.12962199092E+02 -0.28938139817E+02  0.10041063651E+03  0.83193240400E+02 0.  0.
        -13    1    3    3    0    0  0.34592075809E+02 -0.19219266607E+02  0.23679339918E+02  0.46116190830E+02  0.00000000000E+00 0.  1.
         14    1    3    3    0    0  0.11837937480E+02  0.62570675152E+01 -0.52617479735E+02  0.54294445677E+02  0.00000000000E+00 0. -1.
         -2    1    1    2    0  502 -0.46430013289E+02  0.12962199092E+02  0.47064221209E+02  0.67370658727E+02  0.00000000000E+00 0.  1.
<mgrwt>
<rscale>  1 0.96150299E+02</rscale>
<asrwt>0</asrwt>
<pdfrwt beam="1">  1       21 0.11511940E-01 0.96150299E+02</pdfrwt>
<pdfrwt beam="2">  1       -1 0.14300567E-01 0.96150299E+02</pdfrwt>
<totfact> 0.18851798E+05</totfact>
</mgrwt>
</event>
<event>
 6    2  0.9453093E+000  0.1686018E+03  0.7546771E-02  0.1179314E+00
          2   -1    0    0  502    0 -0.00000000000E+00  0.00000000000E+00  0.28755185246E+04  0.28755185246E+04  0.00000000000E+00 0. -1.
         21   -1    0    0  501  502  0.00000000000E+00 -0.00000000000E+00 -0.15051679218E+02  0.15051679218E+02  0.00000000000E+00 0. -1.
         24    2    1    2    0    0 -0.14097070665E+03 -0.49135037961E+02  0.24124611133E+04  0.24183455453E+04  0.78355353634E+02 0.  0.
        -13    1    3    3    0    0 -0.37199742063E+02 -0.40298284591E+02  0.48875956648E+03  0.49182688659E+03  0.00000000000E+00 0.  1.
         14    1    3    3    0    0 -0.10377096458E+03 -0.88367533700E+01  0.19237015468E+04  0.19265186587E+04  0.00000000000E+00 0. -1.
          1    1    1    2  501    0  0.14097070665E+03  0.49135037961E+02  0.44800573211E+03  0.47222465849E+03  0.00000000000E+00 0. -1.
<mgrwt>
<rscale>  1 0.16860176E+03</rscale>
<asrwt>0</asrwt>
<pdfrwt beam="1">  1       21 0.23156452E-02 0.16860176E+03</pdfrwt>
<pdfrwt beam="2">  1        2 0.44238703E+00 0.16860176E+03</pdfrwt>
<totfact> 0.31724087E+04</totfact>
</mgrwt>
</event>
<event>
 6    2  0.1005358E+001  0.8461795E+02  0.7546771E-02  0.1316435E+00
         21   -1    0    0  501  502  0.00000000000E+00  0.00000000000E+00  0.71962138967E+01  0.71962138967E+01  0.00000000000E+00 0. -1.
         -3   -1    0    0    0  501 -0.00000000000E+00 -0.00000000000E+00 -0.85603004782E+03  0.85603004782E+03  0.00000000000E+00 0.  1.
         24    2    1    2    0    0  0.18576333067E+02  0.76514600815E+01 -0.83392807019E+03  0.83821013124E+03  0.82198375109E+02 0.  0.
        -11    1    3    3    0    0  0.36610366291E+01 -0.13106087975E+02 -0.75747832586E+03  0.75760054572E+03  0.00000000000E+00 0.  1.
         12    1    3    3    0    0  0.14915296438E+02  0.20757548057E+02 -0.76449744328E+02  0.80609585515E+02  0.00000000000E+00 0. -1.
         -4    1    1    2    0  502 -0.18576333067E+02 -0.76514600815E+01 -0.14905763734E+02  0.25016130478E+02  0.00000000000E+00 0.  1.
<mgrwt>
<rscale>  1 0.84617952E+02</rscale>
<asrwt>0</asrwt>
<pdfrwt beam="1">  1       21 0.11071095E-02 0.84617952E+02</pdfrwt>
<pdfrwt beam="2">  1       -3 0.13169697E+00 0.84617952E+02</pdfrwt>
<totfact> 0.68087194E+04</totfact>
</mgrwt>
</event>
<event>
 6    2  0.9453093E+000  0.1102339E+03  0.7546771E-02  0.1260137E+00
         21   -1    0    0  501  502  0.00000000000E+00  0.00000000000E+00  0.71111605797E+01  0.71111605797E+01  0.00000000000E+00 0.  1.
          2   -1    0    0  502    0 -0.00000000000E+00 -0.00000000000E+00 -0.15540954750E+04  0.15540954750E+04  0.00000000000E+00 0. -1.
         24    2    1    2    0    0  0.29638327505E+02 -0.69479046217E+02 -0.52572302399E+03  0.53715566436E+03  0.80285375271E+02 0.  0.
        -11    1    3    3    0    0  0.50188459612E+02 -0.19398818213E+02 -0.20759123070E+03  0.21445119419E+03  0.00000000000E+00 0.  1.
         12    1    3    3    0    0 -0.20550132107E+02 -0.50080228003E+02 -0.31813179329E+03  0.32270447017E+03  0.00000000000E+00 0. -1.
          1    1    1    2  501    0 -0.29638327505E+02  0.69479046217E+02 -0.10212612904E+04  0.10240509712E+04  0.00000000000E+00 0. -1.
<mgrwt>
<rscale>  1 0.11023389E+03</rscale>
<asrwt>0</asrwt>
<pdfrwt beam="1">  1       21 0.10940252E-02 0.11023389E+03</pdfrwt>
<pdfrwt beam="2">  1        2 0.23909150E+00 0.11023389E+03</pdfrwt>
<totfact> 0.52593700E+05</totfact>
</mgrwt>
</event>
<event>
 6    2  0.9453093E+000  0.8770331E+02  0.7546771E-02  0.1308511E+00
         21   -1    0    0  501  502  0.00000000000E+00  0.00000000000E+00  0.16036794077E+02  0.16036794077E+02  0.00000000000E+00 0. -1.
          4   -1    0    0  502    0 -0.00000000000E+00 -0.00000000000E+00 -0.24356776533E+03  0.24356776533E+03  0.00000000000E+00 0. -1.
         24    2    1    2    0    0 -0.15118788236E+02  0.29275650285E+02 -0.19236375536E+03  0.21141353813E+03  0.81278707385E+02 0.  0.
        -13    1    3    3    0    0 -0.17026566372E+01  0.82503585152E+01  0.67183899585E+01  0.10775166768E+02  0.00000000000E+00 0.  1.
         14    1    3    3    0    0 -0.13416131599E+02  0.21025291770E+02 -0.19908214531E+03  0.20063837137E+03  0.00000000000E+00 0. -1.
          3    1    1    2  501    0  0.15118788236E+02 -0.29275650285E+02 -0.35167215893E+02  0.48191021269E+02  0.00000000000E+00 0. -1.
<mgrwt>
<rscale>  1 0.87703305E+02</rscale>
<asrwt>0</asrwt>
<pdfrwt beam="1">  1       21 0.24671992E-02 0.87703305E+02</pdfrwt>
<pdfrwt beam="2">  1        4 0.37471962E-01 0.87703305E+02</pdfrwt>
<totfact> 0.22310199E+05</totfact>
</mgrwt>
</event>
<event>
 6    2  0.9453093E+000  0.8668428E+02  0.7546771E-02  0.1311086E+00
         21   -1    0    0  501  502  0.00000000000E+00  0.00000000000E+00  0.32507795858E+01  0.32507795858E+01  0.00000000000E+00 0.  1.
          2   -1    0    0  502    0 -0.00000000000E+00 -0.00000000000E+00 -0.10756289575E+04  0.10756289575E+04  0.00000000000E+00 0. -1.
         24    2    1    2    0    0  0.30318717088E+02  0.79316232365E+01 -0.75616084866E+03  0.76111325903E+03  0.80820967439E+02 0.  0.
        -13    1    3    3    0    0  0.21261223882E+02  0.15453666410E+02 -0.68773116162E+02  0.73624703416E+02  0.00000000000E+00 0.  1.
         14    1    3    3    0    0  0.90574932061E+01 -0.75220431735E+01 -0.68738773249E+03  0.68748855561E+03  0.00000000000E+00 0. -1.
          1    1    1    2  501    0 -0.30318717088E+02 -0.79316232365E+01 -0.31621732929E+03  0.31776647809E+03  0.00000000000E+00 0. -1.
<mgrwt>
<rscale>  1 0.86684278E+02</rscale>
<asrwt>0</asrwt>
<pdfrwt beam="1">  1       21 0.50011944E-03 0.86684278E+02</pdfrwt>
<pdfrwt beam="2">  1        2 0.16548154E+00 0.86684278E+02</pdfrwt>
<totfact> 0.31325370E+06</totfact>
</mgrwt>
</event>
<event>
 6    2  0.9453093E+000  0.8612725E+02  0.7546771E-02  0.1312511E+00
          2   -1    0    0  502    0 -0.00000000000E+00  0.00000000000E+00  0.16881126025E+04  0.16881126025E+04  0.00000000000E+00 0. -1.
         21   -1    0    0  501  502  0.00000000000E+00 -0.00000000000E+00 -0.32107991333E+02  0.32107991333E+02  0.00000000000E+00 0. -1.
         24    2    1    2    0    0  0.21679053399E+02  0.19288635381E+02  0.16802201255E+04  0.16824260975E+04  0.81091742831E+02 0.  0.
        -13    1    3    3    0    0  0.34206314682E+02 -0.85042765582E+01  0.33284339113E+03  0.33470452298E+03  0.00000000000E+00 0.  1.
         14    1    3    3    0    0 -0.12527261283E+02  0.27792911939E+02  0.13473767344E+04  0.13477215746E+04  0.00000000000E+00 0. -1.
          1    1    1    2  501    0 -0.21679053399E+02 -0.19288635381E+02 -0.24215514366E+02  0.37794496254E+02  0.00000000000E+00 0. -1.
<mgrwt>
<rscale>  1 0.86127252E+02</rscale>
<asrwt>0</asrwt>
<pdfrwt beam="1">  1       21 0.49396923E-02 0.86127252E+02</pdfrwt>
<pdfrwt beam="2">  1        2 0.25970956E+00 0.86127252E+02</pdfrwt>
<totfact> 0.39393354E+04</totfact>
</mgrwt>
</event>
<event>
 6    2  0.9453093E+000  0.1099326E+03  0.7546771E-02  0.1260695E+00
          4   -1    0    0  502    0 -0.00000000000E+00  0.00000000000E+00  0.28062189651E+04  0.28062189651E+04  0.00000000000E+00 0. -1.
         21   -1    0    0  501  502  0.00000000000E+00 -0.00000000000E+00 -0.35472378163E+01  0.35472378163E+01  0.00000000000E+00 0.  1.
         24    2    1    2    0    0  0.76301826308E+02 -0.37166890765E+01  0.11256227394E+04  0.11309782204E+04  0.79053153587E+02 0.  0.
        -11    1    3    3    0    0  0.48133300743E+02  0.36371825218E+02  0.67954901779E+03  0.68222180549E+03  0.00000000000E+00 0.  1.
         12    1    3    3    0    0  0.28168525566E+02 -0.40088514294E+02  0.44607372164E+03  0.44875641494E+03  0.00000000000E+00 0. -1.
          3    1    1    2  501    0 -0.76301826308E+02  0.37166890765E+01  0.16770489879E+04  0.16787879825E+04  0.00000000000E+00 0. -1.
<mgrwt>
<rscale>  1 0.10993263E+03</rscale>
<asrwt>0</asrwt>
<pdfrwt beam="1">  1       21 0.54573114E-03 0.10993263E+03</pdfrwt>
<pdfrwt beam="2">  1        4 0.43172422E+00 0.10993263E+03</pdfrwt>
<totfact> 0.22313203E+03</totfact>
</mgrwt>
</event>
<event>
 6    2  0.9453093E+000  0.1023981E+03  0.7546771E-02  0.1275333E+00
          2   -1    0    0  502    0 -0.00000000000E+00  0.00000000000E+00  0.12838846454E+04  0.12838846454E+04  0.00000000000E+00 0. -1.
         21   -1    0    0  501  502  0.00000000000E+00 -0.00000000000E+00 -0.67590326746E+01  0.67590326746E+01  0.00000000000E+00 0. -1.
         24    2    1    2    0    0 -0.56051658854E+02  0.32502006342E+02  0.10331121373E+04  0.10381743827E+04  0.79291815155E+02 0.  0.
        -13    1    3    3    0    0 -0.20870939851E+02 -0.15518630743E+02  0.10566359937E+03  0.10881737114E+03  0.00000000000E+00 0.  1.
         14    1    3    3    0    0 -0.35180719004E+02  0.48020637085E+02  0.92744853788E+03  0.92935701159E+03  0.00000000000E+00 0. -1.
          1    1    1    2  501    0  0.56051658854E+02 -0.32502006342E+02  0.24401347543E+03  0.25246929530E+03  0.00000000000E+00 0. -1.
<mgrwt>
<rscale>  1 0.10239805E+03</rscale>
<asrwt>0</asrwt>
<pdfrwt beam="1">  1       21 0.10398522E-02 0.10239805E+03</pdfrwt>
<pdfrwt beam="2">  1        2 0.19752052E+00 0.10239805E+03</pdfrwt>
<totfact> 0.78523037E+05</totfact>
</mgrwt>
</event>
<event>
 6    2  0.9453093E+000  0.9765484E+02  0.7546771E-02  0.1285306E+00
         21   -1    0    0  501  502  0.00000000000E+00  0.00000000000E+00  0.20654127601E+02  0.20654127601E+02  0.00000000000E+00 0. -1.
          2   -1    0    0  502    0 -0.00000000000E+00 -0.00000000000E+00 -0.32538386048E+03  0.32538386048E+03  0.00000000000E+00 0. -1.
         24    2    1    2    0    0  0.22411485001E+02 -0.52077738706E+02 -0.13169191691E+03  0.16394885803E+03  0.79511644054E+02 0.  0.
        -11    1    3    3    0    0  0.19977393221E+01  0.13285717175E+02  0.21506606959E+01  0.13606123059E+02  0.00000000000E+00 0.  1.
         12    1    3    3    0    0  0.20413745678E+02 -0.65363455881E+02 -0.13384257761E+03  0.15034273497E+03  0.00000000000E+00 0. -1.
          1    1    1    2  501    0 -0.22411485001E+02  0.52077738706E+02 -0.17303781596E+03  0.18208913005E+03  0.00000000000E+00 0. -1.
<mgrwt>
<rscale>  1 0.97654836E+02</rscale>
<asrwt>0</asrwt>
<pdfrwt beam="1">  1       21 0.31775584E-02 0.97654836E+02</pdfrwt>
<pdfrwt beam="2">  1        2 0.50059051E-01 0.97654836E+02</pdfrwt>
<totfact> 0.67950774E+05</totfact>
</mgrwt>
</event>
<event>
 6    2  0.9453093E+000  0.8943129E+02  0.7546771E-02  0.1304235E+00
         -3   -1    0    0    0  501 -0.00000000000E+00  0.00000000000E+00  0.29914848353E+03  0.29914848353E+03  0.00000000000E+00 0.  1.
         21   -1    0    0  501  502  0.00000000000E+00 -0.00000000000E+00 -0.80357761646E+02  0.80357761646E+02  0.00000000000E+00 0.  1.
         24    2    1    2    0    0  0.21086283490E+01 -0.35257037879E+02  0.28812975017E+03  0.30168975671E+03  0.82161130325E+02 0.  0.
        -11    1    3    3    0    0 -0.58513348490E+01 -0.60372882371E+02  0.23007459435E+03  0.23793579388E+03  0.00000000000E+00 0.  1.
         12    1    3    3    0    0  0.79599631981E+01  0.25115844493E+02  0.58055155818E+02  0.63753962824E+02  0.00000000000E+00 0. -1.
         -4    1    1    2    0  502 -0.21086283490E+01  0.35257037879E+02 -0.69339028287E+02  0.77816488467E+02  0.00000000000E+00 0.  1.
<mgrwt>
<rscale>  1 0.89431294E+02</rscale>
<asrwt>0</asrwt>
<pdfrwt beam="1">  1       21 0.12362733E-01 0.89431294E+02</pdfrwt>
<pdfrwt beam="2">  1       -3 0.46022843E-01 0.89431294E+02</pdfrwt>
<totfact> 0.12320163E+04</totfact>
</mgrwt>
</event>
<event>
 6    2  0.9453093E+000  0.1540788E+03  0.7546771E-02  0.1195549E+00
          2   -1    0    0  502    0 -0.00000000000E+00  0.00000000000E+00  0.16128072116E+04  0.16128072116E+04  0.00000000000E+00 0. -1.
         21   -1    0    0  501  502  0.00000000000E+00 -0.00000000000E+00 -0.19899452820E+02  0.19899452820E+02  0.00000000000E+00 0. -1.
         24    2    1    2    0    0  0.13126389014E+03 -0.57844834536E+00  0.13295536771E+04  0.13384518160E+04  0.80682960512E+02 0.  0.
        -11    1    3    3    0    0  0.17515878031E+02 -0.23894585732E+02  0.13208989497E+03  0.13537170149E+03  0.00000000000E+00 0.  1.
         12    1    3    3    0    0  0.11374801211E+03  0.23316137387E+02  0.11974637821E+04  0.12030801145E+04  0.00000000000E+00 0. -1.
          1    1    1    2  501    0 -0.13126389014E+03  0.57844834536E+00  0.26335408169E+03  0.29425484839E+03  0.00000000000E+00 0. -1.
<mgrwt>
<rscale>  1 0.15407882E+03</rscale>
<asrwt>0</asrwt>
<pdfrwt beam="1">  1       21 0.30614556E-02 0.15407882E+03</pdfrwt>
<pdfrwt beam="2">  1        2 0.24812408E+00 0.15407882E+03</pdfrwt>
<totfact> 0.94051768E+04</totfact>
</mgrwt>
</event>
<event>
 6    2  0.9453093E+000  0.8471260E+02  0.7546771E-02  0.1316186E+00
         -1   -1    0    0    0  501 -0.00000000000E+00  0.00000000000E+00  0.28509122764E+03  0.28509122764E+03  0.00000000000E+00 0.  1.
         21   -1    0    0  501  502  0.00000000000E+00 -0.00000000000E+00 -0.11504302488E+02  0.11504302488E+02  0.00000000000E+00 0. -1.
         24    2    1    2    0    0  0.25040504756E+02 -0.16097737700E+02  0.19825617267E+03  0.21559623194E+03  0.79309905985E+02 0.  0.
        -11    1    3    3    0    0  0.54370814110E+01  0.31915341541E+02  0.65342548990E+02  0.72923244500E+02  0.00000000000E+00 0.  1.
         12    1    3    3    0    0  0.19603423345E+02 -0.48013079242E+02  0.13291362368E+03  0.14267298744E+03  0.00000000000E+00 0. -1.
         -2    1    1    2    0  502 -0.25040504756E+02  0.16097737700E+02  0.75330752485E+02  0.80999298191E+02  0.00000000000E+00 0.  1.
<mgrwt>
<rscale>  1 0.84712604E+02</rscale>
<asrwt>0</asrwt>
<pdfrwt beam="1">  1       21 0.17698929E-02 0.84712604E+02</pdfrwt>
<pdfrwt beam="2">  1       -1 0.43860183E-01 0.84712604E+02</pdfrwt>
<totfact> 0.66844925E+05</totfact>
</mgrwt>
</event>
<event>
 6    2  0.9453093E+000  0.8154115E+02  0.7546771E-02  0.1324734E+00
         21   -1    0    0  501  502  0.00000000000E+00  0.00000000000E+00  0.46878899591E+01  0.46878899591E+01  0.00000000000E+00 0.  1.
          2   -1    0    0  502    0 -0.00000000000E+00 -0.00000000000E+00 -0.64866211370E+03  0.64866211370E+03  0.00000000000E+00 0. -1.
         24    2    1    2    0    0 -0.14459951608E+02  0.24844496044E+02 -0.47711524802E+03  0.48403297273E+03  0.76306091578E+02 0.  0.
        -13    1    3    3    0    0 -0.30856689540E+02  0.17607935702E+02 -0.93857541592E+02  0.10035642881E+03  0.00000000000E+00 0.  1.
         14    1    3    3    0    0  0.16396737932E+02  0.72365603418E+01 -0.38325770643E+03  0.38367654392E+03  0.00000000000E+00 0. -1.
          1    1    1    2  501    0  0.14459951608E+02 -0.24844496044E+02 -0.16685897572E+03  0.16931703093E+03  0.00000000000E+00 0. -1.
<mgrwt>
<rscale>  1 0.81541148E+02</rscale>
<asrwt>0</asrwt>
<pdfrwt beam="1">  1       21 0.72121392E-03 0.81541148E+02</pdfrwt>
<pdfrwt beam="2">  1        2 0.99794160E-01 0.81541148E+02</pdfrwt>
<totfact> 0.33304324E+06</totfact>
</mgrwt>
</event>
<event>
 6    2  0.1058143E+001  0.8457280E+02  0.7546771E-02  0.1316554E+00
         21   -1    0    0  501  502  0.00000000000E+00  0.00000000000E+00  0.16612945185E+02  0.16612945185E+02  0.00000000000E+00 0.  1.
         -1   -1    0    0    0  501 -0.00000000000E+00 -0.00000000000E+00 -0.31591762351E+03  0.31591762351E+03  0.00000000000E+00 0.  1.
         24    2    1    2    0    0 -0.43380034830E+01  0.21664823836E+02 -0.29868439201E+03  0.31042700290E+03  0.81635624768E+02 0.  0.
        -11    1    3    3    0    0  0.63159584090E+01  0.39157285248E+02 -0.27970655858E+03  0.28250476674E+03  0.00000000000E+00 0.  1.
         12    1    3    3    0    0 -0.10653961892E+02 -0.17492461412E+02 -0.18977833429E+02  0.27922236156E+02  0.00000000000E+00 0. -1.
         -2    1    1    2    0  502  0.43380034830E+01 -0.21664823836E+02 -0.62028632026E+00  0.22103565802E+02  0.00000000000E+00 0.  1.
<mgrwt>
<rscale>  1 0.84572798E+02</rscale>
<asrwt>0</asrwt>
<pdfrwt beam="1">  1       21 0.25558378E-02 0.84572798E+02</pdfrwt>
<pdfrwt beam="2">  1       -1 0.48602709E-01 0.84572798E+02</pdfrwt>
<totfact> 0.30927041E+05</totfact>
</mgrwt>
</event>
<event>
 6    2  0.9453093E+000  0.8706471E+02  0.7546771E-02  0.1310120E+00
         21   -1    0    0  501  502  0.00000000000E+00  0.00000000000E+00  0.22591801198E+01  0.22591801198E+01  0.00000000000E+00 0.  1.
          2   -1    0    0  502    0 -0.00000000000E+00 -0.00000000000E+00 -0.16213967059E+04  0.16213967059E+04  0.00000000000E+00 0. -1.
         24    2    1    2    0    0 -0.92902405529E+01 -0.31658342538E+02 -0.10756478630E+04  0.10791656907E+04  0.80571109232E+02 0.  0.
        -13    1    3    3    0    0 -0.23861143958E+02 -0.54068965691E+02 -0.65091719097E+03  0.65359467312E+03  0.00000000000E+00 0.  1.
         14    1    3    3    0    0  0.14570903405E+02  0.22410623153E+02 -0.42473067205E+03  0.42557101762E+03  0.00000000000E+00 0. -1.
          1    1    1    2  501    0  0.92902405529E+01  0.31658342538E+02 -0.54348966277E+03  0.54449019528E+03  0.00000000000E+00 0. -1.
<mgrwt>
<rscale>  1 0.87064705E+02</rscale>
<asrwt>0</asrwt>
<pdfrwt beam="1">  1       21 0.34756494E-03 0.87064705E+02</pdfrwt>
<pdfrwt beam="2">  1        2 0.24944653E+00 0.87064705E+02</pdfrwt>
<totfact> 0.28157941E+06</totfact>
</mgrwt>
</event>
<event>
 6    2  0.9453093E+000  0.1078238E+03  0.7546771E-02  0.1264654E+00
         21   -1    0    0  501  502  0.00000000000E+00  0.00000000000E+00  0.82612164569E+01  0.82612164569E+01  0.00000000000E+00 0.  1.
          2   -1    0    0  502    0 -0.00000000000E+00 -0.00000000000E+00 -0.95682275423E+03  0.95682275423E+03  0.00000000000E+00 0. -1.
         24    2    1    2    0    0  0.62292965189E+02  0.27454912996E+02 -0.51029856541E+03  0.52156551706E+03  0.83616846215E+02 0.  0.
        -13    1    3    3    0    0  0.80975439346E+02  0.34174741157E+02 -0.40834421392E+03  0.41769598006E+03  0.00000000000E+00 0.  1.
         14    1    3    3    0    0 -0.18682474157E+02 -0.67198281611E+01 -0.10195435149E+03  0.10386953701E+03  0.00000000000E+00 0. -1.
          1    1    1    2  501    0 -0.62292965189E+02 -0.27454912996E+02 -0.43826297237E+03  0.44351845363E+03  0.00000000000E+00 0. -1.
<mgrwt>
<rscale>  1 0.10782376E+03</rscale>
<asrwt>0</asrwt>
<pdfrwt beam="1">  1       21 0.12709561E-02 0.10782376E+03</pdfrwt>
<pdfrwt beam="2">  1        2 0.14720353E+00 0.10782376E+03</pdfrwt>
<totfact> 0.87814470E+05</totfact>
</mgrwt>
</event>
<event>
 6    2  0.9453093E+000  0.9395345E+02  0.7546771E-02  0.1293551E+00
          2   -1    0    0  502    0 -0.00000000000E+00  0.00000000000E+00  0.82674383399E+01  0.82674383399E+01  0.00000000000E+00 0. -1.
         21   -1    0    0  501  502  0.00000000000E+00 -0.00000000000E+00 -0.74390152058E+03  0.74390152058E+03  0.00000000000E+00 0. -1.
         24    2    1    2    0    0 -0.48690018476E+02 -0.98326478342E+01 -0.31793375914E+03  0.33152545335E+03  0.79748681202E+02 0.  0.
        -11    1    3    3    0    0 -0.56302650493E+02  0.22576959417E+02 -0.20447387165E+03  0.21328214116E+03  0.00000000000E+00 0.  1.
         12    1    3    3    0    0  0.76126320177E+01 -0.32409607251E+02 -0.11345988749E+03  0.11824331219E+03  0.00000000000E+00 0. -1.
          1    1    1    2  501    0  0.48690018476E+02  0.98326478342E+01 -0.41770032310E+03  0.42064350557E+03  0.00000000000E+00 0. -1.
<mgrwt>
<rscale>  1 0.93953451E+02</rscale>
<asrwt>0</asrwt>
<pdfrwt beam="1">  1       21 0.11444641E+00 0.93953451E+02</pdfrwt>
<pdfrwt beam="2">  1        2 0.12719134E-02 0.93953451E+02</pdfrwt>
<totfact> 0.70855173E+04</totfact>
</mgrwt>
</event>
<event>
 6    2  0.9453093E+000  0.1107306E+03  0.7546771E-02  0.1259223E+00
          2   -1    0    0  502    0 -0.00000000000E+00  0.00000000000E+00  0.16762913203E+03  0.16762913203E+03  0.00000000000E+00 0. -1.
         21   -1    0    0  501  502  0.00000000000E+00 -0.00000000000E+00 -0.52911862513E+02  0.52911862513E+02  0.00000000000E+00 0. -1.
         24    2    1    2    0    0 -0.47937562305E+02 -0.59785501163E+02  0.78821046062E+02  0.13591915996E+03  0.79930874595E+02 0.  0.
        -11    1    3    3    0    0  0.11233619568E+02  0.64108234662E+00 -0.86919985390E+01  0.14218158593E+02  0.00000000000E+00 0.  1.
         12    1    3    3    0    0 -0.59171181873E+02 -0.60426583509E+02  0.87513044601E+02  0.12170100137E+03  0.00000000000E+00 0. -1.
          1    1    1    2  501    0  0.47937562305E+02  0.59785501163E+02  0.35896223452E+02  0.84621834577E+02  0.00000000000E+00 0. -1.
<mgrwt>
<rscale>  1 0.11073058E+03</rscale>
<asrwt>0</asrwt>
<pdfrwt beam="1">  1       21 0.81402866E-02 0.11073058E+03</pdfrwt>
<pdfrwt beam="2">  1        2 0.25789097E-01 0.11073058E+03</pdfrwt>
<totfact> 0.28781295E+05</totfact>
</mgrwt>
</event>
<event>
 6    2  0.9453093E+000  0.9818832E+02  0.7546771E-02  0.1284152E+00
         21   -1    0    0  501  502  0.00000000000E+00  0.00000000000E+00  0.54144317694E+01  0.54144317694E+01  0.00000000000E+00 0.  1.
          2   -1    0    0  502    0 -0.00000000000E+00 -0.00000000000E+00 -0.12558755926E+04  0.12558755926E+04  0.00000000000E+00 0. -1.
         24    2    1    2    0    0 -0.35060476336E+02 -0.41266480112E+02 -0.54659761932E+03  0.55534665239E+03  0.81907188248E+02 0.  0.
        -11    1    3    3    0    0 -0.40967167906E+02  0.12521836182E+02 -0.19864224065E+03  0.20320887037E+03  0.00000000000E+00 0.  1.
         12    1    3    3    0    0  0.59066915702E+01 -0.53788316294E+02 -0.34795537867E+03  0.35213778201E+03  0.00000000000E+00 0. -1.
          1    1    1    2  501    0  0.35060476336E+02  0.41266480112E+02 -0.70386354151E+03  0.70594337198E+03  0.00000000000E+00 0. -1.
<mgrwt>
<rscale>  1 0.98188323E+02</rscale>
<asrwt>0</asrwt>
<pdfrwt beam="1">  1       21 0.83298963E-03 0.98188323E+02</pdfrwt>
<pdfrwt beam="2">  1        2 0.19321160E+00 0.98188323E+02</pdfrwt>
<totfact> 0.11466163E+06</totfact>
</mgrwt>
</event>
<event>
 6    2  0.9453093E+000  0.8342400E+02  0.7546771E-02  0.1319606E+00
          2   -1    0    0  502    0 -0.00000000000E+00  0.00000000000E+00  0.80640676703E+02  0.80640676703E+02  0.00000000000E+00 0. -1.
         21   -1    0    0  501  502  0.00000000000E+00 -0.00000000000E+00 -0.51643149706E+02  0.51643149706E+02  0.00000000000E+00 0. -1.
         24    2    1    2    0    0  0.52014325183E+01  0.22547314284E+02  0.53085748595E+02  0.98882049489E+02  0.80150650188E+02 0.  0.
        -13    1    3    3    0    0 -0.10873108824E+01 -0.22463027323E+02  0.48180236740E+02  0.53170528056E+02  0.00000000000E+00 0.  1.
         14    1    3    3    0    0  0.62887434007E+01  0.45010341607E+02  0.49055118554E+01  0.45711521432E+02  0.00000000000E+00 0. -1.
          1    1    1    2  501    0 -0.52014325183E+01 -0.22547314284E+02 -0.24088221598E+02  0.33401776920E+02  0.00000000000E+00 0. -1.
<mgrwt>
<rscale>  1 0.83423995E+02</rscale>
<asrwt>0</asrwt>
<pdfrwt beam="1">  1       21 0.79451000E-02 0.83423995E+02</pdfrwt>
<pdfrwt beam="2">  1        2 0.12406258E-01 0.83423995E+02</pdfrwt>
<totfact> 0.67167662E+05</totfact>
</mgrwt>
</event>
<event>
 6    2  0.9453093E+000  0.8720557E+02  0.7546771E-02  0.1309763E+00
          2   -1    0    0  502    0 -0.00000000000E+00  0.00000000000E+00  0.12500076229E+03  0.12500076229E+03  0.00000000000E+00 0. -1.
         21   -1    0    0  501  502  0.00000000000E+00 -0.00000000000E+00 -0.23452679715E+02  0.23452679715E+02  0.00000000000E+00 0.  1.
         24    2    1    2    0    0 -0.91068628516E+01  0.18717683371E+02  0.85944779595E+02  0.12243902897E+03  0.84684851381E+02 0.  0.
        -13    1    3    3    0    0  0.95498509224E+01 -0.51094562787E+00 -0.15115940537E+02  0.17887212650E+02  0.00000000000E+00 0.  1.
         14    1    3    3    0    0 -0.18656713774E+02  0.19228628999E+02  0.10106072013E+03  0.10455181632E+03  0.00000000000E+00 0. -1.
          1    1    1    2  501    0  0.91068628516E+01 -0.18717683371E+02  0.15603302983E+02  0.26014413039E+02  0.00000000000E+00 0. -1.
<mgrwt>
<rscale>  1 0.87205566E+02</rscale>
<asrwt>0</asrwt>
<pdfrwt beam="1">  1       21 0.36081046E-02 0.87205566E+02</pdfrwt>
<pdfrwt beam="2">  1        2 0.19230886E-01 0.87205566E+02</pdfrwt>
<totfact> 0.15221071E+06</totfact>
</mgrwt>
</event>
<event>
 6    2  0.9453093E+000  0.1451603E+03  0.7546771E-02  0.1206549E+00
         -1   -1    0    0    0  501 -0.00000000000E+00  0.00000000000E+00  0.47157276933E+02  0.47157276933E+02  0.00000000000E+00 0.  1.
         21   -1    0    0  501  502  0.00000000000E+00 -0.00000000000E+00 -0.48591377686E+03  0.48591377686E+03  0.00000000000E+00 0.  1.
         24    2    1    2    0    0 -0.20724848595E+02  0.11534901285E+03 -0.10449437021E+03  0.17885913209E+03  0.85653964365E+02 0.  0.
        -13    1    3    3    0    0 -0.25705558050E+02  0.35633814535E+02  0.40181226449E+01  0.44121307354E+02  0.00000000000E+00 0.  1.
         14    1    3    3    0    0  0.49807094547E+01  0.79715198311E+02 -0.10851249285E+03  0.13473782473E+03  0.00000000000E+00 0. -1.
         -2    1    1    2    0  502  0.20724848595E+02 -0.11534901285E+03 -0.33426212972E+03  0.35421192170E+03  0.00000000000E+00 0.  1.
<mgrwt>
<rscale>  1 0.14516031E+03</rscale>
<asrwt>0</asrwt>
<pdfrwt beam="1">  1       21 0.74755969E-01 0.14516031E+03</pdfrwt>
<pdfrwt beam="2">  1       -1 0.72549654E-02 0.14516031E+03</pdfrwt>
<totfact> 0.14285262E+04</totfact>
</mgrwt>
</event>
<event>
 6    2  0.9453093E+000  0.8416185E+02  0.7546771E-02  0.1317639E+00
          2   -1    0    0  502    0 -0.00000000000E+00  0.00000000000E+00  0.62292936027E+03  0.62292936027E+03  0.00000000000E+00 0. -1.
         21   -1    0    0  501  502  0.00000000000E+00 -0.00000000000E+00 -0.17499064599E+02  0.17499064599E+02  0.00000000000E+00 0. -1.
         24    2    1    2    0    0  0.14097397292E+02 -0.19916000950E+02  0.60985080534E+03  0.61563075139E+03  0.80547089205E+02 0.  0.
        -13    1    3    3    0    0  0.57339163653E+01  0.40565746872E+00  0.37667733688E+00  0.57605764193E+01  0.00000000000E+00 0.  1.
         14    1    3    3    0    0  0.83634809269E+01 -0.20321658419E+02  0.60947412800E+03  0.60987017497E+03  0.00000000000E+00 0. -1.
          1    1    1    2  501    0 -0.14097397292E+02  0.19916000950E+02 -0.44205096678E+01  0.24797673479E+02  0.00000000000E+00 0. -1.
<mgrwt>
<rscale>  1 0.84161852E+02</rscale>
<asrwt>0</asrwt>
<pdfrwt beam="1">  1       21 0.26921643E-02 0.84161852E+02</pdfrwt>
<pdfrwt beam="2">  1        2 0.95835269E-01 0.84161852E+02</pdfrwt>
<totfact> 0.43796457E+05</totfact>
</mgrwt>
</event>
<event>
 6    2  0.9453093E+000  0.8922427E+02  0.7546771E-02  0.1304741E+00
          4   -1    0    0  502    0 -0.00000000000E+00  0.00000000000E+00  0.27187873459E+02  0.27187873459E+02  0.00000000000E+00 0. -1.
         21   -1    0    0  501  502  0.00000000000E+00 -0.00000000000E+00 -0.25691847449E+03  0.25691847449E+03  0.00000000000E+00 0.  1.
         24    2    1    2    0    0 -0.28260262478E+02 -0.26430253982E+02 -0.22860077245E+03  0.24539617779E+03  0.80397575522E+02 0.  0.
        -11    1    3    3    0    0 -0.20033763090E+01 -0.33375560669E+02 -0.20959899105E+03  0.21224909568E+03  0.00000000000E+00 0.  1.
         12    1    3    3    0    0 -0.26256886169E+02  0.69453066868E+01 -0.19001781394E+02  0.33147082111E+02  0.00000000000E+00 0. -1.
          3    1    1    2  501    0  0.28260262478E+02  0.26430253982E+02 -0.11298285810E+01  0.38710170156E+02  0.00000000000E+00 0. -1.
<mgrwt>
<rscale>  1 0.89224273E+02</rscale>
<asrwt>0</asrwt>
<pdfrwt beam="1">  1       21 0.39525917E-01 0.89224273E+02</pdfrwt>
<pdfrwt beam="2">  1        4 0.41827500E-02 0.89224273E+02</pdfrwt>
<totfact> 0.75412817E+04</totfact>
</mgrwt>
</event>
<event>
 6    2  0.9453093E+000  0.1526238E+03  0.7546771E-02  0.1197285E+00
         21   -1    0    0  501  502  0.00000000000E+00  0.00000000000E+00  0.21518422199E+02  0.21518422199E+02  0.00000000000E+00 0. -1.
          2   -1    0    0  502    0 -0.00000000000E+00 -0.00000000000E+00 -0.92636458503E+03  0.92636458503E+03  0.00000000000E+00 0. -1.
         24    2    1    2    0    0  0.12031076427E+03  0.48285771174E+02 -0.50256334722E+03  0.52522752171E+03  0.80547103642E+02 0.  0.
        -11    1    3    3    0    0  0.98965017829E+02  0.18439213583E+00 -0.29798772205E+03  0.31399170570E+03  0.00000000000E+00 0.  1.
         12    1    3    3    0    0  0.21345746438E+02  0.48101379038E+02 -0.20457562516E+03  0.21123581601E+03  0.00000000000E+00 0. -1.
          1    1    1    2  501    0 -0.12031076427E+03 -0.48285771174E+02 -0.40228281562E+03  0.42265548552E+03  0.00000000000E+00 0. -1.
<mgrwt>
<rscale>  1 0.15262382E+03</rscale>
<asrwt>0</asrwt>
<pdfrwt beam="1">  1       21 0.33105262E-02 0.15262382E+03</pdfrwt>
<pdfrwt beam="2">  1        2 0.14251764E+00 0.15262382E+03</pdfrwt>
<totfact> 0.19842499E+05</totfact>
</mgrwt>
</event>
<event>
 6    2  0.9453093E+000  0.8672602E+02  0.7546771E-02  0.1310980E+00
         21   -1    0    0  501  502  0.00000000000E+00  0.00000000000E+00  0.17615303496E+01  0.17615303496E+01  0.00000000000E+00 0. -1.
          2   -1    0    0  502    0 -0.00000000000E+00 -0.00000000000E+00 -0.25445002025E+04  0.25445002025E+04  0.00000000000E+00 0. -1.
         24    2    1    2    0    0 -0.30914578841E+02  0.11936554244E+02 -0.22468404632E+04  0.22485136135E+04  0.80144934602E+02 0.  0.
        -11    1    3    3    0    0  0.22476066705E+01  0.11929156660E+02 -0.51074659348E+02  0.52497403191E+02  0.00000000000E+00 0.  1.
         12    1    3    3    0    0 -0.33162185511E+02  0.73975836013E-02 -0.21957658038E+04  0.21960162103E+04  0.00000000000E+00 0. -1.
          1    1    1    2  501    0  0.30914578841E+02 -0.11936554244E+02 -0.29589820902E+03  0.29774811941E+03  0.00000000000E+00 0. -1.
<mgrwt>
<rscale>  1 0.86726023E+02</rscale>
<asrwt>0</asrwt>
<pdfrwt beam="1">  1       21 0.27100412E-03 0.86726023E+02</pdfrwt>
<pdfrwt beam="2">  1        2 0.39146236E+00 0.86726023E+02</pdfrwt>
<totfact> 0.13945809E+06</totfact>
</mgrwt>
</event>
<event>
 6    2  0.9453093E+000  0.1081568E+03  0.7546771E-02  0.1264022E+00
          2   -1    0    0  502    0 -0.00000000000E+00  0.00000000000E+00  0.25077905044E+04  0.25077905044E+04  0.00000000000E+00 0. -1.
         21   -1    0    0  501  502  0.00000000000E+00 -0.00000000000E+00 -0.33640219188E+01  0.33640219188E+01  0.00000000000E+00 0. -1.
         24    2    1    2    0    0 -0.75298078888E+02 -0.20969626983E+01  0.15353776263E+04  0.15391823644E+04  0.77612482947E+02 0.  0.
        -13    1    3    3    0    0  0.14046454038E+02 -0.11721075235E+02  0.25725674677E+03  0.25790641760E+03  0.00000000000E+00 0.  1.
         14    1    3    3    0    0 -0.89344532926E+02  0.96241125365E+01  0.12781208795E+04  0.12812759468E+04  0.00000000000E+00 0. -1.
          1    1    1    2  501    0  0.75298078888E+02  0.20969626983E+01  0.96904885615E+03  0.97197216191E+03  0.00000000000E+00 0. -1.
<mgrwt>
<rscale>  1 0.10815681E+03</rscale>
<asrwt>0</asrwt>
<pdfrwt beam="1">  1       21 0.51754384E-03 0.10815681E+03</pdfrwt>
<pdfrwt beam="2">  1        2 0.38581243E+00 0.10815681E+03</pdfrwt>
<totfact> 0.54763588E+05</totfact>
</mgrwt>
</event>
<event>
 6    2  0.9453093E+000  0.8552989E+02  0.7546771E-02  0.1314053E+00
          2   -1    0    0  502    0 -0.00000000000E+00  0.00000000000E+00  0.24008922330E+04  0.24008922330E+04  0.00000000000E+00 0. -1.
         21   -1    0    0  501  502  0.00000000000E+00 -0.00000000000E+00 -0.57329204210E+01  0.57329204210E+01  0.00000000000E+00 0. -1.
         24    2    1    2    0    0 -0.26882786624E+02  0.12482656373E+02  0.23558088916E+04  0.23573610026E+04  0.80230055602E+02 0.  0.
        -13    1    3    3    0    0 -0.29779177695E+02 -0.28779357280E+02  0.88191496494E+03  0.88288677429E+03  0.00000000000E+00 0.  1.
         14    1    3    3    0    0  0.28963910710E+01  0.41262013653E+02  0.14738939266E+04  0.14744742283E+04  0.00000000000E+00 0. -1.
          1    1    1    2  501    0  0.26882786624E+02 -0.12482656373E+02  0.39350420981E+02  0.49264150842E+02  0.00000000000E+00 0. -1.
<mgrwt>
<rscale>  1 0.85529894E+02</rscale>
<asrwt>0</asrwt>
<pdfrwt beam="1">  1       21 0.88198967E-03 0.85529894E+02</pdfrwt>
<pdfrwt beam="2">  1        2 0.36936723E+00 0.85529894E+02</pdfrwt>
<totfact> 0.27227596E+05</totfact>
</mgrwt>
</event>
<event>
 6    2  0.9453093E+000  0.1039105E+03  0.7546771E-02  0.1272281E+00
          2   -1    0    0  502    0 -0.00000000000E+00  0.00000000000E+00  0.18802936612E+04  0.18802936612E+04  0.00000000000E+00 0. -1.
         21   -1    0    0  501  502  0.00000000000E+00 -0.00000000000E+00 -0.39684136734E+01  0.39684136734E+01  0.00000000000E+00 0.  1.
         24    2    1    2    0    0  0.46505232135E+02  0.45187473192E+02  0.94882066046E+03  0.95449360725E+03  0.81195789447E+02 0.  0.
        -11    1    3    3    0    0 -0.14147721146E+02  0.72563921302E+00  0.37686787058E+02  0.40261377083E+02  0.00000000000E+00 0.  1.
         12    1    3    3    0    0  0.60652953282E+02  0.44461833979E+02  0.91113387340E+03  0.91423223017E+03  0.00000000000E+00 0. -1.
          1    1    1    2  501    0 -0.46505232135E+02 -0.45187473192E+02  0.92750458707E+03  0.92976846762E+03  0.00000000000E+00 0. -1.
<mgrwt>
<rscale>  1 0.10391054E+03</rscale>
<asrwt>0</asrwt>
<pdfrwt beam="1">  1       21 0.61052668E-03 0.10391054E+03</pdfrwt>
<pdfrwt beam="2">  1        2 0.28927524E+00 0.10391054E+03</pdfrwt>
<totfact> 0.89040952E+05</totfact>
</mgrwt>
</event>
<event>
 6    2  0.9453093E+000  0.8234763E+02  0.7546771E-02  0.1322518E+00
         21   -1    0    0  501  502  0.00000000000E+00  0.00000000000E+00  0.11684857101E+03  0.11684857101E+03  0.00000000000E+00 0.  1.
          2   -1    0    0  502    0 -0.00000000000E+00 -0.00000000000E+00 -0.26551783209E+02  0.26551783209E+02  0.00000000000E+00 0. -1.
         24    2    1    2    0    0 -0.14479070715E+02 -0.18650564524E+02  0.86599459478E+02  0.11950145712E+03  0.78890080654E+02 0.  0.
        -13    1    3    3    0    0 -0.22659279925E+02 -0.33904329091E+02  0.92600423313E+02  0.10118193957E+03  0.00000000000E+00 0.  1.
         14    1    3    3    0    0  0.81802092096E+01  0.15253764567E+02 -0.60009638347E+01  0.18319517546E+02  0.00000000000E+00 0. -1.
          1    1    1    2  501    0  0.14479070715E+02  0.18650564524E+02  0.36973283203E+01  0.23898897099E+02  0.00000000000E+00 0. -1.
<mgrwt>
<rscale>  1 0.82347628E+02</rscale>
<asrwt>0</asrwt>
<pdfrwt beam="1">  1       21 0.17976703E-01 0.82347628E+02</pdfrwt>
<pdfrwt beam="2">  1        2 0.40848898E-02 0.82347628E+02</pdfrwt>
<totfact> 0.64096591E+05</totfact>
</mgrwt>
</event>
<event>
 6    2  0.9453093E+000  0.8922619E+02  0.7546771E-02  0.1304736E+00
          2   -1    0    0  502    0 -0.00000000000E+00  0.00000000000E+00  0.11624349114E+03  0.11624349114E+03  0.00000000000E+00 0. -1.
         21   -1    0    0  501  502  0.00000000000E+00 -0.00000000000E+00 -0.44388670292E+02  0.44388670292E+02  0.00000000000E+00 0. -1.
         24    2    1    2    0    0 -0.10827688381E+02 -0.19452146592E+02  0.93738457751E+02  0.12941488406E+03  0.86404218135E+02 0.  0.
        -13    1    3    3    0    0  0.35527207122E+02 -0.18304594296E+02  0.27316917296E+02  0.48409240738E+02  0.00000000000E+00 0.  1.
         14    1    3    3    0    0 -0.46354895503E+02 -0.11475522960E+01  0.66421540455E+02  0.81005643320E+02  0.00000000000E+00 0. -1.
          1    1    1    2  501    0  0.10827688381E+02  0.19452146592E+02 -0.21883636902E+02  0.31217277376E+02  0.00000000000E+00 0. -1.
<mgrwt>
<rscale>  1 0.89226194E+02</rscale>
<asrwt>0</asrwt>
<pdfrwt beam="1">  1       21 0.68290262E-02 0.89226194E+02</pdfrwt>
<pdfrwt beam="2">  1        2 0.17883614E-01 0.89226194E+02</pdfrwt>
<totfact> 0.57310266E+05</totfact>
</mgrwt>
</event>
<event>
 6    2  0.1151227E+001  0.9141013E+02  0.7546771E-02  0.1299472E+00
         21   -1    0    0  501  502  0.00000000000E+00  0.00000000000E+00  0.49111657110E+02  0.49111657110E+02  0.00000000000E+00 0. -1.
         -3   -1    0    0    0  501 -0.00000000000E+00 -0.00000000000E+00 -0.12080123066E+03  0.12080123066E+03  0.00000000000E+00 0.  1.
         24    2    1    2    0    0  0.58901587930E+01  0.40139820993E+02 -0.46188044829E+01  0.91526745735E+02  0.81914056364E+02 0.  0.
        -11    1    3    3    0    0 -0.39975589715E+01 -0.15724477604E+02 -0.26209247348E+02  0.30824735525E+02  0.00000000000E+00 0.  1.
         12    1    3    3    0    0  0.98877177645E+01  0.55864298598E+02  0.21590442865E+02  0.60702010210E+02  0.00000000000E+00 0. -1.
         -4    1    1    2    0  502 -0.58901587930E+01 -0.40139820993E+02 -0.67070769064E+02  0.78386142033E+02  0.00000000000E+00 0.  1.
<mgrwt>
<rscale>  1 0.91410130E+02</rscale>
<asrwt>0</asrwt>
<pdfrwt beam="1">  1       21 0.75556396E-02 0.91410130E+02</pdfrwt>
<pdfrwt beam="2">  1       -3 0.18584805E-01 0.91410130E+02</pdfrwt>
<totfact> 0.15223110E+05</totfact>
</mgrwt>
</event>
<event>
 6    2  0.9453093E+000  0.6729488E+02  0.7546771E-02  0.1369541E+00
          2   -1    0    0  502    0 -0.00000000000E+00  0.00000000000E+00  0.13971934032E+04  0.13971934032E+04  0.00000000000E+00 0. -1.
         21   -1    0    0  501  502  0.00000000000E+00 -0.00000000000E+00 -0.21477597931E+01  0.21477597931E+01  0.00000000000E+00 0.  1.
         24    2    1    2    0    0 -0.28073199670E+02 -0.14700293559E+02  0.61869447108E+03  0.62234351439E+03  0.59366641985E+02 0.  0.
        -13    1    3    3    0    0 -0.26028365059E+02 -0.21442094267E+02  0.15635559783E+03  0.15995096801E+03  0.00000000000E+00 0.  1.
         14    1    3    3    0    0 -0.20448346113E+01  0.67418007080E+01  0.46233887325E+03  0.46239254637E+03  0.00000000000E+00 0. -1.
          1    1    1    2  501    0  0.28073199670E+02  0.14700293559E+02  0.77635117229E+03  0.77699764857E+03  0.00000000000E+00 0. -1.
<mgrwt>
<rscale>  1 0.67294884E+02</rscale>
<asrwt>0</asrwt>
<pdfrwt beam="1">  1       21 0.33042570E-03 0.67294884E+02</pdfrwt>
<pdfrwt beam="2">  1        2 0.21495211E+00 0.67294884E+02</pdfrwt>
<totfact> 0.38494659E+06</totfact>
</mgrwt>
</event>
<event>
 6    2  0.9453093E+000  0.8128487E+02  0.7546771E-02  0.1325444E+00
         21   -1    0    0  501  502  0.00000000000E+00  0.00000000000E+00  0.67615768415E+01  0.67615768415E+01  0.00000000000E+00 0.  1.
          2   -1    0    0  502    0 -0.00000000000E+00 -0.00000000000E+00 -0.60358418428E+03  0.60358418428E+03  0.00000000000E+00 0. -1.
         24    2    1    2    0    0 -0.11771537110E+02 -0.27175087125E+02 -0.54176194194E+03  0.54782591362E+03  0.75697922404E+02 0.  0.
        -11    1    3    3    0    0 -0.24380300151E+02 -0.49701220137E+02 -0.38253737780E+03  0.38652225774E+03  0.00000000000E+00 0.  1.
         12    1    3    3    0    0  0.12608763042E+02  0.22526133012E+02 -0.15922456414E+03  0.16130365587E+03  0.00000000000E+00 0. -1.
          1    1    1    2  501    0  0.11771537110E+02  0.27175087125E+02 -0.55060665506E+02  0.62519847506E+02  0.00000000000E+00 0. -1.
<mgrwt>
<rscale>  1 0.81284869E+02</rscale>
<asrwt>0</asrwt>
<pdfrwt beam="1">  1       21 0.10402428E-02 0.81284869E+02</pdfrwt>
<pdfrwt beam="2">  1        2 0.92859086E-01 0.81284869E+02</pdfrwt>
<totfact> 0.20446058E+06</totfact>
</mgrwt>
</event>
<event>
 6    2  0.9453093E+000  0.8472191E+02  0.7546771E-02  0.1316161E+00
         21   -1    0    0  501  502  0.00000000000E+00  0.00000000000E+00  0.21108805821E+01  0.21108805821E+01  0.00000000000E+00 0. -1.
          2   -1    0    0  502    0 -0.00000000000E+00 -0.00000000000E+00 -0.15833913234E+04  0.15833913234E+04  0.00000000000E+00 0. -1.
         24    2    1    2    0    0  0.17103112477E+02  0.17691061559E+02 -0.13997500642E+04  0.14023116789E+04  0.81069799934E+02 0.  0.
        -13    1    3    3    0    0  0.33587859773E+02 -0.23072493952E+02 -0.66813968995E+03  0.66938115419E+03  0.00000000000E+00 0.  1.
         14    1    3    3    0    0 -0.16484747296E+02  0.40763555512E+02 -0.73161037421E+03  0.73293052468E+03  0.00000000000E+00 0. -1.
          1    1    1    2  501    0 -0.17103112477E+02 -0.17691061559E+02 -0.18153037867E+03  0.18319052512E+03  0.00000000000E+00 0. -1.
<mgrwt>
<rscale>  1 0.84721913E+02</rscale>
<asrwt>0</asrwt>
<pdfrwt beam="1">  1       21 0.32475108E-03 0.84721913E+02</pdfrwt>
<pdfrwt beam="2">  1        2 0.24359850E+00 0.84721913E+02</pdfrwt>
<totfact> 0.32539765E+06</totfact>
</mgrwt>
</event>
<event>
 6    2  0.9453093E+000  0.9018884E+02  0.7546771E-02  0.1302395E+00
          2   -1    0    0  502    0 -0.00000000000E+00  0.00000000000E+00  0.33978073949E+04  0.33978073949E+04  0.00000000000E+00 0. -1.
         21   -1    0    0  501  502  0.00000000000E+00 -0.00000000000E+00 -0.15412893228E+01  0.15412893228E+01  0.00000000000E+00 0.  1.
         24    2    1    2    0    0 -0.75509780922E+01 -0.29195257128E+02  0.31429797819E+04  0.31442735148E+04  0.84997917335E+02 0.  0.
        -13    1    3    3    0    0  0.13301847527E+01 -0.29625261385E+02  0.34298913423E+03  0.34426874924E+03  0.00000000000E+00 0.  1.
         14    1    3    3    0    0 -0.88811628450E+01  0.43000425708E+00  0.27999906477E+04  0.28000047655E+04  0.00000000000E+00 0. -1.
          1    1    1    2  501    0  0.75509780922E+01  0.29195257128E+02  0.25328632371E+03  0.25507516948E+03  0.00000000000E+00 0. -1.
<mgrwt>
<rscale>  1 0.90188837E+02</rscale>
<asrwt>0</asrwt>
<pdfrwt beam="1">  1       21 0.23712415E-03 0.90188837E+02</pdfrwt>
<pdfrwt beam="2">  1        2 0.52273361E+00 0.90188837E+02</pdfrwt>
<totfact> 0.55861487E+05</totfact>
</mgrwt>
</event>
<event>
 6    2  0.9453093E+000  0.8471239E+02  0.7546771E-02  0.1316186E+00
          2   -1    0    0  502    0 -0.00000000000E+00  0.00000000000E+00  0.21227227631E+04  0.21227227631E+04  0.00000000000E+00 0. -1.
         21   -1    0    0  501  502  0.00000000000E+00 -0.00000000000E+00 -0.26196854942E+01  0.26196854942E+01  0.00000000000E+00 0. -1.
         24    2    1    2    0    0 -0.21119991976E+02  0.13832074238E+02  0.20300683425E+04  0.20318350485E+04  0.80862902077E+02 0.  0.
        -13    1    3    3    0    0 -0.50639258270E+01  0.29108936658E+02  0.26740021608E+03  0.26902759914E+03  0.00000000000E+00 0.  1.
         14    1    3    3    0    0 -0.16056066149E+02 -0.15276862420E+02  0.17626681264E+04  0.17628074494E+04  0.00000000000E+00 0. -1.
          1    1    1    2  501    0  0.21119991976E+02 -0.13832074238E+02  0.90034735135E+02  0.93507400080E+02  0.00000000000E+00 0. -1.
<mgrwt>
<rscale>  1 0.84712391E+02</rscale>
<asrwt>0</asrwt>
<pdfrwt beam="1">  1       21 0.40303024E-03 0.84712391E+02</pdfrwt>
<pdfrwt beam="2">  1        2 0.32657136E+00 0.84712391E+02</pdfrwt>
<totfact> 0.12583936E+06</totfact>
</mgrwt>
</event>
<event>
 6    2  0.9453093E+000  0.9055974E+02  0.7546771E-02  0.1301502E+00
         -3   -1    0    0    0  501 -0.00000000000E+00  0.00000000000E+00  0.99812671344E+01  0.99812671344E+01  0.00000000000E+00 0.  1.
         21   -1    0    0  501  502  0.00000000000E+00 -0.00000000000E+00 -0.56977139559E+03  0.56977139559E+03  0.00000000000E+00 0.  1.
         24    2    1    2    0    0 -0.37624848751E+02  0.18585166339E+01 -0.22042067872E+03  0.23829884924E+03  0.82352793609E+02 0.  0.
        -11    1    3    3    0    0 -0.48050661327E+02 -0.17457404501E+01 -0.57280576091E+02  0.74786215715E+02  0.00000000000E+00 0.  1.
         12    1    3    3    0    0  0.10425812576E+02  0.36042570840E+01 -0.16314010263E+03  0.16351263353E+03  0.00000000000E+00 0. -1.
         -4    1    1    2    0  502  0.37624848751E+02 -0.18585166339E+01 -0.33936944973E+03  0.34145381348E+03  0.00000000000E+00 0.  1.
<mgrwt>
<rscale>  1 0.90559737E+02</rscale>
<asrwt>0</asrwt>
<pdfrwt beam="1">  1       21 0.87657139E-01 0.90559737E+02</pdfrwt>
<pdfrwt beam="2">  1       -3 0.15355795E-02 0.90559737E+02</pdfrwt>
<totfact> 0.73582071E+04</totfact>
</mgrwt>
</event>
<event>
 6    2  0.9453093E+000  0.8291592E+02  0.7546771E-02  0.1320974E+00
         21   -1    0    0  501  502  0.00000000000E+00  0.00000000000E+00  0.83554678503E+01  0.83554678503E+01  0.00000000000E+00 0.  1.
          2   -1    0    0  502    0 -0.00000000000E+00 -0.00000000000E+00 -0.36941713717E+03  0.36941713717E+03  0.00000000000E+00 0. -1.
         24    2    1    2    0    0  0.22165939971E+02 -0.52646709795E+01 -0.22447963107E+03  0.23930347911E+03  0.79724555175E+02 0.  0.
        -11    1    3    3    0    0  0.25126644217E+02  0.42511913412E+01 -0.14966838657E+02  0.29553800717E+02  0.00000000000E+00 0.  1.
         12    1    3    3    0    0 -0.29607042455E+01 -0.95158623206E+01 -0.20951279241E+03  0.20974967840E+03  0.00000000000E+00 0. -1.
          1    1    1    2  501    0 -0.22165939971E+02  0.52646709795E+01 -0.13658203826E+03  0.13846912591E+03  0.00000000000E+00 0. -1.
<mgrwt>
<rscale>  1 0.82915923E+02</rscale>
<asrwt>0</asrwt>
<pdfrwt beam="1">  1       21 0.12854567E-02 0.82915923E+02</pdfrwt>
<pdfrwt beam="2">  1        2 0.56833399E-01 0.82915923E+02</pdfrwt>
<totfact> 0.24892321E+06</totfact>
</mgrwt>
</event>
<event>
 6    2  0.9453093E+000  0.8441546E+02  0.7546771E-02  0.1316968E+00
          2   -1    0    0  502    0 -0.00000000000E+00  0.00000000000E+00  0.18449800453E+03  0.18449800453E+03  0.00000000000E+00 0. -1.
         21   -1    0    0  501  502  0.00000000000E+00 -0.00000000000E+00 -0.15530954799E+02  0.15530954799E+02  0.00000000000E+00 0.  1.
         24    2    1    2    0    0 -0.18329084878E+02  0.12599618777E+02  0.12631295187E+03  0.15192409668E+03  0.81432570860E+02 0.  0.
        -11    1    3    3    0    0 -0.26020225172E+02  0.44445278332E+02  0.81600853319E+02  0.96494218202E+02  0.00000000000E+00 0.  1.
         12    1    3    3    0    0  0.76911402939E+01 -0.31845659555E+02  0.44712098551E+02  0.55429878480E+02  0.00000000000E+00 0. -1.
          1    1    1    2  501    0  0.18329084878E+02 -0.12599618777E+02  0.42654097858E+02  0.48104862643E+02  0.00000000000E+00 0. -1.
<mgrwt>
<rscale>  1 0.84415457E+02</rscale>
<asrwt>0</asrwt>
<pdfrwt beam="1">  1       21 0.23893778E-02 0.84415457E+02</pdfrwt>
<pdfrwt beam="2">  1        2 0.28384307E-01 0.84415457E+02</pdfrwt>
<totfact> 0.19310109E+06</totfact>
</mgrwt>
</event>
<event>
 6    2  0.9604462E+000  0.8525547E+02  0.7546771E-02  0.1314766E+00
         -3   -1    0    0    0  501 -0.00000000000E+00  0.00000000000E+00  0.68621305777E+02  0.68621305777E+02  0.00000000000E+00 0.  1.
         21   -1    0    0  501  502  0.00000000000E+00 -0.00000000000E+00 -0.52026837129E+02  0.52026837129E+02  0.00000000000E+00 0. -1.
         24    2    1    2    0    0 -0.24453436168E+02 -0.15094261475E+02 -0.39114763661E+01  0.85345153644E+02  0.80266358665E+02 0.  0.
        -11    1    3    3    0    0  0.19429818389E+02  0.35458674741E+01  0.23223347493E+02  0.30486306558E+02  0.00000000000E+00 0.  1.
         12    1    3    3    0    0 -0.43883254557E+02 -0.18640128949E+02 -0.27134823859E+02  0.54858847086E+02  0.00000000000E+00 0. -1.
         -4    1    1    2    0  502  0.24453436168E+02  0.15094261475E+02  0.20505945014E+02  0.35302989262E+02  0.00000000000E+00 0.  1.
<mgrwt>
<rscale>  1 0.85255473E+02</rscale>
<asrwt>0</asrwt>
<pdfrwt beam="1">  1       21 0.80041287E-02 0.85255473E+02</pdfrwt>
<pdfrwt beam="2">  1       -3 0.10557124E-01 0.85255473E+02</pdfrwt>
<totfact> 0.35354921E+05</totfact>
</mgrwt>
</event>
<event>
 6    2  0.9453093E+000  0.8458082E+02  0.7546771E-02  0.1316532E+00
         -3   -1    0    0    0  501 -0.00000000000E+00  0.00000000000E+00  0.42780707349E+03  0.42780707349E+03  0.00000000000E+00 0.  1.
         21   -1    0    0  501  502  0.00000000000E+00 -0.00000000000E+00 -0.75306273190E+01  0.75306273190E+01  0.00000000000E+00 0.  1.
         24    2    1    2    0    0  0.25833858718E+02 -0.12795635815E+02  0.32156266158E+03  0.33250031548E+03  0.79516023055E+02 0.  0.
        -13    1    3    3    0    0  0.20434391014E+02 -0.44737619413E+02  0.23458900341E+03  0.23968942290E+03  0.00000000000E+00 0.  1.
         14    1    3    3    0    0  0.53994677042E+01  0.31941983598E+02  0.86973658165E+02  0.92810892584E+02  0.00000000000E+00 0. -1.
         -4    1    1    2    0  502 -0.25833858718E+02  0.12795635815E+02  0.98713784592E+02  0.10283738533E+03  0.00000000000E+00 0.  1.
<mgrwt>
<rscale>  1 0.84580816E+02</rscale>
<asrwt>0</asrwt>
<pdfrwt beam="1">  1       21 0.11585584E-02 0.84580816E+02</pdfrwt>
<pdfrwt beam="2">  1       -3 0.65816454E-01 0.84580816E+02</pdfrwt>
<totfact> 0.29484395E+05</totfact>
</mgrwt>
</event>
<event>
 6    2  0.9453093E+000  0.8873556E+02  0.7546771E-02  0.1305943E+00
         21   -1    0    0  501  502  0.00000000000E+00  0.00000000000E+00  0.93747277937E+01  0.93747277937E+01  0.00000000000E+00 0. -1.
         -1   -1    0    0    0  501 -0.00000000000E+00 -0.00000000000E+00 -0.56712166516E+03  0.56712166516E+03  0.00000000000E+00 0.  1.
         24    2    1    2    0    0  0.34369940985E+02 -0.34499661311E+01 -0.50943739233E+03  0.51710778082E+03  0.81736192534E+02 0.  0.
        -13    1    3    3    0    0  0.54860852567E+02 -0.13987852328E+02 -0.44668745205E+03  0.45026109423E+03  0.00000000000E+00 0.  1.
         14    1    3    3    0    0 -0.20490911582E+02  0.10537886197E+02 -0.62749940281E+02  0.66846686591E+02  0.00000000000E+00 0. -1.
         -2    1    1    2    0  502 -0.34369940985E+02  0.34499661311E+01 -0.48309545034E+02  0.59388612132E+02  0.00000000000E+00 0.  1.
<mgrwt>
<rscale>  1 0.88735564E+02</rscale>
<asrwt>0</asrwt>
<pdfrwt beam="1">  1       21 0.14422654E-02 0.88735564E+02</pdfrwt>
<pdfrwt beam="2">  1       -1 0.87249512E-01 0.88735564E+02</pdfrwt>
<totfact> 0.25154311E+05</totfact>
</mgrwt>
</event>
<event>
 6    2  0.9453093E+000  0.8485843E+02  0.7546771E-02  0.1315803E+00
         21   -1    0    0  501  502  0.00000000000E+00  0.00000000000E+00  0.45122895911E+01  0.45122895911E+01  0.00000000000E+00 0. -1.
          2   -1    0    0  502    0 -0.00000000000E+00 -0.00000000000E+00 -0.10884197920E+04  0.10884197920E+04  0.00000000000E+00 0. -1.
         24    2    1    2    0    0 -0.22608040098E+02 -0.45786185367E+01 -0.10388798949E+04  0.10423398622E+04  0.81663119472E+02 0.  0.
        -11    1    3    3    0    0  0.25247502454E+02 -0.19605001176E+02 -0.28349107363E+03  0.28528754140E+03  0.00000000000E+00 0.  1.
         12    1    3    3    0    0 -0.47855542552E+02  0.15026382639E+02 -0.75538882131E+03  0.75705232084E+03  0.00000000000E+00 0. -1.
          1    1    1    2  501    0  0.22608040098E+02  0.45786185367E+01 -0.45027607504E+02  0.50592219385E+02  0.00000000000E+00 0. -1.
<mgrwt>
<rscale>  1 0.84858425E+02</rscale>
<asrwt>0</asrwt>
<pdfrwt beam="1">  1       21 0.69419729E-03 0.84858425E+02</pdfrwt>
<pdfrwt beam="2">  1        2 0.16744947E+00 0.84858425E+02</pdfrwt>
<totfact> 0.18570972E+06</totfact>
</mgrwt>
</event>
<event>
 6    2  0.9453093E+000  0.1014062E+03  0.7546771E-02  0.1277366E+00
         21   -1    0    0  501  502  0.00000000000E+00  0.00000000000E+00  0.21565536485E+02  0.21565536485E+02  0.00000000000E+00 0. -1.
         -3   -1    0    0    0  501 -0.00000000000E+00 -0.00000000000E+00 -0.30985507100E+03  0.30985507100E+03  0.00000000000E+00 0.  1.
         24    2    1    2    0    0  0.59750169616E+02  0.14229262984E+02 -0.16481103224E+03  0.19350942151E+03  0.80688692943E+02 0.  0.
        -13    1    3    3    0    0 -0.16248645825E+02 -0.10615388323E+02 -0.49684880970E+02  0.53341281925E+02  0.00000000000E+00 0.  1.
         14    1    3    3    0    0  0.75998815441E+02  0.24844651307E+02 -0.11512615127E+03  0.14016813958E+03  0.00000000000E+00 0. -1.
         -4    1    1    2    0  502 -0.59750169616E+02 -0.14229262984E+02 -0.12347850227E+03  0.13791118597E+03  0.00000000000E+00 0.  1.
<mgrwt>
<rscale>  1 0.10140621E+03</rscale>
<asrwt>0</asrwt>
<pdfrwt beam="1">  1       21 0.33177750E-02 0.10140621E+03</pdfrwt>
<pdfrwt beam="2">  1       -3 0.47670009E-01 0.10140621E+03</pdfrwt>
<totfact> 0.10789091E+05</totfact>
</mgrwt>
</event>
<event>
 6    2  0.9453093E+000  0.8496472E+02  0.7546771E-02  0.1315525E+00
          2   -1    0    0  502    0 -0.00000000000E+00  0.00000000000E+00  0.24732807606E+03  0.24732807606E+03  0.00000000000E+00 0. -1.
         21   -1    0    0  501  502  0.00000000000E+00 -0.00000000000E+00 -0.18019127451E+02  0.18019127451E+02  0.00000000000E+00 0.  1.
         24    2    1    2    0    0  0.22524763560E+02  0.13176032912E+02  0.22280189238E+03  0.23845269482E+03  0.80858095471E+02 0.  0.
        -11    1    3    3    0    0  0.24520729470E+02  0.20443241389E+02  0.25108286027E+02  0.40615493589E+02  0.00000000000E+00 0.  1.
         12    1    3    3    0    0 -0.19959659103E+01 -0.72672084775E+01  0.19769360636E+03  0.19783720124E+03  0.00000000000E+00 0. -1.
          1    1    1    2  501    0 -0.22524763560E+02 -0.13176032912E+02  0.65070562261E+01  0.26894508686E+02  0.00000000000E+00 0. -1.
<mgrwt>
<rscale>  1 0.84964725E+02</rscale>
<asrwt>0</asrwt>
<pdfrwt beam="1">  1       21 0.27721736E-02 0.84964725E+02</pdfrwt>
<pdfrwt beam="2">  1        2 0.38050471E-01 0.84964725E+02</pdfrwt>
<totfact> 0.11147680E+06</totfact>
</mgrwt>
</event>
<event>
 6    2  0.9453093E+000  0.9101776E+02  0.7546771E-02  0.1300406E+00
         -3   -1    0    0    0  501 -0.00000000000E+00  0.00000000000E+00  0.21171574528E+04  0.21171574528E+04  0.00000000000E+00 0.  1.
         21   -1    0    0  501  502  0.00000000000E+00 -0.00000000000E+00 -0.22875570950E+01  0.22875570950E+01  0.00000000000E+00 0.  1.
         24    2    1    2    0    0 -0.37889574992E+02 -0.23135981982E+02  0.16329428723E+04  0.16354775012E+04  0.79456524456E+02 0.  0.
        -11    1    3    3    0    0 -0.64247253090E+01 -0.43752154261E+02  0.12266694325E+04  0.12274662621E+04  0.00000000000E+00 0.  1.
         12    1    3    3    0    0 -0.31464849683E+02  0.20616172279E+02  0.40627343982E+03  0.40801123909E+03  0.00000000000E+00 0. -1.
         -4    1    1    2    0  502  0.37889574992E+02  0.23135981982E+02  0.48192702340E+03  0.48396750866E+03  0.00000000000E+00 0.  1.
<mgrwt>
<rscale>  1 0.91017761E+02</rscale>
<asrwt>0</asrwt>
<pdfrwt beam="1">  1       21 0.35193355E-03 0.91017761E+02</pdfrwt>
<pdfrwt beam="2">  1       -3 0.32571496E+00 0.91017761E+02</pdfrwt>
<totfact> 0.29779852E+04</totfact>
</mgrwt>
</event>
<event>
 6    2  0.9453093E+000  0.8236823E+02  0.7546771E-02  0.1322462E+00
          2   -1    0    0  502    0 -0.00000000000E+00  0.00000000000E+00  0.31889644825E+03  0.31889644825E+03  0.00000000000E+00 0. -1.
         21   -1    0    0  501  502  0.00000000000E+00 -0.00000000000E+00 -0.12495807384E+02  0.12495807384E+02  0.00000000000E+00 0. -1.
         24    2    1    2    0    0 -0.14523535255E+02  0.14298526912E+02  0.29829563613E+03  0.30945890090E+03  0.79806916153E+02 0.  0.
        -11    1    3    3    0    0  0.66692703499E+00  0.15162136643E+01 -0.51267634704E+01  0.53877081609E+01  0.00000000000E+00 0.  1.
         12    1    3    3    0    0 -0.15190462290E+02  0.12782313248E+02  0.30342239960E+03  0.30407119274E+03  0.00000000000E+00 0. -1.
          1    1    1    2  501    0  0.14523535255E+02 -0.14298526912E+02  0.81050047435E+01  0.21933354737E+02  0.00000000000E+00 0. -1.
<mgrwt>
<rscale>  1 0.82368227E+02</rscale>
<asrwt>0</asrwt>
<pdfrwt beam="1">  1       21 0.19224321E-02 0.82368227E+02</pdfrwt>
<pdfrwt beam="2">  1        2 0.49060986E-01 0.82368227E+02</pdfrwt>
<totfact> 0.15335595E+06</totfact>
</mgrwt>
</event>
<event>
 6    2  0.9453093E+000  0.8526140E+02  0.7546771E-02  0.1314750E+00
          2   -1    0    0  502    0 -0.00000000000E+00  0.00000000000E+00  0.77950763082E+03  0.77950763082E+03  0.00000000000E+00 0. -1.
         21   -1    0    0  501  502  0.00000000000E+00 -0.00000000000E+00 -0.45217315463E+01  0.45217315463E+01  0.00000000000E+00 0.  1.
         24    2    1    2    0    0 -0.60582505229E+01  0.27075748099E+02  0.67140110474E+03  0.67679313625E+03  0.80620762124E+02 0.  0.
        -13    1    3    3    0    0 -0.79849426125E+01  0.42865748832E+01  0.57149555598E+01  0.10714231181E+02  0.00000000000E+00 0.  1.
         14    1    3    3    0    0  0.19266920896E+01  0.22789173216E+02  0.66568614918E+03  0.66607890507E+03  0.00000000000E+00 0. -1.
          1    1    1    2  501    0  0.60582505229E+01 -0.27075748099E+02  0.10358479454E+03  0.10723622612E+03  0.00000000000E+00 0. -1.
<mgrwt>
<rscale>  1 0.85261397E+02</rscale>
<asrwt>0</asrwt>
<pdfrwt beam="1">  1       21 0.69565163E-03 0.85261397E+02</pdfrwt>
<pdfrwt beam="2">  1        2 0.11992414E+00 0.85261397E+02</pdfrwt>
<totfact> 0.28558940E+06</totfact>
</mgrwt>
</event>
<event>
 6    2  0.9453093E+000  0.9481792E+02  0.7546771E-02  0.1291587E+00
         21   -1    0    0  501  502  0.00000000000E+00  0.00000000000E+00  0.90991486127E+02  0.90991486127E+02  0.00000000000E+00 0. -1.
          2   -1    0    0  502    0 -0.00000000000E+00 -0.00000000000E+00 -0.69044763225E+02  0.69044763225E+02  0.00000000000E+00 0. -1.
         24    2    1    2    0    0  0.35173341094E+02  0.36702423700E+02 -0.16572960599E+02  0.96255391360E+02  0.80038775064E+02 0.  0.
        -11    1    3    3    0    0 -0.17592839181E+02 -0.38289605512E+01  0.14216391971E+02  0.22940678500E+02  0.00000000000E+00 0.  1.
         12    1    3    3    0    0  0.52766180275E+02  0.40531384252E+02 -0.30789352570E+02  0.73314712861E+02  0.00000000000E+00 0. -1.
          1    1    1    2  501    0 -0.35173341094E+02 -0.36702423700E+02  0.38519683501E+02  0.63780857992E+02  0.00000000000E+00 0. -1.
<mgrwt>
<rscale>  1 0.94817917E+02</rscale>
<asrwt>0</asrwt>
<pdfrwt beam="1">  1       21 0.13998690E-01 0.94817917E+02</pdfrwt>
<pdfrwt beam="2">  1        2 0.10622271E-01 0.94817917E+02</pdfrwt>
<totfact> 0.30544083E+05</totfact>
</mgrwt>
</event>
<event>
 6    2  0.9453093E+000  0.8628749E+02  0.7546771E-02  0.1312100E+00
          2   -1    0    0  502    0 -0.00000000000E+00  0.00000000000E+00  0.13554041647E+04  0.13554041647E+04  0.00000000000E+00 0. -1.
         21   -1    0    0  501  502  0.00000000000E+00 -0.00000000000E+00 -0.26385109997E+01  0.26385109997E+01  0.00000000000E+00 0. -1.
         24    2    1    2    0    0  0.26901635435E+02 -0.18350732198E+02  0.10461888050E+04  0.10497411812E+04  0.79906723158E+02 0.  0.
        -13    1    3    3    0    0 -0.83551046089E+01  0.27189035614E+02  0.30924426163E+03  0.31054961726E+03  0.00000000000E+00 0.  1.
         14    1    3    3    0    0  0.35256740044E+02 -0.45539767812E+02  0.73694454335E+03  0.73919156390E+03  0.00000000000E+00 0. -1.
          1    1    1    2  501    0 -0.26901635435E+02  0.18350732198E+02  0.30657684870E+03  0.30830149452E+03  0.00000000000E+00 0. -1.
<mgrwt>
<rscale>  1 0.86287495E+02</rscale>
<asrwt>0</asrwt>
<pdfrwt beam="1">  1       21 0.40592585E-03 0.86287495E+02</pdfrwt>
<pdfrwt beam="2">  1        2 0.20852316E+00 0.86287495E+02</pdfrwt>
<totfact> 0.30394827E+06</totfact>
</mgrwt>
</event>
<event>
 6    2  0.9453093E+000  0.1025055E+03  0.7546771E-02  0.1275114E+00
          4   -1    0    0  502    0 -0.00000000000E+00  0.00000000000E+00  0.27386630246E+02  0.27386630246E+02  0.00000000000E+00 0. -1.
         21   -1    0    0  501  502  0.00000000000E+00 -0.00000000000E+00 -0.27033430248E+03  0.27033430248E+03  0.00000000000E+00 0. -1.
         24    2    1    2    0    0  0.37221673681E+01 -0.66325955393E+02 -0.11874217147E+03  0.15686642158E+03  0.78066536024E+02 0.  0.
        -13    1    3    3    0    0  0.24110164773E+02  0.53567956633E+01 -0.14230195796E+02  0.28504276478E+02  0.00000000000E+00 0.  1.
         14    1    3    3    0    0 -0.20387997405E+02 -0.71682751057E+02 -0.10451197567E+03  0.12836214510E+03  0.00000000000E+00 0. -1.
          3    1    1    2  501    0 -0.37221673681E+01  0.66325955393E+02 -0.12420550077E+03  0.14085451115E+03  0.00000000000E+00 0. -1.
<mgrwt>
<rscale>  1 0.10250547E+03</rscale>
<asrwt>0</asrwt>
<pdfrwt beam="1">  1       21 0.41589893E-01 0.10250547E+03</pdfrwt>
<pdfrwt beam="2">  1        4 0.42133277E-02 0.10250547E+03</pdfrwt>
<totfact> 0.68684746E+04</totfact>
</mgrwt>
</event>
<event>
 6    2  0.9453093E+000  0.8633571E+02  0.7546771E-02  0.1311976E+00
         21   -1    0    0  501  502  0.00000000000E+00  0.00000000000E+00  0.15981139312E+02  0.15981139312E+02  0.00000000000E+00 0. -1.
          4   -1    0    0  502    0 -0.00000000000E+00 -0.00000000000E+00 -0.33451447443E+03  0.33451447443E+03  0.00000000000E+00 0. -1.
         24    2    1    2    0    0  0.77941550866E+01 -0.27160963571E+02 -0.30874828844E+03  0.32059220367E+03  0.81580565366E+02 0.  0.
        -13    1    3    3    0    0 -0.25994751694E+02 -0.38099587155E+02 -0.12054952204E+03  0.12907165809E+03  0.00000000000E+00 0.  1.
         14    1    3    3    0    0  0.33788906781E+02  0.10938623584E+02 -0.18819876639E+03  0.19152054558E+03  0.00000000000E+00 0. -1.
          3    1    1    2  501    0 -0.77941550866E+01  0.27160963571E+02 -0.97850466854E+01  0.29903410077E+02  0.00000000000E+00 0. -1.
<mgrwt>
<rscale>  1 0.86335714E+02</rscale>
<asrwt>0</asrwt>
<pdfrwt beam="1">  1       21 0.24586369E-02 0.86335714E+02</pdfrwt>
<pdfrwt beam="2">  1        4 0.51463764E-01 0.86335714E+02</pdfrwt>
<totfact> 0.11946201E+05</totfact>
</mgrwt>
</event>
<event>
 6    2  0.9453093E+000  0.8284685E+02  0.7546771E-02  0.1321161E+00
          2   -1    0    0  502    0 -0.00000000000E+00  0.00000000000E+00  0.88073171465E+03  0.88073171465E+03  0.00000000000E+00 0. -1.
         21   -1    0    0  501  502  0.00000000000E+00 -0.00000000000E+00 -0.36297513326E+01  0.36297513326E+01  0.00000000000E+00 0.  1.
         24    2    1    2    0    0  0.17721854959E+02 -0.15023720521E+02  0.78558934706E+03  0.78994570853E+03  0.79522474093E+02 0.  0.
        -13    1    3    3    0    0 -0.14799247886E+02  0.78751823899E+00  0.29703692526E+02  0.33195591163E+02  0.00000000000E+00 0.  1.
         14    1    3    3    0    0  0.32521102845E+02 -0.15811238760E+02  0.75588565454E+03  0.75675011737E+03  0.00000000000E+00 0. -1.
          1    1    1    2  501    0 -0.17721854959E+02  0.15023720521E+02  0.91512616256E+02  0.94415757454E+02  0.00000000000E+00 0. -1.
<mgrwt>
<rscale>  1 0.82846848E+02</rscale>
<asrwt>0</asrwt>
<pdfrwt beam="1">  1       21 0.55842398E-03 0.82846848E+02</pdfrwt>
<pdfrwt beam="2">  1        2 0.13549702E+00 0.82846848E+02</pdfrwt>
<totfact> 0.34332670E+06</totfact>
</mgrwt>
</event>
<event>
 6    2  0.9453093E+000  0.1035599E+03  0.7546771E-02  0.1272983E+00
          2   -1    0    0  502    0 -0.00000000000E+00  0.00000000000E+00  0.94974524075E+02  0.94974524075E+02  0.00000000000E+00 0. -1.
         21   -1    0    0  501  502  0.00000000000E+00 -0.00000000000E+00 -0.10468995895E+03  0.10468995895E+03  0.00000000000E+00 0. -1.
         24    2    1    2    0    0 -0.26762455287E+01 -0.88396917515E+02  0.21707314624E+02  0.10581051932E+03  0.53883960276E+02 0.  0.
        -13    1    3    3    0    0  0.12003608429E+02 -0.11961486198E+02 -0.12232867484E+02  0.20899923786E+02  0.00000000000E+00 0.  1.
         14    1    3    3    0    0 -0.14679853958E+02 -0.76435431318E+02  0.33940182109E+02  0.84910595537E+02  0.00000000000E+00 0. -1.
          1    1    1    2  501    0  0.26762455287E+01  0.88396917515E+02 -0.31422749498E+02  0.93853963701E+02  0.00000000000E+00 0. -1.
<mgrwt>
<rscale>  1 0.10355993E+03</rscale>
<asrwt>0</asrwt>
<pdfrwt beam="1">  1       21 0.16106148E-01 0.10355993E+03</pdfrwt>
<pdfrwt beam="2">  1        2 0.14611465E-01 0.10355993E+03</pdfrwt>
<totfact> 0.16380391E+05</totfact>
</mgrwt>
</event>
<event>
 6    2  0.9453093E+000  0.1001745E+03  0.7546771E-02  0.1279929E+00
          2   -1    0    0  502    0 -0.00000000000E+00  0.00000000000E+00  0.56423564070E+02  0.56423564070E+02  0.00000000000E+00 0. -1.
         21   -1    0    0  501  502  0.00000000000E+00 -0.00000000000E+00 -0.13685468419E+03  0.13685468419E+03  0.00000000000E+00 0. -1.
         24    2    1    2    0    0  0.42713984216E+02  0.51156586339E+02 -0.17645563474E+02  0.10171675582E+03  0.74789382480E+02 0.  0.
        -11    1    3    3    0    0  0.43769387407E+02  0.69082258599E+01 -0.32585141736E+02  0.55002493766E+02  0.00000000000E+00 0.  1.
         12    1    3    3    0    0 -0.10554031918E+01  0.44248360479E+02  0.14939578262E+02  0.46714262058E+02  0.00000000000E+00 0. -1.
          1    1    1    2  501    0 -0.42713984216E+02 -0.51156586339E+02 -0.62785556644E+02  0.91561492433E+02  0.00000000000E+00 0. -1.
<mgrwt>
<rscale>  1 0.10017451E+03</rscale>
<asrwt>0</asrwt>
<pdfrwt beam="1">  1       21 0.21054567E-01 0.10017451E+03</pdfrwt>
<pdfrwt beam="2">  1        2 0.86805482E-02 0.10017451E+03</pdfrwt>
<totfact> 0.18736581E+05</totfact>
</mgrwt>
</event>
<event>
 6    2  0.9453093E+000  0.8855830E+02  0.7546771E-02  0.1306381E+00
          2   -1    0    0  502    0 -0.00000000000E+00  0.00000000000E+00  0.17430536922E+03  0.17430536922E+03  0.00000000000E+00 0. -1.
         21   -1    0    0  501  502  0.00000000000E+00 -0.00000000000E+00 -0.29466404504E+02  0.29466404504E+02  0.00000000000E+00 0. -1.
         24    2    1    2    0    0  0.20392699566E+02  0.33812224758E+02  0.13758961253E+03  0.16362601621E+03  0.79268171217E+02 0.  0.
        -11    1    3    3    0    0 -0.10967594299E+02 -0.16924846553E+02  0.72884543804E+02  0.75623377873E+02  0.00000000000E+00 0.  1.
         12    1    3    3    0    0  0.31360293865E+02  0.50737071310E+02  0.64705068724E+02  0.88002638341E+02  0.00000000000E+00 0. -1.
          1    1    1    2  501    0 -0.20392699566E+02 -0.33812224758E+02  0.72493521860E+01  0.40145757507E+02  0.00000000000E+00 0. -1.
<mgrwt>
<rscale>  1 0.88558296E+02</rscale>
<asrwt>0</asrwt>
<pdfrwt beam="1">  1       21 0.45332931E-02 0.88558296E+02</pdfrwt>
<pdfrwt beam="2">  1        2 0.26816210E-01 0.88558296E+02</pdfrwt>
<totfact> 0.72647031E+05</totfact>
</mgrwt>
</event>
<event>
 6    2  0.9453093E+000  0.8354795E+02  0.7546771E-02  0.1319274E+00
         21   -1    0    0  501  502  0.00000000000E+00  0.00000000000E+00  0.36253724044E+01  0.36253724044E+01  0.00000000000E+00 0. -1.
          2   -1    0    0  502    0 -0.00000000000E+00 -0.00000000000E+00 -0.28220055027E+04  0.28220055027E+04  0.00000000000E+00 0. -1.
         24    2    1    2    0    0 -0.32239070381E+01  0.23070363220E+02 -0.27761108798E+04  0.27773677963E+04  0.80234804777E+02 0.  0.
        -13    1    3    3    0    0 -0.14469402602E+02  0.64710096612E+01 -0.10571732029E+03  0.10689896813E+03  0.00000000000E+00 0.  1.
         14    1    3    3    0    0  0.11245495564E+02  0.16599353558E+02 -0.26703935595E+04  0.26704688282E+04  0.00000000000E+00 0. -1.
          1    1    1    2  501    0  0.32239070381E+01 -0.23070363220E+02 -0.42269250505E+02  0.48263078786E+02  0.00000000000E+00 0. -1.
<mgrwt>
<rscale>  1 0.83547945E+02</rscale>
<asrwt>0</asrwt>
<pdfrwt beam="1">  1       21 0.55775168E-03 0.83547945E+02</pdfrwt>
<pdfrwt beam="2">  1        2 0.43415307E+00 0.83547945E+02</pdfrwt>
<totfact> 0.32984195E+05</totfact>
</mgrwt>
</event>
<event>
 6    2  0.9453093E+000  0.9084420E+02  0.7546771E-02  0.1300820E+00
          2   -1    0    0  502    0 -0.00000000000E+00  0.00000000000E+00  0.28524747555E+04  0.28524747555E+04  0.00000000000E+00 0. -1.
         21   -1    0    0  501  502  0.00000000000E+00 -0.00000000000E+00 -0.60153996655E+01  0.60153996655E+01  0.00000000000E+00 0. -1.
         24    2    1    2    0    0 -0.28731788557E+02 -0.30022041484E+02  0.27698230331E+04  0.27713123793E+04  0.80782610213E+02 0.  0.
        -11    1    3    3    0    0 -0.35573099019E+02 -0.24002014840E+02  0.62564789413E+03  0.62711787530E+03  0.00000000000E+00 0.  1.
         12    1    3    3    0    0  0.68413104622E+01 -0.60200266442E+01  0.21441751390E+04  0.21441945040E+04  0.00000000000E+00 0. -1.
          1    1    1    2  501    0  0.28731788557E+02  0.30022041484E+02  0.76636322707E+02  0.87177775875E+02  0.00000000000E+00 0. -1.
<mgrwt>
<rscale>  1 0.90844200E+02</rscale>
<asrwt>0</asrwt>
<pdfrwt beam="1">  1       21 0.92544838E-03 0.90844200E+02</pdfrwt>
<pdfrwt beam="2">  1        2 0.43884119E+00 0.90844200E+02</pdfrwt>
<totfact> 0.14490715E+05</totfact>
</mgrwt>
</event>
<event>
 6    2  0.9453093E+000  0.8271360E+02  0.7546771E-02  0.1321522E+00
          2   -1    0    0  502    0 -0.00000000000E+00  0.00000000000E+00  0.67576527271E+02  0.67576527271E+02  0.00000000000E+00 0. -1.
         21   -1    0    0  501  502  0.00000000000E+00 -0.00000000000E+00 -0.11133489848E+03  0.11133489848E+03  0.00000000000E+00 0.  1.
         24    2    1    2    0    0 -0.20159965472E+02 -0.62723121029E+01 -0.93523592559E+02  0.12485272281E+03  0.79973582645E+02 0.  0.
        -11    1    3    3    0    0 -0.40967428010E+02 -0.29028961815E+02 -0.45365170889E+02  0.67668378964E+02  0.00000000000E+00 0.  1.
         12    1    3    3    0    0  0.20807462538E+02  0.22756649712E+02 -0.48158421670E+02  0.57184343847E+02  0.00000000000E+00 0. -1.
          1    1    1    2  501    0  0.20159965472E+02  0.62723121029E+01  0.49765221354E+02  0.54058702938E+02  0.00000000000E+00 0. -1.
<mgrwt>
<rscale>  1 0.82713602E+02</rscale>
<asrwt>0</asrwt>
<pdfrwt beam="1">  1       21 0.17128446E-01 0.82713602E+02</pdfrwt>
<pdfrwt beam="2">  1        2 0.10396389E-01 0.82713602E+02</pdfrwt>
<totfact> 0.21620261E+05</totfact>
</mgrwt>
</event>
<event>
 6    2  0.9453093E+000  0.9025377E+02  0.7546771E-02  0.1302238E+00
         21   -1    0    0  501  502  0.00000000000E+00  0.00000000000E+00  0.49002391766E+03  0.49002391766E+03  0.00000000000E+00 0.  1.
         -1   -1    0    0    0  501 -0.00000000000E+00 -0.00000000000E+00 -0.16314050811E+02  0.16314050811E+02  0.00000000000E+00 0.  1.
         24    2    1    2    0    0  0.25374617486E+02 -0.35807954688E+02  0.12123413153E+03  0.15114052364E+03  0.78864836300E+02 0.  0.
        -13    1    3    3    0    0  0.29629837262E+02 -0.15834290540E+02  0.60200495340E+01  0.34130528995E+02  0.00000000000E+00 0.  1.
         14    1    3    3    0    0 -0.42552197761E+01 -0.19973664148E+02  0.11521408200E+03  0.11700999464E+03  0.00000000000E+00 0. -1.
         -2    1    1    2    0  502 -0.25374617486E+02  0.35807954688E+02  0.35247573531E+03  0.35519744483E+03  0.00000000000E+00 0.  1.
<mgrwt>
<rscale>  1 0.90253771E+02</rscale>
<asrwt>0</asrwt>
<pdfrwt beam="1">  1       21 0.75388284E-01 0.90253771E+02</pdfrwt>
<pdfrwt beam="2">  1       -1 0.25098543E-02 0.90253771E+02</pdfrwt>
<totfact> 0.65847205E+04</totfact>
</mgrwt>
</event>
<event>
 6    2  0.9453093E+000  0.1158499E+03  0.7546771E-02  0.1250105E+00
         -1   -1    0    0    0  501 -0.00000000000E+00  0.00000000000E+00  0.37864093004E+03  0.37864093004E+03  0.00000000000E+00 0.  1.
         21   -1    0    0  501  502  0.00000000000E+00 -0.00000000000E+00 -0.35685835167E+02  0.35685835167E+02  0.00000000000E+00 0.  1.
         24    2    1    2    0    0  0.57855959476E+02  0.58931578279E+02  0.85594218739E+02  0.14404013304E+03  0.81246210239E+02 0.  0.
        -13    1    3    3    0    0  0.58781795335E+02  0.41754613784E+02  0.98829590352E+02  0.12233574770E+03  0.00000000000E+00 0.  1.
         14    1    3    3    0    0 -0.92583585898E+00  0.17176964496E+02 -0.13235371613E+02  0.21704385341E+02  0.00000000000E+00 0. -1.
         -2    1    1    2    0  502 -0.57855959476E+02 -0.58931578279E+02  0.25736087613E+03  0.27028663217E+03  0.00000000000E+00 0.  1.
<mgrwt>
<rscale>  1 0.11584986E+03</rscale>
<asrwt>0</asrwt>
<pdfrwt beam="1">  1       21 0.54901288E-02 0.11584986E+03</pdfrwt>
<pdfrwt beam="2">  1       -1 0.58252448E-01 0.11584986E+03</pdfrwt>
<totfact> 0.64400919E+04</totfact>
</mgrwt>
</event>
<event>
 6    2  0.1184283E+001  0.8832535E+02  0.7546771E-02  0.1306959E+00
         21   -1    0    0  501  502  0.00000000000E+00  0.00000000000E+00  0.14111448378E+02  0.14111448378E+02  0.00000000000E+00 0. -1.
         -1   -1    0    0    0  501 -0.00000000000E+00 -0.00000000000E+00 -0.28985881647E+03  0.28985881647E+03  0.00000000000E+00 0.  1.
         24    2    1    2    0    0 -0.11787638345E+02 -0.35263683410E+02 -0.16508126072E+03  0.18722497327E+03  0.80117989169E+02 0.  0.
        -11    1    3    3    0    0  0.44785854339E+01  0.98183947831E+01 -0.12291975823E+03  0.12339256690E+03  0.00000000000E+00 0.  1.
         12    1    3    3    0    0 -0.16266223779E+02 -0.45082078193E+02 -0.42161502497E+02  0.63832406371E+02  0.00000000000E+00 0. -1.
         -2    1    1    2    0  502  0.11787638345E+02  0.35263683410E+02 -0.11066610736E+03  0.11674529157E+03  0.00000000000E+00 0.  1.
<mgrwt>
<rscale>  1 0.88325353E+02</rscale>
<asrwt>0</asrwt>
<pdfrwt beam="1">  1       21 0.21709922E-02 0.88325353E+02</pdfrwt>
<pdfrwt beam="2">  1       -1 0.44593662E-01 0.88325353E+02</pdfrwt>
<totfact> 0.47069361E+05</totfact>
</mgrwt>
</event>
<event>
 6    2  0.9453093E+000  0.1971764E+03  0.7546771E-02  0.1152143E+00
          2   -1    0    0  502    0 -0.00000000000E+00  0.00000000000E+00  0.54966581385E+02  0.54966581385E+02  0.00000000000E+00 0. -1.
         21   -1    0    0  501  502  0.00000000000E+00 -0.00000000000E+00 -0.94934424551E+03  0.94934424551E+03  0.00000000000E+00 0. -1.
         24    2    1    2    0    0 -0.92573294629E+02 -0.15435912612E+03 -0.74425789260E+03  0.76993399251E+03  0.80510790728E+02 0.  0.
        -11    1    3    3    0    0 -0.49768518640E+02 -0.56514076618E+02 -0.17150565798E+03  0.18730973553E+03  0.00000000000E+00 0.  1.
         12    1    3    3    0    0 -0.42804775989E+02 -0.97845049502E+02 -0.57275223462E+03  0.58262425698E+03  0.00000000000E+00 0. -1.
          1    1    1    2  501    0  0.92573294629E+02  0.15435912612E+03 -0.15011977152E+03  0.23437683439E+03  0.00000000000E+00 0. -1.
<mgrwt>
<rscale>  1 0.19717642E+03</rscale>
<asrwt>0</asrwt>
<pdfrwt beam="1">  1       21 0.14605295E+00 0.19717642E+03</pdfrwt>
<pdfrwt beam="2">  1        2 0.84563976E-02 0.19717642E+03</pdfrwt>
<totfact> 0.30588072E+03</totfact>
</mgrwt>
</event>
<event>
 6    2  0.9453093E+000  0.9491375E+02  0.7546771E-02  0.1291370E+00
          2   -1    0    0  502    0 -0.00000000000E+00  0.00000000000E+00  0.37734642302E+03  0.37734642302E+03  0.00000000000E+00 0. -1.
         21   -1    0    0  501  502  0.00000000000E+00 -0.00000000000E+00 -0.33099248832E+02  0.33099248832E+02  0.00000000000E+00 0. -1.
         24    2    1    2    0    0  0.34686082595E+02  0.38346078680E+02  0.34592731214E+03  0.35871203734E+03  0.79593180432E+02 0.  0.
        -13    1    3    3    0    0 -0.14072997776E+02  0.98794569378E+01  0.14448392338E+02  0.22459051114E+02  0.00000000000E+00 0.  1.
         14    1    3    3    0    0  0.48759080371E+02  0.28466621742E+02  0.33147891981E+03  0.33625298623E+03  0.00000000000E+00 0. -1.
          1    1    1    2  501    0 -0.34686082595E+02 -0.38346078680E+02 -0.16801379568E+01  0.51733634509E+02  0.00000000000E+00 0. -1.
<mgrwt>
<rscale>  1 0.94913753E+02</rscale>
<asrwt>0</asrwt>
<pdfrwt beam="1">  1       21 0.50921924E-02 0.94913753E+02</pdfrwt>
<pdfrwt beam="2">  1        2 0.58053293E-01 0.94913753E+02</pdfrwt>
<totfact> 0.26657707E+05</totfact>
</mgrwt>
</event>
<event>
 6    2  0.9453093E+000  0.8553709E+02  0.7546771E-02  0.1314034E+00
         21   -1    0    0  501  502  0.00000000000E+00  0.00000000000E+00  0.29415266730E+01  0.29415266730E+01  0.00000000000E+00 0. -1.
          2   -1    0    0  502    0 -0.00000000000E+00 -0.00000000000E+00 -0.13260810842E+04  0.13260810842E+04  0.00000000000E+00 0. -1.
         24    2    1    2    0    0 -0.24989297946E+02 -0.15232945694E+02 -0.11692717937E+04  0.11723963156E+04  0.80374657003E+02 0.  0.
        -13    1    3    3    0    0 -0.10494196513E+02  0.32396364373E+02 -0.36502562682E+03  0.36661063926E+03  0.00000000000E+00 0.  1.
         14    1    3    3    0    0 -0.14495101432E+02 -0.47629310066E+02 -0.80424616691E+03  0.80578567630E+03  0.00000000000E+00 0. -1.
          1    1    1    2  501    0  0.24989297946E+02  0.15232945694E+02 -0.15386776377E+03  0.15662629529E+03  0.00000000000E+00 0. -1.
<mgrwt>
<rscale>  1 0.85537086E+02</rscale>
<asrwt>0</asrwt>
<pdfrwt beam="1">  1       21 0.45254353E-03 0.85537086E+02</pdfrwt>
<pdfrwt beam="2">  1        2 0.20401204E+00 0.85537086E+02</pdfrwt>
<totfact> 0.26656346E+06</totfact>
</mgrwt>
</event>
<event>
 6    2  0.9453093E+000  0.1029321E+03  0.7546771E-02  0.1274248E+00
         21   -1    0    0  501  502  0.00000000000E+00  0.00000000000E+00  0.42809773316E+01  0.42809773316E+01  0.00000000000E+00 0. -1.
          4   -1    0    0  502    0 -0.00000000000E+00 -0.00000000000E+00 -0.15912661719E+04  0.15912661719E+04  0.00000000000E+00 0. -1.
         24    2    1    2    0    0  0.24963063965E+00 -0.61730849292E+02 -0.10453563035E+04  0.10504117388E+04  0.82366617427E+02 0.  0.
        -13    1    3    3    0    0 -0.53063186696E+01  0.17838965895E+02 -0.35021624289E+03  0.35071042543E+03  0.00000000000E+00 0.  1.
         14    1    3    3    0    0  0.55559493093E+01 -0.79569815187E+02 -0.69514006059E+03  0.69970131335E+03  0.00000000000E+00 0. -1.
          3    1    1    2  501    0 -0.24963063965E+00  0.61730849292E+02 -0.54162889113E+03  0.54513541049E+03  0.00000000000E+00 0. -1.
<mgrwt>
<rscale>  1 0.10293211E+03</rscale>
<asrwt>0</asrwt>
<pdfrwt beam="1">  1       21 0.65861171E-03 0.10293211E+03</pdfrwt>
<pdfrwt beam="2">  1        4 0.24481025E+00 0.10293211E+03</pdfrwt>
<totfact> 0.22568847E+04</totfact>
</mgrwt>
</event>
<event>
 6    2  0.1000617E+001  0.9869250E+02  0.7546771E-02  0.1283070E+00
         -1   -1    0    0    0  501 -0.00000000000E+00  0.00000000000E+00  0.21938977235E+02  0.21938977235E+02  0.00000000000E+00 0.  1.
         21   -1    0    0  501  502  0.00000000000E+00 -0.00000000000E+00 -0.17189844813E+03  0.17189844813E+03  0.00000000000E+00 0. -1.
         24    2    1    2    0    0  0.23283884566E+02  0.61234038678E+01 -0.12278002060E+03  0.15752822717E+03  0.95710885175E+02 0.  0.
        -13    1    3    3    0    0 -0.14476317654E+02 -0.28569374400E+01  0.10888831386E+02  0.18338279999E+02  0.00000000000E+00 0.  1.
         14    1    3    3    0    0  0.37760202220E+02  0.89803413078E+01 -0.13366885199E+03  0.13918994717E+03  0.00000000000E+00 0. -1.
         -2    1    1    2    0  502 -0.23283884566E+02 -0.61234038678E+01 -0.27179450296E+02  0.36309198198E+02  0.00000000000E+00 0.  1.
<mgrwt>
<rscale>  1 0.98692497E+02</rscale>
<asrwt>0</asrwt>
<pdfrwt beam="1">  1       21 0.26445916E-01 0.98692497E+02</pdfrwt>
<pdfrwt beam="2">  1       -1 0.33752272E-02 0.98692497E+02</pdfrwt>
<totfact> 0.35882024E+05</totfact>
</mgrwt>
</event>
<event>
 6    2  0.9453093E+000  0.8890624E+02  0.7546771E-02  0.1305522E+00
         21   -1    0    0  501  502  0.00000000000E+00  0.00000000000E+00  0.27893591334E+03  0.27893591334E+03  0.00000000000E+00 0. -1.
         -3   -1    0    0    0  501 -0.00000000000E+00 -0.00000000000E+00 -0.12481739152E+02  0.12481739152E+02  0.00000000000E+00 0.  1.
         24    2    1    2    0    0 -0.63925699198E+01 -0.24606832701E+02  0.17222392099E+03  0.19381795073E+03  0.85193649409E+02 0.  0.
        -13    1    3    3    0    0 -0.36761476389E+02  0.14391444662E+02  0.76368415055E+02  0.85968916730E+02  0.00000000000E+00 0.  1.
         14    1    3    3    0    0  0.30368906469E+02 -0.38998277363E+02  0.95855505934E+02  0.10784903400E+03  0.00000000000E+00 0. -1.
         -4    1    1    2    0  502  0.63925699198E+01  0.24606832701E+02  0.94230253202E+02  0.97599701764E+02  0.00000000000E+00 0.  1.
<mgrwt>
<rscale>  1 0.88906237E+02</rscale>
<asrwt>0</asrwt>
<pdfrwt beam="1">  1       21 0.42913213E-01 0.88906237E+02</pdfrwt>
<pdfrwt beam="2">  1       -3 0.19202678E-02 0.88906237E+02</pdfrwt>
<totfact> 0.23739221E+05</totfact>
</mgrwt>
</event>
<event>
 6    2  0.9453093E+000  0.1708926E+03  0.7546771E-02  0.1176920E+00
         -3   -1    0    0    0  501 -0.00000000000E+00  0.00000000000E+00  0.10605711803E+03  0.10605711803E+03  0.00000000000E+00 0.  1.
         21   -1    0    0  501  502  0.00000000000E+00 -0.00000000000E+00 -0.63312319106E+03  0.63312319106E+03  0.00000000000E+00 0.  1.
         24    2    1    2    0    0  0.38290152807E+02 -0.14682537569E+03  0.19445517423E+02  0.17199537871E+03  0.78615872454E+02 0.  0.
        -13    1    3    3    0    0  0.34954173292E+02 -0.15624775747E+03  0.22164431750E+02  0.16163668513E+03  0.00000000000E+00 0.  1.
         14    1    3    3    0    0  0.33359795160E+01  0.94223817765E+01 -0.27189143276E+01  0.10358693585E+02  0.00000000000E+00 0. -1.
         -4    1    1    2    0  502 -0.38290152807E+02  0.14682537569E+03 -0.54651159046E+03  0.56718493038E+03  0.00000000000E+00 0.  1.
<mgrwt>
<rscale>  1 0.17089260E+03</rscale>
<asrwt>0</asrwt>
<pdfrwt beam="1">  1       21 0.97403567E-01 0.17089260E+03</pdfrwt>
<pdfrwt beam="2">  1       -3 0.16316480E-01 0.17089260E+03</pdfrwt>
<totfact> 0.13842290E+03</totfact>
</mgrwt>
</event>
<event>
 6    2  0.9453093E+000  0.8414339E+02  0.7546771E-02  0.1317688E+00
         -3   -1    0    0    0  501 -0.00000000000E+00  0.00000000000E+00  0.71984357140E+02  0.71984357140E+02  0.00000000000E+00 0.  1.
         21   -1    0    0  501  502  0.00000000000E+00 -0.00000000000E+00 -0.62545814453E+02  0.62545814453E+02  0.00000000000E+00 0. -1.
         24    2    1    2    0    0  0.89040454415E+00 -0.26784625012E+02  0.40602901703E+02  0.93427541141E+02  0.79761524933E+02 0.  0.
        -13    1    3    3    0    0 -0.33491207762E+02 -0.13711923029E+01 -0.13247610237E+01  0.33545434227E+02  0.00000000000E+00 0.  1.
         14    1    3    3    0    0  0.34381612306E+02 -0.25413432709E+02  0.41927662726E+02  0.59882106914E+02  0.00000000000E+00 0. -1.
         -4    1    1    2    0  502 -0.89040454415E+00  0.26784625012E+02 -0.31164359016E+02  0.41102630453E+02  0.00000000000E+00 0.  1.
<mgrwt>
<rscale>  1 0.84143388E+02</rscale>
<asrwt>0</asrwt>
<pdfrwt beam="1">  1       21 0.96224330E-02 0.84143388E+02</pdfrwt>
<pdfrwt beam="2">  1       -3 0.11074516E-01 0.84143388E+02</pdfrwt>
<totfact> 0.23778895E+05</totfact>
</mgrwt>
</event>
<event>
 6    2  0.9453093E+000  0.8504517E+02  0.7546771E-02  0.1315314E+00
         21   -1    0    0  501  502  0.00000000000E+00  0.00000000000E+00  0.61818439354E+02  0.61818439354E+02  0.00000000000E+00 0.  1.
         -1   -1    0    0    0  501 -0.00000000000E+00 -0.00000000000E+00 -0.53228593759E+02  0.53228593759E+02  0.00000000000E+00 0.  1.
         24    2    1    2    0    0  0.20579745370E+02  0.19090827043E+02  0.14732298530E+02  0.86311770373E+02  0.80278860780E+02 0.  0.
        -13    1    3    3    0    0  0.12293109409E+02  0.49366620072E+02 -0.16572666108E+01  0.50901181213E+02  0.00000000000E+00 0.  1.
         14    1    3    3    0    0  0.82866359611E+01 -0.30275793029E+02  0.16389565141E+02  0.35410589159E+02  0.00000000000E+00 0. -1.
         -2    1    1    2    0  502 -0.20579745370E+02 -0.19090827043E+02 -0.61424529348E+01  0.28735262740E+02  0.00000000000E+00 0.  1.
<mgrwt>
<rscale>  1 0.85045171E+02</rscale>
<asrwt>0</asrwt>
<pdfrwt beam="1">  1       21 0.95105291E-02 0.85045171E+02</pdfrwt>
<pdfrwt beam="2">  1       -1 0.81890144E-02 0.85045171E+02</pdfrwt>
<totfact> 0.60494787E+05</totfact>
</mgrwt>
</event>
<event>
 6    2  0.9453093E+000  0.8350873E+02  0.7546771E-02  0.1319379E+00
         21   -1    0    0  501  502  0.00000000000E+00  0.00000000000E+00  0.11665625948E+02  0.11665625948E+02  0.00000000000E+00 0. -1.
         -1   -1    0    0    0  501 -0.00000000000E+00 -0.00000000000E+00 -0.32826110958E+03  0.32826110958E+03  0.00000000000E+00 0.  1.
         24    2    1    2    0    0 -0.15277983419E+02 -0.19161662812E+02 -0.29709419630E+03  0.30860763103E+03  0.79831837986E+02 0.  0.
        -13    1    3    3    0    0  0.33291210800E+01 -0.41081442683E+02 -0.25041202056E+03  0.25378129959E+03  0.00000000000E+00 0.  1.
         14    1    3    3    0    0 -0.18607104499E+02  0.21919779871E+02 -0.46682175731E+02  0.54826331433E+02  0.00000000000E+00 0. -1.
         -2    1    1    2    0  502  0.15277983419E+02  0.19161662812E+02 -0.19501287342E+02  0.31319104506E+02  0.00000000000E+00 0.  1.
<mgrwt>
<rscale>  1 0.83508733E+02</rscale>
<asrwt>0</asrwt>
<pdfrwt beam="1">  1       21 0.17947119E-02 0.83508733E+02</pdfrwt>
<pdfrwt beam="2">  1       -1 0.50501702E-01 0.83508733E+02</pdfrwt>
<totfact> 0.50774420E+05</totfact>
</mgrwt>
</event>
<event>
 6    2  0.9453093E+000  0.8318403E+02  0.7546771E-02  0.1320251E+00
         -1   -1    0    0    0  501 -0.00000000000E+00  0.00000000000E+00  0.66345816489E+01  0.66345816489E+01  0.00000000000E+00 0.  1.
         21   -1    0    0  501  502  0.00000000000E+00 -0.00000000000E+00 -0.41264953068E+03  0.41264953068E+03  0.00000000000E+00 0. -1.
         24    2    1    2    0    0 -0.21356936290E+02 -0.63956066071E-01 -0.33044012664E+03  0.34074955562E+03  0.80395643806E+02 0.  0.
        -11    1    3    3    0    0 -0.27259611963E+02 -0.28376000370E+02 -0.85639908157E+02  0.94246897618E+02  0.00000000000E+00 0.  1.
         12    1    3    3    0    0  0.59026756731E+01  0.28312044304E+02 -0.24480021848E+03  0.24650265800E+03  0.00000000000E+00 0. -1.
         -2    1    1    2    0  502  0.21356936290E+02  0.63956066071E-01 -0.75574822389E+02  0.78534556707E+02  0.00000000000E+00 0.  1.
<mgrwt>
<rscale>  1 0.83184027E+02</rscale>
<asrwt>0</asrwt>
<pdfrwt beam="1">  1       21 0.63484564E-01 0.83184027E+02</pdfrwt>
<pdfrwt beam="2">  1       -1 0.10207045E-02 0.83184027E+02</pdfrwt>
<totfact> 0.33968132E+05</totfact>
</mgrwt>
</event>
<event>
 6    2  0.9453093E+000  0.8503641E+02  0.7546771E-02  0.1315337E+00
         21   -1    0    0  501  502  0.00000000000E+00  0.00000000000E+00  0.21171054172E+02  0.21171054172E+02  0.00000000000E+00 0.  1.
          4   -1    0    0  502    0 -0.00000000000E+00 -0.00000000000E+00 -0.27741315645E+03  0.27741315645E+03  0.00000000000E+00 0. -1.
         24    2    1    2    0    0  0.19653206398E+02  0.17620029584E+02 -0.69050180912E+02  0.10954048714E+03  0.80836111201E+02 0.  0.
        -13    1    3    3    0    0  0.11631305045E+02  0.92551018274E+01  0.17075306321E+02  0.22638689292E+02  0.00000000000E+00 0.  1.
         14    1    3    3    0    0  0.80219013526E+01  0.83649277566E+01 -0.86125487233E+02  0.86901797846E+02  0.00000000000E+00 0. -1.
          3    1    1    2  501    0 -0.19653206398E+02 -0.17620029584E+02 -0.18719192137E+03  0.18904372349E+03  0.00000000000E+00 0. -1.
<mgrwt>
<rscale>  1 0.85036409E+02</rscale>
<asrwt>0</asrwt>
<pdfrwt beam="1">  1       21 0.32570854E-02 0.85036409E+02</pdfrwt>
<pdfrwt beam="2">  1        4 0.42678945E-01 0.85036409E+02</pdfrwt>
<totfact> 0.10976855E+05</totfact>
</mgrwt>
</event>
<event>
 6    2  0.9453093E+000  0.8489006E+02  0.7546771E-02  0.1315720E+00
          2   -1    0    0  502    0 -0.00000000000E+00  0.00000000000E+00  0.74114037619E+02  0.74114037619E+02  0.00000000000E+00 0. -1.
         21   -1    0    0  501  502  0.00000000000E+00 -0.00000000000E+00 -0.45492519002E+02  0.45492519002E+02  0.00000000000E+00 0.  1.
         24    2    1    2    0    0  0.24698514844E+02  0.34278030749E+01  0.37945797635E+02  0.92984974237E+02  0.81145273469E+02 0.  0.
        -13    1    3    3    0    0  0.32481812585E+02  0.33801353659E+02  0.44275163659E+01  0.47087180412E+02  0.00000000000E+00 0.  1.
         14    1    3    3    0    0 -0.77832977414E+01 -0.30373550584E+02  0.33518281269E+02  0.45897793825E+02  0.00000000000E+00 0. -1.
          1    1    1    2  501    0 -0.24698514844E+02 -0.34278030749E+01 -0.93242790177E+01  0.26621582383E+02  0.00000000000E+00 0. -1.
<mgrwt>
<rscale>  1 0.84890058E+02</rscale>
<asrwt>0</asrwt>
<pdfrwt beam="1">  1       21 0.69988491E-02 0.84890058E+02</pdfrwt>
<pdfrwt beam="2">  1        2 0.11402160E-01 0.84890058E+02</pdfrwt>
<totfact> 0.92246683E+05</totfact>
</mgrwt>
</event>
<event>
 6    2  0.9453093E+000  0.8591015E+02  0.7546771E-02  0.1313069E+00
         21   -1    0    0  501  502  0.00000000000E+00  0.00000000000E+00  0.26908758861E+03  0.26908758861E+03  0.00000000000E+00 0. -1.
          4   -1    0    0  502    0 -0.00000000000E+00 -0.00000000000E+00 -0.44529868829E+02  0.44529868829E+02  0.00000000000E+00 0. -1.
         24    2    1    2    0    0 -0.27235260223E+02 -0.18617540701E+01 -0.14942097849E+01  0.85923143965E+02  0.81457525609E+02 0.  0.
        -11    1    3    3    0    0 -0.46857981575E+02 -0.29642743739E+01  0.24797311546E+02  0.53097683752E+02  0.00000000000E+00 0.  1.
         12    1    3    3    0    0  0.19622721352E+02  0.11025203037E+01 -0.26291521331E+02  0.32825460213E+02  0.00000000000E+00 0. -1.
          3    1    1    2  501    0  0.27235260223E+02  0.18617540701E+01  0.22605192957E+03  0.22769431348E+03  0.00000000000E+00 0. -1.
<mgrwt>
<rscale>  1 0.85910151E+02</rscale>
<asrwt>0</asrwt>
<pdfrwt beam="1">  1       21 0.41398089E-01 0.85910151E+02</pdfrwt>
<pdfrwt beam="2">  1        4 0.68507493E-02 0.85910151E+02</pdfrwt>
<totfact> 0.31099377E+04</totfact>
</mgrwt>
</event>
<event>
 6    2  0.9453093E+000  0.8436370E+02  0.7546771E-02  0.1317105E+00
         21   -1    0    0  501  502  0.00000000000E+00  0.00000000000E+00  0.53850315931E+01  0.53850315931E+01  0.00000000000E+00 0. -1.
          2   -1    0    0  502    0 -0.00000000000E+00 -0.00000000000E+00 -0.91307974427E+03  0.91307974427E+03  0.00000000000E+00 0. -1.
         24    2    1    2    0    0  0.86347214204E+01  0.21140094056E+02 -0.87212435908E+03  0.87619525912E+03  0.81214360868E+02 0.  0.
        -13    1    3    3    0    0 -0.28210773776E+02  0.90796347210E+00 -0.61584770499E+03  0.61649417507E+03  0.00000000000E+00 0.  1.
         14    1    3    3    0    0  0.36845495197E+02  0.20232130584E+02 -0.25627665409E+03  0.25970108405E+03  0.00000000000E+00 0. -1.
          1    1    1    2  501    0 -0.86347214204E+01 -0.21140094056E+02 -0.35570353592E+02  0.42269516739E+02  0.00000000000E+00 0. -1.
<mgrwt>
<rscale>  1 0.84363703E+02</rscale>
<asrwt>0</asrwt>
<pdfrwt beam="1">  1       21 0.82846669E-03 0.84363703E+02</pdfrwt>
<pdfrwt beam="2">  1        2 0.14047376E+00 0.84363703E+02</pdfrwt>
<totfact> 0.17877946E+06</totfact>
</mgrwt>
</event>
<event>
 6    2  0.9453093E+000  0.8936226E+02  0.7546771E-02  0.1304403E+00
          2   -1    0    0  502    0 -0.00000000000E+00  0.00000000000E+00  0.15920473205E+04  0.15920473205E+04  0.00000000000E+00 0. -1.
         21   -1    0    0  501  502  0.00000000000E+00 -0.00000000000E+00 -0.31924912520E+01  0.31924912520E+01  0.00000000000E+00 0.  1.
         24    2    1    2    0    0  0.13352088874E+02 -0.25616373685E+02  0.14774708101E+04  0.14801708038E+04  0.84564394004E+02 0.  0.
        -11    1    3    3    0    0  0.30394860201E+02 -0.27143566244E+02  0.32136776577E+03  0.32394113909E+03  0.00000000000E+00 0.  1.
         12    1    3    3    0    0 -0.17042771327E+02  0.15271925588E+01  0.11561030444E+04  0.11562296647E+04  0.00000000000E+00 0. -1.
          1    1    1    2  501    0 -0.13352088874E+02  0.25616373685E+02  0.11138401912E+03  0.11506900796E+03  0.00000000000E+00 0. -1.
<mgrwt>
<rscale>  1 0.89362261E+02</rscale>
<asrwt>0</asrwt>
<pdfrwt beam="1">  1       21 0.49115377E-03 0.89362261E+02</pdfrwt>
<pdfrwt beam="2">  1        2 0.24492972E+00 0.89362261E+02</pdfrwt>
<totfact> 0.17236203E+06</totfact>
</mgrwt>
</event>
<event>
 6    2  0.9453093E+000  0.1224678E+03  0.7546771E-02  0.1239081E+00
         21   -1    0    0  501  502  0.00000000000E+00  0.00000000000E+00  0.78046559879E+02  0.78046559879E+02  0.00000000000E+00 0. -1.
          2   -1    0    0  502    0 -0.00000000000E+00 -0.00000000000E+00 -0.17956098171E+03  0.17956098171E+03  0.00000000000E+00 0. -1.
         24    2    1    2    0    0  0.81163812624E+02 -0.57649035765E+02 -0.99892066420E+02  0.15804043938E+03  0.71325870071E+02 0.  0.
        -11    1    3    3    0    0  0.49838165040E+02 -0.51686573816E+00 -0.71043536000E+02  0.86783027443E+02  0.00000000000E+00 0.  1.
         12    1    3    3    0    0  0.31325647584E+02 -0.57132170027E+02 -0.28848530420E+02  0.71257411937E+02  0.00000000000E+00 0. -1.
          1    1    1    2  501    0 -0.81163812624E+02  0.57649035765E+02 -0.16223554074E+01  0.99567102205E+02  0.00000000000E+00 0. -1.
<mgrwt>
<rscale>  1 0.12246777E+03</rscale>
<asrwt>0</asrwt>
<pdfrwt beam="1">  1       21 0.12007163E-01 0.12246777E+03</pdfrwt>
<pdfrwt beam="2">  1        2 0.27624766E-01 0.12246777E+03</pdfrwt>
<totfact> 0.13633611E+05</totfact>
</mgrwt>
</event>
<event>
 6    2  0.9453093E+000  0.8339078E+02  0.7546771E-02  0.1319695E+00
          2   -1    0    0  502    0 -0.00000000000E+00  0.00000000000E+00  0.66590994245E+02  0.66590994245E+02  0.00000000000E+00 0. -1.
         21   -1    0    0  501  502  0.00000000000E+00 -0.00000000000E+00 -0.72102195233E+02  0.72102195233E+02  0.00000000000E+00 0.  1.
         24    2    1    2    0    0  0.20569593983E+02  0.36610690616E+01 -0.44454147299E+02  0.94499697981E+02  0.80731097374E+02 0.  0.
        -11    1    3    3    0    0  0.40139277979E+02  0.29379940919E+02 -0.18576910377E+02  0.53098438435E+02  0.00000000000E+00 0.  1.
         12    1    3    3    0    0 -0.19569683996E+02 -0.25718871858E+02 -0.25877236922E+02  0.41401259546E+02  0.00000000000E+00 0. -1.
          1    1    1    2  501    0 -0.20569593983E+02 -0.36610690616E+01  0.38942946311E+02  0.44193491496E+02  0.00000000000E+00 0. -1.
<mgrwt>
<rscale>  1 0.83390777E+02</rscale>
<asrwt>0</asrwt>
<pdfrwt beam="1">  1       21 0.11092645E-01 0.83390777E+02</pdfrwt>
<pdfrwt beam="2">  1        2 0.10244768E-01 0.83390777E+02</pdfrwt>
<totfact> 0.47504706E+05</totfact>
</mgrwt>
</event>
<event>
 6    2  0.9453093E+000  0.8491848E+02  0.7546771E-02  0.1315646E+00
         21   -1    0    0  501  502  0.00000000000E+00  0.00000000000E+00  0.18933542614E+03  0.18933542614E+03  0.00000000000E+00 0.  1.
          2   -1    0    0  502    0 -0.00000000000E+00 -0.00000000000E+00 -0.19291608998E+02  0.19291608998E+02  0.00000000000E+00 0. -1.
         24    2    1    2    0    0 -0.25413937787E+02  0.18769291263E+02  0.96257743290E+02  0.12836160533E+03  0.78822547854E+02 0.  0.
        -11    1    3    3    0    0 -0.40985207127E+02  0.39440845595E+02  0.51867061606E+02  0.76977656395E+02  0.00000000000E+00 0.  1.
         12    1    3    3    0    0  0.15571269339E+02 -0.20671554332E+02  0.44390681685E+02  0.51383948931E+02  0.00000000000E+00 0. -1.
          1    1    1    2  501    0  0.25413937787E+02 -0.18769291263E+02  0.73786073850E+02  0.80265429810E+02  0.00000000000E+00 0. -1.
<mgrwt>
<rscale>  1 0.84918482E+02</rscale>
<asrwt>0</asrwt>
<pdfrwt beam="1">  1       21 0.29128526E-01 0.84918482E+02</pdfrwt>
<pdfrwt beam="2">  1        2 0.29679400E-02 0.84918482E+02</pdfrwt>
<totfact> 0.40039052E+05</totfact>
</mgrwt>
</event>
<event>
 6    2  0.9453093E+000  0.1462357E+03  0.7546771E-02  0.1205176E+00
         21   -1    0    0  501  502  0.00000000000E+00  0.00000000000E+00  0.31954865981E+02  0.31954865981E+02  0.00000000000E+00 0. -1.
          2   -1    0    0  502    0 -0.00000000000E+00 -0.00000000000E+00 -0.56647435347E+03  0.56647435347E+03  0.00000000000E+00 0. -1.
         24    2    1    2    0    0  0.23553351926E+02  0.12027344287E+03 -0.30460394041E+03  0.33788820495E+03  0.79777296804E+02 0.  0.
        -11    1    3    3    0    0 -0.36212890317E+01  0.49230195839E+02 -0.43048861616E+02  0.65497560283E+02  0.00000000000E+00 0.  1.
         12    1    3    3    0    0  0.27174640957E+02  0.71043247032E+02 -0.26155507880E+03  0.27239064467E+03  0.00000000000E+00 0. -1.
          1    1    1    2  501    0 -0.23553351926E+02 -0.12027344287E+03 -0.22991554708E+03  0.26054101450E+03  0.00000000000E+00 0. -1.
<mgrwt>
<rscale>  1 0.14623570E+03</rscale>
<asrwt>0</asrwt>
<pdfrwt beam="1">  1       21 0.49161336E-02 0.14623570E+03</pdfrwt>
<pdfrwt beam="2">  1        2 0.87149895E-01 0.14623570E+03</pdfrwt>
<totfact> 0.18606854E+05</totfact>
</mgrwt>
</event>
<event>
 6    2  0.9453093E+000  0.9292547E+02  0.7546771E-02  0.1295918E+00
          2   -1    0    0  502    0 -0.00000000000E+00  0.00000000000E+00  0.19472823738E+04  0.19472823738E+04  0.00000000000E+00 0. -1.
         21   -1    0    0  501  502  0.00000000000E+00 -0.00000000000E+00 -0.29867883864E+01  0.29867883864E+01  0.00000000000E+00 0. -1.
         24    2    1    2    0    0  0.44540969169E+02 -0.10343053844E+02  0.85918885217E+03  0.86419941340E+03  0.80896636093E+02 0.  0.
        -13    1    3    3    0    0 -0.22400990942E+02 -0.58030395205E+01  0.14134388826E+03  0.14322560669E+03  0.00000000000E+00 0.  1.
         14    1    3    3    0    0  0.66941960111E+02 -0.45400143232E+01  0.71784496391E+03  0.72097380672E+03  0.00000000000E+00 0. -1.
          1    1    1    2  501    0 -0.44540969169E+02  0.10343053844E+02  0.10851067333E+04  0.10860697488E+04  0.00000000000E+00 0. -1.
<mgrwt>
<rscale>  1 0.92925467E+02</rscale>
<asrwt>0</asrwt>
<pdfrwt beam="1">  1       21 0.45950746E-03 0.92925467E+02</pdfrwt>
<pdfrwt beam="2">  1        2 0.29958089E+00 0.92925467E+02</pdfrwt>
<totfact> 0.12685078E+06</totfact>
</mgrwt>
</event>
<event>
 6    2  0.1127059E+001  0.1066109E+03  0.7546771E-02  0.1266978E+00
         21   -1    0    0  501  502  0.00000000000E+00  0.00000000000E+00  0.82105361686E+01  0.82105361686E+01  0.00000000000E+00 0.  1.
         -3   -1    0    0    0  501 -0.00000000000E+00 -0.00000000000E+00 -0.10082251644E+04  0.10082251644E+04  0.00000000000E+00 0.  1.
         24    2    1    2    0    0  0.66997701532E+02  0.29499893304E+02 -0.66732161303E+03  0.67578400443E+03  0.77504514179E+02 0.  0.
        -11    1    3    3    0    0  0.65448924973E+02  0.38538314340E+02 -0.65911863187E+03  0.66348031948E+03  0.00000000000E+00 0.  1.
         12    1    3    3    0    0  0.15487765586E+01 -0.90384210353E+01 -0.82029811533E+01  0.12303684954E+02  0.00000000000E+00 0. -1.
         -4    1    1    2    0  502 -0.66997701532E+02 -0.29499893304E+02 -0.33269301525E+03  0.34065169618E+03  0.00000000000E+00 0.  1.
<mgrwt>
<rscale>  1 0.10661091E+03</rscale>
<asrwt>0</asrwt>
<pdfrwt beam="1">  1       21 0.12631594E-02 0.10661091E+03</pdfrwt>
<pdfrwt beam="2">  1       -3 0.15511157E+00 0.10661091E+03</pdfrwt>
<totfact> 0.38196881E+04</totfact>
</mgrwt>
</event>
<event>
 6    2  0.9453093E+000  0.7333963E+02  0.7546771E-02  0.1349091E+00
         -3   -1    0    0    0  501 -0.00000000000E+00  0.00000000000E+00  0.35370822545E+02  0.35370822545E+02  0.00000000000E+00 0.  1.
         21   -1    0    0  501  502  0.00000000000E+00 -0.00000000000E+00 -0.81864391956E+02  0.81864391956E+02  0.00000000000E+00 0.  1.
         24    2    1    2    0    0 -0.23313574228E+02  0.13727448997E+02 -0.51638842928E+02  0.89695435293E+02  0.68166967177E+02 0.  0.
        -13    1    3    3    0    0 -0.14972325315E+02 -0.25184312158E+02 -0.37219690035E+02  0.47367978958E+02  0.00000000000E+00 0.  1.
         14    1    3    3    0    0 -0.83412489134E+01  0.38911761155E+02 -0.14419152893E+02  0.42327456335E+02  0.00000000000E+00 0. -1.
         -4    1    1    2    0  502  0.23313574228E+02 -0.13727448997E+02  0.51452735167E+01  0.27539779208E+02  0.00000000000E+00 0.  1.
<mgrwt>
<rscale>  1 0.73339628E+02</rscale>
<asrwt>0</asrwt>
<pdfrwt beam="1">  1       21 0.12594522E-01 0.73339628E+02</pdfrwt>
<pdfrwt beam="2">  1       -3 0.54416650E-02 0.73339628E+02</pdfrwt>
<totfact> 0.45464929E+05</totfact>
</mgrwt>
</event>
<event>
 6    2  0.9453093E+000  0.9064448E+02  0.7546771E-02  0.1301298E+00
         -1   -1    0    0    0  501 -0.00000000000E+00  0.00000000000E+00  0.32448971766E+03  0.32448971766E+03  0.00000000000E+00 0.  1.
         21   -1    0    0  501  502  0.00000000000E+00 -0.00000000000E+00 -0.13438489126E+02  0.13438489126E+02  0.00000000000E+00 0.  1.
         24    2    1    2    0    0  0.40910684007E+02 -0.28753512637E+01  0.22618343882E+03  0.24367061589E+03  0.80836064602E+02 0.  0.
        -13    1    3    3    0    0  0.28662366610E+02  0.26989712653E+02  0.19448483439E+03  0.19842965166E+03  0.00000000000E+00 0.  1.
         14    1    3    3    0    0  0.12248317397E+02 -0.29865063916E+02  0.31698604427E+02  0.45240964230E+02  0.00000000000E+00 0. -1.
         -2    1    1    2    0  502 -0.40910684007E+02  0.28753512637E+01  0.84867789719E+02  0.94257590902E+02  0.00000000000E+00 0.  1.
<mgrwt>
<rscale>  1 0.90644476E+02</rscale>
<asrwt>0</asrwt>
<pdfrwt beam="1">  1       21 0.20674601E-02 0.90644476E+02</pdfrwt>
<pdfrwt beam="2">  1       -1 0.49921489E-01 0.90644476E+02</pdfrwt>
<totfact> 0.41726802E+05</totfact>
</mgrwt>
</event>
<event>
 6    2  0.9453093E+000  0.7980359E+02  0.7546771E-02  0.1329610E+00
         -1   -1    0    0    0  501 -0.00000000000E+00  0.00000000000E+00  0.37668218247E+03  0.37668218247E+03  0.00000000000E+00 0.  1.
         21   -1    0    0  501  502  0.00000000000E+00 -0.00000000000E+00 -0.72721739617E+01  0.72721739617E+01  0.00000000000E+00 0. -1.
         24    2    1    2    0    0  0.23637859229E+01 -0.24165133381E+02  0.29941464554E+03  0.30986729958E+03  0.76020209371E+02 0.  0.
        -11    1    3    3    0    0 -0.74763523211E+01  0.64830694021E+01  0.25405044854E+03  0.25424310499E+03  0.00000000000E+00 0.  1.
         12    1    3    3    0    0  0.98401382440E+01 -0.30648202783E+02  0.45364196998E+02  0.55624194590E+02  0.00000000000E+00 0. -1.
         -2    1    1    2    0  502 -0.23637859229E+01  0.24165133381E+02  0.69995362970E+02  0.74087056849E+02  0.00000000000E+00 0.  1.
<mgrwt>
<rscale>  1 0.79803593E+02</rscale>
<asrwt>0</asrwt>
<pdfrwt beam="1">  1       21 0.11187963E-02 0.79803593E+02</pdfrwt>
<pdfrwt beam="2">  1       -1 0.57951090E-01 0.79803593E+02</pdfrwt>
<totfact> 0.82712178E+05</totfact>
</mgrwt>
</event>
<event>
 6    2  0.9453093E+000  0.8303464E+02  0.7546771E-02  0.1320654E+00
         21   -1    0    0  501  502  0.00000000000E+00  0.00000000000E+00  0.26588235621E+03  0.26588235621E+03  0.00000000000E+00 0. -1.
         -1   -1    0    0    0  501 -0.00000000000E+00 -0.00000000000E+00 -0.11792494932E+02  0.11792494932E+02  0.00000000000E+00 0.  1.
         24    2    1    2    0    0 -0.89277146196E+01  0.20032081742E+02  0.23257111090E+03  0.24694953576E+03  0.80085973816E+02 0.  0.
        -13    1    3    3    0    0 -0.32283123524E+02  0.25073788644E+02  0.59208776649E+02  0.71948413282E+02  0.00000000000E+00 0.  1.
         14    1    3    3    0    0  0.23355408905E+02 -0.50417069022E+01  0.17336233425E+03  0.17500112248E+03  0.00000000000E+00 0. -1.
         -2    1    1    2    0  502  0.89277146196E+01 -0.20032081742E+02  0.21518750380E+02  0.30725315380E+02  0.00000000000E+00 0.  1.
<mgrwt>
<rscale>  1 0.83034641E+02</rscale>
<asrwt>0</asrwt>
<pdfrwt beam="1">  1       21 0.40904973E-01 0.83034641E+02</pdfrwt>
<pdfrwt beam="2">  1       -1 0.18142302E-02 0.83034641E+02</pdfrwt>
<totfact> 0.36996890E+05</totfact>
</mgrwt>
</event>
<event>
 6    2  0.9453093E+000  0.8153227E+02  0.7546771E-02  0.1324758E+00
         21   -1    0    0  501  502  0.00000000000E+00  0.00000000000E+00  0.18774999586E+02  0.18774999586E+02  0.00000000000E+00 0. -1.
          2   -1    0    0  502    0 -0.00000000000E+00 -0.00000000000E+00 -0.14515454137E+03  0.14515454137E+03  0.00000000000E+00 0. -1.
         24    2    1    2    0    0  0.19554089552E+02 -0.10846865930E+02 -0.10552394718E+03  0.13335221693E+03  0.78405952653E+02 0.  0.
        -13    1    3    3    0    0  0.14006643162E+02  0.17052070677E+02  0.19732686042E+01  0.22155201557E+02  0.00000000000E+00 0.  1.
         14    1    3    3    0    0  0.55474463903E+01 -0.27898936607E+02 -0.10749721579E+03  0.11119701537E+03  0.00000000000E+00 0. -1.
          1    1    1    2  501    0 -0.19554089552E+02  0.10846865930E+02 -0.20855594607E+02  0.30577324035E+02  0.00000000000E+00 0. -1.
<mgrwt>
<rscale>  1 0.81532266E+02</rscale>
<asrwt>0</asrwt>
<pdfrwt beam="1">  1       21 0.28884616E-02 0.81532266E+02</pdfrwt>
<pdfrwt beam="2">  1        2 0.22331467E-01 0.81532266E+02</pdfrwt>
<totfact> 0.18365183E+06</totfact>
</mgrwt>
</event>
<event>
 6    2  0.9453093E+000  0.8364384E+02  0.7546771E-02  0.1319018E+00
         21   -1    0    0  501  502  0.00000000000E+00  0.00000000000E+00  0.52366169348E+01  0.52366169348E+01  0.00000000000E+00 0.  1.
          2   -1    0    0  502    0 -0.00000000000E+00 -0.00000000000E+00 -0.55764512801E+03  0.55764512801E+03  0.00000000000E+00 0. -1.
         24    2    1    2    0    0  0.13646192533E+02  0.19869091031E+02 -0.44622887348E+03  0.45400054919E+03  0.80095516660E+02 0.  0.
        -11    1    3    3    0    0  0.13406950860E+02  0.49158548836E+02 -0.21668058686E+03  0.22259107345E+03  0.00000000000E+00 0.  1.
         12    1    3    3    0    0  0.23924167295E+00 -0.29289457805E+02 -0.22954828662E+03  0.23140947575E+03  0.00000000000E+00 0. -1.
          1    1    1    2  501    0 -0.13646192533E+02 -0.19869091031E+02 -0.10617963759E+03  0.10888119575E+03  0.00000000000E+00 0. -1.
<mgrwt>
<rscale>  1 0.83643835E+02</rscale>
<asrwt>0</asrwt>
<pdfrwt beam="1">  1       21 0.80563328E-03 0.83643835E+02</pdfrwt>
<pdfrwt beam="2">  1        2 0.85791568E-01 0.83643835E+02</pdfrwt>
<totfact> 0.33323533E+06</totfact>
</mgrwt>
</event>
<event>
 6    2  0.9987059E+000  0.8064112E+02  0.7546771E-02  0.1327242E+00
         21   -1    0    0  501  502  0.00000000000E+00  0.00000000000E+00  0.52312829773E+02  0.52312829773E+02  0.00000000000E+00 0. -1.
         -1   -1    0    0    0  501 -0.00000000000E+00 -0.00000000000E+00 -0.14156070623E+03  0.14156070623E+03  0.00000000000E+00 0.  1.
         24    2    1    2    0    0  0.16551783972E+02 -0.15664349637E+02  0.19333631922E+02  0.82926353236E+02  0.77354103547E+02 0.  0.
        -11    1    3    3    0    0  0.36701614736E+02 -0.24272443969E+01 -0.16032837522E+02  0.40124206142E+02  0.00000000000E+00 0.  1.
         12    1    3    3    0    0 -0.20149830764E+02 -0.13237105240E+02  0.35366469443E+02  0.42802147094E+02  0.00000000000E+00 0. -1.
         -2    1    1    2    0  502 -0.16551783972E+02  0.15664349637E+02 -0.10858150838E+03  0.11094718277E+03  0.00000000000E+00 0.  1.
<mgrwt>
<rscale>  1 0.80641123E+02</rscale>
<asrwt>0</asrwt>
<pdfrwt beam="1">  1       21 0.80481277E-02 0.80641123E+02</pdfrwt>
<pdfrwt beam="2">  1       -1 0.21778570E-01 0.80641123E+02</pdfrwt>
<totfact> 0.17817601E+05</totfact>
</mgrwt>
</event>
<event>
 6    2  0.9453093E+000  0.8682979E+02  0.7546771E-02  0.1310716E+00
          2   -1    0    0  502    0 -0.00000000000E+00  0.00000000000E+00  0.59296818902E+03  0.59296818902E+03  0.00000000000E+00 0. -1.
         21   -1    0    0  501  502  0.00000000000E+00 -0.00000000000E+00 -0.17406645302E+02  0.17406645302E+02  0.00000000000E+00 0. -1.
         24    2    1    2    0    0  0.47792162476E+01 -0.25917836648E+02  0.57746014806E+03  0.58395174096E+03  0.82733536235E+02 0.  0.
        -13    1    3    3    0    0 -0.35550463483E+02 -0.22576324824E+02  0.20373553286E+03  0.20804252749E+03  0.00000000000E+00 0.  1.
         14    1    3    3    0    0  0.40329679730E+02 -0.33415118246E+01  0.37372461520E+03  0.37590921347E+03  0.00000000000E+00 0. -1.
          1    1    1    2  501    0 -0.47792162476E+01  0.25917836648E+02 -0.18986043317E+01  0.26423093363E+02  0.00000000000E+00 0. -1.
<mgrwt>
<rscale>  1 0.86829794E+02</rscale>
<asrwt>0</asrwt>
<pdfrwt beam="1">  1       21 0.26779459E-02 0.86829794E+02</pdfrwt>
<pdfrwt beam="2">  1        2 0.91225860E-01 0.86829794E+02</pdfrwt>
<totfact> 0.46787314E+05</totfact>
</mgrwt>
</event>
<event>
 6    2  0.9453093E+000  0.1008997E+03  0.7546771E-02  0.1278415E+00
         21   -1    0    0  501  502  0.00000000000E+00  0.00000000000E+00  0.13286509598E+02  0.13286509598E+02  0.00000000000E+00 0. -1.
          2   -1    0    0  502    0 -0.00000000000E+00 -0.00000000000E+00 -0.21698770271E+04  0.21698770271E+04  0.00000000000E+00 0. -1.
         24    2    1    2    0    0  0.26238354871E+02  0.56914308725E+02 -0.20872915381E+04  0.20897288624E+04  0.79076315992E+02 0.  0.
        -13    1    3    3    0    0  0.21899591744E+02  0.16034956938E+01 -0.14575068059E+03  0.14739546876E+03  0.00000000000E+00 0.  1.
         14    1    3    3    0    0  0.43387631274E+01  0.55310813031E+02 -0.19415408575E+04  0.19423333937E+04  0.00000000000E+00 0. -1.
          1    1    1    2  501    0 -0.26238354871E+02 -0.56914308725E+02 -0.69298979388E+02  0.93434674229E+02  0.00000000000E+00 0. -1.
<mgrwt>
<rscale>  1 0.10089972E+03</rscale>
<asrwt>0</asrwt>
<pdfrwt beam="1">  1       21 0.20440779E-02 0.10089972E+03</pdfrwt>
<pdfrwt beam="2">  1        2 0.33382731E+00 0.10089972E+03</pdfrwt>
<totfact> 0.94806223E+04</totfact>
</mgrwt>
</event>
<event>
 6    2  0.9453093E+000  0.9221362E+02  0.7546771E-02  0.1297578E+00
         21   -1    0    0  501  502  0.00000000000E+00  0.00000000000E+00  0.43292724402E+01  0.43292724402E+01  0.00000000000E+00 0.  1.
          2   -1    0    0  502    0 -0.00000000000E+00 -0.00000000000E+00 -0.16599101755E+04  0.16599101755E+04  0.00000000000E+00 0. -1.
         24    2    1    2    0    0 -0.36585692444E+02 -0.26442058018E+02 -0.54535425685E+03  0.55309548730E+03  0.80409310891E+02 0.  0.
        -13    1    3    3    0    0 -0.11402092250E+02 -0.53297256646E+02 -0.28676132127E+03  0.29189494797E+03  0.00000000000E+00 0.  1.
         14    1    3    3    0    0 -0.25183600194E+02  0.26855198627E+02 -0.25859293559E+03  0.26120053933E+03  0.00000000000E+00 0. -1.
          1    1    1    2  501    0  0.36585692444E+02  0.26442058018E+02 -0.11102266462E+04  0.11111439606E+04  0.00000000000E+00 0. -1.
<mgrwt>
<rscale>  1 0.92213625E+02</rscale>
<asrwt>0</asrwt>
<pdfrwt beam="1">  1       21 0.66604198E-03 0.92213625E+02</pdfrwt>
<pdfrwt beam="2">  1        2 0.25537077E+00 0.92213625E+02</pdfrwt>
<totfact> 0.99906624E+05</totfact>
</mgrwt>
</event>
<event>
 6    2  0.9453093E+000  0.1056528E+03  0.7546771E-02  0.1268839E+00
          2   -1    0    0  502    0 -0.00000000000E+00  0.00000000000E+00  0.45570482582E+03  0.45570482582E+03  0.00000000000E+00 0. -1.
         21   -1    0    0  501  502  0.00000000000E+00 -0.00000000000E+00 -0.16746965630E+03  0.16746965630E+03  0.00000000000E+00 0. -1.
         24    2    1    2    0    0 -0.31104852983E+02  0.62541634273E+02  0.44191304491E+03  0.45436732208E+03  0.79268885512E+02 0.  0.
        -11    1    3    3    0    0 -0.53152603448E+02  0.19077835317E+02  0.25782066855E+03  0.26393306005E+03  0.00000000000E+00 0.  1.
         12    1    3    3    0    0  0.22047750465E+02  0.43463798956E+02  0.18409237636E+03  0.19043426203E+03  0.00000000000E+00 0. -1.
          1    1    1    2  501    0  0.31104852983E+02 -0.62541634273E+02 -0.15367787539E+03  0.16880716004E+03  0.00000000000E+00 0. -1.
<mgrwt>
<rscale>  1 0.10565285E+03</rscale>
<asrwt>0</asrwt>
<pdfrwt beam="1">  1       21 0.25764563E-01 0.10565285E+03</pdfrwt>
<pdfrwt beam="2">  1        2 0.70108434E-01 0.10565285E+03</pdfrwt>
<totfact> 0.12576181E+04</totfact>
</mgrwt>
</event>
<event>
 6    2  0.9453093E+000  0.8900919E+02  0.7546771E-02  0.1305269E+00
          4   -1    0    0  502    0 -0.00000000000E+00  0.00000000000E+00  0.63473963593E+03  0.63473963593E+03  0.00000000000E+00 0. -1.
         21   -1    0    0  501  502  0.00000000000E+00 -0.00000000000E+00 -0.62439481589E+01  0.62439481589E+01  0.00000000000E+00 0.  1.
         24    2    1    2    0    0  0.23477388495E+02  0.27868107290E+02  0.46986431426E+03  0.47822077557E+03  0.81208479845E+02 0.  0.
        -13    1    3    3    0    0  0.99000898761E+01  0.11987617781E+02  0.11395687476E+02  0.19276318442E+02  0.00000000000E+00 0.  1.
         14    1    3    3    0    0  0.13577298619E+02  0.15880489509E+02  0.45846862679E+03  0.45894445713E+03  0.00000000000E+00 0. -1.
          3    1    1    2  501    0 -0.23477388495E+02 -0.27868107290E+02  0.15863137351E+03  0.16276280852E+03  0.00000000000E+00 0. -1.
<mgrwt>
<rscale>  1 0.89009193E+02</rscale>
<asrwt>0</asrwt>
<pdfrwt beam="1">  1       21 0.96060791E-03 0.89009193E+02</pdfrwt>
<pdfrwt beam="2">  1        4 0.97652201E-01 0.89009193E+02</pdfrwt>
<totfact> 0.13490664E+05</totfact>
</mgrwt>
</event>
<event>
 6    2  0.9453093E+000  0.8330803E+02  0.7546771E-02  0.1319917E+00
         21   -1    0    0  501  502  0.00000000000E+00  0.00000000000E+00  0.24102511764E+01  0.24102511764E+01  0.00000000000E+00 0.  1.
          2   -1    0    0  502    0 -0.00000000000E+00 -0.00000000000E+00 -0.12736788676E+04  0.12736788676E+04  0.00000000000E+00 0. -1.
         24    2    1    2    0    0  0.10124452409E+01 -0.20893165354E+02 -0.11513332835E+04  0.11543433448E+04  0.80639187287E+02 0.  0.
        -13    1    3    3    0    0 -0.14930937364E+02  0.15393103490E+02 -0.10048197972E+03  0.10274487225E+03  0.00000000000E+00 0.  1.
         14    1    3    3    0    0  0.15943382605E+02 -0.36286268844E+02 -0.10508513038E+04  0.10515984725E+04  0.00000000000E+00 0. -1.
          1    1    1    2  501    0 -0.10124452409E+01  0.20893165354E+02 -0.11993533294E+03  0.12174577402E+03  0.00000000000E+00 0. -1.
<mgrwt>
<rscale>  1 0.83308030E+02</rscale>
<asrwt>0</asrwt>
<pdfrwt beam="1">  1       21 0.37080765E-03 0.83308030E+02</pdfrwt>
<pdfrwt beam="2">  1        2 0.19595071E+00 0.83308030E+02</pdfrwt>
<totfact> 0.38366451E+06</totfact>
</mgrwt>
</event>
<event>
 6    2  0.9453093E+000  0.9169003E+02  0.7546771E-02  0.1298810E+00
         21   -1    0    0  501  502  0.00000000000E+00  0.00000000000E+00  0.10909714873E+02  0.10909714873E+02  0.00000000000E+00 0. -1.
         -1   -1    0    0    0  501 -0.00000000000E+00 -0.00000000000E+00 -0.92070871947E+03  0.92070871947E+03  0.00000000000E+00 0.  1.
         24    2    1    2    0    0  0.34070027200E+02 -0.29604820765E+02 -0.85811764644E+03  0.86300229232E+03  0.79811335273E+02 0.  0.
        -11    1    3    3    0    0 -0.10339629104E+02 -0.42058260742E+02 -0.32112278580E+03  0.32403032079E+03  0.00000000000E+00 0.  1.
         12    1    3    3    0    0  0.44409656304E+02  0.12453439977E+02 -0.53699486064E+03  0.53897197153E+03  0.00000000000E+00 0. -1.
         -2    1    1    2    0  502 -0.34070027200E+02  0.29604820765E+02 -0.51681358150E+02  0.68616142023E+02  0.00000000000E+00 0.  1.
<mgrwt>
<rscale>  1 0.91690029E+02</rscale>
<asrwt>0</asrwt>
<pdfrwt beam="1">  1       21 0.16784171E-02 0.91690029E+02</pdfrwt>
<pdfrwt beam="2">  1       -1 0.14164754E+00 0.91690029E+02</pdfrwt>
<totfact> 0.66022411E+04</totfact>
</mgrwt>
</event>
<event>
 6    2  0.9453093E+000  0.9404487E+02  0.7546771E-02  0.1293342E+00
         21   -1    0    0  501  502  0.00000000000E+00  0.00000000000E+00  0.10596884617E+02  0.10596884617E+02  0.00000000000E+00 0.  1.
          4   -1    0    0  502    0 -0.00000000000E+00 -0.00000000000E+00 -0.50589483811E+03  0.50589483811E+03  0.00000000000E+00 0. -1.
         24    2    1    2    0    0  0.48819331481E+02  0.18659039778E+01 -0.37588670280E+03  0.38747290427E+03  0.80359377039E+02 0.  0.
        -13    1    3    3    0    0  0.36026999135E+02 -0.32360213687E+02 -0.12702092619E+03  0.13593911794E+03  0.00000000000E+00 0.  1.
         14    1    3    3    0    0  0.12792332346E+02  0.34226117665E+02 -0.24886577661E+03  0.25153378633E+03  0.00000000000E+00 0. -1.
          3    1    1    2  501    0 -0.48819331481E+02 -0.18659039778E+01 -0.11941125069E+03  0.12901881845E+03  0.00000000000E+00 0. -1.
<mgrwt>
<rscale>  1 0.94044873E+02</rscale>
<asrwt>0</asrwt>
<pdfrwt beam="1">  1       21 0.16302897E-02 0.94044873E+02</pdfrwt>
<pdfrwt beam="2">  1        4 0.77829985E-01 0.94044873E+02</pdfrwt>
<totfact> 0.98129365E+04</totfact>
</mgrwt>
</event>
<event>
 6    2  0.9453093E+000  0.8256140E+02  0.7546771E-02  0.1321936E+00
         21   -1    0    0  501  502  0.00000000000E+00  0.00000000000E+00  0.40361699745E+02  0.40361699745E+02  0.00000000000E+00 0. -1.
          2   -1    0    0  502    0 -0.00000000000E+00 -0.00000000000E+00 -0.15182135261E+03  0.15182135261E+03  0.00000000000E+00 0. -1.
         24    2    1    2    0    0  0.24236797739E+02 -0.19556293753E+02 -0.13141342741E+03  0.15519624243E+03  0.76462499120E+02 0.  0.
        -11    1    3    3    0    0 -0.19948122592E+02 -0.21442917459E+02 -0.89860173207E+02  0.94512311541E+02  0.00000000000E+00 0.  1.
         12    1    3    3    0    0  0.44184920331E+02  0.18866237056E+01 -0.41553254205E+02  0.60683930893E+02  0.00000000000E+00 0. -1.
          1    1    1    2  501    0 -0.24236797739E+02  0.19556293753E+02  0.19953774542E+02  0.36986809926E+02  0.00000000000E+00 0. -1.
<mgrwt>
<rscale>  1 0.82561400E+02</rscale>
<asrwt>0</asrwt>
<pdfrwt beam="1">  1       21 0.62094924E-02 0.82561400E+02</pdfrwt>
<pdfrwt beam="2">  1        2 0.23357131E-01 0.82561400E+02</pdfrwt>
<totfact> 0.49620854E+05</totfact>
</mgrwt>
</event>
<event>
 6    2  0.9453093E+000  0.9458408E+02  0.7546771E-02  0.1292116E+00
         -3   -1    0    0    0  501 -0.00000000000E+00  0.00000000000E+00  0.59719112517E+02  0.59719112517E+02  0.00000000000E+00 0.  1.
         21   -1    0    0  501  502  0.00000000000E+00 -0.00000000000E+00 -0.90875097675E+02  0.90875097675E+02  0.00000000000E+00 0.  1.
         24    2    1    2    0    0  0.11431583321E+02  0.48782979317E+02 -0.66492463653E+01  0.94817508833E+02  0.80222735778E+02 0.  0.
        -13    1    3    3    0    0  0.38992739293E+02  0.52705286694E+02  0.22232742756E+01  0.65598962732E+02  0.00000000000E+00 0.  1.
         14    1    3    3    0    0 -0.27561155972E+02 -0.39223073772E+01 -0.88725206409E+01  0.29218546100E+02  0.00000000000E+00 0. -1.
         -4    1    1    2    0  502 -0.11431583321E+02 -0.48782979317E+02 -0.24506738793E+02  0.55776701359E+02  0.00000000000E+00 0.  1.
<mgrwt>
<rscale>  1 0.94584076E+02</rscale>
<asrwt>0</asrwt>
<pdfrwt beam="1">  1       21 0.13980784E-01 0.94584076E+02</pdfrwt>
<pdfrwt beam="2">  1       -3 0.91875558E-02 0.94584076E+02</pdfrwt>
<totfact> 0.17091209E+05</totfact>
</mgrwt>
</event>
<event>
 6    2  0.9453093E+000  0.8499822E+02  0.7546771E-02  0.1315437E+00
          2   -1    0    0  502    0 -0.00000000000E+00  0.00000000000E+00  0.61266797733E+03  0.61266797733E+03  0.00000000000E+00 0. -1.
         21   -1    0    0  501  502  0.00000000000E+00 -0.00000000000E+00 -0.58046173785E+01  0.58046173785E+01  0.00000000000E+00 0. -1.
         24    2    1    2    0    0 -0.21898201053E+02  0.13950782075E+01  0.56349107124E+03  0.56986567256E+03  0.82117111149E+02 0.  0.
        -11    1    3    3    0    0  0.29299371143E+02 -0.12148615251E+02  0.18763695239E+03  0.19029889097E+03  0.00000000000E+00 0.  1.
         12    1    3    3    0    0 -0.51197572196E+02  0.13543693459E+02  0.37585411885E+03  0.37956678159E+03  0.00000000000E+00 0. -1.
          1    1    1    2  501    0  0.21898201053E+02 -0.13950782075E+01  0.43372288707E+02  0.48606922144E+02  0.00000000000E+00 0. -1.
<mgrwt>
<rscale>  1 0.84998220E+02</rscale>
<asrwt>0</asrwt>
<pdfrwt beam="1">  1       21 0.89301854E-03 0.84998220E+02</pdfrwt>
<pdfrwt beam="2">  1        2 0.94256561E-01 0.84998220E+02</pdfrwt>
<totfact> 0.25636581E+06</totfact>
</mgrwt>
</event>
<event>
 6    2  0.9453093E+000  0.8781547E+02  0.7546771E-02  0.1308230E+00
          2   -1    0    0  502    0 -0.00000000000E+00  0.00000000000E+00  0.92720020897E+03  0.92720020897E+03  0.00000000000E+00 0. -1.
         21   -1    0    0  501  502  0.00000000000E+00 -0.00000000000E+00 -0.54245004093E+01  0.54245004093E+01  0.00000000000E+00 0.  1.
         24    2    1    2    0    0  0.67083830380E+01  0.23466502082E+02  0.87900228645E+03  0.88337793525E+03  0.84355662410E+02 0.  0.
        -11    1    3    3    0    0  0.79201690823E+01  0.15260059836E+02  0.31926646072E+02  0.36261677207E+02  0.00000000000E+00 0.  1.
         12    1    3    3    0    0 -0.12117860443E+01  0.82064422468E+01  0.84707564038E+03  0.84711625805E+03  0.00000000000E+00 0. -1.
          1    1    1    2  501    0 -0.67083830380E+01 -0.23466502082E+02  0.42773422108E+02  0.49246774126E+02  0.00000000000E+00 0. -1.
<mgrwt>
<rscale>  1 0.87815471E+02</rscale>
<asrwt>0</asrwt>
<pdfrwt beam="1">  1       21 0.83453926E-03 0.87815471E+02</pdfrwt>
<pdfrwt beam="2">  1        2 0.14264606E+00 0.87815471E+02</pdfrwt>
<totfact> 0.17397194E+06</totfact>
</mgrwt>
</event>
<event>
 6    2  0.9453093E+000  0.1124622E+03  0.7546771E-02  0.1256077E+00
         21   -1    0    0  501  502  0.00000000000E+00  0.00000000000E+00  0.14884315865E+03  0.14884315865E+03  0.00000000000E+00 0.  1.
          2   -1    0    0  502    0 -0.00000000000E+00 -0.00000000000E+00 -0.73689923644E+02  0.73689923644E+02  0.00000000000E+00 0. -1.
         24    2    1    2    0    0 -0.49319715827E+02 -0.67385875582E+02  0.81345076511E+02  0.13879760893E+03  0.75329039393E+02 0.  0.
        -11    1    3    3    0    0 -0.25660234833E+02 -0.34736310373E+01  0.63160322849E+02  0.68262289345E+02  0.00000000000E+00 0.  1.
         12    1    3    3    0    0 -0.23659480994E+02 -0.63912244545E+02  0.18184753662E+02  0.70535319588E+02  0.00000000000E+00 0. -1.
          1    1    1    2  501    0  0.49319715827E+02  0.67385875582E+02 -0.61918415064E+01  0.83735473358E+02  0.00000000000E+00 0. -1.
<mgrwt>
<rscale>  1 0.11246224E+03</rscale>
<asrwt>0</asrwt>
<pdfrwt beam="1">  1       21 0.22898947E-01 0.11246224E+03</pdfrwt>
<pdfrwt beam="2">  1        2 0.11336911E-01 0.11246224E+03</pdfrwt>
<totfact> 0.11654401E+05</totfact>
</mgrwt>
</event>
<event>
 6    2  0.9453093E+000  0.9459183E+02  0.7546771E-02  0.1292098E+00
         21   -1    0    0  501  502  0.00000000000E+00  0.00000000000E+00  0.39213481593E+01  0.39213481593E+01  0.00000000000E+00 0.  1.
          2   -1    0    0  502    0 -0.00000000000E+00 -0.00000000000E+00 -0.11140594145E+04  0.11140594145E+04  0.00000000000E+00 0. -1.
         24    2    1    2    0    0 -0.28630752082E+02 -0.13022852542E+02 -0.95586459018E+03  0.96053356484E+03  0.89209303201E+02 0.  0.
        -13    1    3    3    0    0 -0.49462062935E+02 -0.37315961755E+02 -0.57576527347E+03  0.57908948083E+03  0.00000000000E+00 0.  1.
         14    1    3    3    0    0  0.20831310852E+02  0.24293109213E+02 -0.38009931671E+03  0.38144408401E+03  0.00000000000E+00 0. -1.
          1    1    1    2  501    0  0.28630752082E+02  0.13022852542E+02 -0.15427347612E+03  0.15744719777E+03  0.00000000000E+00 0. -1.
<mgrwt>
<rscale>  1 0.94591831E+02</rscale>
<asrwt>0</asrwt>
<pdfrwt beam="1">  1       21 0.60328438E-03 0.94591831E+02</pdfrwt>
<pdfrwt beam="2">  1        2 0.17139374E+00 0.94591831E+02</pdfrwt>
<totfact> 0.22535485E+06</totfact>
</mgrwt>
</event>
<event>
 6    2  0.9453093E+000  0.8522651E+02  0.7546771E-02  0.1314841E+00
         21   -1    0    0  501  502  0.00000000000E+00  0.00000000000E+00  0.37223403246E+01  0.37223403246E+01  0.00000000000E+00 0.  1.
          2   -1    0    0  502    0 -0.00000000000E+00 -0.00000000000E+00 -0.92574088647E+03  0.92574088647E+03  0.00000000000E+00 0. -1.
         24    2    1    2    0    0  0.12619926243E+01 -0.26932548150E+02 -0.79854933646E+03  0.80308442907E+03  0.80849258937E+02 0.  0.
        -13    1    3    3    0    0 -0.27731093013E+02 -0.24374325765E+02 -0.17480767857E+03  0.17866405840E+03  0.00000000000E+00 0.  1.
         14    1    3    3    0    0  0.28993085638E+02 -0.25582223856E+01 -0.62374165789E+03  0.62442037067E+03  0.00000000000E+00 0. -1.
          1    1    1    2  501    0 -0.12619926243E+01  0.26932548150E+02 -0.12346920968E+03  0.12637879773E+03  0.00000000000E+00 0. -1.
<mgrwt>
<rscale>  1 0.85226507E+02</rscale>
<asrwt>0</asrwt>
<pdfrwt beam="1">  1       21 0.57266781E-03 0.85226507E+02</pdfrwt>
<pdfrwt beam="2">  1        2 0.14242166E+00 0.85226507E+02</pdfrwt>
<totfact> 0.31089137E+06</totfact>
</mgrwt>
</event>
<event>
 6    2  0.9453093E+000  0.8494245E+02  0.7546771E-02  0.1315583E+00
          2   -1    0    0  502    0 -0.00000000000E+00  0.00000000000E+00  0.20183106552E+04  0.20183106552E+04  0.00000000000E+00 0. -1.
         21   -1    0    0  501  502  0.00000000000E+00 -0.00000000000E+00 -0.20380031112E+01  0.20380031112E+01  0.00000000000E+00 0.  1.
         24    2    1    2    0    0 -0.90546133787E+01 -0.41276695567E+02  0.14635877774E+04  0.14660506136E+04  0.73684923624E+02 0.  0.
        -13    1    3    3    0    0  0.26415381853E+01 -0.56395063954E+02  0.71739885673E+03  0.71961691239E+03  0.00000000000E+00 0.  1.
         14    1    3    3    0    0 -0.11696151564E+02  0.15118368387E+02  0.74618892063E+03  0.74643370121E+03  0.00000000000E+00 0. -1.
          1    1    1    2  501    0  0.90546133787E+01  0.41276695567E+02  0.55268487476E+03  0.55429804474E+03  0.00000000000E+00 0. -1.
<mgrwt>
<rscale>  1 0.84942449E+02</rscale>
<asrwt>0</asrwt>
<pdfrwt beam="1">  1       21 0.31354056E-03 0.84942449E+02</pdfrwt>
<pdfrwt beam="2">  1        2 0.31050773E+00 0.84942449E+02</pdfrwt>
<totfact> 0.20786693E+06</totfact>
</mgrwt>
</event>
<event>
 6    2  0.9453093E+000  0.8386283E+02  0.7546771E-02  0.1318433E+00
         21   -1    0    0  501  502  0.00000000000E+00  0.00000000000E+00  0.17082668757E+02  0.17082668757E+02  0.00000000000E+00 0.  1.
          2   -1    0    0  502    0 -0.00000000000E+00 -0.00000000000E+00 -0.19787056318E+03  0.19787056318E+03  0.00000000000E+00 0. -1.
         24    2    1    2    0    0  0.19811948710E+02  0.30398664212E+01 -0.17505413981E+03  0.19410544928E+03  0.81432299955E+02 0.  0.
        -13    1    3    3    0    0  0.48829010612E+02  0.16552896131E+02 -0.11576997055E+03  0.12673182997E+03  0.00000000000E+00 0.  1.
         14    1    3    3    0    0 -0.29017061902E+02 -0.13513029710E+02 -0.59284169266E+02  0.67373619310E+02  0.00000000000E+00 0. -1.
          1    1    1    2  501    0 -0.19811948710E+02 -0.30398664212E+01 -0.57337546066E+01  0.20847782650E+02  0.00000000000E+00 0. -1.
<mgrwt>
<rscale>  1 0.83862826E+02</rscale>
<asrwt>0</asrwt>
<pdfrwt beam="1">  1       21 0.26281028E-02 0.83862826E+02</pdfrwt>
<pdfrwt beam="2">  1        2 0.30441626E-01 0.83862826E+02</pdfrwt>
<totfact> 0.15358581E+06</totfact>
</mgrwt>
</event>
<event>
 6    2  0.9453093E+000  0.1081217E+03  0.7546771E-02  0.1264088E+00
         21   -1    0    0  501  502  0.00000000000E+00  0.00000000000E+00  0.42664523066E+03  0.42664523066E+03  0.00000000000E+00 0. -1.
          2   -1    0    0  502    0 -0.00000000000E+00 -0.00000000000E+00 -0.23715316679E+02  0.23715316679E+02  0.00000000000E+00 0. -1.
         24    2    1    2    0    0 -0.53374388552E+02  0.45405775584E+02  0.13258888521E+03  0.17108508897E+03  0.82339452133E+02 0.  0.
        -11    1    3    3    0    0 -0.20482369149E+02  0.21325066751E+02  0.12644957700E+03  0.12986062313E+03  0.00000000000E+00 0.  1.
         12    1    3    3    0    0 -0.32892019402E+02  0.24080708833E+02  0.61393082118E+01  0.41224465837E+02  0.00000000000E+00 0. -1.
          1    1    1    2  501    0  0.53374388552E+02 -0.45405775584E+02  0.27034102877E+03  0.27927545836E+03  0.00000000000E+00 0. -1.
<mgrwt>
<rscale>  1 0.10812167E+03</rscale>
<asrwt>0</asrwt>
<pdfrwt beam="1">  1       21 0.65637722E-01 0.10812167E+03</pdfrwt>
<pdfrwt beam="2">  1        2 0.36485106E-02 0.10812167E+03</pdfrwt>
<totfact> 0.60351008E+04</totfact>
</mgrwt>
</event>
<event>
 6    2  0.9453093E+000  0.8303629E+02  0.7546771E-02  0.1320649E+00
         21   -1    0    0  501  502  0.00000000000E+00  0.00000000000E+00  0.60300606495E+01  0.60300606495E+01  0.00000000000E+00 0.  1.
          2   -1    0    0  502    0 -0.00000000000E+00 -0.00000000000E+00 -0.56361812905E+03  0.56361812905E+03  0.00000000000E+00 0. -1.
         24    2    1    2    0    0  0.24605530416E+02  0.22724745028E+02 -0.40583928827E+03  0.41424697209E+03  0.75981443905E+02 0.  0.
        -11    1    3    3    0    0 -0.12417821409E+02 -0.19037031752E+02 -0.64784597337E+02  0.68656062504E+02  0.00000000000E+00 0.  1.
         12    1    3    3    0    0  0.37023351825E+02  0.41761776781E+02 -0.34105469094E+03  0.34559090959E+03  0.00000000000E+00 0. -1.
          1    1    1    2  501    0 -0.24605530416E+02 -0.22724745028E+02 -0.15174878012E+03  0.15540121760E+03  0.00000000000E+00 0. -1.
<mgrwt>
<rscale>  1 0.83036293E+02</rscale>
<asrwt>0</asrwt>
<pdfrwt beam="1">  1       21 0.92770191E-03 0.83036293E+02</pdfrwt>
<pdfrwt beam="2">  1        2 0.86710456E-01 0.83036293E+02</pdfrwt>
<totfact> 0.26431819E+06</totfact>
</mgrwt>
</event>
<event>
 6    2  0.9453093E+000  0.8859284E+02  0.7546771E-02  0.1306296E+00
         21   -1    0    0  501  502  0.00000000000E+00  0.00000000000E+00  0.39432203257E+01  0.39432203257E+01  0.00000000000E+00 0. -1.
          2   -1    0    0  502    0 -0.00000000000E+00 -0.00000000000E+00 -0.19046097972E+04  0.19046097972E+04  0.00000000000E+00 0. -1.
         24    2    1    2    0    0  0.29516268934E+02 -0.14843790404E+02 -0.18080646656E+04  0.18102338321E+04  0.82201847533E+02 0.  0.
        -13    1    3    3    0    0 -0.26783902907E+02 -0.10112344881E+02 -0.86869680304E+03  0.86916843741E+03  0.00000000000E+00 0.  1.
         14    1    3    3    0    0  0.56300171842E+02 -0.47314455235E+01 -0.93936786258E+03  0.94106539474E+03  0.00000000000E+00 0. -1.
          1    1    1    2  501    0 -0.29516268934E+02  0.14843790404E+02 -0.92601911221E+02  0.98319185346E+02  0.00000000000E+00 0. -1.
<mgrwt>
<rscale>  1 0.88592844E+02</rscale>
<asrwt>0</asrwt>
<pdfrwt beam="1">  1       21 0.60664914E-03 0.88592844E+02</pdfrwt>
<pdfrwt beam="2">  1        2 0.29301696E+00 0.88592844E+02</pdfrwt>
<totfact> 0.86790330E+05</totfact>
</mgrwt>
</event>
<event>
 6    2  0.9453093E+000  0.8351562E+02  0.7546771E-02  0.1319361E+00
         21   -1    0    0  501  502  0.00000000000E+00  0.00000000000E+00  0.51262306787E+01  0.51262306787E+01  0.00000000000E+00 0. -1.
          2   -1    0    0  502    0 -0.00000000000E+00 -0.00000000000E+00 -0.66777241492E+03  0.66777241492E+03  0.00000000000E+00 0. -1.
         24    2    1    2    0    0  0.17257348002E+02 -0.10712273179E+02 -0.62070038034E+03  0.62629371751E+03  0.81007960033E+02 0.  0.
        -13    1    3    3    0    0 -0.27223887919E+02  0.12199615369E+02 -0.14973354409E+03  0.15267647139E+03  0.00000000000E+00 0.  1.
         14    1    3    3    0    0  0.44481235921E+02 -0.22911888548E+02 -0.47096683624E+03  0.47361724612E+03  0.00000000000E+00 0. -1.
          1    1    1    2  501    0 -0.17257348002E+02  0.10712273179E+02 -0.41945803903E+02  0.46604928084E+02  0.00000000000E+00 0. -1.
<mgrwt>
<rscale>  1 0.83515618E+02</rscale>
<asrwt>0</asrwt>
<pdfrwt beam="1">  1       21 0.78865158E-03 0.83515618E+02</pdfrwt>
<pdfrwt beam="2">  1        2 0.10273413E+00 0.83515618E+02</pdfrwt>
<totfact> 0.28140823E+06</totfact>
</mgrwt>
</event>
<event>
 6    2  0.9453093E+000  0.9288484E+02  0.7546771E-02  0.1296012E+00
         21   -1    0    0  501  502  0.00000000000E+00  0.00000000000E+00  0.22957607304E+03  0.22957607304E+03  0.00000000000E+00 0.  1.
         -1   -1    0    0    0  501 -0.00000000000E+00 -0.00000000000E+00 -0.25745864807E+02  0.25745864807E+02  0.00000000000E+00 0.  1.
         24    2    1    2    0    0  0.50230921239E+02 -0.23321211180E+02  0.15868895351E+03  0.18387435414E+03  0.74569228267E+02 0.  0.
        -13    1    3    3    0    0 -0.48141512897E+01 -0.30120692863E+02  0.26074120173E+02  0.40128442955E+02  0.00000000000E+00 0.  1.
         14    1    3    3    0    0  0.55045072528E+02  0.67994816829E+01  0.13261483334E+03  0.14374591119E+03  0.00000000000E+00 0. -1.
         -2    1    1    2    0  502 -0.50230921239E+02  0.23321211180E+02  0.45141254717E+02  0.71447583702E+02  0.00000000000E+00 0.  1.
<mgrwt>
<rscale>  1 0.92884843E+02</rscale>
<asrwt>0</asrwt>
<pdfrwt beam="1">  1       21 0.35319394E-01 0.92884843E+02</pdfrwt>
<pdfrwt beam="2">  1       -1 0.39609024E-02 0.92884843E+02</pdfrwt>
<totfact> 0.16253996E+05</totfact>
</mgrwt>
</event>
<event>
 6    2  0.9453093E+000  0.9483021E+02  0.7546771E-02  0.1291559E+00
          2   -1    0    0  502    0 -0.00000000000E+00  0.00000000000E+00  0.25985287906E+04  0.25985287906E+04  0.00000000000E+00 0. -1.
         21   -1    0    0  501  502  0.00000000000E+00 -0.00000000000E+00 -0.27635821566E+01  0.27635821566E+01  0.00000000000E+00 0.  1.
         24    2    1    2    0    0 -0.41424931592E+02  0.28077113371E+02  0.94004192498E+03  0.94481299146E+03  0.80550722292E+02 0.  0.
        -13    1    3    3    0    0 -0.57759770580E+02  0.46241263925E+01  0.41898752433E+03  0.42297531746E+03  0.00000000000E+00 0.  1.
         14    1    3    3    0    0  0.16334838988E+02  0.23452986978E+02  0.52105440065E+03  0.52183767399E+03  0.00000000000E+00 0. -1.
          1    1    1    2  501    0  0.41424931592E+02 -0.28077113371E+02  0.16557232835E+04  0.16564793813E+04  0.00000000000E+00 0. -1.
<mgrwt>
<rscale>  1 0.94830207E+02</rscale>
<asrwt>0</asrwt>
<pdfrwt beam="1">  1       21 0.42516856E-03 0.94830207E+02</pdfrwt>
<pdfrwt beam="2">  1        2 0.39977171E+00 0.94830207E+02</pdfrwt>
<totfact> 0.66107470E+05</totfact>
</mgrwt>
</event>
<event>
 6    2  0.9453093E+000  0.8285543E+02  0.7546771E-02  0.1321138E+00
          2   -1    0    0  502    0 -0.00000000000E+00  0.00000000000E+00  0.69799607019E+03  0.69799607019E+03  0.00000000000E+00 0. -1.
         21   -1    0    0  501  502  0.00000000000E+00 -0.00000000000E+00 -0.39695825964E+01  0.39695825964E+01  0.00000000000E+00 0.  1.
         24    2    1    2    0    0 -0.21140123842E+02 -0.49595338767E+01  0.51415378896E+03  0.52078704057E+03  0.79959496669E+02 0.  0.
        -11    1    3    3    0    0  0.18329212851E+02  0.92010882905E+01  0.41644352320E+02  0.46420600487E+02  0.00000000000E+00 0.  1.
         12    1    3    3    0    0 -0.39469336693E+02 -0.14160622167E+02  0.47250943664E+03  0.47436644008E+03  0.00000000000E+00 0. -1.
          1    1    1    2  501    0  0.21140123842E+02  0.49595338767E+01  0.17987269864E+03  0.18117861222E+03  0.00000000000E+00 0. -1.
<mgrwt>
<rscale>  1 0.82855434E+02</rscale>
<asrwt>0</asrwt>
<pdfrwt beam="1">  1       21 0.61070557E-03 0.82855434E+02</pdfrwt>
<pdfrwt beam="2">  1        2 0.10738391E+00 0.82855434E+02</pdfrwt>
<totfact> 0.39638861E+06</totfact>
</mgrwt>
</event>
<event>
 6    2  0.9453093E+000  0.8373746E+02  0.7546771E-02  0.1318768E+00
         21   -1    0    0  501  502  0.00000000000E+00  0.00000000000E+00  0.20565549170E+02  0.20565549170E+02  0.00000000000E+00 0. -1.
          2   -1    0    0  502    0 -0.00000000000E+00 -0.00000000000E+00 -0.21097361950E+03  0.21097361950E+03  0.00000000000E+00 0. -1.
         24    2    1    2    0    0  0.24353565947E+02 -0.79609607589E+01 -0.18799863789E+03  0.20580439773E+03  0.79721322154E+02 0.  0.
        -11    1    3    3    0    0  0.47446787618E+01  0.23867315723E+02 -0.14506334885E+02  0.28330098626E+02  0.00000000000E+00 0.  1.
         12    1    3    3    0    0  0.19608887185E+02 -0.31828276482E+02 -0.17349230300E+03  0.17747429910E+03  0.00000000000E+00 0. -1.
          1    1    1    2  501    0 -0.24353565947E+02  0.79609607589E+01 -0.24094324390E+01  0.25734770938E+02  0.00000000000E+00 0. -1.
<mgrwt>
<rscale>  1 0.83737460E+02</rscale>
<asrwt>0</asrwt>
<pdfrwt beam="1">  1       21 0.31639307E-02 0.83737460E+02</pdfrwt>
<pdfrwt beam="2">  1        2 0.32457479E-01 0.83737460E+02</pdfrwt>
<totfact> 0.10621163E+06</totfact>
</mgrwt>
</event>
<event>
 6    2  0.9453093E+000  0.8728327E+02  0.7546771E-02  0.1309567E+00
         21   -1    0    0  501  502  0.00000000000E+00  0.00000000000E+00  0.33736190287E+02  0.33736190287E+02  0.00000000000E+00 0.  1.
         -1   -1    0    0    0  501 -0.00000000000E+00 -0.00000000000E+00 -0.21159355736E+03  0.21159355736E+03  0.00000000000E+00 0.  1.
         24    2    1    2    0    0 -0.28490516505E+02 -0.67878292430E+01 -0.19339237175E+03  0.21217676095E+03  0.82222772271E+02 0.  0.
        -11    1    3    3    0    0 -0.54404562589E+02 -0.73038270706E+01 -0.16422935644E+03  0.17316028366E+03  0.00000000000E+00 0.  1.
         12    1    3    3    0    0  0.25914046084E+02  0.51599782759E+00 -0.29163015309E+02  0.39016477290E+02  0.00000000000E+00 0. -1.
         -2    1    1    2    0  502  0.28490516505E+02  0.67878292430E+01  0.15535004677E+02  0.33152986696E+02  0.00000000000E+00 0.  1.
<mgrwt>
<rscale>  1 0.87283266E+02</rscale>
<asrwt>0</asrwt>
<pdfrwt beam="1">  1       21 0.51901830E-02 0.87283266E+02</pdfrwt>
<pdfrwt beam="2">  1       -1 0.32552855E-01 0.87283266E+02</pdfrwt>
<totfact> 0.19461113E+05</totfact>
</mgrwt>
</event>
<event>
 6    2  0.9453093E+000  0.8815822E+02  0.7546771E-02  0.1307374E+00
          2   -1    0    0  502    0 -0.00000000000E+00  0.00000000000E+00  0.25991649293E+03  0.25991649293E+03  0.00000000000E+00 0. -1.
         21   -1    0    0  501  502  0.00000000000E+00 -0.00000000000E+00 -0.35193453455E+02  0.35193453455E+02  0.00000000000E+00 0.  1.
         24    2    1    2    0    0  0.34144002431E+02  0.19134680179E+01  0.23823339443E+02  0.91320437983E+02  0.81255132941E+02 0.  0.
        -13    1    3    3    0    0  0.41886936465E+01 -0.24851698850E+02 -0.19777023386E+02  0.32035648022E+02  0.00000000000E+00 0.  1.
         14    1    3    3    0    0  0.29955308785E+02  0.26765166868E+02  0.43600362829E+02  0.59284789960E+02  0.00000000000E+00 0. -1.
          1    1    1    2  501    0 -0.34144002431E+02 -0.19134680179E+01  0.20089970003E+03  0.20378950840E+03  0.00000000000E+00 0. -1.
<mgrwt>
<rscale>  1 0.88158215E+02</rscale>
<asrwt>0</asrwt>
<pdfrwt beam="1">  1       21 0.54143776E-02 0.88158215E+02</pdfrwt>
<pdfrwt beam="2">  1        2 0.39987152E-01 0.88158215E+02</pdfrwt>
<totfact> 0.35361366E+05</totfact>
</mgrwt>
</event>
<event>
 6    2  0.9453093E+000  0.7648058E+02  0.7546771E-02  0.1339346E+00
         21   -1    0    0  501  502  0.00000000000E+00  0.00000000000E+00  0.29062402111E+02  0.29062402111E+02  0.00000000000E+00 0. -1.
         -1   -1    0    0    0  501 -0.00000000000E+00 -0.00000000000E+00 -0.11059253588E+03  0.11059253588E+03  0.00000000000E+00 0.  1.
         24    2    1    2    0    0  0.22253324325E+02 -0.21285745112E+02 -0.35607969819E+02  0.84363541458E+02  0.70007044104E+02 0.  0.
        -13    1    3    3    0    0  0.17630417914E+02  0.15213122297E+02 -0.41028050476E+02  0.47175964767E+02  0.00000000000E+00 0.  1.
         14    1    3    3    0    0  0.46229064108E+01 -0.36498867409E+02  0.54200806570E+01  0.37187576691E+02  0.00000000000E+00 0. -1.
         -2    1    1    2    0  502 -0.22253324325E+02  0.21285745112E+02 -0.45922163946E+02  0.55291396527E+02  0.00000000000E+00 0.  1.
<mgrwt>
<rscale>  1 0.76480583E+02</rscale>
<asrwt>0</asrwt>
<pdfrwt beam="1">  1       21 0.44711388E-02 0.76480583E+02</pdfrwt>
<pdfrwt beam="2">  1       -1 0.17014236E-01 0.76480583E+02</pdfrwt>
<totfact> 0.69975700E+05</totfact>
</mgrwt>
</event>
<event>
 6    2  0.9453093E+000  0.8491966E+02  0.7546771E-02  0.1315643E+00
         -3   -1    0    0    0  501 -0.00000000000E+00  0.00000000000E+00  0.20569326561E+03  0.20569326561E+03  0.00000000000E+00 0.  1.
         21   -1    0    0  501  502  0.00000000000E+00 -0.00000000000E+00 -0.29927680137E+02  0.29927680137E+02  0.00000000000E+00 0. -1.
         24    2    1    2    0    0  0.19860234435E+02 -0.58562291040E+01  0.19158625075E+03  0.20956297613E+03  0.82356694656E+02 0.  0.
        -13    1    3    3    0    0  0.19425663616E+02 -0.23269458698E+02  0.18962705744E+03  0.19203448917E+03  0.00000000000E+00 0.  1.
         14    1    3    3    0    0  0.43457081901E+00  0.17413229594E+02  0.19591933092E+01  0.17528486960E+02  0.00000000000E+00 0. -1.
         -4    1    1    2    0  502 -0.19860234435E+02  0.58562291040E+01 -0.15820665276E+02  0.26057969623E+02  0.00000000000E+00 0.  1.
<mgrwt>
<rscale>  1 0.84919665E+02</rscale>
<asrwt>0</asrwt>
<pdfrwt beam="1">  1       21 0.46042586E-02 0.84919665E+02</pdfrwt>
<pdfrwt beam="2">  1       -3 0.31645117E-01 0.84919665E+02</pdfrwt>
<totfact> 0.13377822E+05</totfact>
</mgrwt>
</event>
<event>
 6    2  0.9453093E+000  0.8542446E+02  0.7546771E-02  0.1314326E+00
         -1   -1    0    0    0  501 -0.00000000000E+00  0.00000000000E+00  0.25737539622E+04  0.25737539622E+04  0.00000000000E+00 0.  1.
         21   -1    0    0  501  502  0.00000000000E+00 -0.00000000000E+00 -0.18305812941E+01  0.18305812941E+01  0.00000000000E+00 0. -1.
         24    2    1    2    0    0  0.36559271828E+01 -0.28402887027E+02  0.23803737500E+04  0.23819060705E+04  0.80481359788E+02 0.  0.
        -11    1    3    3    0    0  0.29221185037E+02 -0.34659076384E+02  0.20445486611E+04  0.20450511869E+04  0.00000000000E+00 0.  1.
         12    1    3    3    0    0 -0.25565257854E+02  0.62561893573E+01  0.33582508888E+03  0.33685488365E+03  0.00000000000E+00 0. -1.
         -2    1    1    2    0  502 -0.36559271828E+01  0.28402887027E+02  0.19154963087E+03  0.19367847294E+03  0.00000000000E+00 0.  1.
<mgrwt>
<rscale>  1 0.85424464E+02</rscale>
<asrwt>0</asrwt>
<pdfrwt beam="1">  1       21 0.28162995E-03 0.85424464E+02</pdfrwt>
<pdfrwt beam="2">  1       -1 0.39595925E+00 0.85424464E+02</pdfrwt>
<totfact> 0.24651547E+04</totfact>
</mgrwt>
</event>
<event>
 6    2  0.9453093E+000  0.9464801E+02  0.7546771E-02  0.1291971E+00
          2   -1    0    0  502    0 -0.00000000000E+00  0.00000000000E+00  0.25813432902E+02  0.25813432902E+02  0.00000000000E+00 0. -1.
         21   -1    0    0  501  502  0.00000000000E+00 -0.00000000000E+00 -0.42995909951E+03  0.42995909951E+03  0.00000000000E+00 0. -1.
         24    2    1    2    0    0  0.25527250450E+02  0.11730787111E+02 -0.63512506428E+02  0.11398282851E+03  0.90382491886E+02 0.  0.
        -13    1    3    3    0    0  0.58557802556E+01 -0.39027951906E+02 -0.33823424991E+02  0.51975910483E+02  0.00000000000E+00 0.  1.
         14    1    3    3    0    0  0.19671470194E+02  0.50758739017E+02 -0.29689081436E+02  0.62006918023E+02  0.00000000000E+00 0. -1.
          1    1    1    2  501    0 -0.25527250450E+02 -0.11730787111E+02 -0.34063316018E+03  0.34178970391E+03  0.00000000000E+00 0. -1.
<mgrwt>
<rscale>  1 0.94648015E+02</rscale>
<asrwt>0</asrwt>
<pdfrwt beam="1">  1       21 0.66147544E-01 0.94648015E+02</pdfrwt>
<pdfrwt beam="2">  1        2 0.39712980E-02 0.94648015E+02</pdfrwt>
<totfact> 0.52871665E+04</totfact>
</mgrwt>
</event>
<event>
 6    2  0.9453093E+000  0.1084362E+03  0.7546771E-02  0.1263493E+00
          2   -1    0    0  502    0 -0.00000000000E+00  0.00000000000E+00  0.18871091958E+04  0.18871091958E+04  0.00000000000E+00 0. -1.
         21   -1    0    0  501  502  0.00000000000E+00 -0.00000000000E+00 -0.51124415085E+01  0.51124415085E+01  0.00000000000E+00 0.  1.
         24    2    1    2    0    0  0.72815938147E+02 -0.94020201813E+01  0.14483360660E+04  0.14523896792E+04  0.79798879995E+02 0.  0.
        -11    1    3    3    0    0  0.37201038389E+02 -0.44704049400E+02  0.74191510673E+03  0.74419110105E+03  0.00000000000E+00 0.  1.
         12    1    3    3    0    0  0.35614899757E+02  0.35302029218E+02  0.70642095929E+03  0.70819857814E+03  0.00000000000E+00 0. -1.
          1    1    1    2  501    0 -0.72815938147E+02  0.94020201813E+01  0.43366068830E+03  0.43983195815E+03  0.00000000000E+00 0. -1.
<mgrwt>
<rscale>  1 0.10843625E+03</rscale>
<asrwt>0</asrwt>
<pdfrwt beam="1">  1       21 0.78653097E-03 0.10843625E+03</pdfrwt>
<pdfrwt beam="2">  1        2 0.29032394E+00 0.10843625E+03</pdfrwt>
<totfact> 0.59720938E+05</totfact>
</mgrwt>
</event>
<event>
 6    2  0.9453093E+000  0.9575792E+02  0.7546771E-02  0.1289478E+00
         21   -1    0    0  501  502  0.00000000000E+00  0.00000000000E+00  0.11411565309E+04  0.11411565309E+04  0.00000000000E+00 0. -1.
          2   -1    0    0  502    0 -0.00000000000E+00 -0.00000000000E+00 -0.62957280351E+01  0.62957280351E+01  0.00000000000E+00 0. -1.
         24    2    1    2    0    0  0.19514719424E+02 -0.16406107212E+02  0.37076189328E+03  0.38292814011E+03  0.92301648716E+02 0.  0.
        -11    1    3    3    0    0 -0.33201489379E+02  0.89678677591E+01  0.95133649137E+02  0.10115914564E+03  0.00000000000E+00 0.  1.
         12    1    3    3    0    0  0.52716208804E+02 -0.25373974971E+02  0.27562824414E+03  0.28176899447E+03  0.00000000000E+00 0. -1.
          1    1    1    2  501    0 -0.19514719424E+02  0.16406107212E+02  0.76409890961E+03  0.76452411885E+03  0.00000000000E+00 0. -1.
<mgrwt>
<rscale>  1 0.95757919E+02</rscale>
<asrwt>0</asrwt>
<pdfrwt beam="1">  1       21 0.17556238E+00 0.95757919E+02</pdfrwt>
<pdfrwt beam="2">  1        2 0.96857445E-03 0.95757919E+02</pdfrwt>
<totfact> 0.34951580E+04</totfact>
</mgrwt>
</event>
<event>
 6    2  0.9453093E+000  0.8398640E+02  0.7546771E-02  0.1318105E+00
          2   -1    0    0  502    0 -0.00000000000E+00  0.00000000000E+00  0.44041167056E+04  0.44041167056E+04  0.00000000000E+00 0. -1.
         21   -1    0    0  501  502  0.00000000000E+00 -0.00000000000E+00 -0.17410670958E+01  0.17410670958E+01  0.00000000000E+00 0. -1.
         24    2    1    2    0    0  0.23344985629E+02 -0.22792983324E+01  0.43003696570E+04  0.43011897077E+04  0.80644477479E+02 0.  0.
        -11    1    3    3    0    0  0.37718443170E+02 -0.16682283541E+02  0.11263563015E+04  0.11271111292E+04  0.00000000000E+00 0.  1.
         12    1    3    3    0    0 -0.14373457541E+02  0.14402985209E+02  0.31740133555E+04  0.31740785786E+04  0.00000000000E+00 0. -1.
          1    1    1    2  501    0 -0.23344985629E+02  0.22792983324E+01  0.10200598157E+03  0.10466806500E+03  0.00000000000E+00 0. -1.
<mgrwt>
<rscale>  1 0.83986400E+02</rscale>
<asrwt>0</asrwt>
<pdfrwt beam="1">  1       21 0.26786000E-03 0.83986400E+02</pdfrwt>
<pdfrwt beam="2">  1        2 0.67754750E+00 0.83986400E+02</pdfrwt>
<totfact> 0.87269317E+04</totfact>
</mgrwt>
</event>
<event>
 6    2  0.9453093E+000  0.7932384E+02  0.7546771E-02  0.1330981E+00
          2   -1    0    0  502    0 -0.00000000000E+00  0.00000000000E+00  0.51225814408E+02  0.51225814408E+02  0.00000000000E+00 0. -1.
         21   -1    0    0  501  502  0.00000000000E+00 -0.00000000000E+00 -0.58195093196E+02  0.58195093196E+02  0.00000000000E+00 0. -1.
         24    2    1    2    0    0  0.81403252234E+01 -0.22480992163E+02  0.10212012437E+02  0.79978477821E+02  0.75634726239E+02 0.  0.
        -13    1    3    3    0    0 -0.20751182224E+02  0.15311808700E+01 -0.22152703579E+02  0.30392406197E+02  0.00000000000E+00 0.  1.
         14    1    3    3    0    0  0.28891507448E+02 -0.24012173033E+02  0.32364716016E+02  0.49586071625E+02  0.00000000000E+00 0. -1.
          1    1    1    2  501    0 -0.81403252234E+01  0.22480992163E+02 -0.17181291225E+02  0.29442429783E+02  0.00000000000E+00 0. -1.
<mgrwt>
<rscale>  1 0.79323841E+02</rscale>
<asrwt>0</asrwt>
<pdfrwt beam="1">  1       21 0.89530912E-02 0.79323841E+02</pdfrwt>
<pdfrwt beam="2">  1        2 0.78808946E-02 0.79323841E+02</pdfrwt>
<totfact> 0.94249796E+05</totfact>
</mgrwt>
</event>
<event>
 6    2  0.9453093E+000  0.9726290E+02  0.7546771E-02  0.1286159E+00
         21   -1    0    0  501  502  0.00000000000E+00  0.00000000000E+00  0.65585072040E+01  0.65585072040E+01  0.00000000000E+00 0.  1.
          2   -1    0    0  502    0 -0.00000000000E+00 -0.00000000000E+00 -0.97064005095E+03  0.97064005095E+03  0.00000000000E+00 0. -1.
         24    2    1    2    0    0 -0.55662127758E+02 -0.67518161688E+00 -0.46776156278E+03  0.47776662901E+03  0.79758033137E+02 0.  0.
        -13    1    3    3    0    0 -0.60061708592E+02 -0.30272200117E+02 -0.33260781232E+03  0.33934020061E+03  0.00000000000E+00 0.  1.
         14    1    3    3    0    0  0.43995808348E+01  0.29597018500E+02 -0.13515375046E+03  0.13842642840E+03  0.00000000000E+00 0. -1.
          1    1    1    2  501    0  0.55662127758E+02  0.67518161688E+00 -0.49631998097E+03  0.49943192915E+03  0.00000000000E+00 0. -1.
<mgrwt>
<rscale>  1 0.97262902E+02</rscale>
<asrwt>0</asrwt>
<pdfrwt beam="1">  1       21 0.10090011E-02 0.97262902E+02</pdfrwt>
<pdfrwt beam="2">  1        2 0.14932924E+00 0.97262902E+02</pdfrwt>
<totfact> 0.12292101E+06</totfact>
</mgrwt>
</event>
<event>
 6    2  0.9453093E+000  0.8278056E+02  0.7546771E-02  0.1321341E+00
         21   -1    0    0  501  502  0.00000000000E+00  0.00000000000E+00  0.14045653332E+03  0.14045653332E+03  0.00000000000E+00 0. -1.
         -1   -1    0    0    0  501 -0.00000000000E+00 -0.00000000000E+00 -0.50015954123E+02  0.50015954123E+02  0.00000000000E+00 0.  1.
         24    2    1    2    0    0  0.11354791529E+02 -0.17825175808E+02  0.12502227339E+03  0.14994395728E+03  0.80037199475E+02 0.  0.
        -11    1    3    3    0    0 -0.21331960336E+02  0.22328917435E+02  0.42795997587E+02  0.52774335572E+02  0.00000000000E+00 0.  1.
         12    1    3    3    0    0  0.32686751865E+02 -0.40154093243E+02  0.82226275801E+02  0.97169621712E+02  0.00000000000E+00 0. -1.
         -2    1    1    2    0  502 -0.11354791529E+02  0.17825175808E+02 -0.34581694194E+02  0.40528530155E+02  0.00000000000E+00 0.  1.
<mgrwt>
<rscale>  1 0.82780562E+02</rscale>
<asrwt>0</asrwt>
<pdfrwt beam="1">  1       21 0.21608697E-01 0.82780562E+02</pdfrwt>
<pdfrwt beam="2">  1       -1 0.76947622E-02 0.82780562E+02</pdfrwt>
<totfact> 0.15394330E+05</totfact>
</mgrwt>
</event>
<event>
 6    2  0.9453093E+000  0.8446643E+02  0.7546771E-02  0.1316834E+00
         -1   -1    0    0    0  501 -0.00000000000E+00  0.00000000000E+00  0.30438613863E+02  0.30438613863E+02  0.00000000000E+00 0.  1.
         21   -1    0    0  501  502  0.00000000000E+00 -0.00000000000E+00 -0.21112827329E+03  0.21112827329E+03  0.00000000000E+00 0. -1.
         24    2    1    2    0    0 -0.15836196343E+02 -0.18307705448E+02 -0.31066657020E+02  0.89998420636E+02  0.80923552475E+02 0.  0.
        -11    1    3    3    0    0 -0.14789034981E+01 -0.18114924103E+02  0.25681278400E+02  0.31462131063E+02  0.00000000000E+00 0.  1.
         12    1    3    3    0    0 -0.14357292845E+02 -0.19278134497E+00 -0.56747935420E+02  0.58536289573E+02  0.00000000000E+00 0. -1.
         -2    1    1    2    0  502  0.15836196343E+02  0.18307705448E+02 -0.14962300241E+03  0.15156846652E+03  0.00000000000E+00 0.  1.
<mgrwt>
<rscale>  1 0.84466434E+02</rscale>
<asrwt>0</asrwt>
<pdfrwt beam="1">  1       21 0.32481272E-01 0.84466434E+02</pdfrwt>
<pdfrwt beam="2">  1       -1 0.46828638E-02 0.84466434E+02</pdfrwt>
<totfact> 0.14875719E+05</totfact>
</mgrwt>
</event>
<event>
 6    2  0.9453093E+000  0.9406279E+02  0.7546771E-02  0.1293301E+00
         -3   -1    0    0    0  501 -0.00000000000E+00  0.00000000000E+00  0.38863115936E+02  0.38863115936E+02  0.00000000000E+00 0.  1.
         21   -1    0    0  501  502  0.00000000000E+00 -0.00000000000E+00 -0.13118000961E+03  0.13118000961E+03  0.00000000000E+00 0. -1.
         24    2    1    2    0    0 -0.23187223581E+02 -0.42791421141E+02 -0.63326458423E+02  0.11339333829E+03  0.80492582084E+02 0.  0.
        -11    1    3    3    0    0 -0.38524403862E+02 -0.57695388320E+02 -0.34443589728E+02  0.77454815213E+02  0.00000000000E+00 0.  1.
         12    1    3    3    0    0  0.15337180281E+02  0.14903967178E+02 -0.28882868695E+02  0.35938523073E+02  0.00000000000E+00 0. -1.
         -4    1    1    2    0  502  0.23187223581E+02  0.42791421141E+02 -0.28990435252E+02  0.56649787261E+02  0.00000000000E+00 0.  1.
<mgrwt>
<rscale>  1 0.94062792E+02</rscale>
<asrwt>0</asrwt>
<pdfrwt beam="1">  1       21 0.20181540E-01 0.94062792E+02</pdfrwt>
<pdfrwt beam="2">  1       -3 0.59789409E-02 0.94062792E+02</pdfrwt>
<totfact> 0.17546244E+05</totfact>
</mgrwt>
</event>
<event>
 6    2  0.9453093E+000  0.9076864E+02  0.7546771E-02  0.1301001E+00
         21   -1    0    0  501  502  0.00000000000E+00  0.00000000000E+00  0.29595700519E+01  0.29595700519E+01  0.00000000000E+00 0. -1.
          2   -1    0    0  502    0 -0.00000000000E+00 -0.00000000000E+00 -0.21226280484E+04  0.21226280484E+04  0.00000000000E+00 0. -1.
         24    2    1    2    0    0 -0.15589991808E+02 -0.37173598805E+02 -0.19053714913E+04  0.19075322976E+04  0.81326639192E+02 0.  0.
        -13    1    3    3    0    0 -0.92925747922E+01  0.14240365779E+02 -0.10129134276E+03  0.10270869526E+03  0.00000000000E+00 0.  1.
         14    1    3    3    0    0 -0.62974170157E+01 -0.51413964584E+02 -0.18040801486E+04  0.18048236024E+04  0.00000000000E+00 0. -1.
          1    1    1    2  501    0  0.15589991808E+02  0.37173598805E+02 -0.21429698698E+03  0.21805532078E+03  0.00000000000E+00 0. -1.
<mgrwt>
<rscale>  1 0.90768643E+02</rscale>
<asrwt>0</asrwt>
<pdfrwt beam="1">  1       21 0.45531851E-03 0.90768643E+02</pdfrwt>
<pdfrwt beam="2">  1        2 0.32655814E+00 0.90768643E+02</pdfrwt>
<totfact> 0.10483881E+06</totfact>
</mgrwt>
</event>
<event>
 6    2  0.9453093E+000  0.8556210E+02  0.7546771E-02  0.1313969E+00
         -3   -1    0    0    0  501 -0.00000000000E+00  0.00000000000E+00  0.48362708068E+02  0.48362708068E+02  0.00000000000E+00 0.  1.
         21   -1    0    0  501  502  0.00000000000E+00 -0.00000000000E+00 -0.98738516153E+02  0.98738516153E+02  0.00000000000E+00 0.  1.
         24    2    1    2    0    0  0.16000876291E+02 -0.12279156483E+02  0.74238181599E+01  0.85883559122E+02  0.83150868459E+02 0.  0.
        -13    1    3    3    0    0  0.49911341201E+02 -0.13969238069E+01  0.34787819207E+01  0.50051926040E+02  0.00000000000E+00 0.  1.
         14    1    3    3    0    0 -0.33910464910E+02 -0.10882232676E+02  0.39450362392E+01  0.35831633083E+02  0.00000000000E+00 0. -1.
         -4    1    1    2    0  502 -0.16000876291E+02  0.12279156483E+02 -0.57799626245E+02  0.61217665098E+02  0.00000000000E+00 0.  1.
<mgrwt>
<rscale>  1 0.85562098E+02</rscale>
<asrwt>0</asrwt>
<pdfrwt beam="1">  1       21 0.15190541E-01 0.85562098E+02</pdfrwt>
<pdfrwt beam="2">  1       -3 0.74404167E-02 0.85562098E+02</pdfrwt>
<totfact> 0.20418615E+05</totfact>
</mgrwt>
</event>
<event>
 6    2  0.9453093E+000  0.8436553E+02  0.7546771E-02  0.1317100E+00
         21   -1    0    0  501  502  0.00000000000E+00  0.00000000000E+00  0.19419025715E+02  0.19419025715E+02  0.00000000000E+00 0.  1.
         -3   -1    0    0    0  501 -0.00000000000E+00 -0.00000000000E+00 -0.25335087079E+03  0.25335087079E+03  0.00000000000E+00 0.  1.
         24    2    1    2    0    0  0.23350705603E+02 -0.22089424501E+02 -0.22363240323E+03  0.23901672437E+03  0.78002209104E+02 0.  0.
        -11    1    3    3    0    0  0.29950862884E+02 -0.48576887526E+02 -0.15117283656E+03  0.16158587408E+03  0.00000000000E+00 0.  1.
         12    1    3    3    0    0 -0.66001572807E+01  0.26487463025E+02 -0.72459566674E+02  0.77430850287E+02  0.00000000000E+00 0. -1.
         -4    1    1    2    0  502 -0.23350705603E+02  0.22089424501E+02 -0.10299441839E+02  0.33753172134E+02  0.00000000000E+00 0.  1.
<mgrwt>
<rscale>  1 0.84365531E+02</rscale>
<asrwt>0</asrwt>
<pdfrwt beam="1">  1       21 0.29875426E-02 0.84365531E+02</pdfrwt>
<pdfrwt beam="2">  1       -3 0.38977055E-01 0.84365531E+02</pdfrwt>
<totfact> 0.18384864E+05</totfact>
</mgrwt>
</event>
<event>
 6    2  0.9453093E+000  0.8563906E+02  0.7546771E-02  0.1313770E+00
          2   -1    0    0  502    0 -0.00000000000E+00  0.00000000000E+00  0.25739583837E+03  0.25739583837E+03  0.00000000000E+00 0. -1.
         21   -1    0    0  501  502  0.00000000000E+00 -0.00000000000E+00 -0.12408091957E+02  0.12408091957E+02  0.00000000000E+00 0.  1.
         24    2    1    2    0    0  0.16348820825E+02 -0.21076315585E+02  0.19891281696E+03  0.21656490192E+03  0.81379069630E+02 0.  0.
        -13    1    3    3    0    0  0.27154736112E+02 -0.37621915816E+02  0.58009307560E+02  0.74282353265E+02  0.00000000000E+00 0.  1.
         14    1    3    3    0    0 -0.10805915287E+02  0.16545600231E+02  0.14090350940E+03  0.14228254866E+03  0.00000000000E+00 0. -1.
          1    1    1    2  501    0 -0.16348820825E+02  0.21076315585E+02  0.46074929452E+02  0.53239028400E+02  0.00000000000E+00 0. -1.
<mgrwt>
<rscale>  1 0.85639056E+02</rscale>
<asrwt>0</asrwt>
<pdfrwt beam="1">  1       21 0.19089374E-02 0.85639056E+02</pdfrwt>
<pdfrwt beam="2">  1        2 0.39599356E-01 0.85639056E+02</pdfrwt>
<totfact> 0.19482163E+06</totfact>
</mgrwt>
</event>
<event>
 6    2  0.9453093E+000  0.1061539E+03  0.7546771E-02  0.1267863E+00
         21   -1    0    0  501  502  0.00000000000E+00  0.00000000000E+00  0.21065123547E+01  0.21065123547E+01  0.00000000000E+00 0.  1.
          2   -1    0    0  502    0 -0.00000000000E+00 -0.00000000000E+00 -0.35196642079E+04  0.35196642079E+04  0.00000000000E+00 0. -1.
         24    2    1    2    0    0  0.40057729496E+02  0.24091393614E+02 -0.15369754970E+04  0.15406369887E+04  0.95308109657E+02 0.  0.
        -11    1    3    3    0    0 -0.59479531837E+01  0.48819515417E+02 -0.51980054585E+03  0.52212195003E+03  0.00000000000E+00 0.  1.
         12    1    3    3    0    0  0.46005682680E+02 -0.24728121803E+02 -0.10171749511E+04  0.10185150387E+04  0.00000000000E+00 0. -1.
          1    1    1    2  501    0 -0.40057729496E+02 -0.24091393614E+02 -0.19805821986E+04  0.19811337315E+04  0.00000000000E+00 0. -1.
<mgrwt>
<rscale>  1 0.10615391E+03</rscale>
<asrwt>0</asrwt>
<pdfrwt beam="1">  1       21 0.32408287E-03 0.10615391E+03</pdfrwt>
<pdfrwt beam="2">  1        2 0.54148004E+00 0.10615391E+03</pdfrwt>
<totfact> 0.29107456E+05</totfact>
</mgrwt>
</event>
<event>
 6    2  0.9453093E+000  0.8633839E+02  0.7546771E-02  0.1311969E+00
          2   -1    0    0  502    0 -0.00000000000E+00  0.00000000000E+00  0.29402128423E+03  0.29402128423E+03  0.00000000000E+00 0. -1.
         21   -1    0    0  501  502  0.00000000000E+00 -0.00000000000E+00 -0.11595757956E+02  0.11595757956E+02  0.00000000000E+00 0.  1.
         24    2    1    2    0    0 -0.21438411619E+02 -0.22218235979E+01  0.26224093993E+03  0.27608808151E+03  0.83604881338E+02 0.  0.
        -13    1    3    3    0    0 -0.26043335005E+02  0.23537926674E+02  0.44017327272E+02  0.56301104700E+02  0.00000000000E+00 0.  1.
         14    1    3    3    0    0  0.46049233865E+01 -0.25759750272E+02  0.21822361265E+03  0.21978697680E+03  0.00000000000E+00 0. -1.
          1    1    1    2  501    0  0.21438411619E+02  0.22218235979E+01  0.20184586350E+02  0.29528960682E+02  0.00000000000E+00 0. -1.
<mgrwt>
<rscale>  1 0.86338393E+02</rscale>
<asrwt>0</asrwt>
<pdfrwt beam="1">  1       21 0.17839630E-02 0.86338393E+02</pdfrwt>
<pdfrwt beam="2">  1        2 0.45234038E-01 0.86338393E+02</pdfrwt>
<totfact> 0.18905620E+06</totfact>
</mgrwt>
</event>
<event>
 6    2  0.9453093E+000  0.9349189E+02  0.7546771E-02  0.1294609E+00
         21   -1    0    0  501  502  0.00000000000E+00  0.00000000000E+00  0.16691085667E+03  0.16691085667E+03  0.00000000000E+00 0.  1.
          2   -1    0    0  502    0 -0.00000000000E+00 -0.00000000000E+00 -0.28643014673E+02  0.28643014673E+02  0.00000000000E+00 0. -1.
         24    2    1    2    0    0  0.36362744737E+02 -0.20146140893E+02  0.75029588276E+02  0.11987565168E+03  0.83741367022E+02 0.  0.
        -11    1    3    3    0    0  0.35814691071E+02 -0.15355312287E+02  0.93230636988E+02  0.10104666934E+03  0.00000000000E+00 0.  1.
         12    1    3    3    0    0  0.54805366643E+00 -0.47908286065E+01 -0.18201048713E+02  0.18828982336E+02  0.00000000000E+00 0. -1.
          1    1    1    2  501    0 -0.36362744737E+02  0.20146140893E+02  0.63238253717E+02  0.75678219660E+02  0.00000000000E+00 0. -1.
<mgrwt>
<rscale>  1 0.93491886E+02</rscale>
<asrwt>0</asrwt>
<pdfrwt beam="1">  1       21 0.25678593E-01 0.93491886E+02</pdfrwt>
<pdfrwt beam="2">  1        2 0.44066177E-02 0.93491886E+02</pdfrwt>
<totfact> 0.30480548E+05</totfact>
</mgrwt>
</event>
<event>
 6    2  0.9453093E+000  0.9243597E+02  0.7546771E-02  0.1297058E+00
         -1   -1    0    0    0  501 -0.00000000000E+00  0.00000000000E+00  0.46166830468E+02  0.46166830468E+02  0.00000000000E+00 0.  1.
         21   -1    0    0  501  502  0.00000000000E+00 -0.00000000000E+00 -0.10518718073E+03  0.10518718073E+03  0.00000000000E+00 0.  1.
         24    2    1    2    0    0  0.43387499478E+02  0.42299135673E+01 -0.55034822728E+02  0.10757899881E+03  0.81510993081E+02 0.  0.
        -13    1    3    3    0    0  0.61756513730E+02 -0.14617607860E+02 -0.49977443926E+02  0.80779244543E+02  0.00000000000E+00 0.  1.
         14    1    3    3    0    0 -0.18369014252E+02  0.18847521427E+02 -0.50573788017E+01  0.26799754269E+02  0.00000000000E+00 0. -1.
         -2    1    1    2    0  502 -0.43387499478E+02 -0.42299135673E+01 -0.39855275351E+01  0.43775012387E+02  0.00000000000E+00 0.  1.
<mgrwt>
<rscale>  1 0.92435974E+02</rscale>
<asrwt>0</asrwt>
<pdfrwt beam="1">  1       21 0.16182643E-01 0.92435974E+02</pdfrwt>
<pdfrwt beam="2">  1       -1 0.71025893E-02 0.92435974E+02</pdfrwt>
<totfact> 0.29609765E+05</totfact>
</mgrwt>
</event>
<event>
 6    2  0.9453093E+000  0.8394269E+02  0.7546771E-02  0.1318221E+00
          2   -1    0    0  502    0 -0.00000000000E+00  0.00000000000E+00  0.64539182320E+03  0.64539182320E+03  0.00000000000E+00 0. -1.
         21   -1    0    0  501  502  0.00000000000E+00 -0.00000000000E+00 -0.52808731737E+01  0.52808731737E+01  0.00000000000E+00 0.  1.
         24    2    1    2    0    0 -0.20852676418E+02  0.73840134696E+01  0.58938902199E+03  0.59533670671E+03  0.80975411951E+02 0.  0.
        -13    1    3    3    0    0 -0.39589461750E+02  0.23222356225E+02  0.20100685860E+03  0.20618040769E+03  0.00000000000E+00 0.  1.
         14    1    3    3    0    0  0.18736785332E+02 -0.15838342756E+02  0.38838216339E+03  0.38915629902E+03  0.00000000000E+00 0. -1.
          1    1    1    2  501    0  0.20852676418E+02 -0.73840134696E+01  0.50721928028E+02  0.55335989660E+02  0.00000000000E+00 0. -1.
<mgrwt>
<rscale>  1 0.83942689E+02</rscale>
<asrwt>0</asrwt>
<pdfrwt beam="1">  1       21 0.81244254E-03 0.83942689E+02</pdfrwt>
<pdfrwt beam="2">  1        2 0.99290987E-01 0.83942689E+02</pdfrwt>
<totfact> 0.27956797E+06</totfact>
</mgrwt>
</event>
<event>
 6    2  0.9453093E+000  0.1042737E+03  0.7546771E-02  0.1271557E+00
          2   -1    0    0  502    0 -0.00000000000E+00  0.00000000000E+00  0.52524913718E+03  0.52524913718E+03  0.00000000000E+00 0. -1.
         21   -1    0    0  501  502  0.00000000000E+00 -0.00000000000E+00 -0.16436081115E+02  0.16436081115E+02  0.00000000000E+00 0. -1.
         24    2    1    2    0    0  0.65434014366E+02 -0.15191883767E+01  0.41079980169E+03  0.42382718419E+03  0.81173190294E+02 0.  0.
        -11    1    3    3    0    0  0.13126839265E+02  0.36377442551E+02  0.18330599139E+03  0.18734118265E+03  0.00000000000E+00 0.  1.
         12    1    3    3    0    0  0.52307175101E+02 -0.37896630928E+02  0.22749381030E+03  0.23648600154E+03  0.00000000000E+00 0. -1.
          1    1    1    2  501    0 -0.65434014366E+02  0.15191883767E+01  0.98013254379E+02  0.11785803411E+03  0.00000000000E+00 0. -1.
<mgrwt>
<rscale>  1 0.10427370E+03</rscale>
<asrwt>0</asrwt>
<pdfrwt beam="1">  1       21 0.25286283E-02 0.10427370E+03</pdfrwt>
<pdfrwt beam="2">  1        2 0.80807547E-01 0.10427370E+03</pdfrwt>
<totfact> 0.59504217E+05</totfact>
</mgrwt>
</event>
<event>
 6    2  0.9453093E+000  0.1006648E+03  0.7546771E-02  0.1278904E+00
         21   -1    0    0  501  502  0.00000000000E+00  0.00000000000E+00  0.63966813957E+01  0.63966813957E+01  0.00000000000E+00 0.  1.
          2   -1    0    0  502    0 -0.00000000000E+00 -0.00000000000E+00 -0.74342091406E+03  0.74342091406E+03  0.00000000000E+00 0. -1.
         24    2    1    2    0    0  0.33935975414E+01 -0.27541901171E+02 -0.66599898182E+03  0.67356368354E+03  0.96764245354E+02 0.  0.
        -13    1    3    3    0    0  0.32259552005E+02 -0.51354506278E+02 -0.33387707444E+03  0.33934033778E+03  0.00000000000E+00 0.  1.
         14    1    3    3    0    0 -0.28865954463E+02  0.23812605107E+02 -0.33212190738E+03  0.33422334576E+03  0.00000000000E+00 0. -1.
          1    1    1    2  501    0 -0.33935975414E+01  0.27541901171E+02 -0.71025250840E+02  0.76253911908E+02  0.00000000000E+00 0. -1.
<mgrwt>
<rscale>  1 0.10066475E+03</rscale>
<asrwt>0</asrwt>
<pdfrwt beam="1">  1       21 0.98410398E-03 0.10066475E+03</pdfrwt>
<pdfrwt beam="2">  1        2 0.11437255E+00 0.10066475E+03</pdfrwt>
<totfact> 0.17937094E+06</totfact>
</mgrwt>
</event>
<event>
 6    2  0.9453093E+000  0.8709105E+02  0.7546771E-02  0.1310053E+00
         21   -1    0    0  501  502  0.00000000000E+00  0.00000000000E+00  0.35102143640E+02  0.35102143640E+02  0.00000000000E+00 0. -1.
          2   -1    0    0  502    0 -0.00000000000E+00 -0.00000000000E+00 -0.10382831964E+03  0.10382831964E+03  0.00000000000E+00 0. -1.
         24    2    1    2    0    0  0.27093875002E+02 -0.58282829878E+01 -0.69163285071E+02  0.11121335647E+03  0.82563937112E+02 0.  0.
        -13    1    3    3    0    0  0.39975206512E+02 -0.30526633176E+02 -0.18870097230E+02  0.53721253133E+02  0.00000000000E+00 0.  1.
         14    1    3    3    0    0 -0.12881331510E+02  0.24698350188E+02 -0.50293187841E+02  0.57492103342E+02  0.00000000000E+00 0. -1.
          1    1    1    2  501    0 -0.27093875002E+02  0.58282829878E+01  0.43710907359E+00  0.27717106803E+02  0.00000000000E+00 0. -1.
<mgrwt>
<rscale>  1 0.87091048E+02</rscale>
<asrwt>0</asrwt>
<pdfrwt beam="1">  1       21 0.54003298E-02 0.87091048E+02</pdfrwt>
<pdfrwt beam="2">  1        2 0.15973588E-01 0.87091048E+02</pdfrwt>
<totfact> 0.96442218E+05</totfact>
</mgrwt>
</event>
<event>
 6    2  0.9453093E+000  0.1047084E+03  0.7546771E-02  0.1270695E+00
         21   -1    0    0  501  502  0.00000000000E+00  0.00000000000E+00  0.57806591132E+01  0.57806591132E+01  0.00000000000E+00 0. -1.
          2   -1    0    0  502    0 -0.00000000000E+00 -0.00000000000E+00 -0.21631577295E+04  0.21631577295E+04  0.00000000000E+00 0. -1.
         24    2    1    2    0    0  0.37884124543E+02 -0.49420845083E+02 -0.19398479642E+04  0.19426718668E+04  0.84179756043E+02 0.  0.
        -11    1    3    3    0    0  0.26753793881E+02  0.20538553485E+02 -0.57952300110E+03  0.58050366619E+03  0.00000000000E+00 0.  1.
         12    1    3    3    0    0  0.11130330662E+02 -0.69959398569E+02 -0.13603249631E+04  0.13621682006E+04  0.00000000000E+00 0. -1.
          1    1    1    2  501    0 -0.37884124543E+02  0.49420845083E+02 -0.21752910627E+03  0.22626652182E+03  0.00000000000E+00 0. -1.
<mgrwt>
<rscale>  1 0.10470844E+03</rscale>
<asrwt>0</asrwt>
<pdfrwt beam="1">  1       21 0.88933236E-03 0.10470844E+03</pdfrwt>
<pdfrwt beam="2">  1        2 0.33279343E+00 0.10470844E+03</pdfrwt>
<totfact> 0.35684482E+05</totfact>
</mgrwt>
</event>
<event>
 6    2  0.9453093E+000  0.8853118E+02  0.7546771E-02  0.1306448E+00
         21   -1    0    0  501  502  0.00000000000E+00  0.00000000000E+00  0.45633118825E+01  0.45633118825E+01  0.00000000000E+00 0. -1.
          2   -1    0    0  502    0 -0.00000000000E+00 -0.00000000000E+00 -0.10754309916E+04  0.10754309916E+04  0.00000000000E+00 0. -1.
         24    2    1    2    0    0 -0.30850179605E+02 -0.20583496771E+02 -0.93415068418E+03  0.93833643822E+03  0.80388784179E+02 0.  0.
        -11    1    3    3    0    0  0.95588391623E+01  0.13017657322E+02 -0.58774819452E+03  0.58797004257E+03  0.00000000000E+00 0.  1.
         12    1    3    3    0    0 -0.40409018768E+02 -0.33601154093E+02 -0.34640248966E+03  0.35036639564E+03  0.00000000000E+00 0. -1.
          1    1    1    2  501    0  0.30850179605E+02  0.20583496771E+02 -0.13671699553E+03  0.14165786525E+03  0.00000000000E+00 0. -1.
<mgrwt>
<rscale>  1 0.88531184E+02</rscale>
<asrwt>0</asrwt>
<pdfrwt beam="1">  1       21 0.70204765E-03 0.88531184E+02</pdfrwt>
<pdfrwt beam="2">  1        2 0.16545100E+00 0.88531184E+02</pdfrwt>
<totfact> 0.18635085E+06</totfact>
</mgrwt>
</event>
<event>
 6    2  0.9453093E+000  0.8652061E+02  0.7546771E-02  0.1311503E+00
          4   -1    0    0  502    0 -0.00000000000E+00  0.00000000000E+00  0.23787574716E+03  0.23787574716E+03  0.00000000000E+00 0. -1.
         21   -1    0    0  501  502  0.00000000000E+00 -0.00000000000E+00 -0.16758646118E+02  0.16758646118E+02  0.00000000000E+00 0. -1.
         24    2    1    2    0    0  0.33979269883E+02 -0.17791436562E+01  0.18892050402E+03  0.20779021547E+03  0.79549108574E+02 0.  0.
        -11    1    3    3    0    0  0.17298593635E+02  0.33013452690E+02  0.43237773691E+02  0.57084450369E+02  0.00000000000E+00 0.  1.
         12    1    3    3    0    0  0.16680676249E+02 -0.34792596346E+02  0.14568273032E+03  0.15070576510E+03  0.00000000000E+00 0. -1.
          3    1    1    2  501    0 -0.33979269883E+02  0.17791436562E+01  0.32196597024E+02  0.46844177801E+02  0.00000000000E+00 0. -1.
<mgrwt>
<rscale>  1 0.86520615E+02</rscale>
<asrwt>0</asrwt>
<pdfrwt beam="1">  1       21 0.25782534E-02 0.86520615E+02</pdfrwt>
<pdfrwt beam="2">  1        4 0.36596266E-01 0.86520615E+02</pdfrwt>
<totfact> 0.21691616E+05</totfact>
</mgrwt>
</event>
<event>
 6    2  0.9453093E+000  0.8570544E+02  0.7546771E-02  0.1313598E+00
         21   -1    0    0  501  502  0.00000000000E+00  0.00000000000E+00  0.33678565673E+02  0.33678565673E+02  0.00000000000E+00 0. -1.
          4   -1    0    0  502    0 -0.00000000000E+00 -0.00000000000E+00 -0.18985507288E+03  0.18985507288E+03  0.00000000000E+00 0. -1.
         24    2    1    2    0    0 -0.35195185428E+02 -0.58103358955E+01 -0.16575228375E+03  0.18659914821E+03  0.77929208009E+02 0.  0.
        -13    1    3    3    0    0  0.99380907565E+01 -0.96537803258E+01  0.91596912321E+00  0.13885248356E+02  0.00000000000E+00 0.  1.
         14    1    3    3    0    0 -0.45133276184E+02  0.38434444303E+01 -0.16666825288E+03  0.17271389985E+03  0.00000000000E+00 0. -1.
          3    1    1    2  501    0  0.35195185428E+02  0.58103358955E+01  0.95757765494E+01  0.36934490345E+02  0.00000000000E+00 0. -1.
<mgrwt>
<rscale>  1 0.85705441E+02</rscale>
<asrwt>0</asrwt>
<pdfrwt beam="1">  1       21 0.51813177E-02 0.85705441E+02</pdfrwt>
<pdfrwt beam="2">  1        4 0.29208474E-01 0.85705441E+02</pdfrwt>
<totfact> 0.10577001E+05</totfact>
</mgrwt>
</event>
<event>
 6    2  0.9453093E+000  0.8578728E+02  0.7546771E-02  0.1313386E+00
          2   -1    0    0  502    0 -0.00000000000E+00  0.00000000000E+00  0.30084230539E+03  0.30084230539E+03  0.00000000000E+00 0. -1.
         21   -1    0    0  501  502  0.00000000000E+00 -0.00000000000E+00 -0.16024095074E+02  0.16024095074E+02  0.00000000000E+00 0. -1.
         24    2    1    2    0    0  0.13612183795E+02 -0.25045926918E+02  0.27272868049E+03  0.28590276479E+03  0.80912716868E+02 0.  0.
        -13    1    3    3    0    0 -0.20335667388E+02  0.12728323376E+02  0.16579038815E+03  0.16751717042E+03  0.00000000000E+00 0.  1.
         14    1    3    3    0    0  0.33947851183E+02 -0.37774250294E+02  0.10693829234E+03  0.11838559437E+03  0.00000000000E+00 0. -1.
          1    1    1    2  501    0 -0.13612183795E+02  0.25045926918E+02  0.12089529833E+02  0.30963635678E+02  0.00000000000E+00 0. -1.
<mgrwt>
<rscale>  1 0.85787282E+02</rscale>
<asrwt>0</asrwt>
<pdfrwt beam="1">  1       21 0.24652456E-02 0.85787282E+02</pdfrwt>
<pdfrwt beam="2">  1        2 0.46283427E-01 0.85787282E+02</pdfrwt>
<totfact> 0.10990709E+06</totfact>
</mgrwt>
</event>
<event>
 6    2  0.9453093E+000  0.8335603E+02  0.7546771E-02  0.1319789E+00
          2   -1    0    0  502    0 -0.00000000000E+00  0.00000000000E+00  0.11720431950E+03  0.11720431950E+03  0.00000000000E+00 0. -1.
         21   -1    0    0  501  502  0.00000000000E+00 -0.00000000000E+00 -0.33629986240E+02  0.33629986240E+02  0.00000000000E+00 0. -1.
         24    2    1    2    0    0  0.82816322484E+01 -0.20342833029E+02  0.94744340894E+02  0.12619317429E+03  0.80410265626E+02 0.  0.
        -13    1    3    3    0    0  0.34428402228E+02  0.16456635329E+02  0.45670541555E+02  0.59514150353E+02  0.00000000000E+00 0.  1.
         14    1    3    3    0    0 -0.26146769980E+02 -0.36799468358E+02  0.49073799339E+02  0.66679023938E+02  0.00000000000E+00 0. -1.
          1    1    1    2  501    0 -0.82816322484E+01  0.20342833029E+02 -0.11170007636E+02  0.24641131446E+02  0.00000000000E+00 0. -1.
<mgrwt>
<rscale>  1 0.83356026E+02</rscale>
<asrwt>0</asrwt>
<pdfrwt beam="1">  1       21 0.51738441E-02 0.83356026E+02</pdfrwt>
<pdfrwt beam="2">  1        2 0.18031434E-01 0.83356026E+02</pdfrwt>
<totfact> 0.89803395E+05</totfact>
</mgrwt>
</event>
<event>
 6    2  0.9453093E+000  0.9831332E+02  0.7546771E-02  0.1283883E+00
          2   -1    0    0  502    0 -0.00000000000E+00  0.00000000000E+00  0.94981927470E+03  0.94981927470E+03  0.00000000000E+00 0. -1.
         21   -1    0    0  501  502  0.00000000000E+00 -0.00000000000E+00 -0.74835187059E+01  0.74835187059E+01  0.00000000000E+00 0. -1.
         24    2    1    2    0    0 -0.56047682326E+01  0.56217821061E+02  0.76222243132E+03  0.76853662441E+03  0.80459004605E+02 0.  0.
        -11    1    3    3    0    0  0.47338954950E+01 -0.51067402701E+01  0.45542775824E+01  0.83204571413E+01  0.00000000000E+00 0.  1.
         12    1    3    3    0    0 -0.10338663728E+02  0.61324561331E+02  0.75766815374E+03  0.76021616727E+03  0.00000000000E+00 0. -1.
          1    1    1    2  501    0  0.56047682326E+01 -0.56217821061E+02  0.18011332467E+03  0.18876616899E+03  0.00000000000E+00 0. -1.
<mgrwt>
<rscale>  1 0.98313317E+02</rscale>
<asrwt>0</asrwt>
<pdfrwt beam="1">  1       21 0.11513113E-02 0.98313317E+02</pdfrwt>
<pdfrwt beam="2">  1        2 0.14612595E+00 0.98313317E+02</pdfrwt>
<totfact> 0.10293272E+06</totfact>
</mgrwt>
</event>
<event>
 6    2  0.9453093E+000  0.9926099E+02  0.7546771E-02  0.1281858E+00
         21   -1    0    0  501  502  0.00000000000E+00  0.00000000000E+00  0.27670348008E+03  0.27670348008E+03  0.00000000000E+00 0.  1.
         -3   -1    0    0    0  501 -0.00000000000E+00 -0.00000000000E+00 -0.25944780885E+02  0.25944780885E+02  0.00000000000E+00 0.  1.
         24    2    1    2    0    0  0.41911577877E+02  0.40977285019E+02  0.10001846287E+03  0.14091286875E+03  0.80106338182E+02 0.  0.
        -11    1    3    3    0    0  0.45360151145E+01 -0.70193998934E+01 -0.11301300740E+02  0.14055845987E+02  0.00000000000E+00 0.  1.
         12    1    3    3    0    0  0.37375562763E+02  0.47996684912E+02  0.11131976361E+03  0.12685702276E+03  0.00000000000E+00 0. -1.
         -4    1    1    2    0  502 -0.41911577877E+02 -0.40977285019E+02  0.15074023633E+03  0.16173539222E+03  0.00000000000E+00 0.  1.
<mgrwt>
<rscale>  1 0.99260988E+02</rscale>
<asrwt>0</asrwt>
<pdfrwt beam="1">  1       21 0.42569764E-01 0.99260988E+02</pdfrwt>
<pdfrwt beam="2">  1       -3 0.39915049E-02 0.99260988E+02</pdfrwt>
<totfact> 0.79941133E+04</totfact>
</mgrwt>
</event>
<event>
 6    2  0.9453093E+000  0.8352412E+02  0.7546771E-02  0.1319338E+00
          4   -1    0    0  502    0 -0.00000000000E+00  0.00000000000E+00  0.38334060290E+03  0.38334060290E+03  0.00000000000E+00 0. -1.
         21   -1    0    0  501  502  0.00000000000E+00 -0.00000000000E+00 -0.14326945815E+02  0.14326945815E+02  0.00000000000E+00 0. -1.
         24    2    1    2    0    0 -0.21538100522E+02 -0.80923323252E+01  0.36484659721E+03  0.37428507655E+03  0.80292611216E+02 0.  0.
        -11    1    3    3    0    0 -0.25862574303E+02  0.79699198014E+01  0.36098682219E+02  0.45116595939E+02  0.00000000000E+00 0.  1.
         12    1    3    3    0    0  0.43244737803E+01 -0.16062252127E+02  0.32874791499E+03  0.32916848061E+03  0.00000000000E+00 0. -1.
          3    1    1    2  501    0  0.21538100522E+02  0.80923323252E+01  0.41670598752E+01  0.23382472166E+02  0.00000000000E+00 0. -1.
<mgrwt>
<rscale>  1 0.83524122E+02</rscale>
<asrwt>0</asrwt>
<pdfrwt beam="1">  1       21 0.22041458E-02 0.83524122E+02</pdfrwt>
<pdfrwt beam="2">  1        4 0.58975470E-01 0.83524122E+02</pdfrwt>
<totfact> 0.10706370E+05</totfact>
</mgrwt>
</event>
<event>
 6    2  0.9453093E+000  0.8715996E+02  0.7546771E-02  0.1309879E+00
         21   -1    0    0  501  502  0.00000000000E+00  0.00000000000E+00  0.18368641349E+01  0.18368641349E+01  0.00000000000E+00 0. -1.
          2   -1    0    0  502    0 -0.00000000000E+00 -0.00000000000E+00 -0.38821764228E+04  0.38821764228E+04  0.00000000000E+00 0. -1.
         24    2    1    2    0    0 -0.14000474090E+02 -0.25988988147E+02 -0.37173707281E+04  0.37183923930E+04  0.82008641182E+02 0.  0.
        -13    1    3    3    0    0  0.94898596795E+01 -0.38423501407E+02 -0.87218516021E+03  0.87308268600E+03  0.00000000000E+00 0.  1.
         14    1    3    3    0    0 -0.23490333770E+02  0.12434513259E+02 -0.28451855679E+04  0.28453097070E+04  0.00000000000E+00 0. -1.
          1    1    1    2  501    0  0.14000474090E+02  0.25988988147E+02 -0.16296883051E+03  0.16562089391E+03  0.00000000000E+00 0. -1.
<mgrwt>
<rscale>  1 0.87159956E+02</rscale>
<asrwt>0</asrwt>
<pdfrwt beam="1">  1       21 0.28259603E-03 0.87159956E+02</pdfrwt>
<pdfrwt beam="2">  1        2 0.59725463E+00 0.87159956E+02</pdfrwt>
<totfact> 0.20483637E+05</totfact>
</mgrwt>
</event>
<event>
 6    2  0.9453093E+000  0.9703425E+02  0.7546771E-02  0.1286659E+00
          2   -1    0    0  502    0 -0.00000000000E+00  0.00000000000E+00  0.21753335556E+04  0.21753335556E+04  0.00000000000E+00 0. -1.
         21   -1    0    0  501  502  0.00000000000E+00 -0.00000000000E+00 -0.46298838668E+01  0.46298838668E+01  0.00000000000E+00 0. -1.
         24    2    1    2    0    0  0.35597853117E+02 -0.36977916833E+02  0.19828741471E+04  0.19852469692E+04  0.82347264002E+02 0.  0.
        -13    1    3    3    0    0 -0.23467977180E+02 -0.10712700753E+02  0.29191215019E+03  0.29304984446E+03  0.00000000000E+00 0.  1.
         14    1    3    3    0    0  0.59065830296E+02 -0.26265216080E+02  0.16909619969E+04  0.16921971247E+04  0.00000000000E+00 0. -1.
          1    1    1    2  501    0 -0.35597853117E+02  0.36977916833E+02  0.18782952460E+03  0.19471647027E+03  0.00000000000E+00 0. -1.
<mgrwt>
<rscale>  1 0.97034248E+02</rscale>
<asrwt>0</asrwt>
<pdfrwt beam="1">  1       21 0.71229156E-03 0.97034248E+02</pdfrwt>
<pdfrwt beam="2">  1        2 0.33466588E+00 0.97034248E+02</pdfrwt>
<totfact> 0.49620430E+05</totfact>
</mgrwt>
</event>
<event>
 6    2  0.9453093E+000  0.8665378E+02  0.7546771E-02  0.1311164E+00
         21   -1    0    0  501  502  0.00000000000E+00  0.00000000000E+00  0.34201293345E+02  0.34201293345E+02  0.00000000000E+00 0. -1.
         -1   -1    0    0    0  501 -0.00000000000E+00 -0.00000000000E+00 -0.10390736482E+03  0.10390736482E+03  0.00000000000E+00 0.  1.
         24    2    1    2    0    0  0.25678888727E+02  0.57887903446E+01 -0.32533788065E+02  0.92559848370E+02  0.82558844132E+02 0.  0.
        -13    1    3    3    0    0 -0.27933550603E+02  0.11579871456E+02 -0.22545289547E+02  0.37718254903E+02  0.00000000000E+00 0.  1.
         14    1    3    3    0    0  0.53612439330E+02 -0.57910811110E+01 -0.99884985186E+01  0.54841593467E+02  0.00000000000E+00 0. -1.
         -2    1    1    2    0  502 -0.25678888727E+02 -0.57887903446E+01 -0.37172283408E+02  0.45548809794E+02  0.00000000000E+00 0.  1.
<mgrwt>
<rscale>  1 0.86653783E+02</rscale>
<asrwt>0</asrwt>
<pdfrwt beam="1">  1       21 0.52617375E-02 0.86653783E+02</pdfrwt>
<pdfrwt beam="2">  1       -1 0.15985748E-01 0.86653783E+02</pdfrwt>
<totfact> 0.59755475E+05</totfact>
</mgrwt>
</event>
<event>
 6    2  0.9453093E+000  0.9932886E+02  0.7546771E-02  0.1281714E+00
         21   -1    0    0  501  502  0.00000000000E+00  0.00000000000E+00  0.13615611278E+01  0.13615611278E+01  0.00000000000E+00 0. -1.
          2   -1    0    0  502    0 -0.00000000000E+00 -0.00000000000E+00 -0.46572198807E+04  0.46572198807E+04  0.00000000000E+00 0. -1.
         24    2    1    2    0    0  0.27272805060E+02 -0.51386896756E+02 -0.32561743277E+04  0.32576889776E+04  0.80509650051E+02 0.  0.
        -13    1    3    3    0    0 -0.20011541187E+02  0.40148311451E+01 -0.34471561106E+03  0.34531932057E+03  0.00000000000E+00 0.  1.
         14    1    3    3    0    0  0.47284346247E+02 -0.55401727901E+02 -0.29114587166E+04  0.29123696570E+04  0.00000000000E+00 0. -1.
          1    1    1    2  501    0 -0.27272805060E+02  0.51386896756E+02 -0.13996839919E+04  0.14008924642E+04  0.00000000000E+00 0. -1.
<mgrwt>
<rscale>  1 0.99328862E+02</rscale>
<asrwt>0</asrwt>
<pdfrwt beam="1">  1       21 0.20946681E-03 0.99328862E+02</pdfrwt>
<pdfrwt beam="2">  1        2 0.71650951E+00 0.99328862E+02</pdfrwt>
<totfact> 0.73421788E+04</totfact>
</mgrwt>
</event>
<event>
 6    2  0.9453093E+000  0.9576940E+02  0.7546771E-02  0.1289453E+00
         21   -1    0    0  501  502  0.00000000000E+00  0.00000000000E+00  0.13301619862E+03  0.13301619862E+03  0.00000000000E+00 0. -1.
          2   -1    0    0  502    0 -0.00000000000E+00 -0.00000000000E+00 -0.78166765368E+02  0.78166765368E+02  0.00000000000E+00 0. -1.
         24    2    1    2    0    0  0.35176816734E+02  0.37722717180E+02 -0.39547388833E+02  0.10361358244E+03  0.80693039821E+02 0.  0.
        -13    1    3    3    0    0 -0.14893503126E+02 -0.11300370031E+02  0.64674804173E+01  0.19782393717E+02  0.00000000000E+00 0.  1.
         14    1    3    3    0    0  0.50070319860E+02  0.49023087212E+02 -0.46014869250E+02  0.83831188723E+02  0.00000000000E+00 0. -1.
          1    1    1    2  501    0 -0.35176816734E+02 -0.37722717180E+02  0.94396822086E+02  0.10756938155E+03  0.00000000000E+00 0. -1.
<mgrwt>
<rscale>  1 0.95769403E+02</rscale>
<asrwt>0</asrwt>
<pdfrwt beam="1">  1       21 0.20464031E-01 0.95769403E+02</pdfrwt>
<pdfrwt beam="2">  1        2 0.12025656E-01 0.95769403E+02</pdfrwt>
<totfact> 0.13266719E+05</totfact>
</mgrwt>
</event>
<event>
 6    2  0.9453093E+000  0.9077792E+02  0.7546771E-02  0.1300979E+00
          2   -1    0    0  502    0 -0.00000000000E+00  0.00000000000E+00  0.24357169646E+04  0.24357169646E+04  0.00000000000E+00 0. -1.
         21   -1    0    0  501  502  0.00000000000E+00 -0.00000000000E+00 -0.23723620814E+01  0.23723620814E+01  0.00000000000E+00 0. -1.
         24    2    1    2    0    0 -0.93255282982E+01 -0.34926281706E+02  0.22078524685E+04  0.22097178899E+04  0.83269560254E+02 0.  0.
        -11    1    3    3    0    0  0.12329151025E+02 -0.41138002602E+02  0.53731456343E+03  0.53902809138E+03  0.00000000000E+00 0.  1.
         12    1    3    3    0    0 -0.21654679323E+02  0.62117208955E+01  0.16705379051E+04  0.16706897985E+04  0.00000000000E+00 0. -1.
          1    1    1    2  501    0  0.93255282982E+01  0.34926281706E+02  0.22549213402E+03  0.22837143678E+03  0.00000000000E+00 0. -1.
<mgrwt>
<rscale>  1 0.90777917E+02</rscale>
<asrwt>0</asrwt>
<pdfrwt beam="1">  1       21 0.36498073E-03 0.90777917E+02</pdfrwt>
<pdfrwt beam="2">  1        2 0.37472369E+00 0.90777917E+02</pdfrwt>
<totfact> 0.10149902E+06</totfact>
</mgrwt>
</event>
<event>
 6    2  0.9453093E+000  0.8726007E+02  0.7546771E-02  0.1309626E+00
          2   -1    0    0  502    0 -0.00000000000E+00  0.00000000000E+00  0.13590508835E+04  0.13590508835E+04  0.00000000000E+00 0. -1.
         21   -1    0    0  501  502  0.00000000000E+00 -0.00000000000E+00 -0.32391011941E+01  0.32391011941E+01  0.00000000000E+00 0.  1.
         24    2    1    2    0    0 -0.19483234381E+02 -0.18284213556E+02  0.12539408669E+04  0.12569733559E+04  0.83068712315E+02 0.  0.
        -13    1    3    3    0    0  0.26389646242E+02 -0.85632679267E+01  0.19162175855E+03  0.19361983714E+03  0.00000000000E+00 0.  1.
         14    1    3    3    0    0 -0.45872880623E+02 -0.97209456296E+01  0.10623191083E+04  0.10633535188E+04  0.00000000000E+00 0. -1.
          1    1    1    2  501    0  0.19483234381E+02  0.18284213556E+02  0.10187091543E+03  0.10531662878E+03  0.00000000000E+00 0. -1.
<mgrwt>
<rscale>  1 0.87260070E+02</rscale>
<asrwt>0</asrwt>
<pdfrwt beam="1">  1       21 0.49832435E-03 0.87260070E+02</pdfrwt>
<pdfrwt beam="2">  1        2 0.20908430E+00 0.87260070E+02</pdfrwt>
<totfact> 0.22149567E+06</totfact>
</mgrwt>
</event>
<event>
 6    2  0.9453093E+000  0.8688155E+02  0.7546771E-02  0.1310584E+00
         21   -1    0    0  501  502  0.00000000000E+00  0.00000000000E+00  0.16850523237E+02  0.16850523237E+02  0.00000000000E+00 0.  1.
          2   -1    0    0  502    0 -0.00000000000E+00 -0.00000000000E+00 -0.21691572889E+03  0.21691572889E+03  0.00000000000E+00 0. -1.
         24    2    1    2    0    0  0.22062143088E+02 -0.23988347821E+02 -0.16049718450E+03  0.18250410930E+03  0.80537101338E+02 0.  0.
        -13    1    3    3    0    0  0.43680733922E+02 -0.33025683094E+02 -0.69188681188E+02  0.88237043606E+02  0.00000000000E+00 0.  1.
         14    1    3    3    0    0 -0.21618590834E+02  0.90373352728E+01 -0.91308503309E+02  0.94267065696E+02  0.00000000000E+00 0. -1.
          1    1    1    2  501    0 -0.22062143088E+02  0.23988347821E+02 -0.39568021157E+02  0.51262142826E+02  0.00000000000E+00 0. -1.
<mgrwt>
<rscale>  1 0.86881550E+02</rscale>
<asrwt>0</asrwt>
<pdfrwt beam="1">  1       21 0.25923884E-02 0.86881550E+02</pdfrwt>
<pdfrwt beam="2">  1        2 0.33371648E-01 0.86881550E+02</pdfrwt>
<totfact> 0.14302453E+06</totfact>
</mgrwt>
</event>
<event>
 6    2  0.9453093E+000  0.9737453E+02  0.7546771E-02  0.1285916E+00
         21   -1    0    0  501  502  0.00000000000E+00  0.00000000000E+00  0.21487395155E+01  0.21487395155E+01  0.00000000000E+00 0.  1.
          2   -1    0    0  502    0 -0.00000000000E+00 -0.00000000000E+00 -0.21535742163E+04  0.21535742163E+04  0.00000000000E+00 0. -1.
         24    2    1    2    0    0 -0.66174264643E+01 -0.35271552613E+02 -0.17456136931E+04  0.17483274766E+04  0.90520312257E+02 0.  0.
        -13    1    3    3    0    0  0.11410047786E+02 -0.58793321262E+02 -0.79531424246E+03  0.79756603995E+03  0.00000000000E+00 0.  1.
         14    1    3    3    0    0 -0.18027474251E+02  0.23521768649E+02 -0.95029945066E+03  0.95076143661E+03  0.00000000000E+00 0. -1.
          1    1    1    2  501    0  0.66174264643E+01  0.35271552613E+02 -0.40581178369E+03  0.40739547928E+03  0.00000000000E+00 0. -1.
<mgrwt>
<rscale>  1 0.97374533E+02</rscale>
<asrwt>0</asrwt>
<pdfrwt beam="1">  1       21 0.33057394E-03 0.97374533E+02</pdfrwt>
<pdfrwt beam="2">  1        2 0.33132048E+00 0.97374533E+02</pdfrwt>
<totfact> 0.16526926E+06</totfact>
</mgrwt>
</event>
<event>
 6    2  0.9453093E+000  0.8798116E+02  0.7546771E-02  0.1307816E+00
         21   -1    0    0  501  502  0.00000000000E+00  0.00000000000E+00  0.18451847237E+02  0.18451847237E+02  0.00000000000E+00 0. -1.
          2   -1    0    0  502    0 -0.00000000000E+00 -0.00000000000E+00 -0.22209886956E+03  0.22209886956E+03  0.00000000000E+00 0. -1.
         24    2    1    2    0    0  0.15167404678E+02 -0.34597236470E+02 -0.12027069718E+03  0.14901585716E+03  0.79458581327E+02 0.  0.
        -13    1    3    3    0    0  0.17811710005E+02  0.23640109022E+02 -0.43627488976E+02  0.52720674903E+02  0.00000000000E+00 0.  1.
         14    1    3    3    0    0 -0.26443053274E+01 -0.58237345492E+02 -0.76643208209E+02  0.96295182253E+02  0.00000000000E+00 0. -1.
          1    1    1    2  501    0 -0.15167404678E+02  0.34597236470E+02 -0.83376325133E+02  0.91534859637E+02  0.00000000000E+00 0. -1.
<mgrwt>
<rscale>  1 0.87981163E+02</rscale>
<asrwt>0</asrwt>
<pdfrwt beam="1">  1       21 0.28387458E-02 0.87981163E+02</pdfrwt>
<pdfrwt beam="2">  1        2 0.34169056E-01 0.87981163E+02</pdfrwt>
<totfact> 0.12062270E+06</totfact>
</mgrwt>
</event>
<event>
 6    2  0.9453093E+000  0.9181822E+02  0.7546771E-02  0.1298507E+00
         21   -1    0    0  501  502  0.00000000000E+00  0.00000000000E+00  0.57050102036E+01  0.57050102036E+01  0.00000000000E+00 0. -1.
          2   -1    0    0  502    0 -0.00000000000E+00 -0.00000000000E+00 -0.27379149147E+04  0.27379149147E+04  0.00000000000E+00 0. -1.
         24    2    1    2    0    0  0.24894933013E+00  0.43944819470E+02 -0.26387161191E+04  0.26403131147E+04  0.80618714439E+02 0.  0.
        -11    1    3    3    0    0  0.60911673771E+01 -0.42839663614E+01 -0.23626668718E+02  0.24772447649E+02  0.00000000000E+00 0.  1.
         12    1    3    3    0    0 -0.58422180470E+01  0.48228785831E+02 -0.26150894504E+04  0.26155406671E+04  0.00000000000E+00 0. -1.
          1    1    1    2  501    0 -0.24894933013E+00 -0.43944819470E+02 -0.93493785355E+02  0.10330681020E+03  0.00000000000E+00 0. -1.
<mgrwt>
<rscale>  1 0.91818224E+02</rscale>
<asrwt>0</asrwt>
<pdfrwt beam="1">  1       21 0.87769371E-03 0.91818224E+02</pdfrwt>
<pdfrwt beam="2">  1        2 0.42121776E+00 0.91818224E+02</pdfrwt>
<totfact> 0.18185928E+05</totfact>
</mgrwt>
</event>
<event>
 6    2  0.9453093E+000  0.8876754E+02  0.7546771E-02  0.1305864E+00
          2   -1    0    0  502    0 -0.00000000000E+00  0.00000000000E+00  0.23501858647E+04  0.23501858647E+04  0.00000000000E+00 0. -1.
         21   -1    0    0  501  502  0.00000000000E+00 -0.00000000000E+00 -0.17646099428E+01  0.17646099428E+01  0.00000000000E+00 0.  1.
         24    2    1    2    0    0  0.32307909239E+02  0.22432321015E+02  0.17353073485E+04  0.17375762628E+04  0.79578046986E+02 0.  0.
        -11    1    3    3    0    0  0.48351222373E+02  0.14203621115E+02  0.59613981257E+03  0.59826604423E+03  0.00000000000E+00 0.  1.
         12    1    3    3    0    0 -0.16043313135E+02  0.82286999000E+01  0.11391675359E+04  0.11393102186E+04  0.00000000000E+00 0. -1.
          1    1    1    2  501    0 -0.32307909239E+02 -0.22432321015E+02  0.61311390629E+03  0.61437421179E+03  0.00000000000E+00 0. -1.
<mgrwt>
<rscale>  1 0.88767537E+02</rscale>
<asrwt>0</asrwt>
<pdfrwt beam="1">  1       21 0.27148033E-03 0.88767537E+02</pdfrwt>
<pdfrwt beam="2">  1        2 0.36156455E+00 0.88767537E+02</pdfrwt>
<totfact> 0.17578440E+06</totfact>
</mgrwt>
</event>
<event>
 6    2  0.9453093E+000  0.8370192E+02  0.7546771E-02  0.1318862E+00
         21   -1    0    0  501  502  0.00000000000E+00  0.00000000000E+00  0.31236260550E+01  0.31236260550E+01  0.00000000000E+00 0. -1.
          2   -1    0    0  502    0 -0.00000000000E+00 -0.00000000000E+00 -0.11020014358E+04  0.11020014358E+04  0.00000000000E+00 0. -1.
         24    2    1    2    0    0  0.25873508018E+02 -0.28097516624E+00 -0.97428147371E+03  0.97787033967E+03  0.79602096912E+02 0.  0.
        -13    1    3    3    0    0 -0.18673652910E+02 -0.12222146458E+02 -0.64375245341E+03  0.64413919881E+03  0.00000000000E+00 0.  1.
         14    1    3    3    0    0  0.44547160928E+02  0.11941171292E+02 -0.33052902030E+03  0.33373114086E+03  0.00000000000E+00 0. -1.
          1    1    1    2  501    0 -0.25873508018E+02  0.28097516624E+00 -0.12459633600E+03  0.12725472215E+03  0.00000000000E+00 0. -1.
<mgrwt>
<rscale>  1 0.83701919E+02</rscale>
<asrwt>0</asrwt>
<pdfrwt beam="1">  1       21 0.48055790E-03 0.83701919E+02</pdfrwt>
<pdfrwt beam="2">  1        2 0.16953867E+00 0.83701919E+02</pdfrwt>
<totfact> 0.32059960E+06</totfact>
</mgrwt>
</event>
<event>
 6    2  0.9453093E+000  0.8322504E+02  0.7546771E-02  0.1320141E+00
         -1   -1    0    0    0  501 -0.00000000000E+00  0.00000000000E+00  0.20047410018E+02  0.20047410018E+02  0.00000000000E+00 0.  1.
         21   -1    0    0  501  502  0.00000000000E+00 -0.00000000000E+00 -0.13511156817E+03  0.13511156817E+03  0.00000000000E+00 0. -1.
         24    2    1    2    0    0  0.14549541019E+02  0.14947779015E+02 -0.92574747283E+02  0.12448490375E+03  0.80568493754E+02 0.  0.
        -13    1    3    3    0    0  0.60484609966E+01  0.15752550111E+02  0.11268903409E+02  0.20290758967E+02  0.00000000000E+00 0.  1.
         14    1    3    3    0    0  0.85010800223E+01 -0.80477109582E+00 -0.10384365069E+03  0.10419414478E+03  0.00000000000E+00 0. -1.
         -2    1    1    2    0  502 -0.14549541019E+02 -0.14947779015E+02 -0.22489410865E+02  0.30674074434E+02  0.00000000000E+00 0.  1.
<mgrwt>
<rscale>  1 0.83225041E+02</rscale>
<asrwt>0</asrwt>
<pdfrwt beam="1">  1       21 0.20786396E-01 0.83225041E+02</pdfrwt>
<pdfrwt beam="2">  1       -1 0.30842168E-02 0.83225041E+02</pdfrwt>
<totfact> 0.62798497E+05</totfact>
</mgrwt>
</event>
<event>
 6    2  0.9453093E+000  0.8554969E+02  0.7546771E-02  0.1314001E+00
         21   -1    0    0  501  502  0.00000000000E+00  0.00000000000E+00  0.65386692184E+01  0.65386692184E+01  0.00000000000E+00 0.  1.
          2   -1    0    0  502    0 -0.00000000000E+00 -0.00000000000E+00 -0.48987910630E+03  0.48987910630E+03  0.00000000000E+00 0. -1.
         24    2    1    2    0    0 -0.14604774360E+02 -0.21641524815E+02 -0.40152350317E+03  0.41053607954E+03  0.81468361778E+02 0.  0.
        -13    1    3    3    0    0 -0.42311093576E+02 -0.27553491638E+02 -0.17161221693E+03  0.17888593165E+03  0.00000000000E+00 0.  1.
         14    1    3    3    0    0  0.27706319217E+02  0.59119668229E+01 -0.22991128624E+03  0.23165014789E+03  0.00000000000E+00 0. -1.
          1    1    1    2  501    0  0.14604774360E+02  0.21641524815E+02 -0.81816933908E+02  0.85881695981E+02  0.00000000000E+00 0. -1.
<mgrwt>
<rscale>  1 0.85549687E+02</rscale>
<asrwt>0</asrwt>
<pdfrwt beam="1">  1       21 0.10059492E-02 0.85549687E+02</pdfrwt>
<pdfrwt beam="2">  1        2 0.75366007E-01 0.85549687E+02</pdfrwt>
<totfact> 0.27230324E+06</totfact>
</mgrwt>
</event>
<event>
 6    2  0.9453093E+000  0.8441438E+02  0.7546771E-02  0.1316971E+00
         -1   -1    0    0    0  501 -0.00000000000E+00  0.00000000000E+00  0.28024201827E+01  0.28024201827E+01  0.00000000000E+00 0.  1.
         21   -1    0    0  501  502  0.00000000000E+00 -0.00000000000E+00 -0.16352518684E+04  0.16352518684E+04  0.00000000000E+00 0.  1.
         24    2    1    2    0    0  0.72702636368E+01  0.24562712542E+02 -0.67441095201E+03  0.67967339155E+03  0.80433844930E+02 0.  0.
        -11    1    3    3    0    0  0.22948603460E+02  0.34951413272E+02 -0.17564878772E+03  0.18055673989E+03  0.00000000000E+00 0.  1.
         12    1    3    3    0    0 -0.15678339824E+02 -0.10388700730E+02 -0.49876216429E+03  0.49911665166E+03  0.00000000000E+00 0. -1.
         -2    1    1    2    0  502 -0.72702636368E+01 -0.24562712542E+02 -0.95803849624E+03  0.95838089706E+03  0.00000000000E+00 0.  1.
<mgrwt>
<rscale>  1 0.84414377E+02</rscale>
<asrwt>0</asrwt>
<pdfrwt beam="1">  1       21 0.25157699E+00 0.84414377E+02</pdfrwt>
<pdfrwt beam="2">  1       -1 0.43114195E-03 0.84414377E+02</pdfrwt>
<totfact> 0.36471798E+04</totfact>
</mgrwt>
</event>
<event>
 6    2  0.9453093E+000  0.9184613E+02  0.7546771E-02  0.1298442E+00
         21   -1    0    0  501  502  0.00000000000E+00  0.00000000000E+00  0.48564872912E+02  0.48564872912E+02  0.00000000000E+00 0.  1.
         -1   -1    0    0    0  501 -0.00000000000E+00 -0.00000000000E+00 -0.20743581411E+03  0.20743581411E+03  0.00000000000E+00 0.  1.
         24    2    1    2    0    0 -0.14739358510E+02 -0.39857698223E+02 -0.18469655995E+03  0.20627295451E+03  0.81423753956E+02 0.  0.
        -11    1    3    3    0    0  0.25482580260E+02 -0.22376208995E+02 -0.13843010931E+03  0.14252351311E+03  0.00000000000E+00 0.  1.
         12    1    3    3    0    0 -0.40221938770E+02 -0.17481489228E+02 -0.46266450640E+02  0.63749441400E+02  0.00000000000E+00 0. -1.
         -2    1    1    2    0  502  0.14739358510E+02  0.39857698223E+02  0.25825618750E+02  0.49727732512E+02  0.00000000000E+00 0.  1.
<mgrwt>
<rscale>  1 0.91846135E+02</rscale>
<asrwt>0</asrwt>
<pdfrwt beam="1">  1       21 0.74715188E-02 0.91846135E+02</pdfrwt>
<pdfrwt beam="2">  1       -1 0.31913203E-01 0.91846135E+02</pdfrwt>
<totfact> 0.10937719E+05</totfact>
</mgrwt>
</event>
<event>
 6    2  0.9453093E+000  0.8535314E+02  0.7546771E-02  0.1314512E+00
          2   -1    0    0  502    0 -0.00000000000E+00  0.00000000000E+00  0.74862910665E+03  0.74862910665E+03  0.00000000000E+00 0. -1.
         21   -1    0    0  501  502  0.00000000000E+00 -0.00000000000E+00 -0.43113747223E+01  0.43113747223E+01  0.00000000000E+00 0.  1.
         24    2    1    2    0    0  0.21372727965E+02  0.50426268448E+01  0.46558101780E+03  0.47334009263E+03  0.82479922177E+02 0.  0.
        -13    1    3    3    0    0  0.35069573179E+02 -0.27387438557E+02  0.17226415547E+03  0.17791820034E+03  0.00000000000E+00 0.  1.
         14    1    3    3    0    0 -0.13696845214E+02  0.32430065402E+02  0.29331686233E+03  0.29542189228E+03  0.00000000000E+00 0. -1.
          1    1    1    2  501    0 -0.21372727965E+02 -0.50426268448E+01  0.27873671412E+03  0.27960038874E+03  0.00000000000E+00 0. -1.
<mgrwt>
<rscale>  1 0.85353144E+02</rscale>
<asrwt>0</asrwt>
<pdfrwt beam="1">  1       21 0.66328901E-03 0.85353144E+02</pdfrwt>
<pdfrwt beam="2">  1        2 0.11517361E+00 0.85353144E+02</pdfrwt>
<totfact> 0.32265934E+06</totfact>
</mgrwt>
</event>
<event>
 6    2  0.9453093E+000  0.8371216E+02  0.7546771E-02  0.1318835E+00
         21   -1    0    0  501  502  0.00000000000E+00  0.00000000000E+00  0.23205369854E+02  0.23205369854E+02  0.00000000000E+00 0.  1.
          2   -1    0    0  502    0 -0.00000000000E+00 -0.00000000000E+00 -0.22272146123E+03  0.22272146123E+03  0.00000000000E+00 0. -1.
         24    2    1    2    0    0  0.23068705633E+02  0.12015198161E+02 -0.20309563153E+03  0.21967148355E+03  0.79568806532E+02 0.  0.
        -13    1    3    3    0    0 -0.35197405915E+01  0.37732170844E+02 -0.53445115592E+02  0.65517063968E+02  0.00000000000E+00 0.  1.
         14    1    3    3    0    0  0.26588446225E+02 -0.25716972683E+02 -0.14965051594E+03  0.15415441958E+03  0.00000000000E+00 0. -1.
          1    1    1    2  501    0 -0.23068705633E+02 -0.12015198161E+02  0.35795401524E+01  0.26255347534E+02  0.00000000000E+00 0. -1.
<mgrwt>
<rscale>  1 0.83712156E+02</rscale>
<asrwt>0</asrwt>
<pdfrwt beam="1">  1       21 0.35700568E-02 0.83712156E+02</pdfrwt>
<pdfrwt beam="2">  1        2 0.34264841E-01 0.83712156E+02</pdfrwt>
<totfact> 0.82368736E+05</totfact>
</mgrwt>
</event>
<event>
 6    2  0.9453093E+000  0.9314423E+02  0.7546771E-02  0.1295411E+00
          2   -1    0    0  502    0 -0.00000000000E+00  0.00000000000E+00  0.16187540353E+04  0.16187540353E+04  0.00000000000E+00 0. -1.
         21   -1    0    0  501  502  0.00000000000E+00 -0.00000000000E+00 -0.35933985835E+01  0.35933985835E+01  0.00000000000E+00 0.  1.
         24    2    1    2    0    0  0.43931560913E+02  0.41273054050E+00  0.70491765917E+03  0.71104483290E+03  0.82132184860E+02 0.  0.
        -11    1    3    3    0    0  0.49682577935E+02 -0.13376801955E+02  0.22153879512E+03  0.22743512289E+03  0.00000000000E+00 0.  1.
         12    1    3    3    0    0 -0.57510170222E+01  0.13789532496E+02  0.48337886405E+03  0.48360971001E+03  0.00000000000E+00 0. -1.
          1    1    1    2  501    0 -0.43931560913E+02 -0.41273054050E+00  0.91024297750E+03  0.91130260094E+03  0.00000000000E+00 0. -1.
<mgrwt>
<rscale>  1 0.93144233E+02</rscale>
<asrwt>0</asrwt>
<pdfrwt beam="1">  1       21 0.55283184E-03 0.93144233E+02</pdfrwt>
<pdfrwt beam="2">  1        2 0.24903850E+00 0.93144233E+02</pdfrwt>
<totfact> 0.13974704E+06</totfact>
</mgrwt>
</event>
<event>
 6    2  0.9453093E+000  0.8694467E+02  0.7546771E-02  0.1310424E+00
         21   -1    0    0  501  502  0.00000000000E+00  0.00000000000E+00  0.12577196049E+02  0.12577196049E+02  0.00000000000E+00 0. -1.
          2   -1    0    0  502    0 -0.00000000000E+00 -0.00000000000E+00 -0.81477840173E+03  0.81477840173E+03  0.00000000000E+00 0. -1.
         24    2    1    2    0    0 -0.29668921040E+02 -0.59117703834E+01 -0.78994444604E+03  0.79471479415E+03  0.81511853779E+02 0.  0.
        -11    1    3    3    0    0 -0.44175816229E+02  0.24693465524E+02 -0.37664550803E+03  0.38003040496E+03  0.00000000000E+00 0.  1.
         12    1    3    3    0    0  0.14506895189E+02 -0.30605235908E+02 -0.41329893801E+03  0.41468438919E+03  0.00000000000E+00 0. -1.
          1    1    1    2  501    0  0.29668921040E+02  0.59117703834E+01 -0.12256759643E+02  0.32640803631E+02  0.00000000000E+00 0. -1.
<mgrwt>
<rscale>  1 0.86944673E+02</rscale>
<asrwt>0</asrwt>
<pdfrwt beam="1">  1       21 0.19349525E-02 0.86944673E+02</pdfrwt>
<pdfrwt beam="2">  1        2 0.12535057E+00 0.86944673E+02</pdfrwt>
<totfact> 0.54463120E+05</totfact>
</mgrwt>
</event>
<event>
 6    2  0.9453093E+000  0.8378096E+02  0.7546771E-02  0.1318652E+00
          2   -1    0    0  502    0 -0.00000000000E+00  0.00000000000E+00  0.10403175451E+04  0.10403175451E+04  0.00000000000E+00 0. -1.
         21   -1    0    0  501  502  0.00000000000E+00 -0.00000000000E+00 -0.26102325749E+02  0.26102325749E+02  0.00000000000E+00 0. -1.
         24    2    1    2    0    0  0.23903691493E+02 -0.21798866035E+02  0.10278891460E+04  0.10312978934E+04  0.77283060512E+02 0.  0.
        -11    1    3    3    0    0  0.60954453413E+01  0.97692187381E+00  0.48506719294E+01  0.78509775457E+01  0.00000000000E+00 0.  1.
         12    1    3    3    0    0  0.17808246152E+02 -0.22775787909E+02  0.10230384741E+04  0.10234469158E+04  0.00000000000E+00 0. -1.
          1    1    1    2  501    0 -0.23903691493E+02  0.21798866035E+02 -0.13673926674E+02  0.35121977423E+02  0.00000000000E+00 0. -1.
<mgrwt>
<rscale>  1 0.83780955E+02</rscale>
<asrwt>0</asrwt>
<pdfrwt beam="1">  1       21 0.40157432E-02 0.83780955E+02</pdfrwt>
<pdfrwt beam="2">  1        2 0.16004882E+00 0.83780955E+02</pdfrwt>
<totfact> 0.12149992E+05</totfact>
</mgrwt>
</event>
<event>
 6    2  0.9453093E+000  0.8955634E+02  0.7546771E-02  0.1303930E+00
          2   -1    0    0  502    0 -0.00000000000E+00  0.00000000000E+00  0.15658677271E+03  0.15658677271E+03  0.00000000000E+00 0. -1.
         21   -1    0    0  501  502  0.00000000000E+00 -0.00000000000E+00 -0.29767387110E+02  0.29767387110E+02  0.00000000000E+00 0.  1.
         24    2    1    2    0    0  0.36370495168E+02 -0.13966696659E+02  0.11476392465E+03  0.14557161854E+03  0.80637808680E+02 0.  0.
        -13    1    3    3    0    0  0.56313241674E+02  0.10990988018E+02  0.78671428008E+02  0.97371333514E+02  0.00000000000E+00 0.  1.
         14    1    3    3    0    0 -0.19942746506E+02 -0.24957684678E+02  0.36092496643E+02  0.48200285026E+02  0.00000000000E+00 0. -1.
          1    1    1    2  501    0 -0.36370495168E+02  0.13966696659E+02  0.12055460944E+02  0.40782541276E+02  0.00000000000E+00 0. -1.
<mgrwt>
<rscale>  1 0.89556338E+02</rscale>
<asrwt>0</asrwt>
<pdfrwt beam="1">  1       21 0.45795981E-02 0.89556338E+02</pdfrwt>
<pdfrwt beam="2">  1        2 0.24090272E-01 0.89556338E+02</pdfrwt>
<totfact> 0.80354842E+05</totfact>
</mgrwt>
</event>
<event>
 6    2  0.1312068E+001  0.7680693E+02  0.7546771E-02  0.1338365E+00
         -1   -1    0    0    0  501 -0.00000000000E+00  0.00000000000E+00  0.81667462833E+03  0.81667462833E+03  0.00000000000E+00 0.  1.
         21   -1    0    0  501  502  0.00000000000E+00 -0.00000000000E+00 -0.56915403390E+01  0.56915403390E+01  0.00000000000E+00 0.  1.
         24    2    1    2    0    0  0.13265043715E+02 -0.20165910612E+02  0.77641510013E+03  0.78020491726E+03  0.72915566736E+02 0.  0.
        -13    1    3    3    0    0  0.25515754122E+02 -0.16020339803E+02  0.75176096885E+03  0.75236444578E+03  0.00000000000E+00 0.  1.
         14    1    3    3    0    0 -0.12250710407E+02 -0.41455708092E+01  0.24654131281E+02  0.27840471476E+02  0.00000000000E+00 0. -1.
         -2    1    1    2    0  502 -0.13265043715E+02  0.20165910612E+02  0.34567987863E+02  0.42161251411E+02  0.00000000000E+00 0.  1.
<mgrwt>
<rscale>  1 0.76806935E+02</rscale>
<asrwt>0</asrwt>
<pdfrwt beam="1">  1       21 0.87562224E-03 0.76806935E+02</pdfrwt>
<pdfrwt beam="2">  1       -1 0.12564216E+00 0.76806935E+02</pdfrwt>
<totfact> 0.24221719E+05</totfact>
</mgrwt>
</event>
<event>
 6    2  0.9453093E+000  0.9277545E+02  0.7546771E-02  0.1296266E+00
          2   -1    0    0  502    0 -0.00000000000E+00  0.00000000000E+00  0.95678307592E+02  0.95678307592E+02  0.00000000000E+00 0. -1.
         21   -1    0    0  501  502  0.00000000000E+00 -0.00000000000E+00 -0.56096606375E+02  0.56096606375E+02  0.00000000000E+00 0.  1.
         24    2    1    2    0    0  0.11093039086E+02 -0.43662770272E+02  0.15027343455E+01  0.92787620912E+02  0.81103584138E+02 0.  0.
        -11    1    3    3    0    0  0.24962186694E+02 -0.60557431668E+02 -0.12700073514E+02  0.66720350434E+02  0.00000000000E+00 0.  1.
         12    1    3    3    0    0 -0.13869147608E+02  0.16894661396E+02  0.14202807860E+02  0.26067270478E+02  0.00000000000E+00 0. -1.
          1    1    1    2  501    0 -0.11093039086E+02  0.43662770272E+02  0.38078966871E+02  0.58987293055E+02  0.00000000000E+00 0. -1.
<mgrwt>
<rscale>  1 0.92775451E+02</rscale>
<asrwt>0</asrwt>
<pdfrwt beam="1">  1       21 0.86302471E-02 0.92775451E+02</pdfrwt>
<pdfrwt beam="2">  1        2 0.14719740E-01 0.92775451E+02</pdfrwt>
<totfact> 0.48240856E+05</totfact>
</mgrwt>
</event>
<event>
 6    2  0.9453093E+000  0.8479675E+02  0.7546771E-02  0.1315965E+00
         -3   -1    0    0    0  501 -0.00000000000E+00  0.00000000000E+00  0.33947796346E+03  0.33947796346E+03  0.00000000000E+00 0.  1.
         21   -1    0    0  501  502  0.00000000000E+00 -0.00000000000E+00 -0.10198217954E+02  0.10198217954E+02  0.00000000000E+00 0.  1.
         24    2    1    2    0    0 -0.22640331888E+02 -0.94169462289E+01  0.29856938014E+03  0.31037745312E+03  0.81174042316E+02 0.  0.
        -11    1    3    3    0    0 -0.34989250454E+02  0.27267522528E+02  0.12791375821E+03  0.13538720387E+03  0.00000000000E+00 0.  1.
         12    1    3    3    0    0  0.12348918566E+02 -0.36684468757E+02  0.17065562193E+03  0.17499024925E+03  0.00000000000E+00 0. -1.
         -4    1    1    2    0  502  0.22640331888E+02  0.94169462289E+01  0.30710365363E+02  0.39298728288E+02  0.00000000000E+00 0.  1.
<mgrwt>
<rscale>  1 0.84796749E+02</rscale>
<asrwt>0</asrwt>
<pdfrwt beam="1">  1       21 0.15689569E-02 0.84796749E+02</pdfrwt>
<pdfrwt beam="2">  1       -3 0.52227370E-01 0.84796749E+02</pdfrwt>
<totfact> 0.29249704E+05</totfact>
</mgrwt>
</event>
<event>
 6    2  0.9453093E+000  0.8358913E+02  0.7546771E-02  0.1319164E+00
          2   -1    0    0  502    0 -0.00000000000E+00  0.00000000000E+00  0.14981822741E+04  0.14981822741E+04  0.00000000000E+00 0. -1.
         21   -1    0    0  501  502  0.00000000000E+00 -0.00000000000E+00 -0.19821586023E+01  0.19821586023E+01  0.00000000000E+00 0.  1.
         24    2    1    2    0    0 -0.17419892211E+02  0.99156825074E+01  0.13515166941E+04  0.13540991534E+04  0.81150288190E+02 0.  0.
        -11    1    3    3    0    0 -0.26346258594E+02 -0.25140242302E+02  0.34176427405E+03  0.34369896151E+03  0.00000000000E+00 0.  1.
         12    1    3    3    0    0  0.89263663831E+01  0.35055924810E+02  0.10097524201E+04  0.10104001919E+04  0.00000000000E+00 0. -1.
          1    1    1    2  501    0  0.17419892211E+02 -0.99156825074E+01  0.14468342135E+03  0.14606527930E+03  0.00000000000E+00 0. -1.
<mgrwt>
<rscale>  1 0.83589130E+02</rscale>
<asrwt>0</asrwt>
<pdfrwt beam="1">  1       21 0.30494867E-03 0.83589130E+02</pdfrwt>
<pdfrwt beam="2">  1        2 0.23048868E+00 0.83589130E+02</pdfrwt>
<totfact> 0.39478580E+06</totfact>
</mgrwt>
</event>
<event>
 6    2  0.9453093E+000  0.1132279E+03  0.7546771E-02  0.1254706E+00
         21   -1    0    0  501  502  0.00000000000E+00  0.00000000000E+00  0.12898962726E+03  0.12898962726E+03  0.00000000000E+00 0. -1.
          4   -1    0    0  502    0 -0.00000000000E+00 -0.00000000000E+00 -0.34704766373E+03  0.34704766373E+03  0.00000000000E+00 0. -1.
         24    2    1    2    0    0 -0.80306843456E+02 -0.30759619769E+01 -0.32391224816E+03  0.34313219409E+03  0.79761566371E+02 0.  0.
        -13    1    3    3    0    0 -0.58684615103E+02 -0.33941856006E+02 -0.14194192197E+03  0.15730048586E+03  0.00000000000E+00 0.  1.
         14    1    3    3    0    0 -0.21622228353E+02  0.30865894029E+02 -0.18197032618E+03  0.18583170823E+03  0.00000000000E+00 0. -1.
          3    1    1    2  501    0  0.80306843456E+02  0.30759619769E+01  0.10585421169E+03  0.13290509690E+03  0.00000000000E+00 0. -1.
<mgrwt>
<rscale>  1 0.11322790E+03</rscale>
<asrwt>0</asrwt>
<pdfrwt beam="1">  1       21 0.19844558E-01 0.11322790E+03</pdfrwt>
<pdfrwt beam="2">  1        4 0.53391948E-01 0.11322790E+03</pdfrwt>
<totfact> 0.32424128E+03</totfact>
</mgrwt>
</event>
<event>
 6    2  0.9453093E+000  0.8415467E+02  0.7546771E-02  0.1317658E+00
          2   -1    0    0  502    0 -0.00000000000E+00  0.00000000000E+00  0.12857480532E+02  0.12857480532E+02  0.00000000000E+00 0. -1.
         21   -1    0    0  501  502  0.00000000000E+00 -0.00000000000E+00 -0.39286181036E+03  0.39286181036E+03  0.00000000000E+00 0. -1.
         24    2    1    2    0    0 -0.37931420971E+01  0.23196131721E+02 -0.13160892959E+03  0.15621433440E+03  0.80805689596E+02 0.  0.
        -11    1    3    3    0    0 -0.14307986250E+02  0.20421315448E+02 -0.14017217430E+03  0.14237270470E+03  0.00000000000E+00 0.  1.
         12    1    3    3    0    0  0.10514844152E+02  0.27748162731E+01  0.85632447102E+01  0.13841629704E+02  0.00000000000E+00 0. -1.
          1    1    1    2  501    0  0.37931420971E+01 -0.23196131721E+02 -0.24839540024E+03  0.24950495649E+03  0.00000000000E+00 0. -1.
<mgrwt>
<rscale>  1 0.84154667E+02</rscale>
<asrwt>0</asrwt>
<pdfrwt beam="1">  1       21 0.60440283E-01 0.84154667E+02</pdfrwt>
<pdfrwt beam="2">  1        2 0.19780738E-02 0.84154667E+02</pdfrwt>
<totfact> 0.16080954E+05</totfact>
</mgrwt>
</event>
<event>
 6    2  0.9453093E+000  0.8427497E+02  0.7546771E-02  0.1317340E+00
         21   -1    0    0  501  502  0.00000000000E+00  0.00000000000E+00  0.13010357147E+03  0.13010357147E+03  0.00000000000E+00 0.  1.
         -1   -1    0    0    0  501 -0.00000000000E+00 -0.00000000000E+00 -0.29497110081E+02  0.29497110081E+02  0.00000000000E+00 0.  1.
         24    2    1    2    0    0  0.74316041137E+01 -0.23853103108E+02  0.38490934917E+02  0.92648923571E+02  0.80486469052E+02 0.  0.
        -11    1    3    3    0    0  0.36970143985E+02 -0.35674781794E+02  0.16454966353E+02  0.53946710001E+02  0.00000000000E+00 0.  1.
         12    1    3    3    0    0 -0.29538539871E+02  0.11821678685E+02  0.22035968564E+02  0.38702213570E+02  0.00000000000E+00 0. -1.
         -2    1    1    2    0  502 -0.74316041137E+01  0.23853103108E+02  0.62115526472E+02  0.66951757979E+02  0.00000000000E+00 0.  1.
<mgrwt>
<rscale>  1 0.84274972E+02</rscale>
<asrwt>0</asrwt>
<pdfrwt beam="1">  1       21 0.20015934E-01 0.84274972E+02</pdfrwt>
<pdfrwt beam="2">  1       -1 0.45380170E-02 0.84274972E+02</pdfrwt>
<totfact> 0.38550883E+05</totfact>
</mgrwt>
</event>
<event>
 6    2  0.9453093E+000  0.9881135E+02  0.7546771E-02  0.1282816E+00
          2   -1    0    0  502    0 -0.00000000000E+00  0.00000000000E+00  0.10853724941E+03  0.10853724941E+03  0.00000000000E+00 0. -1.
         21   -1    0    0  501  502  0.00000000000E+00 -0.00000000000E+00 -0.81384147292E+02  0.81384147292E+02  0.00000000000E+00 0. -1.
         24    2    1    2    0    0  0.59519039230E+02 -0.11266849521E+02 -0.33367421734E+02  0.10429317859E+03  0.78065513122E+02 0.  0.
        -11    1    3    3    0    0  0.34749134013E+02 -0.45059056429E+02 -0.18438382289E+02  0.59814670628E+02  0.00000000000E+00 0.  1.
         12    1    3    3    0    0  0.24769905217E+02  0.33792206907E+02 -0.14929039445E+02  0.44478507966E+02  0.00000000000E+00 0. -1.
          1    1    1    2  501    0 -0.59519039230E+02  0.11266849521E+02  0.60520523851E+02  0.85628218107E+02  0.00000000000E+00 0. -1.
<mgrwt>
<rscale>  1 0.98811347E+02</rscale>
<asrwt>0</asrwt>
<pdfrwt beam="1">  1       21 0.12520638E-01 0.98811347E+02</pdfrwt>
<pdfrwt beam="2">  1        2 0.16698038E-01 0.98811347E+02</pdfrwt>
<totfact> 0.21936475E+05</totfact>
</mgrwt>
</event>
<event>
 6    2  0.9453093E+000  0.9997755E+02  0.7546771E-02  0.1280343E+00
         -3   -1    0    0    0  501 -0.00000000000E+00  0.00000000000E+00  0.26122919873E+02  0.26122919873E+02  0.00000000000E+00 0.  1.
         21   -1    0    0  501  502  0.00000000000E+00 -0.00000000000E+00 -0.26505761835E+03  0.26505761835E+03  0.00000000000E+00 0.  1.
         24    2    1    2    0    0 -0.23783052904E+02  0.55064327159E+02 -0.18606742979E+03  0.21122641494E+03  0.79986225133E+02 0.  0.
        -11    1    3    3    0    0 -0.39099720381E+02  0.22085481717E+02 -0.38206786109E+02  0.58960284440E+02  0.00000000000E+00 0.  1.
         12    1    3    3    0    0  0.15316667477E+02  0.32978845443E+02 -0.14786064368E+03  0.15226613050E+03  0.00000000000E+00 0. -1.
         -4    1    1    2    0  502  0.23783052904E+02 -0.55064327159E+02 -0.52867268692E+02  0.79954123283E+02  0.00000000000E+00 0.  1.
<mgrwt>
<rscale>  1 0.99977547E+02</rscale>
<asrwt>0</asrwt>
<pdfrwt beam="1">  1       21 0.40778095E-01 0.99977547E+02</pdfrwt>
<pdfrwt beam="2">  1       -3 0.40189107E-02 0.99977547E+02</pdfrwt>
<totfact> 0.86253411E+04</totfact>
</mgrwt>
</event>
<event>
 6    2  0.9453093E+000  0.9301741E+02  0.7546771E-02  0.1295705E+00
          2   -1    0    0  502    0 -0.00000000000E+00  0.00000000000E+00  0.17105803702E+04  0.17105803702E+04  0.00000000000E+00 0. -1.
         21   -1    0    0  501  502  0.00000000000E+00 -0.00000000000E+00 -0.30706312475E+01  0.30706312475E+01  0.00000000000E+00 0. -1.
         24    2    1    2    0    0 -0.25106072790E+02 -0.38723639577E+02  0.13455032578E+04  0.13487146679E+04  0.80761398457E+02 0.  0.
        -11    1    3    3    0    0  0.34521792490E+01  0.22435688708E+02  0.21416358645E+03  0.21536322674E+03  0.00000000000E+00 0.  1.
         12    1    3    3    0    0 -0.28558252039E+02 -0.61159328285E+02  0.11313396714E+04  0.11333514412E+04  0.00000000000E+00 0. -1.
          1    1    1    2  501    0  0.25106072790E+02  0.38723639577E+02  0.36200648112E+03  0.36493633352E+03  0.00000000000E+00 0. -1.
<mgrwt>
<rscale>  1 0.93017410E+02</rscale>
<asrwt>0</asrwt>
<pdfrwt beam="1">  1       21 0.47240617E-03 0.93017410E+02</pdfrwt>
<pdfrwt beam="2">  1        2 0.26316545E+00 0.93017410E+02</pdfrwt>
<totfact> 0.15986714E+06</totfact>
</mgrwt>
</event>
<event>
 6    2  0.9453093E+000  0.9050228E+02  0.7546771E-02  0.1301640E+00
         -1   -1    0    0    0  501 -0.00000000000E+00  0.00000000000E+00  0.71610598136E+02  0.71610598136E+02  0.00000000000E+00 0.  1.
         21   -1    0    0  501  502  0.00000000000E+00 -0.00000000000E+00 -0.60100788775E+02  0.60100788775E+02  0.00000000000E+00 0. -1.
         24    2    1    2    0    0  0.36224092822E+02 -0.82232989963E+01  0.21950544634E+02  0.93126201928E+02  0.82527907575E+02 0.  0.
        -13    1    3    3    0    0 -0.18012404473E+02  0.66280969435E+01  0.30710561068E+02  0.36214871878E+02  0.00000000000E+00 0.  1.
         14    1    3    3    0    0  0.54236497295E+02 -0.14851395940E+02 -0.87600164345E+01  0.56911330050E+02  0.00000000000E+00 0. -1.
         -2    1    1    2    0  502 -0.36224092822E+02  0.82232989963E+01 -0.10440735273E+02  0.38585184983E+02  0.00000000000E+00 0.  1.
<mgrwt>
<rscale>  1 0.90502282E+02</rscale>
<asrwt>0</asrwt>
<pdfrwt beam="1">  1       21 0.92462752E-02 0.90502282E+02</pdfrwt>
<pdfrwt beam="2">  1       -1 0.11017015E-01 0.90502282E+02</pdfrwt>
<totfact> 0.40929737E+05</totfact>
</mgrwt>
</event>
<event>
 6    2  0.9453093E+000  0.8488797E+02  0.7546771E-02  0.1315726E+00
         21   -1    0    0  501  502  0.00000000000E+00  0.00000000000E+00  0.96186035290E+01  0.96186035290E+01  0.00000000000E+00 0.  1.
          2   -1    0    0  502    0 -0.00000000000E+00 -0.00000000000E+00 -0.79800241761E+03  0.79800241761E+03  0.00000000000E+00 0. -1.
         24    2    1    2    0    0  0.11614047943E+02  0.25462274692E+02 -0.76877894804E+03  0.77345138089E+03  0.80142087034E+02 0.  0.
        -11    1    3    3    0    0  0.41588892049E+02 -0.38033365320E+01 -0.31813053491E+03  0.32085999837E+03  0.00000000000E+00 0.  1.
         12    1    3    3    0    0 -0.29974844106E+02  0.29265611224E+02 -0.45064841313E+03  0.45259138252E+03  0.00000000000E+00 0. -1.
          1    1    1    2  501    0 -0.11614047943E+02 -0.25462274692E+02 -0.19604866044E+02  0.34169640249E+02  0.00000000000E+00 0. -1.
<mgrwt>
<rscale>  1 0.84887971E+02</rscale>
<asrwt>0</asrwt>
<pdfrwt beam="1">  1       21 0.14797848E-02 0.84887971E+02</pdfrwt>
<pdfrwt beam="2">  1        2 0.12276963E+00 0.84887971E+02</pdfrwt>
<totfact> 0.85370470E+05</totfact>
</mgrwt>
</event>
<event>
 6    2  0.9453093E+000  0.8581170E+02  0.7546771E-02  0.1313323E+00
          4   -1    0    0  502    0 -0.00000000000E+00  0.00000000000E+00  0.24834893457E+03  0.24834893457E+03  0.00000000000E+00 0. -1.
         21   -1    0    0  501  502  0.00000000000E+00 -0.00000000000E+00 -0.18445384774E+02  0.18445384774E+02  0.00000000000E+00 0.  1.
         24    2    1    2    0    0 -0.13281929701E+01 -0.28663807393E+02  0.22048234482E+03  0.23659271253E+03  0.80871931452E+02 0.  0.
        -13    1    3    3    0    0  0.93134230145E+01 -0.43818527415E+02  0.59140460858E+02  0.74191625563E+02  0.00000000000E+00 0.  1.
         14    1    3    3    0    0 -0.10641615985E+02  0.15154720022E+02  0.16134188396E+03  0.16240108697E+03  0.00000000000E+00 0. -1.
          3    1    1    2  501    0  0.13281929701E+01  0.28663807393E+02  0.94212049807E+01  0.30201606813E+02  0.00000000000E+00 0. -1.
<mgrwt>
<rscale>  1 0.85811696E+02</rscale>
<asrwt>0</asrwt>
<pdfrwt beam="1">  1       21 0.28377517E-02 0.85811696E+02</pdfrwt>
<pdfrwt beam="2">  1        4 0.38207526E-01 0.85811696E+02</pdfrwt>
<totfact> 0.17067896E+05</totfact>
</mgrwt>
</event>
<event>
 6    2  0.9453093E+000  0.8619691E+02  0.7546771E-02  0.1312332E+00
          4   -1    0    0  502    0 -0.00000000000E+00  0.00000000000E+00  0.10182657555E+03  0.10182657555E+03  0.00000000000E+00 0. -1.
         21   -1    0    0  501  502  0.00000000000E+00 -0.00000000000E+00 -0.71624041246E+02  0.71624041246E+02  0.00000000000E+00 0. -1.
         24    2    1    2    0    0  0.29208185421E+02 -0.88136989375E+01  0.78327822265E+02  0.11646954339E+03  0.80617041702E+02 0.  0.
        -11    1    3    3    0    0  0.25218098876E+01 -0.42109364419E+02  0.49181376350E+02  0.64794798222E+02  0.00000000000E+00 0.  1.
         12    1    3    3    0    0  0.26686375533E+02  0.33295665482E+02  0.29146445915E+02  0.51674745171E+02  0.00000000000E+00 0. -1.
          3    1    1    2  501    0 -0.29208185421E+02  0.88136989375E+01 -0.48125287963E+02  0.56981073402E+02  0.00000000000E+00 0. -1.
<mgrwt>
<rscale>  1 0.86196907E+02</rscale>
<asrwt>0</asrwt>
<pdfrwt beam="1">  1       21 0.11019083E-01 0.86196907E+02</pdfrwt>
<pdfrwt beam="2">  1        4 0.15665627E-01 0.86196907E+02</pdfrwt>
<totfact> 0.89801344E+04</totfact>
</mgrwt>
</event>
<event>
 6    2  0.9453093E+000  0.8516831E+02  0.7546771E-02  0.1314993E+00
         21   -1    0    0  501  502  0.00000000000E+00  0.00000000000E+00  0.48246033966E+03  0.48246033966E+03  0.00000000000E+00 0.  1.
          2   -1    0    0  502    0 -0.00000000000E+00 -0.00000000000E+00 -0.11983276201E+02  0.11983276201E+02  0.00000000000E+00 0. -1.
         24    2    1    2    0    0  0.21869875714E+02 -0.25331045810E+02  0.15217505941E+03  0.17438718470E+03  0.78317866005E+02 0.  0.
        -11    1    3    3    0    0  0.30763618452E+02 -0.42793928331E+02  0.14365516182E+03  0.15301805789E+03  0.00000000000E+00 0.  1.
         12    1    3    3    0    0 -0.88937427383E+01  0.17462882521E+02  0.85198975939E+01  0.21369126815E+02  0.00000000000E+00 0. -1.
          1    1    1    2  501    0 -0.21869875714E+02  0.25331045810E+02  0.31830200404E+03  0.32005643115E+03  0.00000000000E+00 0. -1.
<mgrwt>
<rscale>  1 0.85168313E+02</rscale>
<asrwt>0</asrwt>
<pdfrwt beam="1">  1       21 0.74224653E-01 0.85168313E+02</pdfrwt>
<pdfrwt beam="2">  1        2 0.18435813E-02 0.85168313E+02</pdfrwt>
<totfact> 0.11407913E+05</totfact>
</mgrwt>
</event>
<event>
 6    2  0.9453093E+000  0.8947389E+02  0.7546771E-02  0.1304131E+00
          2   -1    0    0  502    0 -0.00000000000E+00  0.00000000000E+00  0.48696056734E+03  0.48696056734E+03  0.00000000000E+00 0. -1.
         21   -1    0    0  501  502  0.00000000000E+00 -0.00000000000E+00 -0.58496430204E+02  0.58496430204E+02  0.00000000000E+00 0. -1.
         24    2    1    2    0    0  0.15946828227E+02 -0.32837561000E+02  0.47666663918E+03  0.48499140446E+03  0.81688253467E+02 0.  0.
        -11    1    3    3    0    0 -0.23429988375E+02 -0.10856481741E+02  0.53260506189E+02  0.59190447460E+02  0.00000000000E+00 0.  1.
         12    1    3    3    0    0  0.39376816602E+02 -0.21981079259E+02  0.42340613299E+03  0.42580095700E+03  0.00000000000E+00 0. -1.
          1    1    1    2  501    0 -0.15946828227E+02  0.32837561000E+02 -0.48202502045E+02  0.60465593079E+02  0.00000000000E+00 0. -1.
<mgrwt>
<rscale>  1 0.89473893E+02</rscale>
<asrwt>0</asrwt>
<pdfrwt beam="1">  1       21 0.89994512E-02 0.89473893E+02</pdfrwt>
<pdfrwt beam="2">  1        2 0.74917007E-01 0.89473893E+02</pdfrwt>
<totfact> 0.77350196E+04</totfact>
</mgrwt>
</event>
<event>
 6    2  0.9453093E+000  0.8216854E+02  0.7546771E-02  0.1323008E+00
         21   -1    0    0  501  502  0.00000000000E+00  0.00000000000E+00  0.19143370263E+01  0.19143370263E+01  0.00000000000E+00 0.  1.
          2   -1    0    0  502    0 -0.00000000000E+00 -0.00000000000E+00 -0.16098127571E+04  0.16098127571E+04  0.00000000000E+00 0. -1.
         24    2    1    2    0    0  0.16493855420E+02 -0.14171428394E+02 -0.14515310456E+04  0.14538548912E+04  0.79238827269E+02 0.  0.
        -13    1    3    3    0    0 -0.81833623221E+00 -0.38724370695E+02 -0.39447536798E+03  0.39637237858E+03  0.00000000000E+00 0.  1.
         14    1    3    3    0    0  0.17312191652E+02  0.24552942301E+02 -0.10570556776E+04  0.10574825126E+04  0.00000000000E+00 0. -1.
          1    1    1    2  501    0 -0.16493855420E+02  0.14171428394E+02 -0.15636737449E+03  0.15787220292E+03  0.00000000000E+00 0. -1.
<mgrwt>
<rscale>  1 0.82168537E+02</rscale>
<asrwt>0</asrwt>
<pdfrwt beam="1">  1       21 0.29451244E-03 0.82168537E+02</pdfrwt>
<pdfrwt beam="2">  1        2 0.24766430E+00 0.82168537E+02</pdfrwt>
<totfact> 0.36476822E+06</totfact>
</mgrwt>
</event>
<event>
 6    2  0.9453093E+000  0.9388178E+02  0.7546771E-02  0.1293715E+00
          4   -1    0    0  502    0 -0.00000000000E+00  0.00000000000E+00  0.75138581049E+03  0.75138581049E+03  0.00000000000E+00 0. -1.
         21   -1    0    0  501  502  0.00000000000E+00 -0.00000000000E+00 -0.74168043709E+01  0.74168043709E+01  0.00000000000E+00 0.  1.
         24    2    1    2    0    0 -0.42781196535E+02  0.25123214436E+02  0.57807722579E+03  0.58565097767E+03  0.79701831787E+02 0.  0.
        -13    1    3    3    0    0 -0.29298062063E+02  0.33889172536E+02  0.13414381522E+03  0.14142636111E+03  0.00000000000E+00 0.  1.
         14    1    3    3    0    0 -0.13483134472E+02 -0.87659580995E+01  0.44393341057E+03  0.44422461656E+03  0.00000000000E+00 0. -1.
          3    1    1    2  501    0  0.42781196535E+02 -0.25123214436E+02  0.16589178034E+03  0.17315163720E+03  0.00000000000E+00 0. -1.
<mgrwt>
<rscale>  1 0.93881780E+02</rscale>
<asrwt>0</asrwt>
<pdfrwt beam="1">  1       21 0.11410474E-02 0.93881780E+02</pdfrwt>
<pdfrwt beam="2">  1        4 0.11559776E+00 0.93881780E+02</pdfrwt>
<totfact> 0.70335684E+04</totfact>
</mgrwt>
</event>
<event>
 6    2  0.9453093E+000  0.8959776E+02  0.7546771E-02  0.1303829E+00
          2   -1    0    0  502    0 -0.00000000000E+00  0.00000000000E+00  0.16060525483E+04  0.16060525483E+04  0.00000000000E+00 0. -1.
         21   -1    0    0  501  502  0.00000000000E+00 -0.00000000000E+00 -0.28395059201E+01  0.28395059201E+01  0.00000000000E+00 0. -1.
         24    2    1    2    0    0 -0.41790762638E+02  0.10134788883E+02  0.12166145655E+04  0.12199093244E+04  0.78603924427E+02 0.  0.
        -13    1    3    3    0    0  0.11583861546E+02 -0.21053138907E+02  0.52080107196E+03  0.52135513526E+03  0.00000000000E+00 0.  1.
         14    1    3    3    0    0 -0.53374624184E+02  0.31187927790E+02  0.69581349359E+03  0.69855418917E+03  0.00000000000E+00 0. -1.
          1    1    1    2  501    0  0.41790762638E+02 -0.10134788883E+02  0.38659847680E+03  0.38898272976E+03  0.00000000000E+00 0. -1.
<mgrwt>
<rscale>  1 0.89597761E+02</rscale>
<asrwt>0</asrwt>
<pdfrwt beam="1">  1       21 0.43684835E-03 0.89597761E+02</pdfrwt>
<pdfrwt beam="2">  1        2 0.24708428E+00 0.89597761E+02</pdfrwt>
<totfact> 0.20288645E+06</totfact>
</mgrwt>
</event>
<event>
 6    2  0.1279948E+001  0.8432781E+02  0.7546771E-02  0.1317200E+00
         -1   -1    0    0    0  501 -0.00000000000E+00  0.00000000000E+00  0.43153010209E+03  0.43153010209E+03  0.00000000000E+00 0.  1.
         21   -1    0    0  501  502  0.00000000000E+00 -0.00000000000E+00 -0.20561050150E+02  0.20561050150E+02  0.00000000000E+00 0.  1.
         24    2    1    2    0    0 -0.14959303615E+02  0.23573334407E+02  0.41535553366E+03  0.42382944525E+03  0.79571957781E+02 0.  0.
        -13    1    3    3    0    0 -0.12500642121E+02  0.95408264926E+01  0.40702019199E+03  0.40732386391E+03  0.00000000000E+00 0.  1.
         14    1    3    3    0    0 -0.24586614935E+01  0.14032507915E+02  0.83353416638E+01  0.16505581340E+02  0.00000000000E+00 0. -1.
         -2    1    1    2    0  502  0.14959303615E+02 -0.23573334407E+02 -0.43864817201E+01  0.28261706983E+02  0.00000000000E+00 0.  1.
<mgrwt>
<rscale>  1 0.84327809E+02</rscale>
<asrwt>0</asrwt>
<pdfrwt beam="1">  1       21 0.31632388E-02 0.84327809E+02</pdfrwt>
<pdfrwt beam="2">  1       -1 0.66389240E-01 0.84327809E+02</pdfrwt>
<totfact> 0.12279869E+05</totfact>
</mgrwt>
</event>
<event>
 6    2  0.9453093E+000  0.8819971E+02  0.7546771E-02  0.1307271E+00
          4   -1    0    0  502    0 -0.00000000000E+00  0.00000000000E+00  0.51442869020E+02  0.51442869020E+02  0.00000000000E+00 0. -1.
         21   -1    0    0  501  502  0.00000000000E+00 -0.00000000000E+00 -0.10207167450E+03  0.10207167450E+03  0.00000000000E+00 0.  1.
         24    2    1    2    0    0 -0.32453420168E+02 -0.13171706175E+02  0.43727446514E+01  0.88308034329E+02  0.80947326745E+02 0.  0.
        -11    1    3    3    0    0 -0.54292082966E+02 -0.95158969314E+01 -0.16849537258E+02  0.57637569978E+02  0.00000000000E+00 0.  1.
         12    1    3    3    0    0  0.21838662799E+02 -0.36558092437E+01  0.21222281909E+02  0.30670464351E+02  0.00000000000E+00 0. -1.
          3    1    1    2  501    0  0.32453420168E+02  0.13171706175E+02 -0.55001550130E+02  0.65206509190E+02  0.00000000000E+00 0. -1.
<mgrwt>
<rscale>  1 0.88199705E+02</rscale>
<asrwt>0</asrwt>
<pdfrwt beam="1">  1       21 0.15703334E-01 0.88199705E+02</pdfrwt>
<pdfrwt beam="2">  1        4 0.79142876E-02 0.88199705E+02</pdfrwt>
<totfact> 0.15237757E+05</totfact>
</mgrwt>
</event>
<event>
 6    2  0.9453093E+000  0.1054481E+03  0.7546771E-02  0.1269239E+00
         21   -1    0    0  501  502  0.00000000000E+00  0.00000000000E+00  0.96283939165E+01  0.96283939165E+01  0.00000000000E+00 0.  1.
          2   -1    0    0  502    0 -0.00000000000E+00 -0.00000000000E+00 -0.75255667765E+03  0.75255667765E+03  0.00000000000E+00 0. -1.
         24    2    1    2    0    0 -0.38191463814E+02 -0.47116480471E+02 -0.38617551905E+03  0.40031342892E+03  0.86259835510E+02 0.  0.
        -11    1    3    3    0    0 -0.77982928427E+01 -0.68026991031E+02 -0.24325026052E+03  0.25270372796E+03  0.00000000000E+00 0.  1.
         12    1    3    3    0    0 -0.30393170972E+02  0.20910510560E+02 -0.14292525853E+03  0.14760970097E+03  0.00000000000E+00 0. -1.
          1    1    1    2  501    0  0.38191463814E+02  0.47116480471E+02 -0.35675276468E+03  0.36187164264E+03  0.00000000000E+00 0. -1.
<mgrwt>
<rscale>  1 0.10544814E+03</rscale>
<asrwt>0</asrwt>
<pdfrwt beam="1">  1       21 0.14812911E-02 0.10544814E+03</pdfrwt>
<pdfrwt beam="2">  1        2 0.11577797E+00 0.10544814E+03</pdfrwt>
<totfact> 0.93121674E+05</totfact>
</mgrwt>
</event>
<event>
 6    2  0.9453093E+000  0.9734826E+02  0.7546771E-02  0.1285973E+00
         -3   -1    0    0    0  501 -0.00000000000E+00  0.00000000000E+00  0.55399650021E+02  0.55399650021E+02  0.00000000000E+00 0.  1.
         21   -1    0    0  501  502  0.00000000000E+00 -0.00000000000E+00 -0.82108077765E+02  0.82108077765E+02  0.00000000000E+00 0.  1.
         24    2    1    2    0    0  0.11565900352E+01 -0.36291394754E+02 -0.11077997725E+02  0.97976558105E+02  0.90323202283E+02 0.  0.
        -13    1    3    3    0    0  0.40472388794E+02 -0.27718250978E+02 -0.25430135376E+02  0.55254026796E+02  0.00000000000E+00 0.  1.
         14    1    3    3    0    0 -0.39315798759E+02 -0.85731437762E+01  0.14352137651E+02  0.42722531308E+02  0.00000000000E+00 0. -1.
         -4    1    1    2    0  502 -0.11565900352E+01  0.36291394754E+02 -0.15630430019E+02  0.39531169681E+02  0.00000000000E+00 0.  1.
<mgrwt>
<rscale>  1 0.97348261E+02</rscale>
<asrwt>0</asrwt>
<pdfrwt beam="1">  1       21 0.12632012E-01 0.97348261E+02</pdfrwt>
<pdfrwt beam="2">  1       -3 0.85230231E-02 0.97348261E+02</pdfrwt>
<totfact> 0.23205512E+05</totfact>
</mgrwt>
</event>
<event>
 6    2  0.9453093E+000  0.8314390E+02  0.7546771E-02  0.1320359E+00
         -1   -1    0    0    0  501 -0.00000000000E+00  0.00000000000E+00  0.36651767198E+03  0.36651767198E+03  0.00000000000E+00 0.  1.
         21   -1    0    0  501  502  0.00000000000E+00 -0.00000000000E+00 -0.96664961127E+01  0.96664961127E+01  0.00000000000E+00 0. -1.
         24    2    1    2    0    0  0.19402217220E+02 -0.67418754482E+01  0.33875608224E+03  0.34881025111E+03  0.80566799038E+02 0.  0.
        -13    1    3    3    0    0  0.12244098788E+02  0.31205730327E+02  0.24692364108E+03  0.24918868370E+03  0.00000000000E+00 0.  1.
         14    1    3    3    0    0  0.71581184324E+01 -0.37947605775E+02  0.91832441155E+02  0.99621567404E+02  0.00000000000E+00 0. -1.
         -2    1    1    2    0  502 -0.19402217220E+02  0.67418754482E+01  0.18095093629E+02  0.27373916984E+02  0.00000000000E+00 0.  1.
<mgrwt>
<rscale>  1 0.83143900E+02</rscale>
<asrwt>0</asrwt>
<pdfrwt beam="1">  1       21 0.14871535E-02 0.83143900E+02</pdfrwt>
<pdfrwt beam="2">  1       -1 0.56387323E-01 0.83143900E+02</pdfrwt>
<totfact> 0.55898949E+05</totfact>
</mgrwt>
</event>
<event>
 6    2  0.9453093E+000  0.9347291E+02  0.7546771E-02  0.1294653E+00
         21   -1    0    0  501  502  0.00000000000E+00  0.00000000000E+00  0.19545358651E+01  0.19545358651E+01  0.00000000000E+00 0. -1.
          2   -1    0    0  502    0 -0.00000000000E+00 -0.00000000000E+00 -0.16806345063E+04  0.16806345063E+04  0.00000000000E+00 0. -1.
         24    2    1    2    0    0 -0.99416098903E+01  0.18620243234E+02 -0.13875801371E+04  0.13907249264E+04  0.91058416162E+02 0.  0.
        -11    1    3    3    0    0  0.24333368577E+02  0.43919453914E+02 -0.83222256927E+03  0.83373583110E+03  0.00000000000E+00 0.  1.
         12    1    3    3    0    0 -0.34274978467E+02 -0.25299210680E+02 -0.55535756778E+03  0.55698909532E+03  0.00000000000E+00 0. -1.
          1    1    1    2  501    0  0.99416098903E+01 -0.18620243234E+02 -0.29109983338E+03  0.29186411575E+03  0.00000000000E+00 0. -1.
<mgrwt>
<rscale>  1 0.93472906E+02</rscale>
<asrwt>0</asrwt>
<pdfrwt beam="1">  1       21 0.30069852E-03 0.93472906E+02</pdfrwt>
<pdfrwt beam="2">  1        2 0.25855856E+00 0.93472906E+02</pdfrwt>
<totfact> 0.32935698E+06</totfact>
</mgrwt>
</event>
<event>
 6    2  0.9453093E+000  0.8098646E+02  0.7546771E-02  0.1326275E+00
         21   -1    0    0  501  502  0.00000000000E+00  0.00000000000E+00  0.32876946522E+02  0.32876946522E+02  0.00000000000E+00 0.  1.
         -3   -1    0    0    0  501 -0.00000000000E+00 -0.00000000000E+00 -0.19819334540E+03  0.19819334540E+03  0.00000000000E+00 0.  1.
         24    2    1    2    0    0  0.13587924709E+02 -0.16926155331E+02 -0.18488586854E+03  0.20184546387E+03  0.78023589167E+02 0.  0.
        -13    1    3    3    0    0  0.45121824831E+02 -0.14276679640E+01 -0.90578091777E+02  0.10120478260E+03  0.00000000000E+00 0.  1.
         14    1    3    3    0    0 -0.31533900121E+02 -0.15498487367E+02 -0.94307776765E+02  0.10064068127E+03  0.00000000000E+00 0. -1.
         -4    1    1    2    0  502 -0.13587924709E+02  0.16926155331E+02  0.19569469659E+02  0.29224828056E+02  0.00000000000E+00 0.  1.
<mgrwt>
<rscale>  1 0.80986461E+02</rscale>
<asrwt>0</asrwt>
<pdfrwt beam="1">  1       21 0.50579918E-02 0.80986461E+02</pdfrwt>
<pdfrwt beam="2">  1       -3 0.30491284E-01 0.80986461E+02</pdfrwt>
<totfact> 0.12169636E+05</totfact>
</mgrwt>
</event>
<event>
 6    2  0.9453093E+000  0.8526872E+02  0.7546771E-02  0.1314731E+00
         21   -1    0    0  501  502  0.00000000000E+00  0.00000000000E+00  0.30833120796E+01  0.30833120796E+01  0.00000000000E+00 0.  1.
          2   -1    0    0  502    0 -0.00000000000E+00 -0.00000000000E+00 -0.12553929168E+04  0.12553929168E+04  0.00000000000E+00 0. -1.
         24    2    1    2    0    0  0.44264111509E+01 -0.28366385074E+02 -0.11117156595E+04  0.11149809246E+04  0.80290159586E+02 0.  0.
        -13    1    3    3    0    0  0.10414076352E+02 -0.28074895546E+02 -0.13645737585E+03  0.13970421672E+03  0.00000000000E+00 0.  1.
         14    1    3    3    0    0 -0.59876652010E+01 -0.29148952820E+00 -0.97525828362E+03  0.97527670785E+03  0.00000000000E+00 0. -1.
          1    1    1    2  501    0 -0.44264111509E+01  0.28366385074E+02 -0.14059394525E+03  0.14349530431E+03  0.00000000000E+00 0. -1.
<mgrwt>
<rscale>  1 0.85268720E+02</rscale>
<asrwt>0</asrwt>
<pdfrwt beam="1">  1       21 0.47435622E-03 0.85268720E+02</pdfrwt>
<pdfrwt beam="2">  1        2 0.19313716E+00 0.85268720E+02</pdfrwt>
<totfact> 0.27027178E+06</totfact>
</mgrwt>
</event>
<event>
 6    2  0.9453093E+000  0.8839900E+02  0.7546771E-02  0.1306776E+00
         21   -1    0    0  501  502  0.00000000000E+00  0.00000000000E+00  0.31288648583E+01  0.31288648583E+01  0.00000000000E+00 0.  1.
          2   -1    0    0  502    0 -0.00000000000E+00 -0.00000000000E+00 -0.18902956512E+04  0.18902956512E+04  0.00000000000E+00 0. -1.
         24    2    1    2    0    0  0.24914310501E+02 -0.30063782758E+02 -0.69243620582E+03  0.69805607330E+03  0.79308438665E+02 0.  0.
        -11    1    3    3    0    0  0.25086668032E+02 -0.55626205543E+02 -0.41779450450E+03  0.42222726540E+03  0.00000000000E+00 0.  1.
         12    1    3    3    0    0 -0.17235753057E+00  0.25562422785E+02 -0.27464170132E+03  0.27582880791E+03  0.00000000000E+00 0. -1.
          1    1    1    2  501    0 -0.24914310501E+02  0.30063782758E+02 -0.11947305805E+04  0.11953684427E+04  0.00000000000E+00 0. -1.
<mgrwt>
<rscale>  1 0.88398995E+02</rscale>
<asrwt>0</asrwt>
<pdfrwt beam="1">  1       21 0.48136289E-03 0.88398995E+02</pdfrwt>
<pdfrwt beam="2">  1        2 0.29081528E+00 0.88398995E+02</pdfrwt>
<totfact> 0.12583041E+06</totfact>
</mgrwt>
</event>
<event>
 6    2  0.9453093E+000  0.1708129E+03  0.7546771E-02  0.1177003E+00
          4   -1    0    0  502    0 -0.00000000000E+00  0.00000000000E+00  0.71858474913E+03  0.71858474913E+03  0.00000000000E+00 0. -1.
         21   -1    0    0  501  502  0.00000000000E+00 -0.00000000000E+00 -0.40206859661E+02  0.40206859661E+02  0.00000000000E+00 0. -1.
         24    2    1    2    0    0 -0.14437374966E+03 -0.42476047031E+02  0.48205878032E+03  0.51142712715E+03  0.80802503268E+02 0.  0.
        -11    1    3    3    0    0 -0.76965225555E+01  0.48012551680E+01  0.10319787950E+01  0.91298132987E+01  0.00000000000E+00 0.  1.
         12    1    3    3    0    0 -0.13667722711E+03 -0.47277302199E+02  0.48102680153E+03  0.50229731385E+03  0.00000000000E+00 0. -1.
          3    1    1    2  501    0  0.14437374966E+03  0.42476047031E+02  0.19631910915E+03  0.24736448165E+03  0.00000000000E+00 0. -1.
<mgrwt>
<rscale>  1 0.17081288E+03</rscale>
<asrwt>0</asrwt>
<pdfrwt beam="1">  1       21 0.61856713E-02 0.17081288E+03</pdfrwt>
<pdfrwt beam="2">  1        4 0.11055149E+00 0.17081288E+03</pdfrwt>
<totfact> 0.52748522E+03</totfact>
</mgrwt>
</event>
<event>
 6    2  0.9453093E+000  0.1148963E+03  0.7546771E-02  0.1251762E+00
         21   -1    0    0  501  502  0.00000000000E+00  0.00000000000E+00  0.23479196465E+02  0.23479196465E+02  0.00000000000E+00 0.  1.
         -1   -1    0    0    0  501 -0.00000000000E+00 -0.00000000000E+00 -0.41309076642E+03  0.41309076642E+03  0.00000000000E+00 0.  1.
         24    2    1    2    0    0 -0.77354042258E+02  0.24003465893E+02 -0.25062423727E+03  0.27570575656E+03  0.81494427213E+02 0.  0.
        -11    1    3    3    0    0 -0.81228552913E+02 -0.40929784969E+01 -0.21686062933E+03  0.23161036858E+03  0.00000000000E+00 0.  1.
         12    1    3    3    0    0  0.38745106553E+01  0.28096444390E+02 -0.33763607942E+02  0.44095387983E+02  0.00000000000E+00 0. -1.
         -2    1    1    2    0  502  0.77354042258E+02 -0.24003465893E+02 -0.13898733268E+03  0.16086420632E+03  0.00000000000E+00 0.  1.
<mgrwt>
<rscale>  1 0.11489628E+03</rscale>
<asrwt>0</asrwt>
<pdfrwt beam="1">  1       21 0.36121841E-02 0.11489628E+03</pdfrwt>
<pdfrwt beam="2">  1       -1 0.63552425E-01 0.11489628E+03</pdfrwt>
<totfact> 0.10958037E+05</totfact>
</mgrwt>
</event>
<event>
 6    2  0.9453093E+000  0.8672449E+02  0.7546771E-02  0.1310983E+00
         -3   -1    0    0    0  501 -0.00000000000E+00  0.00000000000E+00  0.27924339278E+01  0.27924339278E+01  0.00000000000E+00 0.  1.
         21   -1    0    0  501  502  0.00000000000E+00 -0.00000000000E+00 -0.11569634275E+04  0.11569634275E+04  0.00000000000E+00 0. -1.
         24    2    1    2    0    0 -0.47887878870E+01  0.26008089424E+02 -0.83522282318E+03  0.83971322582E+03  0.82594092194E+02 0.  0.
        -11    1    3    3    0    0 -0.12074434514E+02  0.33408964739E+02 -0.14078272921E+03  0.14519548112E+03  0.00000000000E+00 0.  1.
         12    1    3    3    0    0  0.72856466273E+01 -0.74008753146E+01 -0.69444009397E+03  0.69451774470E+03  0.00000000000E+00 0. -1.
         -4    1    1    2    0  502  0.47887878870E+01 -0.26008089424E+02 -0.31894817040E+03  0.32004263560E+03  0.00000000000E+00 0.  1.
<mgrwt>
<rscale>  1 0.86724491E+02</rscale>
<asrwt>0</asrwt>
<pdfrwt beam="1">  1       21 0.17799461E+00 0.86724491E+02</pdfrwt>
<pdfrwt beam="2">  1       -3 0.42960464E-03 0.86724491E+02</pdfrwt>
<totfact> 0.84827504E+04</totfact>
</mgrwt>
</event>
<event>
 6    2  0.9453093E+000  0.8165340E+02  0.7546771E-02  0.1324424E+00
          2   -1    0    0  502    0 -0.00000000000E+00  0.00000000000E+00  0.22469747764E+04  0.22469747764E+04  0.00000000000E+00 0. -1.
         21   -1    0    0  501  502  0.00000000000E+00 -0.00000000000E+00 -0.14377982888E+01  0.14377982888E+01  0.00000000000E+00 0. -1.
         24    2    1    2    0    0  0.10742304529E+02 -0.17212810786E+02  0.20850324174E+04  0.20866306475E+04  0.79092347534E+02 0.  0.
        -13    1    3    3    0    0  0.18834813147E+02  0.26186907333E+02  0.12645606300E+04  0.12649719725E+04  0.00000000000E+00 0.  1.
         14    1    3    3    0    0 -0.80925086177E+01 -0.43399718120E+02  0.82047178735E+03  0.82165867492E+03  0.00000000000E+00 0. -1.
          1    1    1    2  501    0 -0.10742304529E+02  0.17212810786E+02  0.16050456070E+03  0.16178192720E+03  0.00000000000E+00 0. -1.
<mgrwt>
<rscale>  1 0.81653398E+02</rscale>
<asrwt>0</asrwt>
<pdfrwt beam="1">  1       21 0.22120154E-03 0.81653398E+02</pdfrwt>
<pdfrwt beam="2">  1        2 0.34568562E+00 0.81653398E+02</pdfrwt>
<totfact> 0.26875659E+06</totfact>
</mgrwt>
</event>
<event>
 6    2  0.9453093E+000  0.8343462E+02  0.7546771E-02  0.1319578E+00
         21   -1    0    0  501  502  0.00000000000E+00  0.00000000000E+00  0.75113327032E+02  0.75113327032E+02  0.00000000000E+00 0.  1.
          4   -1    0    0  502    0 -0.00000000000E+00 -0.00000000000E+00 -0.47747999627E+02  0.47747999627E+02  0.00000000000E+00 0. -1.
         24    2    1    2    0    0  0.23519759460E+02  0.57872015306E+01 -0.36432469089E+01  0.83514122596E+02  0.79841496970E+02 0.  0.
        -11    1    3    3    0    0 -0.14073727728E+02  0.88376164969E+01  0.29136904529E+02  0.33542994545E+02  0.00000000000E+00 0.  1.
         12    1    3    3    0    0  0.37593487188E+02 -0.30504149662E+01 -0.32780151438E+02  0.49971128051E+02  0.00000000000E+00 0. -1.
          3    1    1    2  501    0 -0.23519759460E+02 -0.57872015306E+01  0.31008574314E+02  0.39347204063E+02  0.00000000000E+00 0. -1.
<mgrwt>
<rscale>  1 0.83434618E+02</rscale>
<asrwt>0</asrwt>
<pdfrwt beam="1">  1       21 0.11555896E-01 0.83434618E+02</pdfrwt>
<pdfrwt beam="2">  1        4 0.73458461E-02 0.83434618E+02</pdfrwt>
<totfact> 0.29295943E+05</totfact>
</mgrwt>
</event>
<event>
 6    2  0.9453093E+000  0.1118155E+03  0.7546771E-02  0.1257244E+00
          2   -1    0    0  502    0 -0.00000000000E+00  0.00000000000E+00  0.13044255960E+04  0.13044255960E+04  0.00000000000E+00 0. -1.
         21   -1    0    0  501  502  0.00000000000E+00 -0.00000000000E+00 -0.83793702936E+01  0.83793702936E+01  0.00000000000E+00 0. -1.
         24    2    1    2    0    0 -0.68037091003E+01 -0.77783011233E+02  0.10141394453E+04  0.10202850180E+04  0.80038841851E+02 0.  0.
        -11    1    3    3    0    0 -0.54856614008E+01  0.82300530752E+01  0.18870827839E+02  0.21305736269E+02  0.00000000000E+00 0.  1.
         12    1    3    3    0    0 -0.13180476994E+01 -0.86013064308E+02  0.99526861746E+03  0.99897928175E+03  0.00000000000E+00 0. -1.
          1    1    1    2  501    0  0.68037091003E+01  0.77783011233E+02  0.28190678040E+03  0.29251994826E+03  0.00000000000E+00 0. -1.
<mgrwt>
<rscale>  1 0.11181549E+03</rscale>
<asrwt>0</asrwt>
<pdfrwt beam="1">  1       21 0.12891349E-02 0.11181549E+03</pdfrwt>
<pdfrwt beam="2">  1        2 0.20068070E+00 0.11181549E+03</pdfrwt>
<totfact> 0.54818969E+05</totfact>
</mgrwt>
</event>
<event>
 6    2  0.9453093E+000  0.9952326E+02  0.7546771E-02  0.1281302E+00
          2   -1    0    0  502    0 -0.00000000000E+00  0.00000000000E+00  0.32159885224E+03  0.32159885224E+03  0.00000000000E+00 0. -1.
         21   -1    0    0  501  502  0.00000000000E+00 -0.00000000000E+00 -0.20430698282E+02  0.20430698282E+02  0.00000000000E+00 0. -1.
         24    2    1    2    0    0 -0.78954658610E+01  0.57770707818E+02  0.15007498629E+03  0.18007604368E+03  0.80654119140E+02 0.  0.
        -11    1    3    3    0    0 -0.29928502365E+02 -0.50226039748E+00  0.20432753077E+02  0.36241756547E+02  0.00000000000E+00 0.  1.
         12    1    3    3    0    0  0.22033036504E+02  0.58272968215E+02  0.12964223322E+03  0.14383428714E+03  0.00000000000E+00 0. -1.
          1    1    1    2  501    0  0.78954658610E+01 -0.57770707818E+02  0.15109316766E+03  0.16195350684E+03  0.00000000000E+00 0. -1.
<mgrwt>
<rscale>  1 0.99523264E+02</rscale>
<asrwt>0</asrwt>
<pdfrwt beam="1">  1       21 0.31431846E-02 0.99523264E+02</pdfrwt>
<pdfrwt beam="2">  1        2 0.49476743E-01 0.99523264E+02</pdfrwt>
<totfact> 0.70138942E+05</totfact>
</mgrwt>
</event>
<event>
 6    2  0.9453093E+000  0.8460353E+02  0.7546771E-02  0.1316473E+00
          2   -1    0    0  502    0 -0.00000000000E+00  0.00000000000E+00  0.24814863495E+04  0.24814863495E+04  0.00000000000E+00 0. -1.
         21   -1    0    0  501  502  0.00000000000E+00 -0.00000000000E+00 -0.11588437225E+01  0.11588437225E+01  0.00000000000E+00 0.  1.
         24    2    1    2    0    0 -0.99026868995E+01  0.19544324463E+02  0.18422712473E+04  0.18442128689E+04  0.81717275790E+02 0.  0.
        -13    1    3    3    0    0 -0.12756611251E+02  0.49880063682E+02  0.92104948389E+03  0.92248734607E+03  0.00000000000E+00 0.  1.
         14    1    3    3    0    0  0.28539243510E+01 -0.30335739219E+02  0.92122176345E+03  0.92172552282E+03  0.00000000000E+00 0. -1.
          1    1    1    2  501    0  0.99026868995E+01 -0.19544324463E+02  0.63805625848E+03  0.63843232438E+03  0.00000000000E+00 0. -1.
<mgrwt>
<rscale>  1 0.84603528E+02</rscale>
<asrwt>0</asrwt>
<pdfrwt beam="1">  1       21 0.17828564E-03 0.84603528E+02</pdfrwt>
<pdfrwt beam="2">  1        2 0.38176288E+00 0.84603528E+02</pdfrwt>
<totfact> 0.28165701E+06</totfact>
</mgrwt>
</event>
<event>
 6    2  0.9453093E+000  0.8660088E+02  0.7546771E-02  0.1311298E+00
         21   -1    0    0  501  502  0.00000000000E+00  0.00000000000E+00  0.16429555895E+02  0.16429555895E+02  0.00000000000E+00 0.  1.
          2   -1    0    0  502    0 -0.00000000000E+00 -0.00000000000E+00 -0.24101833709E+03  0.24101833709E+03  0.00000000000E+00 0. -1.
         24    2    1    2    0    0 -0.31087719001E+02 -0.83738255171E+01 -0.19643980380E+03  0.21468187663E+03  0.80393683897E+02 0.  0.
        -13    1    3    3    0    0  0.25434281525E+02 -0.81214364596E-01 -0.33798792798E+02  0.42299736017E+02  0.00000000000E+00 0.  1.
         14    1    3    3    0    0 -0.56522000526E+02 -0.82926111525E+01 -0.16264101100E+03  0.17238214061E+03  0.00000000000E+00 0. -1.
          1    1    1    2  501    0  0.31087719001E+02  0.83738255171E+01 -0.28148977397E+02  0.42766016357E+02  0.00000000000E+00 0. -1.
<mgrwt>
<rscale>  1 0.86600875E+02</rscale>
<asrwt>0</asrwt>
<pdfrwt beam="1">  1       21 0.25276239E-02 0.86600875E+02</pdfrwt>
<pdfrwt beam="2">  1        2 0.37079745E-01 0.86600875E+02</pdfrwt>
<totfact> 0.13325641E+06</totfact>
</mgrwt>
</event>
<event>
 6    2  0.9453093E+000  0.8458423E+02  0.7546771E-02  0.1316523E+00
         21   -1    0    0  501  502  0.00000000000E+00  0.00000000000E+00  0.24454539868E+02  0.24454539868E+02  0.00000000000E+00 0. -1.
          4   -1    0    0  502    0 -0.00000000000E+00 -0.00000000000E+00 -0.17347444869E+03  0.17347444869E+03  0.00000000000E+00 0. -1.
         24    2    1    2    0    0 -0.22268919812E+02  0.10718106598E+02 -0.15106211148E+03  0.17313073881E+03  0.80893192526E+02 0.  0.
        -11    1    3    3    0    0  0.12579696092E+02 -0.16560370356E+02 -0.11257847121E+03  0.11448321624E+03  0.00000000000E+00 0.  1.
         12    1    3    3    0    0 -0.34848615904E+02  0.27278476955E+02 -0.38483640272E+02  0.58647522573E+02  0.00000000000E+00 0. -1.
          3    1    1    2  501    0  0.22268919812E+02 -0.10718106598E+02  0.20422026632E+01  0.24798249744E+02  0.00000000000E+00 0. -1.
<mgrwt>
<rscale>  1 0.84584225E+02</rscale>
<asrwt>0</asrwt>
<pdfrwt beam="1">  1       21 0.37622368E-02 0.84584225E+02</pdfrwt>
<pdfrwt beam="2">  1        4 0.26688378E-01 0.84584225E+02</pdfrwt>
<totfact> 0.21158254E+05</totfact>
</mgrwt>
</event>
<event>
 6    2  0.9453093E+000  0.8288530E+02  0.7546771E-02  0.1321057E+00
         21   -1    0    0  501  502  0.00000000000E+00  0.00000000000E+00  0.63066558548E+01  0.63066558548E+01  0.00000000000E+00 0. -1.
          2   -1    0    0  502    0 -0.00000000000E+00 -0.00000000000E+00 -0.16034211587E+04  0.16034211587E+04  0.00000000000E+00 0. -1.
         24    2    1    2    0    0 -0.14705100439E+02  0.15117308198E+02 -0.15810386731E+04  0.15832097964E+04  0.80157348629E+02 0.  0.
        -11    1    3    3    0    0 -0.10379689002E+02  0.30488600209E+02 -0.24886126004E+03  0.25093668412E+03  0.00000000000E+00 0.  1.
         12    1    3    3    0    0 -0.43254114371E+01 -0.15371292011E+02 -0.13321774131E+04  0.13322731123E+04  0.00000000000E+00 0. -1.
          1    1    1    2  501    0  0.14705100439E+02 -0.15117308198E+02 -0.16075829760E+02  0.26518018187E+02  0.00000000000E+00 0. -1.
<mgrwt>
<rscale>  1 0.82885303E+02</rscale>
<asrwt>0</asrwt>
<pdfrwt beam="1">  1       21 0.97025290E-03 0.82885303E+02</pdfrwt>
<pdfrwt beam="2">  1        2 0.24668065E+00 0.82885303E+02</pdfrwt>
<totfact> 0.59164789E+05</totfact>
</mgrwt>
</event>
<event>
 6    2  0.9453093E+000  0.9790997E+02  0.7546771E-02  0.1284753E+00
         21   -1    0    0  501  502  0.00000000000E+00  0.00000000000E+00  0.25423101619E+03  0.25423101619E+03  0.00000000000E+00 0. -1.
          4   -1    0    0  502    0 -0.00000000000E+00 -0.00000000000E+00 -0.51664569768E+02  0.51664569768E+02  0.00000000000E+00 0. -1.
         24    2    1    2    0    0  0.31153489843E+02  0.47269009504E+02  0.24659663670E+01  0.97941020470E+02  0.79884061687E+02 0.  0.
        -13    1    3    3    0    0 -0.55138705892E+01  0.92201210910E+01  0.34509443479E+02  0.36142981214E+02  0.00000000000E+00 0.  1.
         14    1    3    3    0    0  0.36667360432E+02  0.38048888413E+02 -0.32043477112E+02  0.61798039256E+02  0.00000000000E+00 0. -1.
          3    1    1    2  501    0 -0.31153489843E+02 -0.47269009504E+02  0.20010048006E+03  0.20795456549E+03  0.00000000000E+00 0. -1.
<mgrwt>
<rscale>  1 0.97909971E+02</rscale>
<asrwt>0</asrwt>
<pdfrwt beam="1">  1       21 0.39112463E-01 0.97909971E+02</pdfrwt>
<pdfrwt beam="2">  1        4 0.79483955E-02 0.97909971E+02</pdfrwt>
<totfact> 0.27738272E+04</totfact>
</mgrwt>
</event>
<event>
 6    2  0.9453093E+000  0.1603153E+03  0.7546771E-02  0.1188341E+00
          2   -1    0    0  502    0 -0.00000000000E+00  0.00000000000E+00  0.23954098089E+04  0.23954098089E+04  0.00000000000E+00 0. -1.
         21   -1    0    0  501  502  0.00000000000E+00 -0.00000000000E+00 -0.16896208808E+02  0.16896208808E+02  0.00000000000E+00 0. -1.
         24    2    1    2    0    0 -0.10464538307E+03  0.88751698505E+02  0.20503929216E+04  0.20566507073E+04  0.82906444966E+02 0.  0.
        -13    1    3    3    0    0 -0.29194085759E+02  0.22301633437E+02  0.18858499926E+03  0.19213005866E+03  0.00000000000E+00 0.  1.
         14    1    3    3    0    0 -0.75451297315E+02  0.66450065068E+02  0.18618079223E+04  0.18645206486E+04  0.00000000000E+00 0. -1.
          1    1    1    2  501    0  0.10464538307E+03 -0.88751698505E+02  0.32812067856E+03  0.35565531050E+03  0.00000000000E+00 0. -1.
<mgrwt>
<rscale>  1 0.16031531E+03</rscale>
<asrwt>0</asrwt>
<pdfrwt beam="1">  1       21 0.25994186E-02 0.16031531E+03</pdfrwt>
<pdfrwt beam="2">  1        2 0.36852432E+00 0.16031531E+03</pdfrwt>
<totfact> 0.48311567E+04</totfact>
</mgrwt>
</event>
<event>
 6    2  0.9453093E+000  0.8200741E+02  0.7546771E-02  0.1323449E+00
         21   -1    0    0  501  502  0.00000000000E+00  0.00000000000E+00  0.14733491486E+01  0.14733491486E+01  0.00000000000E+00 0.  1.
          2   -1    0    0  502    0 -0.00000000000E+00 -0.00000000000E+00 -0.20573210204E+04  0.20573210204E+04  0.00000000000E+00 0. -1.
         24    2    1    2    0    0  0.17763500620E+02  0.14458787244E+02 -0.12898498029E+04  0.12924541495E+04  0.78743991142E+02 0.  0.
        -11    1    3    3    0    0 -0.92927326092E+00  0.20968368863E+02 -0.89007886592E+02  0.91449111079E+02  0.00000000000E+00 0.  1.
         12    1    3    3    0    0  0.18692773881E+02 -0.65095816196E+01 -0.12008419163E+04  0.12010050384E+04  0.00000000000E+00 0. -1.
          1    1    1    2  501    0 -0.17763500620E+02 -0.14458787244E+02 -0.76599786841E+03  0.76634022006E+03  0.00000000000E+00 0. -1.
<mgrwt>
<rscale>  1 0.82007406E+02</rscale>
<asrwt>0</asrwt>
<pdfrwt beam="1">  1       21 0.22666884E-03 0.82007406E+02</pdfrwt>
<pdfrwt beam="2">  1        2 0.31651129E+00 0.82007406E+02</pdfrwt>
<totfact> 0.32305564E+06</totfact>
</mgrwt>
</event>
<event>
 6    2  0.9453093E+000  0.9795512E+02  0.7546771E-02  0.1284656E+00
         21   -1    0    0  501  502  0.00000000000E+00  0.00000000000E+00  0.17450675669E+02  0.17450675669E+02  0.00000000000E+00 0. -1.
          2   -1    0    0  502    0 -0.00000000000E+00 -0.00000000000E+00 -0.66611908798E+03  0.66611908798E+03  0.00000000000E+00 0. -1.
         24    2    1    2    0    0  0.31265624595E+02  0.64358780746E+01 -0.64388357163E+03  0.65129199253E+03  0.92608022916E+02 0.  0.
        -13    1    3    3    0    0 -0.30773058148E+02  0.14188070761E+02 -0.28445639073E+03  0.28646766080E+03  0.00000000000E+00 0.  1.
         14    1    3    3    0    0  0.62038682743E+02 -0.77521926865E+01 -0.35942718090E+03  0.36482433173E+03  0.00000000000E+00 0. -1.
          1    1    1    2  501    0 -0.31265624595E+02 -0.64358780746E+01 -0.47848406747E+01  0.32277771116E+02  0.00000000000E+00 0. -1.
<mgrwt>
<rscale>  1 0.97955121E+02</rscale>
<asrwt>0</asrwt>
<pdfrwt beam="1">  1       21 0.26847192E-02 0.97955121E+02</pdfrwt>
<pdfrwt beam="2">  1        2 0.10247986E+00 0.97955121E+02</pdfrwt>
<totfact> 0.41184650E+05</totfact>
</mgrwt>
</event>
<event>
 6    2  0.9453093E+000  0.8867123E+02  0.7546771E-02  0.1306102E+00
         21   -1    0    0  501  502  0.00000000000E+00  0.00000000000E+00  0.16026628011E+02  0.16026628011E+02  0.00000000000E+00 0. -1.
          2   -1    0    0  502    0 -0.00000000000E+00 -0.00000000000E+00 -0.43039305470E+03  0.43039305470E+03  0.00000000000E+00 0. -1.
         24    2    1    2    0    0  0.36982328370E+02 -0.10234474721E+02 -0.39221317547E+03  0.40211162899E+03  0.79938414269E+02 0.  0.
        -13    1    3    3    0    0  0.23917441750E+02  0.13549470997E+02 -0.38213380758E+02  0.47073290231E+02  0.00000000000E+00 0.  1.
         14    1    3    3    0    0  0.13064886620E+02 -0.23783945718E+02 -0.35399979471E+03  0.35503833876E+03  0.00000000000E+00 0. -1.
          1    1    1    2  501    0 -0.36982328370E+02  0.10234474721E+02 -0.22153251216E+02  0.44308053714E+02  0.00000000000E+00 0. -1.
<mgrwt>
<rscale>  1 0.88671231E+02</rscale>
<asrwt>0</asrwt>
<pdfrwt beam="1">  1       21 0.24656356E-02 0.88671231E+02</pdfrwt>
<pdfrwt beam="2">  1        2 0.66214302E-01 0.88671231E+02</pdfrwt>
<totfact> 0.75762465E+05</totfact>
</mgrwt>
</event>
<event>
 6    2  0.9453093E+000  0.8248014E+02  0.7546771E-02  0.1322157E+00
          2   -1    0    0  502    0 -0.00000000000E+00  0.00000000000E+00  0.46172898578E+04  0.46172898578E+04  0.00000000000E+00 0. -1.
         21   -1    0    0  501  502  0.00000000000E+00 -0.00000000000E+00 -0.81383961241E+00  0.81383961241E+00  0.00000000000E+00 0. -1.
         24    2    1    2    0    0  0.25525432285E+02 -0.39785497443E+01  0.42098352971E+04  0.42106432054E+04  0.78330054471E+02 0.  0.
        -11    1    3    3    0    0 -0.22121991309E+02 -0.36618447492E+01  0.50066563453E+03  0.50116750613E+03  0.00000000000E+00 0.  1.
         12    1    3    3    0    0  0.47647423594E+02 -0.31670499506E+00  0.37091696626E+04  0.37094756993E+04  0.00000000000E+00 0. -1.
          1    1    1    2  501    0 -0.25525432285E+02  0.39785497443E+01  0.40664072101E+03  0.40746049199E+03  0.00000000000E+00 0. -1.
<mgrwt>
<rscale>  1 0.82480143E+02</rscale>
<asrwt>0</asrwt>
<pdfrwt beam="1">  1       21 0.12520979E-03 0.82480143E+02</pdfrwt>
<pdfrwt beam="2">  1        2 0.71033131E+00 0.82480143E+02</pdfrwt>
<totfact> 0.17489343E+05</totfact>
</mgrwt>
</event>
<event>
 6    2  0.9453093E+000  0.8343676E+02  0.7546771E-02  0.1319572E+00
         21   -1    0    0  501  502  0.00000000000E+00  0.00000000000E+00  0.22872325243E+03  0.22872325243E+03  0.00000000000E+00 0. -1.
         -3   -1    0    0    0  501 -0.00000000000E+00 -0.00000000000E+00 -0.15103621079E+02  0.15103621079E+02  0.00000000000E+00 0.  1.
         24    2    1    2    0    0  0.23343924516E+01  0.19883977066E+02  0.10878688221E+03  0.13709952358E+03  0.80999207964E+02 0.  0.
        -13    1    3    3    0    0  0.31191615623E+01  0.58062344657E+00 -0.13208343144E+02  0.13584057606E+02  0.00000000000E+00 0.  1.
         14    1    3    3    0    0 -0.78476911070E+00  0.19303353620E+02  0.12199522536E+03  0.12351546597E+03  0.00000000000E+00 0. -1.
         -4    1    1    2    0  502 -0.23343924516E+01 -0.19883977066E+02  0.10483274913E+03  0.10672734993E+03  0.00000000000E+00 0.  1.
<mgrwt>
<rscale>  1 0.83436764E+02</rscale>
<asrwt>0</asrwt>
<pdfrwt beam="1">  1       21 0.35188190E-01 0.83436764E+02</pdfrwt>
<pdfrwt beam="2">  1       -3 0.23236342E-02 0.83436764E+02</pdfrwt>
<totfact> 0.26059809E+05</totfact>
</mgrwt>
</event>
<event>
 6    2  0.9453093E+000  0.8471044E+02  0.7546771E-02  0.1316192E+00
          2   -1    0    0  502    0 -0.00000000000E+00  0.00000000000E+00  0.75455901828E+03  0.75455901828E+03  0.00000000000E+00 0. -1.
         21   -1    0    0  501  502  0.00000000000E+00 -0.00000000000E+00 -0.40031935364E+01  0.40031935364E+01  0.00000000000E+00 0.  1.
         24    2    1    2    0    0 -0.23064309300E+02  0.22485433289E+01  0.52125803259E+03  0.52809638832E+03  0.81479080215E+02 0.  0.
        -13    1    3    3    0    0 -0.34114320276E+02  0.35685968150E+02  0.31828609309E+03  0.32209208657E+03  0.00000000000E+00 0.  1.
         14    1    3    3    0    0  0.11050010977E+02 -0.33437424821E+02  0.20297193949E+03  0.20600430176E+03  0.00000000000E+00 0. -1.
          1    1    1    2  501    0  0.23064309300E+02 -0.22485433289E+01  0.22929779216E+03  0.23046582349E+03  0.00000000000E+00 0. -1.
<mgrwt>
<rscale>  1 0.84710441E+02</rscale>
<asrwt>0</asrwt>
<pdfrwt beam="1">  1       21 0.61587653E-03 0.84710441E+02</pdfrwt>
<pdfrwt beam="2">  1        2 0.11608589E+00 0.84710441E+02</pdfrwt>
<totfact> 0.35800188E+06</totfact>
</mgrwt>
</event>
<event>
 6    2  0.9453093E+000  0.8608996E+02  0.7546771E-02  0.1312607E+00
         21   -1    0    0  501  502  0.00000000000E+00  0.00000000000E+00  0.29160294264E+03  0.29160294264E+03  0.00000000000E+00 0.  1.
          4   -1    0    0  502    0 -0.00000000000E+00 -0.00000000000E+00 -0.14494405740E+02  0.14494405740E+02  0.00000000000E+00 0. -1.
         24    2    1    2    0    0 -0.24027791060E+02 -0.17067629652E+02  0.12902540054E+03  0.15510975286E+03  0.80887840397E+02 0.  0.
        -11    1    3    3    0    0 -0.14356854508E+02 -0.23795071268E+02  0.13770220038E+03  0.14047854170E+03  0.00000000000E+00 0.  1.
         12    1    3    3    0    0 -0.96709365522E+01  0.67274416154E+01 -0.86767998460E+01  0.14631211162E+02  0.00000000000E+00 0. -1.
          3    1    1    2  501    0  0.24027791060E+02  0.17067629652E+02  0.14808313636E+03  0.15098759551E+03  0.00000000000E+00 0. -1.
<mgrwt>
<rscale>  1 0.86089961E+02</rscale>
<asrwt>0</asrwt>
<pdfrwt beam="1">  1       21 0.44861987E-01 0.86089961E+02</pdfrwt>
<pdfrwt beam="2">  1        4 0.22299088E-02 0.86089961E+02</pdfrwt>
<totfact> 0.15483283E+05</totfact>
</mgrwt>
</event>
<event>
 6    2  0.9453093E+000  0.1113984E+03  0.7546771E-02  0.1258002E+00
          2   -1    0    0  502    0 -0.00000000000E+00  0.00000000000E+00  0.24305089168E+04  0.24305089168E+04  0.00000000000E+00 0. -1.
         21   -1    0    0  501  502  0.00000000000E+00 -0.00000000000E+00 -0.43169806426E+01  0.43169806426E+01  0.00000000000E+00 0. -1.
         24    2    1    2    0    0 -0.19183656270E+02  0.81372529585E+02  0.17395142798E+04  0.17430776015E+04  0.73621286895E+02 0.  0.
        -13    1    3    3    0    0  0.25787742989E+02  0.40135771647E+02  0.57979992687E+03  0.58175926555E+03  0.00000000000E+00 0.  1.
         14    1    3    3    0    0 -0.44971399259E+02  0.41236757938E+02  0.11597143529E+04  0.11613183359E+04  0.00000000000E+00 0. -1.
          1    1    1    2  501    0  0.19183656270E+02 -0.81372529585E+02  0.68667765639E+03  0.69174829600E+03  0.00000000000E+00 0. -1.
<mgrwt>
<rscale>  1 0.11139836E+03</rscale>
<asrwt>0</asrwt>
<pdfrwt beam="1">  1       21 0.66415281E-03 0.11139836E+03</pdfrwt>
<pdfrwt beam="2">  1        2 0.37392336E+00 0.11139836E+03</pdfrwt>
<totfact> 0.40921513E+05</totfact>
</mgrwt>
</event>
<event>
 6    2  0.9453093E+000  0.8969545E+02  0.7546771E-02  0.1303591E+00
         21   -1    0    0  501  502  0.00000000000E+00  0.00000000000E+00  0.12164613319E+02  0.12164613319E+02  0.00000000000E+00 0. -1.
          2   -1    0    0  502    0 -0.00000000000E+00 -0.00000000000E+00 -0.99119548815E+03  0.99119548815E+03  0.00000000000E+00 0. -1.
         24    2    1    2    0    0  0.19260795439E+02 -0.32403441260E+02 -0.95378083902E+03  0.95798912446E+03  0.81389879334E+02 0.  0.
        -13    1    3    3    0    0  0.87935307471E+01  0.26983334821E+02 -0.24199198080E+03  0.24365045724E+03  0.00000000000E+00 0.  1.
         14    1    3    3    0    0  0.10467264692E+02 -0.59386776081E+02 -0.71178885821E+03  0.71433866722E+03  0.00000000000E+00 0. -1.
          1    1    1    2  501    0 -0.19260795439E+02  0.32403441260E+02 -0.25250035816E+02  0.45370977014E+02  0.00000000000E+00 0. -1.
<mgrwt>
<rscale>  1 0.89695450E+02</rscale>
<asrwt>0</asrwt>
<pdfrwt beam="1">  1       21 0.18714791E-02 0.89695450E+02</pdfrwt>
<pdfrwt beam="2">  1        2 0.15249161E+00 0.89695450E+02</pdfrwt>
<totfact> 0.44771439E+05</totfact>
</mgrwt>
</event>
<event>
 6    2  0.9453093E+000  0.8811673E+02  0.7546771E-02  0.1307477E+00
         21   -1    0    0  501  502  0.00000000000E+00  0.00000000000E+00  0.17484538446E+02  0.17484538446E+02  0.00000000000E+00 0. -1.
          2   -1    0    0  502    0 -0.00000000000E+00 -0.00000000000E+00 -0.31115722668E+03  0.31115722668E+03  0.00000000000E+00 0. -1.
         24    2    1    2    0    0  0.18911283953E+02  0.31550361866E+02 -0.27206940684E+03  0.28598307596E+03  0.80071815271E+02 0.  0.
        -13    1    3    3    0    0  0.26056224569E+01  0.15121234751E+02 -0.26501039868E+01  0.15571257494E+02  0.00000000000E+00 0.  1.
         14    1    3    3    0    0  0.16305661496E+02  0.16429127115E+02 -0.26941930285E+03  0.27041181846E+03  0.00000000000E+00 0. -1.
          1    1    1    2  501    0 -0.18911283953E+02 -0.31550361866E+02 -0.21603281395E+02  0.42658689170E+02  0.00000000000E+00 0. -1.
<mgrwt>
<rscale>  1 0.88116727E+02</rscale>
<asrwt>0</asrwt>
<pdfrwt beam="1">  1       21 0.26899288E-02 0.88116727E+02</pdfrwt>
<pdfrwt beam="2">  1        2 0.47870345E-01 0.88116727E+02</pdfrwt>
<totfact> 0.92439657E+05</totfact>
</mgrwt>
</event>
<event>
 6    2  0.9453093E+000  0.8543013E+02  0.7546771E-02  0.1314312E+00
         -3   -1    0    0    0  501 -0.00000000000E+00  0.00000000000E+00  0.21224605492E+02  0.21224605492E+02  0.00000000000E+00 0.  1.
         21   -1    0    0  501  502  0.00000000000E+00 -0.00000000000E+00 -0.21385518970E+03  0.21385518970E+03  0.00000000000E+00 0.  1.
         24    2    1    2    0    0 -0.26904000345E+00 -0.32063941881E+02 -0.76743585356E+02  0.11483851586E+03  0.79184203483E+02 0.  0.
        -11    1    3    3    0    0  0.62544187807E+01 -0.52696378670E+02 -0.24814938548E+02  0.58581628983E+02  0.00000000000E+00 0.  1.
         12    1    3    3    0    0 -0.65234587842E+01  0.20632436788E+02 -0.51928646807E+02  0.56256886881E+02  0.00000000000E+00 0. -1.
         -4    1    1    2    0  502  0.26904000345E+00  0.32063941881E+02 -0.11588699886E+03  0.12024127933E+03  0.00000000000E+00 0.  1.
<mgrwt>
<rscale>  1 0.85430128E+02</rscale>
<asrwt>0</asrwt>
<pdfrwt beam="1">  1       21 0.32900797E-01 0.85430128E+02</pdfrwt>
<pdfrwt beam="2">  1       -3 0.32653241E-02 0.85430128E+02</pdfrwt>
<totfact> 0.17732834E+05</totfact>
</mgrwt>
</event>
<event>
 6    2  0.9453093E+000  0.9225612E+02  0.7546771E-02  0.1297478E+00
         21   -1    0    0  501  502  0.00000000000E+00  0.00000000000E+00  0.13328375264E+03  0.13328375264E+03  0.00000000000E+00 0. -1.
          4   -1    0    0  502    0 -0.00000000000E+00 -0.00000000000E+00 -0.15067772229E+03  0.15067772229E+03  0.00000000000E+00 0. -1.
         24    2    1    2    0    0 -0.44600150525E+02 -0.15572375039E+02 -0.13140161013E+03  0.16055396147E+03  0.79243416799E+02 0.  0.
        -11    1    3    3    0    0 -0.23801330713E+02  0.83045424636E+01  0.18678952968E+00  0.25209197916E+02  0.00000000000E+00 0.  1.
         12    1    3    3    0    0 -0.20798819812E+02 -0.23876917502E+02 -0.13158839966E+03  0.13534476355E+03  0.00000000000E+00 0. -1.
          3    1    1    2  501    0  0.44600150525E+02  0.15572375039E+02  0.11400764049E+03  0.12340751347E+03  0.00000000000E+00 0. -1.
<mgrwt>
<rscale>  1 0.92256118E+02</rscale>
<asrwt>0</asrwt>
<pdfrwt beam="1">  1       21 0.20505193E-01 0.92256118E+02</pdfrwt>
<pdfrwt beam="2">  1        4 0.23181188E-01 0.92256118E+02</pdfrwt>
<totfact> 0.14922370E+04</totfact>
</mgrwt>
</event>
<event>
 6    2  0.9453093E+000  0.7954914E+02  0.7546771E-02  0.1330336E+00
         21   -1    0    0  501  502  0.00000000000E+00  0.00000000000E+00  0.23703609458E+03  0.23703609458E+03  0.00000000000E+00 0. -1.
          2   -1    0    0  502    0 -0.00000000000E+00 -0.00000000000E+00 -0.35958696301E+02  0.35958696301E+02  0.00000000000E+00 0. -1.
         24    2    1    2    0    0  0.20483951132E+02 -0.86075296301E+01  0.94784648448E+01  0.80111839033E+02  0.76383137125E+02 0.  0.
        -11    1    3    3    0    0 -0.37438067018E+00 -0.66885232560E+01  0.41396178262E+02  0.41934712100E+02  0.00000000000E+00 0.  1.
         12    1    3    3    0    0  0.20858331802E+02 -0.19190063741E+01 -0.31917713417E+02  0.38177126932E+02  0.00000000000E+00 0. -1.
          1    1    1    2  501    0 -0.20483951132E+02  0.86075296301E+01  0.19159893344E+03  0.19288295185E+03  0.00000000000E+00 0. -1.
<mgrwt>
<rscale>  1 0.79549139E+02</rscale>
<asrwt>0</asrwt>
<pdfrwt beam="1">  1       21 0.36467090E-01 0.79549139E+02</pdfrwt>
<pdfrwt beam="2">  1        2 0.55321073E-02 0.79549139E+02</pdfrwt>
<totfact> 0.11495775E+05</totfact>
</mgrwt>
</event>
<event>
 6    2  0.9453093E+000  0.1468840E+03  0.7546771E-02  0.1204355E+00
         -1   -1    0    0    0  501 -0.00000000000E+00  0.00000000000E+00  0.64478448261E+02  0.64478448261E+02  0.00000000000E+00 0.  1.
         21   -1    0    0  501  502  0.00000000000E+00 -0.00000000000E+00 -0.28847253766E+03  0.28847253766E+03  0.00000000000E+00 0. -1.
         24    2    1    2    0    0  0.90633249073E+02 -0.81494421255E+02 -0.92135900273E+02  0.17338955194E+03  0.81970641516E+02 0.  0.
        -13    1    3    3    0    0 -0.87561330675E+01 -0.32179905295E+02 -0.84142400196E+01  0.34394993912E+02  0.00000000000E+00 0.  1.
         14    1    3    3    0    0  0.99389382141E+02 -0.49314515960E+02 -0.83721660253E+02  0.13899455803E+03  0.00000000000E+00 0. -1.
         -2    1    1    2    0  502 -0.90633249073E+02  0.81494421255E+02 -0.13185818913E+03  0.17956143398E+03  0.00000000000E+00 0.  1.
<mgrwt>
<rscale>  1 0.14688401E+03</rscale>
<asrwt>0</asrwt>
<pdfrwt beam="1">  1       21 0.44380391E-01 0.14688401E+03</pdfrwt>
<pdfrwt beam="2">  1       -1 0.99197612E-02 0.14688401E+03</pdfrwt>
<totfact> 0.26842826E+04</totfact>
</mgrwt>
</event>
<event>
 6    2  0.9453093E+000  0.9108659E+02  0.7546771E-02  0.1300241E+00
          2   -1    0    0  502    0 -0.00000000000E+00  0.00000000000E+00  0.64373182407E+03  0.64373182407E+03  0.00000000000E+00 0. -1.
         21   -1    0    0  501  502  0.00000000000E+00 -0.00000000000E+00 -0.12190567650E+02  0.12190567650E+02  0.00000000000E+00 0. -1.
         24    2    1    2    0    0 -0.38309145230E+02 -0.15341684513E+02  0.59132853847E+03  0.59830277200E+03  0.81202270158E+02 0.  0.
        -13    1    3    3    0    0 -0.17884602320E+02  0.32487784466E+02  0.18688347635E+03  0.19052755410E+03  0.00000000000E+00 0.  1.
         14    1    3    3    0    0 -0.20424542909E+02 -0.47829468979E+02  0.40444506212E+03  0.40777521790E+03  0.00000000000E+00 0. -1.
          1    1    1    2  501    0  0.38309145230E+02  0.15341684513E+02  0.40212717948E+02  0.57619619720E+02  0.00000000000E+00 0. -1.
<mgrwt>
<rscale>  1 0.91086588E+02</rscale>
<asrwt>0</asrwt>
<pdfrwt beam="1">  1       21 0.18754724E-02 0.91086588E+02</pdfrwt>
<pdfrwt beam="2">  1        2 0.99035639E-01 0.91086588E+02</pdfrwt>
<totfact> 0.75872674E+05</totfact>
</mgrwt>
</event>
<event>
 6    2  0.9453093E+000  0.8236543E+02  0.7546771E-02  0.1322470E+00
          2   -1    0    0  502    0 -0.00000000000E+00  0.00000000000E+00  0.22958493405E+04  0.22958493405E+04  0.00000000000E+00 0. -1.
         21   -1    0    0  501  502  0.00000000000E+00 -0.00000000000E+00 -0.21891978130E+01  0.21891978130E+01  0.00000000000E+00 0. -1.
         24    2    1    2    0    0 -0.13757507688E+02  0.21120189774E+02  0.21826180340E+04  0.21841715925E+04  0.78413850603E+02 0.  0.
        -11    1    3    3    0    0  0.24461604452E+02 -0.70904206374E+01  0.34462666294E+03  0.34556646389E+03  0.00000000000E+00 0.  1.
         12    1    3    3    0    0 -0.38219112140E+02  0.28210610412E+02  0.18379913710E+04  0.18386051287E+04  0.00000000000E+00 0. -1.
          1    1    1    2  501    0  0.13757507688E+02 -0.21120189774E+02  0.11104210873E+03  0.11386694580E+03  0.00000000000E+00 0. -1.
<mgrwt>
<rscale>  1 0.82365426E+02</rscale>
<asrwt>0</asrwt>
<pdfrwt beam="1">  1       21 0.33680150E-03 0.82365426E+02</pdfrwt>
<pdfrwt beam="2">  1        2 0.35320567E+00 0.82365426E+02</pdfrwt>
<totfact> 0.13480525E+06</totfact>
</mgrwt>
</event>
<event>
 6    2  0.9453093E+000  0.8473367E+02  0.7546771E-02  0.1316130E+00
         21   -1    0    0  501  502  0.00000000000E+00  0.00000000000E+00  0.85077388510E+01  0.85077388510E+01  0.00000000000E+00 0.  1.
          2   -1    0    0  502    0 -0.00000000000E+00 -0.00000000000E+00 -0.40744885908E+03  0.40744885908E+03  0.00000000000E+00 0. -1.
         24    2    1    2    0    0  0.28465842787E+02 -0.11731981255E+02 -0.32493696292E+03  0.33580325184E+03  0.78942070459E+02 0.  0.
        -13    1    3    3    0    0  0.53225524297E+02  0.68273128268E+01 -0.21487527874E+03  0.22147449977E+03  0.00000000000E+00 0.  1.
         14    1    3    3    0    0 -0.24759681510E+02 -0.18559294082E+02 -0.11006168418E+03  0.11432875207E+03  0.00000000000E+00 0. -1.
          1    1    1    2  501    0 -0.28465842787E+02  0.11731981255E+02 -0.74004157311E+02  0.80153346088E+02  0.00000000000E+00 0. -1.
<mgrwt>
<rscale>  1 0.84733666E+02</rscale>
<asrwt>0</asrwt>
<pdfrwt beam="1">  1       21 0.13088827E-02 0.84733666E+02</pdfrwt>
<pdfrwt beam="2">  1        2 0.62684448E-01 0.84733666E+02</pdfrwt>
<totfact> 0.21894031E+06</totfact>
</mgrwt>
</event>
<event>
 6    2  0.9453093E+000  0.8286135E+02  0.7546771E-02  0.1321122E+00
          2   -1    0    0  502    0 -0.00000000000E+00  0.00000000000E+00  0.44879700311E+01  0.44879700311E+01  0.00000000000E+00 0. -1.
         21   -1    0    0  501  502  0.00000000000E+00 -0.00000000000E+00 -0.65374677099E+03  0.65374677099E+03  0.00000000000E+00 0.  1.
         24    2    1    2    0    0  0.16237713559E+02 -0.13513677921E+02 -0.57803892194E+03  0.58394777043E+03  0.80123158177E+02 0.  0.
        -11    1    3    3    0    0  0.46392724893E+01 -0.34168340638E+01 -0.56086799821E+03  0.56089759227E+03  0.00000000000E+00 0.  1.
         12    1    3    3    0    0  0.11598441070E+02 -0.10096843857E+02 -0.17170923735E+02  0.23050178156E+02  0.00000000000E+00 0. -1.
          1    1    1    2  501    0 -0.16237713559E+02  0.13513677921E+02 -0.71219879011E+02  0.74286970587E+02  0.00000000000E+00 0. -1.
<mgrwt>
<rscale>  1 0.82861350E+02</rscale>
<asrwt>0</asrwt>
<pdfrwt beam="1">  1       21 0.10057639E+00 0.82861350E+02</pdfrwt>
<pdfrwt beam="2">  1        2 0.69045715E-03 0.82861350E+02</pdfrwt>
<totfact> 0.21980729E+05</totfact>
</mgrwt>
</event>
<event>
 6    2  0.9453093E+000  0.8261677E+02  0.7546771E-02  0.1321785E+00
          2   -1    0    0  502    0 -0.00000000000E+00  0.00000000000E+00  0.13313377547E+04  0.13313377547E+04  0.00000000000E+00 0. -1.
         21   -1    0    0  501  502  0.00000000000E+00 -0.00000000000E+00 -0.45685356041E+01  0.45685356041E+01  0.00000000000E+00 0. -1.
         24    2    1    2    0    0 -0.18436384424E+02  0.80414591159E+01  0.12989643999E+04  0.13015890453E+04  0.80130925688E+02 0.  0.
        -11    1    3    3    0    0  0.14603539361E+01  0.34842026113E+02  0.29252579331E+03  0.29459707937E+03  0.00000000000E+00 0.  1.
         12    1    3    3    0    0 -0.19896738360E+02 -0.26800566997E+02  0.10064386066E+04  0.10069919660E+04  0.00000000000E+00 0. -1.
          1    1    1    2  501    0  0.18436384424E+02 -0.80414591159E+01  0.27804819185E+02  0.34317245012E+02  0.00000000000E+00 0. -1.
<mgrwt>
<rscale>  1 0.82616769E+02</rscale>
<asrwt>0</asrwt>
<pdfrwt beam="1">  1       21 0.70285269E-03 0.82616769E+02</pdfrwt>
<pdfrwt beam="2">  1        2 0.20482088E+00 0.82616769E+02</pdfrwt>
<totfact> 0.13436460E+06</totfact>
</mgrwt>
</event>
<event>
 6    2  0.9453093E+000  0.8325692E+02  0.7546771E-02  0.1320055E+00
         21   -1    0    0  501  502  0.00000000000E+00  0.00000000000E+00  0.34284310917E+02  0.34284310917E+02  0.00000000000E+00 0. -1.
         -3   -1    0    0    0  501 -0.00000000000E+00 -0.00000000000E+00 -0.92277148520E+02  0.92277148520E+02  0.00000000000E+00 0.  1.
         24    2    1    2    0    0  0.21418582789E+02 -0.38345375991E+01 -0.24799441518E+02  0.86871902738E+02  0.80363274064E+02 0.  0.
        -13    1    3    3    0    0 -0.22978428251E+02 -0.10342689047E+02 -0.32728360991E+02  0.41305265945E+02  0.00000000000E+00 0.  1.
         14    1    3    3    0    0  0.44397011041E+02  0.65081514478E+01  0.79289194727E+01  0.45566636793E+02  0.00000000000E+00 0. -1.
         -4    1    1    2    0  502 -0.21418582789E+02  0.38345375991E+01 -0.33193396085E+02  0.39689556699E+02  0.00000000000E+00 0.  1.
<mgrwt>
<rscale>  1 0.83256923E+02</rscale>
<asrwt>0</asrwt>
<pdfrwt beam="1">  1       21 0.52745096E-02 0.83256923E+02</pdfrwt>
<pdfrwt beam="2">  1       -3 0.14196484E-01 0.83256923E+02</pdfrwt>
<totfact> 0.43464626E+05</totfact>
</mgrwt>
</event>
<event>
 6    2  0.9453093E+000  0.8515230E+02  0.7546771E-02  0.1315035E+00
         21   -1    0    0  501  502  0.00000000000E+00  0.00000000000E+00  0.37794867261E+02  0.37794867261E+02  0.00000000000E+00 0.  1.
         -3   -1    0    0    0  501 -0.00000000000E+00 -0.00000000000E+00 -0.92306847488E+02  0.92306847488E+02  0.00000000000E+00 0.  1.
         24    2    1    2    0    0 -0.18722889208E+02  0.21351118652E+02 -0.24109314514E+02  0.88499564199E+02  0.80277624336E+02 0.  0.
        -11    1    3    3    0    0 -0.33823272103E+02  0.33795229855E+02 -0.40742649971E+02  0.62817949850E+02  0.00000000000E+00 0.  1.
         12    1    3    3    0    0  0.15100382895E+02 -0.12444111203E+02  0.16633335456E+02  0.25681614349E+02  0.00000000000E+00 0. -1.
         -4    1    1    2    0  502  0.18722889208E+02 -0.21351118652E+02 -0.30402665712E+02  0.41602150550E+02  0.00000000000E+00 0.  1.
<mgrwt>
<rscale>  1 0.85152298E+02</rscale>
<asrwt>0</asrwt>
<pdfrwt beam="1">  1       21 0.58145950E-02 0.85152298E+02</pdfrwt>
<pdfrwt beam="2">  1       -3 0.14201053E-01 0.85152298E+02</pdfrwt>
<totfact> 0.37062912E+05</totfact>
</mgrwt>
</event>
<event>
 6    2  0.9453093E+000  0.1352270E+03  0.7546771E-02  0.1219900E+00
          2   -1    0    0  502    0 -0.00000000000E+00  0.00000000000E+00  0.77488028859E+03  0.77488028859E+03  0.00000000000E+00 0. -1.
         21   -1    0    0  501  502  0.00000000000E+00 -0.00000000000E+00 -0.23302900860E+02  0.23302900860E+02  0.00000000000E+00 0. -1.
         24    2    1    2    0    0 -0.54067481615E+02 -0.93764139025E+02  0.57813523829E+03  0.59373958955E+03  0.81063802772E+02 0.  0.
        -13    1    3    3    0    0  0.12547299589E+02 -0.19960912075E+01  0.16790086246E+02  0.21055310571E+02  0.00000000000E+00 0.  1.
         14    1    3    3    0    0 -0.66614781204E+02 -0.91768047818E+02  0.56134515204E+03  0.57268427898E+03  0.00000000000E+00 0. -1.
          1    1    1    2  501    0  0.54067481615E+02  0.93764139025E+02  0.17344214944E+03  0.20444359990E+03  0.00000000000E+00 0. -1.
<mgrwt>
<rscale>  1 0.13522702E+03</rscale>
<asrwt>0</asrwt>
<pdfrwt beam="1">  1       21 0.35850623E-02 0.13522702E+03</pdfrwt>
<pdfrwt beam="2">  1        2 0.11921233E+00 0.13522702E+03</pdfrwt>
<totfact> 0.21768325E+05</totfact>
</mgrwt>
</event>
<event>
 6    2  0.9453093E+000  0.8301259E+02  0.7546771E-02  0.1320713E+00
         -1   -1    0    0    0  501 -0.00000000000E+00  0.00000000000E+00  0.45265789346E+03  0.45265789346E+03  0.00000000000E+00 0.  1.
         21   -1    0    0  501  502  0.00000000000E+00 -0.00000000000E+00 -0.92162018722E+01  0.92162018722E+01  0.00000000000E+00 0.  1.
         24    2    1    2    0    0  0.17584515718E+02  0.11375958798E+02  0.42768109217E+03  0.43566295027E+03  0.80327218344E+02 0.  0.
        -13    1    3    3    0    0  0.19907358888E+02 -0.20808916183E+02  0.35469035910E+03  0.35585750627E+03  0.00000000000E+00 0.  1.
         14    1    3    3    0    0 -0.23228431706E+01  0.32184874980E+02  0.72990733069E+02  0.79805443999E+02  0.00000000000E+00 0. -1.
         -2    1    1    2    0  502 -0.17584515718E+02 -0.11375958798E+02  0.15760599425E+02  0.26211145069E+02  0.00000000000E+00 0.  1.
<mgrwt>
<rscale>  1 0.83012587E+02</rscale>
<asrwt>0</asrwt>
<pdfrwt beam="1">  1       21 0.14178776E-02 0.83012587E+02</pdfrwt>
<pdfrwt beam="2">  1       -1 0.69639659E-01 0.83012587E+02</pdfrwt>
<totfact> 0.40388746E+05</totfact>
</mgrwt>
</event>
<event>
 6    2  0.9453093E+000  0.9788405E+02  0.7546771E-02  0.1284809E+00
         21   -1    0    0  501  502  0.00000000000E+00  0.00000000000E+00  0.29444691573E+03  0.29444691573E+03  0.00000000000E+00 0. -1.
          4   -1    0    0  502    0 -0.00000000000E+00 -0.00000000000E+00 -0.86832706098E+02  0.86832706098E+02  0.00000000000E+00 0. -1.
         24    2    1    2    0    0  0.32414436650E+02 -0.53587026562E+02 -0.54331081560E+02  0.11195156778E+03  0.75226471314E+02 0.  0.
        -11    1    3    3    0    0 -0.20340107926E+02 -0.10515516619E+01 -0.10413765846E+01  0.20393876938E+02  0.00000000000E+00 0.  1.
         12    1    3    3    0    0  0.52754544576E+02 -0.52535474900E+02 -0.53289704975E+02  0.91557690844E+02  0.00000000000E+00 0. -1.
          3    1    1    2  501    0 -0.32414436650E+02  0.53587026562E+02  0.26194529119E+03  0.26932805405E+03  0.00000000000E+00 0. -1.
<mgrwt>
<rscale>  1 0.97884049E+02</rscale>
<asrwt>0</asrwt>
<pdfrwt beam="1">  1       21 0.45299525E-01 0.97884049E+02</pdfrwt>
<pdfrwt beam="2">  1        4 0.13358878E-01 0.97884049E+02</pdfrwt>
<totfact> 0.86568689E+03</totfact>
</mgrwt>
</event>
<event>
 6    2  0.9453093E+000  0.9036709E+02  0.7546771E-02  0.1301965E+00
         21   -1    0    0  501  502  0.00000000000E+00  0.00000000000E+00  0.86034847997E+02  0.86034847997E+02  0.00000000000E+00 0. -1.
         -3   -1    0    0    0  501 -0.00000000000E+00 -0.00000000000E+00 -0.52966744648E+02  0.52966744648E+02  0.00000000000E+00 0.  1.
         24    2    1    2    0    0 -0.35197842928E+02  0.20833693020E+02  0.37544229979E+02  0.97855917038E+02  0.80580893412E+02 0.  0.
        -13    1    3    3    0    0 -0.38906619033E+02 -0.23667858928E+02  0.21966070192E+02  0.50560862240E+02  0.00000000000E+00 0.  1.
         14    1    3    3    0    0  0.37087761052E+01  0.44501551948E+02  0.15578159786E+02  0.47295054797E+02  0.00000000000E+00 0. -1.
         -4    1    1    2    0  502  0.35197842928E+02 -0.20833693020E+02 -0.44761266288E+01  0.41145675607E+02  0.00000000000E+00 0.  1.
<mgrwt>
<rscale>  1 0.90367092E+02</rscale>
<asrwt>0</asrwt>
<pdfrwt beam="1">  1       21 0.13236130E-01 0.90367092E+02</pdfrwt>
<pdfrwt beam="2">  1       -3 0.81487300E-02 0.90367092E+02</pdfrwt>
<totfact> 0.22723963E+05</totfact>
</mgrwt>
</event>
<event>
 6    2  0.9453093E+000  0.8630123E+02  0.7546771E-02  0.1312064E+00
          2   -1    0    0  502    0 -0.00000000000E+00  0.00000000000E+00  0.68393304354E+02  0.68393304354E+02  0.00000000000E+00 0. -1.
         21   -1    0    0  501  502  0.00000000000E+00 -0.00000000000E+00 -0.49078910286E+02  0.49078910286E+02  0.00000000000E+00 0.  1.
         24    2    1    2    0    0 -0.10511407769E+02  0.26078796287E+02  0.22469214812E+02  0.89178289445E+02  0.81592330430E+02 0.  0.
        -11    1    3    3    0    0  0.80741187000E+01  0.10675289202E+02 -0.29214850873E+02  0.32135038569E+02  0.00000000000E+00 0.  1.
         12    1    3    3    0    0 -0.18585526470E+02  0.15403507085E+02  0.51684065685E+02  0.57043250875E+02  0.00000000000E+00 0. -1.
          1    1    1    2  501    0  0.10511407769E+02 -0.26078796287E+02 -0.31548207446E+01  0.28293925196E+02  0.00000000000E+00 0. -1.
<mgrwt>
<rscale>  1 0.86301226E+02</rscale>
<asrwt>0</asrwt>
<pdfrwt beam="1">  1       21 0.75506015E-02 0.86301226E+02</pdfrwt>
<pdfrwt beam="2">  1        2 0.10522047E-01 0.86301226E+02</pdfrwt>
<totfact> 0.89465641E+05</totfact>
</mgrwt>
</event>
<event>
 6    2  0.9453093E+000  0.9167366E+02  0.7546771E-02  0.1298849E+00
         21   -1    0    0  501  502  0.00000000000E+00  0.00000000000E+00  0.93364328910E+00  0.93364328910E+00  0.00000000000E+00 0.  1.
          2   -1    0    0  502    0 -0.00000000000E+00 -0.00000000000E+00 -0.37588110884E+04  0.37588110884E+04  0.00000000000E+00 0. -1.
         24    2    1    2    0    0 -0.25059046387E+02  0.49242415852E+01 -0.26889262231E+04  0.26904884860E+04  0.88044624627E+02 0.  0.
        -11    1    3    3    0    0 -0.56439052089E+02  0.14289451059E+02 -0.18752333865E+04  0.18761369377E+04  0.00000000000E+00 0.  1.
         12    1    3    3    0    0  0.31380005702E+02 -0.93652094735E+01 -0.81369283662E+03  0.81435154834E+03  0.00000000000E+00 0. -1.
          1    1    1    2  501    0  0.25059046387E+02 -0.49242415852E+01 -0.10689512220E+04  0.10692562457E+04  0.00000000000E+00 0. -1.
<mgrwt>
<rscale>  1 0.91673660E+02</rscale>
<asrwt>0</asrwt>
<pdfrwt beam="1">  1       21 0.14363955E-03 0.91673660E+02</pdfrwt>
<pdfrwt beam="2">  1        2 0.57827007E+00 0.91673660E+02</pdfrwt>
<totfact> 0.68771827E+05</totfact>
</mgrwt>
</event>
<event>
 6    2  0.9453093E+000  0.8658658E+02  0.7546771E-02  0.1311335E+00
         -3   -1    0    0    0  501 -0.00000000000E+00  0.00000000000E+00  0.86336651901E+02  0.86336651901E+02  0.00000000000E+00 0.  1.
         21   -1    0    0  501  502  0.00000000000E+00 -0.00000000000E+00 -0.35517338729E+02  0.35517338729E+02  0.00000000000E+00 0. -1.
         24    2    1    2    0    0  0.17770307586E+02 -0.13940868509E+02  0.31519196844E+02  0.92144966130E+02  0.83588894998E+02 0.  0.
        -11    1    3    3    0    0 -0.12804251499E+02  0.22459039073E+02  0.36084077318E+02  0.44389389818E+02  0.00000000000E+00 0.  1.
         12    1    3    3    0    0  0.30574559085E+02 -0.36399907582E+02 -0.45648804737E+01  0.47755576312E+02  0.00000000000E+00 0. -1.
         -4    1    1    2    0  502 -0.17770307586E+02  0.13940868509E+02  0.19300116327E+02  0.29709024500E+02  0.00000000000E+00 0.  1.
<mgrwt>
<rscale>  1 0.86586575E+02</rscale>
<asrwt>0</asrwt>
<pdfrwt beam="1">  1       21 0.54642060E-02 0.86586575E+02</pdfrwt>
<pdfrwt beam="2">  1       -3 0.13282562E-01 0.86586575E+02</pdfrwt>
<totfact> 0.46141931E+05</totfact>
</mgrwt>
</event>
<event>
 6    2  0.9453093E+000  0.1017447E+03  0.7546771E-02  0.1276669E+00
          2   -1    0    0  502    0 -0.00000000000E+00  0.00000000000E+00  0.13760862715E+03  0.13760862715E+03  0.00000000000E+00 0. -1.
         21   -1    0    0  501  502  0.00000000000E+00 -0.00000000000E+00 -0.69634839875E+02  0.69634839875E+02  0.00000000000E+00 0. -1.
         24    2    1    2    0    0 -0.53845566662E+02  0.34414437261E+02  0.93736452253E+02  0.13834199064E+03  0.79172503761E+02 0.  0.
        -13    1    3    3    0    0 -0.14528952796E+02  0.38830841337E+02  0.57333742234E+01  0.41854465572E+02  0.00000000000E+00 0.  1.
         14    1    3    3    0    0 -0.39316613866E+02 -0.44164040768E+01  0.88003078029E+02  0.96487525067E+02  0.00000000000E+00 0. -1.
          1    1    1    2  501    0  0.53845566662E+02 -0.34414437261E+02 -0.25762664980E+02  0.68901476385E+02  0.00000000000E+00 0. -1.
<mgrwt>
<rscale>  1 0.10174470E+03</rscale>
<asrwt>0</asrwt>
<pdfrwt beam="1">  1       21 0.10713052E-01 0.10174470E+03</pdfrwt>
<pdfrwt beam="2">  1        2 0.21170558E-01 0.10174470E+03</pdfrwt>
<totfact> 0.22106085E+05</totfact>
</mgrwt>
</event>
<event>
 6    2  0.9453093E+000  0.8607189E+02  0.7546771E-02  0.1312653E+00
          2   -1    0    0  502    0 -0.00000000000E+00  0.00000000000E+00  0.48879997052E+03  0.48879997052E+03  0.00000000000E+00 0. -1.
         21   -1    0    0  501  502  0.00000000000E+00 -0.00000000000E+00 -0.58613419679E+02  0.58613419679E+02  0.00000000000E+00 0. -1.
         24    2    1    2    0    0  0.12564484049E+01  0.30584961981E+02  0.48070204777E+03  0.48834703775E+03  0.80444713811E+02 0.  0.
        -13    1    3    3    0    0  0.20545571611E+02 -0.19618712243E+02  0.10340966591E+03  0.10724072634E+03  0.00000000000E+00 0.  1.
         14    1    3    3    0    0 -0.19289123206E+02  0.50203674224E+02  0.37729238186E+03  0.38110631140E+03  0.00000000000E+00 0. -1.
          1    1    1    2  501    0 -0.12564484049E+01 -0.30584961981E+02 -0.50515496931E+02  0.59066352454E+02  0.00000000000E+00 0. -1.
<mgrwt>
<rscale>  1 0.86071892E+02</rscale>
<asrwt>0</asrwt>
<pdfrwt beam="1">  1       21 0.90174495E-02 0.86071892E+02</pdfrwt>
<pdfrwt beam="2">  1        2 0.75199993E-01 0.86071892E+02</pdfrwt>
<totfact> 0.76682854E+04</totfact>
</mgrwt>
</event>
<event>
 6    2  0.9453093E+000  0.9094501E+02  0.7546771E-02  0.1300579E+00
         21   -1    0    0  501  502  0.00000000000E+00  0.00000000000E+00  0.32231657781E+03  0.32231657781E+03  0.00000000000E+00 0.  1.
          4   -1    0    0  502    0 -0.00000000000E+00 -0.00000000000E+00 -0.17202199688E+02  0.17202199688E+02  0.00000000000E+00 0. -1.
         24    2    1    2    0    0 -0.34928658832E+02  0.16031331073E+02  0.12061699977E+03  0.15106109683E+03  0.82425600138E+02 0.  0.
        -13    1    3    3    0    0 -0.60302326285E+02  0.69018854566E+01  0.10054465569E+03  0.11744460126E+03  0.00000000000E+00 0.  1.
         14    1    3    3    0    0  0.25373667453E+02  0.91294456164E+01  0.20072344079E+02  0.33616495565E+02  0.00000000000E+00 0. -1.
          3    1    1    2  501    0  0.34928658832E+02 -0.16031331073E+02  0.18449737835E+03  0.18845768067E+03  0.00000000000E+00 0. -1.
<mgrwt>
<rscale>  1 0.90945007E+02</rscale>
<asrwt>0</asrwt>
<pdfrwt beam="1">  1       21 0.49587161E-01 0.90945007E+02</pdfrwt>
<pdfrwt beam="2">  1        4 0.26464925E-02 0.90945007E+02</pdfrwt>
<totfact> 0.97988347E+04</totfact>
</mgrwt>
</event>
<event>
 6    2  0.9453093E+000  0.1004244E+03  0.7546771E-02  0.1279406E+00
         21   -1    0    0  501  502  0.00000000000E+00  0.00000000000E+00  0.44692751540E+03  0.44692751540E+03  0.00000000000E+00 0. -1.
         -3   -1    0    0    0  501 -0.00000000000E+00 -0.00000000000E+00 -0.22038307107E+02  0.22038307107E+02  0.00000000000E+00 0.  1.
         24    2    1    2    0    0 -0.56484389626E+02 -0.16187011400E+02  0.38516021471E+03  0.39803699522E+03  0.81440487199E+02 0.  0.
        -13    1    3    3    0    0 -0.34367675172E+02  0.24675569433E+01  0.45138712344E+02  0.56786699905E+02  0.00000000000E+00 0.  1.
         14    1    3    3    0    0 -0.22116714453E+02 -0.18654568343E+02  0.34002150237E+03  0.34125029531E+03  0.00000000000E+00 0. -1.
         -4    1    1    2    0  502  0.56484389626E+02  0.16187011400E+02  0.39728993578E+02  0.70928827286E+02  0.00000000000E+00 0.  1.
<mgrwt>
<rscale>  1 0.10042439E+03</rscale>
<asrwt>0</asrwt>
<pdfrwt beam="1">  1       21 0.68758073E-01 0.10042439E+03</pdfrwt>
<pdfrwt beam="2">  1       -3 0.33905091E-02 0.10042439E+03</pdfrwt>
<totfact> 0.38098380E+04</totfact>
</mgrwt>
</event>
<event>
 6    2  0.9453093E+000  0.8599887E+02  0.7546771E-02  0.1312841E+00
          2   -1    0    0  502    0 -0.00000000000E+00  0.00000000000E+00  0.17879877168E+03  0.17879877168E+03  0.00000000000E+00 0. -1.
         21   -1    0    0  501  502  0.00000000000E+00 -0.00000000000E+00 -0.20651507940E+02  0.20651507940E+02  0.00000000000E+00 0.  1.
         24    2    1    2    0    0 -0.25005256395E+02  0.24460433914E+02  0.10349494080E+03  0.13456228322E+03  0.78563538736E+02 0.  0.
        -11    1    3    3    0    0 -0.47956990830E+02  0.17143723490E+02  0.34582881104E+02  0.61560993251E+02  0.00000000000E+00 0.  1.
         12    1    3    3    0    0  0.22951734436E+02  0.73167104240E+01  0.68912059700E+02  0.73001289969E+02  0.00000000000E+00 0. -1.
          1    1    1    2  501    0  0.25005256395E+02 -0.24460433914E+02  0.54652322940E+02  0.64887996405E+02  0.00000000000E+00 0. -1.
<mgrwt>
<rscale>  1 0.85998868E+02</rscale>
<asrwt>0</asrwt>
<pdfrwt beam="1">  1       21 0.31771552E-02 0.85998868E+02</pdfrwt>
<pdfrwt beam="2">  1        2 0.27507502E-01 0.85998868E+02</pdfrwt>
<totfact> 0.12625310E+06</totfact>
</mgrwt>
</event>
<event>
 6    2  0.9453093E+000  0.1254733E+03  0.7546771E-02  0.1234331E+00
         21   -1    0    0  501  502  0.00000000000E+00  0.00000000000E+00  0.66512206641E+01  0.66512206641E+01  0.00000000000E+00 0. -1.
          2   -1    0    0  502    0 -0.00000000000E+00 -0.00000000000E+00 -0.21989424723E+04  0.21989424723E+04  0.00000000000E+00 0. -1.
         24    2    1    2    0    0 -0.13758713721E+02  0.94884612809E+02 -0.16601036295E+04  0.16648386124E+04  0.80939192394E+02 0.  0.
        -13    1    3    3    0    0 -0.19744622600E+01 -0.12067186574E+02 -0.67084453399E+02  0.68189730759E+02  0.00000000000E+00 0.  1.
         14    1    3    3    0    0 -0.11784251461E+02  0.10695179938E+03 -0.15930191761E+04  0.15966488817E+04  0.00000000000E+00 0. -1.
          1    1    1    2  501    0  0.13758713721E+02 -0.94884612809E+02 -0.53218762221E+03  0.54075508059E+03  0.00000000000E+00 0. -1.
<mgrwt>
<rscale>  1 0.12547328E+03</rscale>
<asrwt>0</asrwt>
<pdfrwt beam="1">  1       21 0.10232646E-02 0.12547328E+03</pdfrwt>
<pdfrwt beam="2">  1        2 0.33829888E+00 0.12547328E+03</pdfrwt>
<totfact> 0.27492015E+05</totfact>
</mgrwt>
</event>
<event>
 6    2  0.9453093E+000  0.8966465E+02  0.7546771E-02  0.1303666E+00
          2   -1    0    0  502    0 -0.00000000000E+00  0.00000000000E+00  0.34223108500E+04  0.34223108500E+04  0.00000000000E+00 0. -1.
         21   -1    0    0  501  502  0.00000000000E+00 -0.00000000000E+00 -0.12602925609E+01  0.12602925609E+01  0.00000000000E+00 0.  1.
         24    2    1    2    0    0 -0.28340158499E+02  0.22973002097E+02  0.28118144323E+04  0.28132437062E+04  0.81907419288E+02 0.  0.
        -11    1    3    3    0    0 -0.12138459807E+02  0.43830843870E+02  0.82425698123E+03  0.82551078502E+03  0.00000000000E+00 0.  1.
         12    1    3    3    0    0 -0.16201698692E+02 -0.20857841772E+02  0.19875574511E+04  0.19877329212E+04  0.00000000000E+00 0. -1.
          1    1    1    2  501    0  0.28340158499E+02 -0.22973002097E+02  0.60923612516E+03  0.61032743639E+03  0.00000000000E+00 0. -1.
<mgrwt>
<rscale>  1 0.89664646E+02</rscale>
<asrwt>0</asrwt>
<pdfrwt beam="1">  1       21 0.19389390E-03 0.89664646E+02</pdfrwt>
<pdfrwt beam="2">  1        2 0.52650192E+00 0.89664646E+02</pdfrwt>
<totfact> 0.72949205E+05</totfact>
</mgrwt>
</event>
<event>
 6    2  0.9453093E+000  0.8212090E+02  0.7546771E-02  0.1323138E+00
         21   -1    0    0  501  502  0.00000000000E+00  0.00000000000E+00  0.47998227278E+02  0.47998227278E+02  0.00000000000E+00 0.  1.
          2   -1    0    0  502    0 -0.00000000000E+00 -0.00000000000E+00 -0.57642655190E+02  0.57642655190E+02  0.00000000000E+00 0. -1.
         24    2    1    2    0    0  0.16168358513E+02  0.12483794769E+02 -0.17124616981E+02  0.83887395913E+02  0.79539812280E+02 0.  0.
        -11    1    3    3    0    0  0.40714508288E+02  0.62518123804E+01  0.14232164416E+02  0.43581083593E+02  0.00000000000E+00 0.  1.
         12    1    3    3    0    0 -0.24546149775E+02  0.62319823882E+01 -0.31356781397E+02  0.40306312320E+02  0.00000000000E+00 0. -1.
          1    1    1    2  501    0 -0.16168358513E+02 -0.12483794769E+02  0.74801890692E+01  0.21753486556E+02  0.00000000000E+00 0. -1.
<mgrwt>
<rscale>  1 0.82120903E+02</rscale>
<asrwt>0</asrwt>
<pdfrwt beam="1">  1       21 0.73843427E-02 0.82120903E+02</pdfrwt>
<pdfrwt beam="2">  1        2 0.88681008E-02 0.82120903E+02</pdfrwt>
<totfact> 0.11366833E+06</totfact>
</mgrwt>
</event>
<event>
 6    2  0.9453093E+000  0.8191733E+02  0.7546771E-02  0.1323697E+00
         -1   -1    0    0    0  501 -0.00000000000E+00  0.00000000000E+00  0.43239896391E+02  0.43239896391E+02  0.00000000000E+00 0.  1.
         21   -1    0    0  501  502  0.00000000000E+00 -0.00000000000E+00 -0.11155321285E+03  0.11155321285E+03  0.00000000000E+00 0.  1.
         24    2    1    2    0    0  0.26195881252E+01 -0.27391845220E+02 -0.83679712546E+00  0.81921605292E+02  0.77157460804E+02 0.  0.
        -11    1    3    3    0    0  0.67865705113E+01 -0.52185566434E+02 -0.12678903794E+02  0.54130818254E+02  0.00000000000E+00 0.  1.
         12    1    3    3    0    0 -0.41669823860E+01  0.24793721214E+02  0.11842106669E+02  0.27790787038E+02  0.00000000000E+00 0. -1.
         -2    1    1    2    0  502 -0.26195881252E+01  0.27391845220E+02 -0.67476519329E+02  0.72871503945E+02  0.00000000000E+00 0.  1.
<mgrwt>
<rscale>  1 0.81917331E+02</rscale>
<asrwt>0</asrwt>
<pdfrwt beam="1">  1       21 0.17162033E-01 0.81917331E+02</pdfrwt>
<pdfrwt beam="2">  1       -1 0.66522918E-02 0.81917331E+02</pdfrwt>
<totfact> 0.29014698E+05</totfact>
</mgrwt>
</event>
<event>
 6    2  0.9453093E+000  0.8334325E+02  0.7546771E-02  0.1319823E+00
          2   -1    0    0  502    0 -0.00000000000E+00  0.00000000000E+00  0.71754100557E+02  0.71754100557E+02  0.00000000000E+00 0. -1.
         21   -1    0    0  501  502  0.00000000000E+00 -0.00000000000E+00 -0.43481235015E+02  0.43481235015E+02  0.00000000000E+00 0.  1.
         24    2    1    2    0    0  0.16241193930E+02 -0.16883116080E+02  0.35688378138E+02  0.90662875054E+02  0.79983001882E+02 0.  0.
        -13    1    3    3    0    0  0.37941848391E+02 -0.31724388417E+02  0.40514636308E+02  0.63933218555E+02  0.00000000000E+00 0.  1.
         14    1    3    3    0    0 -0.21700654461E+02  0.14841272337E+02 -0.48262581700E+01  0.26729656499E+02  0.00000000000E+00 0. -1.
          1    1    1    2  501    0 -0.16241193930E+02  0.16883116080E+02 -0.74155125956E+01  0.24572460517E+02  0.00000000000E+00 0. -1.
<mgrwt>
<rscale>  1 0.83343246E+02</rscale>
<asrwt>0</asrwt>
<pdfrwt beam="1">  1       21 0.66894208E-02 0.83343246E+02</pdfrwt>
<pdfrwt beam="2">  1        2 0.11039092E-01 0.83343246E+02</pdfrwt>
<totfact> 0.10326975E+06</totfact>
</mgrwt>
</event>
<event>
 6    2  0.9453093E+000  0.8236123E+02  0.7546771E-02  0.1322481E+00
          2   -1    0    0  502    0 -0.00000000000E+00  0.00000000000E+00  0.14744300402E+04  0.14744300402E+04  0.00000000000E+00 0. -1.
         21   -1    0    0  501  502  0.00000000000E+00 -0.00000000000E+00 -0.20092328613E+01  0.20092328613E+01  0.00000000000E+00 0. -1.
         24    2    1    2    0    0  0.18387366177E+02 -0.10342714971E+02  0.13197909516E+04  0.13223583208E+04  0.79613476670E+02 0.  0.
        -13    1    3    3    0    0 -0.31465449883E+02 -0.59696611259E+01  0.57016063981E+03  0.57105942474E+03  0.00000000000E+00 0.  1.
         14    1    3    3    0    0  0.49852816060E+02 -0.43730538451E+01  0.74963031178E+03  0.75129889605E+03  0.00000000000E+00 0. -1.
          1    1    1    2  501    0 -0.18387366177E+02  0.10342714971E+02  0.15262985573E+03  0.15408095226E+03  0.00000000000E+00 0. -1.
<mgrwt>
<rscale>  1 0.82361233E+02</rscale>
<asrwt>0</asrwt>
<pdfrwt beam="1">  1       21 0.30911393E-03 0.82361233E+02</pdfrwt>
<pdfrwt beam="2">  1        2 0.22683452E+00 0.82361233E+02</pdfrwt>
<totfact> 0.39712713E+06</totfact>
</mgrwt>
</event>
<event>
 6    2  0.9453093E+000  0.1076806E+03  0.7546771E-02  0.1264926E+00
         21   -1    0    0  501  502  0.00000000000E+00  0.00000000000E+00  0.39744919145E+02  0.39744919145E+02  0.00000000000E+00 0. -1.
          2   -1    0    0  502    0 -0.00000000000E+00 -0.00000000000E+00 -0.25691920746E+03  0.25691920746E+03  0.00000000000E+00 0. -1.
         24    2    1    2    0    0  0.23837752746E+02  0.70009544416E+02 -0.18900001825E+03  0.21752270724E+03  0.78265870607E+02 0.  0.
        -11    1    3    3    0    0 -0.10744545687E+02  0.12785702432E+00  0.22598802809E+01  0.10980376511E+02  0.00000000000E+00 0.  1.
         12    1    3    3    0    0  0.34582298433E+02  0.69881687391E+02 -0.19125989853E+03  0.20654233073E+03  0.00000000000E+00 0. -1.
          1    1    1    2  501    0 -0.23837752746E+02 -0.70009544416E+02 -0.28174270066E+02  0.79141419364E+02  0.00000000000E+00 0. -1.
<mgrwt>
<rscale>  1 0.10768064E+03</rscale>
<asrwt>0</asrwt>
<pdfrwt beam="1">  1       21 0.61146030E-02 0.10768064E+03</pdfrwt>
<pdfrwt beam="2">  1        2 0.39526031E-01 0.10768064E+03</pdfrwt>
<totfact> 0.29603133E+05</totfact>
</mgrwt>
</event>
<event>
 6    2  0.9453093E+000  0.1379078E+03  0.7546771E-02  0.1216172E+00
          4   -1    0    0  502    0 -0.00000000000E+00  0.00000000000E+00  0.30222702245E+03  0.30222702245E+03  0.00000000000E+00 0. -1.
         21   -1    0    0  501  502  0.00000000000E+00 -0.00000000000E+00 -0.54101463512E+02  0.54101463512E+02  0.00000000000E+00 0. -1.
         24    2    1    2    0    0 -0.10625964930E+03 -0.34094216456E+02  0.97611951248E+02  0.16895753100E+03  0.81024845499E+02 0.  0.
        -13    1    3    3    0    0 -0.20454756029E+01 -0.29805408031E+02  0.67498214202E+01  0.30628522778E+02  0.00000000000E+00 0.  1.
         14    1    3    3    0    0 -0.10421417370E+03 -0.42888084247E+01  0.90862129828E+02  0.13832900822E+03  0.00000000000E+00 0. -1.
          3    1    1    2  501    0  0.10625964930E+03  0.34094216456E+02  0.15051360769E+03  0.18737095497E+03  0.00000000000E+00 0. -1.
<mgrwt>
<rscale>  1 0.13790777E+03</rscale>
<asrwt>0</asrwt>
<pdfrwt beam="1">  1       21 0.83233022E-02 0.13790777E+03</pdfrwt>
<pdfrwt beam="2">  1        4 0.46496464E-01 0.13790777E+03</pdfrwt>
<totfact> 0.20538867E+04</totfact>
</mgrwt>
</event>
<event>
 6    2  0.9453093E+000  0.8637274E+02  0.7546771E-02  0.1311881E+00
         -1   -1    0    0    0  501 -0.00000000000E+00  0.00000000000E+00  0.38654082569E+02  0.38654082569E+02  0.00000000000E+00 0.  1.
         21   -1    0    0  501  502  0.00000000000E+00 -0.00000000000E+00 -0.98815815382E+02  0.98815815382E+02  0.00000000000E+00 0. -1.
         24    2    1    2    0    0  0.27162318257E+02 -0.13301532869E+02 -0.22666951738E+02  0.89297489690E+02  0.80904441498E+02 0.  0.
        -13    1    3    3    0    0  0.48500720743E+02 -0.28046717556E+02 -0.18791296774E+01  0.56057732800E+02  0.00000000000E+00 0.  1.
         14    1    3    3    0    0 -0.21338402486E+02  0.14745184687E+02 -0.20787822061E+02  0.33239756891E+02  0.00000000000E+00 0. -1.
         -2    1    1    2    0  502 -0.27162318257E+02  0.13301532869E+02 -0.37494781075E+02  0.48172408260E+02  0.00000000000E+00 0.  1.
<mgrwt>
<rscale>  1 0.86372744E+02</rscale>
<asrwt>0</asrwt>
<pdfrwt beam="1">  1       21 0.15202433E-01 0.86372744E+02</pdfrwt>
<pdfrwt beam="2">  1       -1 0.59467821E-02 0.86372744E+02</pdfrwt>
<totfact> 0.42763247E+05</totfact>
</mgrwt>
</event>
<event>
 6    2  0.9453093E+000  0.8371500E+02  0.7546771E-02  0.1318828E+00
         21   -1    0    0  501  502  0.00000000000E+00  0.00000000000E+00  0.27151295537E+01  0.27151295537E+01  0.00000000000E+00 0. -1.
          2   -1    0    0  502    0 -0.00000000000E+00 -0.00000000000E+00 -0.10302956836E+04  0.10302956836E+04  0.00000000000E+00 0. -1.
         24    2    1    2    0    0  0.17416506684E+01  0.21473307309E+02 -0.85573032488E+03  0.85981543926E+03  0.80895391685E+02 0.  0.
        -13    1    3    3    0    0  0.27740486305E+02  0.98042089619E+01 -0.12074883908E+03  0.12428169307E+03  0.00000000000E+00 0.  1.
         14    1    3    3    0    0 -0.25998835637E+02  0.11669098347E+02 -0.73498148581E+03  0.73553374619E+03  0.00000000000E+00 0. -1.
          1    1    1    2  501    0 -0.17416506684E+01 -0.21473307309E+02 -0.17185022916E+03  0.17319537388E+03  0.00000000000E+00 0. -1.
<mgrwt>
<rscale>  1 0.83714997E+02</rscale>
<asrwt>0</asrwt>
<pdfrwt beam="1">  1       21 0.41771134E-03 0.83714997E+02</pdfrwt>
<pdfrwt beam="2">  1        2 0.15850737E+00 0.83714997E+02</pdfrwt>
<totfact> 0.43598498E+06</totfact>
</mgrwt>
</event>
<event>
 6    2  0.9453093E+000  0.9086455E+02  0.7546771E-02  0.1300771E+00
         21   -1    0    0  501  502  0.00000000000E+00  0.00000000000E+00  0.30653749906E+02  0.30653749906E+02  0.00000000000E+00 0. -1.
          2   -1    0    0  502    0 -0.00000000000E+00 -0.00000000000E+00 -0.83693594331E+03  0.83693594331E+03  0.00000000000E+00 0. -1.
         24    2    1    2    0    0 -0.41090299063E+02 -0.10575683535E+02 -0.81842757456E+03  0.82345616806E+03  0.80349910773E+02 0.  0.
        -13    1    3    3    0    0  0.16259593101E+02  0.19842443844E+02 -0.20312700502E+03  0.20474051166E+03  0.00000000000E+00 0.  1.
         14    1    3    3    0    0 -0.57349892164E+02 -0.30418127379E+02 -0.61530056954E+03  0.61871565640E+03  0.00000000000E+00 0. -1.
          1    1    1    2  501    0  0.41090299063E+02  0.10575683535E+02  0.12145381154E+02  0.44133525156E+02  0.00000000000E+00 0. -1.
<mgrwt>
<rscale>  1 0.90864547E+02</rscale>
<asrwt>0</asrwt>
<pdfrwt beam="1">  1       21 0.47159621E-02 0.90864547E+02</pdfrwt>
<pdfrwt beam="2">  1        2 0.12875936E+00 0.90864547E+02</pdfrwt>
<totfact> 0.12402723E+05</totfact>
</mgrwt>
</event>
<event>
 6    2  0.9453093E+000  0.8929455E+02  0.7546771E-02  0.1304569E+00
          2   -1    0    0  502    0 -0.00000000000E+00  0.00000000000E+00  0.21279521468E+04  0.21279521468E+04  0.00000000000E+00 0. -1.
         21   -1    0    0  501  502  0.00000000000E+00 -0.00000000000E+00 -0.22997515026E+01  0.22997515026E+01  0.00000000000E+00 0. -1.
         24    2    1    2    0    0  0.40431566474E+02 -0.16428428539E+01  0.17801155534E+04  0.17823537529E+04  0.79599662978E+02 0.  0.
        -13    1    3    3    0    0 -0.73703282939E+01 -0.22920552467E+02  0.21153439724E+03  0.21290015190E+03  0.00000000000E+00 0.  1.
         14    1    3    3    0    0  0.47801894767E+02  0.21277709613E+02  0.15685811562E+04  0.15694536010E+04  0.00000000000E+00 0. -1.
          1    1    1    2  501    0 -0.40431566474E+02  0.16428428539E+01  0.34553684192E+03  0.34789814548E+03  0.00000000000E+00 0. -1.
<mgrwt>
<rscale>  1 0.89294551E+02</rscale>
<asrwt>0</asrwt>
<pdfrwt beam="1">  1       21 0.35380963E-03 0.89294551E+02</pdfrwt>
<pdfrwt beam="2">  1        2 0.32737568E+00 0.89294551E+02</pdfrwt>
<totfact> 0.15288943E+06</totfact>
</mgrwt>
</event>
<event>
 6    2  0.9453093E+000  0.8292329E+02  0.7546771E-02  0.1320954E+00
          2   -1    0    0  502    0 -0.00000000000E+00  0.00000000000E+00  0.35587083657E+03  0.35587083657E+03  0.00000000000E+00 0. -1.
         21   -1    0    0  501  502  0.00000000000E+00 -0.00000000000E+00 -0.14435421309E+02  0.14435421309E+02  0.00000000000E+00 0. -1.
         24    2    1    2    0    0  0.60950233611E+01 -0.24006022599E+02  0.33444382404E+03  0.34457066427E+03  0.79138061688E+02 0.  0.
        -13    1    3    3    0    0  0.21817544269E+02 -0.23199866194E+02  0.47457740928E+02  0.57153094434E+02  0.00000000000E+00 0.  1.
         14    1    3    3    0    0 -0.15722520908E+02 -0.80615640459E+00  0.28698608311E+03  0.28741756983E+03  0.00000000000E+00 0. -1.
          1    1    1    2  501    0 -0.60950233611E+01  0.24006022599E+02  0.69915912304E+01  0.25735593615E+02  0.00000000000E+00 0. -1.
<mgrwt>
<rscale>  1 0.82923285E+02</rscale>
<asrwt>0</asrwt>
<pdfrwt beam="1">  1       21 0.22208343E-02 0.82923285E+02</pdfrwt>
<pdfrwt beam="2">  1        2 0.54749353E-01 0.82923285E+02</pdfrwt>
<totfact> 0.10869658E+06</totfact>
</mgrwt>
</event>
<event>
 6    2  0.9453093E+000  0.9297580E+02  0.7546771E-02  0.1295801E+00
          2   -1    0    0  502    0 -0.00000000000E+00  0.00000000000E+00  0.57283336230E+03  0.57283336230E+03  0.00000000000E+00 0. -1.
         21   -1    0    0  501  502  0.00000000000E+00 -0.00000000000E+00 -0.87944859509E+01  0.87944859509E+01  0.00000000000E+00 0. -1.
         24    2    1    2    0    0 -0.19120728836E+02 -0.43250196954E+02  0.41407154276E+03  0.42438159884E+03  0.80051965051E+02 0.  0.
        -11    1    3    3    0    0 -0.48258961190E+01  0.19917299927E+02  0.42205636895E+02  0.46918055112E+02  0.00000000000E+00 0.  1.
         12    1    3    3    0    0 -0.14294832717E+02 -0.63167496881E+02  0.37186590586E+03  0.37746354373E+03  0.00000000000E+00 0. -1.
          1    1    1    2  501    0  0.19120728836E+02  0.43250196954E+02  0.14996733359E+03  0.15724624940E+03  0.00000000000E+00 0. -1.
<mgrwt>
<rscale>  1 0.92975797E+02</rscale>
<asrwt>0</asrwt>
<pdfrwt beam="1">  1       21 0.13529983E-02 0.92975797E+02</pdfrwt>
<pdfrwt beam="2">  1        2 0.88128180E-01 0.92975797E+02</pdfrwt>
<totfact> 0.14552640E+06</totfact>
</mgrwt>
</event>
<event>
 6    2  0.9453093E+000  0.8542312E+02  0.7546771E-02  0.1314330E+00
          2   -1    0    0  502    0 -0.00000000000E+00  0.00000000000E+00  0.13633168355E+04  0.13633168355E+04  0.00000000000E+00 0. -1.
         21   -1    0    0  501  502  0.00000000000E+00 -0.00000000000E+00 -0.22217190926E+01  0.22217190926E+01  0.00000000000E+00 0.  1.
         24    2    1    2    0    0 -0.12143180860E+02  0.18513969807E+02  0.94434854401E+03  0.94820424074E+03  0.82503852343E+02 0.  0.
        -11    1    3    3    0    0  0.13157716502E+02 -0.13825048385E+02  0.61318136025E+02  0.64219710930E+02  0.00000000000E+00 0.  1.
         12    1    3    3    0    0 -0.25300897362E+02  0.32339018192E+02  0.88303040799E+03  0.88398452981E+03  0.00000000000E+00 0. -1.
          1    1    1    2  501    0  0.12143180860E+02 -0.18513969807E+02  0.41674657243E+03  0.41733431389E+03  0.00000000000E+00 0. -1.
<mgrwt>
<rscale>  1 0.85423121E+02</rscale>
<asrwt>0</asrwt>
<pdfrwt beam="1">  1       21 0.34180403E-03 0.85423121E+02</pdfrwt>
<pdfrwt beam="2">  1        2 0.20974038E+00 0.85423121E+02</pdfrwt>
<totfact> 0.39054837E+06</totfact>
</mgrwt>
</event>
<event>
 6    2  0.9453093E+000  0.1185227E+03  0.7546771E-02  0.1245554E+00
          2   -1    0    0  502    0 -0.00000000000E+00  0.00000000000E+00  0.11353384405E+04  0.11353384405E+04  0.00000000000E+00 0. -1.
         21   -1    0    0  501  502  0.00000000000E+00 -0.00000000000E+00 -0.25870495538E+02  0.25870495538E+02  0.00000000000E+00 0. -1.
         24    2    1    2    0    0 -0.86846615182E+02 -0.18373245725E+01  0.10482728455E+04  0.10549519338E+04  0.80634444419E+02 0.  0.
        -11    1    3    3    0    0  0.78261231879E+01  0.13106972585E+02  0.55434044605E+02  0.57497602000E+02  0.00000000000E+00 0.  1.
         12    1    3    3    0    0 -0.94672738370E+02 -0.14944297158E+02  0.99283880089E+03  0.99745433176E+03  0.00000000000E+00 0. -1.
          1    1    1    2  501    0  0.86846615182E+02  0.18373245725E+01  0.61195099438E+02  0.10625700224E+03  0.00000000000E+00 0. -1.
<mgrwt>
<rscale>  1 0.11852267E+03</rscale>
<asrwt>0</asrwt>
<pdfrwt beam="1">  1       21 0.39800771E-02 0.11852267E+03</pdfrwt>
<pdfrwt beam="2">  1        2 0.17466741E+00 0.11852267E+03</pdfrwt>
<totfact> 0.10961295E+05</totfact>
</mgrwt>
</event>
<event>
 6    2  0.9453093E+000  0.8257453E+02  0.7546771E-02  0.1321900E+00
         -3   -1    0    0    0  501 -0.00000000000E+00  0.00000000000E+00  0.22302094821E+01  0.22302094821E+01  0.00000000000E+00 0.  1.
         21   -1    0    0  501  502  0.00000000000E+00 -0.00000000000E+00 -0.13179772031E+04  0.13179772031E+04  0.00000000000E+00 0. -1.
         24    2    1    2    0    0  0.11105022700E+01 -0.23224256093E+02 -0.88872487831E+03  0.89255277827E+03  0.79233536994E+02 0.  0.
        -13    1    3    3    0    0  0.71983505167E+01 -0.26848200015E+00 -0.56401344850E+01  0.91487403370E+01  0.00000000000E+00 0.  1.
         14    1    3    3    0    0 -0.60878482466E+01 -0.22955774093E+02 -0.88308474382E+03  0.88340403793E+03  0.00000000000E+00 0. -1.
         -4    1    1    2    0  502 -0.11105022700E+01  0.23224256093E+02 -0.42702211532E+03  0.42765463433E+03  0.00000000000E+00 0.  1.
<mgrwt>
<rscale>  1 0.82574528E+02</rscale>
<asrwt>0</asrwt>
<pdfrwt beam="1">  1       21 0.20276514E+00 0.82574528E+02</pdfrwt>
<pdfrwt beam="2">  1       -3 0.34311014E-03 0.82574528E+02</pdfrwt>
<totfact> 0.81658641E+04</totfact>
</mgrwt>
</event>
<event>
 6    2  0.9453093E+000  0.9111219E+02  0.7546771E-02  0.1300180E+00
          2   -1    0    0  502    0 -0.00000000000E+00  0.00000000000E+00  0.30981559414E+03  0.30981559414E+03  0.00000000000E+00 0. -1.
         21   -1    0    0  501  502  0.00000000000E+00 -0.00000000000E+00 -0.17273390671E+02  0.17273390671E+02  0.00000000000E+00 0. -1.
         24    2    1    2    0    0  0.34026573574E+02  0.10995974598E+02  0.26965704612E+03  0.28463371902E+03  0.83801624772E+02 0.  0.
        -11    1    3    3    0    0 -0.25657861084E+02  0.42919655682E+01  0.43945349761E+02  0.51067999466E+02  0.00000000000E+00 0.  1.
         12    1    3    3    0    0  0.59684434658E+02  0.67040090302E+01  0.22571169636E+03  0.23356571955E+03  0.00000000000E+00 0. -1.
          1    1    1    2  501    0 -0.34026573574E+02 -0.10995974598E+02  0.22885157349E+02  0.42455265792E+02  0.00000000000E+00 0. -1.
<mgrwt>
<rscale>  1 0.91112192E+02</rscale>
<asrwt>0</asrwt>
<pdfrwt beam="1">  1       21 0.26574449E-02 0.91112192E+02</pdfrwt>
<pdfrwt beam="2">  1        2 0.47663934E-01 0.91112192E+02</pdfrwt>
<totfact> 0.95027897E+05</totfact>
</mgrwt>
</event>
<event>
 6    2  0.9453093E+000  0.8402048E+02  0.7546771E-02  0.1318014E+00
          2   -1    0    0  502    0 -0.00000000000E+00  0.00000000000E+00  0.24538198323E+04  0.24538198323E+04  0.00000000000E+00 0. -1.
         21   -1    0    0  501  502  0.00000000000E+00 -0.00000000000E+00 -0.12793061681E+01  0.12793061681E+01  0.00000000000E+00 0.  1.
         24    2    1    2    0    0 -0.15027739696E+02  0.16605193558E+02  0.21878895693E+04  0.21895022741E+04  0.80980710028E+02 0.  0.
        -13    1    3    3    0    0 -0.26590054646E+02  0.14081742917E+02  0.28645746981E+03  0.28803334616E+03  0.00000000000E+00 0.  1.
         14    1    3    3    0    0  0.11562314950E+02  0.25234506412E+01  0.19014320995E+04  0.19014689279E+04  0.00000000000E+00 0. -1.
          1    1    1    2  501    0  0.15027739696E+02 -0.16605193558E+02  0.26465095685E+03  0.26559686439E+03  0.00000000000E+00 0. -1.
<mgrwt>
<rscale>  1 0.84020479E+02</rscale>
<asrwt>0</asrwt>
<pdfrwt beam="1">  1       21 0.19681830E-03 0.84020479E+02</pdfrwt>
<pdfrwt beam="2">  1        2 0.37750698E+00 0.84020479E+02</pdfrwt>
<totfact> 0.25107135E+06</totfact>
</mgrwt>
</event>
<event>
 6    2  0.9453093E+000  0.8937740E+02  0.7546771E-02  0.1304366E+00
         21   -1    0    0  501  502  0.00000000000E+00  0.00000000000E+00  0.66285459587E+01  0.66285459587E+01  0.00000000000E+00 0. -1.
         -1   -1    0    0    0  501 -0.00000000000E+00 -0.00000000000E+00 -0.67110142524E+03  0.67110142524E+03  0.00000000000E+00 0.  1.
         24    2    1    2    0    0 -0.25706545577E+02  0.29208277471E+02 -0.36716638391E+03  0.37788817600E+03  0.80463470770E+02 0.  0.
        -11    1    3    3    0    0  0.13211361416E+02  0.43000929811E+02 -0.24022122092E+03  0.24439692104E+03  0.00000000000E+00 0.  1.
         12    1    3    3    0    0 -0.38917906993E+02 -0.13792652340E+02 -0.12694516299E+03  0.13349125496E+03  0.00000000000E+00 0. -1.
         -2    1    1    2    0  502  0.25706545577E+02 -0.29208277471E+02 -0.29730649537E+03  0.29984179520E+03  0.00000000000E+00 0.  1.
<mgrwt>
<rscale>  1 0.89377403E+02</rscale>
<asrwt>0</asrwt>
<pdfrwt beam="1">  1       21 0.10197760E-02 0.89377403E+02</pdfrwt>
<pdfrwt beam="2">  1       -1 0.10324641E+00 0.89377403E+02</pdfrwt>
<totfact> 0.30286146E+05</totfact>
</mgrwt>
</event>
<event>
 6    2  0.9453093E+000  0.8952040E+02  0.7546771E-02  0.1304017E+00
         21   -1    0    0  501  502  0.00000000000E+00  0.00000000000E+00  0.47501510484E+01  0.47501510484E+01  0.00000000000E+00 0.  1.
          2   -1    0    0  502    0 -0.00000000000E+00 -0.00000000000E+00 -0.85183313782E+03  0.85183313782E+03  0.00000000000E+00 0. -1.
         24    2    1    2    0    0 -0.28317112878E+02  0.24270370602E+02 -0.62804192907E+03  0.63438991649E+03  0.81381765159E+02 0.  0.
        -13    1    3    3    0    0  0.90635404732E+01  0.44836265309E+02 -0.27486162683E+03  0.27864197881E+03  0.00000000000E+00 0.  1.
         14    1    3    3    0    0 -0.37380653351E+02 -0.20565894707E+02 -0.35318030224E+03  0.35574793768E+03  0.00000000000E+00 0. -1.
          1    1    1    2  501    0  0.28317112878E+02 -0.24270370602E+02 -0.21904105770E+03  0.22219337238E+03  0.00000000000E+00 0. -1.
<mgrwt>
<rscale>  1 0.89520397E+02</rscale>
<asrwt>0</asrwt>
<pdfrwt beam="1">  1       21 0.73079222E-03 0.89520397E+02</pdfrwt>
<pdfrwt beam="2">  1        2 0.13105130E+00 0.89520397E+02</pdfrwt>
<totfact> 0.23858990E+06</totfact>
</mgrwt>
</event>
<event>
 6    2  0.9453093E+000  0.9056002E+02  0.7546771E-02  0.1301501E+00
          2   -1    0    0  502    0 -0.00000000000E+00  0.00000000000E+00  0.43568252496E+03  0.43568252496E+03  0.00000000000E+00 0. -1.
         21   -1    0    0  501  502  0.00000000000E+00 -0.00000000000E+00 -0.11589734881E+02  0.11589734881E+02  0.00000000000E+00 0. -1.
         24    2    1    2    0    0 -0.40759640909E+02  0.96955880527E+01  0.35586790248E+03  0.36720985891E+03  0.80285513709E+02 0.  0.
        -11    1    3    3    0    0 -0.43575156832E+02 -0.13683477047E+02  0.96364848175E+02  0.10664059171E+03  0.00000000000E+00 0.  1.
         12    1    3    3    0    0  0.28155159233E+01  0.23379065100E+02  0.25950305431E+03  0.26056926720E+03  0.00000000000E+00 0. -1.
          1    1    1    2  501    0  0.40759640909E+02 -0.96955880527E+01  0.68224887599E+02  0.80062400930E+02  0.00000000000E+00 0. -1.
<mgrwt>
<rscale>  1 0.90560016E+02</rscale>
<asrwt>0</asrwt>
<pdfrwt beam="1">  1       21 0.17830365E-02 0.90560016E+02</pdfrwt>
<pdfrwt beam="2">  1        2 0.67028068E-01 0.90560016E+02</pdfrwt>
<totfact> 0.12598114E+06</totfact>
</mgrwt>
</event>
<event>
 6    2  0.9453093E+000  0.8237939E+02  0.7546771E-02  0.1322432E+00
         21   -1    0    0  501  502  0.00000000000E+00  0.00000000000E+00  0.19473655458E+01  0.19473655458E+01  0.00000000000E+00 0.  1.
          2   -1    0    0  502    0 -0.00000000000E+00 -0.00000000000E+00 -0.15054545362E+04  0.15054545362E+04  0.00000000000E+00 0. -1.
         24    2    1    2    0    0  0.22091395596E+02 -0.56079898811E+01 -0.13034393573E+04  0.13060400154E+04  0.79163656463E+02 0.  0.
        -11    1    3    3    0    0  0.48442648329E+02 -0.17618609268E+02 -0.95950247652E+03  0.96088610564E+03  0.00000000000E+00 0.  1.
         12    1    3    3    0    0 -0.26351252733E+02  0.12010619387E+02 -0.34393688073E+03  0.34515390976E+03  0.00000000000E+00 0. -1.
          1    1    1    2  501    0 -0.22091395596E+02  0.56079898811E+01 -0.20006781341E+03  0.20136188635E+03  0.00000000000E+00 0. -1.
<mgrwt>
<rscale>  1 0.82379390E+02</rscale>
<asrwt>0</asrwt>
<pdfrwt beam="1">  1       21 0.29959435E-03 0.82379390E+02</pdfrwt>
<pdfrwt beam="2">  1        2 0.23160866E+00 0.82379390E+02</pdfrwt>
<totfact> 0.40146949E+06</totfact>
</mgrwt>
</event>
<event>
 6    2  0.9453093E+000  0.8513278E+02  0.7546771E-02  0.1315086E+00
          2   -1    0    0  502    0 -0.00000000000E+00  0.00000000000E+00  0.48684247524E+03  0.48684247524E+03  0.00000000000E+00 0. -1.
         21   -1    0    0  501  502  0.00000000000E+00 -0.00000000000E+00 -0.93569518096E+01  0.93569518096E+01  0.00000000000E+00 0.  1.
         24    2    1    2    0    0 -0.22022417681E+02 -0.53377749096E+01  0.45935936068E+03  0.46718156191E+03  0.82061628177E+02 0.  0.
        -11    1    3    3    0    0  0.13699185118E+02 -0.31761488507E+02  0.11871368263E+03  0.12365030638E+03  0.00000000000E+00 0.  1.
         12    1    3    3    0    0 -0.35721602799E+02  0.26423713597E+02  0.34064567806E+03  0.34353125553E+03  0.00000000000E+00 0. -1.
          1    1    1    2  501    0  0.22022417681E+02  0.53377749096E+01  0.18126162752E+02  0.29017865145E+02  0.00000000000E+00 0. -1.
<mgrwt>
<rscale>  1 0.85132776E+02</rscale>
<asrwt>0</asrwt>
<pdfrwt beam="1">  1       21 0.14395314E-02 0.85132776E+02</pdfrwt>
<pdfrwt beam="2">  1        2 0.74898823E-01 0.85132776E+02</pdfrwt>
<totfact> 0.15608520E+06</totfact>
</mgrwt>
</event>
<event>
 6    2  0.9453093E+000  0.1022075E+03  0.7546771E-02  0.1275721E+00
          2   -1    0    0  502    0 -0.00000000000E+00  0.00000000000E+00  0.19491379097E+04  0.19491379097E+04  0.00000000000E+00 0. -1.
         21   -1    0    0  501  502  0.00000000000E+00 -0.00000000000E+00 -0.39387359232E+01  0.39387359232E+01  0.00000000000E+00 0. -1.
         24    2    1    2    0    0 -0.62845948510E+02 -0.10553035664E+01  0.14978864142E+04  0.15013694044E+04  0.80595605694E+02 0.  0.
        -11    1    3    3    0    0 -0.45022623279E+02  0.17809575854E+02  0.36637064655E+03  0.36955604210E+03  0.00000000000E+00 0.  1.
         12    1    3    3    0    0 -0.17823325231E+02 -0.18864879420E+02  0.11315157677E+04  0.11318133623E+04  0.00000000000E+00 0. -1.
          1    1    1    2  501    0  0.62845948510E+02  0.10553035664E+01  0.44731275951E+03  0.45170724117E+03  0.00000000000E+00 0. -1.
<mgrwt>
<rscale>  1 0.10220753E+03</rscale>
<asrwt>0</asrwt>
<pdfrwt beam="1">  1       21 0.60596093E-03 0.10220753E+03</pdfrwt>
<pdfrwt beam="2">  1        2 0.29986660E+00 0.10220753E+03</pdfrwt>
<totfact> 0.83098793E+05</totfact>
</mgrwt>
</event>
<event>
 6    2  0.9453093E+000  0.8433522E+02  0.7546771E-02  0.1317180E+00
          2   -1    0    0  502    0 -0.00000000000E+00  0.00000000000E+00  0.26055349769E+03  0.26055349769E+03  0.00000000000E+00 0. -1.
         21   -1    0    0  501  502  0.00000000000E+00 -0.00000000000E+00 -0.12049513879E+02  0.12049513879E+02  0.00000000000E+00 0.  1.
         24    2    1    2    0    0  0.32784542643E+01 -0.26388536416E+02  0.20422213451E+03  0.22095046765E+03  0.80033279398E+02 0.  0.
        -11    1    3    3    0    0 -0.80770532827E+01 -0.44470599879E+02  0.18998443413E+03  0.19528686145E+03  0.00000000000E+00 0.  1.
         12    1    3    3    0    0  0.11355507547E+02  0.18082063464E+02  0.14237700384E+02  0.25663606196E+02  0.00000000000E+00 0. -1.
          1    1    1    2  501    0 -0.32784542643E+01  0.26388536416E+02  0.44281849293E+02  0.51652543919E+02  0.00000000000E+00 0. -1.
<mgrwt>
<rscale>  1 0.84335218E+02</rscale>
<asrwt>0</asrwt>
<pdfrwt beam="1">  1       21 0.18537716E-02 0.84335218E+02</pdfrwt>
<pdfrwt beam="2">  1        2 0.40085149E-01 0.84335218E+02</pdfrwt>
<totfact> 0.20116833E+06</totfact>
</mgrwt>
</event>
<event>
 6    2  0.9453093E+000  0.8408702E+02  0.7546771E-02  0.1317837E+00
         -1   -1    0    0    0  501 -0.00000000000E+00  0.00000000000E+00  0.53400436229E+03  0.53400436229E+03  0.00000000000E+00 0.  1.
         21   -1    0    0  501  502  0.00000000000E+00 -0.00000000000E+00 -0.10136811662E+03  0.10136811662E+03  0.00000000000E+00 0.  1.
         24    2    1    2    0    0  0.11896615053E+02  0.22502250183E+02  0.52903194482E+03  0.53567287246E+03  0.80142042235E+02 0.  0.
        -11    1    3    3    0    0  0.42342356221E+02  0.30906419472E+02  0.31865261275E+03  0.32293585974E+03  0.00000000000E+00 0.  1.
         12    1    3    3    0    0 -0.30445741168E+02 -0.84041692898E+01  0.21037933207E+03  0.21273701272E+03  0.00000000000E+00 0. -1.
         -2    1    1    2    0  502 -0.11896615053E+02 -0.22502250183E+02 -0.96395699153E+02  0.99699606459E+02  0.00000000000E+00 0.  1.
<mgrwt>
<rscale>  1 0.84087024E+02</rscale>
<asrwt>0</asrwt>
<pdfrwt beam="1">  1       21 0.15595095E-01 0.84087024E+02</pdfrwt>
<pdfrwt beam="2">  1       -1 0.82154516E-01 0.84087024E+02</pdfrwt>
<totfact> 0.53774681E+03</totfact>
</mgrwt>
</event>
<event>
 6    2  0.9453093E+000  0.8646252E+02  0.7546771E-02  0.1311652E+00
         21   -1    0    0  501  502  0.00000000000E+00  0.00000000000E+00  0.20512482093E+02  0.20512482093E+02  0.00000000000E+00 0.  1.
         -1   -1    0    0    0  501 -0.00000000000E+00 -0.00000000000E+00 -0.47449299596E+03  0.47449299596E+03  0.00000000000E+00 0.  1.
         24    2    1    2    0    0  0.13218652934E+02  0.19234223475E+02 -0.46223360371E+03  0.47025064762E+03  0.83253102333E+02 0.  0.
        -11    1    3    3    0    0  0.30559066174E+02  0.44888058331E+02 -0.33014965410E+03  0.33458569666E+03  0.00000000000E+00 0.  1.
         12    1    3    3    0    0 -0.17340413241E+02 -0.25653834856E+02 -0.13208394961E+03  0.13566495096E+03  0.00000000000E+00 0. -1.
         -2    1    1    2    0  502 -0.13218652934E+02 -0.19234223475E+02  0.82530898406E+01  0.24754830438E+02  0.00000000000E+00 0.  1.
<mgrwt>
<rscale>  1 0.86462519E+02</rscale>
<asrwt>0</asrwt>
<pdfrwt beam="1">  1       21 0.31557668E-02 0.86462519E+02</pdfrwt>
<pdfrwt beam="2">  1       -1 0.72998915E-01 0.86462519E+02</pdfrwt>
<totfact> 0.10265109E+05</totfact>
</mgrwt>
</event>
<event>
 6    2  0.9453093E+000  0.8465577E+02  0.7546771E-02  0.1316335E+00
         21   -1    0    0  501  502  0.00000000000E+00  0.00000000000E+00  0.73746667351E+01  0.73746667351E+01  0.00000000000E+00 0. -1.
          2   -1    0    0  502    0 -0.00000000000E+00 -0.00000000000E+00 -0.12840292389E+04  0.12840292389E+04  0.00000000000E+00 0. -1.
         24    2    1    2    0    0 -0.12390698178E+02  0.24799060162E+02 -0.12502705703E+04  0.12531333119E+04  0.79987972610E+02 0.  0.
        -13    1    3    3    0    0 -0.32959813839E+02  0.25474016728E+02 -0.32819504246E+03  0.33082814383E+03  0.00000000000E+00 0.  1.
         14    1    3    3    0    0  0.20569115661E+02 -0.67495656538E+00 -0.92207552784E+03  0.92230516811E+03  0.00000000000E+00 0. -1.
          1    1    1    2  501    0  0.12390698178E+02 -0.24799060162E+02 -0.26384001835E+02  0.38270593660E+02  0.00000000000E+00 0. -1.
<mgrwt>
<rscale>  1 0.84655765E+02</rscale>
<asrwt>0</asrwt>
<pdfrwt beam="1">  1       21 0.11345630E-02 0.84655765E+02</pdfrwt>
<pdfrwt beam="2">  1        2 0.19754316E+00 0.84655765E+02</pdfrwt>
<totfact> 0.67696846E+05</totfact>
</mgrwt>
</event>
<event>
 6    2  0.9453093E+000  0.8468443E+02  0.7546771E-02  0.1316260E+00
          2   -1    0    0  502    0 -0.00000000000E+00  0.00000000000E+00  0.24625751181E+04  0.24625751181E+04  0.00000000000E+00 0. -1.
         21   -1    0    0  501  502  0.00000000000E+00 -0.00000000000E+00 -0.15657705604E+01  0.15657705604E+01  0.00000000000E+00 0. -1.
         24    2    1    2    0    0 -0.48054321024E+01 -0.21407277250E+02  0.23094113219E+04  0.23109634587E+04  0.81792968179E+02 0.  0.
        -11    1    3    3    0    0 -0.24725548691E+02  0.27916809945E+01  0.23468832758E+03  0.23600372315E+03  0.00000000000E+00 0.  1.
         12    1    3    3    0    0  0.19920116588E+02 -0.24198958245E+02  0.20747229944E+04  0.20749597355E+04  0.00000000000E+00 0. -1.
          1    1    1    2  501    0  0.48054321024E+01  0.21407277250E+02  0.15159802560E+03  0.15317743001E+03  0.00000000000E+00 0. -1.
<mgrwt>
<rscale>  1 0.84684434E+02</rscale>
<asrwt>0</asrwt>
<pdfrwt beam="1">  1       21 0.24088975E-03 0.84684434E+02</pdfrwt>
<pdfrwt beam="2">  1        2 0.37885461E+00 0.84684434E+02</pdfrwt>
<totfact> 0.18360670E+06</totfact>
</mgrwt>
</event>
<event>
 6    2  0.9453093E+000  0.8045090E+02  0.7546771E-02  0.1327777E+00
         21   -1    0    0  501  502  0.00000000000E+00  0.00000000000E+00  0.72731403420E+03  0.72731403420E+03  0.00000000000E+00 0. -1.
          2   -1    0    0  502    0 -0.00000000000E+00 -0.00000000000E+00 -0.58384220859E+02  0.58384220859E+02  0.00000000000E+00 0. -1.
         24    2    1    2    0    0 -0.89606810958E+01 -0.30387345307E+02 -0.30139663851E+02  0.85911274256E+02  0.73950410051E+02 0.  0.
        -11    1    3    3    0    0  0.31570007622E+02 -0.20232076958E+02 -0.21569369388E+02  0.43257831835E+02  0.00000000000E+00 0.  1.
         12    1    3    3    0    0 -0.40530688718E+02 -0.10155268349E+02 -0.85702944631E+01  0.42653442421E+02  0.00000000000E+00 0. -1.
          1    1    1    2  501    0  0.89606810958E+01  0.30387345307E+02  0.69906947719E+03  0.69978698081E+03  0.00000000000E+00 0. -1.
<mgrwt>
<rscale>  1 0.80450902E+02</rscale>
<asrwt>0</asrwt>
<pdfrwt beam="1">  1       21 0.11189446E+00 0.80450902E+02</pdfrwt>
<pdfrwt beam="2">  1        2 0.89821884E-02 0.80450902E+02</pdfrwt>
<totfact> 0.57773241E+03</totfact>
</mgrwt>
</event>
<event>
 6    2  0.9453093E+000  0.9579665E+02  0.7546771E-02  0.1289392E+00
         21   -1    0    0  501  502  0.00000000000E+00  0.00000000000E+00  0.11188924991E+02  0.11188924991E+02  0.00000000000E+00 0.  1.
          2   -1    0    0  502    0 -0.00000000000E+00 -0.00000000000E+00 -0.60932337140E+03  0.60932337140E+03  0.00000000000E+00 0. -1.
         24    2    1    2    0    0 -0.37485520068E+02  0.15911615527E+02 -0.21695046364E+03  0.23715923139E+03  0.86710170324E+02 0.  0.
        -13    1    3    3    0    0 -0.19160758252E+02  0.51902784539E+02 -0.12051972954E+03  0.13261236333E+03  0.00000000000E+00 0.  1.
         14    1    3    3    0    0 -0.18324761816E+02 -0.35991169013E+02 -0.96430734093E+02  0.10454686806E+03  0.00000000000E+00 0. -1.
          1    1    1    2  501    0  0.37485520068E+02 -0.15911615527E+02 -0.38118398277E+03  0.38335306500E+03  0.00000000000E+00 0. -1.
<mgrwt>
<rscale>  1 0.95796646E+02</rscale>
<asrwt>0</asrwt>
<pdfrwt beam="1">  1       21 0.17213724E-02 0.95796646E+02</pdfrwt>
<pdfrwt beam="2">  1        2 0.93742093E-01 0.95796646E+02</pdfrwt>
<totfact> 0.92961408E+05</totfact>
</mgrwt>
</event>
<event>
 6    2  0.9453093E+000  0.8080636E+02  0.7546771E-02  0.1326779E+00
          2   -1    0    0  502    0 -0.00000000000E+00  0.00000000000E+00  0.18485300386E+03  0.18485300386E+03  0.00000000000E+00 0. -1.
         21   -1    0    0  501  502  0.00000000000E+00 -0.00000000000E+00 -0.26524323975E+02  0.26524323975E+02  0.00000000000E+00 0. -1.
         24    2    1    2    0    0  0.14836281607E+02  0.14434686874E+02  0.16955753116E+03  0.18782817629E+03  0.78110127376E+02 0.  0.
        -11    1    3    3    0    0  0.19798151421E+01  0.26714071992E+02  0.12139966524E+02  0.29409863951E+02  0.00000000000E+00 0.  1.
         12    1    3    3    0    0  0.12856466464E+02 -0.12279385118E+02  0.15741756464E+03  0.15841831234E+03  0.00000000000E+00 0. -1.
          1    1    1    2  501    0 -0.14836281607E+02 -0.14434686874E+02 -0.11228851282E+02  0.23549151538E+02  0.00000000000E+00 0. -1.
<mgrwt>
<rscale>  1 0.80806358E+02</rscale>
<asrwt>0</asrwt>
<pdfrwt beam="1">  1       21 0.40806653E-02 0.80806358E+02</pdfrwt>
<pdfrwt beam="2">  1        2 0.28438923E-01 0.80806358E+02</pdfrwt>
<totfact> 0.80352411E+05</totfact>
</mgrwt>
</event>
<event>
 6    2  0.9453093E+000  0.1204676E+03  0.7546771E-02  0.1242328E+00
          2   -1    0    0  502    0 -0.00000000000E+00  0.00000000000E+00  0.33859008406E+03  0.33859008406E+03  0.00000000000E+00 0. -1.
         21   -1    0    0  501  502  0.00000000000E+00 -0.00000000000E+00 -0.97121960580E+02  0.97121960580E+02  0.00000000000E+00 0. -1.
         24    2    1    2    0    0  0.18803200550E+00  0.89231780559E+02  0.30383467149E+03  0.32684546423E+03  0.80932712021E+02 0.  0.
        -13    1    3    3    0    0  0.33324306963E+02  0.72390263357E+02  0.24106029661E+03  0.25389156399E+03  0.00000000000E+00 0.  1.
         14    1    3    3    0    0 -0.33136274957E+02  0.16841517203E+02  0.62774374878E+02  0.72953900246E+02  0.00000000000E+00 0. -1.
          1    1    1    2  501    0 -0.18803200550E+00 -0.89231780559E+02 -0.62366548010E+02  0.10886658040E+03  0.00000000000E+00 0. -1.
<mgrwt>
<rscale>  1 0.12046763E+03</rscale>
<asrwt>0</asrwt>
<pdfrwt beam="1">  1       21 0.14941840E-01 0.12046763E+03</pdfrwt>
<pdfrwt beam="2">  1        2 0.52090781E-01 0.12046763E+03</pdfrwt>
<totfact> 0.46941450E+04</totfact>
</mgrwt>
</event>
<event>
 6    2  0.9453093E+000  0.8619037E+02  0.7546771E-02  0.1312349E+00
         21   -1    0    0  501  502  0.00000000000E+00  0.00000000000E+00  0.38888843012E+01  0.38888843012E+01  0.00000000000E+00 0. -1.
          2   -1    0    0  502    0 -0.00000000000E+00 -0.00000000000E+00 -0.19896581923E+04  0.19896581923E+04  0.00000000000E+00 0. -1.
         24    2    1    2    0    0  0.97982810235E+01 -0.34226266631E+02 -0.18794551431E+04  0.18814304173E+04  0.78494181329E+02 0.  0.
        -11    1    3    3    0    0 -0.33553386891E+02 -0.22821904402E+02 -0.10203252035E+04  0.10211318181E+04  0.00000000000E+00 0.  1.
         12    1    3    3    0    0  0.43351667914E+02 -0.11404362229E+02 -0.85912993963E+03  0.86029859918E+03  0.00000000000E+00 0. -1.
          1    1    1    2  501    0 -0.97982810235E+01  0.34226266631E+02 -0.10631416483E+03  0.11211665926E+03  0.00000000000E+00 0. -1.
<mgrwt>
<rscale>  1 0.86190372E+02</rscale>
<asrwt>0</asrwt>
<pdfrwt beam="1">  1       21 0.59828868E-03 0.86190372E+02</pdfrwt>
<pdfrwt beam="2">  1        2 0.30610188E+00 0.86190372E+02</pdfrwt>
<totfact> 0.80275994E+05</totfact>
</mgrwt>
</event>
<event>
 6    2  0.9453093E+000  0.9522510E+02  0.7546771E-02  0.1290670E+00
         21   -1    0    0  501  502  0.00000000000E+00  0.00000000000E+00  0.88189219317E+02  0.88189219317E+02  0.00000000000E+00 0.  1.
          4   -1    0    0  502    0 -0.00000000000E+00 -0.00000000000E+00 -0.13155766346E+03  0.13155766346E+03  0.00000000000E+00 0. -1.
         24    2    1    2    0    0  0.42332861183E+02  0.27454336110E+02 -0.10390519600E+03  0.14094009353E+03  0.80758953079E+02 0.  0.
        -11    1    3    3    0    0  0.55841707686E+02  0.82340795636E+00 -0.35171648063E+02  0.66000145041E+02  0.00000000000E+00 0.  1.
         12    1    3    3    0    0 -0.13508846503E+02  0.26630928154E+02 -0.68733547934E+02  0.74939948491E+02  0.00000000000E+00 0. -1.
          3    1    1    2  501    0 -0.42332861183E+02 -0.27454336110E+02  0.60536751850E+02  0.78806789249E+02  0.00000000000E+00 0. -1.
<mgrwt>
<rscale>  1 0.95225103E+02</rscale>
<asrwt>0</asrwt>
<pdfrwt beam="1">  1       21 0.13567572E-01 0.95225103E+02</pdfrwt>
<pdfrwt beam="2">  1        4 0.20239640E-01 0.95225103E+02</pdfrwt>
<totfact> 0.40283433E+04</totfact>
</mgrwt>
</event>
<event>
 6    2  0.9453093E+000  0.7929607E+02  0.7546771E-02  0.1331061E+00
          2   -1    0    0  502    0 -0.00000000000E+00  0.00000000000E+00  0.63070357807E+03  0.63070357807E+03  0.00000000000E+00 0. -1.
         21   -1    0    0  501  502  0.00000000000E+00 -0.00000000000E+00 -0.45660859656E+01  0.45660859656E+01  0.00000000000E+00 0. -1.
         24    2    1    2    0    0  0.24139477198E+02 -0.11016088427E+02  0.51087578443E+03  0.51699316671E+03  0.74724820133E+02 0.  0.
        -11    1    3    3    0    0 -0.11515429575E+01  0.57184941346E+01  0.65277489273E+00  0.58696968756E+01  0.00000000000E+00 0.  1.
         12    1    3    3    0    0  0.25291020156E+02 -0.16734582562E+02  0.51022300954E+03  0.51112346984E+03  0.00000000000E+00 0. -1.
          1    1    1    2  501    0 -0.24139477198E+02  0.11016088427E+02  0.11526170767E+03  0.11827649733E+03  0.00000000000E+00 0. -1.
<mgrwt>
<rscale>  1 0.79296074E+02</rscale>
<asrwt>0</asrwt>
<pdfrwt beam="1">  1       21 0.70247526E-03 0.79296074E+02</pdfrwt>
<pdfrwt beam="2">  1        2 0.97031251E-01 0.79296074E+02</pdfrwt>
<totfact> 0.35678678E+06</totfact>
</mgrwt>
</event>
<event>
 6    2  0.9453093E+000  0.8688285E+02  0.7546771E-02  0.1310581E+00
          2   -1    0    0  502    0 -0.00000000000E+00  0.00000000000E+00  0.10721243580E+04  0.10721243580E+04  0.00000000000E+00 0. -1.
         21   -1    0    0  501  502  0.00000000000E+00 -0.00000000000E+00 -0.57938383245E+01  0.57938383245E+01  0.00000000000E+00 0.  1.
         24    2    1    2    0    0  0.59316070280E+01 -0.32883534101E+02  0.34355816546E+03  0.35437387370E+03  0.80200489608E+02 0.  0.
        -13    1    3    3    0    0 -0.26166810749E+02 -0.19898161662E+02  0.57547112430E+02  0.66274497141E+02  0.00000000000E+00 0.  1.
         14    1    3    3    0    0  0.32098417777E+02 -0.12985372439E+02  0.28601105303E+03  0.28809937656E+03  0.00000000000E+00 0. -1.
          1    1    1    2  501    0 -0.59316070280E+01  0.32883534101E+02  0.72277235424E+03  0.72354432264E+03  0.00000000000E+00 0. -1.
<mgrwt>
<rscale>  1 0.86882848E+02</rscale>
<asrwt>0</asrwt>
<pdfrwt beam="1">  1       21 0.89136059E-03 0.86882848E+02</pdfrwt>
<pdfrwt beam="2">  1        2 0.16494205E+00 0.86882848E+02</pdfrwt>
<totfact> 0.12902432E+06</totfact>
</mgrwt>
</event>
<event>
 6    2  0.1158092E+001  0.9810791E+02  0.7546771E-02  0.1284326E+00
         21   -1    0    0  501  502  0.00000000000E+00  0.00000000000E+00  0.63538369217E+01  0.63538369217E+01  0.00000000000E+00 0.  1.
         -1   -1    0    0    0  501 -0.00000000000E+00 -0.00000000000E+00 -0.95851446546E+03  0.95851446546E+03  0.00000000000E+00 0.  1.
         24    2    1    2    0    0 -0.29044674024E+02  0.47084105986E+02 -0.68950726031E+03  0.69645202499E+03  0.81022558405E+02 0.  0.
        -13    1    3    3    0    0 -0.48175153758E+02  0.44752454447E+02 -0.63930635154E+03  0.64267895464E+03  0.00000000000E+00 0.  1.
         14    1    3    3    0    0  0.19130479734E+02  0.23316515394E+01 -0.50200908768E+02  0.53773070350E+02  0.00000000000E+00 0. -1.
         -2    1    1    2    0  502  0.29044674024E+02 -0.47084105986E+02 -0.26265336823E+03  0.26841627739E+03  0.00000000000E+00 0.  1.
<mgrwt>
<rscale>  1 0.98107905E+02</rscale>
<asrwt>0</asrwt>
<pdfrwt beam="1">  1       21 0.97751289E-03 0.98107905E+02</pdfrwt>
<pdfrwt beam="2">  1       -1 0.14746384E+00 0.98107905E+02</pdfrwt>
<totfact> 0.14047214E+05</totfact>
</mgrwt>
</event>
<event>
 6    2  0.9453093E+000  0.1226339E+03  0.7546771E-02  0.1238814E+00
         21   -1    0    0  501  502  0.00000000000E+00  0.00000000000E+00  0.14705916027E+02  0.14705916027E+02  0.00000000000E+00 0. -1.
          2   -1    0    0  502    0 -0.00000000000E+00 -0.00000000000E+00 -0.16716973040E+04  0.16716973040E+04  0.00000000000E+00 0. -1.
         24    2    1    2    0    0 -0.18899090390E+02  0.89942676051E+02 -0.14960543944E+04  0.15010722283E+04  0.81192505973E+02 0.  0.
        -11    1    3    3    0    0 -0.52856041157E+00 -0.11824281046E+02 -0.52461594661E+02  0.53780218600E+02  0.00000000000E+00 0.  1.
         12    1    3    3    0    0 -0.18370529978E+02  0.10176695710E+03 -0.14435927997E+04  0.14472920097E+04  0.00000000000E+00 0. -1.
          1    1    1    2  501    0  0.18899090390E+02 -0.89942676051E+02 -0.16093699366E+03  0.18533099180E+03  0.00000000000E+00 0. -1.
<mgrwt>
<rscale>  1 0.12263394E+03</rscale>
<asrwt>0</asrwt>
<pdfrwt beam="1">  1       21 0.22624478E-02 0.12263394E+03</pdfrwt>
<pdfrwt beam="2">  1        2 0.25718430E+00 0.12263394E+03</pdfrwt>
<totfact> 0.14389826E+05</totfact>
</mgrwt>
</event>
<event>
 6    2  0.9453093E+000  0.8533748E+02  0.7546771E-02  0.1314552E+00
          2   -1    0    0  502    0 -0.00000000000E+00  0.00000000000E+00  0.14810845651E+04  0.14810845651E+04  0.00000000000E+00 0. -1.
         21   -1    0    0  501  502  0.00000000000E+00 -0.00000000000E+00 -0.41520101637E+01  0.41520101637E+01  0.00000000000E+00 0.  1.
         24    2    1    2    0    0 -0.28115921859E+02  0.60401331299E+01  0.45704505740E+03  0.46494372715E+03  0.80346105426E+02 0.  0.
        -11    1    3    3    0    0  0.73215867418E+01  0.28622652128E+02  0.75231340633E+02  0.80824603066E+02  0.00000000000E+00 0.  1.
         12    1    3    3    0    0 -0.35437508601E+02 -0.22582518998E+02  0.38181371677E+03  0.38411912409E+03  0.00000000000E+00 0. -1.
          1    1    1    2  501    0  0.28115921859E+02 -0.60401331299E+01  0.10198874976E+04  0.10202928481E+04  0.00000000000E+00 0. -1.
<mgrwt>
<rscale>  1 0.85337477E+02</rscale>
<asrwt>0</asrwt>
<pdfrwt beam="1">  1       21 0.63877197E-03 0.85337477E+02</pdfrwt>
<pdfrwt beam="2">  1        2 0.22785874E+00 0.85337477E+02</pdfrwt>
<totfact> 0.13063832E+06</totfact>
</mgrwt>
</event>
<event>
 6    2  0.9453093E+000  0.8393221E+02  0.7546771E-02  0.1318249E+00
         -1   -1    0    0    0  501 -0.00000000000E+00  0.00000000000E+00  0.36025638588E+02  0.36025638588E+02  0.00000000000E+00 0.  1.
         21   -1    0    0  501  502  0.00000000000E+00 -0.00000000000E+00 -0.83901170333E+02  0.83901170333E+02  0.00000000000E+00 0. -1.
         24    2    1    2    0    0 -0.24608727951E+02 -0.15473694313E+01 -0.44619793873E+02  0.95055466524E+02  0.80228622494E+02 0.  0.
        -11    1    3    3    0    0 -0.45048750921E+02 -0.22863623270E+02 -0.13798822154E+02  0.52369291779E+02  0.00000000000E+00 0.  1.
         12    1    3    3    0    0  0.20440022970E+02  0.21316253838E+02 -0.30820971719E+02  0.42686174746E+02  0.00000000000E+00 0. -1.
         -2    1    1    2    0  502  0.24608727951E+02  0.15473694313E+01 -0.32557378719E+01  0.24871342397E+02  0.00000000000E+00 0.  1.
<mgrwt>
<rscale>  1 0.83932209E+02</rscale>
<asrwt>0</asrwt>
<pdfrwt beam="1">  1       21 0.12907872E-01 0.83932209E+02</pdfrwt>
<pdfrwt beam="2">  1       -1 0.55424060E-02 0.83932209E+02</pdfrwt>
<totfact> 0.63173932E+05</totfact>
</mgrwt>
</event>
<event>
 6    2  0.9453093E+000  0.9161932E+02  0.7546771E-02  0.1298977E+00
         21   -1    0    0  501  502  0.00000000000E+00  0.00000000000E+00  0.16957583324E+03  0.16957583324E+03  0.00000000000E+00 0. -1.
         -1   -1    0    0    0  501 -0.00000000000E+00 -0.00000000000E+00 -0.71612116414E+02  0.71612116414E+02  0.00000000000E+00 0.  1.
         24    2    1    2    0    0 -0.95025229494E+01  0.41715783812E+02 -0.37598777073E+02  0.99034179694E+02  0.81016024025E+02 0.  0.
        -11    1    3    3    0    0  0.30713235866E+02  0.44956870999E+01 -0.30953317790E+02  0.43836308490E+02  0.00000000000E+00 0.  1.
         12    1    3    3    0    0 -0.40215758815E+02  0.37220096713E+02 -0.66454592832E+01  0.55197871204E+02  0.00000000000E+00 0. -1.
         -2    1    1    2    0  502  0.95025229494E+01 -0.41715783812E+02  0.13556249390E+03  0.14215376996E+03  0.00000000000E+00 0.  1.
<mgrwt>
<rscale>  1 0.91619325E+02</rscale>
<asrwt>0</asrwt>
<pdfrwt beam="1">  1       21 0.26088590E-01 0.91619325E+02</pdfrwt>
<pdfrwt beam="2">  1       -1 0.11017249E-01 0.91619325E+02</pdfrwt>
<totfact> 0.63681018E+04</totfact>
</mgrwt>
</event>
<event>
 6    2  0.9453093E+000  0.8777724E+02  0.7546771E-02  0.1308325E+00
         21   -1    0    0  501  502  0.00000000000E+00  0.00000000000E+00  0.53610282988E+02  0.53610282988E+02  0.00000000000E+00 0. -1.
          2   -1    0    0  502    0 -0.00000000000E+00 -0.00000000000E+00 -0.84538310662E+02  0.84538310662E+02  0.00000000000E+00 0. -1.
         24    2    1    2    0    0 -0.51306644061E+01 -0.34542312398E+02 -0.47154754647E+02  0.99641428974E+02  0.80531660973E+02 0.  0.
        -11    1    3    3    0    0  0.92557843585E+01  0.24021288252E+01  0.19709483842E+02  0.21906700351E+02  0.00000000000E+00 0.  1.
         12    1    3    3    0    0 -0.14386448765E+02 -0.36944441224E+02 -0.66864238489E+02  0.77734728623E+02  0.00000000000E+00 0. -1.
          1    1    1    2  501    0  0.51306644061E+01  0.34542312398E+02  0.16226726973E+02  0.38507164675E+02  0.00000000000E+00 0. -1.
<mgrwt>
<rscale>  1 0.87777238E+02</rscale>
<asrwt>0</asrwt>
<pdfrwt beam="1">  1       21 0.82477359E-02 0.87777238E+02</pdfrwt>
<pdfrwt beam="2">  1        2 0.13005894E-01 0.87777238E+02</pdfrwt>
<totfact> 0.59923988E+05</totfact>
</mgrwt>
</event>
<event>
 6    2  0.9453093E+000  0.9396636E+02  0.7546771E-02  0.1293521E+00
         21   -1    0    0  501  502  0.00000000000E+00  0.00000000000E+00  0.25822497892E+02  0.25822497892E+02  0.00000000000E+00 0. -1.
          4   -1    0    0  502    0 -0.00000000000E+00 -0.00000000000E+00 -0.33979206069E+03  0.33979206069E+03  0.00000000000E+00 0. -1.
         24    2    1    2    0    0 -0.33584325185E+02 -0.30869497971E+02 -0.30497131907E+03  0.31911938471E+03  0.82151344724E+02 0.  0.
        -11    1    3    3    0    0 -0.11562831725E+02 -0.23765017665E+02 -0.19830519854E+02  0.33041256934E+02  0.00000000000E+00 0.  1.
         12    1    3    3    0    0 -0.22021493460E+02 -0.71044803059E+01 -0.28514079921E+03  0.28607812778E+03  0.00000000000E+00 0. -1.
          3    1    1    2  501    0  0.33584325185E+02  0.30869497971E+02 -0.89982437296E+01  0.46495173871E+02  0.00000000000E+00 0. -1.
<mgrwt>
<rscale>  1 0.93966357E+02</rscale>
<asrwt>0</asrwt>
<pdfrwt beam="1">  1       21 0.39726918E-02 0.93966357E+02</pdfrwt>
<pdfrwt beam="2">  1        4 0.52275704E-01 0.93966357E+02</pdfrwt>
<totfact> 0.53733753E+04</totfact>
</mgrwt>
</event>
<event>
 6    2  0.9453093E+000  0.1032602E+03  0.7546771E-02  0.1273586E+00
          2   -1    0    0  502    0 -0.00000000000E+00  0.00000000000E+00  0.11671240031E+04  0.11671240031E+04  0.00000000000E+00 0. -1.
         21   -1    0    0  501  502  0.00000000000E+00 -0.00000000000E+00 -0.74733044241E+01  0.74733044241E+01  0.00000000000E+00 0.  1.
         24    2    1    2    0    0 -0.43006910665E+02 -0.43233829402E+02  0.42277846221E+03  0.43520603679E+03  0.83330114463E+02 0.  0.
        -11    1    3    3    0    0 -0.38911952235E+02 -0.65956796887E+02  0.26842086476E+03  0.27913115147E+03  0.00000000000E+00 0.  1.
         12    1    3    3    0    0 -0.40949584300E+01  0.22722967485E+02  0.15435759745E+03  0.15607488531E+03  0.00000000000E+00 0. -1.
          1    1    1    2  501    0  0.43006910665E+02  0.43233829402E+02  0.73687223643E+03  0.73939127071E+03  0.00000000000E+00 0. -1.
<mgrwt>
<rscale>  1 0.10326019E+03</rscale>
<asrwt>0</asrwt>
<pdfrwt beam="1">  1       21 0.11497401E-02 0.10326019E+03</pdfrwt>
<pdfrwt beam="2">  1        2 0.17955739E+00 0.10326019E+03</pdfrwt>
<totfact> 0.77619633E+05</totfact>
</mgrwt>
</event>
<event>
 6    2  0.9453093E+000  0.9031804E+02  0.7546771E-02  0.1302083E+00
         21   -1    0    0  501  502  0.00000000000E+00  0.00000000000E+00  0.13835987297E+02  0.13835987297E+02  0.00000000000E+00 0. -1.
          2   -1    0    0  502    0 -0.00000000000E+00 -0.00000000000E+00 -0.49161862726E+03  0.49161862726E+03  0.00000000000E+00 0. -1.
         24    2    1    2    0    0  0.11500337156E+02 -0.41163981531E+02 -0.43749119145E+03  0.44671679069E+03  0.79565176741E+02 0.  0.
        -13    1    3    3    0    0 -0.17169683597E+02  0.17643097960E+02 -0.13578171586E+03  0.13799547566E+03  0.00000000000E+00 0.  1.
         14    1    3    3    0    0  0.28670020753E+02 -0.58807079491E+02 -0.30170947559E+03  0.30872131502E+03  0.00000000000E+00 0. -1.
          1    1    1    2  501    0 -0.11500337156E+02  0.41163981531E+02 -0.40291448510E+02  0.58737823872E+02  0.00000000000E+00 0. -1.
<mgrwt>
<rscale>  1 0.90318041E+02</rscale>
<asrwt>0</asrwt>
<pdfrwt beam="1">  1       21 0.21286138E-02 0.90318041E+02</pdfrwt>
<pdfrwt beam="2">  1        2 0.75633621E-01 0.90318041E+02</pdfrwt>
<totfact> 0.83397519E+05</totfact>
</mgrwt>
</event>
<event>
 6    2  0.9453093E+000  0.1074829E+03  0.7546771E-02  0.1265303E+00
         21   -1    0    0  501  502  0.00000000000E+00  0.00000000000E+00  0.13668964571E+02  0.13668964571E+02  0.00000000000E+00 0. -1.
          2   -1    0    0  502    0 -0.00000000000E+00 -0.00000000000E+00 -0.70407201185E+03  0.70407201185E+03  0.00000000000E+00 0. -1.
         24    2    1    2    0    0 -0.25382344798E+02 -0.66738728598E+02 -0.54798096070E+03  0.55842251526E+03  0.80338352809E+02 0.  0.
        -11    1    3    3    0    0 -0.33144907367E+02  0.39031834930E+01 -0.11885727787E+03  0.12345392755E+03  0.00000000000E+00 0.  1.
         12    1    3    3    0    0  0.77625625693E+01 -0.70641912091E+02 -0.42912368283E+03  0.43496858771E+03  0.00000000000E+00 0. -1.
          1    1    1    2  501    0  0.25382344798E+02  0.66738728598E+02 -0.14242208657E+03  0.15931846116E+03  0.00000000000E+00 0. -1.
<mgrwt>
<rscale>  1 0.10748289E+03</rscale>
<asrwt>0</asrwt>
<pdfrwt beam="1">  1       21 0.21029174E-02 0.10748289E+03</pdfrwt>
<pdfrwt beam="2">  1        2 0.10831878E+00 0.10748289E+03</pdfrwt>
<totfact> 0.57642573E+05</totfact>
</mgrwt>
</event>
<event>
 6    2  0.9453093E+000  0.9015983E+02  0.7546771E-02  0.1302465E+00
          2   -1    0    0  502    0 -0.00000000000E+00  0.00000000000E+00  0.36642780960E+03  0.36642780960E+03  0.00000000000E+00 0. -1.
         21   -1    0    0  501  502  0.00000000000E+00 -0.00000000000E+00 -0.12322373587E+02  0.12322373587E+02  0.00000000000E+00 0.  1.
         24    2    1    2    0    0  0.12712384412E+01 -0.37040153517E+02  0.29933667717E+03  0.31261996343E+03  0.82190061543E+02 0.  0.
        -13    1    3    3    0    0 -0.16489603161E+02  0.11740084125E+02  0.19842025788E+02  0.28345062621E+02  0.00000000000E+00 0.  1.
         14    1    3    3    0    0  0.17760841602E+02 -0.48780237642E+02  0.27949465138E+03  0.28427490081E+03  0.00000000000E+00 0. -1.
          1    1    1    2  501    0 -0.12712384412E+01  0.37040153517E+02  0.54768758841E+02  0.66130219754E+02  0.00000000000E+00 0. -1.
<mgrwt>
<rscale>  1 0.90159832E+02</rscale>
<asrwt>0</asrwt>
<pdfrwt beam="1">  1       21 0.18957501E-02 0.90159832E+02</pdfrwt>
<pdfrwt beam="2">  1        2 0.56373501E-01 0.90159832E+02</pdfrwt>
<totfact> 0.13703272E+06</totfact>
</mgrwt>
</event>
<event>
 6    2  0.9453093E+000  0.1084991E+03  0.7546771E-02  0.1263375E+00
          2   -1    0    0  502    0 -0.00000000000E+00  0.00000000000E+00  0.80355454760E+03  0.80355454760E+03  0.00000000000E+00 0. -1.
         21   -1    0    0  501  502  0.00000000000E+00 -0.00000000000E+00 -0.11029454727E+02  0.11029454727E+02  0.00000000000E+00 0.  1.
         24    2    1    2    0    0 -0.75757023231E+02  0.22464476680E+02  0.49434986553E+03  0.50611642626E+03  0.74352324122E+02 0.  0.
        -11    1    3    3    0    0 -0.21827546877E+02  0.12196607461E+02  0.32451350298E+02  0.40966927788E+02  0.00000000000E+00 0.  1.
         12    1    3    3    0    0 -0.53929476355E+02  0.10267869219E+02  0.46189851523E+03  0.46514949848E+03  0.00000000000E+00 0. -1.
          1    1    1    2  501    0  0.75757023231E+02 -0.22464476680E+02  0.29817522734E+03  0.30846757606E+03  0.00000000000E+00 0. -1.
<mgrwt>
<rscale>  1 0.10849907E+03</rscale>
<asrwt>0</asrwt>
<pdfrwt beam="1">  1       21 0.16968398E-02 0.10849907E+03</pdfrwt>
<pdfrwt beam="2">  1        2 0.12362373E+00 0.10849907E+03</pdfrwt>
<totfact> 0.69391688E+05</totfact>
</mgrwt>
</event>
<event>
 6    2  0.9453093E+000  0.1088941E+03  0.7546771E-02  0.1262632E+00
          2   -1    0    0  502    0 -0.00000000000E+00  0.00000000000E+00  0.14857386869E+04  0.14857386869E+04  0.00000000000E+00 0. -1.
         21   -1    0    0  501  502  0.00000000000E+00 -0.00000000000E+00 -0.68624475861E+01  0.68624475861E+01  0.00000000000E+00 0. -1.
         24    2    1    2    0    0 -0.29079034601E+02 -0.70821324440E+02  0.11397710119E+04  0.11449610828E+04  0.77438177957E+02 0.  0.
        -13    1    3    3    0    0  0.79789667039E+01 -0.89254812258E+01  0.23617126243E+02  0.26478232130E+02  0.00000000000E+00 0.  1.
         14    1    3    3    0    0 -0.37058001305E+02 -0.61895843215E+02  0.11161538856E+04  0.11184828507E+04  0.00000000000E+00 0. -1.
          1    1    1    2  501    0  0.29079034601E+02  0.70821324440E+02  0.33910522747E+03  0.34764005170E+03  0.00000000000E+00 0. -1.
<mgrwt>
<rscale>  1 0.10889408E+03</rscale>
<asrwt>0</asrwt>
<pdfrwt beam="1">  1       21 0.10557623E-02 0.10889408E+03</pdfrwt>
<pdfrwt beam="2">  1        2 0.22857493E+00 0.10889408E+03</pdfrwt>
<totfact> 0.60285175E+05</totfact>
</mgrwt>
</event>
<event>
 6    2  0.9453093E+000  0.9215254E+02  0.7546771E-02  0.1297721E+00
          4   -1    0    0  502    0 -0.00000000000E+00  0.00000000000E+00  0.21332419445E+03  0.21332419445E+03  0.00000000000E+00 0. -1.
         21   -1    0    0  501  502  0.00000000000E+00 -0.00000000000E+00 -0.73009604867E+02  0.73009604867E+02  0.00000000000E+00 0. -1.
         24    2    1    2    0    0 -0.33657321468E+02  0.26671541469E+02  0.19566386570E+03  0.21627861550E+03  0.81534684455E+02 0.  0.
        -13    1    3    3    0    0  0.13639232848E+02  0.32071024641E+02  0.37893546378E+02  0.51483008375E+02  0.00000000000E+00 0.  1.
         14    1    3    3    0    0 -0.47296554316E+02 -0.53994831722E+01  0.15777031933E+03  0.16479560713E+03  0.00000000000E+00 0. -1.
          3    1    1    2  501    0  0.33657321468E+02 -0.26671541469E+02 -0.55349276118E+02  0.70055183816E+02  0.00000000000E+00 0. -1.
<mgrwt>
<rscale>  1 0.92152543E+02</rscale>
<asrwt>0</asrwt>
<pdfrwt beam="1">  1       21 0.11232247E-01 0.92152543E+02</pdfrwt>
<pdfrwt beam="2">  1        4 0.32819107E-01 0.92152543E+02</pdfrwt>
<totfact> 0.22989619E+04</totfact>
</mgrwt>
</event>
<event>
 6    2  0.9453093E+000  0.8309956E+02  0.7546771E-02  0.1320479E+00
         21   -1    0    0  501  502  0.00000000000E+00  0.00000000000E+00  0.30112670646E+02  0.30112670646E+02  0.00000000000E+00 0. -1.
         -1   -1    0    0    0  501 -0.00000000000E+00 -0.00000000000E+00 -0.91881509542E+02  0.91881509542E+02  0.00000000000E+00 0.  1.
         24    2    1    2    0    0 -0.21141009256E+02 -0.35329886261E+01 -0.54429177317E+02  0.99338167452E+02  0.80287682047E+02 0.  0.
        -11    1    3    3    0    0  0.10102497043E+02 -0.38280858500E+01  0.17697671257E+02  0.20734566687E+02  0.00000000000E+00 0.  1.
         12    1    3    3    0    0 -0.31243506298E+02  0.29509722395E+00 -0.72126848574E+02  0.78603600766E+02  0.00000000000E+00 0. -1.
         -2    1    1    2    0  502  0.21141009256E+02  0.35329886261E+01 -0.73396615795E+01  0.22656012736E+02  0.00000000000E+00 0.  1.
<mgrwt>
<rscale>  1 0.83099556E+02</rscale>
<asrwt>0</asrwt>
<pdfrwt beam="1">  1       21 0.46327186E-02 0.83099556E+02</pdfrwt>
<pdfrwt beam="2">  1       -1 0.14135617E-01 0.83099556E+02</pdfrwt>
<totfact> 0.88847384E+05</totfact>
</mgrwt>
</event>
<event>
 6    2  0.9453093E+000  0.1135629E+03  0.7546771E-02  0.1254111E+00
          2   -1    0    0  502    0 -0.00000000000E+00  0.00000000000E+00  0.11670221308E+04  0.11670221308E+04  0.00000000000E+00 0. -1.
         21   -1    0    0  501  502  0.00000000000E+00 -0.00000000000E+00 -0.16705368935E+02  0.16705368935E+02  0.00000000000E+00 0. -1.
         24    2    1    2    0    0 -0.31381091022E+02 -0.76284639562E+02  0.10389566124E+04  0.10451446653E+04  0.78053891005E+02 0.  0.
        -11    1    3    3    0    0 -0.40972130590E+02 -0.64351003866E+02  0.48386176703E+03  0.48983872527E+03  0.00000000000E+00 0.  1.
         12    1    3    3    0    0  0.95910395689E+01 -0.11933635696E+02  0.55509484536E+03  0.55530594004E+03  0.00000000000E+00 0. -1.
          1    1    1    2  501    0  0.31381091022E+02  0.76284639562E+02  0.11136014951E+03  0.13858283446E+03  0.00000000000E+00 0. -1.
<mgrwt>
<rscale>  1 0.11356289E+03</rscale>
<asrwt>0</asrwt>
<pdfrwt beam="1">  1       21 0.25700577E-02 0.11356289E+03</pdfrwt>
<pdfrwt beam="2">  1        2 0.17954180E+00 0.11356289E+03</pdfrwt>
<totfact> 0.21549644E+05</totfact>
</mgrwt>
</event>
<event>
 6    2  0.9453093E+000  0.2058410E+03  0.7546771E-02  0.1144902E+00
         21   -1    0    0  501  502  0.00000000000E+00  0.00000000000E+00  0.20294277811E+03  0.20294277811E+03  0.00000000000E+00 0. -1.
          2   -1    0    0  502    0 -0.00000000000E+00 -0.00000000000E+00 -0.44121293940E+03  0.44121293940E+03  0.00000000000E+00 0. -1.
         24    2    1    2    0    0 -0.87424531036E+01 -0.19151259386E+03 -0.36168303303E+03  0.41615518899E+03  0.74946786775E+02 0.  0.
        -11    1    3    3    0    0 -0.20240952489E+02 -0.87878449545E+01 -0.50444049692E+02  0.55059281924E+02  0.00000000000E+00 0.  1.
         12    1    3    3    0    0  0.11498499386E+02 -0.18272474890E+03 -0.31123898334E+03  0.36109590707E+03  0.00000000000E+00 0. -1.
          1    1    1    2  501    0  0.87424531036E+01  0.19151259386E+03  0.12341287175E+03  0.22800052852E+03  0.00000000000E+00 0. -1.
<mgrwt>
<rscale>  1 0.20584102E+03</rscale>
<asrwt>0</asrwt>
<pdfrwt beam="1">  1       21 0.31221966E-01 0.20584102E+03</pdfrwt>
<pdfrwt beam="2">  1        2 0.67878913E-01 0.20584102E+03</pdfrwt>
<totfact> 0.87894304E+03</totfact>
</mgrwt>
</event>
<event>
 6    2  0.9453093E+000  0.7907087E+02  0.7546771E-02  0.1331709E+00
          2   -1    0    0  502    0 -0.00000000000E+00  0.00000000000E+00  0.10580372588E+04  0.10580372588E+04  0.00000000000E+00 0. -1.
         21   -1    0    0  501  502  0.00000000000E+00 -0.00000000000E+00 -0.30285112501E+01  0.30285112501E+01  0.00000000000E+00 0. -1.
         24    2    1    2    0    0  0.14924041100E+02  0.18795012171E+02  0.95287934180E+03  0.95615440267E+03  0.75340707758E+02 0.  0.
        -11    1    3    3    0    0 -0.28047466112E+02 -0.70577476970E+01  0.34927761350E+03  0.35047299960E+03  0.00000000000E+00 0.  1.
         12    1    3    3    0    0  0.42971507212E+02  0.25852759868E+02  0.60360172830E+03  0.60568140307E+03  0.00000000000E+00 0. -1.
          1    1    1    2  501    0 -0.14924041100E+02 -0.18795012171E+02  0.10212940577E+03  0.10491136740E+03  0.00000000000E+00 0. -1.
<mgrwt>
<rscale>  1 0.79070865E+02</rscale>
<asrwt>0</asrwt>
<pdfrwt beam="1">  1       21 0.46592565E-03 0.79070865E+02</pdfrwt>
<pdfrwt beam="2">  1        2 0.16277467E+00 0.79070865E+02</pdfrwt>
<totfact> 0.35360367E+06</totfact>
</mgrwt>
</event>
<event>
 6    2  0.9453093E+000  0.8551485E+02  0.7546771E-02  0.1314092E+00
          4   -1    0    0  502    0 -0.00000000000E+00  0.00000000000E+00  0.59267393924E+02  0.59267393924E+02  0.00000000000E+00 0. -1.
         21   -1    0    0  501  502  0.00000000000E+00 -0.00000000000E+00 -0.21847688207E+03  0.21847688207E+03  0.00000000000E+00 0.  1.
         24    2    1    2    0    0 -0.25768931828E+02 -0.12581138481E+02  0.26738872812E+02  0.89597748427E+02  0.80563430357E+02 0.  0.
        -11    1    3    3    0    0 -0.48404329952E+02 -0.69497353515E+01 -0.61406725203E+01  0.49284742452E+02  0.00000000000E+00 0.  1.
         12    1    3    3    0    0  0.22635398125E+02 -0.56314031291E+01  0.32879545332E+02  0.40313005975E+02  0.00000000000E+00 0. -1.
          3    1    1    2  501    0  0.25768931828E+02  0.12581138481E+02 -0.18594836096E+03  0.18814652757E+03  0.00000000000E+00 0. -1.
<mgrwt>
<rscale>  1 0.85514848E+02</rscale>
<asrwt>0</asrwt>
<pdfrwt beam="1">  1       21 0.33611828E-01 0.85514848E+02</pdfrwt>
<pdfrwt beam="2">  1        4 0.91180607E-02 0.85514848E+02</pdfrwt>
<totfact> 0.29254225E+04</totfact>
</mgrwt>
</event>
<event>
 6    2  0.9453093E+000  0.8441477E+02  0.7546771E-02  0.1316970E+00
         21   -1    0    0  501  502  0.00000000000E+00  0.00000000000E+00  0.32562178433E+02  0.32562178433E+02  0.00000000000E+00 0. -1.
          2   -1    0    0  502    0 -0.00000000000E+00 -0.00000000000E+00 -0.35896555936E+04  0.35896555936E+04  0.00000000000E+00 0. -1.
         24    2    1    2    0    0  0.25012569571E+02 -0.40794846674E+01 -0.35841510866E+04  0.35851450271E+04  0.80520699791E+02 0.  0.
        -13    1    3    3    0    0  0.10424903974E+02  0.66043159977E+01 -0.79911153600E+02  0.80858444719E+02  0.00000000000E+00 0.  1.
         14    1    3    3    0    0  0.14587665597E+02 -0.10683800665E+02 -0.35042399330E+04  0.35042865824E+04  0.00000000000E+00 0. -1.
          1    1    1    2  501    0 -0.25012569571E+02  0.40794846674E+01  0.27057671434E+02  0.37072744909E+02  0.00000000000E+00 0. -1.
<mgrwt>
<rscale>  1 0.84414773E+02</rscale>
<asrwt>0</asrwt>
<pdfrwt beam="1">  1       21 0.50095688E-02 0.84414773E+02</pdfrwt>
<pdfrwt beam="2">  1        2 0.55225439E+00 0.84414773E+02</pdfrwt>
<totfact> 0.35096458E+03</totfact>
</mgrwt>
</event>
<event>
 6    2  0.9453093E+000  0.9744214E+02  0.7546771E-02  0.1285769E+00
          2   -1    0    0  502    0 -0.00000000000E+00  0.00000000000E+00  0.26585412909E+04  0.26585412909E+04  0.00000000000E+00 0. -1.
         21   -1    0    0  501  502  0.00000000000E+00 -0.00000000000E+00 -0.21191140977E+01  0.21191140977E+01  0.00000000000E+00 0.  1.
         24    2    1    2    0    0 -0.15868557871E+02  0.13375504716E+02  0.25675027391E+04  0.25693511412E+04  0.95206387415E+02 0.  0.
        -13    1    3    3    0    0 -0.31914009710E+02  0.18816002571E+02  0.38407828293E+03  0.38586095084E+03  0.00000000000E+00 0.  1.
         14    1    3    3    0    0  0.16045451839E+02 -0.54404978557E+01  0.21834244561E+04  0.21834901903E+04  0.00000000000E+00 0. -1.
          1    1    1    2  501    0  0.15868557871E+02 -0.13375504716E+02  0.88919437687E+02  0.91309263791E+02  0.00000000000E+00 0. -1.
<mgrwt>
<rscale>  1 0.97442144E+02</rscale>
<asrwt>0</asrwt>
<pdfrwt beam="1">  1       21 0.32601968E-03 0.97442144E+02</pdfrwt>
<pdfrwt beam="2">  1        2 0.40900368E+00 0.97442144E+02</pdfrwt>
<totfact> 0.92048880E+05</totfact>
</mgrwt>
</event>
<event>
 6    2  0.9453093E+000  0.8428674E+02  0.7546771E-02  0.1317308E+00
          4   -1    0    0  502    0 -0.00000000000E+00  0.00000000000E+00  0.19183665036E+03  0.19183665036E+03  0.00000000000E+00 0. -1.
         21   -1    0    0  501  502  0.00000000000E+00 -0.00000000000E+00 -0.23165637120E+02  0.23165637120E+02  0.00000000000E+00 0. -1.
         24    2    1    2    0    0  0.11853223282E+02  0.21320650912E+02  0.17085136054E+03  0.19051100389E+03  0.80679527441E+02 0.  0.
        -11    1    3    3    0    0  0.14930287951E+02 -0.20973223155E+02  0.16827852219E+02  0.30756563496E+02  0.00000000000E+00 0.  1.
         12    1    3    3    0    0 -0.30770646687E+01  0.42293874067E+02  0.15402350832E+03  0.15975444040E+03  0.00000000000E+00 0. -1.
          3    1    1    2  501    0 -0.11853223282E+02 -0.21320650912E+02 -0.21803472994E+01  0.24491283589E+02  0.00000000000E+00 0. -1.
<mgrwt>
<rscale>  1 0.84286744E+02</rscale>
<asrwt>0</asrwt>
<pdfrwt beam="1">  1       21 0.35639443E-02 0.84286744E+02</pdfrwt>
<pdfrwt beam="2">  1        4 0.29513330E-01 0.84286744E+02</pdfrwt>
<totfact> 0.19171806E+05</totfact>
</mgrwt>
</event>
<event>
 6    2  0.9453093E+000  0.8837583E+02  0.7546771E-02  0.1306833E+00
          2   -1    0    0  502    0 -0.00000000000E+00  0.00000000000E+00  0.16309865308E+03  0.16309865308E+03  0.00000000000E+00 0. -1.
         21   -1    0    0  501  502  0.00000000000E+00 -0.00000000000E+00 -0.43120749194E+02  0.43120749194E+02  0.00000000000E+00 0.  1.
         24    2    1    2    0    0 -0.28334913956E+02 -0.38179026354E+01  0.14394640399E+03  0.16891078763E+03  0.83623221813E+02 0.  0.
        -13    1    3    3    0    0 -0.40143971896E+01 -0.42112521724E+02  0.58840471171E+02  0.72469172193E+02  0.00000000000E+00 0.  1.
         14    1    3    3    0    0 -0.24320516767E+02  0.38294619088E+02  0.85105932820E+02  0.96441615437E+02  0.00000000000E+00 0. -1.
          1    1    1    2  501    0  0.28334913956E+02  0.38179026354E+01 -0.23968500104E+02  0.37308614645E+02  0.00000000000E+00 0. -1.
<mgrwt>
<rscale>  1 0.88375828E+02</rscale>
<asrwt>0</asrwt>
<pdfrwt beam="1">  1       21 0.66339615E-02 0.88375828E+02</pdfrwt>
<pdfrwt beam="2">  1        2 0.25092100E-01 0.88375828E+02</pdfrwt>
<totfact> 0.41307692E+05</totfact>
</mgrwt>
</event>
<event>
 6    2  0.9453093E+000  0.8348870E+02  0.7546771E-02  0.1319433E+00
         -1   -1    0    0    0  501 -0.00000000000E+00  0.00000000000E+00  0.33006190210E+02  0.33006190210E+02  0.00000000000E+00 0.  1.
         21   -1    0    0  501  502  0.00000000000E+00 -0.00000000000E+00 -0.27499346408E+03  0.27499346408E+03  0.00000000000E+00 0. -1.
         24    2    1    2    0    0 -0.27338641265E+01  0.21027870491E+02 -0.21122416908E+02  0.86119212630E+02  0.80750956264E+02 0.  0.
        -13    1    3    3    0    0 -0.60644676179E+01 -0.21134468989E+02  0.18068613838E+02  0.28459064513E+02  0.00000000000E+00 0.  1.
         14    1    3    3    0    0  0.33306034914E+01  0.42162339479E+02 -0.39191030746E+02  0.57660148117E+02  0.00000000000E+00 0. -1.
         -2    1    1    2    0  502  0.27338641265E+01 -0.21027870491E+02 -0.22086485696E+03  0.22188044166E+03  0.00000000000E+00 0.  1.
<mgrwt>
<rscale>  1 0.83488696E+02</rscale>
<asrwt>0</asrwt>
<pdfrwt beam="1">  1       21 0.42306688E-01 0.83488696E+02</pdfrwt>
<pdfrwt beam="2">  1       -1 0.50778753E-02 0.83488696E+02</pdfrwt>
<totfact> 0.78781509E+04</totfact>
</mgrwt>
</event>
<event>
 6    2  0.9453093E+000  0.9791554E+02  0.7546771E-02  0.1284741E+00
         21   -1    0    0  501  502  0.00000000000E+00  0.00000000000E+00  0.17727724698E+02  0.17727724698E+02  0.00000000000E+00 0. -1.
          2   -1    0    0  502    0 -0.00000000000E+00 -0.00000000000E+00 -0.50684370767E+03  0.50684370767E+03  0.00000000000E+00 0. -1.
         24    2    1    2    0    0  0.55418091489E+02 -0.10557531939E+02 -0.43677441054E+03  0.44761516849E+03  0.80030163171E+02 0.  0.
        -13    1    3    3    0    0 -0.16662747098E+02 -0.11613782433E+02 -0.17226732506E+03  0.17346053835E+03  0.00000000000E+00 0.  1.
         14    1    3    3    0    0  0.72080838587E+02  0.10562504939E+01 -0.26450708548E+03  0.27415463014E+03  0.00000000000E+00 0. -1.
          1    1    1    2  501    0 -0.55418091489E+02  0.10557531939E+02 -0.52341572432E+02  0.76956263875E+02  0.00000000000E+00 0. -1.
<mgrwt>
<rscale>  1 0.97915542E+02</rscale>
<asrwt>0</asrwt>
<pdfrwt beam="1">  1       21 0.27273428E-02 0.97915542E+02</pdfrwt>
<pdfrwt beam="2">  1        2 0.77975941E-01 0.97915542E+02</pdfrwt>
<totfact> 0.54463052E+05</totfact>
</mgrwt>
</event>
<event>
 6    2  0.9453093E+000  0.1490130E+03  0.7546771E-02  0.1201691E+00
          2   -1    0    0  502    0 -0.00000000000E+00  0.00000000000E+00  0.25866103630E+04  0.25866103630E+04  0.00000000000E+00 0. -1.
         21   -1    0    0  501  502  0.00000000000E+00 -0.00000000000E+00 -0.74738151506E+01  0.74738151506E+01  0.00000000000E+00 0.  1.
         24    2    1    2    0    0 -0.12064266168E+03 -0.39783624882E+02  0.12347297516E+04  0.12436890424E+04  0.77894070939E+02 0.  0.
        -11    1    3    3    0    0 -0.85078001768E+02 -0.52337513637E+02  0.63833804564E+03  0.64610598375E+03  0.00000000000E+00 0.  1.
         12    1    3    3    0    0 -0.35564659911E+02  0.12553888755E+02  0.59639170591E+03  0.59758305869E+03  0.00000000000E+00 0. -1.
          1    1    1    2  501    0  0.12064266168E+03  0.39783624882E+02  0.13444067963E+04  0.13503951357E+04  0.00000000000E+00 0. -1.
<mgrwt>
<rscale>  1 0.14901300E+03</rscale>
<asrwt>0</asrwt>
<pdfrwt beam="1">  1       21 0.11498198E-02 0.14901300E+03</pdfrwt>
<pdfrwt beam="2">  1        2 0.39793934E+00 0.14901300E+03</pdfrwt>
<totfact> 0.14245170E+05</totfact>
</mgrwt>
</event>
<event>
 6    2  0.9453093E+000  0.8664840E+02  0.7546771E-02  0.1311177E+00
          2   -1    0    0  502    0 -0.00000000000E+00  0.00000000000E+00  0.84690504685E+03  0.84690504685E+03  0.00000000000E+00 0. -1.
         21   -1    0    0  501  502  0.00000000000E+00 -0.00000000000E+00 -0.49541139156E+02  0.49541139156E+02  0.00000000000E+00 0. -1.
         24    2    1    2    0    0  0.11677646747E+02  0.23780837941E+02  0.84097038610E+03  0.84542245970E+03  0.82498784093E+02 0.  0.
        -11    1    3    3    0    0  0.25071455334E+01  0.54328712680E+02  0.49162891462E+03  0.49462802639E+03  0.00000000000E+00 0.  1.
         12    1    3    3    0    0  0.91705012136E+01 -0.30547874739E+02  0.34934147148E+03  0.35079443331E+03  0.00000000000E+00 0. -1.
          1    1    1    2  501    0 -0.11677646747E+02 -0.23780837941E+02 -0.43606478409E+02  0.51023726304E+02  0.00000000000E+00 0. -1.
<mgrwt>
<rscale>  1 0.86648399E+02</rscale>
<asrwt>0</asrwt>
<pdfrwt beam="1">  1       21 0.76217143E-02 0.86648399E+02</pdfrwt>
<pdfrwt beam="2">  1        2 0.13029307E+00 0.86648399E+02</pdfrwt>
<totfact> 0.54511393E+04</totfact>
</mgrwt>
</event>
<event>
 6    2  0.9453093E+000  0.9335425E+02  0.7546771E-02  0.1294926E+00
          2   -1    0    0  502    0 -0.00000000000E+00  0.00000000000E+00  0.32145097767E+02  0.32145097767E+02  0.00000000000E+00 0. -1.
         21   -1    0    0  501  502  0.00000000000E+00 -0.00000000000E+00 -0.46292703116E+03  0.46292703116E+03  0.00000000000E+00 0. -1.
         24    2    1    2    0    0 -0.69225695223E+01  0.54192236602E+02 -0.41822037155E+02  0.10229417466E+03  0.75698711355E+02 0.  0.
        -11    1    3    3    0    0 -0.34897294060E+01 -0.17715932424E+02 -0.20272727253E+02  0.27148037559E+02  0.00000000000E+00 0.  1.
         12    1    3    3    0    0 -0.34328401163E+01  0.71908169026E+02 -0.21549309902E+02  0.75146137101E+02  0.00000000000E+00 0. -1.
          1    1    1    2  501    0  0.69225695223E+01 -0.54192236602E+02 -0.38895989624E+03  0.39277795427E+03  0.00000000000E+00 0. -1.
<mgrwt>
<rscale>  1 0.93354247E+02</rscale>
<asrwt>0</asrwt>
<pdfrwt beam="1">  1       21 0.71219539E-01 0.93354247E+02</pdfrwt>
<pdfrwt beam="2">  1        2 0.49454000E-02 0.93354247E+02</pdfrwt>
<totfact> 0.33888370E+04</totfact>
</mgrwt>
</event>
<event>
 6    2  0.9453093E+000  0.1240332E+03  0.7546771E-02  0.1236588E+00
          2   -1    0    0  502    0 -0.00000000000E+00  0.00000000000E+00  0.94866135971E+03  0.94866135971E+03  0.00000000000E+00 0. -1.
         21   -1    0    0  501  502  0.00000000000E+00 -0.00000000000E+00 -0.30064127480E+02  0.30064127480E+02  0.00000000000E+00 0. -1.
         24    2    1    2    0    0 -0.31355278574E+01 -0.94908391298E+02  0.85611413406E+03  0.86505239525E+03  0.79792240986E+02 0.  0.
        -11    1    3    3    0    0  0.31973042889E+02 -0.15081813810E+02  0.19080263742E+03  0.19404994983E+03  0.00000000000E+00 0.  1.
         12    1    3    3    0    0 -0.35108570746E+02 -0.79826577488E+02  0.66531149663E+03  0.67100244542E+03  0.00000000000E+00 0. -1.
          1    1    1    2  501    0  0.31355278574E+01  0.94908391298E+02  0.62483098171E+02  0.11367309194E+03  0.00000000000E+00 0. -1.
<mgrwt>
<rscale>  1 0.12403321E+03</rscale>
<asrwt>0</asrwt>
<pdfrwt beam="1">  1       21 0.46252511E-02 0.12403321E+03</pdfrwt>
<pdfrwt beam="2">  1        2 0.14594788E+00 0.12403321E+03</pdfrwt>
<totfact> 0.10978973E+05</totfact>
</mgrwt>
</event>
<event>
 6    2  0.9453093E+000  0.9178440E+02  0.7546771E-02  0.1298587E+00
         21   -1    0    0  501  502  0.00000000000E+00  0.00000000000E+00  0.38244892167E+02  0.38244892167E+02  0.00000000000E+00 0.  1.
          2   -1    0    0  502    0 -0.00000000000E+00 -0.00000000000E+00 -0.12399165356E+03  0.12399165356E+03  0.00000000000E+00 0. -1.
         24    2    1    2    0    0 -0.35010820614E+02  0.20510099426E+02 -0.79005439077E+02  0.12110423282E+03  0.82328330879E+02 0.  0.
        -11    1    3    3    0    0  0.27299234068E+01 -0.12375000352E+02  0.11863841586E+02  0.17359258415E+02  0.00000000000E+00 0.  1.
         12    1    3    3    0    0 -0.37740744021E+02  0.32885099778E+02 -0.90869280664E+02  0.10374497441E+03  0.00000000000E+00 0. -1.
          1    1    1    2  501    0  0.35010820614E+02 -0.20510099426E+02 -0.67413223201E+01  0.41132312908E+02  0.00000000000E+00 0. -1.
<mgrwt>
<rscale>  1 0.91784398E+02</rscale>
<asrwt>0</asrwt>
<pdfrwt beam="1">  1       21 0.58838295E-02 0.91784398E+02</pdfrwt>
<pdfrwt beam="2">  1        2 0.19075639E-01 0.91784398E+02</pdfrwt>
<totfact> 0.68689677E+05</totfact>
</mgrwt>
</event>
<event>
 6    2  0.9453093E+000  0.8503320E+02  0.7546771E-02  0.1315346E+00
          2   -1    0    0  502    0 -0.00000000000E+00  0.00000000000E+00  0.20766863735E+03  0.20766863735E+03  0.00000000000E+00 0. -1.
         21   -1    0    0  501  502  0.00000000000E+00 -0.00000000000E+00 -0.17741210338E+02  0.17741210338E+02  0.00000000000E+00 0.  1.
         24    2    1    2    0    0 -0.18728026171E+02 -0.21989430498E+02  0.10164788204E+03  0.13252523067E+03  0.79977314428E+02 0.  0.
        -13    1    3    3    0    0  0.23532184508E+02 -0.25818466226E+01  0.35171492883E+01  0.23933240040E+02  0.00000000000E+00 0.  1.
         14    1    3    3    0    0 -0.42260210680E+02 -0.19407583876E+02  0.98130732753E+02  0.10859199063E+03  0.00000000000E+00 0. -1.
          1    1    1    2  501    0  0.18728026171E+02  0.21989430498E+02  0.88279544973E+02  0.92884617018E+02  0.00000000000E+00 0. -1.
<mgrwt>
<rscale>  1 0.85033198E+02</rscale>
<asrwt>0</asrwt>
<pdfrwt beam="1">  1       21 0.27294171E-02 0.85033198E+02</pdfrwt>
<pdfrwt beam="2">  1        2 0.31949020E-01 0.85033198E+02</pdfrwt>
<totfact> 0.13747626E+06</totfact>
</mgrwt>
</event>
<event>
 6    2  0.1012454E+001  0.7652859E+02  0.7546771E-02  0.1339202E+00
         21   -1    0    0  501  502  0.00000000000E+00  0.00000000000E+00  0.84538665664E+01  0.84538665664E+01  0.00000000000E+00 0. -1.
         -1   -1    0    0    0  501 -0.00000000000E+00 -0.00000000000E+00 -0.41324897672E+03  0.41324897672E+03  0.00000000000E+00 0.  1.
         24    2    1    2    0    0 -0.21904543702E+02 -0.10108613817E+02 -0.37790976370E+03  0.38558062074E+03  0.72626665075E+02 0.  0.
        -11    1    3    3    0    0 -0.22281132609E+02 -0.23943019349E+02 -0.36559583086E+03  0.36705589300E+03  0.00000000000E+00 0.  1.
         12    1    3    3    0    0  0.37658890757E+00  0.13834405532E+02 -0.12313932839E+02  0.18524727733E+02  0.00000000000E+00 0. -1.
         -2    1    1    2    0  502  0.21904543702E+02  0.10108613817E+02 -0.26885346459E+02  0.36122222555E+02  0.00000000000E+00 0.  1.
<mgrwt>
<rscale>  1 0.76528593E+02</rscale>
<asrwt>0</asrwt>
<pdfrwt beam="1">  1       21 0.13005946E-02 0.76528593E+02</pdfrwt>
<pdfrwt beam="2">  1       -1 0.63576781E-01 0.76528593E+02</pdfrwt>
<totfact> 0.54634892E+05</totfact>
</mgrwt>
</event>
<event>
 6    2  0.9453093E+000  0.9580489E+02  0.7546771E-02  0.1289374E+00
          2   -1    0    0  502    0 -0.00000000000E+00  0.00000000000E+00  0.24421157508E+03  0.24421157508E+03  0.00000000000E+00 0. -1.
         21   -1    0    0  501  502  0.00000000000E+00 -0.00000000000E+00 -0.24422203555E+02  0.24422203555E+02  0.00000000000E+00 0. -1.
         24    2    1    2    0    0  0.50904876999E+02 -0.20793391760E+02  0.11020043542E+03  0.14602298564E+03  0.78453200853E+02 0.  0.
        -13    1    3    3    0    0 -0.13518122884E+02  0.63244457995E+01  0.54906810317E+02  0.56898998938E+02  0.00000000000E+00 0.  1.
         14    1    3    3    0    0  0.64422999883E+02 -0.27117837559E+02  0.55293625103E+02  0.89123986698E+02  0.00000000000E+00 0. -1.
          1    1    1    2  501    0 -0.50904876999E+02  0.20793391760E+02  0.10958893611E+03  0.12261079300E+03  0.00000000000E+00 0. -1.
<mgrwt>
<rscale>  1 0.95804887E+02</rscale>
<asrwt>0</asrwt>
<pdfrwt beam="1">  1       21 0.37572623E-02 0.95804887E+02</pdfrwt>
<pdfrwt beam="2">  1        2 0.37571010E-01 0.95804887E+02</pdfrwt>
<totfact> 0.69653086E+05</totfact>
</mgrwt>
</event>
<event>
 6    2  0.9453093E+000  0.8204676E+02  0.7546771E-02  0.1323341E+00
         21   -1    0    0  501  502  0.00000000000E+00  0.00000000000E+00  0.31125955274E+01  0.31125955274E+01  0.00000000000E+00 0. -1.
          2   -1    0    0  502    0 -0.00000000000E+00 -0.00000000000E+00 -0.10512737413E+04  0.10512737413E+04  0.00000000000E+00 0. -1.
         24    2    1    2    0    0 -0.20972003064E+02 -0.25316392947E+01 -0.96859535636E+03  0.97206411045E+03  0.79280743943E+02 0.  0.
        -11    1    3    3    0    0  0.12021013100E+02 -0.21687572509E+02 -0.11623848891E+03  0.11885386768E+03  0.00000000000E+00 0.  1.
         12    1    3    3    0    0 -0.32993016164E+02  0.19155933215E+02 -0.85235686745E+03  0.85321024277E+03  0.00000000000E+00 0. -1.
          1    1    1    2  501    0  0.20972003064E+02  0.25316392947E+01 -0.79565789369E+02  0.82322226330E+02  0.00000000000E+00 0. -1.
<mgrwt>
<rscale>  1 0.82046758E+02</rscale>
<asrwt>0</asrwt>
<pdfrwt beam="1">  1       21 0.47885955E-03 0.82046758E+02</pdfrwt>
<pdfrwt beam="2">  1        2 0.16173486E+00 0.82046758E+02</pdfrwt>
<totfact> 0.34355393E+06</totfact>
</mgrwt>
</event>
<event>
 6    2  0.9453093E+000  0.8851780E+02  0.7546771E-02  0.1306481E+00
          4   -1    0    0  502    0 -0.00000000000E+00  0.00000000000E+00  0.19335574837E+03  0.19335574837E+03  0.00000000000E+00 0. -1.
         21   -1    0    0  501  502  0.00000000000E+00 -0.00000000000E+00 -0.24199868914E+02  0.24199868914E+02  0.00000000000E+00 0.  1.
         24    2    1    2    0    0 -0.27543137655E+02 -0.14899384632E+02  0.67879148253E+02  0.11154810634E+03  0.82793629979E+02 0.  0.
        -13    1    3    3    0    0  0.16260187704E+02 -0.21004387563E+02 -0.42884990597E+01  0.26906676220E+02  0.00000000000E+00 0.  1.
         14    1    3    3    0    0 -0.43803325358E+02  0.61050029310E+01  0.72167647313E+02  0.84641430115E+02  0.00000000000E+00 0. -1.
          3    1    1    2  501    0  0.27543137655E+02  0.14899384632E+02  0.10127673120E+03  0.10600751095E+03  0.00000000000E+00 0. -1.
<mgrwt>
<rscale>  1 0.88517802E+02</rscale>
<asrwt>0</asrwt>
<pdfrwt beam="1">  1       21 0.37230569E-02 0.88517802E+02</pdfrwt>
<pdfrwt beam="2">  1        4 0.29747037E-01 0.88517802E+02</pdfrwt>
<totfact> 0.17753509E+05</totfact>
</mgrwt>
</event>
<event>
 6    2  0.9453093E+000  0.8453212E+02  0.7546771E-02  0.1316661E+00
         -3   -1    0    0    0  501 -0.00000000000E+00  0.00000000000E+00  0.56226214268E+02  0.56226214268E+02  0.00000000000E+00 0.  1.
         21   -1    0    0  501  502  0.00000000000E+00 -0.00000000000E+00 -0.13926634597E+03  0.13926634597E+03  0.00000000000E+00 0.  1.
         24    2    1    2    0    0 -0.16705213689E+02  0.11801742074E+02  0.22913678640E+02  0.87582619981E+02  0.82020322930E+02 0.  0.
        -11    1    3    3    0    0 -0.23884772937E+02  0.37247743988E+02 -0.10000842530E+02  0.45364012848E+02  0.00000000000E+00 0.  1.
         12    1    3    3    0    0  0.71795592479E+01 -0.25446001913E+02  0.32914521170E+02  0.42218607133E+02  0.00000000000E+00 0. -1.
         -4    1    1    2    0  502  0.16705213689E+02 -0.11801742074E+02 -0.10595381034E+03  0.10790994025E+03  0.00000000000E+00 0.  1.
<mgrwt>
<rscale>  1 0.84532116E+02</rscale>
<asrwt>0</asrwt>
<pdfrwt beam="1">  1       21 0.21425591E-01 0.84532116E+02</pdfrwt>
<pdfrwt beam="2">  1       -3 0.86501869E-02 0.84532116E+02</pdfrwt>
<totfact> 0.85816630E+04</totfact>
</mgrwt>
</event>
<event>
 6    2  0.9453093E+000  0.8718032E+02  0.7546771E-02  0.1309827E+00
          2   -1    0    0  502    0 -0.00000000000E+00  0.00000000000E+00  0.69743566276E+03  0.69743566276E+03  0.00000000000E+00 0. -1.
         21   -1    0    0  501  502  0.00000000000E+00 -0.00000000000E+00 -0.67878487140E+01  0.67878487140E+01  0.00000000000E+00 0.  1.
         24    2    1    2    0    0  0.31102084819E+02 -0.47482145050E+01  0.30276406543E+03  0.31506584720E+03  0.81305126139E+02 0.  0.
        -11    1    3    3    0    0  0.24892905125E+02  0.14699957471E+02  0.30449580208E+02  0.41987169589E+02  0.00000000000E+00 0.  1.
         12    1    3    3    0    0  0.62091796944E+01 -0.19448171976E+02  0.27231448522E+03  0.27307867761E+03  0.00000000000E+00 0. -1.
          1    1    1    2  501    0 -0.31102084819E+02  0.47482145050E+01  0.38788374862E+03  0.38915766428E+03  0.00000000000E+00 0. -1.
<mgrwt>
<rscale>  1 0.87180323E+02</rscale>
<asrwt>0</asrwt>
<pdfrwt beam="1">  1       21 0.10442850E-02 0.87180323E+02</pdfrwt>
<pdfrwt beam="2">  1        2 0.10729774E+00 0.87180323E+02</pdfrwt>
<totfact> 0.17373127E+06</totfact>
</mgrwt>
</event>
<event>
 6    2  0.9453093E+000  0.9053962E+02  0.7546771E-02  0.1301550E+00
         -3   -1    0    0    0  501 -0.00000000000E+00  0.00000000000E+00  0.18493628892E+02  0.18493628892E+02  0.00000000000E+00 0.  1.
         21   -1    0    0  501  502  0.00000000000E+00 -0.00000000000E+00 -0.30854661809E+03  0.30854661809E+03  0.00000000000E+00 0.  1.
         24    2    1    2    0    0 -0.90968703194E+01 -0.42708525637E+02 -0.11361119163E+03  0.14527534624E+03  0.79313631556E+02 0.  0.
        -13    1    3    3    0    0  0.21652990576E+02 -0.45869033095E+02 -0.37360339584E+02  0.62996945734E+02  0.00000000000E+00 0.  1.
         14    1    3    3    0    0 -0.30749860896E+02  0.31605074583E+01 -0.76250852046E+02  0.82278400509E+02  0.00000000000E+00 0. -1.
         -4    1    1    2    0  502  0.90968703194E+01  0.42708525637E+02 -0.17644179757E+03  0.18176490074E+03  0.00000000000E+00 0.  1.
<mgrwt>
<rscale>  1 0.90539623E+02</rscale>
<asrwt>0</asrwt>
<pdfrwt beam="1">  1       21 0.47468710E-01 0.90539623E+02</pdfrwt>
<pdfrwt beam="2">  1       -3 0.28451737E-02 0.90539623E+02</pdfrwt>
<totfact> 0.10699199E+05</totfact>
</mgrwt>
</event>
<event>
 6    2  0.9453093E+000  0.8421754E+02  0.7546771E-02  0.1317492E+00
         21   -1    0    0  501  502  0.00000000000E+00  0.00000000000E+00  0.18725329426E+03  0.18725329426E+03  0.00000000000E+00 0.  1.
          2   -1    0    0  502    0 -0.00000000000E+00 -0.00000000000E+00 -0.20840089666E+02  0.20840089666E+02  0.00000000000E+00 0. -1.
         24    2    1    2    0    0 -0.26426635783E+02  0.63570545797E+01  0.75161905955E+02  0.11288005122E+03  0.79710818808E+02 0.  0.
        -13    1    3    3    0    0 -0.43804506472E+02 -0.21551120239E+02  0.31020502000E+02  0.57840791101E+02  0.00000000000E+00 0.  1.
         14    1    3    3    0    0  0.17377870689E+02  0.27908174819E+02  0.44141403954E+02  0.55039260119E+02  0.00000000000E+00 0. -1.
          1    1    1    2  501    0  0.26426635783E+02 -0.63570545797E+01  0.91251298638E+02  0.95213332706E+02  0.00000000000E+00 0. -1.
<mgrwt>
<rscale>  1 0.84217539E+02</rscale>
<asrwt>0</asrwt>
<pdfrwt beam="1">  1       21 0.28808198E-01 0.84217539E+02</pdfrwt>
<pdfrwt beam="2">  1        2 0.32061678E-02 0.84217539E+02</pdfrwt>
<totfact> 0.36888520E+05</totfact>
</mgrwt>
</event>
<event>
 6    2  0.9453093E+000  0.8130845E+02  0.7546771E-02  0.1325379E+00
          2   -1    0    0  502    0 -0.00000000000E+00  0.00000000000E+00  0.33548822412E+02  0.33548822412E+02  0.00000000000E+00 0. -1.
         21   -1    0    0  501  502  0.00000000000E+00 -0.00000000000E+00 -0.26699102973E+03  0.26699102973E+03  0.00000000000E+00 0. -1.
         24    2    1    2    0    0  0.11938995991E+02 -0.16569364376E+02 -0.16911991450E+02  0.83048661871E+02  0.78701850822E+02 0.  0.
        -13    1    3    3    0    0  0.31186233741E+01  0.10539853739E+02 -0.43013943387E+02  0.44396099539E+02  0.00000000000E+00 0.  1.
         14    1    3    3    0    0  0.88203726166E+01 -0.27109218115E+02  0.26101951937E+02  0.38652562332E+02  0.00000000000E+00 0. -1.
          1    1    1    2  501    0 -0.11938995991E+02  0.16569364376E+02 -0.21653021587E+03  0.21749119027E+03  0.00000000000E+00 0. -1.
<mgrwt>
<rscale>  1 0.81308455E+02</rscale>
<asrwt>0</asrwt>
<pdfrwt beam="1">  1       21 0.41075542E-01 0.81308455E+02</pdfrwt>
<pdfrwt beam="2">  1        2 0.51613574E-02 0.81308455E+02</pdfrwt>
<totfact> 0.99567232E+04</totfact>
</mgrwt>
</event>
<event>
 6    2  0.9453093E+000  0.8589759E+02  0.7546771E-02  0.1313102E+00
         21   -1    0    0  501  502  0.00000000000E+00  0.00000000000E+00  0.14403177142E+02  0.14403177142E+02  0.00000000000E+00 0.  1.
          2   -1    0    0  502    0 -0.00000000000E+00 -0.00000000000E+00 -0.19961394861E+03  0.19961394861E+03  0.00000000000E+00 0. -1.
         24    2    1    2    0    0 -0.55197914680E+01 -0.20413061517E+02 -0.14326801040E+03  0.16704525774E+03  0.83254033847E+02 0.  0.
        -11    1    3    3    0    0 -0.36726395350E+02 -0.20110787680E+02 -0.35647120499E+02  0.54990809199E+02  0.00000000000E+00 0.  1.
         12    1    3    3    0    0  0.31206603882E+02 -0.30227383677E+00 -0.10762088990E+03  0.11205444854E+03  0.00000000000E+00 0. -1.
          1    1    1    2  501    0  0.55197914680E+01  0.20413061517E+02 -0.41942761069E+02  0.46971868011E+02  0.00000000000E+00 0. -1.
<mgrwt>
<rscale>  1 0.85897586E+02</rscale>
<asrwt>0</asrwt>
<pdfrwt beam="1">  1       21 0.22158737E-02 0.85897586E+02</pdfrwt>
<pdfrwt beam="2">  1        2 0.30709835E-01 0.85897586E+02</pdfrwt>
<totfact> 0.20081444E+06</totfact>
</mgrwt>
</event>
<event>
 6    2  0.9453093E+000  0.9048412E+02  0.7546771E-02  0.1301684E+00
         21   -1    0    0  501  502  0.00000000000E+00  0.00000000000E+00  0.19463058858E+04  0.19463058858E+04  0.00000000000E+00 0. -1.
         -1   -1    0    0    0  501 -0.00000000000E+00 -0.00000000000E+00 -0.24579444714E+01  0.24579444714E+01  0.00000000000E+00 0.  1.
         24    2    1    2    0    0  0.32818951563E+02 -0.34799167680E+02  0.12584601300E+04  0.12617088706E+04  0.76806964323E+02 0.  0.
        -11    1    3    3    0    0  0.65950632379E+01 -0.37622292612E+02  0.24974374681E+03  0.25264772081E+03  0.00000000000E+00 0.  1.
         12    1    3    3    0    0  0.26223888325E+02  0.28231249319E+01  0.10087163831E+04  0.10090611498E+04  0.00000000000E+00 0. -1.
         -2    1    1    2    0  502 -0.32818951563E+02  0.34799167680E+02  0.68538781135E+03  0.68705495966E+03  0.00000000000E+00 0.  1.
<mgrwt>
<rscale>  1 0.90484117E+02</rscale>
<asrwt>0</asrwt>
<pdfrwt beam="1">  1       21 0.29943044E+00 0.90484117E+02</pdfrwt>
<pdfrwt beam="2">  1       -1 0.37814686E-03 0.90484117E+02</pdfrwt>
<totfact> 0.23803304E+04</totfact>
</mgrwt>
</event>
<event>
 6    2  0.9453093E+000  0.8690143E+02  0.7546771E-02  0.1310534E+00
          2   -1    0    0  502    0 -0.00000000000E+00  0.00000000000E+00  0.12858157990E+04  0.12858157990E+04  0.00000000000E+00 0. -1.
         21   -1    0    0  501  502  0.00000000000E+00 -0.00000000000E+00 -0.24844231838E+01  0.24844231838E+01  0.00000000000E+00 0.  1.
         24    2    1    2    0    0 -0.91041202269E+00  0.26094720072E+02  0.97457423398E+03  0.97844100270E+03  0.82886035957E+02 0.  0.
        -13    1    3    3    0    0  0.19505555198E+01  0.36378555095E+02  0.17293190561E+03  0.17672760938E+03  0.00000000000E+00 0.  1.
         14    1    3    3    0    0 -0.28609675425E+01 -0.10283835022E+02  0.80164232837E+03  0.80171339333E+03  0.00000000000E+00 0. -1.
          1    1    1    2  501    0  0.91041202269E+00 -0.26094720072E+02  0.30875714186E+03  0.30985921951E+03  0.00000000000E+00 0. -1.
<mgrwt>
<rscale>  1 0.86901428E+02</rscale>
<asrwt>0</asrwt>
<pdfrwt beam="1">  1       21 0.38221998E-03 0.86901428E+02</pdfrwt>
<pdfrwt beam="2">  1        2 0.19781728E+00 0.86901428E+02</pdfrwt>
<totfact> 0.36259263E+06</totfact>
</mgrwt>
</event>
<event>
 6    2  0.9453093E+000  0.1077423E+03  0.7546771E-02  0.1264809E+00
          4   -1    0    0  502    0 -0.00000000000E+00  0.00000000000E+00  0.11157989197E+04  0.11157989197E+04  0.00000000000E+00 0. -1.
         21   -1    0    0  501  502  0.00000000000E+00 -0.00000000000E+00 -0.80709932583E+01  0.80709932583E+01  0.00000000000E+00 0. -1.
         24    2    1    2    0    0 -0.65653689510E+02 -0.27772982976E+02  0.83731773040E+03  0.84422116961E+03  0.80787722179E+02 0.  0.
        -11    1    3    3    0    0  0.65048129923E+01 -0.33775283089E+02  0.32426279773E+03  0.32608195953E+03  0.00000000000E+00 0.  1.
         12    1    3    3    0    0 -0.72158502502E+02  0.60023001130E+01  0.51305493267E+03  0.51813921009E+03  0.00000000000E+00 0. -1.
          3    1    1    2  501    0  0.65653689510E+02  0.27772982976E+02  0.27041019603E+03  0.27964874333E+03  0.00000000000E+00 0. -1.
<mgrwt>
<rscale>  1 0.10774229E+03</rscale>
<asrwt>0</asrwt>
<pdfrwt beam="1">  1       21 0.12416922E-02 0.10774229E+03</pdfrwt>
<pdfrwt beam="2">  1        4 0.17166125E+00 0.10774229E+03</pdfrwt>
<totfact> 0.23477300E+04</totfact>
</mgrwt>
</event>
<event>
 6    2  0.9453093E+000  0.8386332E+02  0.7546771E-02  0.1318432E+00
         21   -1    0    0  501  502  0.00000000000E+00  0.00000000000E+00  0.28642611804E+03  0.28642611804E+03  0.00000000000E+00 0. -1.
          2   -1    0    0  502    0 -0.00000000000E+00 -0.00000000000E+00 -0.11442529006E+03  0.11442529006E+03  0.00000000000E+00 0. -1.
         24    2    1    2    0    0  0.93781376963E+01  0.21663312496E+02 -0.98475814128E+02  0.12934659691E+03  0.80472402661E+02 0.  0.
        -13    1    3    3    0    0  0.12974217959E+02 -0.18305660807E+02  0.60705464426E+00  0.22445401858E+02  0.00000000000E+00 0.  1.
         14    1    3    3    0    0 -0.35960802624E+01  0.39968973304E+02 -0.99082868772E+02  0.10690119506E+03  0.00000000000E+00 0. -1.
          1    1    1    2  501    0 -0.93781376963E+01 -0.21663312496E+02  0.27047664211E+03  0.27150481119E+03  0.00000000000E+00 0. -1.
<mgrwt>
<rscale>  1 0.83863318E+02</rscale>
<asrwt>0</asrwt>
<pdfrwt beam="1">  1       21 0.44065556E-01 0.83863318E+02</pdfrwt>
<pdfrwt beam="2">  1        2 0.17603891E-01 0.83863318E+02</pdfrwt>
<totfact> 0.19592965E+04</totfact>
</mgrwt>
</event>
<event>
 6    2  0.9453093E+000  0.1804307E+03  0.7546771E-02  0.1167387E+00
         21   -1    0    0  501  502  0.00000000000E+00  0.00000000000E+00  0.24731026499E+02  0.24731026499E+02  0.00000000000E+00 0. -1.
          2   -1    0    0  502    0 -0.00000000000E+00 -0.00000000000E+00 -0.12307138434E+04  0.12307138434E+04  0.00000000000E+00 0. -1.
         24    2    1    2    0    0  0.16113708781E+03  0.78718014305E+01 -0.76167370372E+03  0.78275288310E+03  0.80796774331E+02 0.  0.
        -13    1    3    3    0    0  0.18293502531E+02 -0.75376801889E+01 -0.23465391750E+02  0.30693541136E+02  0.00000000000E+00 0.  1.
         14    1    3    3    0    0  0.14284358528E+03  0.15409481619E+02 -0.73820831196E+03  0.75205934196E+03  0.00000000000E+00 0. -1.
          1    1    1    2  501    0 -0.16113708781E+03 -0.78718014305E+01 -0.44430911319E+03  0.47269198680E+03  0.00000000000E+00 0. -1.
<mgrwt>
<rscale>  1 0.18043072E+03</rscale>
<asrwt>0</asrwt>
<pdfrwt beam="1">  1       21 0.38047746E-02 0.18043072E+03</pdfrwt>
<pdfrwt beam="2">  1        2 0.18934053E+00 0.18043072E+03</pdfrwt>
<totfact> 0.10464584E+05</totfact>
</mgrwt>
</event>
<event>
 6    2  0.9453093E+000  0.9071973E+02  0.7546771E-02  0.1301118E+00
          2   -1    0    0  502    0 -0.00000000000E+00  0.00000000000E+00  0.39425155397E+03  0.39425155397E+03  0.00000000000E+00 0. -1.
         21   -1    0    0  501  502  0.00000000000E+00 -0.00000000000E+00 -0.41648904045E+02  0.41648904045E+02  0.00000000000E+00 0. -1.
         24    2    1    2    0    0  0.19237926030E+02 -0.36491277576E+02  0.37714329525E+03  0.38790093291E+03  0.80798251621E+02 0.  0.
        -11    1    3    3    0    0 -0.31887077757E+02 -0.14381296512E+02  0.14001949137E+03  0.14432278191E+03  0.00000000000E+00 0.  1.
         12    1    3    3    0    0  0.51125003787E+02 -0.22109981064E+02  0.23712380389E+03  0.24357815100E+03  0.00000000000E+00 0. -1.
          1    1    1    2  501    0 -0.19237926030E+02  0.36491277576E+02 -0.24540645326E+02  0.47999525103E+02  0.00000000000E+00 0. -1.
<mgrwt>
<rscale>  1 0.90719726E+02</rscale>
<asrwt>0</asrwt>
<pdfrwt beam="1">  1       21 0.64075240E-02 0.90719726E+02</pdfrwt>
<pdfrwt beam="2">  1        2 0.60654083E-01 0.90719726E+02</pdfrwt>
<totfact> 0.17273112E+05</totfact>
</mgrwt>
</event>
<event>
 6    2  0.9453093E+000  0.8265298E+02  0.7546771E-02  0.1321687E+00
         21   -1    0    0  501  502  0.00000000000E+00  0.00000000000E+00  0.36664358449E+02  0.36664358449E+02  0.00000000000E+00 0.  1.
         -3   -1    0    0    0  501 -0.00000000000E+00 -0.00000000000E+00 -0.10603659401E+03  0.10603659401E+03  0.00000000000E+00 0.  1.
         24    2    1    2    0    0  0.18067485746E+02 -0.11290970730E+02 -0.83220091285E+02  0.11729065594E+03  0.79859841702E+02 0.  0.
        -11    1    3    3    0    0  0.28134906062E+02 -0.46501523040E+01 -0.95745982272E+02  0.99902402257E+02  0.00000000000E+00 0.  1.
         12    1    3    3    0    0 -0.10067420316E+02 -0.66408184256E+01  0.12525890987E+02  0.17388253685E+02  0.00000000000E+00 0. -1.
         -4    1    1    2    0  502 -0.18067485746E+02  0.11290970730E+02  0.13847855720E+02  0.25410296520E+02  0.00000000000E+00 0.  1.
<mgrwt>
<rscale>  1 0.82652976E+02</rscale>
<asrwt>0</asrwt>
<pdfrwt beam="1">  1       21 0.56406706E-02 0.82652976E+02</pdfrwt>
<pdfrwt beam="2">  1       -3 0.16313322E-01 0.82652976E+02</pdfrwt>
<totfact> 0.30675781E+05</totfact>
</mgrwt>
</event>
<event>
 6    2  0.9453093E+000  0.8292059E+02  0.7546771E-02  0.1320962E+00
          2   -1    0    0  502    0 -0.00000000000E+00  0.00000000000E+00  0.35025408457E+02  0.35025408457E+02  0.00000000000E+00 0. -1.
         21   -1    0    0  501  502  0.00000000000E+00 -0.00000000000E+00 -0.10544679813E+03  0.10544679813E+03  0.00000000000E+00 0.  1.
         24    2    1    2    0    0 -0.20445210343E+02  0.14955122202E+01 -0.18935366352E+02  0.85055117343E+02  0.80346634682E+02 0.  0.
        -13    1    3    3    0    0 -0.40010337091E+02 -0.82795696563E+01 -0.38181655999E+02  0.55921527185E+02  0.00000000000E+00 0.  1.
         14    1    3    3    0    0  0.19565126748E+02  0.97750818765E+01  0.19246289648E+02  0.29133590159E+02  0.00000000000E+00 0. -1.
          1    1    1    2  501    0  0.20445210343E+02 -0.14955122202E+01 -0.51486023323E+02  0.55417089245E+02  0.00000000000E+00 0. -1.
<mgrwt>
<rscale>  1 0.82920594E+02</rscale>
<asrwt>0</asrwt>
<pdfrwt beam="1">  1       21 0.16222584E-01 0.82920594E+02</pdfrwt>
<pdfrwt beam="2">  1        2 0.53885244E-02 0.82920594E+02</pdfrwt>
<totfact> 0.53965015E+05</totfact>
</mgrwt>
</event>
<event>
 6    2  0.9453093E+000  0.8387526E+02  0.7546771E-02  0.1318400E+00
         -1   -1    0    0    0  501 -0.00000000000E+00  0.00000000000E+00  0.20662538547E+02  0.20662538547E+02  0.00000000000E+00 0.  1.
         21   -1    0    0  501  502  0.00000000000E+00 -0.00000000000E+00 -0.22090882243E+03  0.22090882243E+03  0.00000000000E+00 0.  1.
         24    2    1    2    0    0 -0.27762537622E+02 -0.11587569815E+02 -0.74201732008E+02  0.11198641074E+03  0.78294501014E+02 0.  0.
        -11    1    3    3    0    0 -0.86963799550E+01 -0.35667930592E+02 -0.60162845740E+01  0.37202472729E+02  0.00000000000E+00 0.  1.
         12    1    3    3    0    0 -0.19066157667E+02  0.24080360778E+02 -0.68185447434E+02  0.74783938016E+02  0.00000000000E+00 0. -1.
         -2    1    1    2    0  502  0.27762537622E+02  0.11587569815E+02 -0.12604455187E+03  0.12958495023E+03  0.00000000000E+00 0.  1.
<mgrwt>
<rscale>  1 0.83875260E+02</rscale>
<asrwt>0</asrwt>
<pdfrwt beam="1">  1       21 0.33985974E-01 0.83875260E+02</pdfrwt>
<pdfrwt beam="2">  1       -1 0.31788519E-02 0.83875260E+02</pdfrwt>
<totfact> 0.23870343E+05</totfact>
</mgrwt>
</event>
<event>
 6    2  0.9453093E+000  0.8738750E+02  0.7546771E-02  0.1309304E+00
         21   -1    0    0  501  502  0.00000000000E+00  0.00000000000E+00  0.10198222443E+02  0.10198222443E+02  0.00000000000E+00 0. -1.
          2   -1    0    0  502    0 -0.00000000000E+00 -0.00000000000E+00 -0.43852058406E+03  0.43852058406E+03  0.00000000000E+00 0. -1.
         24    2    1    2    0    0  0.17851385028E+02 -0.27939944407E+02 -0.38128020745E+03  0.39116642419E+03  0.80853338715E+02 0.  0.
        -11    1    3    3    0    0 -0.28253120724E+02 -0.18273887162E+02 -0.89655935191E+02  0.95761999236E+02  0.00000000000E+00 0.  1.
         12    1    3    3    0    0  0.46104505752E+02 -0.96660572459E+01 -0.29162427226E+03  0.29540442495E+03  0.00000000000E+00 0. -1.
          1    1    1    2  501    0 -0.17851385028E+02  0.27939944407E+02 -0.47042154169E+02  0.57552382312E+02  0.00000000000E+00 0. -1.
<mgrwt>
<rscale>  1 0.87387498E+02</rscale>
<asrwt>0</asrwt>
<pdfrwt beam="1">  1       21 0.15689572E-02 0.87387498E+02</pdfrwt>
<pdfrwt beam="2">  1        2 0.67464710E-01 0.87387498E+02</pdfrwt>
<totfact> 0.15271890E+06</totfact>
</mgrwt>
</event>
<event>
 6    2  0.9453093E+000  0.1193747E+03  0.7546771E-02  0.1244132E+00
         21   -1    0    0  501  502  0.00000000000E+00  0.00000000000E+00  0.84823219643E+02  0.84823219643E+02  0.00000000000E+00 0. -1.
          2   -1    0    0  502    0 -0.00000000000E+00 -0.00000000000E+00 -0.30471366838E+03  0.30471366838E+03  0.00000000000E+00 0. -1.
         24    2    1    2    0    0  0.21423318768E+02  0.85088329650E+02 -0.26516807899E+03  0.29079962945E+03  0.80940298629E+02 0.  0.
        -13    1    3    3    0    0 -0.69634866083E+01 -0.10815429960E+02 -0.87262817909E+01  0.15543862610E+02  0.00000000000E+00 0.  1.
         14    1    3    3    0    0  0.28386805376E+02  0.95903759610E+02 -0.25644179720E+03  0.27525576684E+03  0.00000000000E+00 0. -1.
          1    1    1    2  501    0 -0.21423318768E+02 -0.85088329650E+02  0.45277630253E+02  0.98737258575E+02  0.00000000000E+00 0. -1.
<mgrwt>
<rscale>  1 0.11937468E+03</rscale>
<asrwt>0</asrwt>
<pdfrwt beam="1">  1       21 0.13049726E-01 0.11937468E+03</pdfrwt>
<pdfrwt beam="2">  1        2 0.46879026E-01 0.11937468E+03</pdfrwt>
<totfact> 0.66838155E+04</totfact>
</mgrwt>
</event>
<event>
 6    2  0.9453093E+000  0.8332888E+02  0.7546771E-02  0.1319861E+00
         21   -1    0    0  501  502  0.00000000000E+00  0.00000000000E+00  0.41220569227E+02  0.41220569227E+02  0.00000000000E+00 0. -1.
          2   -1    0    0  502    0 -0.00000000000E+00 -0.00000000000E+00 -0.37252375701E+03  0.37252375701E+03  0.00000000000E+00 0. -1.
         24    2    1    2    0    0  0.20067626751E+02  0.37147314333E+00 -0.36507183103E+03  0.37446113768E+03  0.80875547496E+02 0.  0.
        -13    1    3    3    0    0 -0.26721598844E+02  0.18898634361E+02 -0.12924352126E+03  0.13332325384E+03  0.00000000000E+00 0.  1.
         14    1    3    3    0    0  0.46789225595E+02 -0.18527161218E+02 -0.23582830977E+03  0.24113788384E+03  0.00000000000E+00 0. -1.
          1    1    1    2  501    0 -0.20067626751E+02 -0.37147314333E+00  0.33768643254E+02  0.39283188554E+02  0.00000000000E+00 0. -1.
<mgrwt>
<rscale>  1 0.83328877E+02</rscale>
<asrwt>0</asrwt>
<pdfrwt beam="1">  1       21 0.63416258E-02 0.83328877E+02</pdfrwt>
<pdfrwt beam="2">  1        2 0.57311349E-01 0.83328877E+02</pdfrwt>
<totfact> 0.18562033E+05</totfact>
</mgrwt>
</event>
<event>
 6    2  0.9453093E+000  0.8506768E+02  0.7546771E-02  0.1315256E+00
         21   -1    0    0  501  502  0.00000000000E+00  0.00000000000E+00  0.16122715796E+01  0.16122715796E+01  0.00000000000E+00 0.  1.
          2   -1    0    0  502    0 -0.00000000000E+00 -0.00000000000E+00 -0.18960021176E+04  0.18960021176E+04  0.00000000000E+00 0. -1.
         24    2    1    2    0    0 -0.11227246654E+02 -0.22906814489E+02 -0.14570797570E+04  0.14595608683E+04  0.81152552175E+02 0.  0.
        -11    1    3    3    0    0  0.24146468419E+01  0.14921506988E+02 -0.59084598014E+02  0.60987470948E+02  0.00000000000E+00 0.  1.
         12    1    3    3    0    0 -0.13641893496E+02 -0.37828321477E+02 -0.13979951590E+04  0.13985733973E+04  0.00000000000E+00 0. -1.
          1    1    1    2  501    0  0.11227246654E+02  0.22906814489E+02 -0.43731008899E+03  0.43805352087E+03  0.00000000000E+00 0. -1.
<mgrwt>
<rscale>  1 0.85067679E+02</rscale>
<asrwt>0</asrwt>
<pdfrwt beam="1">  1       21 0.24804209E-03 0.85067679E+02</pdfrwt>
<pdfrwt beam="2">  1        2 0.29169227E+00 0.85067679E+02</pdfrwt>
<totfact> 0.34079743E+06</totfact>
</mgrwt>
</event>
<event>
 6    2  0.9453093E+000  0.8614324E+02  0.7546771E-02  0.1312470E+00
         -3   -1    0    0    0  501 -0.00000000000E+00  0.00000000000E+00  0.26516446233E+03  0.26516446233E+03  0.00000000000E+00 0.  1.
         21   -1    0    0  501  502  0.00000000000E+00 -0.00000000000E+00 -0.14401882952E+02  0.14401882952E+02  0.00000000000E+00 0.  1.
         24    2    1    2    0    0 -0.24654297153E+02  0.27996401348E+02  0.18111009098E+03  0.20055304262E+03  0.77646796427E+02 0.  0.
        -11    1    3    3    0    0 -0.30173147221E+02  0.52679109715E+02  0.13298257137E+03  0.14618437571E+03  0.00000000000E+00 0.  1.
         12    1    3    3    0    0  0.55188500683E+01 -0.24682708367E+02  0.48127519608E+02  0.54368666914E+02  0.00000000000E+00 0. -1.
         -4    1    1    2    0  502  0.24654297153E+02 -0.27996401348E+02  0.69652488396E+02  0.79013302654E+02  0.00000000000E+00 0.  1.
<mgrwt>
<rscale>  1 0.86143240E+02</rscale>
<asrwt>0</asrwt>
<pdfrwt beam="1">  1       21 0.22156745E-02 0.86143240E+02</pdfrwt>
<pdfrwt beam="2">  1       -3 0.40794529E-01 0.86143240E+02</pdfrwt>
<totfact> 0.27392051E+05</totfact>
</mgrwt>
</event>
<event>
 6    2  0.9453093E+000  0.8036684E+02  0.7546771E-02  0.1328014E+00
          4   -1    0    0  502    0 -0.00000000000E+00  0.00000000000E+00  0.13424852873E+02  0.13424852873E+02  0.00000000000E+00 0. -1.
         21   -1    0    0  501  502  0.00000000000E+00 -0.00000000000E+00 -0.19622730423E+03  0.19622730423E+03  0.00000000000E+00 0.  1.
         24    2    1    2    0    0 -0.20673566987E+02  0.98762162833E+00 -0.15865199701E+03  0.17784624234E+03  0.77656023547E+02 0.  0.
        -11    1    3    3    0    0 -0.12044700494E+02  0.36512038499E+02 -0.11299490719E+03  0.11935682978E+03  0.00000000000E+00 0.  1.
         12    1    3    3    0    0 -0.86288664931E+01 -0.35524416871E+02 -0.45657089818E+02  0.58489412560E+02  0.00000000000E+00 0. -1.
          3    1    1    2  501    0  0.20673566987E+02 -0.98762162833E+00 -0.24150454353E+02  0.31805914763E+02  0.00000000000E+00 0. -1.
<mgrwt>
<rscale>  1 0.80366845E+02</rscale>
<asrwt>0</asrwt>
<pdfrwt beam="1">  1       21 0.30188813E-01 0.80366845E+02</pdfrwt>
<pdfrwt beam="2">  1        4 0.20653622E-02 0.80366845E+02</pdfrwt>
<totfact> 0.37282158E+05</totfact>
</mgrwt>
</event>
<event>
 6    2  0.9453093E+000  0.8530312E+02  0.7546771E-02  0.1314642E+00
          2   -1    0    0  502    0 -0.00000000000E+00  0.00000000000E+00  0.30030221126E+04  0.30030221126E+04  0.00000000000E+00 0. -1.
         21   -1    0    0  501  502  0.00000000000E+00 -0.00000000000E+00 -0.40955449586E+01  0.40955449586E+01  0.00000000000E+00 0. -1.
         24    2    1    2    0    0 -0.94236617240E+01 -0.24323717644E+02  0.29535199303E+04  0.29547515296E+04  0.81216836152E+02 0.  0.
        -11    1    3    3    0    0 -0.18981324814E+02 -0.24822741098E+02  0.40167454278E+03  0.40288819477E+03  0.00000000000E+00 0.  1.
         12    1    3    3    0    0  0.95576630902E+01  0.49902345311E+00  0.25518453875E+04  0.25518633349E+04  0.00000000000E+00 0. -1.
          1    1    1    2  501    0  0.94236617240E+01  0.24323717644E+02  0.45406637323E+02  0.52366127920E+02  0.00000000000E+00 0. -1.
<mgrwt>
<rscale>  1 0.85303125E+02</rscale>
<asrwt>0</asrwt>
<pdfrwt beam="1">  1       21 0.63008624E-03 0.85303125E+02</pdfrwt>
<pdfrwt beam="2">  1        2 0.46200164E+00 0.85303125E+02</pdfrwt>
<totfact> 0.21666709E+05</totfact>
</mgrwt>
</event>
<event>
 6    2  0.9453093E+000  0.8493272E+02  0.7546771E-02  0.1315609E+00
         -3   -1    0    0    0  501 -0.00000000000E+00  0.00000000000E+00  0.30923370768E+02  0.30923370768E+02  0.00000000000E+00 0.  1.
         21   -1    0    0  501  502  0.00000000000E+00 -0.00000000000E+00 -0.11928935223E+03  0.11928935223E+03  0.00000000000E+00 0. -1.
         24    2    1    2    0    0  0.28602873339E+02 -0.14004437848E+02 -0.44152953249E+02  0.95723820399E+02  0.78735747081E+02 0.  0.
        -13    1    3    3    0    0  0.39271623202E+01 -0.40464681651E+01  0.22899995734E+02  0.23584026652E+02  0.00000000000E+00 0.  1.
         14    1    3    3    0    0  0.24675711018E+02 -0.99579696831E+01 -0.67052948984E+02  0.72139793747E+02  0.00000000000E+00 0. -1.
         -4    1    1    2    0  502 -0.28602873339E+02  0.14004437848E+02 -0.44213028211E+02  0.54488902597E+02  0.00000000000E+00 0.  1.
<mgrwt>
<rscale>  1 0.84932718E+02</rscale>
<asrwt>0</asrwt>
<pdfrwt beam="1">  1       21 0.18352208E-01 0.84932718E+02</pdfrwt>
<pdfrwt beam="2">  1       -3 0.47574416E-02 0.84932718E+02</pdfrwt>
<totfact> 0.29427187E+05</totfact>
</mgrwt>
</event>
<event>
 6    2  0.9453093E+000  0.8343694E+02  0.7546771E-02  0.1319571E+00
          2   -1    0    0  502    0 -0.00000000000E+00  0.00000000000E+00  0.18578533861E+04  0.18578533861E+04  0.00000000000E+00 0. -1.
         21   -1    0    0  501  502  0.00000000000E+00 -0.00000000000E+00 -0.22658678406E+01  0.22658678406E+01  0.00000000000E+00 0. -1.
         24    2    1    2    0    0  0.60185328193E+01 -0.29543658242E+02  0.85126579905E+03  0.85534506729E+03  0.77798926915E+02 0.  0.
        -13    1    3    3    0    0 -0.22752662578E+02 -0.45223281440E+02  0.50277675800E+03  0.50531900540E+03  0.00000000000E+00 0.  1.
         14    1    3    3    0    0  0.28771195397E+02  0.15679623198E+02  0.34848904105E+03  0.35002606189E+03  0.00000000000E+00 0. -1.
          1    1    1    2  501    0 -0.60185328193E+01  0.29543658242E+02  0.10043217193E+04  0.10047741867E+04  0.00000000000E+00 0. -1.
<mgrwt>
<rscale>  1 0.83436943E+02</rscale>
<asrwt>0</asrwt>
<pdfrwt beam="1">  1       21 0.34859654E-03 0.83436943E+02</pdfrwt>
<pdfrwt beam="2">  1        2 0.28582238E+00 0.83436943E+02</pdfrwt>
<totfact> 0.21270891E+06</totfact>
</mgrwt>
</event>
<event>
 6    2  0.9453093E+000  0.9019517E+02  0.7546771E-02  0.1302380E+00
         -1   -1    0    0    0  501 -0.00000000000E+00  0.00000000000E+00  0.41515403249E+03  0.41515403249E+03  0.00000000000E+00 0.  1.
         21   -1    0    0  501  502  0.00000000000E+00 -0.00000000000E+00 -0.10566462861E+02  0.10566462861E+02  0.00000000000E+00 0.  1.
         24    2    1    2    0    0  0.31781643606E+02 -0.24160359321E+02  0.31461470498E+03  0.32728822317E+03  0.80878752497E+02 0.  0.
        -13    1    3    3    0    0  0.49488404896E+02 -0.35425970332E+02  0.28208679212E+03  0.28857764966E+03  0.00000000000E+00 0.  1.
         14    1    3    3    0    0 -0.17706761290E+02  0.11265611011E+02  0.32527912854E+02  0.38710573510E+02  0.00000000000E+00 0. -1.
         -2    1    1    2    0  502 -0.31781643606E+02  0.24160359321E+02  0.89972864649E+02  0.98432272177E+02  0.00000000000E+00 0.  1.
<mgrwt>
<rscale>  1 0.90195169E+02</rscale>
<asrwt>0</asrwt>
<pdfrwt beam="1">  1       21 0.16256100E-02 0.90195169E+02</pdfrwt>
<pdfrwt beam="2">  1       -1 0.63869839E-01 0.90195169E+02</pdfrwt>
<totfact> 0.38750616E+05</totfact>
</mgrwt>
</event>
<event>
 6    2  0.9453093E+000  0.8562377E+02  0.7546771E-02  0.1313809E+00
         21   -1    0    0  501  502  0.00000000000E+00  0.00000000000E+00  0.20931266477E+01  0.20931266477E+01  0.00000000000E+00 0. -1.
          2   -1    0    0  502    0 -0.00000000000E+00 -0.00000000000E+00 -0.27406081392E+04  0.27406081392E+04  0.00000000000E+00 0. -1.
         24    2    1    2    0    0  0.24541177722E+02  0.76609303673E+01 -0.26213827145E+04  0.26227807317E+04  0.81672954829E+02 0.  0.
        -13    1    3    3    0    0 -0.24148964039E+02 -0.13553513116E+00 -0.33626410881E+03  0.33713015544E+03  0.00000000000E+00 0.  1.
         14    1    3    3    0    0  0.48690141761E+02  0.77964654984E+01 -0.22851186057E+04  0.22856505763E+04  0.00000000000E+00 0. -1.
          1    1    1    2  501    0 -0.24541177722E+02 -0.76609303673E+01 -0.11713229804E+03  0.11992053411E+03  0.00000000000E+00 0. -1.
<mgrwt>
<rscale>  1 0.85623775E+02</rscale>
<asrwt>0</asrwt>
<pdfrwt beam="1">  1       21 0.32201897E-03 0.85623775E+02</pdfrwt>
<pdfrwt beam="2">  1        2 0.42163269E+00 0.85623775E+02</pdfrwt>
<totfact> 0.84397670E+05</totfact>
</mgrwt>
</event>
<event>
 6    2  0.9453093E+000  0.8705338E+02  0.7546771E-02  0.1310148E+00
          2   -1    0    0  502    0 -0.00000000000E+00  0.00000000000E+00  0.24219888568E+04  0.24219888568E+04  0.00000000000E+00 0. -1.
         21   -1    0    0  501  502  0.00000000000E+00 -0.00000000000E+00 -0.15323454826E+01  0.15323454826E+01  0.00000000000E+00 0.  1.
         24    2    1    2    0    0 -0.34112260081E+02  0.60287471277E+00  0.18474640888E+04  0.18495139497E+04  0.80089206598E+02 0.  0.
        -11    1    3    3    0    0 -0.33577591843E+01  0.27706525912E+02  0.25507781731E+03  0.25660011498E+03  0.00000000000E+00 0.  1.
         12    1    3    3    0    0 -0.30754500896E+02 -0.27103651199E+02  0.15923862715E+04  0.15929138347E+04  0.00000000000E+00 0. -1.
          1    1    1    2  501    0  0.34112260081E+02 -0.60287471277E+00  0.57299242255E+03  0.57400725261E+03  0.00000000000E+00 0. -1.
<mgrwt>
<rscale>  1 0.87053379E+02</rscale>
<asrwt>0</asrwt>
<pdfrwt beam="1">  1       21 0.23574740E-03 0.87053379E+02</pdfrwt>
<pdfrwt beam="2">  1        2 0.37261061E+00 0.87053379E+02</pdfrwt>
<totfact> 0.19938720E+06</totfact>
</mgrwt>
</event>
<event>
 6    2  0.9453093E+000  0.1028688E+03  0.7546771E-02  0.1274376E+00
         21   -1    0    0  501  502  0.00000000000E+00  0.00000000000E+00  0.15541536473E+01  0.15541536473E+01  0.00000000000E+00 0.  1.
          2   -1    0    0  502    0 -0.00000000000E+00 -0.00000000000E+00 -0.33761594672E+04  0.33761594672E+04  0.00000000000E+00 0. -1.
         24    2    1    2    0    0 -0.19099082165E+02  0.31160016900E+02 -0.20224160591E+04  0.20250305459E+04  0.96157546916E+02 0.  0.
        -13    1    3    3    0    0 -0.40809505542E+02  0.32832287553E+02 -0.55805185743E+03  0.56050446067E+03  0.00000000000E+00 0.  1.
         14    1    3    3    0    0  0.21710423377E+02 -0.16722706523E+01 -0.14643642017E+04  0.14645260852E+04  0.00000000000E+00 0. -1.
          1    1    1    2  501    0  0.19099082165E+02 -0.31160016900E+02 -0.13521892544E+04  0.13526830750E+04  0.00000000000E+00 0. -1.
<mgrwt>
<rscale>  1 0.10286883E+03</rscale>
<asrwt>0</asrwt>
<pdfrwt beam="1">  1       21 0.23909867E-03 0.10286883E+03</pdfrwt>
<pdfrwt beam="2">  1        2 0.51941327E+00 0.10286883E+03</pdfrwt>
<totfact> 0.56890692E+05</totfact>
</mgrwt>
</event>
<event>
 6    2  0.9453093E+000  0.8860789E+02  0.7546771E-02  0.1306258E+00
          2   -1    0    0  502    0 -0.00000000000E+00  0.00000000000E+00  0.46301779297E+03  0.46301779297E+03  0.00000000000E+00 0. -1.
         21   -1    0    0  501  502  0.00000000000E+00 -0.00000000000E+00 -0.81541260502E+01  0.81541260502E+01  0.00000000000E+00 0.  1.
         24    2    1    2    0    0 -0.30134710130E+02 -0.16025977674E+02  0.33860238503E+03  0.35000419072E+03  0.81770567185E+02 0.  0.
        -13    1    3    3    0    0 -0.10603831908E+02  0.13133373430E+02  0.10179971833E+02  0.19711889187E+02  0.00000000000E+00 0.  1.
         14    1    3    3    0    0 -0.19530878222E+02 -0.29159351105E+02  0.32842241320E+03  0.33029230154E+03  0.00000000000E+00 0. -1.
          1    1    1    2  501    0  0.30134710130E+02  0.16025977674E+02  0.11626128189E+03  0.12116772830E+03  0.00000000000E+00 0. -1.
<mgrwt>
<rscale>  1 0.88607891E+02</rscale>
<asrwt>0</asrwt>
<pdfrwt beam="1">  1       21 0.12544813E-02 0.88607891E+02</pdfrwt>
<pdfrwt beam="2">  1        2 0.71233486E-01 0.88607891E+02</pdfrwt>
<totfact> 0.20551943E+06</totfact>
</mgrwt>
</event>
<event>
 6    2  0.9453093E+000  0.7499493E+02  0.7546771E-02  0.1343887E+00
          2   -1    0    0  502    0 -0.00000000000E+00  0.00000000000E+00  0.95214724287E+03  0.95214724287E+03  0.00000000000E+00 0. -1.
         21   -1    0    0  501  502  0.00000000000E+00 -0.00000000000E+00 -0.60079758031E+01  0.60079758031E+01  0.00000000000E+00 0. -1.
         24    2    1    2    0    0 -0.23703529960E+02 -0.72396286505E+01  0.91630663992E+03  0.91937048974E+03  0.70781138023E+02 0.  0.
        -13    1    3    3    0    0  0.24563004553E+02 -0.45410873374E+01  0.22684274827E+03  0.22821392401E+03  0.00000000000E+00 0.  1.
         14    1    3    3    0    0 -0.48266534513E+02 -0.26985413132E+01  0.68946389164E+03  0.69115656574E+03  0.00000000000E+00 0. -1.
          1    1    1    2  501    0  0.23703529960E+02  0.72396286505E+01  0.29832627154E+02  0.38784728933E+02  0.00000000000E+00 0. -1.
<mgrwt>
<rscale>  1 0.74994927E+02</rscale>
<asrwt>0</asrwt>
<pdfrwt beam="1">  1       21 0.92430473E-03 0.74994927E+02</pdfrwt>
<pdfrwt beam="2">  1        2 0.14648407E+00 0.74994927E+02</pdfrwt>
<totfact> 0.14126287E+06</totfact>
</mgrwt>
</event>
<event>
 6    2  0.9453093E+000  0.8643999E+02  0.7546771E-02  0.1311709E+00
         21   -1    0    0  501  502  0.00000000000E+00  0.00000000000E+00  0.13870585879E+02  0.13870585879E+02  0.00000000000E+00 0. -1.
         -1   -1    0    0    0  501 -0.00000000000E+00 -0.00000000000E+00 -0.30290152816E+03  0.30290152816E+03  0.00000000000E+00 0.  1.
         24    2    1    2    0    0  0.30314092918E+02  0.20350707114E+02 -0.15097145771E+03  0.17396624305E+03  0.78350348869E+02 0.  0.
        -11    1    3    3    0    0 -0.68535377174E+01  0.32157013950E+02 -0.11923973439E+03  0.12368976830E+03  0.00000000000E+00 0.  1.
         12    1    3    3    0    0  0.37167630635E+02 -0.11806306835E+02 -0.31731723323E+02  0.50276474749E+02  0.00000000000E+00 0. -1.
         -2    1    1    2    0  502 -0.30314092918E+02 -0.20350707114E+02 -0.13805948457E+03  0.14280587099E+03  0.00000000000E+00 0.  1.
<mgrwt>
<rscale>  1 0.86439995E+02</rscale>
<asrwt>0</asrwt>
<pdfrwt beam="1">  1       21 0.21339362E-02 0.86439995E+02</pdfrwt>
<pdfrwt beam="2">  1       -1 0.46600237E-01 0.86439995E+02</pdfrwt>
<totfact> 0.44652065E+05</totfact>
</mgrwt>
</event>
<event>
 6    2  0.9453093E+000  0.8274399E+02  0.7546771E-02  0.1321440E+00
          4   -1    0    0  502    0 -0.00000000000E+00  0.00000000000E+00  0.15533484621E+03  0.15533484621E+03  0.00000000000E+00 0. -1.
         21   -1    0    0  501  502  0.00000000000E+00 -0.00000000000E+00 -0.34942409694E+02  0.34942409694E+02  0.00000000000E+00 0.  1.
         24    2    1    2    0    0  0.20263347844E+02  0.10846204977E+02  0.13828514198E+03  0.16115008067E+03  0.79487889520E+02 0.  0.
        -11    1    3    3    0    0  0.45821093818E+02  0.22821017196E+02  0.65819868714E+02  0.83382411707E+02  0.00000000000E+00 0.  1.
         12    1    3    3    0    0 -0.25557745974E+02 -0.11974812219E+02  0.72465273267E+02  0.77767668967E+02  0.00000000000E+00 0. -1.
          3    1    1    2  501    0 -0.20263347844E+02 -0.10846204977E+02 -0.17892705462E+02  0.29127175232E+02  0.00000000000E+00 0. -1.
<mgrwt>
<rscale>  1 0.82743991E+02</rscale>
<asrwt>0</asrwt>
<pdfrwt beam="1">  1       21 0.53757554E-02 0.82743991E+02</pdfrwt>
<pdfrwt beam="2">  1        4 0.23897668E-01 0.82743991E+02</pdfrwt>
<totfact> 0.14298166E+05</totfact>
</mgrwt>
</event>
<event>
 6    2  0.9453093E+000  0.8033954E+02  0.7546771E-02  0.1328091E+00
          2   -1    0    0  502    0 -0.00000000000E+00  0.00000000000E+00  0.72409846648E+03  0.72409846648E+03  0.00000000000E+00 0. -1.
         21   -1    0    0  501  502  0.00000000000E+00 -0.00000000000E+00 -0.12641372830E+02  0.12641372830E+02  0.00000000000E+00 0. -1.
         24    2    1    2    0    0  0.17025891683E+02  0.17874114561E+02  0.70712871465E+03  0.71167791952E+03  0.76453103842E+02 0.  0.
        -13    1    3    3    0    0 -0.12793847571E+02  0.13184382904E+02  0.41731747300E+02  0.45596592208E+02  0.00000000000E+00 0.  1.
         14    1    3    3    0    0  0.29819739255E+02  0.46897316575E+01  0.66539696735E+03  0.66608132731E+03  0.00000000000E+00 0. -1.
          1    1    1    2  501    0 -0.17025891683E+02 -0.17874114561E+02  0.43283790011E+01  0.25061919794E+02  0.00000000000E+00 0. -1.
<mgrwt>
<rscale>  1 0.80339542E+02</rscale>
<asrwt>0</asrwt>
<pdfrwt beam="1">  1       21 0.19448272E-02 0.80339542E+02</pdfrwt>
<pdfrwt beam="2">  1        2 0.11139973E+00 0.80339542E+02</pdfrwt>
<totfact> 0.61861191E+05</totfact>
</mgrwt>
</event>
<event>
 6    2  0.9453093E+000  0.8642166E+02  0.7546771E-02  0.1311756E+00
          2   -1    0    0  502    0 -0.00000000000E+00  0.00000000000E+00  0.14210229770E+04  0.14210229770E+04  0.00000000000E+00 0. -1.
         21   -1    0    0  501  502  0.00000000000E+00 -0.00000000000E+00 -0.25848505159E+01  0.25848505159E+01  0.00000000000E+00 0.  1.
         24    2    1    2    0    0 -0.26061183350E+02 -0.22846700747E+01  0.80783300935E+03  0.81244253558E+03  0.82366847892E+02 0.  0.
        -13    1    3    3    0    0  0.24342560833E+02  0.49885721787E+01  0.11082168535E+03  0.11357328939E+03  0.00000000000E+00 0.  1.
         14    1    3    3    0    0 -0.50403744183E+02 -0.72732422534E+01  0.69701132400E+03  0.69886924618E+03  0.00000000000E+00 0. -1.
          1    1    1    2  501    0  0.26061183350E+02  0.22846700747E+01  0.61060511714E+03  0.61116529194E+03  0.00000000000E+00 0. -1.
<mgrwt>
<rscale>  1 0.86421656E+02</rscale>
<asrwt>0</asrwt>
<pdfrwt beam="1">  1       21 0.39767045E-03 0.86421656E+02</pdfrwt>
<pdfrwt beam="2">  1        2 0.21861830E+00 0.86421656E+02</pdfrwt>
<totfact> 0.29002543E+06</totfact>
</mgrwt>
</event>
<event>
 6    2  0.9453093E+000  0.1184397E+03  0.7546771E-02  0.1245693E+00
         -1   -1    0    0    0  501 -0.00000000000E+00  0.00000000000E+00  0.19773009595E+02  0.19773009595E+02  0.00000000000E+00 0.  1.
         21   -1    0    0  501  502  0.00000000000E+00 -0.00000000000E+00 -0.11571098183E+04  0.11571098183E+04  0.00000000000E+00 0.  1.
         24    2    1    2    0    0 -0.23869882238E+02 -0.83919217660E+02 -0.17933504992E+03  0.21491631278E+03  0.80098408209E+02 0.  0.
        -13    1    3    3    0    0 -0.68940201158E+01 -0.57220991888E+02 -0.35605943542E+02  0.67746237103E+02  0.00000000000E+00 0.  1.
         14    1    3    3    0    0 -0.16975862122E+02 -0.26698225772E+02 -0.14372910638E+03  0.14717007567E+03  0.00000000000E+00 0. -1.
         -2    1    1    2    0  502  0.23869882238E+02  0.83919217660E+02 -0.95800175879E+03  0.96196651512E+03  0.00000000000E+00 0.  1.
<mgrwt>
<rscale>  1 0.11843970E+03</rscale>
<asrwt>0</asrwt>
<pdfrwt beam="1">  1       21 0.17801691E+00 0.11843970E+03</pdfrwt>
<pdfrwt beam="2">  1       -1 0.30420012E-02 0.11843970E+03</pdfrwt>
<totfact> 0.62503696E+03</totfact>
</mgrwt>
</event>
<event>
 6    2  0.9453093E+000  0.8184792E+02  0.7546771E-02  0.1323888E+00
         21   -1    0    0  501  502  0.00000000000E+00  0.00000000000E+00  0.15387243360E+02  0.15387243360E+02  0.00000000000E+00 0. -1.
          2   -1    0    0  502    0 -0.00000000000E+00 -0.00000000000E+00 -0.41798773265E+03  0.41798773265E+03  0.00000000000E+00 0. -1.
         24    2    1    2    0    0  0.39398352590E+01 -0.26342023231E+02 -0.39802072529E+03  0.40634908605E+03  0.77392877497E+02 0.  0.
        -11    1    3    3    0    0  0.20157201465E+02 -0.13289707518E+02 -0.33819714707E+02  0.41553606338E+02  0.00000000000E+00 0.  1.
         12    1    3    3    0    0 -0.16217366206E+02 -0.13052315713E+02 -0.36420101058E+03  0.36479547971E+03  0.00000000000E+00 0. -1.
          1    1    1    2  501    0 -0.39398352590E+01  0.26342023231E+02 -0.45797640034E+01  0.27025889959E+02  0.00000000000E+00 0. -1.
<mgrwt>
<rscale>  1 0.81847920E+02</rscale>
<asrwt>0</asrwt>
<pdfrwt beam="1">  1       21 0.23672682E-02 0.81847920E+02</pdfrwt>
<pdfrwt beam="2">  1        2 0.64305806E-01 0.81847920E+02</pdfrwt>
<totfact> 0.82791910E+05</totfact>
</mgrwt>
</event>
<event>
 6    2  0.9453093E+000  0.8298708E+02  0.7546771E-02  0.1320782E+00
          2   -1    0    0  502    0 -0.00000000000E+00  0.00000000000E+00  0.20992084576E+04  0.20992084576E+04  0.00000000000E+00 0. -1.
         21   -1    0    0  501  502  0.00000000000E+00 -0.00000000000E+00 -0.18980680456E+02  0.18980680456E+02  0.00000000000E+00 0. -1.
         24    2    1    2    0    0  0.19147752663E+02  0.64132769384E+01  0.20927720361E+04  0.20944167805E+04  0.80492787375E+02 0.  0.
        -13    1    3    3    0    0  0.83012178943E+01 -0.11016946193E+02  0.60968437878E+02  0.62509469197E+02  0.00000000000E+00 0.  1.
         14    1    3    3    0    0  0.10846534769E+02  0.17430223131E+02  0.20318035982E+04  0.20319073113E+04  0.00000000000E+00 0. -1.
          1    1    1    2  501    0 -0.19147752663E+02 -0.64132769384E+01 -0.12544258924E+02  0.23772357584E+02  0.00000000000E+00 0. -1.
<mgrwt>
<rscale>  1 0.82987080E+02</rscale>
<asrwt>0</asrwt>
<pdfrwt beam="1">  1       21 0.29201063E-02 0.82987080E+02</pdfrwt>
<pdfrwt beam="2">  1        2 0.32295496E+00 0.82987080E+02</pdfrwt>
<totfact> 0.58136743E+04</totfact>
</mgrwt>
</event>
<event>
 6    2  0.9453093E+000  0.9784057E+02  0.7546771E-02  0.1284904E+00
         21   -1    0    0  501  502  0.00000000000E+00  0.00000000000E+00  0.43712007820E+02  0.43712007820E+02  0.00000000000E+00 0. -1.
          2   -1    0    0  502    0 -0.00000000000E+00 -0.00000000000E+00 -0.23249195900E+03  0.23249195900E+03  0.00000000000E+00 0. -1.
         24    2    1    2    0    0  0.51446535089E+02 -0.24865268741E+02 -0.19555296811E+03  0.21866353477E+03  0.79421348137E+02 0.  0.
        -11    1    3    3    0    0 -0.73530487893E+01 -0.26637276074E+02 -0.11873675915E+03  0.12190992485E+03  0.00000000000E+00 0.  1.
         12    1    3    3    0    0  0.58799583878E+02  0.17720073323E+01 -0.76816208962E+02  0.96753609925E+02  0.00000000000E+00 0. -1.
          1    1    1    2  501    0 -0.51446535089E+02  0.24865268741E+02  0.67730169286E+01  0.57540432050E+02  0.00000000000E+00 0. -1.
<mgrwt>
<rscale>  1 0.97840575E+02</rscale>
<asrwt>0</asrwt>
<pdfrwt beam="1">  1       21 0.67249244E-02 0.97840575E+02</pdfrwt>
<pdfrwt beam="2">  1        2 0.35767993E-01 0.97840575E+02</pdfrwt>
<totfact> 0.27826946E+05</totfact>
</mgrwt>
</event>
<event>
 6    2  0.9453093E+000  0.1204153E+03  0.7546771E-02  0.1242413E+00
         21   -1    0    0  501  502  0.00000000000E+00  0.00000000000E+00  0.64212542433E+01  0.64212542433E+01  0.00000000000E+00 0.  1.
          2   -1    0    0  502    0 -0.00000000000E+00 -0.00000000000E+00 -0.17770305152E+04  0.17770305152E+04  0.00000000000E+00 0. -1.
         24    2    1    2    0    0  0.75105028535E+02 -0.47804667473E+02 -0.83880100481E+03  0.84740012676E+03  0.81078959184E+02 0.  0.
        -11    1    3    3    0    0  0.59419802635E+02 -0.10605467033E+02 -0.24869592240E+03  0.25591571013E+03  0.00000000000E+00 0.  1.
         12    1    3    3    0    0  0.15685225900E+02 -0.37199200440E+02 -0.59010508241E+03  0.59148441663E+03  0.00000000000E+00 0. -1.
          1    1    1    2  501    0 -0.75105028535E+02  0.47804667473E+02 -0.93180825616E+03  0.93605164269E+03  0.00000000000E+00 0. -1.
<mgrwt>
<rscale>  1 0.12041532E+03</rscale>
<asrwt>0</asrwt>
<pdfrwt beam="1">  1       21 0.98788518E-03 0.12041532E+03</pdfrwt>
<pdfrwt beam="2">  1        2 0.27338933E+00 0.12041532E+03</pdfrwt>
<totfact> 0.47676659E+05</totfact>
</mgrwt>
</event>
<event>
 6    2  0.9453093E+000  0.8636096E+02  0.7546771E-02  0.1311911E+00
         21   -1    0    0  501  502  0.00000000000E+00  0.00000000000E+00  0.14951229787E+02  0.14951229787E+02  0.00000000000E+00 0. -1.
          2   -1    0    0  502    0 -0.00000000000E+00 -0.00000000000E+00 -0.47935787896E+03  0.47935787896E+03  0.00000000000E+00 0. -1.
         24    2    1    2    0    0 -0.21265038293E+01  0.22228526926E+02 -0.46400719861E+03  0.47197552443E+03  0.83424132416E+02 0.  0.
        -11    1    3    3    0    0  0.13036756688E+02  0.43313999233E+02 -0.14449682922E+03  0.15141133778E+03  0.00000000000E+00 0.  1.
         12    1    3    3    0    0 -0.15163260517E+02 -0.21085472307E+02 -0.31951036939E+03  0.32056418665E+03  0.00000000000E+00 0. -1.
          1    1    1    2  501    0  0.21265038293E+01 -0.22228526926E+02 -0.39945056468E+00  0.22333584320E+02  0.00000000000E+00 0. -1.
<mgrwt>
<rscale>  1 0.86360959E+02</rscale>
<asrwt>0</asrwt>
<pdfrwt beam="1">  1       21 0.23001887E-02 0.86360959E+02</pdfrwt>
<pdfrwt beam="2">  1        2 0.73747383E-01 0.86360959E+02</pdfrwt>
<totfact> 0.75352510E+05</totfact>
</mgrwt>
</event>
<event>
 6    2  0.9453093E+000  0.1005283E+03  0.7546771E-02  0.1279189E+00
          2   -1    0    0  502    0 -0.00000000000E+00  0.00000000000E+00  0.94020744627E+02  0.94020744627E+02  0.00000000000E+00 0. -1.
         21   -1    0    0  501  502  0.00000000000E+00 -0.00000000000E+00 -0.79737898038E+02  0.79737898038E+02  0.00000000000E+00 0.  1.
         24    2    1    2    0    0  0.30314704770E+02 -0.56644481270E+02 -0.17565829420E+02  0.10205148300E+03  0.77319908403E+02 0.  0.
        -11    1    3    3    0    0  0.25642096490E+02 -0.36052859015E+02 -0.47827046085E+02  0.65151762008E+02  0.00000000000E+00 0.  1.
         12    1    3    3    0    0  0.46726082800E+01 -0.20591622255E+02  0.30261216664E+02  0.36899720991E+02  0.00000000000E+00 0. -1.
          1    1    1    2  501    0 -0.30314704770E+02  0.56644481270E+02  0.31848676009E+02  0.71707159665E+02  0.00000000000E+00 0. -1.
<mgrwt>
<rscale>  1 0.10052834E+03</rscale>
<asrwt>0</asrwt>
<pdfrwt beam="1">  1       21 0.12267369E-01 0.10052834E+03</pdfrwt>
<pdfrwt beam="2">  1        2 0.14464730E-01 0.10052834E+03</pdfrwt>
<totfact> 0.26874577E+05</totfact>
</mgrwt>
</event>
<event>
 6    2  0.9453093E+000  0.1208450E+03  0.7546771E-02  0.1241710E+00
          2   -1    0    0  502    0 -0.00000000000E+00  0.00000000000E+00  0.23034263072E+03  0.23034263072E+03  0.00000000000E+00 0. -1.
         21   -1    0    0  501  502  0.00000000000E+00 -0.00000000000E+00 -0.12093168948E+03  0.12093168948E+03  0.00000000000E+00 0. -1.
         24    2    1    2    0    0 -0.90762548078E+02 -0.19625438476E+01  0.19310341810E+03  0.22779913082E+03  0.79761031897E+02 0.  0.
        -13    1    3    3    0    0 -0.15790531540E+02 -0.85478487033E+01 -0.25816455261E+01  0.18140327930E+02  0.00000000000E+00 0.  1.
         14    1    3    3    0    0 -0.74972016537E+02  0.65853048557E+01  0.19568506362E+03  0.20965880289E+03  0.00000000000E+00 0. -1.
          1    1    1    2  501    0  0.90762548078E+02  0.19625438476E+01 -0.83692476850E+02  0.12347518938E+03  0.00000000000E+00 0. -1.
<mgrwt>
<rscale>  1 0.12084500E+03</rscale>
<asrwt>0</asrwt>
<pdfrwt beam="1">  1       21 0.18604875E-01 0.12084500E+03</pdfrwt>
<pdfrwt beam="2">  1        2 0.35437328E-01 0.12084500E+03</pdfrwt>
<totfact> 0.47394568E+04</totfact>
</mgrwt>
</event>
<event>
 6    2  0.9453093E+000  0.8939677E+02  0.7546771E-02  0.1304319E+00
          2   -1    0    0  502    0 -0.00000000000E+00  0.00000000000E+00  0.59108721828E+03  0.59108721828E+03  0.00000000000E+00 0. -1.
         21   -1    0    0  501  502  0.00000000000E+00 -0.00000000000E+00 -0.70474039222E+01  0.70474039222E+01  0.00000000000E+00 0.  1.
         24    2    1    2    0    0 -0.19527887805E+02  0.34503485335E+02  0.39763608915E+03  0.40756133532E+03  0.80124613881E+02 0.  0.
        -11    1    3    3    0    0 -0.10644593204E+02  0.78986974493E+01  0.53825502998E+01  0.14306244567E+02  0.00000000000E+00 0.  1.
         12    1    3    3    0    0 -0.88832946006E+01  0.26604787886E+02  0.39225353885E+03  0.39325509075E+03  0.00000000000E+00 0. -1.
          1    1    1    2  501    0  0.19527887805E+02 -0.34503485335E+02  0.18640372521E+03  0.19057328688E+03  0.00000000000E+00 0. -1.
<mgrwt>
<rscale>  1 0.89396771E+02</rscale>
<asrwt>0</asrwt>
<pdfrwt beam="1">  1       21 0.10842165E-02 0.89396771E+02</pdfrwt>
<pdfrwt beam="2">  1        2 0.90936456E-01 0.89396771E+02</pdfrwt>
<totfact> 0.19827750E+06</totfact>
</mgrwt>
</event>
<event>
 6    2  0.9453093E+000  0.7987679E+02  0.7546771E-02  0.1329401E+00
         21   -1    0    0  501  502  0.00000000000E+00  0.00000000000E+00  0.20479651212E+02  0.20479651212E+02  0.00000000000E+00 0.  1.
          2   -1    0    0  502    0 -0.00000000000E+00 -0.00000000000E+00 -0.13671434928E+03  0.13671434928E+03  0.00000000000E+00 0. -1.
         24    2    1    2    0    0 -0.12126956816E+02  0.19303380359E+02 -0.10456771125E+03  0.13158536608E+03  0.76554678213E+02 0.  0.
        -13    1    3    3    0    0 -0.35696273379E+00  0.35499180911E+01  0.12437518703E+02  0.12939134915E+02  0.00000000000E+00 0.  1.
         14    1    3    3    0    0 -0.11769994082E+02  0.15753462268E+02 -0.11700522995E+03  0.11864623117E+03  0.00000000000E+00 0. -1.
          1    1    1    2  501    0  0.12126956816E+02 -0.19303380359E+02 -0.11666986821E+02  0.25608634411E+02  0.00000000000E+00 0. -1.
<mgrwt>
<rscale>  1 0.79876795E+02</rscale>
<asrwt>0</asrwt>
<pdfrwt beam="1">  1       21 0.31507155E-02 0.79876795E+02</pdfrwt>
<pdfrwt beam="2">  1        2 0.21032977E-01 0.79876795E+02</pdfrwt>
<totfact> 0.16995316E+06</totfact>
</mgrwt>
</event>
<event>
 6    2  0.1306255E+001  0.8261138E+02  0.7546771E-02  0.1321800E+00
         21   -1    0    0  501  502  0.00000000000E+00  0.00000000000E+00  0.63972764060E+02  0.63972764060E+02  0.00000000000E+00 0. -1.
         -3   -1    0    0    0  501 -0.00000000000E+00 -0.00000000000E+00 -0.56835053006E+02  0.56835053006E+02  0.00000000000E+00 0.  1.
         24    2    1    2    0    0  0.10210286118E+02 -0.17840378617E+02  0.31961081477E+02  0.88578501669E+02  0.80013193768E+02 0.  0.
        -13    1    3    3    0    0  0.56189160131E+00  0.65059264541E+01 -0.25024956813E+02  0.25862932252E+02  0.00000000000E+00 0.  1.
         14    1    3    3    0    0  0.96483945162E+01 -0.24346305071E+02  0.56986038289E+02  0.62715569417E+02  0.00000000000E+00 0. -1.
         -4    1    1    2    0  502 -0.10210286118E+02  0.17840378617E+02 -0.24823370423E+02  0.32229315397E+02  0.00000000000E+00 0.  1.
<mgrwt>
<rscale>  1 0.82611381E+02</rscale>
<asrwt>0</asrwt>
<pdfrwt beam="1">  1       21 0.98419637E-02 0.82611381E+02</pdfrwt>
<pdfrwt beam="2">  1       -3 0.87438543E-02 0.82611381E+02</pdfrwt>
<totfact> 0.33529035E+05</totfact>
</mgrwt>
</event>
<event>
 6    2  0.9453093E+000  0.8737783E+02  0.7546771E-02  0.1309329E+00
          2   -1    0    0  502    0 -0.00000000000E+00  0.00000000000E+00  0.14379961331E+04  0.14379961331E+04  0.00000000000E+00 0. -1.
         21   -1    0    0  501  502  0.00000000000E+00 -0.00000000000E+00 -0.30206382898E+01  0.30206382898E+01  0.00000000000E+00 0.  1.
         24    2    1    2    0    0 -0.22801345639E+02  0.32686791764E+02  0.79153964561E+03  0.79634784880E+03  0.77759616736E+02 0.  0.
        -11    1    3    3    0    0  0.50858067762E+01  0.49804020817E+02  0.59505333434E+03  0.59715557155E+03  0.00000000000E+00 0.  1.
         12    1    3    3    0    0 -0.27887152415E+02 -0.17117229053E+02  0.19648631126E+03  0.19919227724E+03  0.00000000000E+00 0. -1.
          1    1    1    2  501    0  0.22801345639E+02 -0.32686791764E+02  0.64343584920E+03  0.64466892259E+03  0.00000000000E+00 0. -1.
<mgrwt>
<rscale>  1 0.87377833E+02</rscale>
<asrwt>0</asrwt>
<pdfrwt beam="1">  1       21 0.46471473E-03 0.87377833E+02</pdfrwt>
<pdfrwt beam="2">  1        2 0.22122963E+00 0.87377833E+02</pdfrwt>
<totfact> 0.22435655E+06</totfact>
</mgrwt>
</event>
<event>
 6    2  0.9453093E+000  0.9118814E+02  0.7546771E-02  0.1300000E+00
         21   -1    0    0  501  502  0.00000000000E+00  0.00000000000E+00  0.19104718948E+02  0.19104718948E+02  0.00000000000E+00 0. -1.
          4   -1    0    0  502    0 -0.00000000000E+00 -0.00000000000E+00 -0.24882937913E+03  0.24882937913E+03  0.00000000000E+00 0. -1.
         24    2    1    2    0    0  0.39825756581E+02 -0.24395677492E+02 -0.15287508447E+03  0.17800580857E+03  0.78320089783E+02 0.  0.
        -13    1    3    3    0    0  0.33627670345E+02  0.20300626639E+02 -0.10552094695E+03  0.11259487510E+03  0.00000000000E+00 0.  1.
         14    1    3    3    0    0  0.61980862360E+01 -0.44696304130E+02 -0.47354137524E+02  0.65410933463E+02  0.00000000000E+00 0. -1.
          3    1    1    2  501    0 -0.39825756581E+02  0.24395677492E+02 -0.76849575712E+02  0.89928289512E+02  0.00000000000E+00 0. -1.
<mgrwt>
<rscale>  1 0.91188138E+02</rscale>
<asrwt>0</asrwt>
<pdfrwt beam="1">  1       21 0.29391875E-02 0.91188138E+02</pdfrwt>
<pdfrwt beam="2">  1        4 0.38281443E-01 0.91188138E+02</pdfrwt>
<totfact> 0.16248831E+05</totfact>
</mgrwt>
</event>
<event>
 6    2  0.9453093E+000  0.1354642E+03  0.7546771E-02  0.1219566E+00
         21   -1    0    0  501  502  0.00000000000E+00  0.00000000000E+00  0.67367772155E+03  0.67367772155E+03  0.00000000000E+00 0.  1.
          4   -1    0    0  502    0 -0.00000000000E+00 -0.00000000000E+00 -0.24809676953E+02  0.24809676953E+02  0.00000000000E+00 0. -1.
         24    2    1    2    0    0 -0.36870755842E+02  0.10292712974E+03  0.24361328563E+03  0.27874358814E+03  0.79981924970E+02 0.  0.
        -13    1    3    3    0    0 -0.27832246817E+02  0.11534140554E+03  0.22687512850E+03  0.25602850959E+03  0.00000000000E+00 0.  1.
         14    1    3    3    0    0 -0.90385090258E+01 -0.12414275804E+02  0.16738157133E+02  0.22715078546E+02  0.00000000000E+00 0. -1.
          3    1    1    2  501    0  0.36870755842E+02 -0.10292712974E+03  0.40525475896E+03  0.41974381036E+03  0.00000000000E+00 0. -1.
<mgrwt>
<rscale>  1 0.13546422E+03</rscale>
<asrwt>0</asrwt>
<pdfrwt beam="1">  1       21 0.10364271E+00 0.13546422E+03</pdfrwt>
<pdfrwt beam="2">  1        4 0.38168739E-02 0.13546422E+03</pdfrwt>
<totfact> 0.11490156E+04</totfact>
</mgrwt>
</event>
<event>
 6    2  0.9453093E+000  0.8346060E+02  0.7546771E-02  0.1319508E+00
          2   -1    0    0  502    0 -0.00000000000E+00  0.00000000000E+00  0.92235644899E+02  0.92235644899E+02  0.00000000000E+00 0. -1.
         21   -1    0    0  501  502  0.00000000000E+00 -0.00000000000E+00 -0.14318186223E+03  0.14318186223E+03  0.00000000000E+00 0. -1.
         24    2    1    2    0    0 -0.12855555497E+02 -0.16690743069E+02  0.72276751707E+02  0.11040652237E+03  0.80757817787E+02 0.  0.
        -13    1    3    3    0    0 -0.91705967568E+01 -0.34646375155E+02 -0.22512325819E-02  0.35839519546E+02  0.00000000000E+00 0.  1.
         14    1    3    3    0    0 -0.36849587403E+01  0.17955632086E+02  0.72279002940E+02  0.74567002826E+02  0.00000000000E+00 0. -1.
          1    1    1    2  501    0  0.12855555497E+02  0.16690743069E+02 -0.12322296903E+03  0.12501098475E+03  0.00000000000E+00 0. -1.
<mgrwt>
<rscale>  1 0.83460598E+02</rscale>
<asrwt>0</asrwt>
<pdfrwt beam="1">  1       21 0.22027979E-01 0.83460598E+02</pdfrwt>
<pdfrwt beam="2">  1        2 0.14190099E-01 0.83460598E+02</pdfrwt>
<totfact> 0.94704919E+04</totfact>
</mgrwt>
</event>
<event>
 6    2  0.9453093E+000  0.8500794E+02  0.7546771E-02  0.1315412E+00
          2   -1    0    0  502    0 -0.00000000000E+00  0.00000000000E+00  0.11232190397E+04  0.11232190397E+04  0.00000000000E+00 0. -1.
         21   -1    0    0  501  502  0.00000000000E+00 -0.00000000000E+00 -0.30906797675E+01  0.30906797675E+01  0.00000000000E+00 0. -1.
         24    2    1    2    0    0 -0.44143016594E+01  0.27760970065E+02  0.95785046416E+03  0.96161523573E+03  0.80225883433E+02 0.  0.
        -11    1    3    3    0    0  0.28338311654E+01  0.98475536816E+01  0.12934538093E+02  0.16501732887E+02  0.00000000000E+00 0.  1.
         12    1    3    3    0    0 -0.72481328248E+01  0.17913416383E+02  0.94491592607E+03  0.94511350284E+03  0.00000000000E+00 0. -1.
          1    1    1    2  501    0  0.44143016594E+01 -0.27760970065E+02  0.16227789574E+03  0.16469448371E+03  0.00000000000E+00 0. -1.
<mgrwt>
<rscale>  1 0.85007940E+02</rscale>
<asrwt>0</asrwt>
<pdfrwt beam="1">  1       21 0.47549009E-03 0.85007940E+02</pdfrwt>
<pdfrwt beam="2">  1        2 0.17280260E+00 0.85007940E+02</pdfrwt>
<totfact> 0.31760925E+06</totfact>
</mgrwt>
</event>
<event>
 6    2  0.9453093E+000  0.8914575E+02  0.7546771E-02  0.1304934E+00
          2   -1    0    0  502    0 -0.00000000000E+00  0.00000000000E+00  0.17108267113E+04  0.17108267113E+04  0.00000000000E+00 0. -1.
         21   -1    0    0  501  502  0.00000000000E+00 -0.00000000000E+00 -0.23954894775E+01  0.23954894775E+01  0.00000000000E+00 0.  1.
         24    2    1    2    0    0  0.18170613348E+02  0.33582520904E+02  0.12747848266E+04  0.12778980078E+04  0.80554374908E+02 0.  0.
        -11    1    3    3    0    0 -0.11143956456E+02  0.41036602117E+01  0.27924285769E+02  0.30344579884E+02  0.00000000000E+00 0.  1.
         12    1    3    3    0    0  0.29314569804E+02  0.29478860692E+02  0.12468605409E+04  0.12475534280E+04  0.00000000000E+00 0. -1.
          1    1    1    2  501    0 -0.18170613348E+02 -0.33582520904E+02  0.43364639518E+03  0.43532419294E+03  0.00000000000E+00 0. -1.
<mgrwt>
<rscale>  1 0.89145747E+02</rscale>
<asrwt>0</asrwt>
<pdfrwt beam="1">  1       21 0.36853821E-03 0.89145747E+02</pdfrwt>
<pdfrwt beam="2">  1        2 0.26320313E+00 0.89145747E+02</pdfrwt>
<totfact> 0.23271196E+06</totfact>
</mgrwt>
</event>
<event>
 6    2  0.9453093E+000  0.1142407E+03  0.7546771E-02  0.1252912E+00
         -1   -1    0    0    0  501 -0.00000000000E+00  0.00000000000E+00  0.14520040927E+02  0.14520040927E+02  0.00000000000E+00 0.  1.
         21   -1    0    0  501  502  0.00000000000E+00 -0.00000000000E+00 -0.11797591883E+04  0.11797591883E+04  0.00000000000E+00 0.  1.
         24    2    1    2    0    0 -0.72006659206E+01  0.81209171122E+02 -0.10303667260E+04  0.10366805328E+04  0.80025983324E+02 0.  0.
        -13    1    3    3    0    0 -0.14636240508E+01  0.97188110656E+02 -0.86440582452E+03  0.86985349370E+03  0.00000000000E+00 0.  1.
         14    1    3    3    0    0 -0.57370418698E+01 -0.15978939534E+02 -0.16596090151E+03  0.16682703914E+03  0.00000000000E+00 0. -1.
         -2    1    1    2    0  502  0.72006659206E+01 -0.81209171122E+02 -0.13487242138E+03  0.15759869642E+03  0.00000000000E+00 0.  1.
<mgrwt>
<rscale>  1 0.11424070E+03</rscale>
<asrwt>0</asrwt>
<pdfrwt beam="1">  1       21 0.18150144E+00 0.11424070E+03</pdfrwt>
<pdfrwt beam="2">  1       -1 0.22338522E-02 0.11424070E+03</pdfrwt>
<totfact> 0.92722358E+03</totfact>
</mgrwt>
</event>
<event>
 6    2  0.1380933E+001  0.8180950E+02  0.7546771E-02  0.1323993E+00
         21   -1    0    0  501  502  0.00000000000E+00  0.00000000000E+00  0.50184415198E+01  0.50184415198E+01  0.00000000000E+00 0.  1.
         -3   -1    0    0    0  501 -0.00000000000E+00 -0.00000000000E+00 -0.62628775017E+03  0.62628775017E+03  0.00000000000E+00 0.  1.
         24    2    1    2    0    0  0.13645197023E+02 -0.14653214513E+02 -0.57633905808E+03  0.58211640094E+03  0.79321411245E+02 0.  0.
        -11    1    3    3    0    0  0.35296601446E-01 -0.13572630348E+02 -0.56254368937E+03  0.56270740176E+03  0.00000000000E+00 0.  1.
         12    1    3    3    0    0  0.13609900422E+02 -0.10805841646E+01 -0.13795368708E+02  0.19408999186E+02  0.00000000000E+00 0. -1.
         -4    1    1    2    0  502 -0.13645197023E+02  0.14653214513E+02 -0.44930250573E+02  0.49189790748E+02  0.00000000000E+00 0.  1.
<mgrwt>
<rscale>  1 0.81809501E+02</rscale>
<asrwt>0</asrwt>
<pdfrwt beam="1">  1       21 0.77206779E-03 0.81809501E+02</pdfrwt>
<pdfrwt beam="2">  1       -3 0.96351978E-01 0.81809501E+02</pdfrwt>
<totfact> 0.24350232E+05</totfact>
</mgrwt>
</event>
<event>
 6    2  0.9453093E+000  0.8577303E+02  0.7546771E-02  0.1313423E+00
         21   -1    0    0  501  502  0.00000000000E+00  0.00000000000E+00  0.13932258465E+01  0.13932258465E+01  0.00000000000E+00 0.  1.
          2   -1    0    0  502    0 -0.00000000000E+00 -0.00000000000E+00 -0.24202734829E+04  0.24202734829E+04  0.00000000000E+00 0. -1.
         24    2    1    2    0    0  0.28780344374E+02 -0.81314959255E+01 -0.18830688233E+04  0.18850212746E+04  0.80390191972E+02 0.  0.
        -11    1    3    3    0    0  0.13967564637E+02 -0.26939405323E+01 -0.52747642346E+02  0.54632078036E+02  0.00000000000E+00 0.  1.
         12    1    3    3    0    0  0.14812779737E+02 -0.54375553933E+01 -0.18303211810E+04  0.18303891966E+04  0.00000000000E+00 0. -1.
          1    1    1    2  501    0 -0.28780344374E+02  0.81314959255E+01 -0.53581143371E+03  0.53664543410E+03  0.00000000000E+00 0. -1.
<mgrwt>
<rscale>  1 0.85773028E+02</rscale>
<asrwt>0</asrwt>
<pdfrwt beam="1">  1       21 0.21434471E-03 0.85773028E+02</pdfrwt>
<pdfrwt beam="2">  1        2 0.37234582E+00 0.85773028E+02</pdfrwt>
<totfact> 0.23029105E+06</totfact>
</mgrwt>
</event>
<event>
 6    2  0.9453093E+000  0.7800200E+02  0.7546771E-02  0.1334819E+00
         21   -1    0    0  501  502  0.00000000000E+00  0.00000000000E+00  0.11790535636E+04  0.11790535636E+04  0.00000000000E+00 0. -1.
         -1   -1    0    0    0  501 -0.00000000000E+00 -0.00000000000E+00 -0.22980803678E+01  0.22980803678E+01  0.00000000000E+00 0.  1.
         24    2    1    2    0    0 -0.18669917528E+02  0.10833076966E+02  0.10380669225E+04  0.10409933943E+04  0.74955920200E+02 0.  0.
        -11    1    3    3    0    0  0.23196946874E+02  0.13391510313E+02  0.18871159544E+03  0.19060298304E+03  0.00000000000E+00 0.  1.
         12    1    3    3    0    0 -0.41866864402E+02 -0.25584333471E+01  0.84935532705E+03  0.85039041123E+03  0.00000000000E+00 0. -1.
         -2    1    1    2    0  502  0.18669917528E+02 -0.10833076966E+02  0.13868856079E+03  0.14035824974E+03  0.00000000000E+00 0.  1.
<mgrwt>
<rscale>  1 0.78001996E+02</rscale>
<asrwt>0</asrwt>
<pdfrwt beam="1">  1       21 0.18139237E+00 0.78001996E+02</pdfrwt>
<pdfrwt beam="2">  1       -1 0.35355177E-03 0.78001996E+02</pdfrwt>
<totfact> 0.12504617E+05</totfact>
</mgrwt>
</event>
<event>
 6    2  0.1346602E+001  0.8394666E+02  0.7546771E-02  0.1318210E+00
         21   -1    0    0  501  502  0.00000000000E+00  0.00000000000E+00  0.14556969709E+02  0.14556969709E+02  0.00000000000E+00 0. -1.
         -1   -1    0    0    0  501 -0.00000000000E+00 -0.00000000000E+00 -0.24023582671E+03  0.24023582671E+03  0.00000000000E+00 0.  1.
         24    2    1    2    0    0  0.23342205256E+02 -0.64671594183E+01 -0.12048101684E+03  0.14684249178E+03  0.80376360181E+02 0.  0.
        -13    1    3    3    0    0 -0.64022616220E+01  0.17309071854E+02 -0.10352752800E+03  0.10515960240E+03  0.00000000000E+00 0.  1.
         14    1    3    3    0    0  0.29744466878E+02 -0.23776231272E+02 -0.16953488839E+02  0.41682889382E+02  0.00000000000E+00 0. -1.
         -2    1    1    2    0  502 -0.23342205256E+02  0.64671594183E+01 -0.10519784016E+03  0.10795030464E+03  0.00000000000E+00 0.  1.
<mgrwt>
<rscale>  1 0.83946661E+02</rscale>
<asrwt>0</asrwt>
<pdfrwt beam="1">  1       21 0.22395340E-02 0.83946661E+02</pdfrwt>
<pdfrwt beam="2">  1       -1 0.36959354E-01 0.83946661E+02</pdfrwt>
<totfact> 0.61694312E+05</totfact>
</mgrwt>
</event>
<event>
 6    2  0.9453093E+000  0.8949819E+02  0.7546771E-02  0.1304071E+00
         21   -1    0    0  501  502  0.00000000000E+00  0.00000000000E+00  0.30389403766E+02  0.30389403766E+02  0.00000000000E+00 0.  1.
          2   -1    0    0  502    0 -0.00000000000E+00 -0.00000000000E+00 -0.14854423879E+03  0.14854423879E+03  0.00000000000E+00 0. -1.
         24    2    1    2    0    0  0.34504468537E+02 -0.15420340245E+02 -0.54153459346E+02  0.10460651877E+03  0.81126945997E+02 0.  0.
        -13    1    3    3    0    0  0.13244461265E+02  0.35072820829E+01  0.20530276099E+02  0.24682159924E+02  0.00000000000E+00 0.  1.
         14    1    3    3    0    0  0.21260007272E+02 -0.18927622328E+02 -0.74683735445E+02  0.79924358842E+02  0.00000000000E+00 0. -1.
          1    1    1    2  501    0 -0.34504468537E+02  0.15420340245E+02 -0.64001375674E+02  0.74327123787E+02  0.00000000000E+00 0. -1.
<mgrwt>
<rscale>  1 0.89498193E+02</rscale>
<asrwt>0</asrwt>
<pdfrwt beam="1">  1       21 0.46752929E-02 0.89498193E+02</pdfrwt>
<pdfrwt beam="2">  1        2 0.22852960E-01 0.89498193E+02</pdfrwt>
<totfact> 0.82261332E+05</totfact>
</mgrwt>
</event>
<event>
 6    2  0.9453093E+000  0.1144601E+03  0.7546771E-02  0.1252527E+00
         21   -1    0    0  501  502  0.00000000000E+00  0.00000000000E+00  0.31925917546E+02  0.31925917546E+02  0.00000000000E+00 0. -1.
          2   -1    0    0  502    0 -0.00000000000E+00 -0.00000000000E+00 -0.30162184863E+03  0.30162184863E+03  0.00000000000E+00 0. -1.
         24    2    1    2    0    0 -0.12444476578E+02  0.80484067659E+02 -0.16744707022E+03  0.20282906173E+03  0.80427338712E+02 0.  0.
        -11    1    3    3    0    0  0.32541309870E+02  0.25932639532E+02 -0.43952687435E+02  0.60525014448E+02  0.00000000000E+00 0.  1.
         12    1    3    3    0    0 -0.44985786448E+02  0.54551428128E+02 -0.12349438278E+03  0.14230404728E+03  0.00000000000E+00 0. -1.
          1    1    1    2  501    0  0.12444476578E+02 -0.80484067659E+02 -0.10224886086E+03  0.13071870445E+03  0.00000000000E+00 0. -1.
<mgrwt>
<rscale>  1 0.11446007E+03</rscale>
<asrwt>0</asrwt>
<pdfrwt beam="1">  1       21 0.49116795E-02 0.11446007E+03</pdfrwt>
<pdfrwt beam="2">  1        2 0.46403362E-01 0.11446007E+03</pdfrwt>
<totfact> 0.36278127E+05</totfact>
</mgrwt>
</event>
<event>
 6    2  0.9453093E+000  0.8423834E+02  0.7546771E-02  0.1317436E+00
         21   -1    0    0  501  502  0.00000000000E+00  0.00000000000E+00  0.85442388288E+01  0.85442388288E+01  0.00000000000E+00 0. -1.
         -1   -1    0    0    0  501 -0.00000000000E+00 -0.00000000000E+00 -0.36058291368E+03  0.36058291368E+03  0.00000000000E+00 0.  1.
         24    2    1    2    0    0  0.16727551332E+02  0.18385661294E+02 -0.29740345594E+03  0.30910340171E+03  0.80487600458E+02 0.  0.
        -13    1    3    3    0    0 -0.28821103841E+02 -0.74446457757E+01 -0.14291389806E+03  0.14598102971E+03  0.00000000000E+00 0.  1.
         14    1    3    3    0    0  0.45548655172E+02  0.25830307069E+02 -0.15448955788E+03  0.16312237200E+03  0.00000000000E+00 0. -1.
         -2    1    1    2    0  502 -0.16727551332E+02 -0.18385661294E+02 -0.54635218910E+02  0.60023750800E+02  0.00000000000E+00 0.  1.
<mgrwt>
<rscale>  1 0.84238337E+02</rscale>
<asrwt>0</asrwt>
<pdfrwt beam="1">  1       21 0.13144987E-02 0.84238337E+02</pdfrwt>
<pdfrwt beam="2">  1       -1 0.55474276E-01 0.84238337E+02</pdfrwt>
<totfact> 0.70086742E+05</totfact>
</mgrwt>
</event>
<event>
 6    2  0.9453093E+000  0.8372101E+02  0.7546771E-02  0.1318812E+00
          2   -1    0    0  502    0 -0.00000000000E+00  0.00000000000E+00  0.20359387594E+04  0.20359387594E+04  0.00000000000E+00 0. -1.
         21   -1    0    0  501  502  0.00000000000E+00 -0.00000000000E+00 -0.94174753494E+01  0.94174753494E+01  0.00000000000E+00 0. -1.
         24    2    1    2    0    0 -0.14495241967E+02  0.17085707096E+02  0.20203934116E+04  0.20221272820E+04  0.80667054034E+02 0.  0.
        -13    1    3    3    0    0  0.10069088033E+01 -0.31945472928E+02  0.68826630889E+03  0.68900801088E+03  0.00000000000E+00 0.  1.
         14    1    3    3    0    0 -0.15502150770E+02  0.49031180024E+02  0.13321271027E+04  0.13331192711E+04  0.00000000000E+00 0. -1.
          1    1    1    2  501    0  0.14495241967E+02 -0.17085707096E+02  0.61278725177E+01  0.23228952801E+02  0.00000000000E+00 0. -1.
<mgrwt>
<rscale>  1 0.83721007E+02</rscale>
<asrwt>0</asrwt>
<pdfrwt beam="1">  1       21 0.14488440E-02 0.83721007E+02</pdfrwt>
<pdfrwt beam="2">  1        2 0.31322100E+00 0.83721007E+02</pdfrwt>
<totfact> 0.19176160E+05</totfact>
</mgrwt>
</event>
<event>
 6    2  0.9453093E+000  0.9328882E+02  0.7546771E-02  0.1295077E+00
          2   -1    0    0  502    0 -0.00000000000E+00  0.00000000000E+00  0.15580684355E+04  0.15580684355E+04  0.00000000000E+00 0. -1.
         21   -1    0    0  501  502  0.00000000000E+00 -0.00000000000E+00 -0.38827651405E+01  0.38827651405E+01  0.00000000000E+00 0.  1.
         24    2    1    2    0    0 -0.17253620785E+02  0.48800029391E+02  0.69859047794E+03  0.70479178513E+03  0.77612332952E+02 0.  0.
        -13    1    3    3    0    0  0.24206504301E+02  0.45245856202E+02  0.35461378342E+03  0.35830723931E+03  0.00000000000E+00 0.  1.
         14    1    3    3    0    0 -0.41460125086E+02  0.35541731892E+01  0.34397669452E+03  0.34648454582E+03  0.00000000000E+00 0. -1.
          1    1    1    2  501    0  0.17253620785E+02 -0.48800029391E+02  0.85559519237E+03  0.85715941546E+03  0.00000000000E+00 0. -1.
<mgrwt>
<rscale>  1 0.93288823E+02</rscale>
<asrwt>0</asrwt>
<pdfrwt beam="1">  1       21 0.59734973E-03 0.93288823E+02</pdfrwt>
<pdfrwt beam="2">  1        2 0.23970234E+00 0.93288823E+02</pdfrwt>
<totfact> 0.13316343E+06</totfact>
</mgrwt>
</event>
<event>
 6    2  0.9453093E+000  0.8834753E+02  0.7546771E-02  0.1306903E+00
         21   -1    0    0  501  502  0.00000000000E+00  0.00000000000E+00  0.43950630357E+03  0.43950630357E+03  0.00000000000E+00 0. -1.
          2   -1    0    0  502    0 -0.00000000000E+00 -0.00000000000E+00 -0.53348711151E+02  0.53348711151E+02  0.00000000000E+00 0. -1.
         24    2    1    2    0    0 -0.21311302374E+02  0.28380724440E+02 -0.15444817432E+02  0.89687391111E+02  0.80905182838E+02 0.  0.
        -13    1    3    3    0    0 -0.29608418386E+02 -0.21661754648E+02 -0.82325705225E-01  0.36686466596E+02  0.00000000000E+00 0.  1.
         14    1    3    3    0    0  0.82971160126E+01  0.50042479088E+02 -0.15362491727E+02  0.53000924515E+02  0.00000000000E+00 0. -1.
          1    1    1    2  501    0  0.21311302374E+02 -0.28380724440E+02  0.40160240986E+03  0.40316762361E+03  0.00000000000E+00 0. -1.
<mgrwt>
<rscale>  1 0.88347528E+02</rscale>
<asrwt>0</asrwt>
<pdfrwt beam="1">  1       21 0.67616352E-01 0.88347528E+02</pdfrwt>
<pdfrwt beam="2">  1        2 0.82074943E-02 0.88347528E+02</pdfrwt>
<totfact> 0.19956620E+04</totfact>
</mgrwt>
</event>
<event>
 6    2  0.9453093E+000  0.1060403E+03  0.7546771E-02  0.1268083E+00
         -1   -1    0    0    0  501 -0.00000000000E+00  0.00000000000E+00  0.13805298877E+04  0.13805298877E+04  0.00000000000E+00 0.  1.
         21   -1    0    0  501  502  0.00000000000E+00 -0.00000000000E+00 -0.67221505419E+01  0.67221505419E+01  0.00000000000E+00 0. -1.
         24    2    1    2    0    0 -0.66750299113E+02 -0.22029377356E+02  0.10782034377E+04  0.10834053700E+04  0.79395509573E+02 0.  0.
        -13    1    3    3    0    0 -0.48009270511E+02  0.25855338706E+02  0.53258305694E+03  0.53536725818E+03  0.00000000000E+00 0.  1.
         14    1    3    3    0    0 -0.18741028602E+02 -0.47884716062E+02  0.54562038073E+03  0.54803811186E+03  0.00000000000E+00 0. -1.
         -2    1    1    2    0  502  0.66750299113E+02  0.22029377356E+02  0.29560429948E+03  0.30384666819E+03  0.00000000000E+00 0.  1.
<mgrwt>
<rscale>  1 0.10604029E+03</rscale>
<asrwt>0</asrwt>
<pdfrwt beam="1">  1       21 0.10341781E-02 0.10604029E+03</pdfrwt>
<pdfrwt beam="2">  1       -1 0.21238899E+00 0.10604029E+03</pdfrwt>
<totfact> 0.46282696E+04</totfact>
</mgrwt>
</event>
<event>
 6    2  0.9453093E+000  0.8419720E+02  0.7546771E-02  0.1317545E+00
         21   -1    0    0  501  502  0.00000000000E+00  0.00000000000E+00  0.83321715342E+02  0.83321715342E+02  0.00000000000E+00 0. -1.
          4   -1    0    0  502    0 -0.00000000000E+00 -0.00000000000E+00 -0.37469108001E+02  0.37469108001E+02  0.00000000000E+00 0. -1.
         24    2    1    2    0    0  0.22626896886E+02  0.13983664242E+02  0.41387316902E+02  0.93819391289E+02  0.79885222996E+02 0.  0.
        -13    1    3    3    0    0  0.14041355712E+01 -0.30813598109E+02  0.27459898719E+01  0.30967561827E+02  0.00000000000E+00 0.  1.
         14    1    3    3    0    0  0.21222761315E+02  0.44797262352E+02  0.38641327030E+02  0.62851829462E+02  0.00000000000E+00 0. -1.
          3    1    1    2  501    0 -0.22626896886E+02 -0.13983664242E+02  0.44652904389E+01  0.26971432054E+02  0.00000000000E+00 0. -1.
<mgrwt>
<rscale>  1 0.84197198E+02</rscale>
<asrwt>0</asrwt>
<pdfrwt beam="1">  1       21 0.12818725E-01 0.84197198E+02</pdfrwt>
<pdfrwt beam="2">  1        4 0.57644782E-02 0.84197198E+02</pdfrwt>
<totfact> 0.36209080E+05</totfact>
</mgrwt>
</event>
<event>
 6    2  0.9453093E+000  0.8545028E+02  0.7546771E-02  0.1314259E+00
          2   -1    0    0  502    0 -0.00000000000E+00  0.00000000000E+00  0.97222648023E+01  0.97222648023E+01  0.00000000000E+00 0. -1.
         21   -1    0    0  501  502  0.00000000000E+00 -0.00000000000E+00 -0.39545932278E+03  0.39545932278E+03  0.00000000000E+00 0.  1.
         24    2    1    2    0    0  0.18782885034E+02 -0.22422917303E+02 -0.34236728628E+03  0.35286981943E+03  0.80288023737E+02 0.  0.
        -13    1    3    3    0    0  0.10018055659E+02  0.12316195174E+02 -0.28358831240E+03  0.28403235913E+03  0.00000000000E+00 0.  1.
         14    1    3    3    0    0  0.87648293743E+01 -0.34739112477E+02 -0.58778973887E+02  0.68837460302E+02  0.00000000000E+00 0. -1.
          1    1    1    2  501    0 -0.18782885034E+02  0.22422917303E+02 -0.43369771692E+02  0.52311768152E+02  0.00000000000E+00 0. -1.
<mgrwt>
<rscale>  1 0.85450282E+02</rscale>
<asrwt>0</asrwt>
<pdfrwt beam="1">  1       21 0.60839884E-01 0.85450282E+02</pdfrwt>
<pdfrwt beam="2">  1        2 0.14957333E-02 0.85450282E+02</pdfrwt>
<totfact> 0.23164212E+05</totfact>
</mgrwt>
</event>
<event>
 6    2  0.9453093E+000  0.8175371E+02  0.7546771E-02  0.1324147E+00
         21   -1    0    0  501  502  0.00000000000E+00  0.00000000000E+00  0.11225928276E+03  0.11225928276E+03  0.00000000000E+00 0. -1.
          4   -1    0    0  502    0 -0.00000000000E+00 -0.00000000000E+00 -0.46865069098E+02  0.46865069098E+02  0.00000000000E+00 0. -1.
         24    2    1    2    0    0  0.16994546043E+02 -0.11972842006E+02 -0.86567044805E+01  0.82210750859E+02  0.79066462444E+02 0.  0.
        -13    1    3    3    0    0  0.32868715357E+02  0.25107351504E+02 -0.28413561531E+01  0.41458471433E+02  0.00000000000E+00 0.  1.
         14    1    3    3    0    0 -0.15874169314E+02 -0.37080193511E+02 -0.58153483274E+01  0.40752279426E+02  0.00000000000E+00 0. -1.
          3    1    1    2  501    0 -0.16994546043E+02  0.11972842006E+02  0.74050918140E+02  0.76913600997E+02  0.00000000000E+00 0. -1.
<mgrwt>
<rscale>  1 0.81753710E+02</rscale>
<asrwt>0</asrwt>
<pdfrwt beam="1">  1       21 0.17270659E-01 0.81753710E+02</pdfrwt>
<pdfrwt beam="2">  1        4 0.72100107E-02 0.81753710E+02</pdfrwt>
<totfact> 0.14757957E+05</totfact>
</mgrwt>
</event>
<event>
 6    2  0.9453093E+000  0.8437168E+02  0.7546771E-02  0.1317084E+00
         21   -1    0    0  501  502  0.00000000000E+00  0.00000000000E+00  0.18259505473E+03  0.18259505473E+03  0.00000000000E+00 0. -1.
          4   -1    0    0  502    0 -0.00000000000E+00 -0.00000000000E+00 -0.17631372178E+02  0.17631372178E+02  0.00000000000E+00 0. -1.
         24    2    1    2    0    0 -0.35837962860E+01 -0.22059481960E+02  0.96375821923E+02  0.12808934237E+03  0.81357951284E+02 0.  0.
        -13    1    3    3    0    0 -0.41558447109E+02 -0.95703453850E+01  0.62650913954E+02  0.75788079908E+02  0.00000000000E+00 0.  1.
         14    1    3    3    0    0  0.37974650823E+02 -0.12489136575E+02  0.33724907969E+02  0.52301262461E+02  0.00000000000E+00 0. -1.
          3    1    1    2  501    0  0.35837962860E+01  0.22059481960E+02  0.68587860626E+02  0.72137084537E+02  0.00000000000E+00 0. -1.
<mgrwt>
<rscale>  1 0.84371681E+02</rscale>
<asrwt>0</asrwt>
<pdfrwt beam="1">  1       21 0.28091546E-01 0.84371681E+02</pdfrwt>
<pdfrwt beam="2">  1        4 0.27125189E-02 0.84371681E+02</pdfrwt>
<totfact> 0.28396049E+05</totfact>
</mgrwt>
</event>
<event>
 6    2  0.9453093E+000  0.8759466E+02  0.7546771E-02  0.1308783E+00
          4   -1    0    0  502    0 -0.00000000000E+00  0.00000000000E+00  0.49009665964E+02  0.49009665964E+02  0.00000000000E+00 0. -1.
         21   -1    0    0  501  502  0.00000000000E+00 -0.00000000000E+00 -0.80539174800E+02  0.80539174800E+02  0.00000000000E+00 0.  1.
         24    2    1    2    0    0  0.35240178033E+01  0.31300783089E+02 -0.39518501937E+01  0.87683760092E+02  0.81735346947E+02 0.  0.
        -13    1    3    3    0    0  0.28509575708E+02 -0.54029527556E+01 -0.25226119611E+02  0.38449251178E+02  0.00000000000E+00 0.  1.
         14    1    3    3    0    0 -0.24985557904E+02  0.36703735844E+02  0.21274269418E+02  0.49234508914E+02  0.00000000000E+00 0. -1.
          3    1    1    2  501    0 -0.35240178033E+01 -0.31300783089E+02 -0.27577658642E+02  0.41865080672E+02  0.00000000000E+00 0. -1.
<mgrwt>
<rscale>  1 0.87594661E+02</rscale>
<asrwt>0</asrwt>
<pdfrwt beam="1">  1       21 0.12390642E-01 0.87594661E+02</pdfrwt>
<pdfrwt beam="2">  1        4 0.75399486E-02 0.87594661E+02</pdfrwt>
<totfact> 0.25080858E+05</totfact>
</mgrwt>
</event>
<event>
 6    2  0.9453093E+000  0.1083669E+03  0.7546771E-02  0.1263624E+00
          2   -1    0    0  502    0 -0.00000000000E+00  0.00000000000E+00  0.47359657305E+03  0.47359657305E+03  0.00000000000E+00 0. -1.
         21   -1    0    0  501  502  0.00000000000E+00 -0.00000000000E+00 -0.19956139601E+02  0.19956139601E+02  0.00000000000E+00 0.  1.
         24    2    1    2    0    0  0.67380832047E+02 -0.25296906941E+02  0.17558514987E+03  0.20633354415E+03  0.81014051615E+02 0.  0.
        -11    1    3    3    0    0  0.54226328846E+02 -0.33400797179E+02  0.53220031236E+02  0.82996865706E+02  0.00000000000E+00 0.  1.
         12    1    3    3    0    0  0.13154503201E+02  0.81038902376E+01  0.12236511864E+03  0.12333667845E+03  0.00000000000E+00 0. -1.
          1    1    1    2  501    0 -0.67380832047E+02  0.25296906941E+02  0.27805528358E+03  0.28721916850E+03  0.00000000000E+00 0. -1.
<mgrwt>
<rscale>  1 0.10836691E+03</rscale>
<asrwt>0</asrwt>
<pdfrwt beam="1">  1       21 0.30701757E-02 0.10836691E+03</pdfrwt>
<pdfrwt beam="2">  1        2 0.72861003E-01 0.10836691E+03</pdfrwt>
<totfact> 0.48702562E+05</totfact>
</mgrwt>
</event>
<event>
 6    2  0.9453093E+000  0.1035300E+03  0.7546771E-02  0.1273043E+00
         21   -1    0    0  501  502  0.00000000000E+00  0.00000000000E+00  0.14406203279E+03  0.14406203279E+03  0.00000000000E+00 0. -1.
          2   -1    0    0  502    0 -0.00000000000E+00 -0.00000000000E+00 -0.14937608359E+03  0.14937608359E+03  0.00000000000E+00 0. -1.
         24    2    1    2    0    0  0.14310436428E+02 -0.27384992437E+02 -0.12931085541E+03  0.16564948638E+03  0.98811581361E+02 0.  0.
        -11    1    3    3    0    0 -0.10584898270E+02  0.29779405498E+02 -0.14011484352E+02  0.34571299613E+02  0.00000000000E+00 0.  1.
         12    1    3    3    0    0  0.24895334698E+02 -0.57164397936E+02 -0.11529937105E+03  0.13107818677E+03  0.00000000000E+00 0. -1.
          1    1    1    2  501    0 -0.14310436428E+02  0.27384992437E+02  0.12399680461E+03  0.12778862999E+03  0.00000000000E+00 0. -1.
<mgrwt>
<rscale>  1 0.10352997E+03</rscale>
<asrwt>0</asrwt>
<pdfrwt beam="1">  1       21 0.22163390E-01 0.10352997E+03</pdfrwt>
<pdfrwt beam="2">  1        2 0.22980936E-01 0.10352997E+03</pdfrwt>
<totfact> 0.54684651E+04</totfact>
</mgrwt>
</event>
<event>
 6    2  0.9453093E+000  0.8352382E+02  0.7546771E-02  0.1319339E+00
          2   -1    0    0  502    0 -0.00000000000E+00  0.00000000000E+00  0.11172813760E+04  0.11172813760E+04  0.00000000000E+00 0. -1.
         21   -1    0    0  501  502  0.00000000000E+00 -0.00000000000E+00 -0.31048011521E+01  0.31048011521E+01  0.00000000000E+00 0.  1.
         24    2    1    2    0    0 -0.85218582835E+01 -0.22063981926E+02  0.10148913942E+04  0.10183225281E+04  0.80104854995E+02 0.  0.
        -11    1    3    3    0    0 -0.38461712138E+02 -0.33955155352E+02  0.61889733946E+03  0.62102026751E+03  0.00000000000E+00 0.  1.
         12    1    3    3    0    0  0.29939853855E+02  0.11891173426E+02  0.39599405476E+03  0.39730226058E+03  0.00000000000E+00 0. -1.
          1    1    1    2  501    0  0.85218582835E+01  0.22063981926E+02  0.99285180666E+02  0.10206364910E+03  0.00000000000E+00 0. -1.
<mgrwt>
<rscale>  1 0.83523824E+02</rscale>
<asrwt>0</asrwt>
<pdfrwt beam="1">  1       21 0.47766261E-03 0.83523824E+02</pdfrwt>
<pdfrwt beam="2">  1        2 0.17188912E+00 0.83523824E+02</pdfrwt>
<totfact> 0.31722014E+06</totfact>
</mgrwt>
</event>
<event>
 6    2  0.9453093E+000  0.7849723E+02  0.7546771E-02  0.1333371E+00
          2   -1    0    0  502    0 -0.00000000000E+00  0.00000000000E+00  0.11864603139E+04  0.11864603139E+04  0.00000000000E+00 0. -1.
         21   -1    0    0  501  502  0.00000000000E+00 -0.00000000000E+00 -0.22082125062E+01  0.22082125062E+01  0.00000000000E+00 0.  1.
         24    2    1    2    0    0  0.10282320950E+02  0.21540780733E+02  0.91292527259E+03  0.91629382240E+03  0.74780239768E+02 0.  0.
        -11    1    3    3    0    0 -0.93538663661E+01 -0.97635956489E+01  0.33969383632E+02  0.36561477546E+02  0.00000000000E+00 0.  1.
         12    1    3    3    0    0  0.19636187316E+02  0.31304376381E+02  0.87895588896E+03  0.87973234485E+03  0.00000000000E+00 0. -1.
          1    1    1    2  501    0 -0.10282320950E+02 -0.21540780733E+02  0.27132682882E+03  0.27237470404E+03  0.00000000000E+00 0. -1.
<mgrwt>
<rscale>  1 0.78497233E+02</rscale>
<asrwt>0</asrwt>
<pdfrwt beam="1">  1       21 0.33972595E-03 0.78497233E+02</pdfrwt>
<pdfrwt beam="2">  1        2 0.18253185E+00 0.78497233E+02</pdfrwt>
<totfact> 0.48462187E+06</totfact>
</mgrwt>
</event>
<event>
 6    2  0.9453093E+000  0.9139602E+02  0.7546771E-02  0.1299506E+00
         21   -1    0    0  501  502  0.00000000000E+00  0.00000000000E+00  0.18089991634E+03  0.18089991634E+03  0.00000000000E+00 0. -1.
          2   -1    0    0  502    0 -0.00000000000E+00 -0.00000000000E+00 -0.86270501484E+02  0.86270501484E+02  0.00000000000E+00 0. -1.
         24    2    1    2    0    0  0.31030409555E+02  0.29156182006E+02 -0.58311291705E+02  0.10841327944E+03  0.80871893457E+02 0.  0.
        -13    1    3    3    0    0  0.20156104942E+02 -0.25339958273E+02 -0.36299885112E+02  0.48642200925E+02  0.00000000000E+00 0.  1.
         14    1    3    3    0    0  0.10874304613E+02  0.54496140278E+02 -0.22011406593E+02  0.59771078510E+02  0.00000000000E+00 0. -1.
          1    1    1    2  501    0 -0.31030409555E+02 -0.29156182006E+02  0.15294070656E+03  0.15875713839E+03  0.00000000000E+00 0. -1.
<mgrwt>
<rscale>  1 0.91396020E+02</rscale>
<asrwt>0</asrwt>
<pdfrwt beam="1">  1       21 0.27830756E-01 0.91396020E+02</pdfrwt>
<pdfrwt beam="2">  1        2 0.13272385E-01 0.91396020E+02</pdfrwt>
<totfact> 0.66415865E+04</totfact>
</mgrwt>
</event>
<event>
 6    2  0.9453093E+000  0.9331230E+02  0.7546771E-02  0.1295023E+00
         21   -1    0    0  501  502  0.00000000000E+00  0.00000000000E+00  0.18030973700E+01  0.18030973700E+01  0.00000000000E+00 0. -1.
          2   -1    0    0  502    0 -0.00000000000E+00 -0.00000000000E+00 -0.30402726774E+04  0.30402726774E+04  0.00000000000E+00 0. -1.
         24    2    1    2    0    0  0.48042120422E+02 -0.40992645047E+01 -0.23875795606E+04  0.23894022985E+04  0.79889525698E+02 0.  0.
        -13    1    3    3    0    0 -0.19975865100E+02  0.52780529020E+00 -0.94660105322E+03  0.94681194950E+03  0.00000000000E+00 0.  1.
         14    1    3    3    0    0  0.68017985522E+02 -0.46270697949E+01 -0.14409785074E+04  0.14425903490E+04  0.00000000000E+00 0. -1.
          1    1    1    2  501    0 -0.48042120422E+02  0.40992645047E+01 -0.65089001938E+03  0.65267347627E+03  0.00000000000E+00 0. -1.
<mgrwt>
<rscale>  1 0.93312302E+02</rscale>
<asrwt>0</asrwt>
<pdfrwt beam="1">  1       21 0.27740226E-03 0.93312302E+02</pdfrwt>
<pdfrwt beam="2">  1        2 0.46772977E+00 0.93312302E+02</pdfrwt>
<totfact> 0.72090308E+05</totfact>
</mgrwt>
</event>
<event>
 6    2  0.9453093E+000  0.8557991E+02  0.7546771E-02  0.1313923E+00
         21   -1    0    0  501  502  0.00000000000E+00  0.00000000000E+00  0.91705380071E+01  0.91705380071E+01  0.00000000000E+00 0.  1.
          2   -1    0    0  502    0 -0.00000000000E+00 -0.00000000000E+00 -0.39624553952E+03  0.39624553952E+03  0.00000000000E+00 0. -1.
         24    2    1    2    0    0  0.31515274987E+02  0.45110470436E+01 -0.31873822644E+03  0.33002723929E+03  0.79437771734E+02 0.  0.
        -13    1    3    3    0    0  0.49365628979E+02  0.17160256922E+02 -0.13134215033E+03  0.14135841042E+03  0.00000000000E+00 0.  1.
         14    1    3    3    0    0 -0.17850353992E+02 -0.12649209878E+02 -0.18739607611E+03  0.18866882887E+03  0.00000000000E+00 0. -1.
          1    1    1    2  501    0 -0.31515274987E+02 -0.45110470436E+01 -0.68336775067E+02  0.75388838229E+02  0.00000000000E+00 0. -1.
<mgrwt>
<rscale>  1 0.85579914E+02</rscale>
<asrwt>0</asrwt>
<pdfrwt beam="1">  1       21 0.14108516E-02 0.85579914E+02</pdfrwt>
<pdfrwt beam="2">  1        2 0.60960869E-01 0.85579914E+02</pdfrwt>
<totfact> 0.20055149E+06</totfact>
</mgrwt>
</event>
<event>
 6    2  0.9453093E+000  0.8183569E+02  0.7546771E-02  0.1323921E+00
         21   -1    0    0  501  502  0.00000000000E+00  0.00000000000E+00  0.55192482696E+01  0.55192482696E+01  0.00000000000E+00 0.  1.
          2   -1    0    0  502    0 -0.00000000000E+00 -0.00000000000E+00 -0.50158440821E+03  0.50158440821E+03  0.00000000000E+00 0. -1.
         24    2    1    2    0    0  0.16809872595E+02  0.13208934563E+02 -0.34737192124E+03  0.35688139779E+03  0.78993877341E+02 0.  0.
        -11    1    3    3    0    0 -0.32082363646E+01  0.10339632324E+02 -0.21123487873E+01  0.11030085882E+02  0.00000000000E+00 0.  1.
         12    1    3    3    0    0  0.20018108960E+02  0.28693022390E+01 -0.34525957245E+03  0.34585131191E+03  0.00000000000E+00 0. -1.
          1    1    1    2  501    0 -0.16809872595E+02 -0.13208934563E+02 -0.14869323870E+03  0.15022225869E+03  0.00000000000E+00 0. -1.
<mgrwt>
<rscale>  1 0.81835692E+02</rscale>
<asrwt>0</asrwt>
<pdfrwt beam="1">  1       21 0.84911510E-03 0.81835692E+02</pdfrwt>
<pdfrwt beam="2">  1        2 0.77166834E-01 0.81835692E+02</pdfrwt>
<totfact> 0.34365753E+06</totfact>
</mgrwt>
</event>
<event>
 6    2  0.9453093E+000  0.8373131E+02  0.7546771E-02  0.1318784E+00
          4   -1    0    0  502    0 -0.00000000000E+00  0.00000000000E+00  0.14548004038E+03  0.14548004038E+03  0.00000000000E+00 0. -1.
         21   -1    0    0  501  502  0.00000000000E+00 -0.00000000000E+00 -0.21943844390E+02  0.21943844390E+02  0.00000000000E+00 0. -1.
         24    2    1    2    0    0 -0.14998083009E+01  0.29208884223E+02  0.93049077914E+02  0.12517613085E+03  0.78457150676E+02 0.  0.
        -13    1    3    3    0    0 -0.18031146864E+01 -0.24410993731E+02  0.52578280260E+02  0.57996753294E+02  0.00000000000E+00 0.  1.
         14    1    3    3    0    0  0.30330638552E+00  0.53619877954E+02  0.40470797654E+02  0.67179377559E+02  0.00000000000E+00 0. -1.
          3    1    1    2  501    0  0.14998083009E+01 -0.29208884223E+02  0.30487118081E+02  0.42247753921E+02  0.00000000000E+00 0. -1.
<mgrwt>
<rscale>  1 0.83731313E+02</rscale>
<asrwt>0</asrwt>
<pdfrwt beam="1">  1       21 0.33759761E-02 0.83731313E+02</pdfrwt>
<pdfrwt beam="2">  1        4 0.22381544E-01 0.83731313E+02</pdfrwt>
<totfact> 0.34733215E+05</totfact>
</mgrwt>
</event>
<event>
 6    2  0.9453093E+000  0.1072156E+03  0.7546771E-02  0.1265815E+00
         21   -1    0    0  501  502  0.00000000000E+00  0.00000000000E+00  0.62917770234E+03  0.62917770234E+03  0.00000000000E+00 0. -1.
          2   -1    0    0  502    0 -0.00000000000E+00 -0.00000000000E+00 -0.16530196003E+02  0.16530196003E+02  0.00000000000E+00 0. -1.
         24    2    1    2    0    0 -0.26953257974E+02  0.66081023471E+02  0.19991352719E+03  0.22684930965E+03  0.80012568743E+02 0.  0.
        -11    1    3    3    0    0 -0.14883467488E+01 -0.17252690404E+02  0.55948607093E+02  0.58567201895E+02  0.00000000000E+00 0.  1.
         12    1    3    3    0    0 -0.25464911225E+02  0.83333713875E+02  0.14396492009E+03  0.16828210775E+03  0.00000000000E+00 0. -1.
          1    1    1    2  501    0  0.26953257974E+02 -0.66081023471E+02  0.41273397915E+03  0.41885858869E+03  0.00000000000E+00 0. -1.
<mgrwt>
<rscale>  1 0.10721563E+03</rscale>
<asrwt>0</asrwt>
<pdfrwt beam="1">  1       21 0.96796551E-01 0.10721563E+03</pdfrwt>
<pdfrwt beam="2">  1        2 0.25431076E-02 0.10721563E+03</pdfrwt>
<totfact> 0.41183399E+04</totfact>
</mgrwt>
</event>
<event>
 6    2  0.9453093E+000  0.9223922E+02  0.7546771E-02  0.1297518E+00
          2   -1    0    0  502    0 -0.00000000000E+00  0.00000000000E+00  0.67664790532E+03  0.67664790532E+03  0.00000000000E+00 0. -1.
         21   -1    0    0  501  502  0.00000000000E+00 -0.00000000000E+00 -0.13601220020E+02  0.13601220020E+02  0.00000000000E+00 0.  1.
         24    2    1    2    0    0 -0.30895165640E+01  0.37180994882E+02  0.63952851803E+03  0.64614611314E+03  0.84356995366E+02 0.  0.
        -11    1    3    3    0    0  0.12936745061E+00  0.20524090102E+02  0.29814540480E+02  0.36196157731E+02  0.00000000000E+00 0.  1.
         12    1    3    3    0    0 -0.32188840146E+01  0.16656904780E+02  0.60971397755E+03  0.60994995541E+03  0.00000000000E+00 0. -1.
          1    1    1    2  501    0  0.30895165640E+01 -0.37180994882E+02  0.23518167274E+02  0.44103012198E+02  0.00000000000E+00 0. -1.
<mgrwt>
<rscale>  1 0.92239222E+02</rscale>
<asrwt>0</asrwt>
<pdfrwt beam="1">  1       21 0.20924959E-02 0.92239222E+02</pdfrwt>
<pdfrwt beam="2">  1        2 0.10409965E+00 0.92239222E+02</pdfrwt>
<totfact> 0.60198453E+05</totfact>
</mgrwt>
</event>
<event>
 6    2  0.9453093E+000  0.8324051E+02  0.7546771E-02  0.1320099E+00
          2   -1    0    0  502    0 -0.00000000000E+00  0.00000000000E+00  0.70098342303E+02  0.70098342303E+02  0.00000000000E+00 0. -1.
         21   -1    0    0  501  502  0.00000000000E+00 -0.00000000000E+00 -0.55412756133E+02  0.55412756133E+02  0.00000000000E+00 0. -1.
         24    2    1    2    0    0  0.18091929372E+02  0.13100955462E+02  0.39488754714E+02  0.92132211213E+02  0.80187465677E+02 0.  0.
        -11    1    3    3    0    0 -0.67332070626E+01  0.17986270981E+02 -0.19852760495E+02  0.27621986178E+02  0.00000000000E+00 0.  1.
         12    1    3    3    0    0  0.24825136435E+02 -0.48853155188E+01  0.59341515209E+02  0.64510225035E+02  0.00000000000E+00 0. -1.
          1    1    1    2  501    0 -0.18091929372E+02 -0.13100955462E+02 -0.24803168544E+02  0.33378887223E+02  0.00000000000E+00 0. -1.
<mgrwt>
<rscale>  1 0.83240511E+02</rscale>
<asrwt>0</asrwt>
<pdfrwt beam="1">  1       21 0.85250394E-02 0.83240511E+02</pdfrwt>
<pdfrwt beam="2">  1        2 0.10784360E-01 0.83240511E+02</pdfrwt>
<totfact> 0.70337010E+05</totfact>
</mgrwt>
</event>
<event>
 6    2  0.9453093E+000  0.1402226E+03  0.7546771E-02  0.1213030E+00
         21   -1    0    0  501  502  0.00000000000E+00  0.00000000000E+00  0.80342174718E+02  0.80342174718E+02  0.00000000000E+00 0. -1.
          2   -1    0    0  502    0 -0.00000000000E+00 -0.00000000000E+00 -0.52779735301E+03  0.52779735301E+03  0.00000000000E+00 0. -1.
         24    2    1    2    0    0 -0.81495753291E+02 -0.75935432540E+02 -0.47343137943E+03  0.49376072399E+03  0.85174138110E+02 0.  0.
        -11    1    3    3    0    0 -0.43968726554E+02  0.41861351706E+01 -0.89991112525E+02  0.10024556337E+03  0.00000000000E+00 0.  1.
         12    1    3    3    0    0 -0.37527026736E+02 -0.80121567710E+02 -0.38344026691E+03  0.39351516061E+03  0.00000000000E+00 0. -1.
          1    1    1    2  501    0  0.81495753291E+02  0.75935432540E+02  0.25976201140E+02  0.11437880374E+03  0.00000000000E+00 0. -1.
<mgrwt>
<rscale>  1 0.14022261E+03</rscale>
<asrwt>0</asrwt>
<pdfrwt beam="1">  1       21 0.12360335E-01 0.14022261E+03</pdfrwt>
<pdfrwt beam="2">  1        2 0.81199593E-01 0.14022261E+03</pdfrwt>
<totfact> 0.40914910E+04</totfact>
</mgrwt>
</event>
<event>
 6    2  0.9453093E+000  0.9160356E+02  0.7546771E-02  0.1299014E+00
         21   -1    0    0  501  502  0.00000000000E+00  0.00000000000E+00  0.16155995700E+02  0.16155995700E+02  0.00000000000E+00 0.  1.
          2   -1    0    0  502    0 -0.00000000000E+00 -0.00000000000E+00 -0.29808010363E+03  0.29808010363E+03  0.00000000000E+00 0. -1.
         24    2    1    2    0    0  0.23882935534E+02  0.36949347272E+02 -0.15673157093E+03  0.18153786952E+03  0.80346523705E+02 0.  0.
        -13    1    3    3    0    0 -0.12426988641E+02  0.40217802208E+02 -0.35891590012E+02  0.55318241971E+02  0.00000000000E+00 0.  1.
         14    1    3    3    0    0  0.36309924175E+02 -0.32684549368E+01 -0.12083998092E+03  0.12621962755E+03  0.00000000000E+00 0. -1.
          1    1    1    2  501    0 -0.23882935534E+02 -0.36949347272E+02 -0.12519253701E+03  0.13269822981E+03  0.00000000000E+00 0. -1.
<mgrwt>
<rscale>  1 0.91603563E+02</rscale>
<asrwt>0</asrwt>
<pdfrwt beam="1">  1       21 0.24855378E-02 0.91603563E+02</pdfrwt>
<pdfrwt beam="2">  1        2 0.45858478E-01 0.91603563E+02</pdfrwt>
<totfact> 0.11028875E+06</totfact>
</mgrwt>
</event>
<event>
 6    2  0.9453093E+000  0.8708322E+02  0.7546771E-02  0.1310073E+00
          2   -1    0    0  502    0 -0.00000000000E+00  0.00000000000E+00  0.87985940955E+01  0.87985940955E+01  0.00000000000E+00 0. -1.
         21   -1    0    0  501  502  0.00000000000E+00 -0.00000000000E+00 -0.48453334230E+03  0.48453334230E+03  0.00000000000E+00 0. -1.
         24    2    1    2    0    0  0.23739764289E+01 -0.29643042752E+02 -0.23227699902E+03  0.24806469157E+03  0.81848281479E+02 0.  0.
        -13    1    3    3    0    0 -0.22947387411E+02 -0.13918650511E+02 -0.20771552474E+03  0.20944223700E+03  0.00000000000E+00 0.  1.
         14    1    3    3    0    0  0.25321363840E+02 -0.15724392241E+02 -0.24561474279E+02  0.38622454568E+02  0.00000000000E+00 0. -1.
          1    1    1    2  501    0 -0.23739764289E+01  0.29643042752E+02 -0.24345774919E+03  0.24526724483E+03  0.00000000000E+00 0. -1.
<mgrwt>
<rscale>  1 0.87083218E+02</rscale>
<asrwt>0</asrwt>
<pdfrwt beam="1">  1       21 0.74543589E-01 0.87083218E+02</pdfrwt>
<pdfrwt beam="2">  1        2 0.13536299E-02 0.87083218E+02</pdfrwt>
<totfact> 0.17200433E+05</totfact>
</mgrwt>
</event>
<event>
 6    2  0.9453093E+000  0.8207095E+02  0.7546771E-02  0.1323275E+00
         21   -1    0    0  501  502  0.00000000000E+00  0.00000000000E+00  0.24695902806E+03  0.24695902806E+03  0.00000000000E+00 0. -1.
         -3   -1    0    0    0  501 -0.00000000000E+00 -0.00000000000E+00 -0.11315372088E+02  0.11315372088E+02  0.00000000000E+00 0.  1.
         24    2    1    2    0    0 -0.15007575042E+02 -0.18168258173E+02  0.18737403838E+03  0.20455970108E+03  0.78615063015E+02 0.  0.
        -11    1    3    3    0    0 -0.22603541809E+02 -0.52468483058E+01  0.79766514093E+01  0.24537246935E+02  0.00000000000E+00 0.  1.
         12    1    3    3    0    0  0.75959667670E+01 -0.12921409867E+02  0.17939738697E+03  0.18002245414E+03  0.00000000000E+00 0. -1.
         -4    1    1    2    0  502  0.15007575042E+02  0.18168258173E+02  0.48269617595E+02  0.53714699073E+02  0.00000000000E+00 0.  1.
<mgrwt>
<rscale>  1 0.82070951E+02</rscale>
<asrwt>0</asrwt>
<pdfrwt beam="1">  1       21 0.37993692E-01 0.82070951E+02</pdfrwt>
<pdfrwt beam="2">  1       -3 0.17408267E-02 0.82070951E+02</pdfrwt>
<totfact> 0.34578972E+05</totfact>
</mgrwt>
</event>
<event>
 6    2  0.9453093E+000  0.8372814E+02  0.7546771E-02  0.1318792E+00
          4   -1    0    0  502    0 -0.00000000000E+00  0.00000000000E+00  0.68678039104E+03  0.68678039104E+03  0.00000000000E+00 0. -1.
         21   -1    0    0  501  502  0.00000000000E+00 -0.00000000000E+00 -0.13932890931E+02  0.13932890931E+02  0.00000000000E+00 0.  1.
         24    2    1    2    0    0  0.17618567557E+02  0.20125878094E+02  0.11513832179E+03  0.14236304021E+03  0.79340640164E+02 0.  0.
        -13    1    3    3    0    0  0.35123847595E+02  0.54853231478E+00  0.13907371404E+02  0.37780954685E+02  0.00000000000E+00 0.  1.
         14    1    3    3    0    0 -0.17505280037E+02  0.19577345779E+02  0.10123095038E+03  0.10458208552E+03  0.00000000000E+00 0. -1.
          3    1    1    2  501    0 -0.17618567557E+02 -0.20125878094E+02  0.55770917832E+03  0.55835024176E+03  0.00000000000E+00 0. -1.
<mgrwt>
<rscale>  1 0.83728144E+02</rscale>
<asrwt>0</asrwt>
<pdfrwt beam="1">  1       21 0.21435222E-02 0.83728144E+02</pdfrwt>
<pdfrwt beam="2">  1        4 0.10565850E+00 0.83728144E+02</pdfrwt>
<totfact> 0.31355316E+04</totfact>
</mgrwt>
</event>
<event>
 6    2  0.9453093E+000  0.9432349E+02  0.7546771E-02  0.1292707E+00
         21   -1    0    0  501  502  0.00000000000E+00  0.00000000000E+00  0.20729658380E+02  0.20729658380E+02  0.00000000000E+00 0.  1.
          2   -1    0    0  502    0 -0.00000000000E+00 -0.00000000000E+00 -0.28279656585E+03  0.28279656585E+03  0.00000000000E+00 0. -1.
         24    2    1    2    0    0 -0.36957903497E+02  0.34615732599E+02 -0.11954390742E+03  0.15227497260E+03  0.79578803127E+02 0.  0.
        -13    1    3    3    0    0  0.18756407623E+02  0.24303069901E+02 -0.16932638243E+02  0.35059325028E+02  0.00000000000E+00 0.  1.
         14    1    3    3    0    0 -0.55714311120E+02  0.10312662698E+02 -0.10261126917E+03  0.11721564758E+03  0.00000000000E+00 0. -1.
          1    1    1    2  501    0  0.36957903497E+02 -0.34615732599E+02 -0.14252300005E+03  0.15125125163E+03  0.00000000000E+00 0. -1.
<mgrwt>
<rscale>  1 0.94323494E+02</rscale>
<asrwt>0</asrwt>
<pdfrwt beam="1">  1       21 0.31891781E-02 0.94323494E+02</pdfrwt>
<pdfrwt beam="2">  1        2 0.43507165E-01 0.94323494E+02</pdfrwt>
<totfact> 0.77987476E+05</totfact>
</mgrwt>
</event>
<event>
 6    2  0.9453093E+000  0.9742379E+02  0.7546771E-02  0.1285809E+00
          2   -1    0    0  502    0 -0.00000000000E+00  0.00000000000E+00  0.15516410395E+03  0.15516410395E+03  0.00000000000E+00 0. -1.
         21   -1    0    0  501  502  0.00000000000E+00 -0.00000000000E+00 -0.53774061166E+02  0.53774061166E+02  0.00000000000E+00 0. -1.
         24    2    1    2    0    0  0.50503213293E+02 -0.16172244617E+02  0.11832375722E+03  0.15327069945E+03  0.81726860568E+02 0.  0.
        -11    1    3    3    0    0 -0.37243034850E+01 -0.37318401673E+02  0.32821769504E+02  0.49837757707E+02  0.00000000000E+00 0.  1.
         12    1    3    3    0    0  0.54227516778E+02  0.21146157056E+02  0.85501987720E+02  0.10343294175E+03  0.00000000000E+00 0. -1.
          1    1    1    2  501    0 -0.50503213293E+02  0.16172244617E+02 -0.16933714438E+02  0.55667465665E+02  0.00000000000E+00 0. -1.
<mgrwt>
<rscale>  1 0.97423795E+02</rscale>
<asrwt>0</asrwt>
<pdfrwt beam="1">  1       21 0.82729326E-02 0.97423795E+02</pdfrwt>
<pdfrwt beam="2">  1        2 0.23871400E-01 0.97423795E+02</pdfrwt>
<totfact> 0.30189638E+05</totfact>
</mgrwt>
</event>
<event>
 6    2  0.9453093E+000  0.1113235E+03  0.7546771E-02  0.1258138E+00
         21   -1    0    0  501  502  0.00000000000E+00  0.00000000000E+00  0.11807562516E+02  0.11807562516E+02  0.00000000000E+00 0. -1.
         -1   -1    0    0    0  501 -0.00000000000E+00 -0.00000000000E+00 -0.82584171416E+03  0.82584171416E+03  0.00000000000E+00 0.  1.
         24    2    1    2    0    0 -0.42987848565E+02  0.62570098474E+02 -0.34513269859E+03  0.36264238723E+03  0.81424498956E+02 0.  0.
        -13    1    3    3    0    0  0.12353942748E+02  0.51053075192E+02 -0.20289309117E+03  0.20958206706E+03  0.00000000000E+00 0.  1.
         14    1    3    3    0    0 -0.55341791313E+02  0.11517023282E+02 -0.14223960742E+03  0.15306032017E+03  0.00000000000E+00 0. -1.
         -2    1    1    2    0  502  0.42987848565E+02 -0.62570098474E+02 -0.46890145305E+03  0.47500688944E+03  0.00000000000E+00 0.  1.
<mgrwt>
<rscale>  1 0.11132350E+03</rscale>
<asrwt>0</asrwt>
<pdfrwt beam="1">  1       21 0.18165482E-02 0.11132350E+03</pdfrwt>
<pdfrwt beam="2">  1       -1 0.12705256E+00 0.11132350E+03</pdfrwt>
<totfact> 0.76625103E+04</totfact>
</mgrwt>
</event>
<event>
 6    2  0.9453093E+000  0.8521234E+02  0.7546771E-02  0.1314878E+00
         21   -1    0    0  501  502  0.00000000000E+00  0.00000000000E+00  0.12628215808E+02  0.12628215808E+02  0.00000000000E+00 0.  1.
          2   -1    0    0  502    0 -0.00000000000E+00 -0.00000000000E+00 -0.33430595563E+03  0.33430595563E+03  0.00000000000E+00 0. -1.
         24    2    1    2    0    0  0.30133912851E+02 -0.17456287283E+01 -0.29357831895E+03  0.30569490160E+03  0.79687160720E+02 0.  0.
        -13    1    3    3    0    0  0.27683250433E+02 -0.31499040518E+02 -0.24583446143E+03  0.24938551348E+03  0.00000000000E+00 0.  1.
         14    1    3    3    0    0  0.24506624179E+01  0.29753411789E+02 -0.47743857520E+02  0.56309388119E+02  0.00000000000E+00 0. -1.
          1    1    1    2  501    0 -0.30133912851E+02  0.17456287283E+01 -0.28099420872E+02  0.41239269837E+02  0.00000000000E+00 0. -1.
<mgrwt>
<rscale>  1 0.85212344E+02</rscale>
<asrwt>0</asrwt>
<pdfrwt beam="1">  1       21 0.19428025E-02 0.85212344E+02</pdfrwt>
<pdfrwt beam="2">  1        2 0.51431682E-01 0.85212344E+02</pdfrwt>
<totfact> 0.14412766E+06</totfact>
</mgrwt>
</event>
<event>
 6    2  0.9453093E+000  0.1527120E+03  0.7546771E-02  0.1197180E+00
          2   -1    0    0  502    0 -0.00000000000E+00  0.00000000000E+00  0.82360895906E+03  0.82360895906E+03  0.00000000000E+00 0. -1.
         21   -1    0    0  501  502  0.00000000000E+00 -0.00000000000E+00 -0.22961661170E+02  0.22961661170E+02  0.00000000000E+00 0. -1.
         24    2    1    2    0    0 -0.18310109871E+02 -0.11004744111E+03  0.57382329233E+03  0.59379635549E+03  0.10428442620E+03 0.  0.
        -11    1    3    3    0    0 -0.16835336102E+02 -0.11376253082E+02  0.12480491133E+02  0.23845551676E+02  0.00000000000E+00 0.  1.
         12    1    3    3    0    0 -0.14747737693E+01 -0.98671188033E+02  0.56134280120E+03  0.56995080381E+03  0.00000000000E+00 0. -1.
          1    1    1    2  501    0  0.18310109871E+02  0.11004744111E+03  0.22682400556E+03  0.25277426474E+03  0.00000000000E+00 0. -1.
<mgrwt>
<rscale>  1 0.15271195E+03</rscale>
<asrwt>0</asrwt>
<pdfrwt beam="1">  1       21 0.35325639E-02 0.15271195E+03</pdfrwt>
<pdfrwt beam="2">  1        2 0.12670905E+00 0.15271195E+03</pdfrwt>
<totfact> 0.20754742E+05</totfact>
</mgrwt>
</event>
<event>
 6    2  0.9453093E+000  0.9026128E+02  0.7546771E-02  0.1302220E+00
         21   -1    0    0  501  502  0.00000000000E+00  0.00000000000E+00  0.28380262371E+02  0.28380262371E+02  0.00000000000E+00 0.  1.
          2   -1    0    0  502    0 -0.00000000000E+00 -0.00000000000E+00 -0.16572571225E+03  0.16572571225E+03  0.00000000000E+00 0. -1.
         24    2    1    2    0    0  0.32945458873E+02 -0.14503615774E+02 -0.58853626755E+02  0.10775364733E+03  0.82772827668E+02 0.  0.
        -13    1    3    3    0    0  0.59638138078E+02 -0.16178662675E+02 -0.30982103656E+02  0.69125591399E+02  0.00000000000E+00 0.  1.
         14    1    3    3    0    0 -0.26692679205E+02  0.16750469012E+01 -0.27871523099E+02  0.38628055932E+02  0.00000000000E+00 0. -1.
          1    1    1    2  501    0 -0.32945458873E+02  0.14503615774E+02 -0.78491823123E+02  0.86352327288E+02  0.00000000000E+00 0. -1.
<mgrwt>
<rscale>  1 0.90261283E+02</rscale>
<asrwt>0</asrwt>
<pdfrwt beam="1">  1       21 0.43661941E-02 0.90261283E+02</pdfrwt>
<pdfrwt beam="2">  1        2 0.25496264E-01 0.90261283E+02</pdfrwt>
<totfact> 0.81812840E+05</totfact>
</mgrwt>
</event>
<event>
 6    2  0.1119888E+001  0.8490843E+02  0.7546771E-02  0.1315672E+00
         -1   -1    0    0    0  501 -0.00000000000E+00  0.00000000000E+00  0.13489124073E+04  0.13489124073E+04  0.00000000000E+00 0.  1.
         21   -1    0    0  501  502  0.00000000000E+00 -0.00000000000E+00 -0.29549341596E+01  0.29549341596E+01  0.00000000000E+00 0.  1.
         24    2    1    2    0    0 -0.18982275064E+02 -0.19712952716E+02  0.12209772309E+04  0.12239259947E+04  0.80377327329E+02 0.  0.
        -13    1    3    3    0    0 -0.26407455565E+02 -0.13155700976E+02  0.12033056534E+04  0.12036672803E+04  0.00000000000E+00 0.  1.
         14    1    3    3    0    0  0.74251805007E+01 -0.65572517396E+01  0.17671577517E+02  0.20258714367E+02  0.00000000000E+00 0. -1.
         -2    1    1    2    0  502  0.18982275064E+02  0.19712952716E+02  0.12498024225E+03  0.12794134681E+03  0.00000000000E+00 0.  1.
<mgrwt>
<rscale>  1 0.84908433E+02</rscale>
<asrwt>0</asrwt>
<pdfrwt beam="1">  1       21 0.45460633E-03 0.84908433E+02</pdfrwt>
<pdfrwt beam="2">  1       -1 0.20752449E+00 0.84908433E+02</pdfrwt>
<totfact> 0.17531301E+05</totfact>
</mgrwt>
</event>
<event>
 6    2  0.9453093E+000  0.8478121E+02  0.7546771E-02  0.1316006E+00
          2   -1    0    0  502    0 -0.00000000000E+00  0.00000000000E+00  0.52928029759E+03  0.52928029759E+03  0.00000000000E+00 0. -1.
         21   -1    0    0  501  502  0.00000000000E+00 -0.00000000000E+00 -0.61826854041E+01  0.61826854041E+01  0.00000000000E+00 0.  1.
         24    2    1    2    0    0  0.52186061530E+01  0.27310224410E+02  0.43101521714E+03  0.43927436784E+03  0.80092263229E+02 0.  0.
        -13    1    3    3    0    0  0.36196253913E+02  0.13512624257E+01  0.11205773458E+03  0.11776642385E+03  0.00000000000E+00 0.  1.
         14    1    3    3    0    0 -0.30977647760E+02  0.25958961985E+02  0.31895748257E+03  0.32150794400E+03  0.00000000000E+00 0. -1.
          1    1    1    2  501    0 -0.52186061530E+01 -0.27310224410E+02  0.92082395042E+02  0.96188615148E+02  0.00000000000E+00 0. -1.
<mgrwt>
<rscale>  1 0.84781206E+02</rscale>
<asrwt>0</asrwt>
<pdfrwt beam="1">  1       21 0.95118279E-03 0.84781206E+02</pdfrwt>
<pdfrwt beam="2">  1        2 0.81427703E-01 0.84781206E+02</pdfrwt>
<totfact> 0.27300331E+06</totfact>
</mgrwt>
</event>
<event>
 6    2  0.9453093E+000  0.8365694E+02  0.7546771E-02  0.1318983E+00
         21   -1    0    0  501  502  0.00000000000E+00  0.00000000000E+00  0.43667876055E+03  0.43667876055E+03  0.00000000000E+00 0.  1.
         -3   -1    0    0    0  501 -0.00000000000E+00 -0.00000000000E+00 -0.73064978013E+01  0.73064978013E+01  0.00000000000E+00 0.  1.
         24    2    1    2    0    0 -0.20424197269E+02 -0.85804065281E+01  0.25891823178E+03  0.27209765588E+03  0.80670393432E+02 0.  0.
        -11    1    3    3    0    0 -0.45601951093E+02 -0.16109301076E+02  0.10070021317E+03  0.11171204258E+03  0.00000000000E+00 0.  1.
         12    1    3    3    0    0  0.25177753823E+02  0.75288945482E+01  0.15821801862E+03  0.16038561331E+03  0.00000000000E+00 0. -1.
         -4    1    1    2    0  502  0.20424197269E+02  0.85804065281E+01  0.17045403097E+03  0.17188760247E+03  0.00000000000E+00 0.  1.
<mgrwt>
<rscale>  1 0.83656940E+02</rscale>
<asrwt>0</asrwt>
<pdfrwt beam="1">  1       21 0.67181327E-01 0.83656940E+02</pdfrwt>
<pdfrwt beam="2">  1       -3 0.11240769E-02 0.83656940E+02</pdfrwt>
<totfact> 0.20773143E+05</totfact>
</mgrwt>
</event>
<event>
 6    2  0.9453093E+000  0.8038389E+02  0.7546771E-02  0.1327966E+00
         21   -1    0    0  501  502  0.00000000000E+00  0.00000000000E+00  0.19051321677E+01  0.19051321677E+01  0.00000000000E+00 0.  1.
          2   -1    0    0  502    0 -0.00000000000E+00 -0.00000000000E+00 -0.15527447060E+04  0.15527447060E+04  0.00000000000E+00 0. -1.
         24    2    1    2    0    0  0.98773054465E+01  0.22786007625E+02 -0.13280152694E+04  0.13304458374E+04  0.76451339016E+02 0.  0.
        -13    1    3    3    0    0  0.19036797325E+01 -0.28161955009E+02 -0.39565424686E+03  0.39665980734E+03  0.00000000000E+00 0.  1.
         14    1    3    3    0    0  0.79736257139E+01  0.50947962634E+02 -0.93236102256E+03  0.93378603009E+03  0.00000000000E+00 0. -1.
          1    1    1    2  501    0 -0.98773054465E+01 -0.22786007625E+02 -0.22282430442E+03  0.22420400074E+03  0.00000000000E+00 0. -1.
<mgrwt>
<rscale>  1 0.80383895E+02</rscale>
<asrwt>0</asrwt>
<pdfrwt beam="1">  1       21 0.29309761E-03 0.80383895E+02</pdfrwt>
<pdfrwt beam="2">  1        2 0.23888352E+00 0.80383895E+02</pdfrwt>
<totfact> 0.39175938E+06</totfact>
</mgrwt>
</event>
<event>
 6    2  0.9453093E+000  0.8943670E+02  0.7546771E-02  0.1304222E+00
         21   -1    0    0  501  502  0.00000000000E+00  0.00000000000E+00  0.26039743327E+01  0.26039743327E+01  0.00000000000E+00 0. -1.
          2   -1    0    0  502    0 -0.00000000000E+00 -0.00000000000E+00 -0.16663042533E+04  0.16663042533E+04  0.00000000000E+00 0. -1.
         24    2    1    2    0    0  0.26223016964E+02  0.29686780933E+02 -0.12954951165E+04  0.12985786538E+04  0.80187104151E+02 0.  0.
        -13    1    3    3    0    0  0.40574977401E+02  0.30469736952E+01 -0.31504810228E+03  0.31766479123E+03  0.00000000000E+00 0.  1.
         14    1    3    3    0    0 -0.14351960438E+02  0.26639807238E+02 -0.98044701418E+03  0.98091386253E+03  0.00000000000E+00 0. -1.
          1    1    1    2  501    0 -0.26223016964E+02 -0.29686780933E+02 -0.36820516249E+03  0.37032957384E+03  0.00000000000E+00 0. -1.
<mgrwt>
<rscale>  1 0.89436700E+02</rscale>
<asrwt>0</asrwt>
<pdfrwt beam="1">  1       21 0.40061200E-03 0.89436700E+02</pdfrwt>
<pdfrwt beam="2">  1        2 0.25635414E+00 0.89436700E+02</pdfrwt>
<totfact> 0.21585358E+06</totfact>
</mgrwt>
</event>
<event>
 6    2  0.9453093E+000  0.8443782E+02  0.7546771E-02  0.1316909E+00
         21   -1    0    0  501  502  0.00000000000E+00  0.00000000000E+00  0.91746434913E+01  0.91746434913E+01  0.00000000000E+00 0. -1.
          2   -1    0    0  502    0 -0.00000000000E+00 -0.00000000000E+00 -0.34797809474E+03  0.34797809474E+03  0.00000000000E+00 0. -1.
         24    2    1    2    0    0  0.23860467345E+02  0.11209032035E+02 -0.28488017006E+03  0.29713037111E+03  0.80217091940E+02 0.  0.
        -11    1    3    3    0    0 -0.88605033279E+01  0.39898550777E+02 -0.14308836738E+03  0.14881089931E+03  0.00000000000E+00 0.  1.
         12    1    3    3    0    0  0.32720970673E+02 -0.28689518742E+02 -0.14179180268E+03  0.14831947180E+03  0.00000000000E+00 0. -1.
          1    1    1    2  501    0 -0.23860467345E+02 -0.11209032035E+02 -0.53923281182E+02  0.60022367119E+02  0.00000000000E+00 0. -1.
<mgrwt>
<rscale>  1 0.84437824E+02</rscale>
<asrwt>0</asrwt>
<pdfrwt beam="1">  1       21 0.14114837E-02 0.84437824E+02</pdfrwt>
<pdfrwt beam="2">  1        2 0.53535090E-01 0.84437824E+02</pdfrwt>
<totfact> 0.22921053E+06</totfact>
</mgrwt>
</event>
<event>
 6    2  0.9453093E+000  0.8204395E+02  0.7546771E-02  0.1323349E+00
         21   -1    0    0  501  502  0.00000000000E+00  0.00000000000E+00  0.10837364939E+02  0.10837364939E+02  0.00000000000E+00 0.  1.
          2   -1    0    0  502    0 -0.00000000000E+00 -0.00000000000E+00 -0.28648634309E+03  0.28648634309E+03  0.00000000000E+00 0. -1.
         24    2    1    2    0    0 -0.15459523067E+02  0.13848390036E+02 -0.25568450250E+03  0.26852518292E+03  0.79375275040E+02 0.  0.
        -13    1    3    3    0    0 -0.44400681874E+02  0.27365619193E+01 -0.95290144788E+02  0.10516235551E+03  0.00000000000E+00 0.  1.
         14    1    3    3    0    0  0.28941158807E+02  0.11111828116E+02 -0.16039435771E+03  0.16336282742E+03  0.00000000000E+00 0. -1.
          1    1    1    2  501    0  0.15459523067E+02 -0.13848390036E+02 -0.19964475650E+02  0.28798525101E+02  0.00000000000E+00 0. -1.
<mgrwt>
<rscale>  1 0.82043946E+02</rscale>
<asrwt>0</asrwt>
<pdfrwt beam="1">  1       21 0.16672872E-02 0.82043946E+02</pdfrwt>
<pdfrwt beam="2">  1        2 0.44074814E-01 0.82043946E+02</pdfrwt>
<totfact> 0.21489903E+06</totfact>
</mgrwt>
</event>
<event>
 6    2  0.9453093E+000  0.9110280E+02  0.7546771E-02  0.1300203E+00
          2   -1    0    0  502    0 -0.00000000000E+00  0.00000000000E+00  0.17303281107E+03  0.17303281107E+03  0.00000000000E+00 0. -1.
         21   -1    0    0  501  502  0.00000000000E+00 -0.00000000000E+00 -0.28078291412E+02  0.28078291412E+02  0.00000000000E+00 0. -1.
         24    2    1    2    0    0  0.13894563206E+02  0.42952787017E+02  0.11592335213E+03  0.14743792959E+03  0.79131022462E+02 0.  0.
        -13    1    3    3    0    0  0.33100176775E+02 -0.10083837985E+02  0.40856278832E+02  0.53540087888E+02  0.00000000000E+00 0.  1.
         14    1    3    3    0    0 -0.19205613569E+02  0.53036625003E+02  0.75067073293E+02  0.93897841706E+02  0.00000000000E+00 0. -1.
          1    1    1    2  501    0 -0.13894563206E+02 -0.42952787017E+02  0.29031167529E+02  0.53673172883E+02  0.00000000000E+00 0. -1.
<mgrwt>
<rscale>  1 0.91102796E+02</rscale>
<asrwt>0</asrwt>
<pdfrwt beam="1">  1       21 0.43197373E-02 0.91102796E+02</pdfrwt>
<pdfrwt beam="2">  1        2 0.26620432E-01 0.91102796E+02</pdfrwt>
<totfact> 0.79542068E+05</totfact>
</mgrwt>
</event>
<event>
 6    2  0.9453093E+000  0.9256698E+02  0.7546771E-02  0.1296752E+00
         21   -1    0    0  501  502  0.00000000000E+00  0.00000000000E+00  0.15813798579E+02  0.15813798579E+02  0.00000000000E+00 0. -1.
          2   -1    0    0  502    0 -0.00000000000E+00 -0.00000000000E+00 -0.43888447044E+03  0.43888447044E+03  0.00000000000E+00 0. -1.
         24    2    1    2    0    0 -0.29016668831E+02  0.33607008365E+02 -0.38573555609E+03  0.39668698605E+03  0.81223442396E+02 0.  0.
        -13    1    3    3    0    0 -0.22507949040E+02 -0.23844599380E+02 -0.10275325529E+03  0.10785825959E+03  0.00000000000E+00 0.  1.
         14    1    3    3    0    0 -0.65087197915E+01  0.57451607746E+02 -0.28298230080E+03  0.28882872646E+03  0.00000000000E+00 0. -1.
          1    1    1    2  501    0  0.29016668831E+02 -0.33607008365E+02 -0.37335115776E+02  0.58011282966E+02  0.00000000000E+00 0. -1.
<mgrwt>
<rscale>  1 0.92566979E+02</rscale>
<asrwt>0</asrwt>
<pdfrwt beam="1">  1       21 0.24328920E-02 0.92566979E+02</pdfrwt>
<pdfrwt beam="2">  1        2 0.67520692E-01 0.92566979E+02</pdfrwt>
<totfact> 0.76122651E+05</totfact>
</mgrwt>
</event>
<event>
 6    2  0.9453093E+000  0.9772452E+02  0.7546771E-02  0.1285155E+00
         -1   -1    0    0    0  501 -0.00000000000E+00  0.00000000000E+00  0.15064658001E+02  0.15064658001E+02  0.00000000000E+00 0.  1.
         21   -1    0    0  501  502  0.00000000000E+00 -0.00000000000E+00 -0.43325248360E+03  0.43325248360E+03  0.00000000000E+00 0. -1.
         24    2    1    2    0    0 -0.18114133726E+02  0.51018117692E+02 -0.33582107844E+03  0.34975116770E+03  0.81357927762E+02 0.  0.
        -11    1    3    3    0    0 -0.90575338018E+01  0.26724970560E+02 -0.24551539979E+02  0.37403757637E+02  0.00000000000E+00 0.  1.
         12    1    3    3    0    0 -0.90565999243E+01  0.24293147132E+02 -0.31126953846E+03  0.31234741006E+03  0.00000000000E+00 0. -1.
         -2    1    1    2    0  502  0.18114133726E+02 -0.51018117692E+02 -0.82366747160E+02  0.98565973902E+02  0.00000000000E+00 0.  1.
<mgrwt>
<rscale>  1 0.97724524E+02</rscale>
<asrwt>0</asrwt>
<pdfrwt beam="1">  1       21 0.66654237E-01 0.97724524E+02</pdfrwt>
<pdfrwt beam="2">  1       -1 0.23176394E-02 0.97724524E+02</pdfrwt>
<totfact> 0.96755462E+04</totfact>
</mgrwt>
</event>
<event>
 6    2  0.9453093E+000  0.9150546E+02  0.7546771E-02  0.1299246E+00
          2   -1    0    0  502    0 -0.00000000000E+00  0.00000000000E+00  0.19457027998E+04  0.19457027998E+04  0.00000000000E+00 0. -1.
         21   -1    0    0  501  502  0.00000000000E+00 -0.00000000000E+00 -0.35292218989E+01  0.35292218989E+01  0.00000000000E+00 0. -1.
         24    2    1    2    0    0  0.43243715970E+02 -0.13404873830E+02  0.17231636885E+04  0.17255915932E+04  0.79520685798E+02 0.  0.
        -13    1    3    3    0    0 -0.22284612782E+02 -0.99536409783E+01  0.34183757125E+03  0.34270775313E+03  0.00000000000E+00 0.  1.
         14    1    3    3    0    0  0.65528328752E+02 -0.34512328515E+01  0.13813261172E+04  0.13828838400E+04  0.00000000000E+00 0. -1.
          1    1    1    2  501    0 -0.43243715970E+02  0.13404873830E+02  0.21900988940E+03  0.22364042852E+03  0.00000000000E+00 0. -1.
<mgrwt>
<rscale>  1 0.91505459E+02</rscale>
<asrwt>0</asrwt>
<pdfrwt beam="1">  1       21 0.54295877E-03 0.91505459E+02</pdfrwt>
<pdfrwt beam="2">  1        2 0.29933804E+00 0.91505459E+02</pdfrwt>
<totfact> 0.98317498E+05</totfact>
</mgrwt>
</event>
<event>
 6    2  0.9453093E+000  0.9939849E+02  0.7546771E-02  0.1281566E+00
         21   -1    0    0  501  502  0.00000000000E+00  0.00000000000E+00  0.36645805872E+03  0.36645805872E+03  0.00000000000E+00 0. -1.
         -1   -1    0    0    0  501 -0.00000000000E+00 -0.00000000000E+00 -0.17574202444E+02  0.17574202444E+02  0.00000000000E+00 0.  1.
         24    2    1    2    0    0  0.56177232091E+02  0.13393223053E+02  0.25645921794E+03  0.27504797973E+03  0.80899943485E+02 0.  0.
        -11    1    3    3    0    0  0.41739054934E+02  0.19382944771E+02  0.49835333918E+02  0.67833677193E+02  0.00000000000E+00 0.  1.
         12    1    3    3    0    0  0.14438177157E+02 -0.59897217179E+01  0.20662388402E+03  0.20721430253E+03  0.00000000000E+00 0. -1.
         -2    1    1    2    0  502 -0.56177232091E+02 -0.13393223053E+02  0.92424638333E+02  0.10898428144E+03  0.00000000000E+00 0.  1.
<mgrwt>
<rscale>  1 0.99398494E+02</rscale>
<asrwt>0</asrwt>
<pdfrwt beam="1">  1       21 0.56378157E-01 0.99398494E+02</pdfrwt>
<pdfrwt beam="2">  1       -1 0.27037237E-02 0.99398494E+02</pdfrwt>
<totfact> 0.11059012E+05</totfact>
</mgrwt>
</event>
<event>
 6    2  0.9453093E+000  0.8458564E+02  0.7546771E-02  0.1316520E+00
         21   -1    0    0  501  502  0.00000000000E+00  0.00000000000E+00  0.28794671203E+03  0.28794671203E+03  0.00000000000E+00 0. -1.
          2   -1    0    0  502    0 -0.00000000000E+00 -0.00000000000E+00 -0.38547138838E+02  0.38547138838E+02  0.00000000000E+00 0. -1.
         24    2    1    2    0    0  0.26288962498E+02  0.94470009381E+00  0.94559688561E+01  0.85112544074E+02  0.80391092817E+02 0.  0.
        -13    1    3    3    0    0 -0.12941011637E+02  0.22621744204E+02  0.26493084194E+02  0.37163108092E+02  0.00000000000E+00 0.  1.
         14    1    3    3    0    0  0.39229974135E+02 -0.21677044110E+02 -0.17037115338E+02  0.47949435982E+02  0.00000000000E+00 0. -1.
          1    1    1    2  501    0 -0.26288962498E+02 -0.94470009381E+00  0.23994360434E+03  0.24138130679E+03  0.00000000000E+00 0. -1.
<mgrwt>
<rscale>  1 0.84585636E+02</rscale>
<asrwt>0</asrwt>
<pdfrwt beam="1">  1       21 0.44299493E-01 0.84585636E+02</pdfrwt>
<pdfrwt beam="2">  1        2 0.59303292E-02 0.84585636E+02</pdfrwt>
<totfact> 0.71881672E+04</totfact>
</mgrwt>
</event>
<event>
 6    2  0.9453093E+000  0.8362414E+02  0.7546771E-02  0.1319070E+00
          2   -1    0    0  502    0 -0.00000000000E+00  0.00000000000E+00  0.19153224455E+04  0.19153224455E+04  0.00000000000E+00 0. -1.
         21   -1    0    0  501  502  0.00000000000E+00 -0.00000000000E+00 -0.16438658819E+01  0.16438658819E+01  0.00000000000E+00 0.  1.
         24    2    1    2    0    0 -0.12085792084E+02  0.17465305741E+02  0.17376484140E+04  0.17396594517E+04  0.80881975825E+02 0.  0.
        -13    1    3    3    0    0  0.98697052493E+01 -0.24194099561E+01  0.28553708557E+02  0.30308066560E+02  0.00000000000E+00 0.  1.
         14    1    3    3    0    0 -0.21955497333E+02  0.19884715697E+02  0.17090947054E+04  0.17093513851E+04  0.00000000000E+00 0. -1.
          1    1    1    2  501    0  0.12085792084E+02 -0.17465305741E+02  0.17603016560E+03  0.17730685964E+03  0.00000000000E+00 0. -1.
<mgrwt>
<rscale>  1 0.83624143E+02</rscale>
<asrwt>0</asrwt>
<pdfrwt beam="1">  1       21 0.25290398E-03 0.83624143E+02</pdfrwt>
<pdfrwt beam="2">  1        2 0.29466321E+00 0.83624143E+02</pdfrwt>
<totfact> 0.32327195E+06</totfact>
</mgrwt>
</event>
<event>
 6    2  0.9453093E+000  0.2234504E+03  0.7546771E-02  0.1131336E+00
         21   -1    0    0  501  502  0.00000000000E+00  0.00000000000E+00  0.23141534470E+03  0.23141534470E+03  0.00000000000E+00 0.  1.
          2   -1    0    0  502    0 -0.00000000000E+00 -0.00000000000E+00 -0.25466538888E+03  0.25466538888E+03  0.00000000000E+00 0. -1.
         24    2    1    2    0    0  0.18225819523E+03  0.98454281401E+02 -0.12419348670E+03  0.25564446508E+03  0.83778130378E+02 0.  0.
        -13    1    3    3    0    0  0.16381533829E+03  0.11295964998E+03 -0.10317710840E+03  0.22414473735E+03  0.00000000000E+00 0.  1.
         14    1    3    3    0    0  0.18442856942E+02 -0.14505368583E+02 -0.21016378307E+02  0.31499727730E+02  0.00000000000E+00 0. -1.
          1    1    1    2  501    0 -0.18225819523E+03 -0.98454281401E+02  0.10094344252E+03  0.23043626851E+03  0.00000000000E+00 0. -1.
<mgrwt>
<rscale>  1 0.22345038E+03</rscale>
<asrwt>0</asrwt>
<pdfrwt beam="1">  1       21 0.35602361E-01 0.22345038E+03</pdfrwt>
<pdfrwt beam="2">  1        2 0.39179290E-01 0.22345038E+03</pdfrwt>
<totfact> 0.12226271E+04</totfact>
</mgrwt>
</event>
<event>
 6    2  0.9453093E+000  0.8987574E+02  0.7546771E-02  0.1303153E+00
         -3   -1    0    0    0  501 -0.00000000000E+00  0.00000000000E+00  0.56336122527E+02  0.56336122527E+02  0.00000000000E+00 0.  1.
         21   -1    0    0  501  502  0.00000000000E+00 -0.00000000000E+00 -0.46356090171E+03  0.46356090171E+03  0.00000000000E+00 0.  1.
         24    2    1    2    0    0  0.37697519504E+02 -0.16779431299E+02  0.18848030179E+02  0.91830801359E+02  0.79843569215E+02 0.  0.
        -13    1    3    3    0    0  0.59259546712E+02  0.35143183523E+01  0.18635393541E+02  0.62219950196E+02  0.00000000000E+00 0.  1.
         14    1    3    3    0    0 -0.21562027208E+02 -0.20293749652E+02  0.21263663775E+00  0.29610851162E+02  0.00000000000E+00 0. -1.
         -4    1    1    2    0  502 -0.37697519504E+02  0.16779431299E+02 -0.42607280937E+03  0.42806622288E+03  0.00000000000E+00 0.  1.
<mgrwt>
<rscale>  1 0.89875736E+02</rscale>
<asrwt>0</asrwt>
<pdfrwt beam="1">  1       21 0.71317064E-01 0.89875736E+02</pdfrwt>
<pdfrwt beam="2">  1       -3 0.86670955E-02 0.89875736E+02</pdfrwt>
<totfact> 0.79472322E+03</totfact>
</mgrwt>
</event>
<event>
 6    2  0.9453093E+000  0.8546930E+02  0.7546771E-02  0.1314210E+00
          4   -1    0    0  502    0 -0.00000000000E+00  0.00000000000E+00  0.16927823170E+02  0.16927823170E+02  0.00000000000E+00 0. -1.
         21   -1    0    0  501  502  0.00000000000E+00 -0.00000000000E+00 -0.19706643126E+03  0.19706643126E+03  0.00000000000E+00 0.  1.
         24    2    1    2    0    0  0.17801921926E+02  0.24201223189E+02 -0.13381979703E+03  0.15878519823E+03  0.80014957807E+02 0.  0.
        -11    1    3    3    0    0  0.21507944716E+02  0.32620880945E+02 -0.14150359847E+03  0.14679912105E+03  0.00000000000E+00 0.  1.
         12    1    3    3    0    0 -0.37060227902E+01 -0.84196577560E+01  0.76838014445E+01  0.11986077185E+02  0.00000000000E+00 0. -1.
          3    1    1    2  501    0 -0.17801921926E+02 -0.24201223189E+02 -0.46318811063E+02  0.55209056199E+02  0.00000000000E+00 0. -1.
<mgrwt>
<rscale>  1 0.85469299E+02</rscale>
<asrwt>0</asrwt>
<pdfrwt beam="1">  1       21 0.30317915E-01 0.85469299E+02</pdfrwt>
<pdfrwt beam="2">  1        4 0.26042803E-02 0.85469299E+02</pdfrwt>
<totfact> 0.26218897E+05</totfact>
</mgrwt>
</event>
<event>
 6    2  0.9453093E+000  0.1254017E+03  0.7546771E-02  0.1234443E+00
          2   -1    0    0  502    0 -0.00000000000E+00  0.00000000000E+00  0.96302193400E+03  0.96302193400E+03  0.00000000000E+00 0. -1.
         21   -1    0    0  501  502  0.00000000000E+00 -0.00000000000E+00 -0.12699770573E+02  0.12699770573E+02  0.00000000000E+00 0. -1.
         24    2    1    2    0    0 -0.93266611518E+02  0.20918510336E+02  0.55944051057E+03  0.57332300746E+03  0.81174756650E+02 0.  0.
        -11    1    3    3    0    0 -0.20005984510E+02  0.39968835087E+02  0.13561513715E+03  0.14279080018E+03  0.00000000000E+00 0.  1.
         12    1    3    3    0    0 -0.73260627008E+02 -0.19050324751E+02  0.42382537342E+03  0.43053220727E+03  0.00000000000E+00 0. -1.
          1    1    1    2  501    0  0.93266611518E+02 -0.20918510336E+02  0.39088165285E+03  0.40239869711E+03  0.00000000000E+00 0. -1.
<mgrwt>
<rscale>  1 0.12540170E+03</rscale>
<asrwt>0</asrwt>
<pdfrwt beam="1">  1       21 0.19538116E-02 0.12540170E+03</pdfrwt>
<pdfrwt beam="2">  1        2 0.14815716E+00 0.12540170E+03</pdfrwt>
<totfact> 0.44218548E+05</totfact>
</mgrwt>
</event>
<event>
 6    2  0.9453093E+000  0.8658926E+02  0.7546771E-02  0.1311328E+00
          2   -1    0    0  502    0 -0.00000000000E+00  0.00000000000E+00  0.14723506714E+04  0.14723506714E+04  0.00000000000E+00 0. -1.
         21   -1    0    0  501  502  0.00000000000E+00 -0.00000000000E+00 -0.20306119910E+01  0.20306119910E+01  0.00000000000E+00 0.  1.
         24    2    1    2    0    0  0.18136109937E+02 -0.10758723470E+02  0.12718433142E+04  0.12747874783E+04  0.83982322649E+02 0.  0.
        -11    1    3    3    0    0  0.47095429454E+02  0.11207272763E+02  0.59352308698E+03  0.59549411182E+03  0.00000000000E+00 0.  1.
         12    1    3    3    0    0 -0.28959319517E+02 -0.21965996233E+02  0.67832022718E+03  0.67929336651E+03  0.00000000000E+00 0. -1.
          1    1    1    2  501    0 -0.18136109937E+02  0.10758723470E+02  0.19847674527E+03  0.19959380508E+03  0.00000000000E+00 0. -1.
<mgrwt>
<rscale>  1 0.86589255E+02</rscale>
<asrwt>0</asrwt>
<pdfrwt beam="1">  1       21 0.31240302E-03 0.86589255E+02</pdfrwt>
<pdfrwt beam="2">  1        2 0.22651463E+00 0.86589255E+02</pdfrwt>
<totfact> 0.39371703E+06</totfact>
</mgrwt>
</event>
<event>
 6    2  0.9453093E+000  0.1022124E+03  0.7546771E-02  0.1275711E+00
         -1   -1    0    0    0  501 -0.00000000000E+00  0.00000000000E+00  0.56359643690E+03  0.56359643690E+03  0.00000000000E+00 0.  1.
         21   -1    0    0  501  502  0.00000000000E+00 -0.00000000000E+00 -0.26604976597E+02  0.26604976597E+02  0.00000000000E+00 0.  1.
         24    2    1    2    0    0  0.48181540345E+02 -0.73142443208E+01  0.53140848834E+03  0.54114910901E+03  0.89846634342E+02 0.  0.
        -11    1    3    3    0    0  0.69159280195E+02 -0.26227025594E+02  0.38624695955E+03  0.39326527519E+03  0.00000000000E+00 0.  1.
         12    1    3    3    0    0 -0.20977739850E+02  0.18912781273E+02  0.14516152878E+03  0.14788383381E+03  0.00000000000E+00 0. -1.
         -2    1    1    2    0  502 -0.48181540345E+02  0.73142443208E+01  0.55829719693E+01  0.49052304492E+02  0.00000000000E+00 0.  1.
<mgrwt>
<rscale>  1 0.10221241E+03</rscale>
<asrwt>0</asrwt>
<pdfrwt beam="1">  1       21 0.40930737E-02 0.10221241E+03</pdfrwt>
<pdfrwt beam="2">  1       -1 0.86707135E-01 0.10221241E+03</pdfrwt>
<totfact> 0.47699028E+04</totfact>
</mgrwt>
</event>
<event>
 6    2  0.9453093E+000  0.9242847E+02  0.7546771E-02  0.1297075E+00
         21   -1    0    0  501  502  0.00000000000E+00  0.00000000000E+00  0.32109599594E+02  0.32109599594E+02  0.00000000000E+00 0. -1.
          2   -1    0    0  502    0 -0.00000000000E+00 -0.00000000000E+00 -0.23184606890E+03  0.23184606890E+03  0.00000000000E+00 0. -1.
         24    2    1    2    0    0 -0.32174030609E+02 -0.27619681533E+02 -0.20131933198E+03  0.22152312782E+03  0.82127995706E+02 0.  0.
        -13    1    3    3    0    0 -0.13460984643E+02  0.29441479476E+02 -0.71548982184E+02  0.78531876794E+02  0.00000000000E+00 0.  1.
         14    1    3    3    0    0 -0.18713045966E+02 -0.57061161009E+02 -0.12977034980E+03  0.14299125103E+03  0.00000000000E+00 0. -1.
          1    1    1    2  501    0  0.32174030609E+02  0.27619681533E+02  0.15828626715E+01  0.42432540671E+02  0.00000000000E+00 0. -1.
<mgrwt>
<rscale>  1 0.92428474E+02</rscale>
<asrwt>0</asrwt>
<pdfrwt beam="1">  1       21 0.49399386E-02 0.92428474E+02</pdfrwt>
<pdfrwt beam="2">  1        2 0.35668625E-01 0.92428474E+02</pdfrwt>
<totfact> 0.46647832E+05</totfact>
</mgrwt>
</event>
<event>
 6    2  0.9453093E+000  0.7842898E+02  0.7546771E-02  0.1333570E+00
         21   -1    0    0  501  502  0.00000000000E+00  0.00000000000E+00  0.95226453683E+00  0.95226453683E+00  0.00000000000E+00 0.  1.
          2   -1    0    0  502    0 -0.00000000000E+00 -0.00000000000E+00 -0.27554094460E+04  0.27554094460E+04  0.00000000000E+00 0. -1.
         24    2    1    2    0    0  0.10765313342E+02 -0.21283579362E+02 -0.21763752385E+04  0.21777879335E+04  0.74714267164E+02 0.  0.
        -13    1    3    3    0    0  0.35994400671E+02 -0.28178293575E+02 -0.91459220575E+03  0.91573386742E+03  0.00000000000E+00 0.  1.
         14    1    3    3    0    0 -0.25229087329E+02  0.68947142131E+01 -0.12617830327E+04  0.12620540660E+04  0.00000000000E+00 0. -1.
          1    1    1    2  501    0 -0.10765313342E+02  0.21283579362E+02 -0.57808194296E+03  0.57857377705E+03  0.00000000000E+00 0. -1.
<mgrwt>
<rscale>  1 0.78428977E+02</rscale>
<asrwt>0</asrwt>
<pdfrwt beam="1">  1       21 0.14650287E-03 0.78428977E+02</pdfrwt>
<pdfrwt beam="2">  1        2 0.42390731E+00 0.78428977E+02</pdfrwt>
<totfact> 0.26860899E+06</totfact>
</mgrwt>
</event>
<event>
 6    2  0.9453093E+000  0.8360597E+02  0.7546771E-02  0.1319119E+00
         21   -1    0    0  501  502  0.00000000000E+00  0.00000000000E+00  0.14707610781E+02  0.14707610781E+02  0.00000000000E+00 0. -1.
          4   -1    0    0  502    0 -0.00000000000E+00 -0.00000000000E+00 -0.35816292974E+03  0.35816292974E+03  0.00000000000E+00 0. -1.
         24    2    1    2    0    0  0.20735571682E+02 -0.10106557469E+02 -0.33927863441E+03  0.34942803360E+03  0.80360764448E+02 0.  0.
        -11    1    3    3    0    0 -0.10001266246E+02 -0.24419275986E+02 -0.38093825175E+02  0.46340758331E+02  0.00000000000E+00 0.  1.
         12    1    3    3    0    0  0.30736837928E+02  0.14312718517E+02 -0.30118480923E+03  0.30308727527E+03  0.00000000000E+00 0. -1.
          3    1    1    2  501    0 -0.20735571682E+02  0.10106557469E+02 -0.41766845506E+01  0.23442506920E+02  0.00000000000E+00 0. -1.
<mgrwt>
<rscale>  1 0.83605974E+02</rscale>
<asrwt>0</asrwt>
<pdfrwt beam="1">  1       21 0.22627093E-02 0.83605974E+02</pdfrwt>
<pdfrwt beam="2">  1        4 0.55101991E-01 0.83605974E+02</pdfrwt>
<totfact> 0.11808980E+05</totfact>
</mgrwt>
</event>
<event>
 6    2  0.9453093E+000  0.9750556E+02  0.7546771E-02  0.1285631E+00
          2   -1    0    0  502    0 -0.00000000000E+00  0.00000000000E+00  0.72685132318E+03  0.72685132318E+03  0.00000000000E+00 0. -1.
         21   -1    0    0  501  502  0.00000000000E+00 -0.00000000000E+00 -0.17373498076E+02  0.17373498076E+02  0.00000000000E+00 0. -1.
         24    2    1    2    0    0  0.14112272912E+02 -0.26034342857E+02  0.70788503374E+03  0.71456878917E+03  0.92899893477E+02 0.  0.
        -13    1    3    3    0    0  0.22054419793E+02  0.26376583767E+02  0.13779923367E+03  0.14202376704E+03  0.00000000000E+00 0.  1.
         14    1    3    3    0    0 -0.79421468815E+01 -0.52410926624E+02  0.57008580007E+03  0.57254502213E+03  0.00000000000E+00 0. -1.
          1    1    1    2  501    0 -0.14112272912E+02  0.26034342857E+02  0.15927913630E+01  0.29656032086E+02  0.00000000000E+00 0. -1.
<mgrwt>
<rscale>  1 0.97505556E+02</rscale>
<asrwt>0</asrwt>
<pdfrwt beam="1">  1       21 0.26728464E-02 0.97505556E+02</pdfrwt>
<pdfrwt beam="2">  1        2 0.11182326E+00 0.97505556E+02</pdfrwt>
<totfact> 0.37450125E+05</totfact>
</mgrwt>
</event>
<event>
 6    2  0.9453093E+000  0.9995927E+02  0.7546771E-02  0.1280382E+00
          2   -1    0    0  502    0 -0.00000000000E+00  0.00000000000E+00  0.19721576565E+03  0.19721576565E+03  0.00000000000E+00 0. -1.
         21   -1    0    0  501  502  0.00000000000E+00 -0.00000000000E+00 -0.32170359446E+02  0.32170359446E+02  0.00000000000E+00 0. -1.
         24    2    1    2    0    0  0.21087854042E+02  0.55211772285E+02  0.97527249239E+02  0.13965464285E+03  0.80615243826E+02 0.  0.
        -11    1    3    3    0    0  0.47828238298E+02  0.21516548596E+02  0.73773857204E+02  0.90515657480E+02  0.00000000000E+00 0.  1.
         12    1    3    3    0    0 -0.26740384256E+02  0.33695223688E+02  0.23753392035E+02  0.49138985366E+02  0.00000000000E+00 0. -1.
          1    1    1    2  501    0 -0.21087854042E+02 -0.55211772285E+02  0.67518156965E+02  0.89731482251E+02  0.00000000000E+00 0. -1.
<mgrwt>
<rscale>  1 0.99959266E+02</rscale>
<asrwt>0</asrwt>
<pdfrwt beam="1">  1       21 0.49492862E-02 0.99959266E+02</pdfrwt>
<pdfrwt beam="2">  1        2 0.30340886E-01 0.99959266E+02</pdfrwt>
<totfact> 0.55598311E+05</totfact>
</mgrwt>
</event>
<event>
 6    2  0.9453093E+000  0.8814282E+02  0.7546771E-02  0.1307412E+00
          2   -1    0    0  502    0 -0.00000000000E+00  0.00000000000E+00  0.25329709455E+04  0.25329709455E+04  0.00000000000E+00 0. -1.
         21   -1    0    0  501  502  0.00000000000E+00 -0.00000000000E+00 -0.15879035712E+01  0.15879035712E+01  0.00000000000E+00 0. -1.
         24    2    1    2    0    0  0.37496280430E+02  0.18496050589E+01  0.16095147567E+04  0.16119264589E+04  0.79748133377E+02 0.  0.
        -11    1    3    3    0    0 -0.19557635268E+02  0.11629794116E+02  0.21287915410E+03  0.21409177345E+03  0.00000000000E+00 0.  1.
         12    1    3    3    0    0  0.57053915698E+02 -0.97801890570E+01  0.13966356026E+04  0.13978346854E+04  0.00000000000E+00 0. -1.
          1    1    1    2  501    0 -0.37496280430E+02 -0.18496050589E+01  0.92186828526E+03  0.92263239020E+03  0.00000000000E+00 0. -1.
<mgrwt>
<rscale>  1 0.88142821E+02</rscale>
<asrwt>0</asrwt>
<pdfrwt beam="1">  1       21 0.24429488E-03 0.88142821E+02</pdfrwt>
<pdfrwt beam="2">  1        2 0.38968461E+00 0.88142821E+02</pdfrwt>
<totfact> 0.16546302E+06</totfact>
</mgrwt>
</event>
<event>
 6    2  0.9453093E+000  0.9236248E+02  0.7546771E-02  0.1297229E+00
         21   -1    0    0  501  502  0.00000000000E+00  0.00000000000E+00  0.86418922304E+01  0.86418922304E+01  0.00000000000E+00 0. -1.
          2   -1    0    0  502    0 -0.00000000000E+00 -0.00000000000E+00 -0.63701535425E+03  0.63701535425E+03  0.00000000000E+00 0. -1.
         24    2    1    2    0    0  0.31293751589E+02 -0.33067439680E+02 -0.51952018747E+03  0.52766661196E+03  0.80362141135E+02 0.  0.
        -11    1    3    3    0    0  0.92533681867E+01  0.26158793282E+02 -0.11903187611E+03  0.12222313537E+03  0.00000000000E+00 0.  1.
         12    1    3    3    0    0  0.22040383402E+02 -0.59226232962E+02 -0.40048831136E+03  0.40544347659E+03  0.00000000000E+00 0. -1.
          1    1    1    2  501    0 -0.31293751589E+02  0.33067439680E+02 -0.10885327454E+03  0.11799063452E+03  0.00000000000E+00 0. -1.
<mgrwt>
<rscale>  1 0.92362483E+02</rscale>
<asrwt>0</asrwt>
<pdfrwt beam="1">  1       21 0.13295214E-02 0.92362483E+02</pdfrwt>
<pdfrwt beam="2">  1        2 0.98002396E-01 0.92362483E+02</pdfrwt>
<totfact> 0.13271378E+06</totfact>
</mgrwt>
</event>
<event>
 6    2  0.9453093E+000  0.8632853E+02  0.7546771E-02  0.1311994E+00
          2   -1    0    0  502    0 -0.00000000000E+00  0.00000000000E+00  0.17046908294E+02  0.17046908294E+02  0.00000000000E+00 0. -1.
         21   -1    0    0  501  502  0.00000000000E+00 -0.00000000000E+00 -0.25745133596E+03  0.25745133596E+03  0.00000000000E+00 0. -1.
         24    2    1    2    0    0  0.28382670994E+02  0.69469820173E+01 -0.10478388534E+03  0.13576552254E+03  0.81232862272E+02 0.  0.
        -11    1    3    3    0    0 -0.24421703578E+02 -0.44152074528E+01 -0.10171728544E+02  0.26821217796E+02  0.00000000000E+00 0.  1.
         12    1    3    3    0    0  0.52804374572E+02  0.11362189470E+02 -0.94612156794E+02  0.10894430475E+03  0.00000000000E+00 0. -1.
          1    1    1    2  501    0 -0.28382670994E+02 -0.69469820173E+01 -0.13562054233E+03  0.13873272171E+03  0.00000000000E+00 0. -1.
<mgrwt>
<rscale>  1 0.86328526E+02</rscale>
<asrwt>0</asrwt>
<pdfrwt beam="1">  1       21 0.39607898E-01 0.86328526E+02</pdfrwt>
<pdfrwt beam="2">  1        2 0.26226013E-02 0.86328526E+02</pdfrwt>
<totfact> 0.26078353E+05</totfact>
</mgrwt>
</event>
<event>
 6    2  0.9453093E+000  0.9071788E+02  0.7546771E-02  0.1301123E+00
         21   -1    0    0  501  502  0.00000000000E+00  0.00000000000E+00  0.49244121770E+02  0.49244121770E+02  0.00000000000E+00 0.  1.
         -1   -1    0    0    0  501 -0.00000000000E+00 -0.00000000000E+00 -0.18952492232E+03  0.18952492232E+03  0.00000000000E+00 0.  1.
         24    2    1    2    0    0 -0.12108590770E+02 -0.45072601488E+02 -0.16324211658E+03  0.18675578224E+03  0.77791877464E+02 0.  0.
        -11    1    3    3    0    0 -0.37990658110E+02 -0.50984592773E+02 -0.12440552699E+03  0.13971203938E+03  0.00000000000E+00 0.  1.
         12    1    3    3    0    0  0.25882067340E+02  0.59119912847E+01 -0.38836589592E+02  0.47043742856E+02  0.00000000000E+00 0. -1.
         -2    1    1    2    0  502  0.12108590770E+02  0.45072601488E+02  0.22961316023E+02  0.52013261856E+02  0.00000000000E+00 0.  1.
<mgrwt>
<rscale>  1 0.90717879E+02</rscale>
<asrwt>0</asrwt>
<pdfrwt beam="1">  1       21 0.75760188E-02 0.90717879E+02</pdfrwt>
<pdfrwt beam="2">  1       -1 0.29157680E-01 0.90717879E+02</pdfrwt>
<totfact> 0.12406190E+05</totfact>
</mgrwt>
</event>
<event>
 6    2  0.9453093E+000  0.8478200E+02  0.7546771E-02  0.1316004E+00
         21   -1    0    0  501  502  0.00000000000E+00  0.00000000000E+00  0.34118794310E+01  0.34118794310E+01  0.00000000000E+00 0.  1.
          2   -1    0    0  502    0 -0.00000000000E+00 -0.00000000000E+00 -0.10726686230E+04  0.10726686230E+04  0.00000000000E+00 0. -1.
         24    2    1    2    0    0  0.24867022872E+02  0.25411408379E+02 -0.80210099528E+03  0.80656927382E+03  0.76966735297E+02 0.  0.
        -13    1    3    3    0    0  0.18410818647E+02 -0.74568285014E+01 -0.51149064070E+02  0.54870659645E+02  0.00000000000E+00 0.  1.
         14    1    3    3    0    0  0.64562042248E+01  0.32868236881E+02 -0.75095193121E+03  0.75169861418E+03  0.00000000000E+00 0. -1.
          1    1    1    2  501    0 -0.24867022872E+02 -0.25411408379E+02 -0.26715574826E+03  0.26951122858E+03  0.00000000000E+00 0. -1.
<mgrwt>
<rscale>  1 0.84781996E+02</rscale>
<asrwt>0</asrwt>
<pdfrwt beam="1">  1       21 0.52490473E-03 0.84781996E+02</pdfrwt>
<pdfrwt beam="2">  1        2 0.16502588E+00 0.84781996E+02</pdfrwt>
<totfact> 0.29133067E+06</totfact>
</mgrwt>
</event>
<event>
 6    2  0.9453093E+000  0.8875241E+02  0.7546771E-02  0.1305901E+00
         21   -1    0    0  501  502  0.00000000000E+00  0.00000000000E+00  0.98664373948E+01  0.98664373948E+01  0.00000000000E+00 0. -1.
          2   -1    0    0  502    0 -0.00000000000E+00 -0.00000000000E+00 -0.39872507338E+03  0.39872507338E+03  0.00000000000E+00 0. -1.
         24    2    1    2    0    0 -0.21366695487E+02  0.26176116152E+02 -0.31691599648E+03  0.32910900885E+03  0.82068667287E+02 0.  0.
        -11    1    3    3    0    0  0.24405252440E+02  0.32791994489E+02 -0.18035905070E+03  0.18493328099E+03  0.00000000000E+00 0.  1.
         12    1    3    3    0    0 -0.45771947927E+02 -0.66158783371E+01 -0.13655694577E+03  0.14417572785E+03  0.00000000000E+00 0. -1.
          1    1    1    2  501    0  0.21366695487E+02 -0.26176116152E+02 -0.71942639506E+02  0.79482501923E+02  0.00000000000E+00 0. -1.
<mgrwt>
<rscale>  1 0.88752413E+02</rscale>
<asrwt>0</asrwt>
<pdfrwt beam="1">  1       21 0.15179136E-02 0.88752413E+02</pdfrwt>
<pdfrwt beam="2">  1        2 0.61342314E-01 0.88752413E+02</pdfrwt>
<totfact> 0.17825033E+06</totfact>
</mgrwt>
</event>
<event>
 6    2  0.9453093E+000  0.8411801E+02  0.7546771E-02  0.1317755E+00
          4   -1    0    0  502    0 -0.00000000000E+00  0.00000000000E+00  0.50206805949E+03  0.50206805949E+03  0.00000000000E+00 0. -1.
         21   -1    0    0  501  502  0.00000000000E+00 -0.00000000000E+00 -0.57818081558E+01  0.57818081558E+01  0.00000000000E+00 0.  1.
         24    2    1    2    0    0 -0.11466686343E+02  0.19245289494E+02  0.35719547424E+03  0.36696654594E+03  0.81080040424E+02 0.  0.
        -13    1    3    3    0    0  0.17835026192E+02 -0.21258346716E+02  0.67365983914E+02  0.72857266302E+02  0.00000000000E+00 0.  1.
         14    1    3    3    0    0 -0.29301712535E+02  0.40503636211E+02  0.28982949033E+03  0.29410927964E+03  0.00000000000E+00 0. -1.
          3    1    1    2  501    0  0.11466686343E+02 -0.19245289494E+02  0.13909077709E+03  0.14088332171E+03  0.00000000000E+00 0. -1.
<mgrwt>
<rscale>  1 0.84118007E+02</rscale>
<asrwt>0</asrwt>
<pdfrwt beam="1">  1       21 0.88950934E-03 0.84118007E+02</pdfrwt>
<pdfrwt beam="2">  1        4 0.77241206E-01 0.84118007E+02</pdfrwt>
<totfact> 0.25316908E+05</totfact>
</mgrwt>
</event>
<event>
 6    2  0.9453093E+000  0.8309040E+02  0.7546771E-02  0.1320503E+00
         -1   -1    0    0    0  501 -0.00000000000E+00  0.00000000000E+00  0.31000805674E+03  0.31000805674E+03  0.00000000000E+00 0.  1.
         21   -1    0    0  501  502  0.00000000000E+00 -0.00000000000E+00 -0.88798715789E+01  0.88798715789E+01  0.00000000000E+00 0. -1.
         24    2    1    2    0    0 -0.21388257557E+02 -0.41171703920E+01  0.23397707844E+03  0.24829274586E+03  0.80184822474E+02 0.  0.
        -13    1    3    3    0    0  0.30609585018E+02  0.19293718890E+01  0.91476008753E+02  0.96480720086E+02  0.00000000000E+00 0.  1.
         14    1    3    3    0    0 -0.51997842575E+02 -0.60465422811E+01  0.14250106969E+03  0.15181202577E+03  0.00000000000E+00 0. -1.
         -2    1    1    2    0  502  0.21388257557E+02  0.41171703920E+01  0.67151106724E+02  0.70595182468E+02  0.00000000000E+00 0.  1.
<mgrwt>
<rscale>  1 0.83090399E+02</rscale>
<asrwt>0</asrwt>
<pdfrwt beam="1">  1       21 0.13661343E-02 0.83090399E+02</pdfrwt>
<pdfrwt beam="2">  1       -1 0.47693539E-01 0.83090399E+02</pdfrwt>
<totfact> 0.86607627E+05</totfact>
</mgrwt>
</event>
<event>
 6    2  0.9453093E+000  0.8272140E+02  0.7546771E-02  0.1321501E+00
          4   -1    0    0  502    0 -0.00000000000E+00  0.00000000000E+00  0.80393372373E+02  0.80393372373E+02  0.00000000000E+00 0. -1.
         21   -1    0    0  501  502  0.00000000000E+00 -0.00000000000E+00 -0.59771899436E+02  0.59771899436E+02  0.00000000000E+00 0. -1.
         24    2    1    2    0    0  0.49067940846E+01 -0.20766875555E+02  0.55260273577E+02  0.99481291445E+02  0.79921772773E+02 0.  0.
        -11    1    3    3    0    0 -0.21160021392E+02 -0.33297765525E+02  0.27690443604E+01  0.39549403295E+02  0.00000000000E+00 0.  1.
         12    1    3    3    0    0  0.26066815477E+02  0.12530889971E+02  0.52491229217E+02  0.59931888150E+02  0.00000000000E+00 0. -1.
          3    1    1    2  501    0 -0.49067940846E+01  0.20766875555E+02 -0.34638800640E+02  0.40683980364E+02  0.00000000000E+00 0. -1.
<mgrwt>
<rscale>  1 0.82721397E+02</rscale>
<asrwt>0</asrwt>
<pdfrwt beam="1">  1       21 0.91956768E-02 0.82721397E+02</pdfrwt>
<pdfrwt beam="2">  1        4 0.12368211E-01 0.82721397E+02</pdfrwt>
<totfact> 0.18287616E+05</totfact>
</mgrwt>
</event>
<event>
 6    2  0.9453093E+000  0.8651625E+02  0.7546771E-02  0.1311514E+00
          2   -1    0    0  502    0 -0.00000000000E+00  0.00000000000E+00  0.36686909538E+02  0.36686909538E+02  0.00000000000E+00 0. -1.
         21   -1    0    0  501  502  0.00000000000E+00 -0.00000000000E+00 -0.16928618176E+03  0.16928618176E+03  0.00000000000E+00 0.  1.
         24    2    1    2    0    0  0.13637005596E+02  0.29272138686E+02 -0.19950087608E+02  0.88786638074E+02  0.80263535183E+02 0.  0.
        -13    1    3    3    0    0  0.24618112291E+02  0.76016206574E+01 -0.46275403155E+02  0.52964601637E+02  0.00000000000E+00 0.  1.
         14    1    3    3    0    0 -0.10981106695E+02  0.21670518029E+02  0.26325315547E+02  0.35822036438E+02  0.00000000000E+00 0. -1.
          1    1    1    2  501    0 -0.13637005596E+02 -0.29272138686E+02 -0.11264918461E+03  0.11718645322E+03  0.00000000000E+00 0. -1.
<mgrwt>
<rscale>  1 0.86516248E+02</rscale>
<asrwt>0</asrwt>
<pdfrwt beam="1">  1       21 0.26044028E-01 0.86516248E+02</pdfrwt>
<pdfrwt beam="2">  1        2 0.56441399E-02 0.86516248E+02</pdfrwt>
<totfact> 0.21441918E+05</totfact>
</mgrwt>
</event>
<event>
 6    2  0.9453093E+000  0.8503805E+02  0.7546771E-02  0.1315333E+00
         21   -1    0    0  501  502  0.00000000000E+00  0.00000000000E+00  0.62891307468E+02  0.62891307468E+02  0.00000000000E+00 0. -1.
          4   -1    0    0  502    0 -0.00000000000E+00 -0.00000000000E+00 -0.59950351319E+02  0.59950351319E+02  0.00000000000E+00 0. -1.
         24    2    1    2    0    0 -0.28168566383E+02 -0.73252835704E+01  0.22266049635E+02  0.87904756382E+02  0.79902073295E+02 0.  0.
        -11    1    3    3    0    0  0.21064867846E+02  0.18673354437E+02  0.58559319014E+00  0.28156096013E+02  0.00000000000E+00 0.  1.
         12    1    3    3    0    0 -0.49233434229E+02 -0.25998638007E+02  0.21680456445E+02  0.59748660369E+02  0.00000000000E+00 0. -1.
          3    1    1    2  501    0  0.28168566383E+02  0.73252835704E+01 -0.19325093486E+02  0.34936902405E+02  0.00000000000E+00 0. -1.
<mgrwt>
<rscale>  1 0.85038046E+02</rscale>
<asrwt>0</asrwt>
<pdfrwt beam="1">  1       21 0.96755858E-02 0.85038046E+02</pdfrwt>
<pdfrwt beam="2">  1        4 0.92231310E-02 0.85038046E+02</pdfrwt>
<totfact> 0.27539436E+05</totfact>
</mgrwt>
</event>
<event>
 6    2  0.9453093E+000  0.8518067E+02  0.7546771E-02  0.1314961E+00
         21   -1    0    0  501  502  0.00000000000E+00  0.00000000000E+00  0.16184663667E+02  0.16184663667E+02  0.00000000000E+00 0. -1.
          2   -1    0    0  502    0 -0.00000000000E+00 -0.00000000000E+00 -0.44085993502E+03  0.44085993502E+03  0.00000000000E+00 0. -1.
         24    2    1    2    0    0  0.90761203345E+01 -0.31077937784E+02 -0.41441931986E+03  0.42308287438E+03  0.78787890803E+02 0.  0.
        -13    1    3    3    0    0  0.10029039893E+02  0.85161226612E+01 -0.94927015572E+01  0.16223975136E+02  0.00000000000E+00 0.  1.
         14    1    3    3    0    0 -0.95291955830E+00 -0.39594060445E+02 -0.40492661831E+03  0.40685889924E+03  0.00000000000E+00 0. -1.
          1    1    1    2  501    0 -0.90761203345E+01  0.31077937784E+02 -0.10255951491E+02  0.33961724312E+02  0.00000000000E+00 0. -1.
<mgrwt>
<rscale>  1 0.85180666E+02</rscale>
<asrwt>0</asrwt>
<pdfrwt beam="1">  1       21 0.24899483E-02 0.85180666E+02</pdfrwt>
<pdfrwt beam="2">  1        2 0.67824603E-01 0.85180666E+02</pdfrwt>
<totfact> 0.72428459E+05</totfact>
</mgrwt>
</event>
<event>
 6    2  0.9453093E+000  0.1586860E+03  0.7546771E-02  0.1190188E+00
         -3   -1    0    0    0  501 -0.00000000000E+00  0.00000000000E+00  0.22173656548E+03  0.22173656548E+03  0.00000000000E+00 0.  1.
         21   -1    0    0  501  502  0.00000000000E+00 -0.00000000000E+00 -0.10859075141E+03  0.10859075141E+03  0.00000000000E+00 0.  1.
         24    2    1    2    0    0  0.72003029541E+02 -0.11833620038E+03  0.10754165696E+03  0.19169362992E+03  0.77416711298E+02 0.  0.
        -11    1    3    3    0    0  0.53319795129E+02 -0.84803683196E+02  0.11508295785E+03  0.15257376060E+03  0.00000000000E+00 0.  1.
         12    1    3    3    0    0  0.18683234412E+02 -0.33532517187E+02 -0.75413008899E+01  0.39119869327E+02  0.00000000000E+00 0. -1.
         -4    1    1    2    0  502 -0.72003029541E+02  0.11833620038E+03  0.56041571189E+01  0.13863368696E+03  0.00000000000E+00 0.  1.
<mgrwt>
<rscale>  1 0.15868598E+03</rscale>
<asrwt>0</asrwt>
<pdfrwt beam="1">  1       21 0.16706270E-01 0.15868598E+03</pdfrwt>
<pdfrwt beam="2">  1       -3 0.34113318E-01 0.15868598E+03</pdfrwt>
<totfact> 0.13272321E+04</totfact>
</mgrwt>
</event>
<event>
 6    2  0.9453093E+000  0.1071051E+03  0.7546771E-02  0.1266027E+00
         21   -1    0    0  501  502  0.00000000000E+00  0.00000000000E+00  0.58352132234E+01  0.58352132234E+01  0.00000000000E+00 0. -1.
          2   -1    0    0  502    0 -0.00000000000E+00 -0.00000000000E+00 -0.13849642949E+04  0.13849642949E+04  0.00000000000E+00 0. -1.
         24    2    1    2    0    0 -0.67441198332E+02 -0.25452939545E+02 -0.76749827682E+03  0.77493555495E+03  0.79217056536E+02 0.  0.
        -13    1    3    3    0    0 -0.78626169499E+01  0.97310305274E+01 -0.16251591119E+02  0.20509215351E+02  0.00000000000E+00 0.  1.
         14    1    3    3    0    0 -0.59578581382E+02 -0.35183970072E+02 -0.75124668570E+03  0.75442633960E+03  0.00000000000E+00 0. -1.
          1    1    1    2  501    0  0.67441198332E+02  0.25452939545E+02 -0.61163080484E+03  0.61586395316E+03  0.00000000000E+00 0. -1.
<mgrwt>
<rscale>  1 0.10710513E+03</rscale>
<asrwt>0</asrwt>
<pdfrwt beam="1">  1       21 0.89772562E-03 0.10710513E+03</pdfrwt>
<pdfrwt beam="2">  1        2 0.21307131E+00 0.10710513E+03</pdfrwt>
<totfact> 0.87636221E+05</totfact>
</mgrwt>
</event>
<event>
 6    2  0.9453093E+000  0.8956192E+02  0.7546771E-02  0.1303916E+00
         21   -1    0    0  501  502  0.00000000000E+00  0.00000000000E+00  0.22566983907E+02  0.22566983907E+02  0.00000000000E+00 0. -1.
          2   -1    0    0  502    0 -0.00000000000E+00 -0.00000000000E+00 -0.18739574173E+03  0.18739574173E+03  0.00000000000E+00 0. -1.
         24    2    1    2    0    0  0.10716103554E+02 -0.38788827566E+02 -0.11970923547E+03  0.14950464663E+03  0.80012063396E+02 0.  0.
        -13    1    3    3    0    0  0.25872866233E+02  0.17266776841E+02 -0.35285400741E+02  0.47038349196E+02  0.00000000000E+00 0.  1.
         14    1    3    3    0    0 -0.15156762680E+02 -0.56055604406E+02 -0.84423834728E+02  0.10246629744E+03  0.00000000000E+00 0. -1.
          1    1    1    2  501    0 -0.10716103554E+02  0.38788827566E+02 -0.45119522350E+02  0.60458079000E+02  0.00000000000E+00 0. -1.
<mgrwt>
<rscale>  1 0.89561924E+02</rscale>
<asrwt>0</asrwt>
<pdfrwt beam="1">  1       21 0.34718437E-02 0.89561924E+02</pdfrwt>
<pdfrwt beam="2">  1        2 0.28830114E-01 0.89561924E+02</pdfrwt>
<totfact> 0.10435198E+06</totfact>
</mgrwt>
</event>
<event>
 6    2  0.9453093E+000  0.8527348E+02  0.7546771E-02  0.1314719E+00
          2   -1    0    0  502    0 -0.00000000000E+00  0.00000000000E+00  0.24170745319E+03  0.24170745319E+03  0.00000000000E+00 0. -1.
         21   -1    0    0  501  502  0.00000000000E+00 -0.00000000000E+00 -0.34525343420E+02  0.34525343420E+02  0.00000000000E+00 0. -1.
         24    2    1    2    0    0  0.25286028565E+02  0.28713569720E+00  0.22803417604E+03  0.24345667183E+03  0.81437705801E+02 0.  0.
        -13    1    3    3    0    0 -0.18297119094E+02  0.12281469351E+02  0.17544418514E+02  0.28167812793E+02  0.00000000000E+00 0.  1.
         14    1    3    3    0    0  0.43583147659E+02 -0.11994333654E+02  0.21048975753E+03  0.21528885903E+03  0.00000000000E+00 0. -1.
          1    1    1    2  501    0 -0.25286028565E+02 -0.28713569720E+00 -0.20852066277E+02  0.32776124778E+02  0.00000000000E+00 0. -1.
<mgrwt>
<rscale>  1 0.85273475E+02</rscale>
<asrwt>0</asrwt>
<pdfrwt beam="1">  1       21 0.53115915E-02 0.85273475E+02</pdfrwt>
<pdfrwt beam="2">  1        2 0.37185761E-01 0.85273475E+02</pdfrwt>
<totfact> 0.39295531E+05</totfact>
</mgrwt>
</event>
<event>
 6    2  0.9453093E+000  0.8733993E+02  0.7546771E-02  0.1309424E+00
          2   -1    0    0  502    0 -0.00000000000E+00  0.00000000000E+00  0.56708664323E+03  0.56708664323E+03  0.00000000000E+00 0. -1.
         21   -1    0    0  501  502  0.00000000000E+00 -0.00000000000E+00 -0.89393926233E+01  0.89393926233E+01  0.00000000000E+00 0. -1.
         24    2    1    2    0    0 -0.25603288093E+02 -0.28526065910E+02  0.49100687580E+03  0.49871436321E+03  0.78479291490E+02 0.  0.
        -11    1    3    3    0    0 -0.53862998352E+01  0.16906632232E+02  0.28710455332E+02  0.33751099015E+02  0.00000000000E+00 0.  1.
         12    1    3    3    0    0 -0.20216988258E+02 -0.45432698142E+02  0.46229642047E+03  0.46496326420E+03  0.00000000000E+00 0. -1.
          1    1    1    2  501    0  0.25603288093E+02  0.28526065910E+02  0.67140374805E+02  0.77311672641E+02  0.00000000000E+00 0. -1.
<mgrwt>
<rscale>  1 0.87339934E+02</rscale>
<asrwt>0</asrwt>
<pdfrwt beam="1">  1       21 0.13752916E-02 0.87339934E+02</pdfrwt>
<pdfrwt beam="2">  1        2 0.87244070E-01 0.87339934E+02</pdfrwt>
<totfact> 0.14249409E+06</totfact>
</mgrwt>
</event>
<event>
 6    2  0.9453093E+000  0.1045356E+03  0.7546771E-02  0.1271037E+00
         -1   -1    0    0    0  501 -0.00000000000E+00  0.00000000000E+00  0.63449727318E+03  0.63449727318E+03  0.00000000000E+00 0.  1.
         21   -1    0    0  501  502  0.00000000000E+00 -0.00000000000E+00 -0.79049830589E+01  0.79049830589E+01  0.00000000000E+00 0. -1.
         24    2    1    2    0    0 -0.21461432615E+02 -0.27619600290E+02  0.51317585670E+03  0.52371475572E+03  0.98510151997E+02 0.  0.
        -11    1    3    3    0    0  0.37266612743E+02 -0.53409008043E+01  0.26751151872E+03  0.27014762315E+03  0.00000000000E+00 0.  1.
         12    1    3    3    0    0 -0.58728045359E+02 -0.22278699486E+02  0.24566433798E+03  0.25356713257E+03  0.00000000000E+00 0. -1.
         -2    1    1    2    0  502  0.21461432615E+02  0.27619600290E+02  0.11341643342E+03  0.11868750052E+03  0.00000000000E+00 0.  1.
<mgrwt>
<rscale>  1 0.10453557E+03</rscale>
<asrwt>0</asrwt>
<pdfrwt beam="1">  1       21 0.12161517E-02 0.10453557E+03</pdfrwt>
<pdfrwt beam="2">  1       -1 0.97614925E-01 0.10453557E+03</pdfrwt>
<totfact> 0.26306166E+05</totfact>
</mgrwt>
</event>
<event>
 6    2  0.9453093E+000  0.9512416E+02  0.7546771E-02  0.1290897E+00
         -3   -1    0    0    0  501 -0.00000000000E+00  0.00000000000E+00  0.43363620509E+02  0.43363620509E+02  0.00000000000E+00 0.  1.
         21   -1    0    0  501  502  0.00000000000E+00 -0.00000000000E+00 -0.12549187482E+03  0.12549187482E+03  0.00000000000E+00 0.  1.
         24    2    1    2    0    0 -0.34854884362E+02 -0.37209926516E+02 -0.42049181934E+02  0.10400355906E+03  0.80306693375E+02 0.  0.
        -11    1    3    3    0    0 -0.21247367736E+02 -0.61015999848E+02 -0.41084506581E+02  0.76565916400E+02  0.00000000000E+00 0.  1.
         12    1    3    3    0    0 -0.13607516626E+02  0.23806073332E+02 -0.96467535266E+00  0.27437642661E+02  0.00000000000E+00 0. -1.
         -4    1    1    2    0  502  0.34854884362E+02  0.37209926516E+02 -0.40079072380E+02  0.64851936271E+02  0.00000000000E+00 0.  1.
<mgrwt>
<rscale>  1 0.95124164E+02</rscale>
<asrwt>0</asrwt>
<pdfrwt beam="1">  1       21 0.19306442E-01 0.95124164E+02</pdfrwt>
<pdfrwt beam="2">  1       -3 0.66713263E-02 0.95124164E+02</pdfrwt>
<totfact> 0.16013244E+05</totfact>
</mgrwt>
</event>
<event>
 6    2  0.9453093E+000  0.8858096E+02  0.7546771E-02  0.1306325E+00
          2   -1    0    0  502    0 -0.00000000000E+00  0.00000000000E+00  0.22911945864E+04  0.22911945864E+04  0.00000000000E+00 0. -1.
         21   -1    0    0  501  502  0.00000000000E+00 -0.00000000000E+00 -0.28099416415E+01  0.28099416415E+01  0.00000000000E+00 0.  1.
         24    2    1    2    0    0  0.17125196976E+02 -0.33497216820E+02  0.21017530295E+04  0.21036188780E+04  0.80195082143E+02 0.  0.
        -11    1    3    3    0    0  0.17017454269E+02 -0.92307856461E+01  0.10821147069E+03  0.10992962995E+03  0.00000000000E+00 0.  1.
         12    1    3    3    0    0  0.10774270728E+00 -0.24266431174E+02  0.19935415588E+04  0.19936892481E+04  0.00000000000E+00 0. -1.
          1    1    1    2  501    0 -0.17125196976E+02  0.33497216820E+02  0.18663161528E+03  0.19038565001E+03  0.00000000000E+00 0. -1.
<mgrwt>
<rscale>  1 0.88580964E+02</rscale>
<asrwt>0</asrwt>
<pdfrwt beam="1">  1       21 0.43230055E-03 0.88580964E+02</pdfrwt>
<pdfrwt beam="2">  1        2 0.35248998E+00 0.88580964E+02</pdfrwt>
<totfact> 0.93052203E+05</totfact>
</mgrwt>
</event>
<event>
 6    2  0.9453093E+000  0.8450058E+02  0.7546771E-02  0.1316744E+00
          2   -1    0    0  502    0 -0.00000000000E+00  0.00000000000E+00  0.83062088063E+02  0.83062088063E+02  0.00000000000E+00 0. -1.
         21   -1    0    0  501  502  0.00000000000E+00 -0.00000000000E+00 -0.65744476367E+02  0.65744476367E+02  0.00000000000E+00 0. -1.
         24    2    1    2    0    0 -0.28281960905E+02  0.73393914711E+01  0.55224236907E+02  0.10094584761E+03  0.79288156918E+02 0.  0.
        -13    1    3    3    0    0 -0.25906135693E+02 -0.23819901754E+02 -0.25256966015E+01  0.35283065760E+02  0.00000000000E+00 0.  1.
         14    1    3    3    0    0 -0.23758252127E+01  0.31159293225E+02  0.57749933508E+02  0.65662781848E+02  0.00000000000E+00 0. -1.
          1    1    1    2  501    0  0.28281960905E+02 -0.73393914711E+01 -0.37906625212E+02  0.47860716822E+02  0.00000000000E+00 0. -1.
<mgrwt>
<rscale>  1 0.84500579E+02</rscale>
<asrwt>0</asrwt>
<pdfrwt beam="1">  1       21 0.10114535E-01 0.84500579E+02</pdfrwt>
<pdfrwt beam="2">  1        2 0.12778783E-01 0.84500579E+02</pdfrwt>
<totfact> 0.42910247E+05</totfact>
</mgrwt>
</event>
<event>
 6    2  0.9453093E+000  0.8406546E+02  0.7546771E-02  0.1317895E+00
         21   -1    0    0  501  502  0.00000000000E+00  0.00000000000E+00  0.63876779308E+01  0.63876779308E+01  0.00000000000E+00 0. -1.
         -1   -1    0    0    0  501 -0.00000000000E+00 -0.00000000000E+00 -0.50601967402E+03  0.50601967402E+03  0.00000000000E+00 0.  1.
         24    2    1    2    0    0  0.24603324232E+02 -0.16426274613E+02 -0.37664541607E+03  0.38591290572E+03  0.78688342837E+02 0.  0.
        -11    1    3    3    0    0  0.12751061242E+02  0.20424409208E+02 -0.29018826271E+03  0.29118546301E+03  0.00000000000E+00 0.  1.
         12    1    3    3    0    0  0.11852262989E+02 -0.36850683822E+02 -0.86457153352E+02  0.94727442707E+02  0.00000000000E+00 0. -1.
         -2    1    1    2    0  502 -0.24603324232E+02  0.16426274613E+02 -0.12298658002E+03  0.12649444623E+03  0.00000000000E+00 0.  1.
<mgrwt>
<rscale>  1 0.84065459E+02</rscale>
<asrwt>0</asrwt>
<pdfrwt beam="1">  1       21 0.98271968E-03 0.84065459E+02</pdfrwt>
<pdfrwt beam="2">  1       -1 0.77849181E-01 0.84065459E+02</pdfrwt>
<totfact> 0.57664922E+05</totfact>
</mgrwt>
</event>
<event>
 6    2  0.9453093E+000  0.7564737E+02  0.7546771E-02  0.1341878E+00
          2   -1    0    0  502    0 -0.00000000000E+00  0.00000000000E+00  0.23027850355E+04  0.23027850355E+04  0.00000000000E+00 0. -1.
         21   -1    0    0  501  502  0.00000000000E+00 -0.00000000000E+00 -0.32099939222E+01  0.32099939222E+01  0.00000000000E+00 0. -1.
         24    2    1    2    0    0  0.29784444620E+02 -0.30240974479E+02  0.21245646105E+04  0.21259109361E+04  0.62617045491E+02 0.  0.
        -11    1    3    3    0    0 -0.11477400558E+02 -0.13015217266E+02  0.18050719741E+03  0.18133939153E+03  0.00000000000E+00 0.  1.
         12    1    3    3    0    0  0.41261845178E+02 -0.17225757213E+02  0.19440574131E+04  0.19445715446E+04  0.00000000000E+00 0. -1.
          1    1    1    2  501    0 -0.29784444620E+02  0.30240974479E+02  0.17501043099E+03  0.18008409323E+03  0.00000000000E+00 0. -1.
<mgrwt>
<rscale>  1 0.75647367E+02</rscale>
<asrwt>0</asrwt>
<pdfrwt beam="1">  1       21 0.49384706E-03 0.75647367E+02</pdfrwt>
<pdfrwt beam="2">  1        2 0.35427330E+00 0.75647367E+02</pdfrwt>
<totfact> 0.74459428E+05</totfact>
</mgrwt>
</event>
<event>
 6    2  0.9453093E+000  0.8831966E+02  0.7546771E-02  0.1306973E+00
         21   -1    0    0  501  502  0.00000000000E+00  0.00000000000E+00  0.16488128075E+03  0.16488128075E+03  0.00000000000E+00 0. -1.
          4   -1    0    0  502    0 -0.00000000000E+00 -0.00000000000E+00 -0.35837287296E+02  0.35837287296E+02  0.00000000000E+00 0. -1.
         24    2    1    2    0    0 -0.72057046834E+00 -0.27829085590E+02  0.23257672521E+02  0.91330621165E+02  0.83817574558E+02 0.  0.
        -13    1    3    3    0    0 -0.52953435118E+01  0.15013805519E+02  0.41569902168E+02  0.44514175106E+02  0.00000000000E+00 0.  1.
         14    1    3    3    0    0  0.45747730435E+01 -0.42842891109E+02 -0.18312229647E+02  0.46816446059E+02  0.00000000000E+00 0. -1.
          3    1    1    2  501    0  0.72057046834E+00  0.27829085590E+02  0.10578632094E+03  0.10938794688E+03  0.00000000000E+00 0. -1.
<mgrwt>
<rscale>  1 0.88319664E+02</rscale>
<asrwt>0</asrwt>
<pdfrwt beam="1">  1       21 0.25366351E-01 0.88319664E+02</pdfrwt>
<pdfrwt beam="2">  1        4 0.55134289E-02 0.88319664E+02</pdfrwt>
<totfact> 0.11382723E+05</totfact>
</mgrwt>
</event>
<event>
 6    2  0.9453093E+000  0.8866966E+02  0.7546771E-02  0.1306106E+00
          2   -1    0    0  502    0 -0.00000000000E+00  0.00000000000E+00  0.17525076460E+04  0.17525076460E+04  0.00000000000E+00 0. -1.
         21   -1    0    0  501  502  0.00000000000E+00 -0.00000000000E+00 -0.13722708634E+02  0.13722708634E+02  0.00000000000E+00 0. -1.
         24    2    1    2    0    0  0.23958030994E+01 -0.35153199466E+02  0.17267082492E+04  0.17289834259E+04  0.81368431870E+02 0.  0.
        -11    1    3    3    0    0  0.25628155466E+01 -0.42661717096E+02  0.40408802106E+03  0.40634187440E+03  0.00000000000E+00 0.  1.
         12    1    3    3    0    0 -0.16701244723E+00  0.75085176296E+01  0.13226202282E+04  0.13226415515E+04  0.00000000000E+00 0. -1.
          1    1    1    2  501    0 -0.23958030994E+01  0.35153199466E+02  0.12076688135E+02  0.37246928753E+02  0.00000000000E+00 0. -1.
<mgrwt>
<rscale>  1 0.88669662E+02</rscale>
<asrwt>0</asrwt>
<pdfrwt beam="1">  1       21 0.21111873E-02 0.88669662E+02</pdfrwt>
<pdfrwt beam="2">  1        2 0.26961638E+00 0.88669662E+02</pdfrwt>
<totfact> 0.14616238E+05</totfact>
</mgrwt>
</event>
<event>
 6    2  0.9453093E+000  0.8004003E+02  0.7546771E-02  0.1328938E+00
         -3   -1    0    0    0  501 -0.00000000000E+00  0.00000000000E+00  0.11881253059E+03  0.11881253059E+03  0.00000000000E+00 0.  1.
         21   -1    0    0  501  502  0.00000000000E+00 -0.00000000000E+00 -0.22947624809E+02  0.22947624809E+02  0.00000000000E+00 0.  1.
         24    2    1    2    0    0  0.22046932567E+02  0.93820112996E+01  0.78992522985E+02  0.11245543440E+03  0.76369605648E+02 0.  0.
        -13    1    3    3    0    0  0.57240395397E+01 -0.33587369693E+02  0.33134735317E+02  0.47526694773E+02  0.00000000000E+00 0.  1.
         14    1    3    3    0    0  0.16322893027E+02  0.42969380992E+02  0.45857787668E+02  0.64928739626E+02  0.00000000000E+00 0. -1.
         -4    1    1    2    0  502 -0.22046932567E+02 -0.93820112996E+01  0.16872382796E+02  0.29304720999E+02  0.00000000000E+00 0.  1.
<mgrwt>
<rscale>  1 0.80040028E+02</rscale>
<asrwt>0</asrwt>
<pdfrwt beam="1">  1       21 0.35304039E-02 0.80040028E+02</pdfrwt>
<pdfrwt beam="2">  1       -3 0.18278851E-01 0.80040028E+02</pdfrwt>
<totfact> 0.54398087E+05</totfact>
</mgrwt>
</event>
<event>
 6    2  0.9453093E+000  0.8241711E+02  0.7546771E-02  0.1322329E+00
         21   -1    0    0  501  502  0.00000000000E+00  0.00000000000E+00  0.46134264337E+02  0.46134264337E+02  0.00000000000E+00 0.  1.
          2   -1    0    0  502    0 -0.00000000000E+00 -0.00000000000E+00 -0.58740786100E+02  0.58740786100E+02  0.00000000000E+00 0. -1.
         24    2    1    2    0    0 -0.13213329853E+02  0.16036033683E+02 -0.43994616651E+01  0.82534452917E+02  0.79754838056E+02 0.  0.
        -11    1    3    3    0    0  0.25308901237E+02  0.79533471578E+01  0.22561118305E+02  0.34825282080E+02  0.00000000000E+00 0.  1.
         12    1    3    3    0    0 -0.38522231090E+02  0.80826865252E+01 -0.26960579970E+02  0.47709170837E+02  0.00000000000E+00 0. -1.
          1    1    1    2  501    0  0.13213329853E+02 -0.16036033683E+02 -0.82070600984E+01  0.22340597520E+02  0.00000000000E+00 0. -1.
<mgrwt>
<rscale>  1 0.82417114E+02</rscale>
<asrwt>0</asrwt>
<pdfrwt beam="1">  1       21 0.70975792E-02 0.82417114E+02</pdfrwt>
<pdfrwt beam="2">  1        2 0.90370440E-02 0.82417114E+02</pdfrwt>
<totfact> 0.11883632E+06</totfact>
</mgrwt>
</event>
<event>
 6    2  0.9453093E+000  0.9253997E+02  0.7546771E-02  0.1296815E+00
         21   -1    0    0  501  502  0.00000000000E+00  0.00000000000E+00  0.13227494954E+04  0.13227494954E+04  0.00000000000E+00 0.  1.
         -1   -1    0    0    0  501 -0.00000000000E+00 -0.00000000000E+00 -0.12592865959E+02  0.12592865959E+02  0.00000000000E+00 0.  1.
         24    2    1    2    0    0  0.43292272752E+02 -0.22949971941E+02  0.16532327679E+03  0.18946089827E+03  0.78503019274E+02 0.  0.
        -13    1    3    3    0    0  0.48639234678E+02 -0.23917465823E+01  0.41958769506E+02  0.64280898720E+02  0.00000000000E+00 0.  1.
         14    1    3    3    0    0 -0.53469619261E+01 -0.20558225358E+02  0.12336450728E+03  0.12517999955E+03  0.00000000000E+00 0. -1.
         -2    1    1    2    0  502 -0.43292272752E+02  0.22949971941E+02  0.11448333527E+04  0.11458814631E+04  0.00000000000E+00 0.  1.
<mgrwt>
<rscale>  1 0.92539970E+02</rscale>
<asrwt>0</asrwt>
<pdfrwt beam="1">  1       21 0.20349981E+00 0.92539970E+02</pdfrwt>
<pdfrwt beam="2">  1       -1 0.19373650E-02 0.92539970E+02</pdfrwt>
<totfact> 0.83175343E+03</totfact>
</mgrwt>
</event>
<event>
 6    2  0.9453093E+000  0.8678733E+02  0.7546771E-02  0.1310824E+00
          2   -1    0    0  502    0 -0.00000000000E+00  0.00000000000E+00  0.76180411224E+03  0.76180411224E+03  0.00000000000E+00 0. -1.
         21   -1    0    0  501  502  0.00000000000E+00 -0.00000000000E+00 -0.14354041248E+02  0.14354041248E+02  0.00000000000E+00 0. -1.
         24    2    1    2    0    0  0.26121754864E+02  0.17904724664E+02  0.73803359920E+03  0.74311885593E+03  0.80802940816E+02 0.  0.
        -13    1    3    3    0    0 -0.26028234867E+02 -0.74875703193E+01  0.17174046282E+03  0.17386293247E+03  0.00000000000E+00 0.  1.
         14    1    3    3    0    0  0.52149989731E+02  0.25392294984E+02  0.56629313638E+03  0.56925592345E+03  0.00000000000E+00 0. -1.
          1    1    1    2  501    0 -0.26121754864E+02 -0.17904724664E+02  0.94164717972E+01  0.33039297565E+02  0.00000000000E+00 0. -1.
<mgrwt>
<rscale>  1 0.86787329E+02</rscale>
<asrwt>0</asrwt>
<pdfrwt beam="1">  1       21 0.22083146E-02 0.86787329E+02</pdfrwt>
<pdfrwt beam="2">  1        2 0.11720060E+00 0.86787329E+02</pdfrwt>
<totfact> 0.47818851E+05</totfact>
</mgrwt>
</event>
<event>
 6    2  0.9453093E+000  0.8505482E+02  0.7546771E-02  0.1315289E+00
         21   -1    0    0  501  502  0.00000000000E+00  0.00000000000E+00  0.25053278403E+02  0.25053278403E+02  0.00000000000E+00 0. -1.
          2   -1    0    0  502    0 -0.00000000000E+00 -0.00000000000E+00 -0.20779716360E+03  0.20779716360E+03  0.00000000000E+00 0. -1.
         24    2    1    2    0    0 -0.48283396951E+00 -0.28520416245E+02 -0.18562218227E+03  0.20418108788E+03  0.80129113470E+02 0.  0.
        -11    1    3    3    0    0 -0.11327208794E+02  0.23984714533E+02 -0.32535437676E+02  0.41977695208E+02  0.00000000000E+00 0.  1.
         12    1    3    3    0    0  0.10844374824E+02 -0.52505130778E+02 -0.15308674460E+03  0.16220339268E+03  0.00000000000E+00 0. -1.
          1    1    1    2  501    0  0.48283396951E+00  0.28520416245E+02  0.28782970792E+01  0.28669354117E+02  0.00000000000E+00 0. -1.
<mgrwt>
<rscale>  1 0.85054818E+02</rscale>
<asrwt>0</asrwt>
<pdfrwt beam="1">  1       21 0.38543505E-02 0.85054818E+02</pdfrwt>
<pdfrwt beam="2">  1        2 0.31968795E-01 0.85054818E+02</pdfrwt>
<totfact> 0.78318579E+05</totfact>
</mgrwt>
</event>
<event>
 6    2  0.9453093E+000  0.8672582E+02  0.7546771E-02  0.1310980E+00
         21   -1    0    0  501  502  0.00000000000E+00  0.00000000000E+00  0.38483245826E+01  0.38483245826E+01  0.00000000000E+00 0.  1.
          2   -1    0    0  502    0 -0.00000000000E+00 -0.00000000000E+00 -0.12900161937E+04  0.12900161937E+04  0.00000000000E+00 0. -1.
         24    2    1    2    0    0  0.27851981093E+02  0.10783166707E+02 -0.11902253031E+04  0.11933807609E+04  0.81420873698E+02 0.  0.
        -11    1    3    3    0    0  0.22476775599E+00  0.25612856573E+02 -0.12032270126E+03  0.12301878467E+03  0.00000000000E+00 0.  1.
         12    1    3    3    0    0  0.27627213337E+02 -0.14829689866E+02 -0.10699026019E+04  0.10703619762E+04  0.00000000000E+00 0. -1.
          1    1    1    2  501    0 -0.27851981093E+02 -0.10783166707E+02 -0.95942565982E+02  0.10048375740E+03  0.00000000000E+00 0. -1.
<mgrwt>
<rscale>  1 0.86725822E+02</rscale>
<asrwt>0</asrwt>
<pdfrwt beam="1">  1       21 0.59204926E-03 0.86725822E+02</pdfrwt>
<pdfrwt beam="2">  1        2 0.19846426E+00 0.86725822E+02</pdfrwt>
<totfact> 0.18472617E+06</totfact>
</mgrwt>
</event>
<event>
 6    2  0.9453093E+000  0.9329937E+02  0.7546771E-02  0.1295053E+00
          4   -1    0    0  502    0 -0.00000000000E+00  0.00000000000E+00  0.13447865826E+03  0.13447865826E+03  0.00000000000E+00 0. -1.
         21   -1    0    0  501  502  0.00000000000E+00 -0.00000000000E+00 -0.34947813201E+02  0.34947813201E+02  0.00000000000E+00 0.  1.
         24    2    1    2    0    0  0.40813027351E+02  0.15303496890E+02  0.72270595249E+02  0.11801614722E+03  0.82491647150E+02 0.  0.
        -13    1    3    3    0    0  0.66151287095E+02  0.14356278161E+02  0.48623647314E+02  0.83344793389E+02  0.00000000000E+00 0.  1.
         14    1    3    3    0    0 -0.25338259744E+02  0.94721872913E+00  0.23646947936E+02  0.34671353836E+02  0.00000000000E+00 0. -1.
          3    1    1    2  501    0 -0.40813027351E+02 -0.15303496890E+02  0.27260249812E+02  0.51410324240E+02  0.00000000000E+00 0. -1.
<mgrwt>
<rscale>  1 0.93299368E+02</rscale>
<asrwt>0</asrwt>
<pdfrwt beam="1">  1       21 0.53765867E-02 0.93299368E+02</pdfrwt>
<pdfrwt beam="2">  1        4 0.20689024E-01 0.93299368E+02</pdfrwt>
<totfact> 0.18953341E+05</totfact>
</mgrwt>
</event>
<event>
 6    2  0.9453093E+000  0.8474853E+02  0.7546771E-02  0.1316091E+00
         21   -1    0    0  501  502  0.00000000000E+00  0.00000000000E+00  0.12138601317E+04  0.12138601317E+04  0.00000000000E+00 0. -1.
         -3   -1    0    0    0  501 -0.00000000000E+00 -0.00000000000E+00 -0.23997195556E+01  0.23997195556E+01  0.00000000000E+00 0.  1.
         24    2    1    2    0    0  0.11780830080E+02  0.19526944198E+02  0.99432008175E+03  0.99792521683E+03  0.81622447294E+02 0.  0.
        -13    1    3    3    0    0 -0.89233021453E+01  0.83319985901E+01  0.20782170775E+02  0.24102824395E+02  0.00000000000E+00 0.  1.
         14    1    3    3    0    0  0.20704132225E+02  0.11194945608E+02  0.97353791098E+03  0.97382239244E+03  0.00000000000E+00 0. -1.
         -4    1    1    2    0  502 -0.11780830080E+02 -0.19526944198E+02  0.21714033043E+03  0.21833463446E+03  0.00000000000E+00 0.  1.
<mgrwt>
<rscale>  1 0.84748530E+02</rscale>
<asrwt>0</asrwt>
<pdfrwt beam="1">  1       21 0.18674722E+00 0.84748530E+02</pdfrwt>
<pdfrwt beam="2">  1       -3 0.36918859E-03 0.84748530E+02</pdfrwt>
<totfact> 0.92577345E+04</totfact>
</mgrwt>
</event>
<event>
 6    2  0.9453093E+000  0.1023529E+03  0.7546771E-02  0.1275424E+00
         21   -1    0    0  501  502  0.00000000000E+00  0.00000000000E+00  0.21167516035E+03  0.21167516035E+03  0.00000000000E+00 0. -1.
         -1   -1    0    0    0  501 -0.00000000000E+00 -0.00000000000E+00 -0.51393950769E+02  0.51393950769E+02  0.00000000000E+00 0.  1.
         24    2    1    2    0    0 -0.41312966671E+02 -0.48141302359E+02  0.17045168576E+03  0.19882127229E+03  0.80322941493E+02 0.  0.
        -13    1    3    3    0    0 -0.22777894770E+02  0.20232560143E+02  0.64970770113E+02  0.71759249921E+02  0.00000000000E+00 0.  1.
         14    1    3    3    0    0 -0.18535071902E+02 -0.68373862502E+02  0.10548091565E+03  0.12706202237E+03  0.00000000000E+00 0. -1.
         -2    1    1    2    0  502  0.41312966671E+02  0.48141302359E+02 -0.10170476179E+02  0.64247838825E+02  0.00000000000E+00 0.  1.
<mgrwt>
<rscale>  1 0.10235292E+03</rscale>
<asrwt>0</asrwt>
<pdfrwt beam="1">  1       21 0.32565409E-01 0.10235292E+03</pdfrwt>
<pdfrwt beam="2">  1       -1 0.79067618E-02 0.10235292E+03</pdfrwt>
<totfact> 0.69140118E+04</totfact>
</mgrwt>
</event>
<event>
 6    2  0.9453093E+000  0.8199450E+02  0.7546771E-02  0.1323485E+00
          2   -1    0    0  502    0 -0.00000000000E+00  0.00000000000E+00  0.52234963488E+03  0.52234963488E+03  0.00000000000E+00 0. -1.
         21   -1    0    0  501  502  0.00000000000E+00 -0.00000000000E+00 -0.13544391422E+02  0.13544391422E+02  0.00000000000E+00 0. -1.
         24    2    1    2    0    0  0.38503315322E+01 -0.20282670582E+02  0.50868280222E+03  0.51524876606E+03  0.79352919733E+02 0.  0.
        -13    1    3    3    0    0 -0.17699337391E+02 -0.17098911645E+02  0.47007369179E+02  0.53059702983E+02  0.00000000000E+00 0.  1.
         14    1    3    3    0    0  0.21549668923E+02 -0.31837589373E+01  0.46167543304E+03  0.46218906308E+03  0.00000000000E+00 0. -1.
          1    1    1    2  501    0 -0.38503315322E+01  0.20282670582E+02  0.12244124061E+00  0.20645260248E+02  0.00000000000E+00 0. -1.
<mgrwt>
<rscale>  1 0.81994498E+02</rscale>
<asrwt>0</asrwt>
<pdfrwt beam="1">  1       21 0.20837529E-02 0.81994498E+02</pdfrwt>
<pdfrwt beam="2">  1        2 0.80361467E-01 0.81994498E+02</pdfrwt>
<totfact> 0.80092408E+05</totfact>
</mgrwt>
</event>
<event>
 6    2  0.9453093E+000  0.1039789E+03  0.7546771E-02  0.1272145E+00
         21   -1    0    0  501  502  0.00000000000E+00  0.00000000000E+00  0.78260214101E+02  0.78260214101E+02  0.00000000000E+00 0.  1.
         -3   -1    0    0    0  501 -0.00000000000E+00 -0.00000000000E+00 -0.11488250394E+03  0.11488250394E+03  0.00000000000E+00 0.  1.
         24    2    1    2    0    0 -0.66120961844E+02  0.19779649526E+02 -0.60275090932E+02  0.12018607934E+03  0.77771401872E+02 0.  0.
        -11    1    3    3    0    0 -0.70934679716E+02 -0.90208877290E+01 -0.28349377775E+02  0.76920689168E+02  0.00000000000E+00 0.  1.
         12    1    3    3    0    0  0.48137178718E+01  0.28800537255E+02 -0.31925713157E+02  0.43265390170E+02  0.00000000000E+00 0. -1.
         -4    1    1    2    0  502  0.66120961844E+02 -0.19779649526E+02  0.23652801097E+02  0.72956638699E+02  0.00000000000E+00 0.  1.
<mgrwt>
<rscale>  1 0.10397888E+03</rscale>
<asrwt>0</asrwt>
<pdfrwt beam="1">  1       21 0.12040033E-01 0.10397888E+03</pdfrwt>
<pdfrwt beam="2">  1       -3 0.17674231E-01 0.10397888E+03</pdfrwt>
<totfact> 0.75362074E+04</totfact>
</mgrwt>
</event>
<event>
 6    2  0.9453093E+000  0.8454709E+02  0.7546771E-02  0.1316621E+00
         21   -1    0    0  501  502  0.00000000000E+00  0.00000000000E+00  0.89615126592E+01  0.89615126592E+01  0.00000000000E+00 0. -1.
          2   -1    0    0  502    0 -0.00000000000E+00 -0.00000000000E+00 -0.15541052689E+04  0.15541052689E+04  0.00000000000E+00 0. -1.
         24    2    1    2    0    0 -0.92033656486E+01  0.22766132565E+02 -0.15336069094E+04  0.15359356635E+04  0.80902479430E+02 0.  0.
        -13    1    3    3    0    0 -0.42234638590E+02  0.21380940120E+02 -0.65574780260E+03  0.65745424929E+03  0.00000000000E+00 0.  1.
         14    1    3    3    0    0  0.33031272942E+02  0.13851924454E+01 -0.87785910678E+03  0.87848141421E+03  0.00000000000E+00 0. -1.
          1    1    1    2  501    0  0.92033656486E+01 -0.22766132565E+02 -0.11536846845E+02  0.27131118045E+02  0.00000000000E+00 0. -1.
<mgrwt>
<rscale>  1 0.84547087E+02</rscale>
<asrwt>0</asrwt>
<pdfrwt beam="1">  1       21 0.13786938E-02 0.84547087E+02</pdfrwt>
<pdfrwt beam="2">  1        2 0.23909320E+00 0.84547087E+02</pdfrwt>
<totfact> 0.36159392E+05</totfact>
</mgrwt>
</event>
<event>
 6    2  0.9453093E+000  0.1007309E+03  0.7546771E-02  0.1278766E+00
         21   -1    0    0  501  502  0.00000000000E+00  0.00000000000E+00  0.73781524061E+01  0.73781524061E+01  0.00000000000E+00 0. -1.
          2   -1    0    0  502    0 -0.00000000000E+00 -0.00000000000E+00 -0.27494723073E+04  0.27494723073E+04  0.00000000000E+00 0. -1.
         24    2    1    2    0    0 -0.36814399996E+02 -0.47402348103E+02 -0.26079138915E+04  0.26098585357E+04  0.80897639050E+02 0.  0.
        -13    1    3    3    0    0  0.21101977820E+02 -0.21114393349E+02 -0.43980001658E+03  0.44081193910E+03  0.00000000000E+00 0.  1.
         14    1    3    3    0    0 -0.57916377816E+02 -0.26287954753E+02 -0.21681138749E+04  0.21690465965E+04  0.00000000000E+00 0. -1.
          1    1    1    2  501    0  0.36814399996E+02  0.47402348103E+02 -0.13418026344E+03  0.14699192410E+03  0.00000000000E+00 0. -1.
<mgrwt>
<rscale>  1 0.10073088E+03</rscale>
<asrwt>0</asrwt>
<pdfrwt beam="1">  1       21 0.11350991E-02 0.10073088E+03</pdfrwt>
<pdfrwt beam="2">  1        2 0.42299620E+00 0.10073088E+03</pdfrwt>
<totfact> 0.11965495E+05</totfact>
</mgrwt>
</event>
<event>
 6    2  0.9453093E+000  0.8474645E+02  0.7546771E-02  0.1316097E+00
         -3   -1    0    0    0  501 -0.00000000000E+00  0.00000000000E+00  0.40965520645E+02  0.40965520645E+02  0.00000000000E+00 0.  1.
         21   -1    0    0  501  502  0.00000000000E+00 -0.00000000000E+00 -0.77428912184E+02  0.77428912184E+02  0.00000000000E+00 0. -1.
         24    2    1    2    0    0  0.16029865040E+02  0.22630899545E+02 -0.30168352981E+02  0.89956048594E+02  0.80080253307E+02 0.  0.
        -11    1    3    3    0    0 -0.32577223695E+02  0.10444150093E+02 -0.78519491539E+01  0.35099984050E+02  0.00000000000E+00 0.  1.
         12    1    3    3    0    0  0.48607088735E+02  0.12186749452E+02 -0.22316403827E+02  0.54856064544E+02  0.00000000000E+00 0. -1.
         -4    1    1    2    0  502 -0.16029865040E+02 -0.22630899545E+02 -0.62950385573E+01  0.28438384235E+02  0.00000000000E+00 0.  1.
<mgrwt>
<rscale>  1 0.84746452E+02</rscale>
<asrwt>0</asrwt>
<pdfrwt beam="1">  1       21 0.11912140E-01 0.84746452E+02</pdfrwt>
<pdfrwt beam="2">  1       -3 0.63023879E-02 0.84746452E+02</pdfrwt>
<totfact> 0.40809792E+05</totfact>
</mgrwt>
</event>
<event>
 6    2  0.9453093E+000  0.9063554E+02  0.7546771E-02  0.1301320E+00
         21   -1    0    0  501  502  0.00000000000E+00  0.00000000000E+00  0.44213926194E+02  0.44213926194E+02  0.00000000000E+00 0. -1.
         -1   -1    0    0    0  501 -0.00000000000E+00 -0.00000000000E+00 -0.10283643511E+03  0.10283643511E+03  0.00000000000E+00 0.  1.
         24    2    1    2    0    0 -0.42433944508E+02 -0.11275023165E+02 -0.44178049461E+02  0.10082906532E+03  0.79290822700E+02 0.  0.
        -13    1    3    3    0    0  0.36135073589E+01  0.68784044358E+01  0.19025428154E+02  0.20550834520E+02  0.00000000000E+00 0.  1.
         14    1    3    3    0    0 -0.46047451867E+02 -0.18153427601E+02 -0.63203477615E+02  0.80278230797E+02  0.00000000000E+00 0. -1.
         -2    1    1    2    0  502  0.42433944508E+02  0.11275023165E+02 -0.14444459456E+02  0.46221295989E+02  0.00000000000E+00 0.  1.
<mgrwt>
<rscale>  1 0.90635536E+02</rscale>
<asrwt>0</asrwt>
<pdfrwt beam="1">  1       21 0.68021426E-02 0.90635536E+02</pdfrwt>
<pdfrwt beam="2">  1       -1 0.15820990E-01 0.90635536E+02</pdfrwt>
<totfact> 0.39653311E+05</totfact>
</mgrwt>
</event>
<event>
 6    2  0.9453093E+000  0.7348653E+02  0.7546771E-02  0.1348623E+00
         21   -1    0    0  501  502  0.00000000000E+00  0.00000000000E+00  0.71289181523E+01  0.71289181523E+01  0.00000000000E+00 0.  1.
          2   -1    0    0  502    0 -0.00000000000E+00 -0.00000000000E+00 -0.41453245455E+03  0.41453245455E+03  0.00000000000E+00 0. -1.
         24    2    1    2    0    0  0.45436717717E+01  0.19927942194E+02 -0.38225359845E+03  0.38925323774E+03  0.70586838189E+02 0.  0.
        -11    1    3    3    0    0 -0.25496872038E+02  0.17891787667E+02 -0.85880744996E+02  0.91354851599E+02  0.00000000000E+00 0.  1.
         12    1    3    3    0    0  0.30040543809E+02  0.20361545266E+01 -0.29637285346E+03  0.29789838614E+03  0.00000000000E+00 0. -1.
          1    1    1    2  501    0 -0.45436717717E+01 -0.19927942194E+02 -0.25149937942E+02  0.32408134962E+02  0.00000000000E+00 0. -1.
<mgrwt>
<rscale>  1 0.73486526E+02</rscale>
<asrwt>0</asrwt>
<pdfrwt beam="1">  1       21 0.10967563E-02 0.73486526E+02</pdfrwt>
<pdfrwt beam="2">  1        2 0.63774241E-01 0.73486526E+02</pdfrwt>
<totfact> 0.27853536E+06</totfact>
</mgrwt>
</event>
<event>
 6    2  0.9453093E+000  0.9653334E+02  0.7546771E-02  0.1287759E+00
          4   -1    0    0  502    0 -0.00000000000E+00  0.00000000000E+00  0.30057851458E+03  0.30057851458E+03  0.00000000000E+00 0. -1.
         21   -1    0    0  501  502  0.00000000000E+00 -0.00000000000E+00 -0.19477372550E+02  0.19477372550E+02  0.00000000000E+00 0. -1.
         24    2    1    2    0    0 -0.19676697920E+02  0.50209286469E+02  0.15098291135E+03  0.17920526114E+03  0.80065855449E+02 0.  0.
        -13    1    3    3    0    0  0.16762407224E+02  0.21716049447E+02  0.74843728062E+01  0.28435557597E+02  0.00000000000E+00 0.  1.
         14    1    3    3    0    0 -0.36439105144E+02  0.28493237023E+02  0.14349853855E+03  0.15076970354E+03  0.00000000000E+00 0. -1.
          3    1    1    2  501    0  0.19676697920E+02 -0.50209286469E+02  0.13011823068E+03  0.14085062600E+03  0.00000000000E+00 0. -1.
<mgrwt>
<rscale>  1 0.96533342E+02</rscale>
<asrwt>0</asrwt>
<pdfrwt beam="1">  1       21 0.29965191E-02 0.96533342E+02</pdfrwt>
<pdfrwt beam="2">  1        4 0.46242845E-01 0.96533342E+02</pdfrwt>
<totfact> 0.10965603E+05</totfact>
</mgrwt>
</event>
<event>
 6    2  0.9453093E+000  0.1350899E+03  0.7546771E-02  0.1220093E+00
         21   -1    0    0  501  502  0.00000000000E+00  0.00000000000E+00  0.96443679737E+01  0.96443679737E+01  0.00000000000E+00 0. -1.
          2   -1    0    0  502    0 -0.00000000000E+00 -0.00000000000E+00 -0.17450189638E+04  0.17450189638E+04  0.00000000000E+00 0. -1.
         24    2    1    2    0    0 -0.67431587532E+02 -0.87145281714E+02 -0.66166511190E+03  0.67531474350E+03  0.78153460377E+02 0.  0.
        -11    1    3    3    0    0 -0.50895497076E+02 -0.29334761505E+02 -0.48824556920E+03  0.49176683062E+03  0.00000000000E+00 0.  1.
         12    1    3    3    0    0 -0.16536090456E+02 -0.57810520209E+02 -0.17341954270E+03  0.18354791289E+03  0.00000000000E+00 0. -1.
          1    1    1    2  501    0  0.67431587532E+02  0.87145281714E+02 -0.10737094839E+04  0.10793485883E+04  0.00000000000E+00 0. -1.
<mgrwt>
<rscale>  1 0.13508991E+03</rscale>
<asrwt>0</asrwt>
<pdfrwt beam="1">  1       21 0.14837483E-02 0.13508991E+03</pdfrwt>
<pdfrwt beam="2">  1        2 0.26846458E+00 0.13508991E+03</pdfrwt>
<totfact> 0.26036768E+05</totfact>
</mgrwt>
</event>
<event>
 6    2  0.9453093E+000  0.1322106E+03  0.7546771E-02  0.1224212E+00
         -3   -1    0    0    0  501 -0.00000000000E+00  0.00000000000E+00  0.10356940911E+03  0.10356940911E+03  0.00000000000E+00 0.  1.
         21   -1    0    0  501  502  0.00000000000E+00 -0.00000000000E+00 -0.13699485125E+03  0.13699485125E+03  0.00000000000E+00 0. -1.
         24    2    1    2    0    0 -0.97472483876E+02 -0.41055755495E+02 -0.13045596942E+02  0.13285261631E+03  0.79329502012E+02 0.  0.
        -11    1    3    3    0    0 -0.28369743710E+02 -0.44322645930E+02 -0.31398390721E+02  0.61279672325E+02  0.00000000000E+00 0.  1.
         12    1    3    3    0    0 -0.69102740167E+02  0.32668904351E+01  0.18352793779E+02  0.71572943988E+02  0.00000000000E+00 0. -1.
         -4    1    1    2    0  502  0.97472483876E+02  0.41055755495E+02 -0.20379845193E+02  0.10771164404E+03  0.00000000000E+00 0.  1.
<mgrwt>
<rscale>  1 0.13221055E+03</rscale>
<asrwt>0</asrwt>
<pdfrwt beam="1">  1       21 0.21076131E-01 0.13221055E+03</pdfrwt>
<pdfrwt beam="2">  1       -3 0.15933755E-01 0.13221055E+03</pdfrwt>
<totfact> 0.33540509E+04</totfact>
</mgrwt>
</event>
<event>
 6    2  0.9453093E+000  0.1111987E+03  0.7546771E-02  0.1258366E+00
         -1   -1    0    0    0  501 -0.00000000000E+00  0.00000000000E+00  0.12241205460E+03  0.12241205460E+03  0.00000000000E+00 0.  1.
         21   -1    0    0  501  502  0.00000000000E+00 -0.00000000000E+00 -0.82744207400E+02  0.82744207400E+02  0.00000000000E+00 0. -1.
         24    2    1    2    0    0 -0.50966321244E+02  0.56790142346E+02  0.59772844102E+02  0.12624557153E+03  0.80885507174E+02 0.  0.
        -13    1    3    3    0    0 -0.28326500645E+02  0.47336783790E+02  0.78102834269E+02  0.95620157181E+02  0.00000000000E+00 0.  1.
         14    1    3    3    0    0 -0.22639820598E+02  0.94533585558E+01 -0.18329990167E+02  0.30625414352E+02  0.00000000000E+00 0. -1.
         -2    1    1    2    0  502  0.50966321244E+02 -0.56790142346E+02 -0.20104996907E+02  0.78910690464E+02  0.00000000000E+00 0.  1.
<mgrwt>
<rscale>  1 0.11119870E+03</rscale>
<asrwt>0</asrwt>
<pdfrwt beam="1">  1       21 0.12729878E-01 0.11119870E+03</pdfrwt>
<pdfrwt beam="2">  1       -1 0.18832624E-01 0.11119870E+03</pdfrwt>
<totfact> 0.10359481E+05</totfact>
</mgrwt>
</event>
<event>
 6    2  0.9453093E+000  0.9080026E+02  0.7546771E-02  0.1300925E+00
         21   -1    0    0  501  502  0.00000000000E+00  0.00000000000E+00  0.58896518565E+02  0.58896518565E+02  0.00000000000E+00 0. -1.
         -1   -1    0    0    0  501 -0.00000000000E+00 -0.00000000000E+00 -0.75779103958E+02  0.75779103958E+02  0.00000000000E+00 0.  1.
         24    2    1    2    0    0 -0.31943745309E+01  0.41178897205E+02 -0.21551044358E+01  0.90825830060E+02  0.80862731387E+02 0.  0.
        -11    1    3    3    0    0  0.14566326370E+02 -0.73865538731E+01 -0.28456503130E+02  0.32810236397E+02  0.00000000000E+00 0.  1.
         12    1    3    3    0    0 -0.17760700901E+02  0.48565451078E+02  0.26301398694E+02  0.58015593664E+02  0.00000000000E+00 0. -1.
         -2    1    1    2    0  502  0.31943745309E+01 -0.41178897205E+02 -0.14727480958E+02  0.43849792462E+02  0.00000000000E+00 0.  1.
<mgrwt>
<rscale>  1 0.90800258E+02</rscale>
<asrwt>0</asrwt>
<pdfrwt beam="1">  1       21 0.90610029E-02 0.90800258E+02</pdfrwt>
<pdfrwt beam="2">  1       -1 0.11658324E-01 0.90800258E+02</pdfrwt>
<totfact> 0.38901516E+05</totfact>
</mgrwt>
</event>
<event>
 6    2  0.9453093E+000  0.8407729E+02  0.7546771E-02  0.1317863E+00
          2   -1    0    0  502    0 -0.00000000000E+00  0.00000000000E+00  0.42740392210E+04  0.42740392210E+04  0.00000000000E+00 0. -1.
         21   -1    0    0  501  502  0.00000000000E+00 -0.00000000000E+00 -0.68513089609E+00  0.68513089609E+00  0.00000000000E+00 0.  1.
         24    2    1    2    0    0  0.22254983013E+02  0.63813560231E+01  0.30890608870E+04  0.30902048725E+04  0.80826882395E+02 0.  0.
        -13    1    3    3    0    0  0.32068714092E+02  0.78970372193E+01  0.48419709483E+03  0.48532215307E+03  0.00000000000E+00 0.  1.
         14    1    3    3    0    0 -0.98137310789E+01 -0.15156811962E+01  0.26048637921E+04  0.26048827195E+04  0.00000000000E+00 0. -1.
          1    1    1    2  501    0 -0.22254983013E+02 -0.63813560231E+01  0.11842932032E+04  0.11845194794E+04  0.00000000000E+00 0. -1.
<mgrwt>
<rscale>  1 0.84077291E+02</rscale>
<asrwt>0</asrwt>
<pdfrwt beam="1">  1       21 0.10540818E-03 0.84077291E+02</pdfrwt>
<pdfrwt beam="2">  1        2 0.65752315E+00 0.84077291E+02</pdfrwt>
<totfact> 0.45004984E+05</totfact>
</mgrwt>
</event>
<event>
 6    2  0.9453093E+000  0.8320990E+02  0.7546771E-02  0.1320181E+00
         21   -1    0    0  501  502  0.00000000000E+00  0.00000000000E+00  0.31450603717E+03  0.31450603717E+03  0.00000000000E+00 0. -1.
          2   -1    0    0  502    0 -0.00000000000E+00 -0.00000000000E+00 -0.38452924465E+02  0.38452924465E+02  0.00000000000E+00 0. -1.
         24    2    1    2    0    0 -0.21025488969E+01  0.22024033749E+02  0.75564225418E+01  0.83552296159E+02  0.80214761094E+02 0.  0.
        -11    1    3    3    0    0 -0.23395182651E+02 -0.10258859465E+02  0.29551565739E+02  0.39062434722E+02  0.00000000000E+00 0.  1.
         12    1    3    3    0    0  0.21292633754E+02  0.32282893214E+02 -0.21995143197E+02  0.44489861437E+02  0.00000000000E+00 0. -1.
          1    1    1    2  501    0  0.21025488969E+01 -0.22024033749E+02  0.26849669016E+03  0.26940666547E+03  0.00000000000E+00 0. -1.
<mgrwt>
<rscale>  1 0.83209895E+02</rscale>
<asrwt>0</asrwt>
<pdfrwt beam="1">  1       21 0.48385542E-01 0.83209895E+02</pdfrwt>
<pdfrwt beam="2">  1        2 0.59158348E-02 0.83209895E+02</pdfrwt>
<totfact> 0.60322305E+04</totfact>
</mgrwt>
</event>
<event>
 6    2  0.9453093E+000  0.9068395E+02  0.7546771E-02  0.1301204E+00
          2   -1    0    0  502    0 -0.00000000000E+00  0.00000000000E+00  0.23114769065E+04  0.23114769065E+04  0.00000000000E+00 0. -1.
         21   -1    0    0  501  502  0.00000000000E+00 -0.00000000000E+00 -0.30350659022E+01  0.30350659022E+01  0.00000000000E+00 0. -1.
         24    2    1    2    0    0  0.34975413270E+02  0.26425950723E+02  0.20755733666E+04  0.20775534600E+04  0.79384940156E+02 0.  0.
        -11    1    3    3    0    0  0.25614255745E+02 -0.16654065737E+02  0.32693821085E+03  0.32836266797E+03  0.00000000000E+00 0.  1.
         12    1    3    3    0    0  0.93611575252E+01  0.43080016460E+02  0.17486351557E+04  0.17491907921E+04  0.00000000000E+00 0. -1.
          1    1    1    2  501    0 -0.34975413270E+02 -0.26425950723E+02  0.23286847397E+03  0.23695851235E+03  0.00000000000E+00 0. -1.
<mgrwt>
<rscale>  1 0.90683952E+02</rscale>
<asrwt>0</asrwt>
<pdfrwt beam="1">  1       21 0.46693506E-03 0.90683952E+02</pdfrwt>
<pdfrwt beam="2">  1        2 0.35561042E+00 0.90683952E+02</pdfrwt>
<totfact> 0.80826445E+05</totfact>
</mgrwt>
</event>
<event>
 6    2  0.9453093E+000  0.8374989E+02  0.7546771E-02  0.1318734E+00
         21   -1    0    0  501  502  0.00000000000E+00  0.00000000000E+00  0.20749603660E+01  0.20749603660E+01  0.00000000000E+00 0. -1.
          4   -1    0    0  502    0 -0.00000000000E+00 -0.00000000000E+00 -0.16650248251E+04  0.16650248251E+04  0.00000000000E+00 0. -1.
         24    2    1    2    0    0  0.23429117412E+02  0.20785104778E+01 -0.15130203855E+04  0.15153365076E+04  0.80379106394E+02 0.  0.
        -11    1    3    3    0    0  0.15418289486E+02 -0.88329114969E+01 -0.68955505027E+02  0.71208185272E+02  0.00000000000E+00 0.  1.
         12    1    3    3    0    0  0.80108279267E+01  0.10911421975E+02 -0.14440648804E+04  0.14441283224E+04  0.00000000000E+00 0. -1.
          3    1    1    2  501    0 -0.23429117412E+02 -0.20785104778E+01 -0.14992947922E+03  0.15176327780E+03  0.00000000000E+00 0. -1.
<mgrwt>
<rscale>  1 0.83749892E+02</rscale>
<asrwt>0</asrwt>
<pdfrwt beam="1">  1       21 0.31922397E-03 0.83749892E+02</pdfrwt>
<pdfrwt beam="2">  1        4 0.25615823E+00 0.83749892E+02</pdfrwt>
<totfact> 0.57536413E+04</totfact>
</mgrwt>
</event>
<event>
 6    2  0.9453093E+000  0.7781097E+02  0.7546771E-02  0.1335381E+00
          2   -1    0    0  502    0 -0.00000000000E+00  0.00000000000E+00  0.10065541057E+04  0.10065541057E+04  0.00000000000E+00 0. -1.
         21   -1    0    0  501  502  0.00000000000E+00 -0.00000000000E+00 -0.48657758124E+01  0.48657758124E+01  0.00000000000E+00 0. -1.
         24    2    1    2    0    0  0.28648936748E+01 -0.21339921350E+02  0.96995727573E+03  0.97307330857E+03  0.74772636997E+02 0.  0.
        -11    1    3    3    0    0 -0.17513020502E+02 -0.18670690985E+02  0.11274100841E+03  0.11561070697E+03  0.00000000000E+00 0.  1.
         12    1    3    3    0    0  0.20377914177E+02 -0.26692303652E+01  0.85721626733E+03  0.85746260160E+03  0.00000000000E+00 0. -1.
          1    1    1    2  501    0 -0.28648936748E+01  0.21339921350E+02  0.31731054177E+02  0.38346572965E+02  0.00000000000E+00 0. -1.
<mgrwt>
<rscale>  1 0.77810970E+02</rscale>
<asrwt>0</asrwt>
<pdfrwt beam="1">  1       21 0.74858169E-03 0.77810970E+02</pdfrwt>
<pdfrwt beam="2">  1        2 0.15485431E+00 0.77810970E+02</pdfrwt>
<totfact> 0.18254790E+06</totfact>
</mgrwt>
</event>
<event>
 6    2  0.9453093E+000  0.8407021E+02  0.7546771E-02  0.1317882E+00
         21   -1    0    0  501  502  0.00000000000E+00  0.00000000000E+00  0.24848581039E+01  0.24848581039E+01  0.00000000000E+00 0. -1.
          2   -1    0    0  502    0 -0.00000000000E+00 -0.00000000000E+00 -0.20373485574E+04  0.20373485574E+04  0.00000000000E+00 0. -1.
         24    2    1    2    0    0 -0.22431986002E+02 -0.13443812647E+02 -0.19274257110E+04  0.19292583214E+04  0.79899120126E+02 0.  0.
        -11    1    3    3    0    0  0.17892981909E+02 -0.18118905962E+02 -0.24052812370E+03  0.24187234618E+03  0.00000000000E+00 0.  1.
         12    1    3    3    0    0 -0.40324967911E+02  0.46750933153E+01 -0.16868975873E+04  0.16873859752E+04  0.00000000000E+00 0. -1.
          1    1    1    2  501    0  0.22431986002E+02  0.13443812647E+02 -0.10743798836E+03  0.11057509411E+03  0.00000000000E+00 0. -1.
<mgrwt>
<rscale>  1 0.84070206E+02</rscale>
<asrwt>0</asrwt>
<pdfrwt beam="1">  1       21 0.38228723E-03 0.84070206E+02</pdfrwt>
<pdfrwt beam="2">  1        2 0.31343712E+00 0.84070206E+02</pdfrwt>
<totfact> 0.15047049E+06</totfact>
</mgrwt>
</event>
<event>
 6    2  0.9453093E+000  0.8525138E+02  0.7546771E-02  0.1314776E+00
          2   -1    0    0  502    0 -0.00000000000E+00  0.00000000000E+00  0.15422935381E+02  0.15422935381E+02  0.00000000000E+00 0. -1.
         21   -1    0    0  501  502  0.00000000000E+00 -0.00000000000E+00 -0.20692429118E+03  0.20692429118E+03  0.00000000000E+00 0.  1.
         24    2    1    2    0    0 -0.25081557609E+01  0.26933318121E+02 -0.13431174000E+03  0.15908312437E+03  0.80846165575E+02 0.  0.
        -13    1    3    3    0    0 -0.37595472558E+01  0.11352696533E+02 -0.14141092654E+03  0.14191570758E+03  0.00000000000E+00 0.  1.
         14    1    3    3    0    0  0.12513914949E+01  0.15580621588E+02  0.70991865394E+01  0.17167416790E+02  0.00000000000E+00 0. -1.
          1    1    1    2  501    0  0.25081557609E+01 -0.26933318121E+02 -0.57189615800E+02  0.63264102188E+02  0.00000000000E+00 0. -1.
<mgrwt>
<rscale>  1 0.85251375E+02</rscale>
<asrwt>0</asrwt>
<pdfrwt beam="1">  1       21 0.31834503E-01 0.85251375E+02</pdfrwt>
<pdfrwt beam="2">  1        2 0.23727595E-02 0.85251375E+02</pdfrwt>
<totfact> 0.45545725E+05</totfact>
</mgrwt>
</event>
<event>
 6    2  0.9453093E+000  0.7987485E+02  0.7546771E-02  0.1329407E+00
          2   -1    0    0  502    0 -0.00000000000E+00  0.00000000000E+00  0.10942375116E+04  0.10942375116E+04  0.00000000000E+00 0. -1.
         21   -1    0    0  501  502  0.00000000000E+00 -0.00000000000E+00 -0.31370887366E+01  0.31370887366E+01  0.00000000000E+00 0.  1.
         24    2    1    2    0    0 -0.20192962408E+02 -0.10137919784E+02  0.54656598577E+03  0.55237158537E+03  0.76612390439E+02 0.  0.
        -13    1    3    3    0    0 -0.18263695480E+02 -0.29182851852E+01  0.26860364460E+02  0.32612239112E+02  0.00000000000E+00 0.  1.
         14    1    3    3    0    0 -0.19292669278E+01 -0.72196345985E+01  0.51970562131E+03  0.51975934625E+03  0.00000000000E+00 0. -1.
          1    1    1    2  501    0  0.20192962408E+02  0.10137919784E+02  0.54453443713E+03  0.54500301501E+03  0.00000000000E+00 0. -1.
<mgrwt>
<rscale>  1 0.79874849E+02</rscale>
<asrwt>0</asrwt>
<pdfrwt beam="1">  1       21 0.48262991E-03 0.79874849E+02</pdfrwt>
<pdfrwt beam="2">  1        2 0.16834393E+00 0.79874849E+02</pdfrwt>
<totfact> 0.32009058E+06</totfact>
</mgrwt>
</event>
<event>
 6    2  0.9453093E+000  0.8419182E+02  0.7546771E-02  0.1317560E+00
          2   -1    0    0  502    0 -0.00000000000E+00  0.00000000000E+00  0.22433903211E+02  0.22433903211E+02  0.00000000000E+00 0. -1.
         21   -1    0    0  501  502  0.00000000000E+00 -0.00000000000E+00 -0.19504004552E+03  0.19504004552E+03  0.00000000000E+00 0. -1.
         24    2    1    2    0    0  0.27543164329E+02  0.55796658576E+01 -0.65295820261E+02  0.10654485521E+03  0.79363111424E+02 0.  0.
        -13    1    3    3    0    0  0.31276833378E+02 -0.90797998798E+01 -0.79426420302E+02  0.85844273624E+02  0.00000000000E+00 0.  1.
         14    1    3    3    0    0 -0.37336690493E+01  0.14659465737E+02  0.14130600041E+02  0.20700581581E+02  0.00000000000E+00 0. -1.
          1    1    1    2  501    0 -0.27543164329E+02 -0.55796658576E+01 -0.10731032205E+03  0.11092909353E+03  0.00000000000E+00 0. -1.
<mgrwt>
<rscale>  1 0.84191817E+02</rscale>
<asrwt>0</asrwt>
<pdfrwt beam="1">  1       21 0.30006160E-01 0.84191817E+02</pdfrwt>
<pdfrwt beam="2">  1        2 0.34513699E-02 0.84191817E+02</pdfrwt>
<totfact> 0.30977646E+05</totfact>
</mgrwt>
</event>
<event>
 6    2  0.9453093E+000  0.8800900E+02  0.7546771E-02  0.1307746E+00
          2   -1    0    0  502    0 -0.00000000000E+00  0.00000000000E+00  0.16911012017E+04  0.16911012017E+04  0.00000000000E+00 0. -1.
         21   -1    0    0  501  502  0.00000000000E+00 -0.00000000000E+00 -0.22171481994E+01  0.22171481994E+01  0.00000000000E+00 0.  1.
         24    2    1    2    0    0  0.28482207781E+02 -0.13966074732E+02  0.13818945548E+04  0.13846942424E+04  0.82093221455E+02 0.  0.
        -13    1    3    3    0    0  0.41204089209E+02 -0.19469164876E+02  0.38274111167E+03  0.38544465739E+03  0.00000000000E+00 0.  1.
         14    1    3    3    0    0 -0.12721881428E+02  0.55030901437E+01  0.99915344311E+03  0.99924958501E+03  0.00000000000E+00 0. -1.
          1    1    1    2  501    0 -0.28482207781E+02  0.13966074732E+02  0.30698949875E+03  0.30862410753E+03  0.00000000000E+00 0. -1.
<mgrwt>
<rscale>  1 0.88009002E+02</rscale>
<asrwt>0</asrwt>
<pdfrwt beam="1">  1       21 0.34110107E-03 0.88009002E+02</pdfrwt>
<pdfrwt beam="2">  1        2 0.26016838E+00 0.88009002E+02</pdfrwt>
<totfact> 0.26748471E+06</totfact>
</mgrwt>
</event>
<event>
 6    2  0.9453093E+000  0.8222495E+02  0.7546771E-02  0.1322853E+00
          2   -1    0    0  502    0 -0.00000000000E+00  0.00000000000E+00  0.85288819013E+03  0.85288819013E+03  0.00000000000E+00 0. -1.
         21   -1    0    0  501  502  0.00000000000E+00 -0.00000000000E+00 -0.97830442590E+01  0.97830442590E+01  0.00000000000E+00 0.  1.
         24    2    1    2    0    0 -0.12250534313E+02  0.18460335537E+02  0.16643253322E+03  0.18563601796E+03  0.79183858642E+02 0.  0.
        -11    1    3    3    0    0 -0.46631508121E+01  0.48299605622E+02  0.12443618004E+03  0.13356256879E+03  0.00000000000E+00 0.  1.
         12    1    3    3    0    0 -0.75873835013E+01 -0.29839270086E+02  0.41996353180E+02  0.52073449166E+02  0.00000000000E+00 0. -1.
          1    1    1    2  501    0  0.12250534313E+02 -0.18460335537E+02  0.67667261265E+03  0.67703521643E+03  0.00000000000E+00 0. -1.
<mgrwt>
<rscale>  1 0.82224954E+02</rscale>
<asrwt>0</asrwt>
<pdfrwt beam="1">  1       21 0.15050844E-02 0.82224954E+02</pdfrwt>
<pdfrwt beam="2">  1        2 0.13121351E+00 0.82224954E+02</pdfrwt>
<totfact> 0.76376323E+05</totfact>
</mgrwt>
</event>
<event>
 6    2  0.9453093E+000  0.8188493E+02  0.7546771E-02  0.1323786E+00
          2   -1    0    0  502    0 -0.00000000000E+00  0.00000000000E+00  0.40560526510E+04  0.40560526510E+04  0.00000000000E+00 0. -1.
         21   -1    0    0  501  502  0.00000000000E+00 -0.00000000000E+00 -0.72270408742E+00  0.72270408742E+00  0.00000000000E+00 0.  1.
         24    2    1    2    0    0 -0.69847151281E+01 -0.22585719525E+02  0.34739734255E+04  0.34749383453E+04  0.78397969168E+02 0.  0.
        -13    1    3    3    0    0  0.14817050711E+01  0.50180926907E+01  0.15788762437E+02  0.16633151339E+02  0.00000000000E+00 0.  1.
         14    1    3    3    0    0 -0.84664201993E+01 -0.27603812215E+02  0.34581846630E+04  0.34583051939E+04  0.00000000000E+00 0. -1.
          1    1    1    2  501    0  0.69847151281E+01  0.22585719525E+02  0.58135652141E+03  0.58183700979E+03  0.00000000000E+00 0. -1.
<mgrwt>
<rscale>  1 0.81884935E+02</rscale>
<asrwt>0</asrwt>
<pdfrwt beam="1">  1       21 0.11118849E-03 0.81884935E+02</pdfrwt>
<pdfrwt beam="2">  1        2 0.62398987E+00 0.81884935E+02</pdfrwt>
<totfact> 0.61607804E+05</totfact>
</mgrwt>
</event>
<event>
 6    2  0.9453093E+000  0.8633991E+02  0.7546771E-02  0.1311965E+00
         21   -1    0    0  501  502  0.00000000000E+00  0.00000000000E+00  0.20043692975E+02  0.20043692975E+02  0.00000000000E+00 0. -1.
          2   -1    0    0  502    0 -0.00000000000E+00 -0.00000000000E+00 -0.17166482827E+03  0.17166482827E+03  0.00000000000E+00 0. -1.
         24    2    1    2    0    0  0.78544400679E+01  0.29446003414E+02 -0.10397351422E+03  0.13514833083E+03  0.80782549606E+02 0.  0.
        -11    1    3    3    0    0 -0.89031543491E+01  0.14313403909E+02  0.95686142584E+01  0.19382932380E+02  0.00000000000E+00 0.  1.
         12    1    3    3    0    0  0.16757594417E+02  0.15132599505E+02 -0.11354212848E+03  0.11576539845E+03  0.00000000000E+00 0. -1.
          1    1    1    2  501    0 -0.78544400679E+01 -0.29446003414E+02 -0.47647621069E+02  0.56560190412E+02  0.00000000000E+00 0. -1.
<mgrwt>
<rscale>  1 0.86339908E+02</rscale>
<asrwt>0</asrwt>
<pdfrwt beam="1">  1       21 0.30836451E-02 0.86339908E+02</pdfrwt>
<pdfrwt beam="2">  1        2 0.26409974E-01 0.86339908E+02</pdfrwt>
<totfact> 0.13855640E+06</totfact>
</mgrwt>
</event>
<event>
 6    2  0.9453093E+000  0.9856924E+02  0.7546771E-02  0.1283334E+00
          4   -1    0    0  502    0 -0.00000000000E+00  0.00000000000E+00  0.33101915356E+02  0.33101915356E+02  0.00000000000E+00 0. -1.
         21   -1    0    0  501  502  0.00000000000E+00 -0.00000000000E+00 -0.19915206761E+03  0.19915206761E+03  0.00000000000E+00 0. -1.
         24    2    1    2    0    0  0.35797289222E+02  0.32370916646E+02 -0.59127220415E+02  0.11494313303E+03  0.85945177156E+02 0.  0.
        -11    1    3    3    0    0  0.38257101077E+02  0.12455730894E+02 -0.77764927931E+02  0.87556467671E+02  0.00000000000E+00 0.  1.
         12    1    3    3    0    0 -0.24598118557E+01  0.19915185753E+02  0.18637707516E+02  0.27386665357E+02  0.00000000000E+00 0. -1.
          3    1    1    2  501    0 -0.35797289222E+02 -0.32370916646E+02 -0.10692293184E+03  0.11731084994E+03  0.00000000000E+00 0. -1.
<mgrwt>
<rscale>  1 0.98569243E+02</rscale>
<asrwt>0</asrwt>
<pdfrwt beam="1">  1       21 0.30638779E-01 0.98569243E+02</pdfrwt>
<pdfrwt beam="2">  1        4 0.50926024E-02 0.98569243E+02</pdfrwt>
<totfact> 0.91876561E+04</totfact>
</mgrwt>
</event>
<event>
 6    2  0.9453093E+000  0.9436911E+02  0.7546771E-02  0.1292603E+00
         21   -1    0    0  501  502  0.00000000000E+00  0.00000000000E+00  0.94049735112E+02  0.94049735112E+02  0.00000000000E+00 0. -1.
          2   -1    0    0  502    0 -0.00000000000E+00 -0.00000000000E+00 -0.96829919952E+02  0.96829919952E+02  0.00000000000E+00 0. -1.
         24    2    1    2    0    0  0.46869329744E+02 -0.23431500638E+02 -0.61142632719E+02  0.11244532192E+03  0.78484135936E+02 0.  0.
        -11    1    3    3    0    0 -0.12944003763E+02  0.15600310339E+02 -0.32990732760E+01  0.20537789574E+02  0.00000000000E+00 0.  1.
         12    1    3    3    0    0  0.59813333507E+02 -0.39031810977E+02 -0.57843559443E+02  0.91907532349E+02  0.00000000000E+00 0. -1.
          1    1    1    2  501    0 -0.46869329744E+02  0.23431500638E+02  0.58362447879E+02  0.78434333141E+02  0.00000000000E+00 0. -1.
<mgrwt>
<rscale>  1 0.94369110E+02</rscale>
<asrwt>0</asrwt>
<pdfrwt beam="1">  1       21 0.14469190E-01 0.94369110E+02</pdfrwt>
<pdfrwt beam="2">  1        2 0.14896911E-01 0.94369110E+02</pdfrwt>
<totfact> 0.19300352E+05</totfact>
</mgrwt>
</event>
<event>
 6    2  0.9453093E+000  0.8405315E+02  0.7546771E-02  0.1317927E+00
          2   -1    0    0  502    0 -0.00000000000E+00  0.00000000000E+00  0.20469297461E+04  0.20469297461E+04  0.00000000000E+00 0. -1.
         21   -1    0    0  501  502  0.00000000000E+00 -0.00000000000E+00 -0.16291254665E+01  0.16291254665E+01  0.00000000000E+00 0. -1.
         24    2    1    2    0    0  0.21045243868E+02  0.63061154183E+01  0.18698307103E+04  0.18717189473E+04  0.81131147717E+02 0.  0.
        -11    1    3    3    0    0  0.23067888706E+02  0.21971773580E+02  0.27948207592E+03  0.28129187170E+03  0.00000000000E+00 0.  1.
         12    1    3    3    0    0 -0.20226448377E+01 -0.15665658161E+02  0.15903486344E+04  0.15904270756E+04  0.00000000000E+00 0. -1.
          1    1    1    2  501    0 -0.21045243868E+02 -0.63061154183E+01  0.17546991032E+03  0.17683992425E+03  0.00000000000E+00 0. -1.
<mgrwt>
<rscale>  1 0.84053153E+02</rscale>
<asrwt>0</asrwt>
<pdfrwt beam="1">  1       21 0.25063633E-03 0.84053153E+02</pdfrwt>
<pdfrwt beam="2">  1        2 0.31491021E+00 0.84053153E+02</pdfrwt>
<totfact> 0.28167936E+06</totfact>
</mgrwt>
</event>
<event>
 6    2  0.9453093E+000  0.9834836E+02  0.7546771E-02  0.1283808E+00
          2   -1    0    0  502    0 -0.00000000000E+00  0.00000000000E+00  0.51571659831E+03  0.51571659831E+03  0.00000000000E+00 0. -1.
         21   -1    0    0  501  502  0.00000000000E+00 -0.00000000000E+00 -0.13117733932E+02  0.13117733932E+02  0.00000000000E+00 0. -1.
         24    2    1    2    0    0  0.22933783417E+02  0.53175581510E+02  0.39008682030E+03  0.40229358405E+03  0.79490876861E+02 0.  0.
        -13    1    3    3    0    0  0.51162510715E+02  0.26695704306E+02  0.19303047229E+03  0.20147214786E+03  0.00000000000E+00 0.  1.
         14    1    3    3    0    0 -0.28228727298E+02  0.26479877204E+02  0.19705634801E+03  0.20082143619E+03  0.00000000000E+00 0. -1.
          1    1    1    2  501    0 -0.22933783417E+02 -0.53175581510E+02  0.11251204408E+03  0.12654074820E+03  0.00000000000E+00 0. -1.
<mgrwt>
<rscale>  1 0.98348362E+02</rscale>
<asrwt>0</asrwt>
<pdfrwt beam="1">  1       21 0.20181133E-02 0.98348362E+02</pdfrwt>
<pdfrwt beam="2">  1        2 0.79341000E-01 0.98348362E+02</pdfrwt>
<totfact> 0.86900298E+05</totfact>
</mgrwt>
</event>
<event>
 6    2  0.9453093E+000  0.1005207E+03  0.7546771E-02  0.1279205E+00
         -3   -1    0    0    0  501 -0.00000000000E+00  0.00000000000E+00  0.24711738125E+03  0.24711738125E+03  0.00000000000E+00 0.  1.
         21   -1    0    0  501  502  0.00000000000E+00 -0.00000000000E+00 -0.28678187990E+02  0.28678187990E+02  0.00000000000E+00 0. -1.
         24    2    1    2    0    0 -0.45298358702E+02  0.42112629746E+02  0.16891152440E+03  0.19655918323E+03  0.79240106964E+02 0.  0.
        -13    1    3    3    0    0 -0.43961192966E+02  0.44118589797E+01  0.14573265744E+03  0.15228282383E+03  0.00000000000E+00 0.  1.
         14    1    3    3    0    0 -0.13371657360E+01  0.37700770766E+02  0.23178866951E+02  0.44276359400E+02  0.00000000000E+00 0. -1.
         -4    1    1    2    0  502  0.45298358702E+02 -0.42112629746E+02  0.49527668864E+02  0.79236386012E+02  0.00000000000E+00 0.  1.
<mgrwt>
<rscale>  1 0.10052069E+03</rscale>
<asrwt>0</asrwt>
<pdfrwt beam="1">  1       21 0.44120291E-02 0.10052069E+03</pdfrwt>
<pdfrwt beam="2">  1       -3 0.38018057E-01 0.10052069E+03</pdfrwt>
<totfact> 0.10431764E+05</totfact>
</mgrwt>
</event>
<event>
 6    2  0.9453093E+000  0.1034048E+03  0.7546771E-02  0.1273295E+00
         21   -1    0    0  501  502  0.00000000000E+00  0.00000000000E+00  0.56898396497E+02  0.56898396497E+02  0.00000000000E+00 0. -1.
          2   -1    0    0  502    0 -0.00000000000E+00 -0.00000000000E+00 -0.19594462838E+03  0.19594462838E+03  0.00000000000E+00 0. -1.
         24    2    1    2    0    0 -0.36991901205E+02 -0.53521900349E+02 -0.15455710892E+03  0.18595818446E+03  0.80371337406E+02 0.  0.
        -13    1    3    3    0    0 -0.53835108267E+02 -0.63007459444E+02 -0.11307443679E+03  0.14019267842E+03  0.00000000000E+00 0.  1.
         14    1    3    3    0    0  0.16843207062E+02  0.94855590944E+01 -0.41482672130E+02  0.45765506034E+02  0.00000000000E+00 0. -1.
          1    1    1    2  501    0  0.36991901205E+02  0.53521900349E+02  0.15510877038E+02  0.66884840422E+02  0.00000000000E+00 0. -1.
<mgrwt>
<rscale>  1 0.10340477E+03</rscale>
<asrwt>0</asrwt>
<pdfrwt beam="1">  1       21 0.87535993E-02 0.10340477E+03</pdfrwt>
<pdfrwt beam="2">  1        2 0.30145328E-01 0.10340477E+03</pdfrwt>
<totfact> 0.21354408E+05</totfact>
</mgrwt>
</event>
<event>
 6    2  0.9453093E+000  0.8176714E+02  0.7546771E-02  0.1324110E+00
         21   -1    0    0  501  502  0.00000000000E+00  0.00000000000E+00  0.17327135223E+03  0.17327135223E+03  0.00000000000E+00 0. -1.
         -3   -1    0    0    0  501 -0.00000000000E+00 -0.00000000000E+00 -0.16050391045E+02  0.16050391045E+02  0.00000000000E+00 0.  1.
         24    2    1    2    0    0 -0.21934361472E+02  0.46114257399E+01  0.11010194744E+03  0.13714336732E+03  0.78635125170E+02 0.  0.
        -11    1    3    3    0    0  0.16919688862E+02 -0.94750462541E+01 -0.15752591667E+00  0.19392709639E+02  0.00000000000E+00 0.  1.
         12    1    3    3    0    0 -0.38854050334E+02  0.14086471994E+02  0.11025947335E+03  0.11775065768E+03  0.00000000000E+00 0. -1.
         -4    1    1    2    0  502  0.21934361472E+02 -0.46114257399E+01  0.47119013753E+02  0.52178375958E+02  0.00000000000E+00 0.  1.
<mgrwt>
<rscale>  1 0.81767135E+02</rscale>
<asrwt>0</asrwt>
<pdfrwt beam="1">  1       21 0.26657130E-01 0.81767135E+02</pdfrwt>
<pdfrwt beam="2">  1       -3 0.24692911E-02 0.81767135E+02</pdfrwt>
<totfact> 0.40253597E+05</totfact>
</mgrwt>
</event>
<event>
 6    2  0.9453093E+000  0.8310929E+02  0.7546771E-02  0.1320452E+00
         21   -1    0    0  501  502  0.00000000000E+00  0.00000000000E+00  0.14512349805E+01  0.14512349805E+01  0.00000000000E+00 0. -1.
          2   -1    0    0  502    0 -0.00000000000E+00 -0.00000000000E+00 -0.23011843507E+04  0.23011843507E+04  0.00000000000E+00 0. -1.
         24    2    1    2    0    0 -0.11306020348E+01 -0.26869875746E+02 -0.19908260019E+04  0.19925599925E+04  0.78637685672E+02 0.  0.
        -13    1    3    3    0    0  0.36175954214E+01  0.43232963655E+01 -0.99747900950E+01  0.11457500842E+02  0.00000000000E+00 0.  1.
         14    1    3    3    0    0 -0.47481974561E+01 -0.31193172111E+02 -0.19808512118E+04  0.19811024917E+04  0.00000000000E+00 0. -1.
          1    1    1    2  501    0  0.11306020348E+01  0.26869875746E+02 -0.30890711384E+03  0.31007559314E+03  0.00000000000E+00 0. -1.
<mgrwt>
<rscale>  1 0.83109290E+02</rscale>
<asrwt>0</asrwt>
<pdfrwt beam="1">  1       21 0.22326735E-03 0.83109290E+02</pdfrwt>
<pdfrwt beam="2">  1        2 0.35402768E+00 0.83109290E+02</pdfrwt>
<totfact> 0.24898866E+06</totfact>
</mgrwt>
</event>
<event>
 6    2  0.9453093E+000  0.8253495E+02  0.7546771E-02  0.1322008E+00
          2   -1    0    0  502    0 -0.00000000000E+00  0.00000000000E+00  0.10161096006E+02  0.10161096006E+02  0.00000000000E+00 0. -1.
         21   -1    0    0  501  502  0.00000000000E+00 -0.00000000000E+00 -0.30360664785E+03  0.30360664785E+03  0.00000000000E+00 0.  1.
         24    2    1    2    0    0  0.21572726637E+02  0.77674007408E+01 -0.26304882676E+03  0.27569313362E+03  0.79286213285E+02 0.  0.
        -11    1    3    3    0    0  0.48646775158E+02 -0.61302197223E+01 -0.19635293068E+03  0.20238221689E+03  0.00000000000E+00 0.  1.
         12    1    3    3    0    0 -0.27074048521E+02  0.13897620463E+02 -0.66695896081E+02  0.73310916731E+02  0.00000000000E+00 0. -1.
          1    1    1    2  501    0 -0.21572726637E+02 -0.77674007408E+01 -0.30396725093E+02  0.38074610243E+02  0.00000000000E+00 0. -1.
<mgrwt>
<rscale>  1 0.82534954E+02</rscale>
<asrwt>0</asrwt>
<pdfrwt beam="1">  1       21 0.46708709E-01 0.82534954E+02</pdfrwt>
<pdfrwt beam="2">  1        2 0.15632457E-02 0.82534954E+02</pdfrwt>
<totfact> 0.37474179E+05</totfact>
</mgrwt>
</event>
<event>
 6    2  0.9453093E+000  0.8787445E+02  0.7546771E-02  0.1308082E+00
         21   -1    0    0  501  502  0.00000000000E+00  0.00000000000E+00  0.61666896884E+03  0.61666896884E+03  0.00000000000E+00 0. -1.
          4   -1    0    0  502    0 -0.00000000000E+00 -0.00000000000E+00 -0.71812382275E+01  0.71812382275E+01  0.00000000000E+00 0. -1.
         24    2    1    2    0    0  0.27130796605E+02  0.23390645650E+02  0.52147050298E+03  0.52882265955E+03  0.80241618500E+02 0.  0.
        -13    1    3    3    0    0  0.36381325911E+02 -0.48160905771E+01  0.10376136838E+03  0.11006006165E+03  0.00000000000E+00 0.  1.
         14    1    3    3    0    0 -0.92505293065E+01  0.28206736227E+02  0.41770913461E+03  0.41876259789E+03  0.00000000000E+00 0. -1.
          3    1    1    2  501    0 -0.27130796605E+02 -0.23390645650E+02  0.88017227627E+02  0.95027547519E+02  0.00000000000E+00 0. -1.
<mgrwt>
<rscale>  1 0.87874455E+02</rscale>
<asrwt>0</asrwt>
<pdfrwt beam="1">  1       21 0.94872107E-01 0.87874455E+02</pdfrwt>
<pdfrwt beam="2">  1        4 0.11048064E-02 0.87874455E+02</pdfrwt>
<totfact> 0.90929277E+04</totfact>
</mgrwt>
</event>
<event>
 6    2  0.9453093E+000  0.9117280E+02  0.7546771E-02  0.1300036E+00
          2   -1    0    0  502    0 -0.00000000000E+00  0.00000000000E+00  0.13014583668E+04  0.13014583668E+04  0.00000000000E+00 0. -1.
         21   -1    0    0  501  502  0.00000000000E+00 -0.00000000000E+00 -0.30605943049E+02  0.30605943049E+02  0.00000000000E+00 0. -1.
         24    2    1    2    0    0 -0.43919068502E+02 -0.12827421194E+02  0.12817840839E+04  0.12850225358E+04  0.78860970620E+02 0.  0.
        -11    1    3    3    0    0 -0.15082613771E+02  0.32815365131E+02  0.61289177380E+03  0.61395493305E+03  0.00000000000E+00 0.  1.
         12    1    3    3    0    0 -0.28836454732E+02 -0.45642786325E+02  0.66889231006E+03  0.67106760279E+03  0.00000000000E+00 0. -1.
          1    1    1    2  501    0  0.43919068502E+02  0.12827421194E+02 -0.10931660073E+02  0.47041774037E+02  0.00000000000E+00 0. -1.
<mgrwt>
<rscale>  1 0.91172803E+02</rscale>
<asrwt>0</asrwt>
<pdfrwt beam="1">  1       21 0.47086076E-02 0.91172803E+02</pdfrwt>
<pdfrwt beam="2">  1        2 0.20022432E+00 0.91172803E+02</pdfrwt>
<totfact> 0.67259427E+04</totfact>
</mgrwt>
</event>
<event>
 6    2  0.9453093E+000  0.9387101E+02  0.7546771E-02  0.1293739E+00
         21   -1    0    0  501  502  0.00000000000E+00  0.00000000000E+00  0.27572649868E+01  0.27572649868E+01  0.00000000000E+00 0. -1.
          2   -1    0    0  502    0 -0.00000000000E+00 -0.00000000000E+00 -0.23143092346E+04  0.23143092346E+04  0.00000000000E+00 0. -1.
         24    2    1    2    0    0  0.68544176847E+01 -0.51514119137E+02 -0.18889817105E+04  0.18913126841E+04  0.78173390176E+02 0.  0.
        -13    1    3    3    0    0 -0.26673077358E+02 -0.19020554974E+02 -0.32779876378E+03  0.32943172905E+03  0.00000000000E+00 0.  1.
         14    1    3    3    0    0  0.33527495042E+02 -0.32493564163E+02 -0.15611829467E+04  0.15618809550E+04  0.00000000000E+00 0. -1.
          1    1    1    2  501    0 -0.68544176847E+01  0.51514119137E+02 -0.42257025910E+03  0.42575381547E+03  0.00000000000E+00 0. -1.
<mgrwt>
<rscale>  1 0.93871010E+02</rscale>
<asrwt>0</asrwt>
<pdfrwt beam="1">  1       21 0.42419434E-03 0.93871010E+02</pdfrwt>
<pdfrwt beam="2">  1        2 0.35604781E+00 0.93871010E+02</pdfrwt>
<totfact> 0.93400911E+05</totfact>
</mgrwt>
</event>
<event>
 6    2  0.9453093E+000  0.1048605E+03  0.7546771E-02  0.1270395E+00
         21   -1    0    0  501  502  0.00000000000E+00  0.00000000000E+00  0.98885431883E+01  0.98885431883E+01  0.00000000000E+00 0. -1.
          2   -1    0    0  502    0 -0.00000000000E+00 -0.00000000000E+00 -0.75410490621E+03  0.75410490621E+03  0.00000000000E+00 0. -1.
         24    2    1    2    0    0  0.64738371904E+02 -0.86322563830E+01 -0.51955617631E+03  0.53003240106E+03  0.82037510827E+02 0.  0.
        -13    1    3    3    0    0  0.72842350554E+01  0.31910599047E+02 -0.12249280062E+03  0.12679050680E+03  0.00000000000E+00 0.  1.
         14    1    3    3    0    0  0.57454136848E+02 -0.40542855430E+02 -0.39706337569E+03  0.40324189426E+03  0.00000000000E+00 0. -1.
          1    1    1    2  501    0 -0.64738371904E+02  0.86322563830E+01 -0.22466018671E+03  0.23396104834E+03  0.00000000000E+00 0. -1.
<mgrwt>
<rscale>  1 0.10486051E+03</rscale>
<asrwt>0</asrwt>
<pdfrwt beam="1">  1       21 0.15213143E-02 0.10486051E+03</pdfrwt>
<pdfrwt beam="2">  1        2 0.11601614E+00 0.10486051E+03</pdfrwt>
<totfact> 0.88998126E+05</totfact>
</mgrwt>
</event>
<event>
 6    2  0.9453093E+000  0.8368778E+02  0.7546771E-02  0.1318900E+00
         21   -1    0    0  501  502  0.00000000000E+00  0.00000000000E+00  0.15096580014E+02  0.15096580014E+02  0.00000000000E+00 0. -1.
         -3   -1    0    0    0  501 -0.00000000000E+00 -0.00000000000E+00 -0.21587661326E+03  0.21587661326E+03  0.00000000000E+00 0.  1.
         24    2    1    2    0    0  0.77228111670E+01 -0.22284339459E+02 -0.18366526431E+03  0.20183303347E+03  0.80295768816E+02 0.  0.
        -13    1    3    3    0    0  0.38861472512E+02 -0.28901813519E+02 -0.13729929992E+03  0.14559061312E+03  0.00000000000E+00 0.  1.
         14    1    3    3    0    0 -0.31138661345E+02  0.66174740595E+01 -0.46365964387E+02  0.56242420350E+02  0.00000000000E+00 0. -1.
         -4    1    1    2    0  502 -0.77228111670E+01  0.22284339459E+02 -0.17114768939E+02  0.29140159802E+02  0.00000000000E+00 0.  1.
<mgrwt>
<rscale>  1 0.83687777E+02</rscale>
<asrwt>0</asrwt>
<pdfrwt beam="1">  1       21 0.23225510E-02 0.83687777E+02</pdfrwt>
<pdfrwt beam="2">  1       -3 0.33211784E-01 0.83687777E+02</pdfrwt>
<totfact> 0.37215591E+05</totfact>
</mgrwt>
</event>
<event>
 6    2  0.9453093E+000  0.1100819E+03  0.7546771E-02  0.1260418E+00
         21   -1    0    0  501  502  0.00000000000E+00  0.00000000000E+00  0.92712863276E+01  0.92712863276E+01  0.00000000000E+00 0. -1.
          2   -1    0    0  502    0 -0.00000000000E+00 -0.00000000000E+00 -0.23330614127E+04  0.23330614127E+04  0.00000000000E+00 0. -1.
         24    2    1    2    0    0  0.26226654621E+02 -0.70170455904E+02 -0.21532851290E+04  0.21560971374E+04  0.80661569174E+02 0.  0.
        -11    1    3    3    0    0  0.17517882221E+01 -0.59318461741E+02 -0.68440443333E+03  0.68697247181E+03  0.00000000000E+00 0.  1.
         12    1    3    3    0    0  0.24474866399E+02 -0.10851994163E+02 -0.14688806957E+04  0.14691246656E+04  0.00000000000E+00 0. -1.
          1    1    1    2  501    0 -0.26226654621E+02  0.70170455904E+02 -0.17050499738E+03  0.18623556166E+03  0.00000000000E+00 0. -1.
<mgrwt>
<rscale>  1 0.11008187E+03</rscale>
<asrwt>0</asrwt>
<pdfrwt beam="1">  1       21 0.14263495E-02 0.11008187E+03</pdfrwt>
<pdfrwt beam="2">  1        2 0.35893310E+00 0.11008187E+03</pdfrwt>
<totfact> 0.13863230E+05</totfact>
</mgrwt>
</event>
<event>
 6    2  0.9453093E+000  0.9124446E+02  0.7546771E-02  0.1299866E+00
         21   -1    0    0  501  502  0.00000000000E+00  0.00000000000E+00  0.47123891481E+01  0.47123891481E+01  0.00000000000E+00 0.  1.
          2   -1    0    0  502    0 -0.00000000000E+00 -0.00000000000E+00 -0.93850173212E+03  0.93850173212E+03  0.00000000000E+00 0. -1.
         24    2    1    2    0    0  0.38341666351E+02 -0.16545055634E+02 -0.64267303716E+03  0.64911800474E+03  0.81127856788E+02 0.  0.
        -13    1    3    3    0    0  0.43019270924E+02 -0.22774979669E+01 -0.14612238961E+03  0.15234039981E+03  0.00000000000E+00 0.  1.
         14    1    3    3    0    0 -0.46776045728E+01 -0.14267557667E+02 -0.49655064755E+03  0.49677760493E+03  0.00000000000E+00 0. -1.
          1    1    1    2  501    0 -0.38341666351E+02  0.16545055634E+02 -0.29111630582E+03  0.29409611653E+03  0.00000000000E+00 0. -1.
<mgrwt>
<rscale>  1 0.91244460E+02</rscale>
<asrwt>0</asrwt>
<pdfrwt beam="1">  1       21 0.72498337E-03 0.91244460E+02</pdfrwt>
<pdfrwt beam="2">  1        2 0.14438480E+00 0.91244460E+02</pdfrwt>
<totfact> 0.21381683E+06</totfact>
</mgrwt>
</event>
<event>
 6    2  0.9453093E+000  0.8412780E+02  0.7546771E-02  0.1317729E+00
          2   -1    0    0  502    0 -0.00000000000E+00  0.00000000000E+00  0.31897877659E+04  0.31897877659E+04  0.00000000000E+00 0. -1.
         21   -1    0    0  501  502  0.00000000000E+00 -0.00000000000E+00 -0.13434657288E+01  0.13434657288E+01  0.00000000000E+00 0.  1.
         24    2    1    2    0    0 -0.34664175862E+02 -0.46984530549E+01  0.27526291760E+04  0.27539144627E+04  0.76510175289E+02 0.  0.
        -11    1    3    3    0    0 -0.24667922668E+02 -0.34528572959E+02  0.88148634919E+03  0.88250717423E+03  0.00000000000E+00 0.  1.
         12    1    3    3    0    0 -0.99962531934E+01  0.29830119904E+02  0.18711428268E+04  0.18714072885E+04  0.00000000000E+00 0. -1.
          1    1    1    2  501    0  0.34664175862E+02  0.46984530549E+01  0.43581512426E+03  0.43721676898E+03  0.00000000000E+00 0. -1.
<mgrwt>
<rscale>  1 0.84127804E+02</rscale>
<asrwt>0</asrwt>
<pdfrwt beam="1">  1       21 0.20668959E-03 0.84127804E+02</pdfrwt>
<pdfrwt beam="2">  1        2 0.49073052E+00 0.84127804E+02</pdfrwt>
<totfact> 0.91699347E+05</totfact>
</mgrwt>
</event>
<event>
 6    2  0.9453093E+000  0.8276514E+02  0.7546771E-02  0.1321383E+00
          2   -1    0    0  502    0 -0.00000000000E+00  0.00000000000E+00  0.34514156947E+04  0.34514156947E+04  0.00000000000E+00 0. -1.
         21   -1    0    0  501  502  0.00000000000E+00 -0.00000000000E+00 -0.95269445851E+00  0.95269445851E+00  0.00000000000E+00 0.  1.
         24    2    1    2    0    0 -0.16922290776E+02 -0.10856006801E+02  0.32098549785E+04  0.32109218382E+04  0.80286061558E+02 0.  0.
        -11    1    3    3    0    0 -0.30439437801E+02  0.25104088286E+02  0.10801310087E+04  0.10808514101E+04  0.00000000000E+00 0.  1.
         12    1    3    3    0    0  0.13517147025E+02 -0.35960095087E+02  0.21297239697E+04  0.21300704282E+04  0.00000000000E+00 0. -1.
          1    1    1    2  501    0  0.16922290776E+02  0.10856006801E+02  0.24060802176E+03  0.24144655090E+03  0.00000000000E+00 0. -1.
<mgrwt>
<rscale>  1 0.82765141E+02</rscale>
<asrwt>0</asrwt>
<pdfrwt beam="1">  1       21 0.14657114E-03 0.82765141E+02</pdfrwt>
<pdfrwt beam="2">  1        2 0.53097702E+00 0.82765141E+02</pdfrwt>
<totfact> 0.10609296E+06</totfact>
</mgrwt>
</event>
<event>
 6    2  0.9453093E+000  0.9291368E+02  0.7546771E-02  0.1295945E+00
         21   -1    0    0  501  502  0.00000000000E+00  0.00000000000E+00  0.23145007150E+01  0.23145007150E+01  0.00000000000E+00 0.  1.
          2   -1    0    0  502    0 -0.00000000000E+00 -0.00000000000E+00 -0.26363024646E+04  0.26363024646E+04  0.00000000000E+00 0. -1.
         24    2    1    2    0    0 -0.10125414220E+02  0.41420197943E+02 -0.23057138298E+04  0.23075851483E+04  0.82551769258E+02 0.  0.
        -13    1    3    3    0    0 -0.32933345588E+02  0.43538688064E+02 -0.88244460636E+03  0.88413161119E+03  0.00000000000E+00 0.  1.
         14    1    3    3    0    0  0.22807931368E+02 -0.21184901208E+01 -0.14232692235E+04  0.14234535371E+04  0.00000000000E+00 0. -1.
          1    1    1    2  501    0  0.10125414220E+02 -0.41420197943E+02 -0.32827413408E+03  0.33103181708E+03  0.00000000000E+00 0. -1.
<mgrwt>
<rscale>  1 0.92913677E+02</rscale>
<asrwt>0</asrwt>
<pdfrwt beam="1">  1       21 0.35607840E-03 0.92913677E+02</pdfrwt>
<pdfrwt beam="2">  1        2 0.40558344E+00 0.92913677E+02</pdfrwt>
<totfact> 0.82643849E+05</totfact>
</mgrwt>
</event>
<event>
 6    2  0.9453093E+000  0.1014080E+03  0.7546771E-02  0.1277363E+00
          2   -1    0    0  502    0 -0.00000000000E+00  0.00000000000E+00  0.11058693965E+04  0.11058693965E+04  0.00000000000E+00 0. -1.
         21   -1    0    0  501  502  0.00000000000E+00 -0.00000000000E+00 -0.19225954358E+02  0.19225954358E+02  0.00000000000E+00 0. -1.
         24    2    1    2    0    0 -0.23776188814E+02 -0.57713586113E+02  0.10453414693E+04  0.10502487201E+04  0.79921345498E+02 0.  0.
        -11    1    3    3    0    0 -0.70048572250E+01 -0.54291274323E+02  0.31600033498E+03  0.32070675422E+03  0.00000000000E+00 0.  1.
         12    1    3    3    0    0 -0.16771331589E+02 -0.34223117900E+01  0.72934113429E+03  0.72954196586E+03  0.00000000000E+00 0. -1.
          1    1    1    2  501    0  0.23776188814E+02  0.57713586113E+02  0.41301972873E+02  0.74846630784E+02  0.00000000000E+00 0. -1.
<mgrwt>
<rscale>  1 0.10140802E+03</rscale>
<asrwt>0</asrwt>
<pdfrwt beam="1">  1       21 0.29578400E-02 0.10140802E+03</pdfrwt>
<pdfrwt beam="2">  1        2 0.17013370E+00 0.10140802E+03</pdfrwt>
<totfact> 0.18488769E+05</totfact>
</mgrwt>
</event>
<event>
 6    2  0.9453093E+000  0.8663568E+02  0.7546771E-02  0.1311210E+00
         -1   -1    0    0    0  501 -0.00000000000E+00  0.00000000000E+00  0.82039155037E+02  0.82039155037E+02  0.00000000000E+00 0.  1.
         21   -1    0    0  501  502  0.00000000000E+00 -0.00000000000E+00 -0.68840858768E+02  0.68840858768E+02  0.00000000000E+00 0. -1.
         24    2    1    2    0    0 -0.23781259845E+02  0.25130892673E+02  0.50275589450E+02  0.10016674379E+03  0.79426894563E+02 0.  0.
        -13    1    3    3    0    0 -0.88595459871E+01  0.95878057639E+01  0.69848278594E+02  0.71057720179E+02  0.00000000000E+00 0.  1.
         14    1    3    3    0    0 -0.14921713858E+02  0.15543086909E+02 -0.19572689143E+02  0.29109023608E+02  0.00000000000E+00 0. -1.
         -2    1    1    2    0  502  0.23781259845E+02 -0.25130892673E+02 -0.37077293181E+02  0.50713270019E+02  0.00000000000E+00 0.  1.
<mgrwt>
<rscale>  1 0.86635684E+02</rscale>
<asrwt>0</asrwt>
<pdfrwt beam="1">  1       21 0.10590901E-01 0.86635684E+02</pdfrwt>
<pdfrwt beam="2">  1       -1 0.12621408E-01 0.86635684E+02</pdfrwt>
<totfact> 0.26190142E+05</totfact>
</mgrwt>
</event>
<event>
 6    2  0.9453093E+000  0.9673931E+02  0.7546771E-02  0.1287306E+00
         21   -1    0    0  501  502  0.00000000000E+00  0.00000000000E+00  0.51449888728E+02  0.51449888728E+02  0.00000000000E+00 0. -1.
          4   -1    0    0  502    0 -0.00000000000E+00 -0.00000000000E+00 -0.75268922011E+02  0.75268922011E+02  0.00000000000E+00 0. -1.
         24    2    1    2    0    0 -0.20855515401E+02 -0.35042201745E+01 -0.34901973486E+02  0.10284280510E+03  0.94399484777E+02 0.  0.
        -13    1    3    3    0    0  0.11285719386E+02 -0.40122879126E+02  0.19911825704E+01  0.41727421433E+02  0.00000000000E+00 0.  1.
         14    1    3    3    0    0 -0.32141234788E+02  0.36618658952E+02 -0.36893156056E+02  0.61115383668E+02  0.00000000000E+00 0. -1.
          3    1    1    2  501    0  0.20855515401E+02  0.35042201745E+01  0.11082940202E+02  0.23876005638E+02  0.00000000000E+00 0. -1.
<mgrwt>
<rscale>  1 0.96739314E+02</rscale>
<asrwt>0</asrwt>
<pdfrwt beam="1">  1       21 0.79153675E-02 0.96739314E+02</pdfrwt>
<pdfrwt beam="2">  1        4 0.11579834E-01 0.96739314E+02</pdfrwt>
<totfact> 0.27218503E+05</totfact>
</mgrwt>
</event>
<event>
 6    2  0.9453093E+000  0.9315672E+02  0.7546771E-02  0.1295382E+00
         21   -1    0    0  501  502  0.00000000000E+00  0.00000000000E+00  0.22091013552E+02  0.22091013552E+02  0.00000000000E+00 0. -1.
          2   -1    0    0  502    0 -0.00000000000E+00 -0.00000000000E+00 -0.55331749768E+03  0.55331749768E+03  0.00000000000E+00 0. -1.
         24    2    1    2    0    0  0.36305104374E+02 -0.28636084347E+02 -0.51939009466E+03  0.52767816401E+03  0.80870813126E+02 0.  0.
        -11    1    3    3    0    0 -0.19641591668E+02  0.12325270557E+02 -0.10531158424E+03  0.10783429043E+03  0.00000000000E+00 0.  1.
         12    1    3    3    0    0  0.55946696042E+02 -0.40961354904E+02 -0.41407851041E+03  0.41984387358E+03  0.00000000000E+00 0. -1.
          1    1    1    2  501    0 -0.36305104374E+02  0.28636084347E+02 -0.11836389474E+02  0.47730347224E+02  0.00000000000E+00 0. -1.
<mgrwt>
<rscale>  1 0.93156719E+02</rscale>
<asrwt>0</asrwt>
<pdfrwt beam="1">  1       21 0.33986175E-02 0.93156719E+02</pdfrwt>
<pdfrwt beam="2">  1        2 0.85125768E-01 0.93156719E+02</pdfrwt>
<totfact> 0.34456286E+05</totfact>
</mgrwt>
</event>
<event>
 6    2  0.9453093E+000  0.9371331E+02  0.7546771E-02  0.1294101E+00
          2   -1    0    0  502    0 -0.00000000000E+00  0.00000000000E+00  0.16564381779E+04  0.16564381779E+04  0.00000000000E+00 0. -1.
         21   -1    0    0  501  502  0.00000000000E+00 -0.00000000000E+00 -0.16788851349E+02  0.16788851349E+02  0.00000000000E+00 0. -1.
         24    2    1    2    0    0  0.47427417722E+01  0.50863993520E+02  0.16127924294E+04  0.16155127991E+04  0.78565540974E+02 0.  0.
        -11    1    3    3    0    0 -0.14233153185E+02  0.42570738911E+01  0.56919885538E+02  0.58826683549E+02  0.00000000000E+00 0.  1.
         12    1    3    3    0    0  0.18975894958E+02  0.46606919629E+02  0.15558725439E+04  0.15566861156E+04  0.00000000000E+00 0. -1.
          1    1    1    2  501    0 -0.47427417722E+01 -0.50863993520E+02  0.26856897103E+02  0.57714230120E+02  0.00000000000E+00 0. -1.
<mgrwt>
<rscale>  1 0.93713306E+02</rscale>
<asrwt>0</asrwt>
<pdfrwt beam="1">  1       21 0.25829015E-02 0.93713306E+02</pdfrwt>
<pdfrwt beam="2">  1        2 0.25483651E+00 0.93713306E+02</pdfrwt>
<totfact> 0.11811991E+05</totfact>
</mgrwt>
</event>
<event>
 6    2  0.9453093E+000  0.8079192E+02  0.7546771E-02  0.1326819E+00
         21   -1    0    0  501  502  0.00000000000E+00  0.00000000000E+00  0.67267717072E+02  0.67267717072E+02  0.00000000000E+00 0.  1.
          2   -1    0    0  502    0 -0.00000000000E+00 -0.00000000000E+00 -0.54297965556E+02  0.54297965556E+02  0.00000000000E+00 0. -1.
         24    2    1    2    0    0  0.21276201792E+02  0.63555134887E+00 -0.19152491036E+02  0.83031033872E+02  0.77937500504E+02 0.  0.
        -13    1    3    3    0    0 -0.23479702375E+01 -0.70433123568E+00  0.29145394007E+02  0.29248299755E+02  0.00000000000E+00 0.  1.
         14    1    3    3    0    0  0.23624172030E+02  0.13398825846E+01 -0.48297885043E+02  0.53782734117E+02  0.00000000000E+00 0. -1.
          1    1    1    2  501    0 -0.21276201792E+02 -0.63555134887E+00  0.32122242552E+02  0.38534648756E+02  0.00000000000E+00 0. -1.
<mgrwt>
<rscale>  1 0.80791922E+02</rscale>
<asrwt>0</asrwt>
<pdfrwt beam="1">  1       21 0.10348879E-01 0.80791922E+02</pdfrwt>
<pdfrwt beam="2">  1        2 0.83535332E-02 0.80791922E+02</pdfrwt>
<totfact> 0.68485297E+05</totfact>
</mgrwt>
</event>
<event>
 6    2  0.9453093E+000  0.9216757E+02  0.7546771E-02  0.1297686E+00
         21   -1    0    0  501  502  0.00000000000E+00  0.00000000000E+00  0.14507195698E+02  0.14507195698E+02  0.00000000000E+00 0.  1.
          2   -1    0    0  502    0 -0.00000000000E+00 -0.00000000000E+00 -0.54482201673E+03  0.54482201673E+03  0.00000000000E+00 0. -1.
         24    2    1    2    0    0  0.33754243112E+02  0.27571554441E+02 -0.14672761173E+03  0.17327392275E+03  0.81211579970E+02 0.  0.
        -11    1    3    3    0    0  0.18030399706E+02  0.49316134864E+02 -0.48616533132E+02  0.71559372310E+02  0.00000000000E+00 0.  1.
         12    1    3    3    0    0  0.15723843406E+02 -0.21744580423E+02 -0.98111078593E+02  0.10171455044E+03  0.00000000000E+00 0. -1.
          1    1    1    2  501    0 -0.33754243112E+02 -0.27571554441E+02 -0.38358720931E+03  0.38605528968E+03  0.00000000000E+00 0. -1.
<mgrwt>
<rscale>  1 0.92167566E+02</rscale>
<asrwt>0</asrwt>
<pdfrwt beam="1">  1       21 0.22318761E-02 0.92167566E+02</pdfrwt>
<pdfrwt beam="2">  1        2 0.83818777E-01 0.92167566E+02</pdfrwt>
<totfact> 0.69242238E+05</totfact>
</mgrwt>
</event>
<event>
 6    2  0.9453093E+000  0.8363186E+02  0.7546771E-02  0.1319050E+00
         21   -1    0    0  501  502  0.00000000000E+00  0.00000000000E+00  0.17746661470E+02  0.17746661470E+02  0.00000000000E+00 0. -1.
          2   -1    0    0  502    0 -0.00000000000E+00 -0.00000000000E+00 -0.20401857017E+03  0.20401857017E+03  0.00000000000E+00 0. -1.
         24    2    1    2    0    0  0.83001265397E+00 -0.22970925556E+02 -0.17913666278E+03  0.19769732612E+03  0.80411046879E+02 0.  0.
        -11    1    3    3    0    0 -0.43365881038E+01  0.19081020716E+02 -0.75768117500E+01  0.20983312995E+02  0.00000000000E+00 0.  1.
         12    1    3    3    0    0  0.51666007578E+01 -0.42051946272E+02 -0.17155985103E+03  0.17671401312E+03  0.00000000000E+00 0. -1.
          1    1    1    2  501    0 -0.83001265397E+00  0.22970925556E+02 -0.71352459216E+01  0.24067905523E+02  0.00000000000E+00 0. -1.
<mgrwt>
<rscale>  1 0.83631865E+02</rscale>
<asrwt>0</asrwt>
<pdfrwt beam="1">  1       21 0.27302555E-02 0.83631865E+02</pdfrwt>
<pdfrwt beam="2">  1        2 0.31387473E-01 0.83631865E+02</pdfrwt>
<totfact> 0.13974412E+06</totfact>
</mgrwt>
</event>
<event>
 6    2  0.9453093E+000  0.8476096E+02  0.7546771E-02  0.1316059E+00
         21   -1    0    0  501  502  0.00000000000E+00  0.00000000000E+00  0.99553203573E+02  0.99553203573E+02  0.00000000000E+00 0.  1.
         -1   -1    0    0    0  501 -0.00000000000E+00 -0.00000000000E+00 -0.39370910522E+02  0.39370910522E+02  0.00000000000E+00 0.  1.
         24    2    1    2    0    0  0.23524432508E+02 -0.31088716386E+01  0.12518621807E+02  0.85680433117E+02  0.81371719408E+02 0.  0.
        -13    1    3    3    0    0  0.30826514210E+02  0.25272927743E+02 -0.17673264890E+02  0.43604347799E+02  0.00000000000E+00 0.  1.
         14    1    3    3    0    0 -0.73020817026E+01 -0.28381799382E+02  0.30191886697E+02  0.42076085318E+02  0.00000000000E+00 0. -1.
         -2    1    1    2    0  502 -0.23524432508E+02  0.31088716386E+01  0.47663671244E+02  0.53243680979E+02  0.00000000000E+00 0.  1.
<mgrwt>
<rscale>  1 0.84760962E+02</rscale>
<asrwt>0</asrwt>
<pdfrwt beam="1">  1       21 0.15315877E-01 0.84760962E+02</pdfrwt>
<pdfrwt beam="2">  1       -1 0.60570632E-02 0.84760962E+02</pdfrwt>
<totfact> 0.40991651E+05</totfact>
</mgrwt>
</event>
<event>
 6    2  0.9453093E+000  0.7016569E+02  0.7546771E-02  0.1359531E+00
         21   -1    0    0  501  502  0.00000000000E+00  0.00000000000E+00  0.10662381074E+02  0.10662381074E+02  0.00000000000E+00 0.  1.
          2   -1    0    0  502    0 -0.00000000000E+00 -0.00000000000E+00 -0.33905710975E+03  0.33905710975E+03  0.00000000000E+00 0. -1.
         24    2    1    2    0    0  0.21248296443E+02  0.34173266273E+01 -0.31831153002E+03  0.32595314660E+03  0.66783646251E+02 0.  0.
        -11    1    3    3    0    0  0.75019862650E+01  0.32529524824E+02 -0.10371958465E+03  0.10895963484E+03  0.00000000000E+00 0.  1.
         12    1    3    3    0    0  0.13746310178E+02 -0.29112198197E+02 -0.21459194537E+03  0.21699351176E+03  0.00000000000E+00 0. -1.
          1    1    1    2  501    0 -0.21248296443E+02 -0.34173266273E+01 -0.10083198657E+02  0.23766344232E+02  0.00000000000E+00 0. -1.
<mgrwt>
<rscale>  1 0.70165687E+02</rscale>
<asrwt>0</asrwt>
<pdfrwt beam="1">  1       21 0.16403664E-02 0.70165687E+02</pdfrwt>
<pdfrwt beam="2">  1        2 0.52162629E-01 0.70165687E+02</pdfrwt>
<totfact> 0.18145238E+06</totfact>
</mgrwt>
</event>
<event>
 6    2  0.9453093E+000  0.8486296E+02  0.7546771E-02  0.1315791E+00
         -1   -1    0    0    0  501 -0.00000000000E+00  0.00000000000E+00  0.24823295652E+03  0.24823295652E+03  0.00000000000E+00 0.  1.
         21   -1    0    0  501  502  0.00000000000E+00 -0.00000000000E+00 -0.28531624003E+02  0.28531624003E+02  0.00000000000E+00 0.  1.
         24    2    1    2    0    0 -0.34579363437E+01 -0.29865598116E+02  0.22986349723E+03  0.24502846756E+03  0.79358750509E+02 0.  0.
        -11    1    3    3    0    0 -0.28200753111E+02 -0.33359093526E+02  0.20563313203E+03  0.21022154168E+03  0.00000000000E+00 0.  1.
         12    1    3    3    0    0  0.24742816768E+02  0.34934954106E+01  0.24230365200E+02  0.34806925884E+02  0.00000000000E+00 0. -1.
         -2    1    1    2    0  502  0.34579363437E+01  0.29865598116E+02 -0.10162164709E+02  0.31736112965E+02  0.00000000000E+00 0.  1.
<mgrwt>
<rscale>  1 0.84862963E+02</rscale>
<asrwt>0</asrwt>
<pdfrwt beam="1">  1       21 0.43894808E-02 0.84862963E+02</pdfrwt>
<pdfrwt beam="2">  1       -1 0.38189684E-01 0.84862963E+02</pdfrwt>
<totfact> 0.19547578E+05</totfact>
</mgrwt>
</event>
<event>
 6    2  0.9453093E+000  0.8691051E+02  0.7546771E-02  0.1310511E+00
         21   -1    0    0  501  502  0.00000000000E+00  0.00000000000E+00  0.53617562846E+01  0.53617562846E+01  0.00000000000E+00 0. -1.
          2   -1    0    0  502    0 -0.00000000000E+00 -0.00000000000E+00 -0.87718351214E+03  0.87718351214E+03  0.00000000000E+00 0. -1.
         24    2    1    2    0    0  0.19793381390E+02 -0.17286586315E+02 -0.81848068215E+03  0.82308205158E+03  0.82842214902E+02 0.  0.
        -11    1    3    3    0    0  0.43940518823E+02  0.13723118065E+02 -0.36261712431E+03  0.36552738886E+03  0.00000000000E+00 0.  1.
         12    1    3    3    0    0 -0.24147137433E+02 -0.31009704380E+02 -0.45586355783E+03  0.45755466271E+03  0.00000000000E+00 0. -1.
          1    1    1    2  501    0 -0.19793381390E+02  0.17286586315E+02 -0.53341073707E+02  0.59463216844E+02  0.00000000000E+00 0. -1.
<mgrwt>
<rscale>  1 0.86910509E+02</rscale>
<asrwt>0</asrwt>
<pdfrwt beam="1">  1       21 0.82488601E-03 0.86910509E+02</pdfrwt>
<pdfrwt beam="2">  1        2 0.13495124E+00 0.86910509E+02</pdfrwt>
<totfact> 0.18999809E+06</totfact>
</mgrwt>
</event>
<event>
 6    2  0.9453093E+000  0.1244178E+03  0.7546771E-02  0.1235982E+00
         21   -1    0    0  501  502  0.00000000000E+00  0.00000000000E+00  0.11443051536E+02  0.11443051536E+02  0.00000000000E+00 0.  1.
          2   -1    0    0  502    0 -0.00000000000E+00 -0.00000000000E+00 -0.13469704704E+04  0.13469704704E+04  0.00000000000E+00 0. -1.
         24    2    1    2    0    0 -0.34495677919E+02 -0.90411085400E+02 -0.10407168962E+04  0.10481275886E+04  0.78202735048E+02 0.  0.
        -13    1    3    3    0    0 -0.49131532558E+02 -0.83317814777E+02 -0.65861585882E+03  0.66568056547E+03  0.00000000000E+00 0.  1.
         14    1    3    3    0    0  0.14635854639E+02 -0.70932706234E+01 -0.38210103737E+03  0.38244702311E+03  0.00000000000E+00 0. -1.
          1    1    1    2  501    0  0.34495677919E+02  0.90411085400E+02 -0.29481052264E+03  0.31028593332E+03  0.00000000000E+00 0. -1.
<mgrwt>
<rscale>  1 0.12441778E+03</rscale>
<asrwt>0</asrwt>
<pdfrwt beam="1">  1       21 0.17604698E-02 0.12441778E+03</pdfrwt>
<pdfrwt beam="2">  1        2 0.20722618E+00 0.12441778E+03</pdfrwt>
<totfact> 0.31790878E+05</totfact>
</mgrwt>
</event>
<event>
 6    2  0.9453093E+000  0.1027303E+03  0.7546771E-02  0.1274657E+00
          4   -1    0    0  502    0 -0.00000000000E+00  0.00000000000E+00  0.51564029833E+03  0.51564029833E+03  0.00000000000E+00 0. -1.
         21   -1    0    0  501  502  0.00000000000E+00 -0.00000000000E+00 -0.17145430385E+02  0.17145430385E+02  0.00000000000E+00 0. -1.
         24    2    1    2    0    0  0.58765515357E+02 -0.27732427999E+02  0.41192326946E+03  0.42454010514E+03  0.79567880436E+02 0.  0.
        -11    1    3    3    0    0 -0.14803896512E+02  0.62786425263E+01  0.29260232984E+02  0.33387691417E+02  0.00000000000E+00 0.  1.
         12    1    3    3    0    0  0.73569411869E+02 -0.34011070526E+02  0.38266303647E+03  0.39115241373E+03  0.00000000000E+00 0. -1.
          3    1    1    2  501    0 -0.58765515357E+02  0.27732427999E+02  0.86571598492E+02  0.10824562358E+03  0.00000000000E+00 0. -1.
<mgrwt>
<rscale>  1 0.10273033E+03</rscale>
<asrwt>0</asrwt>
<pdfrwt beam="1">  1       21 0.26377589E-02 0.10273033E+03</pdfrwt>
<pdfrwt beam="2">  1        4 0.79329265E-01 0.10273033E+03</pdfrwt>
<totfact> 0.44072968E+04</totfact>
</mgrwt>
</event>
<event>
 6    2  0.9453093E+000  0.8344561E+02  0.7546771E-02  0.1319548E+00
          2   -1    0    0  502    0 -0.00000000000E+00  0.00000000000E+00  0.18806517437E+03  0.18806517437E+03  0.00000000000E+00 0. -1.
         21   -1    0    0  501  502  0.00000000000E+00 -0.00000000000E+00 -0.37724485795E+02  0.37724485795E+02  0.00000000000E+00 0. -1.
         24    2    1    2    0    0  0.24302946925E+02 -0.17059755606E+01  0.17328084104E+03  0.19232633431E+03  0.79809933065E+02 0.  0.
        -13    1    3    3    0    0  0.15086979017E+02 -0.57760504987E+01 -0.24215435901E+01  0.16335347213E+02  0.00000000000E+00 0.  1.
         14    1    3    3    0    0  0.92159679080E+01  0.40700749381E+01  0.17570238463E+03  0.17599098710E+03  0.00000000000E+00 0. -1.
          1    1    1    2  501    0 -0.24302946925E+02  0.17059755606E+01 -0.22940152467E+02  0.33463325852E+02  0.00000000000E+00 0. -1.
<mgrwt>
<rscale>  1 0.83445605E+02</rscale>
<asrwt>0</asrwt>
<pdfrwt beam="1">  1       21 0.58037671E-02 0.83445605E+02</pdfrwt>
<pdfrwt beam="2">  1        2 0.28933103E-01 0.83445605E+02</pdfrwt>
<totfact> 0.44128658E+05</totfact>
</mgrwt>
</event>
<event>
 6    2  0.9453093E+000  0.8774806E+02  0.7546771E-02  0.1308399E+00
         21   -1    0    0  501  502  0.00000000000E+00  0.00000000000E+00  0.36937059052E+01  0.36937059052E+01  0.00000000000E+00 0. -1.
          2   -1    0    0  502    0 -0.00000000000E+00 -0.00000000000E+00 -0.18368183853E+04  0.18368183853E+04  0.00000000000E+00 0. -1.
         24    2    1    2    0    0  0.11879054146E+01 -0.34610348375E+02 -0.17192549286E+04  0.17214927336E+04  0.80625275539E+02 0.  0.
        -13    1    3    3    0    0  0.36189013629E+02  0.86436028910E+00 -0.89587667247E+03  0.89660772030E+03  0.00000000000E+00 0.  1.
         14    1    3    3    0    0 -0.35001108215E+02 -0.35474708664E+02 -0.82337825610E+03  0.82488501329E+03  0.00000000000E+00 0. -1.
          1    1    1    2  501    0 -0.11879054146E+01  0.34610348375E+02 -0.11386975078E+03  0.11901935758E+03  0.00000000000E+00 0. -1.
<mgrwt>
<rscale>  1 0.87748062E+02</rscale>
<asrwt>0</asrwt>
<pdfrwt beam="1">  1       21 0.56826212E-03 0.87748062E+02</pdfrwt>
<pdfrwt beam="2">  1        2 0.28258761E+00 0.87748062E+02</pdfrwt>
<totfact> 0.10371735E+06</totfact>
</mgrwt>
</event>
<event>
 6    2  0.9453093E+000  0.8893446E+02  0.7546771E-02  0.1305453E+00
          2   -1    0    0  502    0 -0.00000000000E+00  0.00000000000E+00  0.76048960690E+02  0.76048960690E+02  0.00000000000E+00 0. -1.
         21   -1    0    0  501  502  0.00000000000E+00 -0.00000000000E+00 -0.52324477852E+02  0.52324477852E+02  0.00000000000E+00 0. -1.
         24    2    1    2    0    0 -0.31002678383E+02  0.71097476780E+01  0.33597245409E+02  0.95068994097E+02  0.83051936526E+02 0.  0.
        -13    1    3    3    0    0  0.65761993886E+01 -0.26384942694E+02 -0.94971579490E+01  0.28802909722E+02  0.00000000000E+00 0.  1.
         14    1    3    3    0    0 -0.37578877771E+02  0.33494690372E+02  0.43094403358E+02  0.66266084375E+02  0.00000000000E+00 0. -1.
          1    1    1    2  501    0  0.31002678383E+02 -0.71097476780E+01 -0.98727625716E+01  0.33304444444E+02  0.00000000000E+00 0. -1.
<mgrwt>
<rscale>  1 0.88934463E+02</rscale>
<asrwt>0</asrwt>
<pdfrwt beam="1">  1       21 0.80499197E-02 0.88934463E+02</pdfrwt>
<pdfrwt beam="2">  1        2 0.11699840E-01 0.88934463E+02</pdfrwt>
<totfact> 0.70886713E+05</totfact>
</mgrwt>
</event>
<event>
 6    2  0.9453093E+000  0.9405496E+02  0.7546771E-02  0.1293319E+00
         21   -1    0    0  501  502  0.00000000000E+00  0.00000000000E+00  0.95356951725E+01  0.95356951725E+01  0.00000000000E+00 0.  1.
          2   -1    0    0  502    0 -0.00000000000E+00 -0.00000000000E+00 -0.42230765932E+03  0.42230765932E+03  0.00000000000E+00 0. -1.
         24    2    1    2    0    0  0.83601458216E+01  0.31558074599E+02 -0.31708572781E+03  0.33074112932E+03  0.88207322440E+02 0.  0.
        -11    1    3    3    0    0 -0.59095733965E+00 -0.24787619468E+02 -0.34690604927E+02  0.42640513360E+02  0.00000000000E+00 0.  1.
         12    1    3    3    0    0  0.89511031613E+01  0.56345694067E+02 -0.28239512288E+03  0.28810061596E+03  0.00000000000E+00 0. -1.
          1    1    1    2  501    0 -0.83601458216E+01 -0.31558074599E+02 -0.95686236344E+02  0.10110222518E+03  0.00000000000E+00 0. -1.
<mgrwt>
<rscale>  1 0.94054962E+02</rscale>
<asrwt>0</asrwt>
<pdfrwt beam="1">  1       21 0.14670297E-02 0.94054962E+02</pdfrwt>
<pdfrwt beam="2">  1        2 0.64970426E-01 0.94054962E+02</pdfrwt>
<totfact> 0.17822707E+06</totfact>
</mgrwt>
</event>
<event>
 6    2  0.9453093E+000  0.8493710E+02  0.7546771E-02  0.1315597E+00
          2   -1    0    0  502    0 -0.00000000000E+00  0.00000000000E+00  0.13363389941E+04  0.13363389941E+04  0.00000000000E+00 0. -1.
         21   -1    0    0  501  502  0.00000000000E+00 -0.00000000000E+00 -0.42080778568E+01  0.42080778568E+01  0.00000000000E+00 0. -1.
         24    2    1    2    0    0 -0.19844300616E+02  0.10523673156E+02  0.12900790083E+04  0.12928720583E+04  0.81913170998E+02 0.  0.
        -11    1    3    3    0    0  0.10207265695E+02 -0.10918392107E+02  0.48649087400E+02  0.50893351865E+02  0.00000000000E+00 0.  1.
         12    1    3    3    0    0 -0.30051566310E+02  0.21442065263E+02  0.12414299209E+04  0.12419787064E+04  0.00000000000E+00 0. -1.
          1    1    1    2  501    0  0.19844300616E+02 -0.10523673156E+02  0.42051908004E+02  0.47675013691E+02  0.00000000000E+00 0. -1.
<mgrwt>
<rscale>  1 0.84937103E+02</rscale>
<asrwt>0</asrwt>
<pdfrwt beam="1">  1       21 0.64739766E-03 0.84937103E+02</pdfrwt>
<pdfrwt beam="2">  1        2 0.20559028E+00 0.84937103E+02</pdfrwt>
<totfact> 0.15194009E+06</totfact>
</mgrwt>
</event>
<event>
 6    2  0.9453093E+000  0.8223006E+02  0.7546771E-02  0.1322839E+00
         21   -1    0    0  501  502  0.00000000000E+00  0.00000000000E+00  0.78715565428E+02  0.78715565428E+02  0.00000000000E+00 0.  1.
          2   -1    0    0  502    0 -0.00000000000E+00 -0.00000000000E+00 -0.36647822607E+02  0.36647822607E+02  0.00000000000E+00 0. -1.
         24    2    1    2    0    0  0.72844895460E+01 -0.21930705450E+02  0.22952808567E+02  0.85373384016E+02  0.78916181153E+02 0.  0.
        -13    1    3    3    0    0  0.30499656483E+02 -0.18098475635E+02  0.42093300833E+02  0.55042073371E+02  0.00000000000E+00 0.  1.
         14    1    3    3    0    0 -0.23215166937E+02 -0.38322298150E+01 -0.19140492267E+02  0.30331310646E+02  0.00000000000E+00 0. -1.
          1    1    1    2  501    0 -0.72844895460E+01  0.21930705450E+02  0.19114934255E+02  0.29990004019E+02  0.00000000000E+00 0. -1.
<mgrwt>
<rscale>  1 0.82230063E+02</rscale>
<asrwt>0</asrwt>
<pdfrwt beam="1">  1       21 0.12110087E-01 0.82230063E+02</pdfrwt>
<pdfrwt beam="2">  1        2 0.56381266E-02 0.82230063E+02</pdfrwt>
<totfact> 0.85413315E+05</totfact>
</mgrwt>
</event>
<event>
 6    2  0.9453093E+000  0.8448806E+02  0.7546771E-02  0.1316777E+00
         21   -1    0    0  501  502  0.00000000000E+00  0.00000000000E+00  0.16408891005E+04  0.16408891005E+04  0.00000000000E+00 0. -1.
         -1   -1    0    0    0  501 -0.00000000000E+00 -0.00000000000E+00 -0.19850461711E+01  0.19850461711E+01  0.00000000000E+00 0.  1.
         24    2    1    2    0    0  0.27240453193E+02  0.52867055175E+01  0.13497475983E+04  0.13523892974E+04  0.79801261155E+02 0.  0.
        -11    1    3    3    0    0  0.25319797056E+02 -0.90077841717E+01  0.14001916054E+03  0.14257488424E+03  0.00000000000E+00 0.  1.
         12    1    3    3    0    0  0.19206561374E+01  0.14294489689E+02  0.12097284377E+04  0.12098144132E+04  0.00000000000E+00 0. -1.
         -2    1    1    2    0  502 -0.27240453193E+02 -0.52867055175E+01  0.28915645612E+03  0.29048484928E+03  0.00000000000E+00 0.  1.
<mgrwt>
<rscale>  1 0.84488063E+02</rscale>
<asrwt>0</asrwt>
<pdfrwt beam="1">  1       21 0.25244339E+00 0.84488063E+02</pdfrwt>
<pdfrwt beam="2">  1       -1 0.30539303E-03 0.84488063E+02</pdfrwt>
<totfact> 0.58274108E+04</totfact>
</mgrwt>
</event>
<event>
 6    2  0.9453093E+000  0.9536352E+02  0.7546771E-02  0.1290359E+00
         21   -1    0    0  501  502  0.00000000000E+00  0.00000000000E+00  0.10378387646E+03  0.10378387646E+03  0.00000000000E+00 0.  1.
         -1   -1    0    0    0  501 -0.00000000000E+00 -0.00000000000E+00 -0.53906107507E+02  0.53906107507E+02  0.00000000000E+00 0.  1.
         24    2    1    2    0    0 -0.38680148686E+02  0.31623600180E+02  0.14473860279E+02  0.96455657484E+02  0.81228044656E+02 0.  0.
        -13    1    3    3    0    0 -0.40836036604E+02  0.37921166253E+02 -0.21603939015E+02  0.59768946088E+02  0.00000000000E+00 0.  1.
         14    1    3    3    0    0  0.21558879181E+01 -0.62975660737E+01  0.36077799294E+02  0.36686711396E+02  0.00000000000E+00 0. -1.
         -2    1    1    2    0  502  0.38680148686E+02 -0.31623600180E+02  0.35403908677E+02  0.61234326487E+02  0.00000000000E+00 0.  1.
<mgrwt>
<rscale>  1 0.95363521E+02</rscale>
<asrwt>0</asrwt>
<pdfrwt beam="1">  1       21 0.15966750E-01 0.95363521E+02</pdfrwt>
<pdfrwt beam="2">  1       -1 0.82932473E-02 0.95363521E+02</pdfrwt>
<totfact> 0.24141061E+05</totfact>
</mgrwt>
</event>
<event>
 6    2  0.9453093E+000  0.8971979E+02  0.7546771E-02  0.1303532E+00
         21   -1    0    0  501  502  0.00000000000E+00  0.00000000000E+00  0.23231225114E+02  0.23231225114E+02  0.00000000000E+00 0. -1.
          2   -1    0    0  502    0 -0.00000000000E+00 -0.00000000000E+00 -0.20593407630E+03  0.20593407630E+03  0.00000000000E+00 0. -1.
         24    2    1    2    0    0 -0.11759474629E+02 -0.36223212207E+02 -0.16353444187E+03  0.18652923380E+03  0.81235675883E+02 0.  0.
        -11    1    3    3    0    0  0.12015448021E+02  0.21854572276E+02 -0.30216352280E+02  0.39179347438E+02  0.00000000000E+00 0.  1.
         12    1    3    3    0    0 -0.23774922650E+02 -0.58077784484E+02 -0.13331808959E+03  0.14734988636E+03  0.00000000000E+00 0. -1.
          1    1    1    2  501    0  0.11759474629E+02  0.36223212207E+02 -0.19168409311E+02  0.42636067615E+02  0.00000000000E+00 0. -1.
<mgrwt>
<rscale>  1 0.89719794E+02</rscale>
<asrwt>0</asrwt>
<pdfrwt beam="1">  1       21 0.35740347E-02 0.89719794E+02</pdfrwt>
<pdfrwt beam="2">  1        2 0.31682165E-01 0.89719794E+02</pdfrwt>
<totfact> 0.89992821E+05</totfact>
</mgrwt>
</event>
<event>
 6    2  0.9453093E+000  0.8870303E+02  0.7546771E-02  0.1306023E+00
         21   -1    0    0  501  502  0.00000000000E+00  0.00000000000E+00  0.14790931958E+02  0.14790931958E+02  0.00000000000E+00 0. -1.
          2   -1    0    0  502    0 -0.00000000000E+00 -0.00000000000E+00 -0.47894322395E+03  0.47894322395E+03  0.00000000000E+00 0. -1.
         24    2    1    2    0    0  0.33367253259E+02 -0.99918398418E+01 -0.44545713101E+03  0.45420290880E+03  0.81578283543E+02 0.  0.
        -11    1    3    3    0    0  0.53728319300E+01  0.31310708670E+02 -0.94034757915E+02  0.99256050176E+02  0.00000000000E+00 0.  1.
         12    1    3    3    0    0  0.27994421329E+02 -0.41302548512E+02 -0.35142237309E+03  0.35494685863E+03  0.00000000000E+00 0. -1.
          1    1    1    2  501    0 -0.33367253259E+02  0.99918398418E+01 -0.18695160983E+02  0.39531247104E+02  0.00000000000E+00 0. -1.
<mgrwt>
<rscale>  1 0.88703026E+02</rscale>
<asrwt>0</asrwt>
<pdfrwt beam="1">  1       21 0.22755279E-02 0.88703026E+02</pdfrwt>
<pdfrwt beam="2">  1        2 0.73683577E-01 0.88703026E+02</pdfrwt>
<totfact> 0.76929558E+05</totfact>
</mgrwt>
</event>
<event>
 6    2  0.9453093E+000  0.8420895E+02  0.7546771E-02  0.1317514E+00
          2   -1    0    0  502    0 -0.00000000000E+00  0.00000000000E+00  0.36248446462E+03  0.36248446462E+03  0.00000000000E+00 0. -1.
         21   -1    0    0  501  502  0.00000000000E+00 -0.00000000000E+00 -0.52565486022E+02  0.52565486022E+02  0.00000000000E+00 0. -1.
         24    2    1    2    0    0  0.25718338693E+02 -0.50550185521E+01  0.35393849036E+03  0.36381808971E+03  0.80026003831E+02 0.  0.
        -13    1    3    3    0    0  0.30169484305E+02 -0.13645593356E+02  0.51508468656E+02  0.61233343405E+02  0.00000000000E+00 0.  1.
         14    1    3    3    0    0 -0.44511456122E+01  0.85905748041E+01  0.30243002170E+03  0.30258474631E+03  0.00000000000E+00 0. -1.
          1    1    1    2  501    0 -0.25718338693E+02  0.50550185521E+01 -0.44019511764E+02  0.51231860923E+02  0.00000000000E+00 0. -1.
<mgrwt>
<rscale>  1 0.84208951E+02</rscale>
<asrwt>0</asrwt>
<pdfrwt beam="1">  1       21 0.80869981E-02 0.84208951E+02</pdfrwt>
<pdfrwt beam="2">  1        2 0.55766839E-01 0.84208951E+02</pdfrwt>
<totfact> 0.12660758E+05</totfact>
</mgrwt>
</event>
<event>
 6    2  0.9453093E+000  0.8834769E+02  0.7546771E-02  0.1306903E+00
          4   -1    0    0  502    0 -0.00000000000E+00  0.00000000000E+00  0.67769347737E+02  0.67769347737E+02  0.00000000000E+00 0. -1.
         21   -1    0    0  501  502  0.00000000000E+00 -0.00000000000E+00 -0.67974314799E+02  0.67974314799E+02  0.00000000000E+00 0.  1.
         24    2    1    2    0    0 -0.20642547575E+02 -0.29603995482E+02 -0.25166394069E+02  0.91862184016E+02  0.80639953762E+02 0.  0.
        -11    1    3    3    0    0  0.13918375478E+02  0.19569654460E+02 -0.20504883499E+02  0.31577567971E+02  0.00000000000E+00 0.  1.
         12    1    3    3    0    0 -0.34560923053E+02 -0.49173649942E+02 -0.46615105702E+01  0.60284616045E+02  0.00000000000E+00 0. -1.
          3    1    1    2  501    0  0.20642547575E+02  0.29603995482E+02  0.24961427007E+02  0.43881478520E+02  0.00000000000E+00 0. -1.
<mgrwt>
<rscale>  1 0.88347685E+02</rscale>
<asrwt>0</asrwt>
<pdfrwt beam="1">  1       21 0.10457587E-01 0.88347685E+02</pdfrwt>
<pdfrwt beam="2">  1        4 0.10426053E-01 0.88347685E+02</pdfrwt>
<totfact> 0.19768685E+05</totfact>
</mgrwt>
</event>
<event>
 6    2  0.9453093E+000  0.8880582E+02  0.7546771E-02  0.1305770E+00
         21   -1    0    0  501  502  0.00000000000E+00  0.00000000000E+00  0.14241867707E+03  0.14241867707E+03  0.00000000000E+00 0.  1.
          4   -1    0    0  502    0 -0.00000000000E+00 -0.00000000000E+00 -0.28592352244E+02  0.28592352244E+02  0.00000000000E+00 0. -1.
         24    2    1    2    0    0 -0.35158682458E+01  0.37097028583E+02  0.67437514171E+02  0.11150915865E+03  0.80609697215E+02 0.  0.
        -13    1    3    3    0    0  0.44856045663E+00  0.60812384815E+02  0.32096547600E+02  0.68764349203E+02  0.00000000000E+00 0.  1.
         14    1    3    3    0    0 -0.39644287025E+01 -0.23715356232E+02  0.35340966570E+02  0.42744809443E+02  0.00000000000E+00 0. -1.
          3    1    1    2  501    0  0.35158682458E+01 -0.37097028583E+02  0.46388810657E+02  0.59501870671E+02  0.00000000000E+00 0. -1.
<mgrwt>
<rscale>  1 0.88805823E+02</rscale>
<asrwt>0</asrwt>
<pdfrwt beam="1">  1       21 0.21910565E-01 0.88805823E+02</pdfrwt>
<pdfrwt beam="2">  1        4 0.43988235E-02 0.88805823E+02</pdfrwt>
<totfact> 0.21428283E+05</totfact>
</mgrwt>
</event>
<event>
 6    2  0.9453093E+000  0.8384067E+02  0.7546771E-02  0.1318492E+00
         21   -1    0    0  501  502  0.00000000000E+00  0.00000000000E+00  0.22736698695E+01  0.22736698695E+01  0.00000000000E+00 0.  1.
          2   -1    0    0  502    0 -0.00000000000E+00 -0.00000000000E+00 -0.13156471275E+04  0.13156471275E+04  0.00000000000E+00 0. -1.
         24    2    1    2    0    0  0.10319856207E+02 -0.20591445131E+02 -0.89661453893E+03  0.90052589639E+03  0.80614834919E+02 0.  0.
        -13    1    3    3    0    0  0.11720357860E+01 -0.45585143919E+02 -0.31294237130E+03  0.31624722412E+03  0.00000000000E+00 0.  1.
         14    1    3    3    0    0  0.91478204208E+01  0.24993698787E+02 -0.58367216763E+03  0.58427867227E+03  0.00000000000E+00 0. -1.
          1    1    1    2  501    0 -0.10319856207E+02  0.20591445131E+02 -0.41675891868E+03  0.41739490096E+03  0.00000000000E+00 0. -1.
<mgrwt>
<rscale>  1 0.83840674E+02</rscale>
<asrwt>0</asrwt>
<pdfrwt beam="1">  1       21 0.34979556E-03 0.83840674E+02</pdfrwt>
<pdfrwt beam="2">  1        2 0.20240714E+00 0.83840674E+02</pdfrwt>
<totfact> 0.39859961E+06</totfact>
</mgrwt>
</event>
<event>
 6    2  0.9453093E+000  0.1107704E+03  0.7546771E-02  0.1259150E+00
          2   -1    0    0  502    0 -0.00000000000E+00  0.00000000000E+00  0.70713422198E+03  0.70713422198E+03  0.00000000000E+00 0. -1.
         21   -1    0    0  501  502  0.00000000000E+00 -0.00000000000E+00 -0.12229995204E+02  0.12229995204E+02  0.00000000000E+00 0.  1.
         24    2    1    2    0    0  0.71361555995E+02  0.22313437830E+02  0.43915211574E+03  0.45290689700E+03  0.81729525921E+02 0.  0.
        -11    1    3    3    0    0 -0.27321480784E+01  0.34401833740E+01 -0.22470649050E+01  0.49344498636E+01  0.00000000000E+00 0.  1.
         12    1    3    3    0    0  0.74093704074E+02  0.18873254456E+02  0.44139918065E+03  0.44797244713E+03  0.00000000000E+00 0. -1.
          1    1    1    2  501    0 -0.71361555995E+02 -0.22313437830E+02  0.25575211103E+03  0.26645732018E+03  0.00000000000E+00 0. -1.
<mgrwt>
<rscale>  1 0.11077038E+03</rscale>
<asrwt>0</asrwt>
<pdfrwt beam="1">  1       21 0.18815383E-02 0.11077038E+03</pdfrwt>
<pdfrwt beam="2">  1        2 0.10878985E+00 0.11077038E+03</pdfrwt>
<totfact> 0.68717178E+05</totfact>
</mgrwt>
</event>
<event>
 6    2  0.9453093E+000  0.8439324E+02  0.7546771E-02  0.1317027E+00
         21   -1    0    0  501  502  0.00000000000E+00  0.00000000000E+00  0.14275969469E+02  0.14275969469E+02  0.00000000000E+00 0. -1.
          4   -1    0    0  502    0 -0.00000000000E+00 -0.00000000000E+00 -0.51346265504E+03  0.51346265504E+03  0.00000000000E+00 0. -1.
         24    2    1    2    0    0  0.25088781864E+02  0.29479118014E+01 -0.49498787226E+03  0.50213067277E+03  0.80523795779E+02 0.  0.
        -13    1    3    3    0    0  0.39415548624E+02  0.12544843714E+02 -0.12350181464E+03  0.13024460372E+03  0.00000000000E+00 0.  1.
         14    1    3    3    0    0 -0.14326766760E+02 -0.95969319126E+01 -0.37148605762E+03  0.37188606905E+03  0.00000000000E+00 0. -1.
          3    1    1    2  501    0 -0.25088781864E+02 -0.29479118014E+01 -0.41988133124E+01  0.25607951746E+02  0.00000000000E+00 0. -1.
<mgrwt>
<rscale>  1 0.84393239E+02</rscale>
<asrwt>0</asrwt>
<pdfrwt beam="1">  1       21 0.21963032E-02 0.84393239E+02</pdfrwt>
<pdfrwt beam="2">  1        4 0.78994246E-01 0.84393239E+02</pdfrwt>
<totfact> 0.57970409E+04</totfact>
</mgrwt>
</event>
<event>
 6    2  0.9453093E+000  0.1068109E+03  0.7546771E-02  0.1266592E+00
          2   -1    0    0  502    0 -0.00000000000E+00  0.00000000000E+00  0.57306035278E+03  0.57306035278E+03  0.00000000000E+00 0. -1.
         21   -1    0    0  501  502  0.00000000000E+00 -0.00000000000E+00 -0.83404625484E+01  0.83404625484E+01  0.00000000000E+00 0.  1.
         24    2    1    2    0    0 -0.18943889295E+02  0.24098744397E+02  0.46312042070E+03  0.47527790247E+03  0.10231783857E+03 0.  0.
        -13    1    3    3    0    0  0.20601196725E+02  0.23655024519E+02  0.42605555821E+02  0.52907493593E+02  0.00000000000E+00 0.  1.
         14    1    3    3    0    0 -0.39545086020E+02  0.44371987833E+00  0.42051486488E+03  0.42237040888E+03  0.00000000000E+00 0. -1.
          1    1    1    2  501    0  0.18943889295E+02 -0.24098744397E+02  0.10159946953E+03  0.10612291285E+03  0.00000000000E+00 0. -1.
<mgrwt>
<rscale>  1 0.10681086E+03</rscale>
<asrwt>0</asrwt>
<pdfrwt beam="1">  1       21 0.12831485E-02 0.10681086E+03</pdfrwt>
<pdfrwt beam="2">  1        2 0.88163101E-01 0.10681086E+03</pdfrwt>
<totfact> 0.16035118E+06</totfact>
</mgrwt>
</event>
<event>
 6    2  0.9453093E+000  0.8708633E+02  0.7546771E-02  0.1310065E+00
         21   -1    0    0  501  502  0.00000000000E+00  0.00000000000E+00  0.21280649189E+02  0.21280649189E+02  0.00000000000E+00 0. -1.
          2   -1    0    0  502    0 -0.00000000000E+00 -0.00000000000E+00 -0.87330399001E+03  0.87330399001E+03  0.00000000000E+00 0. -1.
         24    2    1    2    0    0  0.29098227931E+02  0.11491984504E+02 -0.85827409196E+03  0.86268096439E+03  0.81272731035E+02 0.  0.
        -11    1    3    3    0    0  0.86522443232E+01  0.12801691716E+02 -0.26655717562E+02  0.30810256756E+02  0.00000000000E+00 0.  1.
         12    1    3    3    0    0  0.20445983608E+02 -0.13097072117E+01 -0.83161837440E+03  0.83187070763E+03  0.00000000000E+00 0. -1.
          1    1    1    2  501    0 -0.29098227931E+02 -0.11491984504E+02  0.62507511408E+01  0.31903674810E+02  0.00000000000E+00 0. -1.
<mgrwt>
<rscale>  1 0.87086333E+02</rscale>
<asrwt>0</asrwt>
<pdfrwt beam="1">  1       21 0.32739464E-02 0.87086333E+02</pdfrwt>
<pdfrwt beam="2">  1        2 0.13435445E+00 0.87086333E+02</pdfrwt>
<totfact> 0.21394440E+05</totfact>
</mgrwt>
</event>
<event>
 6    2  0.9453093E+000  0.7734026E+02  0.7546771E-02  0.1336773E+00
          2   -1    0    0  502    0 -0.00000000000E+00  0.00000000000E+00  0.24286948051E+04  0.24286948051E+04  0.00000000000E+00 0. -1.
         21   -1    0    0  501  502  0.00000000000E+00 -0.00000000000E+00 -0.12283409646E+01  0.12283409646E+01  0.00000000000E+00 0.  1.
         24    2    1    2    0    0  0.28150686902E+02  0.47467202409E+01  0.20063767194E+04  0.20078667924E+04  0.71878532591E+02 0.  0.
        -11    1    3    3    0    0  0.31334810805E+02  0.12440385411E+02  0.38622406032E+03  0.38769273700E+03  0.00000000000E+00 0.  1.
         12    1    3    3    0    0 -0.31841239030E+01 -0.76936651697E+01  0.16201526590E+04  0.16201740554E+04  0.00000000000E+00 0. -1.
          1    1    1    2  501    0 -0.28150686902E+02 -0.47467202409E+01  0.42108974473E+03  0.42205635364E+03  0.00000000000E+00 0. -1.
<mgrwt>
<rscale>  1 0.77340261E+02</rscale>
<asrwt>0</asrwt>
<pdfrwt beam="1">  1       21 0.18897748E-03 0.77340261E+02</pdfrwt>
<pdfrwt beam="2">  1        2 0.37364151E+00 0.77340261E+02</pdfrwt>
<totfact> 0.27347333E+06</totfact>
</mgrwt>
</event>
<event>
 6    2  0.9453093E+000  0.8528330E+02  0.7546771E-02  0.1314693E+00
          2   -1    0    0  502    0 -0.00000000000E+00  0.00000000000E+00  0.13334464939E+04  0.13334464939E+04  0.00000000000E+00 0. -1.
         21   -1    0    0  501  502  0.00000000000E+00 -0.00000000000E+00 -0.32347298803E+01  0.32347298803E+01  0.00000000000E+00 0.  1.
         24    2    1    2    0    0 -0.18451717391E+02 -0.14522921890E+02  0.12548788962E+04  0.12577735428E+04  0.81986949228E+02 0.  0.
        -13    1    3    3    0    0 -0.39109977697E+02 -0.30060307445E+01  0.29418498484E+03  0.29678853057E+03  0.00000000000E+00 0.  1.
         14    1    3    3    0    0  0.20658260307E+02 -0.11516891145E+02  0.96069391135E+03  0.96098501227E+03  0.00000000000E+00 0. -1.
          1    1    1    2  501    0  0.18451717391E+02  0.14522921890E+02  0.75332867800E+02  0.78907680905E+02  0.00000000000E+00 0. -1.
<mgrwt>
<rscale>  1 0.85283298E+02</rscale>
<asrwt>0</asrwt>
<pdfrwt beam="1">  1       21 0.49765182E-03 0.85283298E+02</pdfrwt>
<pdfrwt beam="2">  1        2 0.20514518E+00 0.85283298E+02</pdfrwt>
<totfact> 0.22843076E+06</totfact>
</mgrwt>
</event>
<event>
 6    2  0.9453093E+000  0.8609205E+02  0.7546771E-02  0.1312601E+00
         21   -1    0    0  501  502  0.00000000000E+00  0.00000000000E+00  0.35838990665E+01  0.35838990665E+01  0.00000000000E+00 0. -1.
          2   -1    0    0  502    0 -0.00000000000E+00 -0.00000000000E+00 -0.32953794661E+04  0.32953794661E+04  0.00000000000E+00 0. -1.
         24    2    1    2    0    0  0.23914495449E+02  0.25124976877E+01 -0.32468369364E+04  0.32479781300E+04  0.82665745967E+02 0.  0.
        -11    1    3    3    0    0 -0.28192438645E+02  0.15285977201E+02 -0.10721677984E+04  0.10726473152E+04  0.00000000000E+00 0.  1.
         12    1    3    3    0    0  0.52106934095E+02 -0.12773479513E+02 -0.21746691380E+04  0.21753308149E+04  0.00000000000E+00 0. -1.
          1    1    1    2  501    0 -0.23914495449E+02 -0.25124976877E+01 -0.44958630568E+02  0.50985235116E+02  0.00000000000E+00 0. -1.
<mgrwt>
<rscale>  1 0.86092051E+02</rscale>
<asrwt>0</asrwt>
<pdfrwt beam="1">  1       21 0.55136931E-03 0.86092051E+02</pdfrwt>
<pdfrwt beam="2">  1        2 0.50698125E+00 0.86092051E+02</pdfrwt>
<totfact> 0.17926609E+05</totfact>
</mgrwt>
</event>
<event>
 6    2  0.1021650E+001  0.9143281E+02  0.7546771E-02  0.1299419E+00
         -1   -1    0    0    0  501 -0.00000000000E+00  0.00000000000E+00  0.73772039470E+02  0.73772039470E+02  0.00000000000E+00 0.  1.
         21   -1    0    0  501  502  0.00000000000E+00 -0.00000000000E+00 -0.67618046279E+02  0.67618046279E+02  0.00000000000E+00 0. -1.
         24    2    1    2    0    0  0.30644731032E+02  0.31633434716E+02 -0.14789504778E+02  0.92621203876E+02  0.80126052092E+02 0.  0.
        -13    1    3    3    0    0 -0.52423181872E+01 -0.20018541654E+01  0.27308910987E+02  0.27879489582E+02  0.00000000000E+00 0.  1.
         14    1    3    3    0    0  0.35887049219E+02  0.33635288882E+02 -0.42098415765E+02  0.64741714294E+02  0.00000000000E+00 0. -1.
         -2    1    1    2    0  502 -0.30644731032E+02 -0.31633434716E+02  0.20943497969E+02  0.48768881873E+02  0.00000000000E+00 0.  1.
<mgrwt>
<rscale>  1 0.91432806E+02</rscale>
<asrwt>0</asrwt>
<pdfrwt beam="1">  1       21 0.10402776E-01 0.91432806E+02</pdfrwt>
<pdfrwt beam="2">  1       -1 0.11349544E-01 0.91432806E+02</pdfrwt>
<totfact> 0.31934251E+05</totfact>
</mgrwt>
</event>
<event>
 6    2  0.9453093E+000  0.8264300E+02  0.7546771E-02  0.1321714E+00
          2   -1    0    0  502    0 -0.00000000000E+00  0.00000000000E+00  0.21028626846E+02  0.21028626846E+02  0.00000000000E+00 0. -1.
         21   -1    0    0  501  502  0.00000000000E+00 -0.00000000000E+00 -0.15644222718E+03  0.15644222718E+03  0.00000000000E+00 0.  1.
         24    2    1    2    0    0 -0.24692505734E+02  0.11456064942E+02 -0.76685354457E+02  0.11274089089E+03  0.78031427180E+02 0.  0.
        -13    1    3    3    0    0 -0.23897244924E+02  0.43918140757E+02 -0.50013537812E+02  0.70719412943E+02  0.00000000000E+00 0.  1.
         14    1    3    3    0    0 -0.79526080996E+00 -0.32462075815E+02 -0.26671816646E+02  0.42021477951E+02  0.00000000000E+00 0. -1.
          1    1    1    2  501    0  0.24692505734E+02 -0.11456064942E+02 -0.58728245876E+02  0.64729963132E+02  0.00000000000E+00 0. -1.
<mgrwt>
<rscale>  1 0.82642997E+02</rscale>
<asrwt>0</asrwt>
<pdfrwt beam="1">  1       21 0.24068034E-01 0.82642997E+02</pdfrwt>
<pdfrwt beam="2">  1        2 0.32351735E-02 0.82642997E+02</pdfrwt>
<totfact> 0.50991627E+05</totfact>
</mgrwt>
</event>
<event>
 6    2  0.9453093E+000  0.8376119E+02  0.7546771E-02  0.1318704E+00
         21   -1    0    0  501  502  0.00000000000E+00  0.00000000000E+00  0.81431925595E+02  0.81431925595E+02  0.00000000000E+00 0.  1.
         -1   -1    0    0    0  501 -0.00000000000E+00 -0.00000000000E+00 -0.48309334769E+02  0.48309334769E+02  0.00000000000E+00 0.  1.
         24    2    1    2    0    0 -0.16635546658E+02  0.19938178426E+02 -0.46659015739E+01  0.83891041941E+02  0.79634564788E+02 0.  0.
        -11    1    3    3    0    0 -0.37221000064E+02  0.39668106847E+02 -0.87191476593E+01  0.55090698693E+02  0.00000000000E+00 0.  1.
         12    1    3    3    0    0  0.20585453405E+02 -0.19729928421E+02  0.40532460854E+01  0.28800343248E+02  0.00000000000E+00 0. -1.
         -2    1    1    2    0  502  0.16635546658E+02 -0.19938178426E+02  0.37788492399E+02  0.45850218422E+02  0.00000000000E+00 0.  1.
<mgrwt>
<rscale>  1 0.83761186E+02</rscale>
<asrwt>0</asrwt>
<pdfrwt beam="1">  1       21 0.12527989E-01 0.83761186E+02</pdfrwt>
<pdfrwt beam="2">  1       -1 0.74322053E-02 0.83761186E+02</pdfrwt>
<totfact> 0.43190530E+05</totfact>
</mgrwt>
</event>
<event>
 6    2  0.9453093E+000  0.8681094E+02  0.7546771E-02  0.1310764E+00
         21   -1    0    0  501  502  0.00000000000E+00  0.00000000000E+00  0.43223492069E+01  0.43223492069E+01  0.00000000000E+00 0. -1.
          2   -1    0    0  502    0 -0.00000000000E+00 -0.00000000000E+00 -0.12771895315E+04  0.12771895315E+04  0.00000000000E+00 0. -1.
         24    2    1    2    0    0 -0.17112969006E+00  0.29256455873E+02 -0.11978474117E+04  0.12009889928E+04  0.81732304692E+02 0.  0.
        -13    1    3    3    0    0  0.78974732333E+01  0.53452425829E+02 -0.55201516999E+03  0.55465329694E+03  0.00000000000E+00 0.  1.
         14    1    3    3    0    0 -0.80686029233E+01 -0.24195969956E+02 -0.64583224171E+03  0.64633569586E+03  0.00000000000E+00 0. -1.
          1    1    1    2  501    0  0.17112969006E+00 -0.29256455873E+02 -0.75019770560E+02  0.80522887867E+02  0.00000000000E+00 0. -1.
<mgrwt>
<rscale>  1 0.86810939E+02</rscale>
<asrwt>0</asrwt>
<pdfrwt beam="1">  1       21 0.66497707E-03 0.86810939E+02</pdfrwt>
<pdfrwt beam="2">  1        2 0.19649062E+00 0.86810939E+02</pdfrwt>
<totfact> 0.15691143E+06</totfact>
</mgrwt>
</event>
<event>
 6    2  0.9453093E+000  0.8478919E+02  0.7546771E-02  0.1315985E+00
         21   -1    0    0  501  502  0.00000000000E+00  0.00000000000E+00  0.21925919646E+02  0.21925919646E+02  0.00000000000E+00 0. -1.
          2   -1    0    0  502    0 -0.00000000000E+00 -0.00000000000E+00 -0.77417024746E+03  0.77417024746E+03  0.00000000000E+00 0. -1.
         24    2    1    2    0    0 -0.25049449572E+02  0.11272104042E+02 -0.76218297161E+03  0.76688466434E+03  0.80216400634E+02 0.  0.
        -13    1    3    3    0    0 -0.81790659307E+01 -0.30479771019E+02 -0.16397539794E+03  0.16698456422E+03  0.00000000000E+00 0.  1.
         14    1    3    3    0    0 -0.16870383641E+02  0.41751875061E+02 -0.59820757367E+03  0.59990010011E+03  0.00000000000E+00 0. -1.
          1    1    1    2  501    0  0.25049449572E+02 -0.11272104042E+02  0.99386437965E+01  0.29211502767E+02  0.00000000000E+00 0. -1.
<mgrwt>
<rscale>  1 0.84789187E+02</rscale>
<asrwt>0</asrwt>
<pdfrwt beam="1">  1       21 0.33732187E-02 0.84789187E+02</pdfrwt>
<pdfrwt beam="2">  1        2 0.11910310E+00 0.84789187E+02</pdfrwt>
<totfact> 0.23607160E+05</totfact>
</mgrwt>
</event>
<event>
 6    2  0.9453093E+000  0.9101766E+02  0.7546771E-02  0.1300406E+00
         21   -1    0    0  501  502  0.00000000000E+00  0.00000000000E+00  0.34110909748E+03  0.34110909748E+03  0.00000000000E+00 0.  1.
         -3   -1    0    0    0  501 -0.00000000000E+00 -0.00000000000E+00 -0.17379273808E+02  0.17379273808E+02  0.00000000000E+00 0.  1.
         24    2    1    2    0    0  0.25136269616E+02 -0.15542977592E+02  0.11021995594E+03  0.14294283127E+03  0.86085992597E+02 0.  0.
        -13    1    3    3    0    0  0.54115389470E+02 -0.12481385306E+02  0.44895016272E+02  0.71413043925E+02  0.00000000000E+00 0.  1.
         14    1    3    3    0    0 -0.28979119855E+02 -0.30615922857E+01  0.65324939670E+02  0.71529787346E+02  0.00000000000E+00 0. -1.
         -4    1    1    2    0  502 -0.25136269616E+02  0.15542977592E+02  0.21350986773E+03  0.21554554001E+03  0.00000000000E+00 0.  1.
<mgrwt>
<rscale>  1 0.91017659E+02</rscale>
<asrwt>0</asrwt>
<pdfrwt beam="1">  1       21 0.52478318E-01 0.91017659E+02</pdfrwt>
<pdfrwt beam="2">  1       -3 0.26737347E-02 0.91017659E+02</pdfrwt>
<totfact> 0.95909585E+04</totfact>
</mgrwt>
</event>
<event>
 6    2  0.1173157E+001  0.1137877E+03  0.7546771E-02  0.1253712E+00
         -1   -1    0    0    0  501 -0.00000000000E+00  0.00000000000E+00  0.24952186749E+03  0.24952186749E+03  0.00000000000E+00 0.  1.
         21   -1    0    0  501  502  0.00000000000E+00 -0.00000000000E+00 -0.44656145239E+02  0.44656145239E+02  0.00000000000E+00 0.  1.
         24    2    1    2    0    0  0.69162482145E+02 -0.36643199314E+02  0.17831498045E+03  0.21152745386E+03  0.82592121227E+02 0.  0.
        -11    1    3    3    0    0  0.74522032456E+02 -0.33407546365E+02  0.18508774919E+03  0.20230440523E+03  0.00000000000E+00 0.  1.
         12    1    3    3    0    0 -0.53595503112E+01 -0.32356529484E+01 -0.67727687388E+01  0.92230486245E+01  0.00000000000E+00 0. -1.
         -2    1    1    2    0  502 -0.69162482145E+02  0.36643199314E+02  0.26550741802E+02  0.82650558876E+02  0.00000000000E+00 0.  1.
<mgrwt>
<rscale>  1 0.11378766E+03</rscale>
<asrwt>0</asrwt>
<pdfrwt beam="1">  1       21 0.68701763E-02 0.11378766E+03</pdfrwt>
<pdfrwt beam="2">  1       -1 0.38387979E-01 0.11378766E+03</pdfrwt>
<totfact> 0.93275057E+04</totfact>
</mgrwt>
</event>
<event>
 6    2  0.9453093E+000  0.8999875E+02  0.7546771E-02  0.1302855E+00
          2   -1    0    0  502    0 -0.00000000000E+00  0.00000000000E+00  0.61419809890E+03  0.61419809890E+03  0.00000000000E+00 0. -1.
         21   -1    0    0  501  502  0.00000000000E+00 -0.00000000000E+00 -0.80526494282E+01  0.80526494282E+01  0.00000000000E+00 0. -1.
         24    2    1    2    0    0  0.42703986724E+02 -0.21988895534E+02  0.44889341656E+03  0.45782646830E+03  0.76109353127E+02 0.  0.
        -13    1    3    3    0    0  0.21086558685E+02  0.10684086852E+02  0.35929466505E+02  0.43008362354E+02  0.00000000000E+00 0.  1.
         14    1    3    3    0    0  0.21617428039E+02 -0.32672982386E+02  0.41296395005E+03  0.41481810594E+03  0.00000000000E+00 0. -1.
          1    1    1    2  501    0 -0.42703986724E+02  0.21988895534E+02  0.15725203291E+03  0.16442428003E+03  0.00000000000E+00 0. -1.
<mgrwt>
<rscale>  1 0.89998754E+02</rscale>
<asrwt>0</asrwt>
<pdfrwt beam="1">  1       21 0.12388696E-02 0.89998754E+02</pdfrwt>
<pdfrwt beam="2">  1        2 0.94491978E-01 0.89998754E+02</pdfrwt>
<totfact> 0.15418172E+06</totfact>
</mgrwt>
</event>
<event>
 6    2  0.9453093E+000  0.7088466E+02  0.7546771E-02  0.1357110E+00
          2   -1    0    0  502    0 -0.00000000000E+00  0.00000000000E+00  0.19628353551E+04  0.19628353551E+04  0.00000000000E+00 0. -1.
         21   -1    0    0  501  502  0.00000000000E+00 -0.00000000000E+00 -0.11212086929E+01  0.11212086929E+01  0.00000000000E+00 0.  1.
         24    2    1    2    0    0 -0.56048178469E+01  0.19889055360E+02  0.16747263701E+04  0.16762258350E+04  0.67805950440E+02 0.  0.
        -11    1    3    3    0    0 -0.12544976399E+02 -0.10529216235E+01  0.58070039854E+02  0.59418975130E+02  0.00000000000E+00 0.  1.
         12    1    3    3    0    0  0.69401585520E+01  0.20941976984E+02  0.16166563302E+04  0.16168068599E+04  0.00000000000E+00 0. -1.
          1    1    1    2  501    0  0.56048178469E+01 -0.19889055360E+02  0.28698777631E+03  0.28773072873E+03  0.00000000000E+00 0. -1.
<mgrwt>
<rscale>  1 0.70884663E+02</rscale>
<asrwt>0</asrwt>
<pdfrwt beam="1">  1       21 0.17249522E-03 0.70884663E+02</pdfrwt>
<pdfrwt beam="2">  1        2 0.30197192E+00 0.70884663E+02</pdfrwt>
<totfact> 0.53434653E+06</totfact>
</mgrwt>
</event>
<event>
 6    2  0.9453093E+000  0.8348532E+02  0.7546771E-02  0.1319442E+00
         -1   -1    0    0    0  501 -0.00000000000E+00  0.00000000000E+00  0.12716986874E+04  0.12716986874E+04  0.00000000000E+00 0.  1.
         21   -1    0    0  501  502  0.00000000000E+00 -0.00000000000E+00 -0.73727882682E+01  0.73727882682E+01  0.00000000000E+00 0.  1.
         24    2    1    2    0    0  0.14604901797E+02  0.22719255161E+02  0.12397418490E+04  0.12425496571E+04  0.78995762259E+02 0.  0.
        -11    1    3    3    0    0 -0.24439610431E+02 -0.14625709054E+02  0.52251979633E+03  0.52329546480E+03  0.00000000000E+00 0.  1.
         12    1    3    3    0    0  0.39044512227E+02  0.37344964215E+02  0.71722205267E+03  0.71925419228E+03  0.00000000000E+00 0. -1.
         -2    1    1    2    0  502 -0.14604901797E+02 -0.22719255161E+02  0.24584050133E+02  0.36521818582E+02  0.00000000000E+00 0.  1.
<mgrwt>
<rscale>  1 0.83485317E+02</rscale>
<asrwt>0</asrwt>
<pdfrwt beam="1">  1       21 0.11342761E-02 0.83485317E+02</pdfrwt>
<pdfrwt beam="2">  1       -1 0.19564578E+00 0.83485317E+02</pdfrwt>
<totfact> 0.50892899E+04</totfact>
</mgrwt>
</event>
<event>
 6    2  0.9453093E+000  0.1040392E+03  0.7546771E-02  0.1272024E+00
          2   -1    0    0  502    0 -0.00000000000E+00  0.00000000000E+00  0.24466719879E+04  0.24466719879E+04  0.00000000000E+00 0. -1.
         21   -1    0    0  501  502  0.00000000000E+00 -0.00000000000E+00 -0.59222955289E+01  0.59222955289E+01  0.00000000000E+00 0. -1.
         24    2    1    2    0    0 -0.88587870019E+01  0.64818330028E+02  0.22179388734E+04  0.22203776711E+04  0.80896612658E+02 0.  0.
        -11    1    3    3    0    0 -0.29220959870E+02 -0.30554889585E+01  0.41041044879E+03  0.41146073566E+03  0.00000000000E+00 0.  1.
         12    1    3    3    0    0  0.20362172868E+02  0.67873818987E+02  0.18075284246E+04  0.18089169354E+04  0.00000000000E+00 0. -1.
          1    1    1    2  501    0  0.88587870019E+01 -0.64818330028E+02  0.22281081898E+03  0.23221661239E+03  0.00000000000E+00 0. -1.
<mgrwt>
<rscale>  1 0.10403920E+03</rscale>
<asrwt>0</asrwt>
<pdfrwt beam="1">  1       21 0.91112434E-03 0.10403920E+03</pdfrwt>
<pdfrwt beam="2">  1        2 0.37641027E+00 0.10403920E+03</pdfrwt>
<totfact> 0.24517155E+05</totfact>
</mgrwt>
</event>
<event>
 6    2  0.9453093E+000  0.1075413E+03  0.7546771E-02  0.1265192E+00
         21   -1    0    0  501  502  0.00000000000E+00  0.00000000000E+00  0.10466446243E+02  0.10466446243E+02  0.00000000000E+00 0. -1.
          2   -1    0    0  502    0 -0.00000000000E+00 -0.00000000000E+00 -0.10301958463E+04  0.10301958463E+04  0.00000000000E+00 0. -1.
         24    2    1    2    0    0  0.66056331711E+02 -0.28679357475E+02 -0.84288228266E+03  0.84971505523E+03  0.79869820080E+02 0.  0.
        -13    1    3    3    0    0  0.16044256886E+02  0.27291817431E+02 -0.20466057289E+03  0.20709469229E+03  0.00000000000E+00 0.  1.
         14    1    3    3    0    0  0.50012074825E+02 -0.55971174906E+02 -0.63822170977E+03  0.64262036294E+03  0.00000000000E+00 0. -1.
          1    1    1    2  501    0 -0.66056331711E+02  0.28679357475E+02 -0.17684711735E+03  0.19094723727E+03  0.00000000000E+00 0. -1.
<mgrwt>
<rscale>  1 0.10754131E+03</rscale>
<asrwt>0</asrwt>
<pdfrwt beam="1">  1       21 0.16102226E-02 0.10754131E+03</pdfrwt>
<pdfrwt beam="2">  1        2 0.15849166E+00 0.10754131E+03</pdfrwt>
<totfact> 0.54554338E+05</totfact>
</mgrwt>
</event>
<event>
 6    2  0.9453093E+000  0.8193250E+02  0.7546771E-02  0.1323655E+00
         -1   -1    0    0    0  501 -0.00000000000E+00  0.00000000000E+00  0.65054742039E+02  0.65054742039E+02  0.00000000000E+00 0.  1.
         21   -1    0    0  501  502  0.00000000000E+00 -0.00000000000E+00 -0.68793173830E+02  0.68793173830E+02  0.00000000000E+00 0.  1.
         24    2    1    2    0    0 -0.38640862758E+02  0.23694787517E+01  0.24968192575E+02  0.85652470164E+02  0.72209447446E+02 0.  0.
        -11    1    3    3    0    0 -0.58598951781E+02  0.72534182990E+00  0.28745274294E+02  0.65273685853E+02  0.00000000000E+00 0.  1.
         12    1    3    3    0    0  0.19958089023E+02  0.16441369218E+01 -0.37770817193E+01  0.20378784310E+02  0.00000000000E+00 0. -1.
         -2    1    1    2    0  502  0.38640862758E+02 -0.23694787517E+01 -0.28706624366E+02  0.48195445705E+02  0.00000000000E+00 0.  1.
<mgrwt>
<rscale>  1 0.81932503E+02</rscale>
<asrwt>0</asrwt>
<pdfrwt beam="1">  1       21 0.10583565E-01 0.81932503E+02</pdfrwt>
<pdfrwt beam="2">  1       -1 0.10008422E-01 0.81932503E+02</pdfrwt>
<totfact> 0.37076384E+05</totfact>
</mgrwt>
</event>
<event>
 6    2  0.9453093E+000  0.9999057E+02  0.7546771E-02  0.1280316E+00
         21   -1    0    0  501  502  0.00000000000E+00  0.00000000000E+00  0.38773670426E+03  0.38773670426E+03  0.00000000000E+00 0. -1.
         -1   -1    0    0    0  501 -0.00000000000E+00 -0.00000000000E+00 -0.18931341178E+02  0.18931341178E+02  0.00000000000E+00 0.  1.
         24    2    1    2    0    0  0.18394654053E+02  0.58964651432E+02  0.28862760185E+03  0.30545704400E+03  0.78631544319E+02 0.  0.
        -13    1    3    3    0    0  0.30908008935E+02 -0.12932817826E+01  0.48165269700E+02  0.57243958628E+02  0.00000000000E+00 0.  1.
         14    1    3    3    0    0 -0.12513354882E+02  0.60257933214E+02  0.24046233215E+03  0.24821308537E+03  0.00000000000E+00 0. -1.
         -2    1    1    2    0  502 -0.18394654053E+02 -0.58964651432E+02  0.80177761226E+02  0.10121100144E+03  0.00000000000E+00 0.  1.
<mgrwt>
<rscale>  1 0.99990565E+02</rscale>
<asrwt>0</asrwt>
<pdfrwt beam="1">  1       21 0.59651795E-01 0.99990565E+02</pdfrwt>
<pdfrwt beam="2">  1       -1 0.29125143E-02 0.99990565E+02</pdfrwt>
<totfact> 0.88290496E+04</totfact>
</mgrwt>
</event>
<event>
 6    2  0.9453093E+000  0.8395735E+02  0.7546771E-02  0.1318182E+00
         21   -1    0    0  501  502  0.00000000000E+00  0.00000000000E+00  0.46025192308E+01  0.46025192308E+01  0.00000000000E+00 0. -1.
          2   -1    0    0  502    0 -0.00000000000E+00 -0.00000000000E+00 -0.16865108698E+04  0.16865108698E+04  0.00000000000E+00 0. -1.
         24    2    1    2    0    0 -0.18128169629E+02 -0.14800287908E+02 -0.16466875349E+04  0.16488264535E+04  0.80629754302E+02 0.  0.
        -11    1    3    3    0    0 -0.62536279965E+01  0.27500708658E+02 -0.11050578047E+04  0.11054176354E+04  0.00000000000E+00 0.  1.
         12    1    3    3    0    0 -0.11874541632E+02 -0.42300996567E+02 -0.54162973012E+03  0.54340881811E+03  0.00000000000E+00 0. -1.
          1    1    1    2  501    0  0.18128169629E+02  0.14800287908E+02 -0.35220815698E+02  0.42286935509E+02  0.00000000000E+00 0. -1.
<mgrwt>
<rscale>  1 0.83957348E+02</rscale>
<asrwt>0</asrwt>
<pdfrwt beam="1">  1       21 0.70808002E-03 0.83957348E+02</pdfrwt>
<pdfrwt beam="2">  1        2 0.25946316E+00 0.83957348E+02</pdfrwt>
<totfact> 0.87668024E+05</totfact>
</mgrwt>
</event>
<event>
 6    2  0.9453093E+000  0.9236941E+02  0.7546771E-02  0.1297213E+00
         -3   -1    0    0    0  501 -0.00000000000E+00  0.00000000000E+00  0.12949740861E+02  0.12949740861E+02  0.00000000000E+00 0.  1.
         21   -1    0    0  501  502  0.00000000000E+00 -0.00000000000E+00 -0.75855482379E+03  0.75855482379E+03  0.00000000000E+00 0.  1.
         24    2    1    2    0    0  0.21613908953E+02 -0.14633921679E+02 -0.15580995311E+03  0.18113213314E+03  0.88604714576E+02 0.  0.
        -13    1    3    3    0    0 -0.18543639520E+02 -0.13541211292E+02 -0.30319723592E+01  0.23160825251E+02  0.00000000000E+00 0.  1.
         14    1    3    3    0    0  0.40157548473E+02 -0.10927103871E+01 -0.15277798075E+03  0.15797130789E+03  0.00000000000E+00 0. -1.
         -4    1    1    2    0  502 -0.21613908953E+02  0.14633921679E+02 -0.58979512982E+03  0.59037243151E+03  0.00000000000E+00 0.  1.
<mgrwt>
<rscale>  1 0.92369411E+02</rscale>
<asrwt>0</asrwt>
<pdfrwt beam="1">  1       21 0.11670075E+00 0.92369411E+02</pdfrwt>
<pdfrwt beam="2">  1       -3 0.19922677E-02 0.92369411E+02</pdfrwt>
<totfact> 0.25663782E+04</totfact>
</mgrwt>
</event>
<event>
 6    2  0.9453093E+000  0.8775110E+02  0.7546771E-02  0.1308391E+00
         21   -1    0    0  501  502  0.00000000000E+00  0.00000000000E+00  0.30382448369E+02  0.30382448369E+02  0.00000000000E+00 0. -1.
          2   -1    0    0  502    0 -0.00000000000E+00 -0.00000000000E+00 -0.33831950591E+03  0.33831950591E+03  0.00000000000E+00 0. -1.
         24    2    1    2    0    0  0.22794197123E+02 -0.85040077421E+01 -0.32650859660E+03  0.33809483691E+03  0.84311099653E+02 0.  0.
        -13    1    3    3    0    0 -0.31307624324E+02  0.56237245637E+01 -0.11443217982E+03  0.11877086090E+03  0.00000000000E+00 0.  1.
         14    1    3    3    0    0  0.54101821447E+02 -0.14127732306E+02 -0.21207641677E+03  0.21932397602E+03  0.00000000000E+00 0. -1.
          1    1    1    2  501    0 -0.22794197123E+02  0.85040077421E+01  0.18571539061E+02  0.30607117363E+02  0.00000000000E+00 0. -1.
<mgrwt>
<rscale>  1 0.87751097E+02</rscale>
<asrwt>0</asrwt>
<pdfrwt beam="1">  1       21 0.46742228E-02 0.87751097E+02</pdfrwt>
<pdfrwt beam="2">  1        2 0.52049155E-01 0.87751097E+02</pdfrwt>
<totfact> 0.34278336E+05</totfact>
</mgrwt>
</event>
<event>
 6    2  0.9453093E+000  0.1058615E+03  0.7546771E-02  0.1268432E+00
         21   -1    0    0  501  502  0.00000000000E+00  0.00000000000E+00  0.16110063083E+02  0.16110063083E+02  0.00000000000E+00 0.  1.
          2   -1    0    0  502    0 -0.00000000000E+00 -0.00000000000E+00 -0.32828133033E+03  0.32828133033E+03  0.00000000000E+00 0. -1.
         24    2    1    2    0    0 -0.32999174846E+02 -0.14411315556E+02 -0.19592052059E+03  0.22269148522E+03  0.99549061487E+02 0.  0.
        -11    1    3    3    0    0 -0.60106358877E+02 -0.25679917887E+02 -0.17453299291E+03  0.18637059364E+03  0.00000000000E+00 0.  1.
         12    1    3    3    0    0  0.27107184030E+02  0.11268602331E+02 -0.21387527681E+02  0.36320891575E+02  0.00000000000E+00 0. -1.
          1    1    1    2  501    0  0.32999174846E+02  0.14411315556E+02 -0.11625074666E+03  0.12169990820E+03  0.00000000000E+00 0. -1.
<mgrwt>
<rscale>  1 0.10586145E+03</rscale>
<asrwt>0</asrwt>
<pdfrwt beam="1">  1       21 0.24784714E-02 0.10586145E+03</pdfrwt>
<pdfrwt beam="2">  1        2 0.50504816E-01 0.10586145E+03</pdfrwt>
<totfact> 0.10158769E+06</totfact>
</mgrwt>
</event>
<event>
 6    2  0.9453093E+000  0.1216075E+03  0.7546771E-02  0.1240468E+00
          2   -1    0    0  502    0 -0.00000000000E+00  0.00000000000E+00  0.14954614804E+04  0.14954614804E+04  0.00000000000E+00 0. -1.
         21   -1    0    0  501  502  0.00000000000E+00 -0.00000000000E+00 -0.10521374914E+02  0.10521374914E+02  0.00000000000E+00 0. -1.
         24    2    1    2    0    0 -0.75297663008E+02 -0.51642775917E+02  0.12139159602E+04  0.12199919434E+04  0.80322283467E+02 0.  0.
        -13    1    3    3    0    0  0.13245886013E+02 -0.19029164971E+02  0.39037676364E+03  0.39106467522E+03  0.00000000000E+00 0.  1.
         14    1    3    3    0    0 -0.88543549021E+02 -0.32613610946E+02  0.82353919657E+03  0.82892726821E+03  0.00000000000E+00 0. -1.
          1    1    1    2  501    0  0.75297663008E+02  0.51642775917E+02  0.27102414531E+03  0.28599091192E+03  0.00000000000E+00 0. -1.
<mgrwt>
<rscale>  1 0.12160750E+03</rscale>
<asrwt>0</asrwt>
<pdfrwt beam="1">  1       21 0.16186742E-02 0.12160750E+03</pdfrwt>
<pdfrwt beam="2">  1        2 0.23007083E+00 0.12160750E+03</pdfrwt>
<totfact> 0.30378443E+05</totfact>
</mgrwt>
</event>
<event>
 6    2  0.9453093E+000  0.8843806E+02  0.7546771E-02  0.1306679E+00
         21   -1    0    0  501  502  0.00000000000E+00  0.00000000000E+00  0.20789583024E+01  0.20789583024E+01  0.00000000000E+00 0.  1.
          2   -1    0    0  502    0 -0.00000000000E+00 -0.00000000000E+00 -0.20031682884E+04  0.20031682884E+04  0.00000000000E+00 0. -1.
         24    2    1    2    0    0 -0.31333408969E+02 -0.16884830122E+02 -0.16472206956E+04  0.16495930741E+04  0.80959311452E+02 0.  0.
        -11    1    3    3    0    0 -0.42969224800E+02 -0.18243359627E+02 -0.16075787184E+04  0.16082563571E+04  0.00000000000E+00 0.  1.
         12    1    3    3    0    0  0.11635815830E+02  0.13585295057E+01 -0.39641977211E+02  0.41336716967E+02  0.00000000000E+00 0. -1.
          1    1    1    2  501    0  0.31333408969E+02  0.16884830122E+02 -0.35386863449E+03  0.35565417259E+03  0.00000000000E+00 0. -1.
<mgrwt>
<rscale>  1 0.88438058E+02</rscale>
<asrwt>0</asrwt>
<pdfrwt beam="1">  1       21 0.31983903E-03 0.88438058E+02</pdfrwt>
<pdfrwt beam="2">  1        2 0.30818042E+00 0.88438058E+02</pdfrwt>
<totfact> 0.20580554E+06</totfact>
</mgrwt>
</event>
<event>
 6    2  0.9453093E+000  0.8486852E+02  0.7546771E-02  0.1315777E+00
          2   -1    0    0  502    0 -0.00000000000E+00  0.00000000000E+00  0.48575705679E+03  0.48575705679E+03  0.00000000000E+00 0. -1.
         21   -1    0    0  501  502  0.00000000000E+00 -0.00000000000E+00 -0.19958562155E+02  0.19958562155E+02  0.00000000000E+00 0. -1.
         24    2    1    2    0    0  0.41887253981E+02 -0.44767144060E+02  0.42180090620E+03  0.43025419157E+03  0.58685821613E+02 0.  0.
        -11    1    3    3    0    0  0.76328632352E+01  0.14510931513E+02  0.79047062720E+02  0.80729584782E+02  0.00000000000E+00 0.  1.
         12    1    3    3    0    0  0.34254390746E+02 -0.59278075572E+02  0.34275384348E+03  0.34952460679E+03  0.00000000000E+00 0. -1.
          1    1    1    2  501    0 -0.41887253981E+02  0.44767144060E+02  0.43997588435E+02  0.75461427375E+02  0.00000000000E+00 0. -1.
<mgrwt>
<rscale>  1 0.84868515E+02</rscale>
<asrwt>0</asrwt>
<pdfrwt beam="1">  1       21 0.30705484E-02 0.84868515E+02</pdfrwt>
<pdfrwt beam="2">  1        2 0.74731846E-01 0.84868515E+02</pdfrwt>
<totfact> 0.46519475E+05</totfact>
</mgrwt>
</event>
<event>
 6    2  0.9453093E+000  0.1048326E+03  0.7546771E-02  0.1270450E+00
         21   -1    0    0  501  502  0.00000000000E+00  0.00000000000E+00  0.21274030869E+02  0.21274030869E+02  0.00000000000E+00 0. -1.
          2   -1    0    0  502    0 -0.00000000000E+00 -0.00000000000E+00 -0.55842499381E+03  0.55842499381E+03  0.00000000000E+00 0. -1.
         24    2    1    2    0    0  0.25804920051E+02 -0.64106593022E+02 -0.47604783950E+03  0.48745402014E+03  0.78831003364E+02 0.  0.
        -13    1    3    3    0    0 -0.75340976856E+01 -0.61582084105E+02 -0.20034651651E+03  0.20973278806E+03  0.00000000000E+00 0.  1.
         14    1    3    3    0    0  0.33339017737E+02 -0.25245089170E+01 -0.27570132300E+03  0.27772123209E+03  0.00000000000E+00 0. -1.
          1    1    1    2  501    0 -0.25804920051E+02  0.64106593022E+02 -0.61103123435E+02  0.92245004533E+02  0.00000000000E+00 0. -1.
<mgrwt>
<rscale>  1 0.10483261E+03</rscale>
<asrwt>0</asrwt>
<pdfrwt beam="1">  1       21 0.32729277E-02 0.10483261E+03</pdfrwt>
<pdfrwt beam="2">  1        2 0.85911540E-01 0.10483261E+03</pdfrwt>
<totfact> 0.36550941E+05</totfact>
</mgrwt>
</event>
<event>
 6    2  0.9453093E+000  0.8099778E+02  0.7546771E-02  0.1326244E+00
         -1   -1    0    0    0  501 -0.00000000000E+00  0.00000000000E+00  0.20336942887E+02  0.20336942887E+02  0.00000000000E+00 0.  1.
         21   -1    0    0  501  502  0.00000000000E+00 -0.00000000000E+00 -0.14672213985E+03  0.14672213985E+03  0.00000000000E+00 0.  1.
         24    2    1    2    0    0 -0.61940205973E+01 -0.27073598031E+02 -0.10066679580E+03  0.12920697897E+03  0.76087410492E+02 0.  0.
        -13    1    3    3    0    0 -0.28748433233E+02 -0.41765269408E+02 -0.82144367842E+02  0.96532415852E+02  0.00000000000E+00 0.  1.
         14    1    3    3    0    0  0.22554412635E+02  0.14691671378E+02 -0.18522427957E+02  0.32674563113E+02  0.00000000000E+00 0. -1.
         -2    1    1    2    0  502  0.61940205973E+01  0.27073598031E+02 -0.25718401159E+02  0.37852103768E+02  0.00000000000E+00 0.  1.
<mgrwt>
<rscale>  1 0.80997776E+02</rscale>
<asrwt>0</asrwt>
<pdfrwt beam="1">  1       21 0.22572637E-01 0.80997776E+02</pdfrwt>
<pdfrwt beam="2">  1       -1 0.31287604E-02 0.80997776E+02</pdfrwt>
<totfact> 0.52694452E+05</totfact>
</mgrwt>
</event>
<event>
 6    2  0.9453093E+000  0.8783843E+02  0.7546771E-02  0.1308172E+00
         21   -1    0    0  501  502  0.00000000000E+00  0.00000000000E+00  0.31412849111E+01  0.31412849111E+01  0.00000000000E+00 0.  1.
          2   -1    0    0  502    0 -0.00000000000E+00 -0.00000000000E+00 -0.11932861946E+04  0.11932861946E+04  0.00000000000E+00 0. -1.
         24    2    1    2    0    0 -0.30617859197E+01 -0.34188945799E+02 -0.89121505978E+03  0.89553328928E+03  0.80853762333E+02 0.  0.
        -13    1    3    3    0    0 -0.55716036334E+01 -0.51701941864E+02 -0.83459635016E+03  0.83621480569E+03  0.00000000000E+00 0.  1.
         14    1    3    3    0    0  0.25098177137E+01  0.17512996065E+02 -0.56618709622E+02  0.59318483590E+02  0.00000000000E+00 0. -1.
          1    1    1    2  501    0  0.30617859197E+01  0.34188945799E+02 -0.29892984992E+03  0.30089419024E+03  0.00000000000E+00 0. -1.
<mgrwt>
<rscale>  1 0.87838428E+02</rscale>
<asrwt>0</asrwt>
<pdfrwt beam="1">  1       21 0.48327458E-03 0.87838428E+02</pdfrwt>
<pdfrwt beam="2">  1        2 0.18358250E+00 0.87838428E+02</pdfrwt>
<totfact> 0.28451065E+06</totfact>
</mgrwt>
</event>
<event>
 6    2  0.9453093E+000  0.8955742E+02  0.7546771E-02  0.1303927E+00
         21   -1    0    0  501  502  0.00000000000E+00  0.00000000000E+00  0.16440926304E+02  0.16440926304E+02  0.00000000000E+00 0. -1.
          2   -1    0    0  502    0 -0.00000000000E+00 -0.00000000000E+00 -0.23835158330E+03  0.23835158330E+03  0.00000000000E+00 0. -1.
         24    2    1    2    0    0 -0.30354082120E+02  0.18100367553E+02 -0.16684391505E+03  0.18936056270E+03  0.82289349919E+02 0.  0.
        -11    1    3    3    0    0 -0.92070674864E+01  0.27848121833E+01  0.80409713989E+01  0.12537244180E+02  0.00000000000E+00 0.  1.
         12    1    3    3    0    0 -0.21147014634E+02  0.15315555370E+02 -0.17488488645E+03  0.17682331852E+03  0.00000000000E+00 0. -1.
          1    1    1    2  501    0  0.30354082120E+02 -0.18100367553E+02 -0.55066741945E+02  0.65431946902E+02  0.00000000000E+00 0. -1.
<mgrwt>
<rscale>  1 0.89557416E+02</rscale>
<asrwt>0</asrwt>
<pdfrwt beam="1">  1       21 0.25293734E-02 0.89557416E+02</pdfrwt>
<pdfrwt beam="2">  1        2 0.36669472E-01 0.89557416E+02</pdfrwt>
<totfact> 0.13520034E+06</totfact>
</mgrwt>
</event>
<event>
 6    2  0.1436555E+001  0.9536738E+02  0.7546771E-02  0.1290351E+00
         21   -1    0    0  501  502  0.00000000000E+00  0.00000000000E+00  0.89277894601E+01  0.89277894601E+01  0.00000000000E+00 0.  1.
         -1   -1    0    0    0  501 -0.00000000000E+00 -0.00000000000E+00 -0.89468289189E+03  0.89468289189E+03  0.00000000000E+00 0.  1.
         24    2    1    2    0    0 -0.51187687085E+02 -0.47762275561E+01 -0.78224333777E+03  0.78803526406E+03  0.80324007974E+02 0.  0.
        -11    1    3    3    0    0 -0.55331149512E+02 -0.21117314318E+02 -0.74257994501E+03  0.74493788453E+03  0.00000000000E+00 0.  1.
         12    1    3    3    0    0  0.41434624266E+01  0.16341086762E+02 -0.39663392758E+02  0.43097379532E+02  0.00000000000E+00 0. -1.
         -2    1    1    2    0  502  0.51187687085E+02  0.47762275561E+01 -0.10351176466E+03  0.11557541729E+03  0.00000000000E+00 0.  1.
<mgrwt>
<rscale>  1 0.95367384E+02</rscale>
<asrwt>0</asrwt>
<pdfrwt beam="1">  1       21 0.13735059E-02 0.95367384E+02</pdfrwt>
<pdfrwt beam="2">  1       -1 0.13764354E+00 0.95367384E+02</pdfrwt>
<totfact> 0.97633575E+04</totfact>
</mgrwt>
</event>
<event>
 6    2  0.9453093E+000  0.9563263E+02  0.7546771E-02  0.1289758E+00
          2   -1    0    0  502    0 -0.00000000000E+00  0.00000000000E+00  0.14232452926E+04  0.14232452926E+04  0.00000000000E+00 0. -1.
         21   -1    0    0  501  502  0.00000000000E+00 -0.00000000000E+00 -0.40790675608E+01  0.40790675608E+01  0.00000000000E+00 0.  1.
         24    2    1    2    0    0 -0.48376788448E+02  0.14920025154E+02  0.71928808811E+03  0.72561763556E+03  0.81133707633E+02 0.  0.
        -13    1    3    3    0    0 -0.12988570861E+02  0.29278900779E+02  0.96853488947E+02  0.10201252533E+03  0.00000000000E+00 0.  1.
         14    1    3    3    0    0 -0.35388217588E+02 -0.14358875625E+02  0.62243459917E+03  0.62360511022E+03  0.00000000000E+00 0. -1.
          1    1    1    2  501    0  0.48376788448E+02 -0.14920025154E+02  0.69987813693E+03  0.70170672461E+03  0.00000000000E+00 0. -1.
<mgrwt>
<rscale>  1 0.95632627E+02</rscale>
<asrwt>0</asrwt>
<pdfrwt beam="1">  1       21 0.62754999E-03 0.95632627E+02</pdfrwt>
<pdfrwt beam="2">  1        2 0.21896042E+00 0.95632627E+02</pdfrwt>
<totfact> 0.14494820E+06</totfact>
</mgrwt>
</event>
<event>
 6    2  0.9453093E+000  0.1134331E+03  0.7546771E-02  0.1254341E+00
         21   -1    0    0  501  502  0.00000000000E+00  0.00000000000E+00  0.43089272361E+02  0.43089272361E+02  0.00000000000E+00 0. -1.
          2   -1    0    0  502    0 -0.00000000000E+00 -0.00000000000E+00 -0.22312953494E+03  0.22312953494E+03  0.00000000000E+00 0. -1.
         24    2    1    2    0    0  0.65784592363E+02  0.45194004836E+02 -0.12754609187E+03  0.17069002303E+03  0.80603770044E+02 0.  0.
        -11    1    3    3    0    0 -0.10668733578E+02  0.15334607250E+02  0.39468996222E+00  0.18684962827E+02  0.00000000000E+00 0.  1.
         12    1    3    3    0    0  0.76453325942E+02  0.29859397586E+02 -0.12794078183E+03  0.15200506020E+03  0.00000000000E+00 0. -1.
          1    1    1    2  501    0 -0.65784592363E+02 -0.45194004836E+02 -0.52494170707E+02  0.95528784268E+02  0.00000000000E+00 0. -1.
<mgrwt>
<rscale>  1 0.11343315E+03</rscale>
<asrwt>0</asrwt>
<pdfrwt beam="1">  1       21 0.66291188E-02 0.11343315E+03</pdfrwt>
<pdfrwt beam="2">  1        2 0.34327621E-01 0.11343315E+03</pdfrwt>
<totfact> 0.30083168E+05</totfact>
</mgrwt>
</event>
<event>
 6    2  0.9453093E+000  0.8230167E+02  0.7546771E-02  0.1322644E+00
         -1   -1    0    0    0  501 -0.00000000000E+00  0.00000000000E+00  0.17019450444E+03  0.17019450444E+03  0.00000000000E+00 0.  1.
         21   -1    0    0  501  502  0.00000000000E+00 -0.00000000000E+00 -0.16338081762E+02  0.16338081762E+02  0.00000000000E+00 0. -1.
         24    2    1    2    0    0 -0.13259065246E+01  0.23124015336E+02  0.11995934396E+03  0.14547786590E+03  0.78975231247E+02 0.  0.
        -11    1    3    3    0    0 -0.13349182020E+02  0.43432832128E+02  0.11150628460E+03  0.12040873338E+03  0.00000000000E+00 0.  1.
         12    1    3    3    0    0  0.12023275495E+02 -0.20308816792E+02  0.84530593580E+01  0.25069132526E+02  0.00000000000E+00 0. -1.
         -2    1    1    2    0  502  0.13259065246E+01 -0.23124015336E+02  0.33897078717E+02  0.41054720300E+02  0.00000000000E+00 0.  1.
<mgrwt>
<rscale>  1 0.82301672E+02</rscale>
<asrwt>0</asrwt>
<pdfrwt beam="1">  1       21 0.25135512E-02 0.82301672E+02</pdfrwt>
<pdfrwt beam="2">  1       -1 0.26183769E-01 0.82301672E+02</pdfrwt>
<totfact> 0.90816028E+05</totfact>
</mgrwt>
</event>
<event>
 6    2  0.9453093E+000  0.8554401E+02  0.7546771E-02  0.1314016E+00
         -1   -1    0    0    0  501 -0.00000000000E+00  0.00000000000E+00  0.60329431319E+01  0.60329431319E+01  0.00000000000E+00 0.  1.
         21   -1    0    0  501  502  0.00000000000E+00 -0.00000000000E+00 -0.62128198209E+03  0.62128198209E+03  0.00000000000E+00 0.  1.
         24    2    1    2    0    0 -0.66544372262E+01  0.22869772359E+02 -0.32430403804E+03  0.33539661203E+03  0.82161245389E+02 0.  0.
        -11    1    3    3    0    0  0.35477858643E+02  0.24633957282E+02 -0.17505560975E+03  0.18030523235E+03  0.00000000000E+00 0.  1.
         12    1    3    3    0    0 -0.42132295869E+02 -0.17641849227E+01 -0.14924842829E+03  0.15509137968E+03  0.00000000000E+00 0. -1.
         -2    1    1    2    0  502  0.66544372262E+01 -0.22869772359E+02 -0.29094500091E+03  0.29191831320E+03  0.00000000000E+00 0.  1.
<mgrwt>
<rscale>  1 0.85544014E+02</rscale>
<asrwt>0</asrwt>
<pdfrwt beam="1">  1       21 0.95581878E-01 0.85544014E+02</pdfrwt>
<pdfrwt beam="2">  1       -1 0.92814476E-03 0.85544014E+02</pdfrwt>
<totfact> 0.15848781E+05</totfact>
</mgrwt>
</event>
<event>
 6    2  0.9453093E+000  0.9286960E+02  0.7546771E-02  0.1296048E+00
         21   -1    0    0  501  502  0.00000000000E+00  0.00000000000E+00  0.29169679356E+02  0.29169679356E+02  0.00000000000E+00 0. -1.
          2   -1    0    0  502    0 -0.00000000000E+00 -0.00000000000E+00 -0.19255315550E+03  0.19255315550E+03  0.00000000000E+00 0. -1.
         24    2    1    2    0    0  0.10435473764E+02  0.43559886200E+02 -0.64217549967E+02  0.11290995091E+03  0.81353552424E+02 0.  0.
        -11    1    3    3    0    0 -0.10483434247E+02  0.63255590737E+01  0.17116359023E+02  0.21044829233E+02  0.00000000000E+00 0.  1.
         12    1    3    3    0    0  0.20918908011E+02  0.37234327126E+02 -0.81333908990E+02  0.91865121676E+02  0.00000000000E+00 0. -1.
          1    1    1    2  501    0 -0.10435473764E+02 -0.43559886200E+02 -0.99165926176E+02  0.10881288395E+03  0.00000000000E+00 0. -1.
<mgrwt>
<rscale>  1 0.92869604E+02</rscale>
<asrwt>0</asrwt>
<pdfrwt beam="1">  1       21 0.44876431E-02 0.92869604E+02</pdfrwt>
<pdfrwt beam="2">  1        2 0.29623562E-01 0.92869604E+02</pdfrwt>
<totfact> 0.66683844E+05</totfact>
</mgrwt>
</event>
<event>
 6    2  0.9453093E+000  0.8461922E+02  0.7546771E-02  0.1316431E+00
         -1   -1    0    0    0  501 -0.00000000000E+00  0.00000000000E+00  0.16912764934E+03  0.16912764934E+03  0.00000000000E+00 0.  1.
         21   -1    0    0  501  502  0.00000000000E+00 -0.00000000000E+00 -0.17404256873E+02  0.17404256873E+02  0.00000000000E+00 0. -1.
         24    2    1    2    0    0 -0.16449480749E+02  0.17178206054E+02  0.12175920697E+03  0.14827581398E+03  0.81207982064E+02 0.  0.
        -13    1    3    3    0    0  0.32779763246E+02  0.12459255478E+02  0.54030247328E+02  0.64412836856E+02  0.00000000000E+00 0.  1.
         14    1    3    3    0    0 -0.49229243994E+02  0.47189505761E+01  0.67728959642E+02  0.83862977129E+02  0.00000000000E+00 0. -1.
         -2    1    1    2    0  502  0.16449480749E+02 -0.17178206054E+02  0.29964185499E+02  0.38256092231E+02  0.00000000000E+00 0.  1.
<mgrwt>
<rscale>  1 0.84619221E+02</rscale>
<asrwt>0</asrwt>
<pdfrwt beam="1">  1       21 0.26775781E-02 0.84619221E+02</pdfrwt>
<pdfrwt beam="2">  1       -1 0.26019637E-01 0.84619221E+02</pdfrwt>
<totfact> 0.83148420E+05</totfact>
</mgrwt>
</event>
<event>
 6    2  0.9453093E+000  0.8378730E+02  0.7546771E-02  0.1318635E+00
         21   -1    0    0  501  502  0.00000000000E+00  0.00000000000E+00  0.97248222186E+02  0.97248222186E+02  0.00000000000E+00 0. -1.
         -1   -1    0    0    0  501 -0.00000000000E+00 -0.00000000000E+00 -0.41848427687E+02  0.41848427687E+02  0.00000000000E+00 0.  1.
         24    2    1    2    0    0  0.17884724580E+02 -0.17719205369E+02  0.64293489805E+01  0.84033611939E+02  0.79915441531E+02 0.  0.
        -13    1    3    3    0    0 -0.11601933926E+01  0.42214396163E+01 -0.33981725777E+02  0.34262578536E+02  0.00000000000E+00 0.  1.
         14    1    3    3    0    0  0.19044917972E+02 -0.21940644986E+02  0.40411074758E+02  0.49771033403E+02  0.00000000000E+00 0. -1.
         -2    1    1    2    0  502 -0.17884724580E+02  0.17719205369E+02  0.48970445519E+02  0.55063037934E+02  0.00000000000E+00 0.  1.
<mgrwt>
<rscale>  1 0.83787299E+02</rscale>
<asrwt>0</asrwt>
<pdfrwt beam="1">  1       21 0.14961265E-01 0.83787299E+02</pdfrwt>
<pdfrwt beam="2">  1       -1 0.64382197E-02 0.83787299E+02</pdfrwt>
<totfact> 0.39018571E+05</totfact>
</mgrwt>
</event>
<event>
 6    2  0.9453093E+000  0.9479461E+02  0.7546771E-02  0.1291639E+00
         21   -1    0    0  501  502  0.00000000000E+00  0.00000000000E+00  0.33811256154E+01  0.33811256154E+01  0.00000000000E+00 0.  1.
          2   -1    0    0  502    0 -0.00000000000E+00 -0.00000000000E+00 -0.15752660485E+04  0.15752660485E+04  0.00000000000E+00 0. -1.
         24    2    1    2    0    0 -0.38522789588E+02  0.33232030644E+02 -0.10694310535E+04  0.10736241410E+04  0.79985277645E+02 0.  0.
        -13    1    3    3    0    0 -0.37726701761E+02  0.37105967030E+02 -0.33265771292E+03  0.33684018581E+03  0.00000000000E+00 0.  1.
         14    1    3    3    0    0 -0.79608782662E+00 -0.38739363864E+01 -0.73677334059E+03  0.73678395514E+03  0.00000000000E+00 0. -1.
          1    1    1    2  501    0  0.38522789588E+02 -0.33232030644E+02 -0.50245386935E+03  0.50502303314E+03  0.00000000000E+00 0. -1.
<mgrwt>
<rscale>  1 0.94794609E+02</rscale>
<asrwt>0</asrwt>
<pdfrwt beam="1">  1       21 0.52017242E-03 0.94794609E+02</pdfrwt>
<pdfrwt beam="2">  1        2 0.24234898E+00 0.94794609E+02</pdfrwt>
<totfact> 0.16163315E+06</totfact>
</mgrwt>
</event>
<event>
 6    2  0.9453093E+000  0.8334611E+02  0.7546771E-02  0.1319815E+00
          2   -1    0    0  502    0 -0.00000000000E+00  0.00000000000E+00  0.89318058528E+02  0.89318058528E+02  0.00000000000E+00 0. -1.
         21   -1    0    0  501  502  0.00000000000E+00 -0.00000000000E+00 -0.34967933903E+02  0.34967933903E+02  0.00000000000E+00 0.  1.
         24    2    1    2    0    0  0.22234923105E+02 -0.80361168661E+01  0.56274295044E+02  0.10056525442E+03  0.79922482037E+02 0.  0.
        -11    1    3    3    0    0 -0.99742292693E+01 -0.32790835918E+02  0.42157399157E+01  0.34532544545E+02  0.00000000000E+00 0.  1.
         12    1    3    3    0    0  0.32209152375E+02  0.24754719052E+02  0.52058555129E+02  0.66032709880E+02  0.00000000000E+00 0. -1.
          1    1    1    2  501    0 -0.22234923105E+02  0.80361168661E+01 -0.19241704193E+01  0.23720738007E+02  0.00000000000E+00 0. -1.
<mgrwt>
<rscale>  1 0.83346110E+02</rscale>
<asrwt>0</asrwt>
<pdfrwt beam="1">  1       21 0.53796822E-02 0.83346110E+02</pdfrwt>
<pdfrwt beam="2">  1        2 0.13741240E-01 0.83346110E+02</pdfrwt>
<totfact> 0.11491342E+06</totfact>
</mgrwt>
</event>
<event>
 6    2  0.9453093E+000  0.9273879E+02  0.7546771E-02  0.1296352E+00
         21   -1    0    0  501  502  0.00000000000E+00  0.00000000000E+00  0.62299567546E+01  0.62299567546E+01  0.00000000000E+00 0. -1.
          2   -1    0    0  502    0 -0.00000000000E+00 -0.00000000000E+00 -0.11901071208E+04  0.11901071208E+04  0.00000000000E+00 0. -1.
         24    2    1    2    0    0 -0.44151813131E+02  0.43370803735E+01 -0.10717109298E+04  0.10757159477E+04  0.81438873737E+02 0.  0.
        -13    1    3    3    0    0 -0.15215080658E+02  0.42199101871E+02 -0.48215717550E+03  0.48423940852E+03  0.00000000000E+00 0.  1.
         14    1    3    3    0    0 -0.28936732473E+02 -0.37862021498E+02 -0.58955375430E+03  0.59147653915E+03  0.00000000000E+00 0. -1.
          1    1    1    2  501    0  0.44151813131E+02 -0.43370803735E+01 -0.11216623423E+03  0.12062112986E+03  0.00000000000E+00 0. -1.
<mgrwt>
<rscale>  1 0.92738789E+02</rscale>
<asrwt>0</asrwt>
<pdfrwt beam="1">  1       21 0.95845612E-03 0.92738789E+02</pdfrwt>
<pdfrwt beam="2">  1        2 0.18309317E+00 0.92738789E+02</pdfrwt>
<totfact> 0.99594146E+05</totfact>
</mgrwt>
</event>
<event>
 6    2  0.9453093E+000  0.8920214E+02  0.7546771E-02  0.1304795E+00
         21   -1    0    0  501  502  0.00000000000E+00  0.00000000000E+00  0.56978009473E+01  0.56978009473E+01  0.00000000000E+00 0. -1.
          2   -1    0    0  502    0 -0.00000000000E+00 -0.00000000000E+00 -0.19530746080E+04  0.19530746080E+04  0.00000000000E+00 0. -1.
         24    2    1    2    0    0 -0.41016779511E+02  0.13293234186E+02 -0.18514882610E+04  0.18536358333E+04  0.78089279372E+02 0.  0.
        -11    1    3    3    0    0 -0.30157994948E+01 -0.19831148262E+02 -0.14257221542E+03  0.14397640813E+03  0.00000000000E+00 0.  1.
         12    1    3    3    0    0 -0.38000980016E+02  0.33124382448E+02 -0.17089160456E+04  0.17096594252E+04  0.00000000000E+00 0. -1.
          1    1    1    2  501    0  0.41016779511E+02 -0.13293234186E+02 -0.95888546017E+02  0.10513657562E+03  0.00000000000E+00 0. -1.
<mgrwt>
<rscale>  1 0.89202140E+02</rscale>
<asrwt>0</asrwt>
<pdfrwt beam="1">  1       21 0.87658519E-03 0.89202140E+02</pdfrwt>
<pdfrwt beam="2">  1        2 0.30047287E+00 0.89202140E+02</pdfrwt>
<totfact> 0.46438108E+05</totfact>
</mgrwt>
</event>
<event>
 6    2  0.9453093E+000  0.8142602E+02  0.7546771E-02  0.1325053E+00
         21   -1    0    0  501  502  0.00000000000E+00  0.00000000000E+00  0.12593025155E+03  0.12593025155E+03  0.00000000000E+00 0.  1.
          4   -1    0    0  502    0 -0.00000000000E+00 -0.00000000000E+00 -0.27473258219E+02  0.27473258219E+02  0.00000000000E+00 0. -1.
         24    2    1    2    0    0 -0.60115181748E+01 -0.27321886488E+02  0.44911825797E+02  0.92990689952E+02  0.76469421923E+02 0.  0.
        -11    1    3    3    0    0  0.15978227890E+02 -0.34885943723E+02  0.55472884642E+02  0.67450528289E+02  0.00000000000E+00 0.  1.
         12    1    3    3    0    0 -0.21989746065E+02  0.75640572347E+01 -0.10561058845E+02  0.25540161663E+02  0.00000000000E+00 0. -1.
          3    1    1    2  501    0  0.60115181748E+01  0.27321886488E+02  0.53545167538E+02  0.60412819821E+02  0.00000000000E+00 0. -1.
<mgrwt>
<rscale>  1 0.81426017E+02</rscale>
<asrwt>0</asrwt>
<pdfrwt beam="1">  1       21 0.19373885E-01 0.81426017E+02</pdfrwt>
<pdfrwt beam="2">  1        4 0.42266552E-02 0.81426017E+02</pdfrwt>
<totfact> 0.28140316E+05</totfact>
</mgrwt>
</event>
<event>
 6    2  0.9453093E+000  0.9292698E+02  0.7546771E-02  0.1295914E+00
         21   -1    0    0  501  502  0.00000000000E+00  0.00000000000E+00  0.64194553430E+02  0.64194553430E+02  0.00000000000E+00 0. -1.
         -1   -1    0    0    0  501 -0.00000000000E+00 -0.00000000000E+00 -0.76735154592E+02  0.76735154592E+02  0.00000000000E+00 0.  1.
         24    2    1    2    0    0 -0.43472559523E+02 -0.11760826207E+02  0.38440899382E+01  0.93006450965E+02  0.81284945895E+02 0.  0.
        -11    1    3    3    0    0  0.91415942879E+01  0.21416106257E+02 -0.15375492125E+02  0.27903836858E+02  0.00000000000E+00 0.  1.
         12    1    3    3    0    0 -0.52614153811E+02 -0.33176932463E+02  0.19219582063E+02  0.65102614107E+02  0.00000000000E+00 0. -1.
         -2    1    1    2    0  502  0.43472559523E+02  0.11760826207E+02 -0.16384691100E+02  0.47923257057E+02  0.00000000000E+00 0.  1.
<mgrwt>
<rscale>  1 0.92926976E+02</rscale>
<asrwt>0</asrwt>
<pdfrwt beam="1">  1       21 0.98760852E-02 0.92926976E+02</pdfrwt>
<pdfrwt beam="2">  1       -1 0.11805408E-01 0.92926976E+02</pdfrwt>
<totfact> 0.32961654E+05</totfact>
</mgrwt>
</event>
<event>
 6    2  0.9453093E+000  0.9218110E+02  0.7546771E-02  0.1297654E+00
         -1   -1    0    0    0  501 -0.00000000000E+00  0.00000000000E+00  0.56304826633E+02  0.56304826633E+02  0.00000000000E+00 0.  1.
         21   -1    0    0  501  502  0.00000000000E+00 -0.00000000000E+00 -0.86400203520E+02  0.86400203520E+02  0.00000000000E+00 0. -1.
         24    2    1    2    0    0  0.43498823114E+02  0.17882408462E+02 -0.15608035027E+02  0.93493128962E+02  0.79280680250E+02 0.  0.
        -13    1    3    3    0    0 -0.74198902539E+01  0.12763771299E+02  0.24410928167E+02  0.28528267440E+02  0.00000000000E+00 0.  1.
         14    1    3    3    0    0  0.50918713368E+02  0.51186371630E+01 -0.40018963194E+02  0.64964861522E+02  0.00000000000E+00 0. -1.
         -2    1    1    2    0  502 -0.43498823114E+02 -0.17882408462E+02 -0.14487341860E+02  0.49211901191E+02  0.00000000000E+00 0.  1.
<mgrwt>
<rscale>  1 0.92181096E+02</rscale>
<asrwt>0</asrwt>
<pdfrwt beam="1">  1       21 0.13292339E-01 0.92181096E+02</pdfrwt>
<pdfrwt beam="2">  1       -1 0.86622811E-02 0.92181096E+02</pdfrwt>
<totfact> 0.31268901E+05</totfact>
</mgrwt>
</event>
<event>
 6    2  0.9453093E+000  0.8552517E+02  0.7546771E-02  0.1314065E+00
         21   -1    0    0  501  502  0.00000000000E+00  0.00000000000E+00  0.50986000198E+01  0.50986000198E+01  0.00000000000E+00 0.  1.
          2   -1    0    0  502    0 -0.00000000000E+00 -0.00000000000E+00 -0.55495075682E+03  0.55495075682E+03  0.00000000000E+00 0. -1.
         24    2    1    2    0    0 -0.57772405618E+01  0.19703679165E+02 -0.42499007512E+03  0.43351022881E+03  0.83023749921E+02 0.  0.
        -11    1    3    3    0    0 -0.20334331575E+02  0.16030479447E+02 -0.36617355255E+02  0.44847430448E+02  0.00000000000E+00 0.  1.
         12    1    3    3    0    0  0.14557091013E+02  0.36731997174E+01 -0.38837271987E+03  0.38866279836E+03  0.00000000000E+00 0. -1.
          1    1    1    2  501    0  0.57772405618E+01 -0.19703679165E+02 -0.12486208168E+03  0.12653912803E+03  0.00000000000E+00 0. -1.
<mgrwt>
<rscale>  1 0.85525169E+02</rscale>
<asrwt>0</asrwt>
<pdfrwt beam="1">  1       21 0.78440041E-03 0.85525169E+02</pdfrwt>
<pdfrwt beam="2">  1        2 0.85376995E-01 0.85525169E+02</pdfrwt>
<totfact> 0.35015816E+06</totfact>
</mgrwt>
</event>
<event>
 6    2  0.9453093E+000  0.8456516E+02  0.7546771E-02  0.1316574E+00
          2   -1    0    0  502    0 -0.00000000000E+00  0.00000000000E+00  0.12484285322E+04  0.12484285322E+04  0.00000000000E+00 0. -1.
         21   -1    0    0  501  502  0.00000000000E+00 -0.00000000000E+00 -0.49922188489E+01  0.49922188489E+01  0.00000000000E+00 0. -1.
         24    2    1    2    0    0 -0.27372235019E+02 -0.89642380515E+01  0.11874736312E+04  0.11904809496E+04  0.79508928557E+02 0.  0.
        -11    1    3    3    0    0  0.15929119527E+01  0.34676440334E+01  0.15185320672E+01  0.41070504344E+01  0.00000000000E+00 0.  1.
         12    1    3    3    0    0 -0.28965146972E+02 -0.12431882085E+02  0.11859550991E+04  0.11863738992E+04  0.00000000000E+00 0. -1.
          1    1    1    2  501    0  0.27372235019E+02  0.89642380515E+01  0.55962682097E+02  0.62939801408E+02  0.00000000000E+00 0. -1.
<mgrwt>
<rscale>  1 0.84565161E+02</rscale>
<asrwt>0</asrwt>
<pdfrwt beam="1">  1       21 0.76803466E-03 0.84565161E+02</pdfrwt>
<pdfrwt beam="2">  1        2 0.19206568E+00 0.84565161E+02</pdfrwt>
<totfact> 0.12981402E+06</totfact>
</mgrwt>
</event>
<event>
 6    2  0.9453093E+000  0.8792387E+02  0.7546771E-02  0.1307959E+00
         21   -1    0    0  501  502  0.00000000000E+00  0.00000000000E+00  0.46840654795E+01  0.46840654795E+01  0.00000000000E+00 0.  1.
          4   -1    0    0  502    0 -0.00000000000E+00 -0.00000000000E+00 -0.94473944486E+03  0.94473944486E+03  0.00000000000E+00 0. -1.
         24    2    1    2    0    0 -0.35540612288E+02  0.14131156186E+02 -0.77618273094E+03  0.78114674544E+03  0.79169321144E+02 0.  0.
        -11    1    3    3    0    0 -0.29094886132E+01 -0.29603965063E+02 -0.17676679204E+03  0.17925222074E+03  0.00000000000E+00 0.  1.
         12    1    3    3    0    0 -0.32631123675E+02  0.43735121249E+02 -0.59941593890E+03  0.60189452470E+03  0.00000000000E+00 0. -1.
          3    1    1    2  501    0  0.35540612288E+02 -0.14131156186E+02 -0.16387264844E+03  0.16827676490E+03  0.00000000000E+00 0. -1.
<mgrwt>
<rscale>  1 0.87923865E+02</rscale>
<asrwt>0</asrwt>
<pdfrwt beam="1">  1       21 0.72062545E-03 0.87923865E+02</pdfrwt>
<pdfrwt beam="2">  1        4 0.14534453E+00 0.87923865E+02</pdfrwt>
<totfact> 0.81814695E+04</totfact>
</mgrwt>
</event>
<event>
 6    2  0.9453093E+000  0.9007574E+02  0.7546771E-02  0.1302668E+00
          2   -1    0    0  502    0 -0.00000000000E+00  0.00000000000E+00  0.22507185776E+03  0.22507185776E+03  0.00000000000E+00 0. -1.
         21   -1    0    0  501  502  0.00000000000E+00 -0.00000000000E+00 -0.23313298414E+02  0.23313298414E+02  0.00000000000E+00 0.  1.
         24    2    1    2    0    0 -0.34078967880E+02 -0.21287658555E+02  0.18315457259E+03  0.20410594230E+03  0.80616981836E+02 0.  0.
        -11    1    3    3    0    0 -0.32127346065E+02 -0.45968308420E+02  0.16236259663E+03  0.17177562263E+03  0.00000000000E+00 0.  1.
         12    1    3    3    0    0 -0.19516218147E+01  0.24680649865E+02  0.20791975960E+02  0.32330319667E+02  0.00000000000E+00 0. -1.
          1    1    1    2  501    0  0.34078967880E+02  0.21287658555E+02  0.18603986751E+02  0.44279213877E+02  0.00000000000E+00 0. -1.
<mgrwt>
<rscale>  1 0.90075736E+02</rscale>
<asrwt>0</asrwt>
<pdfrwt beam="1">  1       21 0.35866615E-02 0.90075736E+02</pdfrwt>
<pdfrwt beam="2">  1        2 0.34626438E-01 0.90075736E+02</pdfrwt>
<totfact> 0.81460214E+05</totfact>
</mgrwt>
</event>
<event>
 6    2  0.9453093E+000  0.9993794E+02  0.7546771E-02  0.1280426E+00
          2   -1    0    0  502    0 -0.00000000000E+00  0.00000000000E+00  0.73190705941E+03  0.73190705941E+03  0.00000000000E+00 0. -1.
         21   -1    0    0  501  502  0.00000000000E+00 -0.00000000000E+00 -0.91337349898E+01  0.91337349898E+01  0.00000000000E+00 0. -1.
         24    2    1    2    0    0  0.34038082798E+02  0.50296475974E+02  0.37959934129E+03  0.39253439665E+03  0.79367915864E+02 0.  0.
        -13    1    3    3    0    0 -0.12845016518E+02 -0.82705340824E+01  0.19862386870E+02  0.25058144295E+02  0.00000000000E+00 0.  1.
         14    1    3    3    0    0  0.46883099316E+02  0.58567010056E+02  0.35973695442E+03  0.36747625235E+03  0.00000000000E+00 0. -1.
          1    1    1    2  501    0 -0.34038082798E+02 -0.50296475974E+02  0.34317398313E+03  0.34850639775E+03  0.00000000000E+00 0. -1.
<mgrwt>
<rscale>  1 0.99937944E+02</rscale>
<asrwt>0</asrwt>
<pdfrwt beam="1">  1       21 0.14051906E-02 0.99937944E+02</pdfrwt>
<pdfrwt beam="2">  1        2 0.11260104E+00 0.99937944E+02</pdfrwt>
<totfact> 0.10421441E+06</totfact>
</mgrwt>
</event>
<event>
 6    2  0.9453093E+000  0.8507287E+02  0.7546771E-02  0.1315242E+00
         -1   -1    0    0    0  501 -0.00000000000E+00  0.00000000000E+00  0.40590299396E+02  0.40590299396E+02  0.00000000000E+00 0.  1.
         21   -1    0    0  501  502  0.00000000000E+00 -0.00000000000E+00 -0.76194505748E+02  0.76194505748E+02  0.00000000000E+00 0. -1.
         24    2    1    2    0    0 -0.19818469516E+02 -0.17053683153E+02 -0.27769466165E+02  0.89490428491E+02  0.80955504430E+02 0.  0.
        -13    1    3    3    0    0  0.51589225901E+01 -0.13844577430E+02  0.26119030233E+02  0.30008174667E+02  0.00000000000E+00 0.  1.
         14    1    3    3    0    0 -0.24977392106E+02 -0.32091057225E+01 -0.53888496398E+02  0.59482253824E+02  0.00000000000E+00 0. -1.
         -2    1    1    2    0  502  0.19818469516E+02  0.17053683153E+02 -0.78347401876E+01  0.27294376652E+02  0.00000000000E+00 0.  1.
<mgrwt>
<rscale>  1 0.85072872E+02</rscale>
<asrwt>0</asrwt>
<pdfrwt beam="1">  1       21 0.11722232E-01 0.85072872E+02</pdfrwt>
<pdfrwt beam="2">  1       -1 0.62446615E-02 0.85072872E+02</pdfrwt>
<totfact> 0.62881800E+05</totfact>
</mgrwt>
</event>
<event>
 6    2  0.9453093E+000  0.2564774E+03  0.7546771E-02  0.1109278E+00
          2   -1    0    0  502    0 -0.00000000000E+00  0.00000000000E+00  0.15859417357E+04  0.15859417357E+04  0.00000000000E+00 0. -1.
         21   -1    0    0  501  502  0.00000000000E+00 -0.00000000000E+00 -0.43905207804E+02  0.43905207804E+02  0.00000000000E+00 0. -1.
         24    2    1    2    0    0  0.22485379117E+03  0.93442719219E+02  0.10498133998E+04  0.10806890637E+04  0.80559969561E+02 0.  0.
        -11    1    3    3    0    0  0.27645955095E+02 -0.14959997286E+02  0.13099076905E+03  0.13470962078E+03  0.00000000000E+00 0.  1.
         12    1    3    3    0    0  0.19720783608E+03  0.10840271650E+03  0.91882263080E+03  0.94597944291E+03  0.00000000000E+00 0. -1.
          1    1    1    2  501    0 -0.22485379117E+03 -0.93442719219E+02  0.49222312805E+03  0.54915787982E+03  0.00000000000E+00 0. -1.
<mgrwt>
<rscale>  1 0.25647744E+03</rscale>
<asrwt>0</asrwt>
<pdfrwt beam="1">  1       21 0.67546486E-02 0.25647744E+03</pdfrwt>
<pdfrwt beam="2">  1        2 0.24399099E+00 0.25647744E+03</pdfrwt>
<totfact> 0.25037304E+04</totfact>
</mgrwt>
</event>
<event>
 6    2  0.9453093E+000  0.8307704E+02  0.7546771E-02  0.1320539E+00
          2   -1    0    0  502    0 -0.00000000000E+00  0.00000000000E+00  0.97500122400E+03  0.97500122400E+03  0.00000000000E+00 0. -1.
         21   -1    0    0  501  502  0.00000000000E+00 -0.00000000000E+00 -0.28649391415E+01  0.28649391415E+01  0.00000000000E+00 0.  1.
         24    2    1    2    0    0 -0.20710893450E+02 -0.41489556467E+01  0.70031110984E+03  0.70522155800E+03  0.80346999685E+02 0.  0.
        -13    1    3    3    0    0  0.80997047094E+01  0.31359488109E+02  0.17881642279E+03  0.18172599090E+03  0.00000000000E+00 0.  1.
         14    1    3    3    0    0 -0.28810598159E+02 -0.35508443756E+02  0.52149468705E+03  0.52349556709E+03  0.00000000000E+00 0. -1.
          1    1    1    2  501    0  0.20710893450E+02  0.41489556467E+01  0.27182517502E+03  0.27264460515E+03  0.00000000000E+00 0. -1.
<mgrwt>
<rscale>  1 0.83077044E+02</rscale>
<asrwt>0</asrwt>
<pdfrwt beam="1">  1       21 0.44076065E-03 0.83077044E+02</pdfrwt>
<pdfrwt beam="2">  1        2 0.14999992E+00 0.83077044E+02</pdfrwt>
<totfact> 0.43231033E+06</totfact>
</mgrwt>
</event>
<event>
 6    2  0.9453093E+000  0.1138491E+03  0.7546771E-02  0.1253603E+00
         -3   -1    0    0    0  501 -0.00000000000E+00  0.00000000000E+00  0.86333031405E+02  0.86333031405E+02  0.00000000000E+00 0.  1.
         21   -1    0    0  501  502  0.00000000000E+00 -0.00000000000E+00 -0.11539703447E+03  0.11539703447E+03  0.00000000000E+00 0.  1.
         24    2    1    2    0    0  0.79335019968E+02 -0.89170822346E+01  0.71340685205E+01  0.11407243565E+03  0.81166901465E+02 0.  0.
        -11    1    3    3    0    0  0.85767094390E+02 -0.60050608179E+01  0.29281689084E+02  0.90826607066E+02  0.00000000000E+00 0.  1.
         12    1    3    3    0    0 -0.64320744217E+01 -0.29120214167E+01 -0.22147620564E+02  0.23245828588E+02  0.00000000000E+00 0. -1.
         -4    1    1    2    0  502 -0.79335019968E+02  0.89170822346E+01 -0.36198071582E+02  0.87657630217E+02  0.00000000000E+00 0.  1.
<mgrwt>
<rscale>  1 0.11384914E+03</rscale>
<asrwt>0</asrwt>
<pdfrwt beam="1">  1       21 0.17753390E-01 0.11384914E+03</pdfrwt>
<pdfrwt beam="2">  1       -3 0.13282005E-01 0.11384914E+03</pdfrwt>
<totfact> 0.61809948E+04</totfact>
</mgrwt>
</event>
<event>
 6    2  0.9453093E+000  0.1217801E+03  0.7546771E-02  0.1240189E+00
         21   -1    0    0  501  502  0.00000000000E+00  0.00000000000E+00  0.40806336687E+01  0.40806336687E+01  0.00000000000E+00 0. -1.
          2   -1    0    0  502    0 -0.00000000000E+00 -0.00000000000E+00 -0.28024972421E+04  0.28024972421E+04  0.00000000000E+00 0. -1.
         24    2    1    2    0    0  0.82460966467E+02  0.36004206146E+02 -0.18000800130E+04  0.18041946798E+04  0.82062631221E+02 0.  0.
        -11    1    3    3    0    0 -0.89442754990E+01  0.53812543559E+00 -0.27877746031E+02  0.29282390048E+02  0.00000000000E+00 0.  1.
         12    1    3    3    0    0  0.91405241966E+02  0.35466080710E+02 -0.17722022670E+04  0.17749122898E+04  0.00000000000E+00 0. -1.
          1    1    1    2  501    0 -0.82460966467E+02 -0.36004206146E+02 -0.99833659537E+03  0.10023831959E+04  0.00000000000E+00 0. -1.
<mgrwt>
<rscale>  1 0.12178009E+03</rscale>
<asrwt>0</asrwt>
<pdfrwt beam="1">  1       21 0.62778781E-03 0.12178009E+03</pdfrwt>
<pdfrwt beam="2">  1        2 0.43115479E+00 0.12178009E+03</pdfrwt>
<totfact> 0.28133854E+05</totfact>
</mgrwt>
</event>
<event>
 6    2  0.9453093E+000  0.9172433E+02  0.7546771E-02  0.1298729E+00
         21   -1    0    0  501  502  0.00000000000E+00  0.00000000000E+00  0.57154727967E+02  0.57154727967E+02  0.00000000000E+00 0.  1.
         -1   -1    0    0    0  501 -0.00000000000E+00 -0.00000000000E+00 -0.19382687032E+03  0.19382687032E+03  0.00000000000E+00 0.  1.
         24    2    1    2    0    0  0.44524148791E+02 -0.62584675480E+01 -0.17124572426E+03  0.19426386907E+03  0.79948636677E+02 0.  0.
        -11    1    3    3    0    0 -0.10621778055E+02  0.74290321577E+01 -0.10984455095E+03  0.11060668181E+03  0.00000000000E+00 0.  1.
         12    1    3    3    0    0  0.55145926846E+02 -0.13687499706E+02 -0.61401173309E+02  0.83657187256E+02  0.00000000000E+00 0. -1.
         -2    1    1    2    0  502 -0.44524148791E+02  0.62584675480E+01  0.34573581909E+02  0.56717729218E+02  0.00000000000E+00 0.  1.
<mgrwt>
<rscale>  1 0.91724330E+02</rscale>
<asrwt>0</asrwt>
<pdfrwt beam="1">  1       21 0.87930348E-02 0.91724330E+02</pdfrwt>
<pdfrwt beam="2">  1       -1 0.29819519E-01 0.91724330E+02</pdfrwt>
<totfact> 0.92705944E+04</totfact>
</mgrwt>
</event>
<event>
 6    2  0.9453093E+000  0.1297027E+03  0.7546771E-02  0.1227897E+00
         21   -1    0    0  501  502  0.00000000000E+00  0.00000000000E+00  0.14965261898E+02  0.14965261898E+02  0.00000000000E+00 0.  1.
          4   -1    0    0  502    0 -0.00000000000E+00 -0.00000000000E+00 -0.13332803652E+04  0.13332803652E+04  0.00000000000E+00 0. -1.
         24    2    1    2    0    0 -0.11873660235E+02 -0.10267984488E+03 -0.10891777802E+04  0.10968732993E+04  0.78349623160E+02 0.  0.
        -11    1    3    3    0    0 -0.30711356475E+02 -0.10313999262E+03 -0.81912584838E+03  0.82616475414E+03  0.00000000000E+00 0.  1.
         12    1    3    3    0    0  0.18837696240E+02  0.46014774654E+00 -0.27005193181E+03  0.27070854513E+03  0.00000000000E+00 0. -1.
          3    1    1    2  501    0  0.11873660235E+02  0.10267984488E+03 -0.22913732309E+03  0.25137232780E+03  0.00000000000E+00 0. -1.
<mgrwt>
<rscale>  1 0.12970273E+03</rscale>
<asrwt>0</asrwt>
<pdfrwt beam="1">  1       21 0.23023478E-02 0.12970273E+03</pdfrwt>
<pdfrwt beam="2">  1        4 0.20512008E+00 0.12970273E+03</pdfrwt>
<totfact> 0.54334591E+03</totfact>
</mgrwt>
</event>
<event>
 6    2  0.9453093E+000  0.8368984E+02  0.7546771E-02  0.1318895E+00
          2   -1    0    0  502    0 -0.00000000000E+00  0.00000000000E+00  0.16133525112E+03  0.16133525112E+03  0.00000000000E+00 0. -1.
         21   -1    0    0  501  502  0.00000000000E+00 -0.00000000000E+00 -0.13766479039E+03  0.13766479039E+03  0.00000000000E+00 0. -1.
         24    2    1    2    0    0  0.12673614024E+02 -0.18339171980E+02  0.14943554185E+03  0.17127454933E+03  0.80666252921E+02 0.  0.
        -13    1    3    3    0    0  0.94616716942E+01 -0.28967059720E+02  0.11004933668E+02  0.32399418901E+02  0.00000000000E+00 0.  1.
         14    1    3    3    0    0  0.32119423298E+01  0.10627887740E+02  0.13843060818E+03  0.13887513043E+03  0.00000000000E+00 0. -1.
          1    1    1    2  501    0 -0.12673614024E+02  0.18339171980E+02 -0.12576508112E+03  0.12772549217E+03  0.00000000000E+00 0. -1.
<mgrwt>
<rscale>  1 0.83689845E+02</rscale>
<asrwt>0</asrwt>
<pdfrwt beam="1">  1       21 0.21179199E-01 0.83689845E+02</pdfrwt>
<pdfrwt beam="2">  1        2 0.24820808E-01 0.83689845E+02</pdfrwt>
<totfact> 0.54343467E+04</totfact>
</mgrwt>
</event>
<event>
 6    2  0.9453093E+000  0.8261842E+02  0.7546771E-02  0.1321781E+00
         21   -1    0    0  501  502  0.00000000000E+00  0.00000000000E+00  0.88531051176E+02  0.88531051176E+02  0.00000000000E+00 0. -1.
          2   -1    0    0  502    0 -0.00000000000E+00 -0.00000000000E+00 -0.44099280960E+02  0.44099280960E+02  0.00000000000E+00 0. -1.
         24    2    1    2    0    0  0.40211105478E+00  0.25952951885E+02  0.17033496670E+01  0.82635979181E+02  0.78435236025E+02 0.  0.
        -11    1    3    3    0    0  0.17809825019E+02 -0.23413275459E+02 -0.50805823552E+01  0.29852699241E+02  0.00000000000E+00 0.  1.
         12    1    3    3    0    0 -0.17407713964E+02  0.49366227343E+02  0.67839320222E+01  0.52783279940E+02  0.00000000000E+00 0. -1.
          1    1    1    2  501    0 -0.40211105478E+00 -0.25952951885E+02  0.42728420549E+02  0.49994352956E+02  0.00000000000E+00 0. -1.
<mgrwt>
<rscale>  1 0.82618422E+02</rscale>
<asrwt>0</asrwt>
<pdfrwt beam="1">  1       21 0.13620162E-01 0.82618422E+02</pdfrwt>
<pdfrwt beam="2">  1        2 0.67845048E-02 0.82618422E+02</pdfrwt>
<totfact> 0.54993646E+05</totfact>
</mgrwt>
</event>
<event>
 6    2  0.9453093E+000  0.9116850E+02  0.7546771E-02  0.1300046E+00
          2   -1    0    0  502    0 -0.00000000000E+00  0.00000000000E+00  0.17509631311E+04  0.17509631311E+04  0.00000000000E+00 0. -1.
         21   -1    0    0  501  502  0.00000000000E+00 -0.00000000000E+00 -0.25734454672E+01  0.25734454672E+01  0.00000000000E+00 0.  1.
         24    2    1    2    0    0 -0.31869172492E+02 -0.26340491149E+02  0.13250465082E+04  0.13281791839E+04  0.81254107506E+02 0.  0.
        -11    1    3    3    0    0 -0.45659234869E+02 -0.19349926448E+02  0.40804212543E+03  0.41104447631E+03  0.00000000000E+00 0.  1.
         12    1    3    3    0    0  0.13790062377E+02 -0.69905647011E+01  0.91700438280E+03  0.91713470760E+03  0.00000000000E+00 0. -1.
          1    1    1    2  501    0  0.31869172492E+02  0.26340491149E+02  0.42334317738E+03  0.42535739262E+03  0.00000000000E+00 0. -1.
<mgrwt>
<rscale>  1 0.91168501E+02</rscale>
<asrwt>0</asrwt>
<pdfrwt beam="1">  1       21 0.39591609E-03 0.91168501E+02</pdfrwt>
<pdfrwt beam="2">  1        2 0.26937799E+00 0.91168501E+02</pdfrwt>
<totfact> 0.19954140E+06</totfact>
</mgrwt>
</event>
<event>
 6    2  0.9453093E+000  0.1026318E+03  0.7546771E-02  0.1274857E+00
          2   -1    0    0  502    0 -0.00000000000E+00  0.00000000000E+00  0.68605751905E+02  0.68605751905E+02  0.00000000000E+00 0. -1.
         21   -1    0    0  501  502  0.00000000000E+00 -0.00000000000E+00 -0.12144509919E+03  0.12144509919E+03  0.00000000000E+00 0.  1.
         24    2    1    2    0    0  0.57463793848E+02  0.25170849298E+02 -0.70933066285E+02  0.12475887667E+03  0.81225723489E+02 0.  0.
        -13    1    3    3    0    0  0.73605981332E+02  0.14147353889E+02 -0.73580075782E+02  0.10503340260E+03  0.00000000000E+00 0.  1.
         14    1    3    3    0    0 -0.16142187484E+02  0.11023495408E+02  0.26470094969E+01  0.19725474064E+02  0.00000000000E+00 0. -1.
          1    1    1    2  501    0 -0.57463793848E+02 -0.25170849298E+02  0.18093719000E+02  0.65291974430E+02  0.00000000000E+00 0. -1.
<mgrwt>
<rscale>  1 0.10263176E+03</rscale>
<asrwt>0</asrwt>
<pdfrwt beam="1">  1       21 0.18683861E-01 0.10263176E+03</pdfrwt>
<pdfrwt beam="2">  1        2 0.10554731E-01 0.10263176E+03</pdfrwt>
<totfact> 0.18401711E+05</totfact>
</mgrwt>
</event>
<event>
 6    2  0.9453093E+000  0.8443882E+02  0.7546771E-02  0.1316907E+00
         21   -1    0    0  501  502  0.00000000000E+00  0.00000000000E+00  0.19315631141E+03  0.19315631141E+03  0.00000000000E+00 0.  1.
          2   -1    0    0  502    0 -0.00000000000E+00 -0.00000000000E+00 -0.18118594056E+02  0.18118594056E+02  0.00000000000E+00 0. -1.
         24    2    1    2    0    0  0.14218887766E+02 -0.21514788849E+02  0.94595283514E+02  0.12679977261E+03  0.80404301895E+02 0.  0.
        -13    1    3    3    0    0  0.34864477164E+02  0.88358544419E+01  0.14660761632E+02  0.38839953956E+02  0.00000000000E+00 0.  1.
         14    1    3    3    0    0 -0.20645589398E+02 -0.30350643291E+02  0.79934521882E+02  0.87959818658E+02  0.00000000000E+00 0. -1.
          1    1    1    2  501    0 -0.14218887766E+02  0.21514788849E+02  0.80442433844E+02  0.84475132858E+02  0.00000000000E+00 0. -1.
<mgrwt>
<rscale>  1 0.84438822E+02</rscale>
<asrwt>0</asrwt>
<pdfrwt beam="1">  1       21 0.29716354E-01 0.84438822E+02</pdfrwt>
<pdfrwt beam="2">  1        2 0.27874761E-02 0.84438822E+02</pdfrwt>
<totfact> 0.41870048E+05</totfact>
</mgrwt>
</event>
<event>
 6    2  0.9453093E+000  0.8414129E+02  0.7546771E-02  0.1317694E+00
         -3   -1    0    0    0  501 -0.00000000000E+00  0.00000000000E+00  0.31180307440E+02  0.31180307440E+02  0.00000000000E+00 0.  1.
         21   -1    0    0  501  502  0.00000000000E+00 -0.00000000000E+00 -0.14495195800E+03  0.14495195800E+03  0.00000000000E+00 0.  1.
         24    2    1    2    0    0  0.26139530709E+02  0.59998332766E+01 -0.31909281684E+02  0.89988661482E+02  0.79752641791E+02 0.  0.
        -11    1    3    3    0    0  0.29566350991E+02  0.16318943375E+02  0.18440881864E+02  0.38477826702E+02  0.00000000000E+00 0.  1.
         12    1    3    3    0    0 -0.34268202818E+01 -0.10319110099E+02 -0.50350163548E+02  0.51510834780E+02  0.00000000000E+00 0. -1.
         -4    1    1    2    0  502 -0.26139530709E+02 -0.59998332766E+01 -0.81862368876E+02  0.86143603959E+02  0.00000000000E+00 0.  1.
<mgrwt>
<rscale>  1 0.84141292E+02</rscale>
<asrwt>0</asrwt>
<pdfrwt beam="1">  1       21 0.22300302E-01 0.84141292E+02</pdfrwt>
<pdfrwt beam="2">  1       -3 0.47969703E-02 0.84141292E+02</pdfrwt>
<totfact> 0.20309630E+05</totfact>
</mgrwt>
</event>
<event>
 6    2  0.9453093E+000  0.9731400E+02  0.7546771E-02  0.1286048E+00
         -1   -1    0    0    0  501 -0.00000000000E+00  0.00000000000E+00  0.20187138634E+02  0.20187138634E+02  0.00000000000E+00 0.  1.
         21   -1    0    0  501  502  0.00000000000E+00 -0.00000000000E+00 -0.77274763807E+03  0.77274763807E+03  0.00000000000E+00 0.  1.
         24    2    1    2    0    0 -0.41526698520E+02 -0.31247113646E+02 -0.10450250439E+03  0.14279631934E+03  0.82274945103E+02 0.  0.
        -11    1    3    3    0    0 -0.39046116885E+02  0.99770269413E+01 -0.90703077749E+02  0.99253154225E+02  0.00000000000E+00 0.  1.
         12    1    3    3    0    0 -0.24805816356E+01 -0.41224140587E+02 -0.13799426637E+02  0.43543165111E+02  0.00000000000E+00 0. -1.
         -2    1    1    2    0  502  0.41526698520E+02  0.31247113646E+02 -0.64805799505E+03  0.65013845736E+03  0.00000000000E+00 0.  1.
<mgrwt>
<rscale>  1 0.97314004E+02</rscale>
<asrwt>0</asrwt>
<pdfrwt beam="1">  1       21 0.11888423E+00 0.97314004E+02</pdfrwt>
<pdfrwt beam="2">  1       -1 0.31057141E-02 0.97314004E+02</pdfrwt>
<totfact> 0.17106347E+04</totfact>
</mgrwt>
</event>
<event>
 6    2  0.9453093E+000  0.8421224E+02  0.7546771E-02  0.1317506E+00
         -3   -1    0    0    0  501 -0.00000000000E+00  0.00000000000E+00  0.80054717841E+03  0.80054717841E+03  0.00000000000E+00 0.  1.
         21   -1    0    0  501  502  0.00000000000E+00 -0.00000000000E+00 -0.59373015741E+01  0.59373015741E+01  0.00000000000E+00 0.  1.
         24    2    1    2    0    0  0.17305482006E+02 -0.17631803283E+02  0.75580846408E+03  0.76048546015E+03  0.80506773133E+02 0.  0.
        -11    1    3    3    0    0  0.34285551995E+02  0.90069758251E+01  0.62156942178E+03  0.62257944937E+03  0.00000000000E+00 0.  1.
         12    1    3    3    0    0 -0.16980069989E+02 -0.26638779108E+02  0.13423904231E+03  0.13790601078E+03  0.00000000000E+00 0. -1.
         -4    1    1    2    0  502 -0.17305482006E+02  0.17631803283E+02  0.38801412758E+02  0.45999019842E+02  0.00000000000E+00 0.  1.
<mgrwt>
<rscale>  1 0.84212236E+02</rscale>
<asrwt>0</asrwt>
<pdfrwt beam="1">  1       21 0.91343164E-03 0.84212236E+02</pdfrwt>
<pdfrwt beam="2">  1       -3 0.12316102E+00 0.84212236E+02</pdfrwt>
<totfact> 0.10759840E+05</totfact>
</mgrwt>
</event>
<event>
 6    2  0.9453093E+000  0.8515462E+02  0.7546771E-02  0.1315029E+00
          4   -1    0    0  502    0 -0.00000000000E+00  0.00000000000E+00  0.20511833894E+02  0.20511833894E+02  0.00000000000E+00 0. -1.
         21   -1    0    0  501  502  0.00000000000E+00 -0.00000000000E+00 -0.16071968951E+03  0.16071968951E+03  0.00000000000E+00 0.  1.
         24    2    1    2    0    0 -0.86393498237E+00  0.25264113591E+02 -0.84058959049E+02  0.11965457638E+03  0.81315971572E+02 0.  0.
        -11    1    3    3    0    0  0.16580829082E+02  0.74523058429E+01 -0.91773654823E+02  0.93556744679E+02  0.00000000000E+00 0.  1.
         12    1    3    3    0    0 -0.17444764065E+02  0.17811807749E+02  0.77146957734E+01  0.26097831700E+02  0.00000000000E+00 0. -1.
          3    1    1    2  501    0  0.86393498237E+00 -0.25264113591E+02 -0.56148896563E+02  0.61576947021E+02  0.00000000000E+00 0. -1.
<mgrwt>
<rscale>  1 0.85154619E+02</rscale>
<asrwt>0</asrwt>
<pdfrwt beam="1">  1       21 0.24726107E-01 0.85154619E+02</pdfrwt>
<pdfrwt beam="2">  1        4 0.31556667E-02 0.85154619E+02</pdfrwt>
<totfact> 0.28597008E+05</totfact>
</mgrwt>
</event>
<event>
 6    2  0.9453093E+000  0.8410589E+02  0.7546771E-02  0.1317787E+00
         -1   -1    0    0    0  501 -0.00000000000E+00  0.00000000000E+00  0.16992461253E+03  0.16992461253E+03  0.00000000000E+00 0.  1.
         21   -1    0    0  501  502  0.00000000000E+00 -0.00000000000E+00 -0.29974149810E+02  0.29974149810E+02  0.00000000000E+00 0.  1.
         24    2    1    2    0    0  0.11798688076E+02  0.20962239934E+02  0.15145013825E+03  0.17323667163E+03  0.80592651526E+02 0.  0.
        -11    1    3    3    0    0 -0.22812888322E+02  0.34521073704E+02  0.11018065796E+03  0.11769413661E+03  0.00000000000E+00 0.  1.
         12    1    3    3    0    0  0.34611576397E+02 -0.13558833770E+02  0.41269480288E+02  0.55542535026E+02  0.00000000000E+00 0. -1.
         -2    1    1    2    0  502 -0.11798688076E+02 -0.20962239934E+02 -0.11499675531E+02  0.26662090703E+02  0.00000000000E+00 0.  1.
<mgrwt>
<rscale>  1 0.84105886E+02</rscale>
<asrwt>0</asrwt>
<pdfrwt beam="1">  1       21 0.46114078E-02 0.84105886E+02</pdfrwt>
<pdfrwt beam="2">  1       -1 0.26142248E-01 0.84105886E+02</pdfrwt>
<totfact> 0.33917902E+05</totfact>
</mgrwt>
</event>
<event>
 6    2  0.9453093E+000  0.8865103E+02  0.7546771E-02  0.1306152E+00
          2   -1    0    0  502    0 -0.00000000000E+00  0.00000000000E+00  0.63957660581E+03  0.63957660581E+03  0.00000000000E+00 0. -1.
         21   -1    0    0  501  502  0.00000000000E+00 -0.00000000000E+00 -0.82863284725E+01  0.82863284725E+01  0.00000000000E+00 0.  1.
         24    2    1    2    0    0 -0.28500260545E+01 -0.38264779062E+02  0.55932943000E+03  0.56631123587E+03  0.79916760684E+02 0.  0.
        -11    1    3    3    0    0 -0.15009314556E+02 -0.30568403105E+02  0.82334056676E+02  0.89098842196E+02  0.00000000000E+00 0.  1.
         12    1    3    3    0    0  0.12159288502E+02 -0.76963759567E+01  0.47699537333E+03  0.47721239367E+03  0.00000000000E+00 0. -1.
          1    1    1    2  501    0  0.28500260545E+01  0.38264779062E+02  0.71960847337E+02  0.81551698417E+02  0.00000000000E+00 0. -1.
<mgrwt>
<rscale>  1 0.88651027E+02</rscale>
<asrwt>0</asrwt>
<pdfrwt beam="1">  1       21 0.12748203E-02 0.88651027E+02</pdfrwt>
<pdfrwt beam="2">  1        2 0.98396362E-01 0.88651027E+02</pdfrwt>
<totfact> 0.14058359E+06</totfact>
</mgrwt>
</event>
<event>
 6    2  0.9453093E+000  0.1110951E+03  0.7546771E-02  0.1258555E+00
         21   -1    0    0  501  502  0.00000000000E+00  0.00000000000E+00  0.10251489538E+02  0.10251489538E+02  0.00000000000E+00 0. -1.
          2   -1    0    0  502    0 -0.00000000000E+00 -0.00000000000E+00 -0.90764628952E+03  0.90764628952E+03  0.00000000000E+00 0. -1.
         24    2    1    2    0    0  0.11260045125E+02  0.78559392064E+02 -0.44942814677E+03  0.46295548701E+03  0.77741605022E+02 0.  0.
        -11    1    3    3    0    0  0.14542767450E+02 -0.80827424877E+01 -0.15880902272E+03  0.15967820299E+03  0.00000000000E+00 0.  1.
         12    1    3    3    0    0 -0.32827223255E+01  0.86642134551E+02 -0.29061912404E+03  0.30327728402E+03  0.00000000000E+00 0. -1.
          1    1    1    2  501    0 -0.11260045125E+02 -0.78559392064E+02 -0.44796665321E+03  0.45494229204E+03  0.00000000000E+00 0. -1.
<mgrwt>
<rscale>  1 0.11109511E+03</rscale>
<asrwt>0</asrwt>
<pdfrwt beam="1">  1       21 0.15771526E-02 0.11109511E+03</pdfrwt>
<pdfrwt beam="2">  1        2 0.13963786E+00 0.11109511E+03</pdfrwt>
<totfact> 0.66947219E+05</totfact>
</mgrwt>
</event>
<event>
 6    2  0.9453093E+000  0.8240640E+02  0.7546771E-02  0.1322358E+00
          2   -1    0    0  502    0 -0.00000000000E+00  0.00000000000E+00  0.73414365040E+03  0.73414365040E+03  0.00000000000E+00 0. -1.
         21   -1    0    0  501  502  0.00000000000E+00 -0.00000000000E+00 -0.60481819307E+01  0.60481819307E+01  0.00000000000E+00 0. -1.
         24    2    1    2    0    0 -0.61394077359E+01  0.23563526117E+02  0.69049731370E+03  0.69539726422E+03  0.78726633126E+02 0.  0.
        -13    1    3    3    0    0 -0.38919370405E+02 -0.94132734587E+00  0.25136406540E+03  0.25436095782E+03  0.00000000000E+00 0.  1.
         14    1    3    3    0    0  0.32779962669E+02  0.24504853463E+02  0.43913324831E+03  0.44103630640E+03  0.00000000000E+00 0. -1.
          1    1    1    2  501    0  0.61394077359E+01 -0.23563526117E+02  0.37598154768E+02  0.44794568112E+02  0.00000000000E+00 0. -1.
<mgrwt>
<rscale>  1 0.82406401E+02</rscale>
<asrwt>0</asrwt>
<pdfrwt beam="1">  1       21 0.93049011E-03 0.82406401E+02</pdfrwt>
<pdfrwt beam="2">  1        2 0.11294511E+00 0.82406401E+02</pdfrwt>
<totfact> 0.19469456E+06</totfact>
</mgrwt>
</event>
<event>
 6    2  0.9453093E+000  0.8333768E+02  0.7546771E-02  0.1319838E+00
         -3   -1    0    0    0  501 -0.00000000000E+00  0.00000000000E+00  0.34343560224E+03  0.34343560224E+03  0.00000000000E+00 0.  1.
         21   -1    0    0  501  502  0.00000000000E+00 -0.00000000000E+00 -0.91806441039E+01  0.91806441039E+01  0.00000000000E+00 0. -1.
         24    2    1    2    0    0 -0.17222494173E+02 -0.15436979521E+02  0.29942854379E+03  0.31080962272E+03  0.80064062476E+02 0.  0.
        -11    1    3    3    0    0 -0.24022206638E+02 -0.40133236451E+02  0.25720794612E+03  0.26142622406E+03  0.00000000000E+00 0.  1.
         12    1    3    3    0    0  0.67997124649E+01  0.24696256930E+02  0.42220597668E+02  0.49383398662E+02  0.00000000000E+00 0. -1.
         -4    1    1    2    0  502  0.17222494173E+02  0.15436979521E+02  0.34826414353E+02  0.41806623625E+02  0.00000000000E+00 0.  1.
<mgrwt>
<rscale>  1 0.83337679E+02</rscale>
<asrwt>0</asrwt>
<pdfrwt beam="1">  1       21 0.14124071E-02 0.83337679E+02</pdfrwt>
<pdfrwt beam="2">  1       -3 0.52836237E-01 0.83337679E+02</pdfrwt>
<totfact> 0.33645980E+05</totfact>
</mgrwt>
</event>
<event>
 6    2  0.9453093E+000  0.1110443E+03  0.7546771E-02  0.1258648E+00
          2   -1    0    0  502    0 -0.00000000000E+00  0.00000000000E+00  0.17661228455E+04  0.17661228455E+04  0.00000000000E+00 0. -1.
         21   -1    0    0  501  502  0.00000000000E+00 -0.00000000000E+00 -0.34700160538E+02  0.34700160538E+02  0.00000000000E+00 0. -1.
         24    2    1    2    0    0 -0.68066865862E+02  0.39080983359E+02  0.17175283690E+04  0.17211143271E+04  0.78551937659E+02 0.  0.
        -11    1    3    3    0    0 -0.26587318843E+02  0.81458576467E+01  0.13985642364E+03  0.14259403828E+03  0.00000000000E+00 0.  1.
         12    1    3    3    0    0 -0.41479547018E+02  0.30935125712E+02  0.15776719454E+04  0.15785202888E+04  0.00000000000E+00 0. -1.
          1    1    1    2  501    0  0.68066865862E+02 -0.39080983359E+02  0.13894315930E+02  0.79708678973E+02  0.00000000000E+00 0. -1.
<mgrwt>
<rscale>  1 0.11104426E+03</rscale>
<asrwt>0</asrwt>
<pdfrwt beam="1">  1       21 0.53384876E-02 0.11104426E+03</pdfrwt>
<pdfrwt beam="2">  1        2 0.27171114E+00 0.11104426E+03</pdfrwt>
<totfact> 0.31371910E+04</totfact>
</mgrwt>
</event>
<event>
 6    2  0.9453093E+000  0.1038407E+03  0.7546771E-02  0.1272421E+00
         21   -1    0    0  501  502  0.00000000000E+00  0.00000000000E+00  0.35806034865E+04  0.35806034865E+04  0.00000000000E+00 0. -1.
          2   -1    0    0  502    0 -0.00000000000E+00 -0.00000000000E+00 -0.24955339485E+01  0.24955339485E+01  0.00000000000E+00 0. -1.
         24    2    1    2    0    0 -0.40345882424E+02 -0.52533907990E+02  0.13424999963E+04  0.13465099801E+04  0.79970522735E+02 0.  0.
        -11    1    3    3    0    0 -0.11540203630E+01 -0.39725868244E+02  0.10851834929E+04  0.10859109952E+04  0.00000000000E+00 0.  1.
         12    1    3    3    0    0 -0.39191862061E+02 -0.12808039746E+02  0.25731650348E+03  0.26059898483E+03  0.00000000000E+00 0. -1.
          1    1    1    2  501    0  0.40345882424E+02  0.52533907990E+02  0.22356079563E+04  0.22365890404E+04  0.00000000000E+00 0. -1.
<mgrwt>
<rscale>  1 0.10384068E+03</rscale>
<asrwt>0</asrwt>
<pdfrwt beam="1">  1       21 0.55085796E+00 0.10384068E+03</pdfrwt>
<pdfrwt beam="2">  1        2 0.38393116E-03 0.10384068E+03</pdfrwt>
<totfact> 0.60294903E+02</totfact>
</mgrwt>
</event>
<event>
 6    2  0.9453093E+000  0.8223183E+02  0.7546771E-02  0.1322835E+00
         -1   -1    0    0    0  501 -0.00000000000E+00  0.00000000000E+00  0.34849824619E+03  0.34849824619E+03  0.00000000000E+00 0.  1.
         21   -1    0    0  501  502  0.00000000000E+00 -0.00000000000E+00 -0.81716199718E+01  0.81716199718E+01  0.00000000000E+00 0.  1.
         24    2    1    2    0    0 -0.13413723680E+02 -0.19020712502E+02  0.28552274945E+03  0.29712844868E+03  0.78869253031E+02 0.  0.
        -13    1    3    3    0    0  0.15257787489E+02 -0.42105193531E+02  0.17487868423E+03  0.18052202524E+03  0.00000000000E+00 0.  1.
         14    1    3    3    0    0 -0.28671511170E+02  0.23084481028E+02  0.11064406523E+03  0.11660642344E+03  0.00000000000E+00 0. -1.
         -2    1    1    2    0  502  0.13413723680E+02  0.19020712502E+02  0.54803876768E+02  0.59541417483E+02  0.00000000000E+00 0.  1.
<mgrwt>
<rscale>  1 0.82231834E+02</rscale>
<asrwt>0</asrwt>
<pdfrwt beam="1">  1       21 0.12571726E-02 0.82231834E+02</pdfrwt>
<pdfrwt beam="2">  1       -1 0.53615103E-01 0.82231834E+02</pdfrwt>
<totfact> 0.79798854E+05</totfact>
</mgrwt>
</event>
<event>
 6    2  0.9453093E+000  0.1035140E+03  0.7546771E-02  0.1273075E+00
          2   -1    0    0  502    0 -0.00000000000E+00  0.00000000000E+00  0.33737971160E+04  0.33737971160E+04  0.00000000000E+00 0. -1.
         21   -1    0    0  501  502  0.00000000000E+00 -0.00000000000E+00 -0.27037710770E+01  0.27037710770E+01  0.00000000000E+00 0.  1.
         24    2    1    2    0    0 -0.27035897198E+02 -0.61157998154E+02  0.12248934425E+04  0.12292595728E+04  0.79018424584E+02 0.  0.
        -11    1    3    3    0    0 -0.46900558265E+02 -0.51236047686E+02  0.60598929108E+03  0.60995722461E+03  0.00000000000E+00 0.  1.
         12    1    3    3    0    0  0.19864661068E+02 -0.99219504685E+01  0.61890415142E+03  0.61930234821E+03  0.00000000000E+00 0. -1.
          1    1    1    2  501    0  0.27035897198E+02  0.61157998154E+02  0.21461999024E+04  0.21472413143E+04  0.00000000000E+00 0. -1.
<mgrwt>
<rscale>  1 0.10351402E+03</rscale>
<asrwt>0</asrwt>
<pdfrwt beam="1">  1       21 0.41596748E-03 0.10351402E+03</pdfrwt>
<pdfrwt beam="2">  1        2 0.51904235E+00 0.10351402E+03</pdfrwt>
<totfact> 0.24613526E+05</totfact>
</mgrwt>
</event>
<event>
 6    2  0.9453093E+000  0.8264134E+02  0.7546771E-02  0.1321719E+00
          2   -1    0    0  502    0 -0.00000000000E+00  0.00000000000E+00  0.19897435398E+04  0.19897435398E+04  0.00000000000E+00 0. -1.
         21   -1    0    0  501  502  0.00000000000E+00 -0.00000000000E+00 -0.47657647476E+01  0.47657647476E+01  0.00000000000E+00 0. -1.
         24    2    1    2    0    0  0.26002998228E+02  0.68065613638E+01  0.19423986344E+04  0.19441558696E+04  0.78147969265E+02 0.  0.
        -13    1    3    3    0    0  0.24326478936E+02 -0.15908028431E+01  0.17024956055E+03  0.17198610729E+03  0.00000000000E+00 0.  1.
         14    1    3    3    0    0  0.16765192923E+01  0.83973642069E+01  0.17721490738E+04  0.17721697623E+04  0.00000000000E+00 0. -1.
          1    1    1    2  501    0 -0.26002998228E+02 -0.68065613638E+01  0.42579140645E+02  0.50353434962E+02  0.00000000000E+00 0. -1.
<mgrwt>
<rscale>  1 0.82641335E+02</rscale>
<asrwt>0</asrwt>
<pdfrwt beam="1">  1       21 0.73319616E-03 0.82641335E+02</pdfrwt>
<pdfrwt beam="2">  1        2 0.30611373E+00 0.82641335E+02</pdfrwt>
<totfact> 0.58565056E+05</totfact>
</mgrwt>
</event>
<event>
 6    2  0.9453093E+000  0.8457056E+02  0.7546771E-02  0.1316559E+00
         21   -1    0    0  501  502  0.00000000000E+00  0.00000000000E+00  0.34279198628E+02  0.34279198628E+02  0.00000000000E+00 0. -1.
          2   -1    0    0  502    0 -0.00000000000E+00 -0.00000000000E+00 -0.10012845876E+03  0.10012845876E+03  0.00000000000E+00 0. -1.
         24    2    1    2    0    0  0.85377742858E+01 -0.18309229438E+02 -0.74239097307E+02  0.11253276676E+03  0.82122217174E+02 0.  0.
        -11    1    3    3    0    0  0.30356370884E+02  0.18915413571E+02 -0.13943523247E+02  0.38389112576E+02  0.00000000000E+00 0.  1.
         12    1    3    3    0    0 -0.21818596598E+02 -0.37224643010E+02 -0.60295574059E+02  0.74143654185E+02  0.00000000000E+00 0. -1.
          1    1    1    2  501    0 -0.85377742858E+01  0.18309229438E+02  0.83898371704E+01  0.21874890631E+02  0.00000000000E+00 0. -1.
<mgrwt>
<rscale>  1 0.84570562E+02</rscale>
<asrwt>0</asrwt>
<pdfrwt beam="1">  1       21 0.52737230E-02 0.84570562E+02</pdfrwt>
<pdfrwt beam="2">  1        2 0.15404378E-01 0.84570562E+02</pdfrwt>
<totfact> 0.10424956E+06</totfact>
</mgrwt>
</event>
<event>
 6    2  0.9453093E+000  0.1046375E+03  0.7546771E-02  0.1270836E+00
          2   -1    0    0  502    0 -0.00000000000E+00  0.00000000000E+00  0.27578949263E+03  0.27578949263E+03  0.00000000000E+00 0. -1.
         21   -1    0    0  501  502  0.00000000000E+00 -0.00000000000E+00 -0.28558011988E+02  0.28558011988E+02  0.00000000000E+00 0. -1.
         24    2    1    2    0    0  0.35971536919E+02 -0.56541769556E+02  0.18679612863E+03  0.21410696524E+03  0.80362153556E+02 0.  0.
        -13    1    3    3    0    0 -0.13752957405E+02 -0.92950880981E+01  0.16710315330E+01  0.16683370358E+02  0.00000000000E+00 0.  1.
         14    1    3    3    0    0  0.49724494324E+02 -0.47246681458E+02  0.18512509709E+03  0.19742359489E+03  0.00000000000E+00 0. -1.
          1    1    1    2  501    0 -0.35971536919E+02  0.56541769556E+02  0.60435352015E+02  0.90240539371E+02  0.00000000000E+00 0. -1.
<mgrwt>
<rscale>  1 0.10463746E+03</rscale>
<asrwt>0</asrwt>
<pdfrwt beam="1">  1       21 0.43935405E-02 0.10463746E+03</pdfrwt>
<pdfrwt beam="2">  1        2 0.42429151E-01 0.10463746E+03</pdfrwt>
<totfact> 0.47686645E+05</totfact>
</mgrwt>
</event>
<event>
 6    2  0.9453093E+000  0.9324280E+02  0.7546771E-02  0.1295183E+00
         21   -1    0    0  501  502  0.00000000000E+00  0.00000000000E+00  0.91390976617E+01  0.91390976617E+01  0.00000000000E+00 0. -1.
          2   -1    0    0  502    0 -0.00000000000E+00 -0.00000000000E+00 -0.13469723466E+04  0.13469723466E+04  0.00000000000E+00 0. -1.
         24    2    1    2    0    0  0.11038435773E+02  0.42917857267E+02 -0.12793087915E+04  0.12827023055E+04  0.82039203874E+02 0.  0.
        -11    1    3    3    0    0 -0.13240093981E+01 -0.13883070178E+02 -0.47055470624E+02  0.49078609945E+02  0.00000000000E+00 0.  1.
         12    1    3    3    0    0  0.12362445171E+02  0.56800927446E+02 -0.12322533209E+04  0.12336236955E+04  0.00000000000E+00 0. -1.
          1    1    1    2  501    0 -0.11038435773E+02 -0.42917857267E+02 -0.58524457455E+02  0.73409138785E+02  0.00000000000E+00 0. -1.
<mgrwt>
<rscale>  1 0.93242804E+02</rscale>
<asrwt>0</asrwt>
<pdfrwt beam="1">  1       21 0.14060151E-02 0.93242804E+02</pdfrwt>
<pdfrwt beam="2">  1        2 0.20722650E+00 0.93242804E+02</pdfrwt>
<totfact> 0.44989227E+05</totfact>
</mgrwt>
</event>
<event>
 6    2  0.9453093E+000  0.7852984E+02  0.7546771E-02  0.1333276E+00
          2   -1    0    0  502    0 -0.00000000000E+00  0.00000000000E+00  0.34422225740E+03  0.34422225740E+03  0.00000000000E+00 0. -1.
         21   -1    0    0  501  502  0.00000000000E+00 -0.00000000000E+00 -0.91926828278E+01  0.91926828278E+01  0.00000000000E+00 0. -1.
         24    2    1    2    0    0  0.29735551164E+00  0.21452135612E+02  0.31285569179E+03  0.32256103253E+03  0.75542393926E+02 0.  0.
        -13    1    3    3    0    0  0.53025465742E+01 -0.20606646926E+02  0.21344923550E+03  0.21450717245E+03  0.00000000000E+00 0.  1.
         14    1    3    3    0    0 -0.50051910626E+01  0.42058782537E+02  0.99406456289E+02  0.10805386008E+03  0.00000000000E+00 0. -1.
          1    1    1    2  501    0 -0.29735551164E+00 -0.21452135612E+02  0.22173882789E+02  0.30853907703E+02  0.00000000000E+00 0. -1.
<mgrwt>
<rscale>  1 0.78529840E+02</rscale>
<asrwt>0</asrwt>
<pdfrwt beam="1">  1       21 0.14142592E-02 0.78529840E+02</pdfrwt>
<pdfrwt beam="2">  1        2 0.52957260E-01 0.78529840E+02</pdfrwt>
<totfact> 0.22899425E+06</totfact>
</mgrwt>
</event>
<event>
 6    2  0.9453093E+000  0.8378439E+02  0.7546771E-02  0.1318642E+00
         21   -1    0    0  501  502  0.00000000000E+00  0.00000000000E+00  0.38464721112E+02  0.38464721112E+02  0.00000000000E+00 0.  1.
          4   -1    0    0  502    0 -0.00000000000E+00 -0.00000000000E+00 -0.49672818486E+03  0.49672818486E+03  0.00000000000E+00 0. -1.
         24    2    1    2    0    0 -0.23406122553E+02  0.95789339608E+01 -0.48858042388E+03  0.49571226996E+03  0.79876288333E+02 0.  0.
        -13    1    3    3    0    0  0.11413711410E+02  0.29097699360E+01 -0.90010216620E+01  0.14824235568E+02  0.00000000000E+00 0.  1.
         14    1    3    3    0    0 -0.34819833963E+02  0.66691640248E+01 -0.47957940222E+03  0.48088803439E+03  0.00000000000E+00 0. -1.
          3    1    1    2  501    0  0.23406122553E+02 -0.95789339608E+01  0.30316960131E+02  0.39480636018E+02  0.00000000000E+00 0. -1.
<mgrwt>
<rscale>  1 0.83784390E+02</rscale>
<asrwt>0</asrwt>
<pdfrwt beam="1">  1       21 0.59176496E-02 0.83784390E+02</pdfrwt>
<pdfrwt beam="2">  1        4 0.76419718E-01 0.83784390E+02</pdfrwt>
<totfact> 0.12289125E+04</totfact>
</mgrwt>
</event>
<event>
 6    2  0.9453093E+000  0.9250223E+02  0.7546771E-02  0.1296903E+00
         -1   -1    0    0    0  501 -0.00000000000E+00  0.00000000000E+00  0.65194387386E+03  0.65194387386E+03  0.00000000000E+00 0.  1.
         21   -1    0    0  501  502  0.00000000000E+00 -0.00000000000E+00 -0.10973155727E+02  0.10973155727E+02  0.00000000000E+00 0. -1.
         24    2    1    2    0    0  0.45322315757E+02 -0.91828764194E+01  0.57476116671E+03  0.58215724860E+03  0.80113830376E+02 0.  0.
        -13    1    3    3    0    0  0.31691052906E+02 -0.21703054575E+02  0.54950223616E+03  0.55084303840E+03  0.00000000000E+00 0.  1.
         14    1    3    3    0    0  0.13631262850E+02  0.12520178155E+02  0.25258930554E+02  0.31314210204E+02  0.00000000000E+00 0. -1.
         -2    1    1    2    0  502 -0.45322315757E+02  0.91828764194E+01  0.66209551421E+02  0.80759780982E+02  0.00000000000E+00 0.  1.
<mgrwt>
<rscale>  1 0.92502234E+02</rscale>
<asrwt>0</asrwt>
<pdfrwt beam="1">  1       21 0.16881783E-02 0.92502234E+02</pdfrwt>
<pdfrwt beam="2">  1       -1 0.10029903E+00 0.92502234E+02</pdfrwt>
<totfact> 0.14616222E+05</totfact>
</mgrwt>
</event>
<event>
 6    2  0.9453093E+000  0.8797933E+02  0.7546771E-02  0.1307820E+00
         21   -1    0    0  501  502  0.00000000000E+00  0.00000000000E+00  0.40464189471E+01  0.40464189471E+01  0.00000000000E+00 0. -1.
          2   -1    0    0  502    0 -0.00000000000E+00 -0.00000000000E+00 -0.24515603546E+04  0.24515603546E+04  0.00000000000E+00 0. -1.
         24    2    1    2    0    0  0.15814925760E+02 -0.28757281498E+02 -0.23673587170E+04  0.23689929629E+04  0.81628856733E+02 0.  0.
        -11    1    3    3    0    0  0.33280743890E+02 -0.11958240195E+02 -0.42079067658E+03  0.42227408270E+03  0.00000000000E+00 0.  1.
         12    1    3    3    0    0 -0.17465818130E+02 -0.16799041302E+02 -0.19465680404E+04  0.19467188802E+04  0.00000000000E+00 0. -1.
          1    1    1    2  501    0 -0.15814925760E+02  0.28757281498E+02 -0.80155218681E+02  0.86613810664E+02  0.00000000000E+00 0. -1.
<mgrwt>
<rscale>  1 0.87979335E+02</rscale>
<asrwt>0</asrwt>
<pdfrwt beam="1">  1       21 0.62252580E-03 0.87979335E+02</pdfrwt>
<pdfrwt beam="2">  1        2 0.37716325E+00 0.87979335E+02</pdfrwt>
<totfact> 0.43956412E+05</totfact>
</mgrwt>
</event>
<event>
 6    2  0.9453093E+000  0.8336161E+02  0.7546771E-02  0.1319774E+00
         21   -1    0    0  501  502  0.00000000000E+00  0.00000000000E+00  0.20103748532E+01  0.20103748532E+01  0.00000000000E+00 0.  1.
          2   -1    0    0  502    0 -0.00000000000E+00 -0.00000000000E+00 -0.13614638499E+04  0.13614638499E+04  0.00000000000E+00 0. -1.
         24    2    1    2    0    0 -0.39525803456E+01  0.20439074481E+02 -0.11351399239E+04  0.11381967339E+04  0.80720378913E+02 0.  0.
        -11    1    3    3    0    0 -0.41699767036E+01 -0.12544832435E+01 -0.19031298716E+01  0.47522980993E+01  0.00000000000E+00 0.  1.
         12    1    3    3    0    0  0.21739635804E+00  0.21693557725E+02 -0.11332367940E+04  0.11334444358E+04  0.00000000000E+00 0. -1.
          1    1    1    2  501    0  0.39525803456E+01 -0.20439074481E+02 -0.22431355119E+03  0.22527749089E+03  0.00000000000E+00 0. -1.
<mgrwt>
<rscale>  1 0.83361611E+02</rscale>
<asrwt>0</asrwt>
<pdfrwt beam="1">  1       21 0.30928867E-03 0.83361611E+02</pdfrwt>
<pdfrwt beam="2">  1        2 0.20945582E+00 0.83361611E+02</pdfrwt>
<totfact> 0.45419172E+06</totfact>
</mgrwt>
</event>
<event>
 6    2  0.9453093E+000  0.8275384E+02  0.7546771E-02  0.1321413E+00
         21   -1    0    0  501  502  0.00000000000E+00  0.00000000000E+00  0.22272066544E+02  0.22272066544E+02  0.00000000000E+00 0. -1.
          2   -1    0    0  502    0 -0.00000000000E+00 -0.00000000000E+00 -0.14117255012E+03  0.14117255012E+03  0.00000000000E+00 0. -1.
         24    2    1    2    0    0 -0.25254572357E+02 -0.61116252335E+01 -0.10587510104E+03  0.13437907043E+03  0.78568773438E+02 0.  0.
        -11    1    3    3    0    0  0.56866769983E+01 -0.35374559538E+01  0.11313559973E+02  0.13147187120E+02  0.00000000000E+00 0.  1.
         12    1    3    3    0    0 -0.30941249355E+02 -0.25741692798E+01 -0.11718866102E+03  0.12123188331E+03  0.00000000000E+00 0. -1.
          1    1    1    2  501    0  0.25254572357E+02  0.61116252335E+01 -0.13025382529E+02  0.29065546235E+02  0.00000000000E+00 0. -1.
<mgrwt>
<rscale>  1 0.82753837E+02</rscale>
<asrwt>0</asrwt>
<pdfrwt beam="1">  1       21 0.34264717E-02 0.82753837E+02</pdfrwt>
<pdfrwt beam="2">  1        2 0.21718854E-01 0.82753837E+02</pdfrwt>
<totfact> 0.14373634E+06</totfact>
</mgrwt>
</event>
<event>
 6    2  0.1283730E+001  0.8580568E+02  0.7546771E-02  0.1313339E+00
         21   -1    0    0  501  502  0.00000000000E+00  0.00000000000E+00  0.69674184247E+02  0.69674184247E+02  0.00000000000E+00 0.  1.
         -1   -1    0    0    0  501 -0.00000000000E+00 -0.00000000000E+00 -0.33326314334E+03  0.33326314334E+03  0.00000000000E+00 0.  1.
         24    2    1    2    0    0 -0.29977984007E+02  0.24134674078E+01 -0.32415277199E+03  0.33531721385E+03  0.80362366587E+02 0.  0.
        -13    1    3    3    0    0 -0.23083902933E+02  0.69992497409E+01 -0.32595257231E+03  0.32684390076E+03  0.00000000000E+00 0.  1.
         14    1    3    3    0    0 -0.68940810737E+01 -0.45857823332E+01  0.17998003174E+01  0.84733130852E+01  0.00000000000E+00 0. -1.
         -2    1    1    2    0  502  0.29977984007E+02 -0.24134674078E+01  0.60563812895E+02  0.67620113741E+02  0.00000000000E+00 0.  1.
<mgrwt>
<rscale>  1 0.85805678E+02</rscale>
<asrwt>0</asrwt>
<pdfrwt beam="1">  1       21 0.10719105E-01 0.85805678E+02</pdfrwt>
<pdfrwt beam="2">  1       -1 0.51271253E-01 0.85805678E+02</pdfrwt>
<totfact> 0.25697866E+04</totfact>
</mgrwt>
</event>
<event>
 6    2  0.9453093E+000  0.8409910E+02  0.7546771E-02  0.1317805E+00
         -1   -1    0    0    0  501 -0.00000000000E+00  0.00000000000E+00  0.22531921055E+02  0.22531921055E+02  0.00000000000E+00 0.  1.
         21   -1    0    0  501  502  0.00000000000E+00 -0.00000000000E+00 -0.14172593067E+03  0.14172593067E+03  0.00000000000E+00 0. -1.
         24    2    1    2    0    0  0.21001179079E+02  0.19844073927E+02 -0.87135587912E+02  0.12110024296E+03  0.78979879529E+02 0.  0.
        -11    1    3    3    0    0  0.20824062551E+02 -0.75164127896E+01  0.68805671135E+01  0.23183620212E+02  0.00000000000E+00 0.  1.
         12    1    3    3    0    0  0.17711652790E+00  0.27360486717E+02 -0.94016155026E+02  0.97916622743E+02  0.00000000000E+00 0. -1.
         -2    1    1    2    0  502 -0.21001179079E+02 -0.19844073927E+02 -0.32058421704E+02  0.43157608772E+02  0.00000000000E+00 0.  1.
<mgrwt>
<rscale>  1 0.84099097E+02</rscale>
<asrwt>0</asrwt>
<pdfrwt beam="1">  1       21 0.21803990E-01 0.84099097E+02</pdfrwt>
<pdfrwt beam="2">  1       -1 0.34664493E-02 0.84099097E+02</pdfrwt>
<totfact> 0.48668535E+05</totfact>
</mgrwt>
</event>
<event>
 6    2  0.9453093E+000  0.8425660E+02  0.7546771E-02  0.1317388E+00
          2   -1    0    0  502    0 -0.00000000000E+00  0.00000000000E+00  0.19165327641E+04  0.19165327641E+04  0.00000000000E+00 0. -1.
         21   -1    0    0  501  502  0.00000000000E+00 -0.00000000000E+00 -0.16920101482E+01  0.16920101482E+01  0.00000000000E+00 0.  1.
         24    2    1    2    0    0  0.19225463285E+02 -0.20095597807E+02  0.15727993066E+04  0.15750545495E+04  0.79534416287E+02 0.  0.
        -13    1    3    3    0    0 -0.18901321067E+02 -0.17265288362E+02  0.18884332812E+03  0.19057059767E+03  0.00000000000E+00 0.  1.
         14    1    3    3    0    0  0.38126784352E+02 -0.28303094456E+01  0.13839559785E+04  0.13844839518E+04  0.00000000000E+00 0. -1.
          1    1    1    2  501    0 -0.19225463285E+02  0.20095597807E+02  0.34204144734E+03  0.34317022480E+03  0.00000000000E+00 0. -1.
<mgrwt>
<rscale>  1 0.84256601E+02</rscale>
<asrwt>0</asrwt>
<pdfrwt beam="1">  1       21 0.26031079E-03 0.84256601E+02</pdfrwt>
<pdfrwt beam="2">  1        2 0.29484946E+00 0.84256601E+02</pdfrwt>
<totfact> 0.30928763E+06</totfact>
</mgrwt>
</event>
<event>
 6    2  0.9718191E+000  0.1074969E+03  0.7546771E-02  0.1265277E+00
         21   -1    0    0  501  502  0.00000000000E+00  0.00000000000E+00  0.17431688109E+02  0.17431688109E+02  0.00000000000E+00 0. -1.
         -1   -1    0    0    0  501 -0.00000000000E+00 -0.00000000000E+00 -0.47861447260E+03  0.47861447260E+03  0.00000000000E+00 0.  1.
         24    2    1    2    0    0 -0.67587043094E+02  0.19293048232E+02 -0.33214763861E+03  0.34910978340E+03  0.81334844477E+02 0.  0.
        -13    1    3    3    0    0 -0.43006363685E+02  0.13003239014E+02 -0.31568072029E+03  0.31886195870E+03  0.00000000000E+00 0.  1.
         14    1    3    3    0    0 -0.24580679409E+02  0.62898092180E+01 -0.16466918324E+02  0.30247824704E+02  0.00000000000E+00 0. -1.
         -2    1    1    2    0  502  0.67587043094E+02 -0.19293048232E+02 -0.12903514588E+03  0.14693637731E+03  0.00000000000E+00 0.  1.
<mgrwt>
<rscale>  1 0.10749692E+03</rscale>
<asrwt>0</asrwt>
<pdfrwt beam="1">  1       21 0.26817984E-02 0.10749692E+03</pdfrwt>
<pdfrwt beam="2">  1       -1 0.73632988E-01 0.10749692E+03</pdfrwt>
<totfact> 0.13333001E+05</totfact>
</mgrwt>
</event>
<event>
 6    2  0.9453093E+000  0.9875796E+02  0.7546771E-02  0.1282930E+00
         21   -1    0    0  501  502  0.00000000000E+00  0.00000000000E+00  0.21448768487E+03  0.21448768487E+03  0.00000000000E+00 0.  1.
         -3   -1    0    0    0  501 -0.00000000000E+00 -0.00000000000E+00 -0.42123845013E+02  0.42123845013E+02  0.00000000000E+00 0.  1.
         24    2    1    2    0    0  0.51891133611E+02  0.23423934131E+02  0.29887848790E+02  0.10318148567E+03  0.80695508187E+02 0.  0.
        -11    1    3    3    0    0  0.66916426423E+02 -0.18335692230E+01  0.31001300344E+02  0.73771611914E+02  0.00000000000E+00 0.  1.
         12    1    3    3    0    0 -0.15025292812E+02  0.25257503354E+02 -0.11134515550E+01  0.29409873753E+02  0.00000000000E+00 0. -1.
         -4    1    1    2    0  502 -0.51891133611E+02 -0.23423934131E+02  0.14247599107E+03  0.15343004422E+03  0.00000000000E+00 0.  1.
<mgrwt>
<rscale>  1 0.98757964E+02</rscale>
<asrwt>0</asrwt>
<pdfrwt beam="1">  1       21 0.32998105E-01 0.98757964E+02</pdfrwt>
<pdfrwt beam="2">  1       -3 0.64805917E-02 0.98757964E+02</pdfrwt>
<totfact> 0.61548119E+04</totfact>
</mgrwt>
</event>
<event>
 6    2  0.9453093E+000  0.9109942E+02  0.7546771E-02  0.1300211E+00
         21   -1    0    0  501  502  0.00000000000E+00  0.00000000000E+00  0.14543407695E+02  0.14543407695E+02  0.00000000000E+00 0.  1.
          2   -1    0    0  502    0 -0.00000000000E+00 -0.00000000000E+00 -0.63173729725E+03  0.63173729725E+03  0.00000000000E+00 0. -1.
         24    2    1    2    0    0 -0.28708530819E+02  0.32722724628E+02 -0.13952469293E+03  0.16663206494E+03  0.80025925060E+02 0.  0.
        -11    1    3    3    0    0 -0.45470024586E+02  0.43418031983E+02 -0.68949861149E+02  0.93309870805E+02  0.00000000000E+00 0.  1.
         12    1    3    3    0    0  0.16761493767E+02 -0.10695307355E+02 -0.70574831778E+02  0.73322194138E+02  0.00000000000E+00 0. -1.
          1    1    1    2  501    0  0.28708530819E+02 -0.32722724628E+02 -0.47766919663E+03  0.47964864000E+03  0.00000000000E+00 0. -1.
<mgrwt>
<rscale>  1 0.91099424E+02</rscale>
<asrwt>0</asrwt>
<pdfrwt beam="1">  1       21 0.22374472E-02 0.91099424E+02</pdfrwt>
<pdfrwt beam="2">  1        2 0.97190358E-01 0.91099424E+02</pdfrwt>
<totfact> 0.58428412E+05</totfact>
</mgrwt>
</event>
<event>
 6    2  0.9453093E+000  0.8437159E+02  0.7546771E-02  0.1317084E+00
         21   -1    0    0  501  502  0.00000000000E+00  0.00000000000E+00  0.40031268190E+03  0.40031268190E+03  0.00000000000E+00 0. -1.
          2   -1    0    0  502    0 -0.00000000000E+00 -0.00000000000E+00 -0.83474762954E+01  0.83474762954E+01  0.00000000000E+00 0. -1.
         24    2    1    2    0    0  0.15934212849E+02 -0.17693146964E+02  0.23065100142E+03  0.24559814833E+03  0.80942074474E+02 0.  0.
        -13    1    3    3    0    0 -0.14310239280E+02 -0.19579413596E+02  0.20341024256E+03  0.20485083150E+03  0.00000000000E+00 0.  1.
         14    1    3    3    0    0  0.30244452128E+02  0.18862666311E+01  0.27240758857E+02  0.40747316838E+02  0.00000000000E+00 0. -1.
          1    1    1    2  501    0 -0.15934212849E+02  0.17693146964E+02  0.16131420419E+03  0.16306200986E+03  0.00000000000E+00 0. -1.
<mgrwt>
<rscale>  1 0.84371595E+02</rscale>
<asrwt>0</asrwt>
<pdfrwt beam="1">  1       21 0.61586551E-01 0.84371595E+02</pdfrwt>
<pdfrwt beam="2">  1        2 0.12842274E-02 0.84371595E+02</pdfrwt>
<totfact> 0.27742425E+05</totfact>
</mgrwt>
</event>
<event>
 6    2  0.9453093E+000  0.9088064E+02  0.7546771E-02  0.1300733E+00
          2   -1    0    0  502    0 -0.00000000000E+00  0.00000000000E+00  0.12749228423E+02  0.12749228423E+02  0.00000000000E+00 0. -1.
         21   -1    0    0  501  502  0.00000000000E+00 -0.00000000000E+00 -0.27923265981E+03  0.27923265981E+03  0.00000000000E+00 0.  1.
         24    2    1    2    0    0  0.17086346046E+02  0.15134578338E+02 -0.24203387590E+03  0.25853372765E+03  0.87967565431E+02 0.  0.
        -13    1    3    3    0    0  0.52554862343E+02  0.16818867207E+02 -0.13896523925E+03  0.14951998385E+03  0.00000000000E+00 0.  1.
         14    1    3    3    0    0 -0.35468516297E+02 -0.16842888686E+01 -0.10306863665E+03  0.10901374380E+03  0.00000000000E+00 0. -1.
          1    1    1    2  501    0 -0.17086346046E+02 -0.15134578338E+02 -0.24449555485E+02  0.33448160579E+02  0.00000000000E+00 0. -1.
<mgrwt>
<rscale>  1 0.90880643E+02</rscale>
<asrwt>0</asrwt>
<pdfrwt beam="1">  1       21 0.42958870E-01 0.90880643E+02</pdfrwt>
<pdfrwt beam="2">  1        2 0.19614198E-02 0.90880643E+02</pdfrwt>
<totfact> 0.32916852E+05</totfact>
</mgrwt>
</event>
<event>
 6    2  0.9453093E+000  0.8528962E+02  0.7546771E-02  0.1314677E+00
         21   -1    0    0  501  502  0.00000000000E+00  0.00000000000E+00  0.15668565341E+01  0.15668565341E+01  0.00000000000E+00 0.  1.
          2   -1    0    0  502    0 -0.00000000000E+00 -0.00000000000E+00 -0.20077607098E+04  0.20077607098E+04  0.00000000000E+00 0. -1.
         24    2    1    2    0    0  0.12288564308E+02 -0.22665789544E+02 -0.16491638339E+04  0.16513678178E+04  0.81299273410E+02 0.  0.
        -11    1    3    3    0    0  0.33598664343E+02 -0.24084106222E+02 -0.42238972171E+03  0.42440781263E+03  0.00000000000E+00 0.  1.
         12    1    3    3    0    0 -0.21310100036E+02  0.14183166777E+01 -0.12267741122E+04  0.12269600052E+04  0.00000000000E+00 0. -1.
          1    1    1    2  501    0 -0.12288564308E+02  0.22665789544E+02 -0.35703001942E+03  0.35795974857E+03  0.00000000000E+00 0. -1.
<mgrwt>
<rscale>  1 0.85289617E+02</rscale>
<asrwt>0</asrwt>
<pdfrwt beam="1">  1       21 0.24105444E-03 0.85289617E+02</pdfrwt>
<pdfrwt beam="2">  1        2 0.30888679E+00 0.85289617E+02</pdfrwt>
<totfact> 0.31283582E+06</totfact>
</mgrwt>
</event>
<event>
 6    2  0.9453093E+000  0.8585344E+02  0.7546771E-02  0.1313216E+00
         -3   -1    0    0    0  501 -0.00000000000E+00  0.00000000000E+00  0.24853257818E+03  0.24853257818E+03  0.00000000000E+00 0.  1.
         21   -1    0    0  501  502  0.00000000000E+00 -0.00000000000E+00 -0.14299145419E+02  0.14299145419E+02  0.00000000000E+00 0.  1.
         24    2    1    2    0    0 -0.27157125209E+02  0.12693690789E+01  0.20813040233E+03  0.22514234917E+03  0.81435202865E+02 0.  0.
        -11    1    3    3    0    0 -0.16405678975E+02  0.32174089253E+02  0.40143709480E+02  0.53998478985E+02  0.00000000000E+00 0.  1.
         12    1    3    3    0    0 -0.10751446234E+02 -0.30904720174E+02  0.16798669285E+03  0.17114387018E+03  0.00000000000E+00 0. -1.
         -4    1    1    2    0  502  0.27157125209E+02 -0.12693690789E+01  0.26103030427E+02  0.37689374431E+02  0.00000000000E+00 0.  1.
<mgrwt>
<rscale>  1 0.85853439E+02</rscale>
<asrwt>0</asrwt>
<pdfrwt beam="1">  1       21 0.21998687E-02 0.85853439E+02</pdfrwt>
<pdfrwt beam="2">  1       -3 0.38235778E-01 0.85853439E+02</pdfrwt>
<totfact> 0.31324541E+05</totfact>
</mgrwt>
</event>
<event>
 6    2  0.9453093E+000  0.1314493E+03  0.7546771E-02  0.1225321E+00
          2   -1    0    0  502    0 -0.00000000000E+00  0.00000000000E+00  0.19891821211E+04  0.19891821211E+04  0.00000000000E+00 0. -1.
         21   -1    0    0  501  502  0.00000000000E+00 -0.00000000000E+00 -0.45924924495E+02  0.45924924495E+02  0.00000000000E+00 0. -1.
         24    2    1    2    0    0  0.69710035091E+02  0.75806142373E+02  0.19262458790E+04  0.19307257966E+04  0.81687545251E+02 0.  0.
        -11    1    3    3    0    0  0.65182120230E+02  0.24446214178E+02  0.71447195437E+03  0.71785548669E+03  0.00000000000E+00 0.  1.
         12    1    3    3    0    0  0.45279148613E+01  0.51359928195E+02  0.12117739246E+04  0.12128703099E+04  0.00000000000E+00 0. -1.
          1    1    1    2  501    0 -0.69710035091E+02 -0.75806142373E+02  0.17011317589E+02  0.10438124899E+03  0.00000000000E+00 0. -1.
<mgrwt>
<rscale>  1 0.13144929E+03</rscale>
<asrwt>0</asrwt>
<pdfrwt beam="1">  1       21 0.70653746E-02 0.13144929E+03</pdfrwt>
<pdfrwt beam="2">  1        2 0.30602795E+00 0.13144929E+03</pdfrwt>
<totfact> 0.14903068E+04</totfact>
</mgrwt>
</event>
<event>
 6    2  0.9453093E+000  0.8270120E+02  0.7546771E-02  0.1321556E+00
          2   -1    0    0  502    0 -0.00000000000E+00  0.00000000000E+00  0.17907723402E+04  0.17907723402E+04  0.00000000000E+00 0. -1.
         21   -1    0    0  501  502  0.00000000000E+00 -0.00000000000E+00 -0.22928747766E+01  0.22928747766E+01  0.00000000000E+00 0. -1.
         24    2    1    2    0    0  0.30483460889E+02  0.70469681093E+01  0.15886578657E+04  0.15908090090E+04  0.76554475131E+02 0.  0.
        -13    1    3    3    0    0 -0.65778466448E+01 -0.27825052774E+02  0.80020698401E+03  0.80071762744E+03  0.00000000000E+00 0.  1.
         14    1    3    3    0    0  0.37061307533E+02  0.34872020883E+02  0.78845088165E+03  0.79009138151E+03  0.00000000000E+00 0. -1.
          1    1    1    2  501    0 -0.30483460889E+02 -0.70469681093E+01  0.19982159978E+03  0.20225620605E+03  0.00000000000E+00 0. -1.
<mgrwt>
<rscale>  1 0.82701202E+02</rscale>
<asrwt>0</asrwt>
<pdfrwt beam="1">  1       21 0.35275140E-03 0.82701202E+02</pdfrwt>
<pdfrwt beam="2">  1        2 0.27550232E+00 0.82701202E+02</pdfrwt>
<totfact> 0.22551525E+06</totfact>
</mgrwt>
</event>
<event>
 6    2  0.9453093E+000  0.9141977E+02  0.7546771E-02  0.1299449E+00
         21   -1    0    0  501  502  0.00000000000E+00  0.00000000000E+00  0.47260979306E+01  0.47260979306E+01  0.00000000000E+00 0.  1.
          2   -1    0    0  502    0 -0.00000000000E+00 -0.00000000000E+00 -0.15051194533E+04  0.15051194533E+04  0.00000000000E+00 0. -1.
         24    2    1    2    0    0  0.54325413016E+01  0.43779977253E+02 -0.13506129779E+04  0.13537034352E+04  0.80071065831E+02 0.  0.
        -13    1    3    3    0    0 -0.21840099713E+02  0.12606959803E+02 -0.13202662304E+03  0.13441337204E+03  0.00000000000E+00 0.  1.
         14    1    3    3    0    0  0.27272641014E+02  0.31173017451E+02 -0.12185863548E+04  0.12192900631E+04  0.00000000000E+00 0. -1.
          1    1    1    2  501    0 -0.54325413016E+01 -0.43779977253E+02 -0.14978037753E+03  0.15614211606E+03  0.00000000000E+00 0. -1.
<mgrwt>
<rscale>  1 0.91419771E+02</rscale>
<asrwt>0</asrwt>
<pdfrwt beam="1">  1       21 0.72709170E-03 0.91419771E+02</pdfrwt>
<pdfrwt beam="2">  1        2 0.23155693E+00 0.91419771E+02</pdfrwt>
<totfact> 0.10445890E+06</totfact>
</mgrwt>
</event>
<event>
 6    2  0.9453093E+000  0.8490230E+02  0.7546771E-02  0.1315688E+00
         21   -1    0    0  501  502  0.00000000000E+00  0.00000000000E+00  0.18344251793E+03  0.18344251793E+03  0.00000000000E+00 0.  1.
          2   -1    0    0  502    0 -0.00000000000E+00 -0.00000000000E+00 -0.18125687126E+02  0.18125687126E+02  0.00000000000E+00 0. -1.
         24    2    1    2    0    0 -0.19631419898E+02 -0.18685018189E+02  0.10211235449E+03  0.13279809252E+03  0.80460411916E+02 0.  0.
        -11    1    3    3    0    0 -0.81850350370E+01 -0.13167757015E+02  0.11420757132E+03  0.11525516895E+03  0.00000000000E+00 0.  1.
         12    1    3    3    0    0 -0.11446384861E+02 -0.55172611741E+01 -0.12095216829E+02  0.17542923570E+02  0.00000000000E+00 0. -1.
          1    1    1    2  501    0  0.19631419898E+02  0.18685018189E+02  0.63204476314E+02  0.68770112535E+02  0.00000000000E+00 0. -1.
<mgrwt>
<rscale>  1 0.84902299E+02</rscale>
<asrwt>0</asrwt>
<pdfrwt beam="1">  1       21 0.28221925E-01 0.84902299E+02</pdfrwt>
<pdfrwt beam="2">  1        2 0.27885674E-02 0.84902299E+02</pdfrwt>
<totfact> 0.46180301E+05</totfact>
</mgrwt>
</event>
<event>
 6    2  0.9453093E+000  0.8204429E+02  0.7546771E-02  0.1323348E+00
          2   -1    0    0  502    0 -0.00000000000E+00  0.00000000000E+00  0.13460797020E+04  0.13460797020E+04  0.00000000000E+00 0. -1.
         21   -1    0    0  501  502  0.00000000000E+00 -0.00000000000E+00 -0.36081219960E+01  0.36081219960E+01  0.00000000000E+00 0. -1.
         24    2    1    2    0    0 -0.22138227878E+02  0.19561201034E+02  0.12482521308E+04  0.12509455011E+04  0.76540988968E+02 0.  0.
        -13    1    3    3    0    0 -0.35093481460E+02 -0.19877698851E+02  0.65881100514E+03  0.66004440445E+03  0.00000000000E+00 0.  1.
         14    1    3    3    0    0  0.12955253582E+02  0.39438899885E+02  0.58944112564E+03  0.59090109664E+03  0.00000000000E+00 0. -1.
          1    1    1    2  501    0  0.22138227878E+02 -0.19561201034E+02  0.94219449177E+02  0.98742322855E+02  0.00000000000E+00 0. -1.
<mgrwt>
<rscale>  1 0.82044285E+02</rscale>
<asrwt>0</asrwt>
<pdfrwt beam="1">  1       21 0.55509676E-03 0.82044285E+02</pdfrwt>
<pdfrwt beam="2">  1        2 0.20708879E+00 0.82044285E+02</pdfrwt>
<totfact> 0.18967309E+06</totfact>
</mgrwt>
</event>
<event>
 6    2  0.9453093E+000  0.9023636E+02  0.7546771E-02  0.1302280E+00
         21   -1    0    0  501  502  0.00000000000E+00  0.00000000000E+00  0.11961980846E+02  0.11961980846E+02  0.00000000000E+00 0. -1.
          2   -1    0    0  502    0 -0.00000000000E+00 -0.00000000000E+00 -0.40529274995E+03  0.40529274995E+03  0.00000000000E+00 0. -1.
         24    2    1    2    0    0 -0.81352442887E+01  0.39340527928E+02 -0.33116062713E+03  0.34323455861E+03  0.80800630736E+02 0.  0.
        -11    1    3    3    0    0  0.13774240523E+02 -0.83847251170E+01 -0.12844798941E+02  0.20616065995E+02  0.00000000000E+00 0.  1.
         12    1    3    3    0    0 -0.21909484812E+02  0.47725253045E+02 -0.31831582818E+03  0.32261849261E+03  0.00000000000E+00 0. -1.
          1    1    1    2  501    0  0.81352442887E+01 -0.39340527928E+02 -0.62170141981E+02  0.74020172191E+02  0.00000000000E+00 0. -1.
<mgrwt>
<rscale>  1 0.90236363E+02</rscale>
<asrwt>0</asrwt>
<pdfrwt beam="1">  1       21 0.18403050E-02 0.90236363E+02</pdfrwt>
<pdfrwt beam="2">  1        2 0.62352723E-01 0.90236363E+02</pdfrwt>
<totfact> 0.12925678E+06</totfact>
</mgrwt>
</event>
<event>
 6    2  0.9453093E+000  0.8468825E+02  0.7546771E-02  0.1316250E+00
         21   -1    0    0  501  502  0.00000000000E+00  0.00000000000E+00  0.30235485253E+01  0.30235485253E+01  0.00000000000E+00 0. -1.
          2   -1    0    0  502    0 -0.00000000000E+00 -0.00000000000E+00 -0.10532479999E+04  0.10532479999E+04  0.00000000000E+00 0. -1.
         24    2    1    2    0    0 -0.28133253641E+02 -0.69709223345E+00 -0.77699986021E+03  0.78160148614E+03  0.79875743968E+02 0.  0.
        -11    1    3    3    0    0  0.24075458080E+02 -0.17409843154E+02 -0.25067701880E+03  0.25243157107E+03  0.00000000000E+00 0.  1.
         12    1    3    3    0    0 -0.52208711720E+02  0.16712750921E+02 -0.52632284141E+03  0.52916991507E+03  0.00000000000E+00 0. -1.
          1    1    1    2  501    0  0.28133253641E+02  0.69709223345E+00 -0.27322459121E+03  0.27467006233E+03  0.00000000000E+00 0. -1.
<mgrwt>
<rscale>  1 0.84688254E+02</rscale>
<asrwt>0</asrwt>
<pdfrwt beam="1">  1       21 0.46516062E-03 0.84688254E+02</pdfrwt>
<pdfrwt beam="2">  1        2 0.16203840E+00 0.84688254E+02</pdfrwt>
<totfact> 0.35945095E+06</totfact>
</mgrwt>
</event>
<event>
 6    2  0.9453093E+000  0.8786345E+02  0.7546771E-02  0.1308110E+00
         -3   -1    0    0    0  501 -0.00000000000E+00  0.00000000000E+00  0.10913763683E+03  0.10913763683E+03  0.00000000000E+00 0.  1.
         21   -1    0    0  501  502  0.00000000000E+00 -0.00000000000E+00 -0.66869633093E+02  0.66869633093E+02  0.00000000000E+00 0.  1.
         24    2    1    2    0    0  0.33827686884E+02  0.51860563651E+00  0.84494956868E+02  0.12189907349E+03  0.81088871178E+02 0.  0.
        -13    1    3    3    0    0  0.19992442512E+02  0.24491736035E+02  0.88457787710E+02  0.93937868287E+02  0.00000000000E+00 0.  1.
         14    1    3    3    0    0  0.13835244372E+02 -0.23973130399E+02 -0.39628308425E+01  0.27961205200E+02  0.00000000000E+00 0. -1.
         -4    1    1    2    0  502 -0.33827686884E+02 -0.51860563651E+00 -0.42226953127E+02  0.54108196441E+02  0.00000000000E+00 0.  1.
<mgrwt>
<rscale>  1 0.87863453E+02</rscale>
<asrwt>0</asrwt>
<pdfrwt beam="1">  1       21 0.10287636E-01 0.87863453E+02</pdfrwt>
<pdfrwt beam="2">  1       -3 0.16790406E-01 0.87863453E+02</pdfrwt>
<totfact> 0.10606565E+05</totfact>
</mgrwt>
</event>
<event>
 6    2  0.9453093E+000  0.8547541E+02  0.7546771E-02  0.1314194E+00
         21   -1    0    0  501  502  0.00000000000E+00  0.00000000000E+00  0.87031639221E+02  0.87031639221E+02  0.00000000000E+00 0. -1.
          4   -1    0    0  502    0 -0.00000000000E+00 -0.00000000000E+00 -0.10385027532E+03  0.10385027532E+03  0.00000000000E+00 0. -1.
         24    2    1    2    0    0  0.25906812093E+02 -0.32800555114E+00 -0.83409337788E+02  0.11942848880E+03  0.81454133138E+02 0.  0.
        -11    1    3    3    0    0  0.25461917862E+02 -0.36887022997E+02 -0.63711749007E+02  0.77898322756E+02  0.00000000000E+00 0.  1.
         12    1    3    3    0    0  0.44489423166E+00  0.36559017445E+02 -0.19697588781E+02  0.41530166039E+02  0.00000000000E+00 0. -1.
          3    1    1    2  501    0 -0.25906812093E+02  0.32800555114E+00  0.66590701685E+02  0.71453425750E+02  0.00000000000E+00 0. -1.
<mgrwt>
<rscale>  1 0.85475413E+02</rscale>
<asrwt>0</asrwt>
<pdfrwt beam="1">  1       21 0.13389483E-01 0.85475413E+02</pdfrwt>
<pdfrwt beam="2">  1        4 0.15976965E-01 0.85475413E+02</pdfrwt>
<totfact> 0.61579360E+04</totfact>
</mgrwt>
</event>
<event>
 6    2  0.9453093E+000  0.8405881E+02  0.7546771E-02  0.1317912E+00
         21   -1    0    0  501  502  0.00000000000E+00  0.00000000000E+00  0.43653345505E+01  0.43653345505E+01  0.00000000000E+00 0. -1.
         -3   -1    0    0    0  501 -0.00000000000E+00 -0.00000000000E+00 -0.26840698217E+04  0.26840698217E+04  0.00000000000E+00 0.  1.
         24    2    1    2    0    0 -0.19814176155E+02 -0.24352151139E+02 -0.41072518105E+03  0.41923866402E+03  0.77975984888E+02 0.  0.
        -13    1    3    3    0    0  0.30224408784E+02 -0.63814543501E+01 -0.15035369801E+03  0.15349420950E+03  0.00000000000E+00 0.  1.
         14    1    3    3    0    0 -0.50038584939E+02 -0.17970696789E+02 -0.26037148304E+03  0.26574445452E+03  0.00000000000E+00 0. -1.
         -4    1    1    2    0  502  0.19814176155E+02  0.24352151139E+02 -0.22689793061E+04  0.22691964922E+04  0.00000000000E+00 0.  1.
<mgrwt>
<rscale>  1 0.84058807E+02</rscale>
<asrwt>0</asrwt>
<pdfrwt beam="1">  1       21 0.67159234E-03 0.84058807E+02</pdfrwt>
<pdfrwt beam="2">  1       -3 0.41293234E+00 0.84058807E+02</pdfrwt>
<totfact> 0.39308932E+03</totfact>
</mgrwt>
</event>
<event>
 6    2  0.9453093E+000  0.8277094E+02  0.7546771E-02  0.1321367E+00
          2   -1    0    0  502    0 -0.00000000000E+00  0.00000000000E+00  0.98667093076E+02  0.98667093076E+02  0.00000000000E+00 0. -1.
         21   -1    0    0  501  502  0.00000000000E+00 -0.00000000000E+00 -0.30994955871E+02  0.30994955871E+02  0.00000000000E+00 0.  1.
         24    2    1    2    0    0 -0.27466610342E+02  0.30035426124E+00  0.46157464463E+02  0.94770989353E+02  0.78080240784E+02 0.  0.
        -13    1    3    3    0    0 -0.34882981210E+02 -0.48935550883E+01 -0.10998969546E+02  0.36901850775E+02  0.00000000000E+00 0.  1.
         14    1    3    3    0    0  0.74163708679E+01  0.51939093496E+01  0.57156434009E+02  0.57869138579E+02  0.00000000000E+00 0. -1.
          1    1    1    2  501    0  0.27466610342E+02 -0.30035426124E+00  0.21514672742E+02  0.34891059594E+02  0.00000000000E+00 0. -1.
<mgrwt>
<rscale>  1 0.82770942E+02</rscale>
<asrwt>0</asrwt>
<pdfrwt beam="1">  1       21 0.47684548E-02 0.82770942E+02</pdfrwt>
<pdfrwt beam="2">  1        2 0.15179553E-01 0.82770942E+02</pdfrwt>
<totfact> 0.12501705E+06</totfact>
</mgrwt>
</event>
<event>
 6    2  0.9453093E+000  0.8554063E+02  0.7546771E-02  0.1314025E+00
         21   -1    0    0  501  502  0.00000000000E+00  0.00000000000E+00  0.42946314980E+01  0.42946314980E+01  0.00000000000E+00 0.  1.
          2   -1    0    0  502    0 -0.00000000000E+00 -0.00000000000E+00 -0.68464401499E+03  0.68464401499E+03  0.00000000000E+00 0. -1.
         24    2    1    2    0    0  0.66773167250E+01 -0.21856014356E+02 -0.52775283743E+03  0.53464030628E+03  0.82431351786E+02 0.  0.
        -11    1    3    3    0    0  0.10135447011E+02 -0.52888166901E+02 -0.36016137826E+03  0.36416494048E+03  0.00000000000E+00 0.  1.
         12    1    3    3    0    0 -0.34581302862E+01  0.31032152545E+02 -0.16759145917E+03  0.17047536580E+03  0.00000000000E+00 0. -1.
          1    1    1    2  501    0 -0.66773167250E+01  0.21856014356E+02 -0.15259654606E+03  0.15429834021E+03  0.00000000000E+00 0. -1.
<mgrwt>
<rscale>  1 0.85540632E+02</rscale>
<asrwt>0</asrwt>
<pdfrwt beam="1">  1       21 0.66071254E-03 0.85540632E+02</pdfrwt>
<pdfrwt beam="2">  1        2 0.10532985E+00 0.85540632E+02</pdfrwt>
<totfact> 0.36052435E+06</totfact>
</mgrwt>
</event>
<event>
 6    2  0.9453093E+000  0.1485193E+03  0.7546771E-02  0.1202304E+00
         21   -1    0    0  501  502  0.00000000000E+00  0.00000000000E+00  0.23605746519E+02  0.23605746519E+02  0.00000000000E+00 0. -1.
          2   -1    0    0  502    0 -0.00000000000E+00 -0.00000000000E+00 -0.12309777823E+04  0.12309777823E+04  0.00000000000E+00 0. -1.
         24    2    1    2    0    0  0.12413015836E+03 -0.33629395916E+01 -0.10136966088E+04  0.10245188062E+04  0.81476155987E+02 0.  0.
        -11    1    3    3    0    0  0.15623353577E+02  0.88254984392E+01 -0.31345819184E+02  0.36118402235E+02  0.00000000000E+00 0.  1.
         12    1    3    3    0    0  0.10850680478E+03 -0.12188438031E+02 -0.98235078960E+03  0.98840040395E+03  0.00000000000E+00 0. -1.
          1    1    1    2  501    0 -0.12413015836E+03  0.33629395916E+01 -0.19367542700E+03  0.23006472264E+03  0.00000000000E+00 0. -1.
<mgrwt>
<rscale>  1 0.14851926E+03</rscale>
<asrwt>0</asrwt>
<pdfrwt beam="1">  1       21 0.36316532E-02 0.14851926E+03</pdfrwt>
<pdfrwt beam="2">  1        2 0.18938120E+00 0.14851926E+03</pdfrwt>
<totfact> 0.11309476E+05</totfact>
</mgrwt>
</event>
<event>
 6    2  0.9453093E+000  0.9558357E+02  0.7546771E-02  0.1289867E+00
          4   -1    0    0  502    0 -0.00000000000E+00  0.00000000000E+00  0.17023956979E+03  0.17023956979E+03  0.00000000000E+00 0. -1.
         21   -1    0    0  501  502  0.00000000000E+00 -0.00000000000E+00 -0.50870189682E+02  0.50870189682E+02  0.00000000000E+00 0. -1.
         24    2    1    2    0    0 -0.28022048023E+02  0.43858958856E+02  0.13621461430E+03  0.16640504887E+03  0.80170915497E+02 0.  0.
        -11    1    3    3    0    0  0.77172405867E+01  0.12952304848E+02 -0.62412134625E+01  0.16317804651E+02  0.00000000000E+00 0.  1.
         12    1    3    3    0    0 -0.35739288610E+02  0.30906654008E+02  0.14245582776E+03  0.15008724421E+03  0.00000000000E+00 0. -1.
          3    1    1    2  501    0  0.28022048023E+02 -0.43858958856E+02 -0.16845234193E+02  0.54704710605E+02  0.00000000000E+00 0. -1.
<mgrwt>
<rscale>  1 0.95583571E+02</rscale>
<asrwt>0</asrwt>
<pdfrwt beam="1">  1       21 0.78261831E-02 0.95583571E+02</pdfrwt>
<pdfrwt beam="2">  1        4 0.26190703E-01 0.95583571E+02</pdfrwt>
<totfact> 0.65753703E+04</totfact>
</mgrwt>
</event>
<event>
 6    2  0.9453093E+000  0.7720173E+02  0.7546771E-02  0.1337185E+00
          2   -1    0    0  502    0 -0.00000000000E+00  0.00000000000E+00  0.22166308847E+04  0.22166308847E+04  0.00000000000E+00 0. -1.
         21   -1    0    0  501  502  0.00000000000E+00 -0.00000000000E+00 -0.12138363483E+01  0.12138363483E+01  0.00000000000E+00 0.  1.
         24    2    1    2    0    0 -0.63979806737E+01 -0.20282736981E+02  0.13806251030E+04  0.13827818997E+04  0.74214442832E+02 0.  0.
        -11    1    3    3    0    0  0.17491027920E+02 -0.38859131639E+02  0.56932749659E+03  0.57092010522E+03  0.00000000000E+00 0.  1.
         12    1    3    3    0    0 -0.23889008594E+02  0.18576394658E+02  0.81129760637E+03  0.81186179444E+03  0.00000000000E+00 0. -1.
          1    1    1    2  501    0  0.63979806737E+01  0.20282736981E+02  0.83479194542E+03  0.83506282142E+03  0.00000000000E+00 0. -1.
<mgrwt>
<rscale>  1 0.77201730E+02</rscale>
<asrwt>0</asrwt>
<pdfrwt beam="1">  1       21 0.18674583E-03 0.77201730E+02</pdfrwt>
<pdfrwt beam="2">  1        2 0.34101690E+00 0.77201730E+02</pdfrwt>
<totfact> 0.35715201E+06</totfact>
</mgrwt>
</event>
<event>
 6    2  0.9453093E+000  0.9083643E+02  0.7546771E-02  0.1300839E+00
          2   -1    0    0  502    0 -0.00000000000E+00  0.00000000000E+00  0.20725633247E+03  0.20725633247E+03  0.00000000000E+00 0. -1.
         21   -1    0    0  501  502  0.00000000000E+00 -0.00000000000E+00 -0.22618086358E+02  0.22618086358E+02  0.00000000000E+00 0. -1.
         24    2    1    2    0    0  0.35923523260E+02 -0.99064597385E+01  0.16348247414E+03  0.18702346603E+03  0.82840932076E+02 0.  0.
        -13    1    3    3    0    0 -0.24855704854E+02  0.82115122753E+01  0.62710709601E+02  0.67954897515E+02  0.00000000000E+00 0.  1.
         14    1    3    3    0    0  0.60779228114E+02 -0.18117972014E+02  0.10077176454E+03  0.11906856851E+03  0.00000000000E+00 0. -1.
          1    1    1    2  501    0 -0.35923523260E+02  0.99064597385E+01  0.21155771973E+02  0.42850952798E+02  0.00000000000E+00 0. -1.
<mgrwt>
<rscale>  1 0.90836433E+02</rscale>
<asrwt>0</asrwt>
<pdfrwt beam="1">  1       21 0.34797057E-02 0.90836433E+02</pdfrwt>
<pdfrwt beam="2">  1        2 0.31885588E-01 0.90836433E+02</pdfrwt>
<totfact> 0.93506138E+05</totfact>
</mgrwt>
</event>
<event>
 6    2  0.9453093E+000  0.8236302E+02  0.7546771E-02  0.1322476E+00
          2   -1    0    0  502    0 -0.00000000000E+00  0.00000000000E+00  0.70379639215E+02  0.70379639215E+02  0.00000000000E+00 0. -1.
         21   -1    0    0  501  502  0.00000000000E+00 -0.00000000000E+00 -0.44950572707E+02  0.44950572707E+02  0.00000000000E+00 0.  1.
         24    2    1    2    0    0 -0.15658047423E+02 -0.23099710785E+02  0.87678133111E+01  0.82828389735E+02  0.77491267304E+02 0.  0.
        -13    1    3    3    0    0 -0.17419986717E+02  0.23287358601E+02 -0.12639121887E+02  0.31709689527E+02  0.00000000000E+00 0.  1.
         14    1    3    3    0    0  0.17619392943E+01 -0.46387069386E+02  0.21406935198E+02  0.51118700207E+02  0.00000000000E+00 0. -1.
          1    1    1    2  501    0  0.15658047423E+02  0.23099710785E+02  0.16661253197E+02  0.32501822188E+02  0.00000000000E+00 0. -1.
<mgrwt>
<rscale>  1 0.82363023E+02</rscale>
<asrwt>0</asrwt>
<pdfrwt beam="1">  1       21 0.69154727E-02 0.82363023E+02</pdfrwt>
<pdfrwt beam="2">  1        2 0.10827637E-01 0.82363023E+02</pdfrwt>
<totfact> 0.99782546E+05</totfact>
</mgrwt>
</event>
<event>
 6    2  0.9453093E+000  0.7884040E+02  0.7546771E-02  0.1332375E+00
         21   -1    0    0  501  502  0.00000000000E+00  0.00000000000E+00  0.53285919152E+01  0.53285919152E+01  0.00000000000E+00 0.  1.
          2   -1    0    0  502    0 -0.00000000000E+00 -0.00000000000E+00 -0.53857312486E+03  0.53857312486E+03  0.00000000000E+00 0. -1.
         24    2    1    2    0    0 -0.13153208267E+02 -0.15936963524E+02 -0.31639777542E+03  0.32607263253E+03  0.76084267101E+02 0.  0.
        -11    1    3    3    0    0 -0.10975700934E+02 -0.43636689618E+02 -0.12891075821E+03  0.13653794445E+03  0.00000000000E+00 0.  1.
         12    1    3    3    0    0 -0.21775073332E+01  0.27699726095E+02 -0.18748701721E+03  0.18953468809E+03  0.00000000000E+00 0. -1.
          1    1    1    2  501    0  0.13153208267E+02  0.15936963524E+02 -0.21684675753E+03  0.21782908425E+03  0.00000000000E+00 0. -1.
<mgrwt>
<rscale>  1 0.78840405E+02</rscale>
<asrwt>0</asrwt>
<pdfrwt beam="1">  1       21 0.81978336E-03 0.78840405E+02</pdfrwt>
<pdfrwt beam="2">  1        2 0.82857405E-01 0.78840405E+02</pdfrwt>
<totfact> 0.33438967E+06</totfact>
</mgrwt>
</event>
<event>
 6    2  0.9453093E+000  0.8516246E+02  0.7546771E-02  0.1315008E+00
         21   -1    0    0  501  502  0.00000000000E+00  0.00000000000E+00  0.20905530372E+01  0.20905530372E+01  0.00000000000E+00 0.  1.
          2   -1    0    0  502    0 -0.00000000000E+00 -0.00000000000E+00 -0.16579326743E+04  0.16579326743E+04  0.00000000000E+00 0. -1.
         24    2    1    2    0    0 -0.22592021100E+02 -0.20412479431E+02 -0.13449967719E+04  0.13476902320E+04  0.79533492112E+02 0.  0.
        -11    1    3    3    0    0 -0.91203832329E+01  0.18187951925E+02 -0.10137813543E+03  0.10339975497E+03  0.00000000000E+00 0.  1.
         12    1    3    3    0    0 -0.13471637867E+02 -0.38600431356E+02 -0.12436186365E+04  0.12442904771E+04  0.00000000000E+00 0. -1.
          1    1    1    2  501    0  0.22592021100E+02  0.20412479431E+02 -0.31084534935E+03  0.31233299529E+03  0.00000000000E+00 0. -1.
<mgrwt>
<rscale>  1 0.85162463E+02</rscale>
<asrwt>0</asrwt>
<pdfrwt beam="1">  1       21 0.32162273E-03 0.85162463E+02</pdfrwt>
<pdfrwt beam="2">  1        2 0.25506721E+00 0.85162463E+02</pdfrwt>
<totfact> 0.30300236E+06</totfact>
</mgrwt>
</event>
<event>
 6    2  0.9993724E+000  0.8412330E+02  0.7546771E-02  0.1317741E+00
         21   -1    0    0  501  502  0.00000000000E+00  0.00000000000E+00  0.65276436818E+02  0.65276436818E+02  0.00000000000E+00 0. -1.
         -3   -1    0    0    0  501 -0.00000000000E+00 -0.00000000000E+00 -0.48932865000E+02  0.48932865000E+02  0.00000000000E+00 0.  1.
         24    2    1    2    0    0 -0.18984452879E+02 -0.15557013328E+02  0.25669891198E+02  0.87952676979E+02  0.80463034735E+02 0.  0.
        -13    1    3    3    0    0  0.74828084680E+01 -0.85532470178E+01 -0.26611471123E+02  0.28936496893E+02  0.00000000000E+00 0.  1.
         14    1    3    3    0    0 -0.26467261347E+02 -0.70037663102E+01  0.52281362322E+02  0.59016180086E+02  0.00000000000E+00 0. -1.
         -4    1    1    2    0  502  0.18984452879E+02  0.15557013328E+02 -0.93263193805E+01  0.26256624840E+02  0.00000000000E+00 0.  1.
<mgrwt>
<rscale>  1 0.84123303E+02</rscale>
<asrwt>0</asrwt>
<pdfrwt beam="1">  1       21 0.10042529E-01 0.84123303E+02</pdfrwt>
<pdfrwt beam="2">  1       -3 0.75281331E-02 0.84123303E+02</pdfrwt>
<totfact> 0.41329904E+05</totfact>
</mgrwt>
</event>
<event>
 6    2  0.9453093E+000  0.8913804E+02  0.7546771E-02  0.1304953E+00
          2   -1    0    0  502    0 -0.00000000000E+00  0.00000000000E+00  0.32440864484E+04  0.32440864484E+04  0.00000000000E+00 0. -1.
         21   -1    0    0  501  502  0.00000000000E+00 -0.00000000000E+00 -0.19456014528E+01  0.19456014528E+01  0.00000000000E+00 0.  1.
         24    2    1    2    0    0 -0.49746862623E+02 -0.13086120009E+02  0.12264662135E+04  0.12297011680E+04  0.72798303802E+02 0.  0.
        -13    1    3    3    0    0 -0.54083004055E+02 -0.28126891802E+02  0.61046640509E+03  0.61350250620E+03  0.00000000000E+00 0.  1.
         14    1    3    3    0    0  0.43361414320E+01  0.15040771793E+02  0.61599980838E+03  0.61619866185E+03  0.00000000000E+00 0. -1.
          1    1    1    2  501    0  0.49746862623E+02  0.13086120009E+02  0.20156746335E+04  0.20163308818E+04  0.00000000000E+00 0. -1.
<mgrwt>
<rscale>  1 0.89138039E+02</rscale>
<asrwt>0</asrwt>
<pdfrwt beam="1">  1       21 0.29932590E-03 0.89138039E+02</pdfrwt>
<pdfrwt beam="2">  1        2 0.49908589E+00 0.89138039E+02</pdfrwt>
<totfact> 0.48786463E+05</totfact>
</mgrwt>
</event>
<event>
 6    2  0.9453093E+000  0.8380903E+02  0.7546771E-02  0.1318577E+00
         21   -1    0    0  501  502  0.00000000000E+00  0.00000000000E+00  0.72541929917E+03  0.72541929917E+03  0.00000000000E+00 0.  1.
         -3   -1    0    0    0  501 -0.00000000000E+00 -0.00000000000E+00 -0.38287813380E+01  0.38287813380E+01  0.00000000000E+00 0.  1.
         24    2    1    2    0    0  0.16779849877E+02 -0.12205615724E+02  0.53799658530E+03  0.54448533405E+03  0.81199832397E+02 0.  0.
        -11    1    3    3    0    0  0.28123574098E+02 -0.42568173037E+02  0.35360645493E+03  0.35726812024E+03  0.00000000000E+00 0.  1.
         12    1    3    3    0    0 -0.11343724222E+02  0.30362557313E+02  0.18439013037E+03  0.18721721380E+03  0.00000000000E+00 0. -1.
         -4    1    1    2    0  502 -0.16779849877E+02  0.12205615724E+02  0.18359393253E+03  0.18476274646E+03  0.00000000000E+00 0.  1.
<mgrwt>
<rscale>  1 0.83809028E+02</rscale>
<asrwt>0</asrwt>
<pdfrwt beam="1">  1       21 0.11160286E+00 0.83809028E+02</pdfrwt>
<pdfrwt beam="2">  1       -3 0.58904386E-03 0.83809028E+02</pdfrwt>
<totfact> 0.17224498E+05</totfact>
</mgrwt>
</event>
<event>
 6    2  0.9453093E+000  0.8375540E+02  0.7546771E-02  0.1318720E+00
         21   -1    0    0  501  502  0.00000000000E+00  0.00000000000E+00  0.39515298179E+01  0.39515298179E+01  0.00000000000E+00 0.  1.
          2   -1    0    0  502    0 -0.00000000000E+00 -0.00000000000E+00 -0.77129237070E+03  0.77129237070E+03  0.00000000000E+00 0. -1.
         24    2    1    2    0    0  0.16947143463E+02 -0.15129836346E+02 -0.67371400567E+03  0.67890023497E+03  0.80615445088E+02 0.  0.
        -13    1    3    3    0    0  0.75195952326E+01 -0.35865245004E+01 -0.44025068933E+01  0.94228200343E+01  0.00000000000E+00 0.  1.
         14    1    3    3    0    0  0.94275482303E+01 -0.11543311846E+02 -0.66931149878E+03  0.66947741493E+03  0.00000000000E+00 0. -1.
          1    1    1    2  501    0 -0.16947143463E+02  0.15129836346E+02 -0.93626835215E+02  0.96343665551E+02  0.00000000000E+00 0. -1.
<mgrwt>
<rscale>  1 0.83755403E+02</rscale>
<asrwt>0</asrwt>
<pdfrwt beam="1">  1       21 0.60792709E-03 0.83755403E+02</pdfrwt>
<pdfrwt beam="2">  1        2 0.11866048E+00 0.83755403E+02</pdfrwt>
<totfact> 0.35528375E+06</totfact>
</mgrwt>
</event>
<event>
 6    2  0.9453093E+000  0.8407788E+02  0.7546771E-02  0.1317862E+00
         -3   -1    0    0    0  501 -0.00000000000E+00  0.00000000000E+00  0.32382619870E+02  0.32382619870E+02  0.00000000000E+00 0.  1.
         21   -1    0    0  501  502  0.00000000000E+00 -0.00000000000E+00 -0.10185532766E+03  0.10185532766E+03  0.00000000000E+00 0. -1.
         24    2    1    2    0    0 -0.75117485431E+01  0.28072093829E+02 -0.61296911209E+02  0.10404999517E+03  0.78896269572E+02 0.  0.
        -13    1    3    3    0    0 -0.80634306624E+01 -0.26093093784E+02 -0.89974037160E+01  0.28754508010E+02  0.00000000000E+00 0.  1.
         14    1    3    3    0    0  0.55168211932E+00  0.54165187613E+02 -0.52299507493E+02  0.75295487157E+02  0.00000000000E+00 0. -1.
         -4    1    1    2    0  502  0.75117485431E+01 -0.28072093829E+02 -0.81757965821E+01  0.30187952363E+02  0.00000000000E+00 0.  1.
<mgrwt>
<rscale>  1 0.84077882E+02</rscale>
<asrwt>0</asrwt>
<pdfrwt beam="1">  1       21 0.15670050E-01 0.84077882E+02</pdfrwt>
<pdfrwt beam="2">  1       -3 0.49819415E-02 0.84077882E+02</pdfrwt>
<totfact> 0.36328417E+05</totfact>
</mgrwt>
</event>
<event>
 6    2  0.9453093E+000  0.8326142E+02  0.7546771E-02  0.1320043E+00
         21   -1    0    0  501  502  0.00000000000E+00  0.00000000000E+00  0.11536810548E+02  0.11536810548E+02  0.00000000000E+00 0. -1.
          2   -1    0    0  502    0 -0.00000000000E+00 -0.00000000000E+00 -0.55601585250E+03  0.55601585250E+03  0.00000000000E+00 0. -1.
         24    2    1    2    0    0 -0.21891362311E+02  0.47349992041E+01 -0.53776206687E+03  0.54416955557E+03  0.80192348011E+02 0.  0.
        -11    1    3    3    0    0 -0.69093165888E+01 -0.20249275933E+02 -0.38398764730E+02  0.43957217431E+02  0.00000000000E+00 0.  1.
         12    1    3    3    0    0 -0.14982045722E+02  0.24984275137E+02 -0.49936330214E+03  0.50021233814E+03  0.00000000000E+00 0. -1.
          1    1    1    2  501    0  0.21891362311E+02 -0.47349992041E+01 -0.67169750814E+01  0.23383107482E+02  0.00000000000E+00 0. -1.
<mgrwt>
<rscale>  1 0.83261423E+02</rscale>
<asrwt>0</asrwt>
<pdfrwt beam="1">  1       21 0.17748936E-02 0.83261423E+02</pdfrwt>
<pdfrwt beam="2">  1        2 0.85540915E-01 0.83261423E+02</pdfrwt>
<totfact> 0.96761548E+05</totfact>
</mgrwt>
</event>
<event>
 6    2  0.9453093E+000  0.1301514E+03  0.7546771E-02  0.1227231E+00
         21   -1    0    0  501  502  0.00000000000E+00  0.00000000000E+00  0.86793021969E+02  0.86793021969E+02  0.00000000000E+00 0. -1.
          2   -1    0    0  502    0 -0.00000000000E+00 -0.00000000000E+00 -0.18578513191E+03  0.18578513191E+03  0.00000000000E+00 0. -1.
         24    2    1    2    0    0  0.34976677450E+02 -0.91870304948E+02 -0.11414486530E+03  0.17311395483E+03  0.85298711506E+02 0.  0.
        -11    1    3    3    0    0 -0.24179260999E+02 -0.82878813577E+01 -0.11175966491E+02  0.27896735775E+02  0.00000000000E+00 0.  1.
         12    1    3    3    0    0  0.59155938449E+02 -0.83582423591E+02 -0.10296889881E+03  0.14521721905E+03  0.00000000000E+00 0. -1.
          1    1    1    2  501    0 -0.34976677450E+02  0.91870304948E+02  0.15152755366E+02  0.99464199046E+02  0.00000000000E+00 0. -1.
<mgrwt>
<rscale>  1 0.13015142E+03</rscale>
<asrwt>0</asrwt>
<pdfrwt beam="1">  1       21 0.13352773E-01 0.13015142E+03</pdfrwt>
<pdfrwt beam="2">  1        2 0.28582328E-01 0.13015142E+03</pdfrwt>
<totfact> 0.10904633E+05</totfact>
</mgrwt>
</event>
<event>
 6    2  0.9453093E+000  0.9543213E+02  0.7546771E-02  0.1290206E+00
         21   -1    0    0  501  502  0.00000000000E+00  0.00000000000E+00  0.40913785193E+03  0.40913785193E+03  0.00000000000E+00 0. -1.
         -1   -1    0    0    0  501 -0.00000000000E+00 -0.00000000000E+00 -0.19063617062E+02  0.19063617062E+02  0.00000000000E+00 0.  1.
         24    2    1    2    0    0  0.28465345714E+02 -0.44365492800E+02  0.34773050653E+03  0.36058812572E+03  0.79553242455E+02 0.  0.
        -13    1    3    3    0    0 -0.97833157182E+01  0.12614846151E+02  0.19216387895E+02  0.24982337232E+02  0.00000000000E+00 0.  1.
         14    1    3    3    0    0  0.38248661432E+02 -0.56980338950E+02  0.32851411863E+03  0.33560578849E+03  0.00000000000E+00 0. -1.
         -2    1    1    2    0  502 -0.28465345714E+02  0.44365492800E+02  0.42343728335E+02  0.67613343264E+02  0.00000000000E+00 0.  1.
<mgrwt>
<rscale>  1 0.95432129E+02</rscale>
<asrwt>0</asrwt>
<pdfrwt beam="1">  1       21 0.62944279E-01 0.95432129E+02</pdfrwt>
<pdfrwt beam="2">  1       -1 0.29328645E-02 0.95432129E+02</pdfrwt>
<totfact> 0.77835004E+04</totfact>
</mgrwt>
</event>
<event>
 6    2  0.9453093E+000  0.9887786E+02  0.7546771E-02  0.1282673E+00
         21   -1    0    0  501  502  0.00000000000E+00  0.00000000000E+00  0.22313829576E+02  0.22313829576E+02  0.00000000000E+00 0. -1.
          2   -1    0    0  502    0 -0.00000000000E+00 -0.00000000000E+00 -0.75158985008E+03  0.75158985008E+03  0.00000000000E+00 0. -1.
         24    2    1    2    0    0 -0.20270272293E+02 -0.13902189275E+02 -0.74036498825E+03  0.74693851674E+03  0.95774094406E+02 0.  0.
        -13    1    3    3    0    0 -0.36740377488E+01  0.40356760736E+02 -0.24417026756E+03  0.24751017403E+03  0.00000000000E+00 0.  1.
         14    1    3    3    0    0 -0.16596234544E+02 -0.54258950011E+02 -0.49619472070E+03  0.49942834271E+03  0.00000000000E+00 0. -1.
          1    1    1    2  501    0  0.20270272293E+02  0.13902189275E+02  0.11088967745E+02  0.26965162916E+02  0.00000000000E+00 0. -1.
<mgrwt>
<rscale>  1 0.98877864E+02</rscale>
<asrwt>0</asrwt>
<pdfrwt beam="1">  1       21 0.34328969E-02 0.98877864E+02</pdfrwt>
<pdfrwt beam="2">  1        2 0.11562921E+00 0.98877864E+02</pdfrwt>
<totfact> 0.23950862E+05</totfact>
</mgrwt>
</event>
<event>
 6    2  0.9453093E+000  0.1004224E+03  0.7546771E-02  0.1279410E+00
          2   -1    0    0  502    0 -0.00000000000E+00  0.00000000000E+00  0.56677879359E+03  0.56677879359E+03  0.00000000000E+00 0. -1.
         21   -1    0    0  501  502  0.00000000000E+00 -0.00000000000E+00 -0.13280655391E+02  0.13280655391E+02  0.00000000000E+00 0.  1.
         24    2    1    2    0    0 -0.39880764496E+02 -0.49992463817E+02  0.24101259514E+03  0.26109716840E+03  0.77426988271E+02 0.  0.
        -13    1    3    3    0    0 -0.59734320870E+02 -0.52544847855E+02  0.20499369495E+03  0.21988989311E+03  0.00000000000E+00 0.  1.
         14    1    3    3    0    0  0.19853556374E+02  0.25523840375E+01  0.36018900193E+02  0.41207275281E+02  0.00000000000E+00 0. -1.
          1    1    1    2  501    0  0.39880764496E+02  0.49992463817E+02  0.31248554306E+03  0.31896228059E+03  0.00000000000E+00 0. -1.
<mgrwt>
<rscale>  1 0.10042241E+03</rscale>
<asrwt>0</asrwt>
<pdfrwt beam="1">  1       21 0.20431782E-02 0.10042241E+03</pdfrwt>
<pdfrwt beam="2">  1        2 0.87196719E-01 0.10042241E+03</pdfrwt>
<totfact> 0.76934031E+05</totfact>
</mgrwt>
</event>
<event>
 6    2  0.9453093E+000  0.8237019E+02  0.7546771E-02  0.1322457E+00
         21   -1    0    0  501  502  0.00000000000E+00  0.00000000000E+00  0.78836056097E+00  0.78836056097E+00  0.00000000000E+00 0. -1.
          2   -1    0    0  502    0 -0.00000000000E+00 -0.00000000000E+00 -0.36430176375E+04  0.36430176375E+04  0.00000000000E+00 0. -1.
         24    2    1    2    0    0  0.12545485654E+02 -0.20868222635E+02 -0.29449369137E+04  0.29460886400E+04  0.78689116537E+02 0.  0.
        -13    1    3    3    0    0 -0.27164589210E+02 -0.58432722787E+01 -0.20058400409E+04  0.20060324844E+04  0.00000000000E+00 0.  1.
         14    1    3    3    0    0  0.39710074863E+02 -0.15024950356E+02 -0.93909687281E+03  0.94005615561E+03  0.00000000000E+00 0. -1.
          1    1    1    2  501    0 -0.12545485654E+02  0.20868222635E+02 -0.69729236320E+03  0.69771735803E+03  0.00000000000E+00 0. -1.
<mgrwt>
<rscale>  1 0.82370195E+02</rscale>
<asrwt>0</asrwt>
<pdfrwt beam="1">  1       21 0.12128444E-03 0.82370195E+02</pdfrwt>
<pdfrwt beam="2">  1        2 0.56047258E+00 0.82370195E+02</pdfrwt>
<totfact> 0.10572015E+06</totfact>
</mgrwt>
</event>
<event>
 6    2  0.9453093E+000  0.8374686E+02  0.7546771E-02  0.1318743E+00
         21   -1    0    0  501  502  0.00000000000E+00  0.00000000000E+00  0.77209383445E+03  0.77209383445E+03  0.00000000000E+00 0. -1.
          2   -1    0    0  502    0 -0.00000000000E+00 -0.00000000000E+00 -0.57903647430E+01  0.57903647430E+01  0.00000000000E+00 0. -1.
         24    2    1    2    0    0  0.10534795937E+01 -0.24023587562E+02  0.31506187647E+03  0.32600233626E+03  0.80220288363E+02 0.  0.
        -13    1    3    3    0    0 -0.36132922679E+02 -0.11923716284E+02  0.21908427853E+03  0.22236385545E+03  0.00000000000E+00 0.  1.
         14    1    3    3    0    0  0.37186402272E+02 -0.12099871278E+02  0.95977597942E+02  0.10363848081E+03  0.00000000000E+00 0. -1.
          1    1    1    2  501    0 -0.10534795937E+01  0.24023587562E+02  0.45124159324E+03  0.45188186293E+03  0.00000000000E+00 0. -1.
<mgrwt>
<rscale>  1 0.83746864E+02</rscale>
<asrwt>0</asrwt>
<pdfrwt beam="1">  1       21 0.11878359E+00 0.83746864E+02</pdfrwt>
<pdfrwt beam="2">  1        2 0.89082595E-03 0.83746864E+02</pdfrwt>
<totfact> 0.10496508E+05</totfact>
</mgrwt>
</event>
<event>
 6    2  0.1364325E+001  0.9248366E+02  0.7546771E-02  0.1296946E+00
         -1   -1    0    0    0  501 -0.00000000000E+00  0.00000000000E+00  0.22788704098E+03  0.22788704098E+03  0.00000000000E+00 0.  1.
         21   -1    0    0  501  502  0.00000000000E+00 -0.00000000000E+00 -0.32339169555E+02  0.32339169555E+02  0.00000000000E+00 0. -1.
         24    2    1    2    0    0 -0.33437311514E+02 -0.30902136456E+02  0.44820138958E+02  0.10277194678E+03  0.80499890378E+02 0.  0.
        -13    1    3    3    0    0 -0.16322848875E+01 -0.54989207974E+01  0.59293676661E+02  0.59570484100E+02  0.00000000000E+00 0.  1.
         14    1    3    3    0    0 -0.31805026626E+02 -0.25403215658E+02 -0.14473537703E+02  0.43201462685E+02  0.00000000000E+00 0. -1.
         -2    1    1    2    0  502  0.33437311514E+02  0.30902136456E+02  0.15072773246E+03  0.15745426375E+03  0.00000000000E+00 0.  1.
<mgrwt>
<rscale>  1 0.92483664E+02</rscale>
<asrwt>0</asrwt>
<pdfrwt beam="1">  1       21 0.49752570E-02 0.92483664E+02</pdfrwt>
<pdfrwt beam="2">  1       -1 0.35059544E-01 0.92483664E+02</pdfrwt>
<totfact> 0.18510067E+05</totfact>
</mgrwt>
</event>
<event>
 6    2  0.9453093E+000  0.8282760E+02  0.7546771E-02  0.1321213E+00
          4   -1    0    0  502    0 -0.00000000000E+00  0.00000000000E+00  0.12024270770E+04  0.12024270770E+04  0.00000000000E+00 0. -1.
         21   -1    0    0  501  502  0.00000000000E+00 -0.00000000000E+00 -0.38083704769E+01  0.38083704769E+01  0.00000000000E+00 0.  1.
         24    2    1    2    0    0 -0.48359865183E+01 -0.24091188696E+02  0.47275335221E+03  0.47995431408E+03  0.79098921853E+02 0.  0.
        -11    1    3    3    0    0 -0.19483834012E+02 -0.39617562041E+02  0.14661089992E+03  0.15311409793E+03  0.00000000000E+00 0.  1.
         12    1    3    3    0    0  0.14647847494E+02  0.15526373345E+02  0.32614245229E+03  0.32684021615E+03  0.00000000000E+00 0. -1.
          3    1    1    2  501    0  0.48359865183E+01  0.24091188696E+02  0.72586535432E+03  0.72628113340E+03  0.00000000000E+00 0. -1.
<mgrwt>
<rscale>  1 0.82827602E+02</rscale>
<asrwt>0</asrwt>
<pdfrwt beam="1">  1       21 0.58590411E-03 0.82827602E+02</pdfrwt>
<pdfrwt beam="2">  1        4 0.18498848E+00 0.82827602E+02</pdfrwt>
<totfact> 0.59721407E+04</totfact>
</mgrwt>
</event>
<event>
 6    2  0.9453093E+000  0.8414248E+02  0.7546771E-02  0.1317690E+00
          2   -1    0    0  502    0 -0.00000000000E+00  0.00000000000E+00  0.54325404539E+03  0.54325404539E+03  0.00000000000E+00 0. -1.
         21   -1    0    0  501  502  0.00000000000E+00 -0.00000000000E+00 -0.14256914411E+02  0.14256914411E+02  0.00000000000E+00 0. -1.
         24    2    1    2    0    0  0.17936713119E+02  0.12706062955E+02  0.52887796732E+03  0.53552951505E+03  0.81220609823E+02 0.  0.
        -11    1    3    3    0    0  0.34328267322E+02  0.39740020118E+02  0.33475874015E+03  0.33885264237E+03  0.00000000000E+00 0.  1.
         12    1    3    3    0    0 -0.16391554203E+02 -0.27033957162E+02  0.19411922717E+03  0.19667687268E+03  0.00000000000E+00 0. -1.
          1    1    1    2  501    0 -0.17936713119E+02 -0.12706062955E+02  0.11916365826E+00  0.21981444750E+02  0.00000000000E+00 0. -1.
<mgrwt>
<rscale>  1 0.84142481E+02</rscale>
<asrwt>0</asrwt>
<pdfrwt beam="1">  1       21 0.21933719E-02 0.84142481E+02</pdfrwt>
<pdfrwt beam="2">  1        2 0.83577529E-01 0.84142481E+02</pdfrwt>
<totfact> 0.70865011E+05</totfact>
</mgrwt>
</event>
<event>
 6    2  0.9453093E+000  0.8876159E+02  0.7546771E-02  0.1305879E+00
         21   -1    0    0  501  502  0.00000000000E+00  0.00000000000E+00  0.63121361215E+02  0.63121361215E+02  0.00000000000E+00 0.  1.
          2   -1    0    0  502    0 -0.00000000000E+00 -0.00000000000E+00 -0.11093332356E+03  0.11093332356E+03  0.00000000000E+00 0. -1.
         24    2    1    2    0    0 -0.19707433219E+02  0.31383509952E+02 -0.84036689633E+02  0.12223250335E+03  0.80655514689E+02 0.  0.
        -13    1    3    3    0    0  0.13073583421E+02 -0.16010695904E+02 -0.41105425289E+00  0.20674378646E+02  0.00000000000E+00 0.  1.
         14    1    3    3    0    0 -0.32781016640E+02  0.47394205856E+02 -0.83625635380E+02  0.10155812470E+03  0.00000000000E+00 0. -1.
          1    1    1    2  501    0  0.19707433219E+02 -0.31383509952E+02  0.36224727285E+02  0.51822181427E+02  0.00000000000E+00 0. -1.
<mgrwt>
<rscale>  1 0.88761589E+02</rscale>
<asrwt>0</asrwt>
<pdfrwt beam="1">  1       21 0.97109786E-02 0.88761589E+02</pdfrwt>
<pdfrwt beam="2">  1        2 0.17066665E-01 0.88761589E+02</pdfrwt>
<totfact> 0.33087885E+05</totfact>
</mgrwt>
</event>
<event>
 6    2  0.9453093E+000  0.8344913E+02  0.7546771E-02  0.1319539E+00
         21   -1    0    0  501  502  0.00000000000E+00  0.00000000000E+00  0.59340897790E+03  0.59340897790E+03  0.00000000000E+00 0. -1.
         -3   -1    0    0    0  501 -0.00000000000E+00 -0.00000000000E+00 -0.51786489916E+01  0.51786489916E+01  0.00000000000E+00 0.  1.
         24    2    1    2    0    0 -0.86301491187E+01 -0.23211220756E+02  0.50132677590E+03  0.50822464903E+03  0.79690133663E+02 0.  0.
        -13    1    3    3    0    0 -0.14447975316E+02 -0.12857113000E+02  0.24332182394E+02  0.31082220730E+02  0.00000000000E+00 0.  1.
         14    1    3    3    0    0  0.58178261977E+01 -0.10354107756E+02  0.47699459350E+03  0.47714242830E+03  0.00000000000E+00 0. -1.
         -4    1    1    2    0  502  0.86301491187E+01  0.23211220756E+02  0.86903553011E+02  0.90362977865E+02  0.00000000000E+00 0.  1.
<mgrwt>
<rscale>  1 0.83449132E+02</rscale>
<asrwt>0</asrwt>
<pdfrwt beam="1">  1       21 0.91293635E-01 0.83449132E+02</pdfrwt>
<pdfrwt beam="2">  1       -3 0.79671570E-03 0.83449132E+02</pdfrwt>
<totfact> 0.17596515E+05</totfact>
</mgrwt>
</event>
<event>
 6    2  0.9453093E+000  0.9197903E+02  0.7546771E-02  0.1298129E+00
         21   -1    0    0  501  502  0.00000000000E+00  0.00000000000E+00  0.49957684398E+02  0.49957684398E+02  0.00000000000E+00 0.  1.
          2   -1    0    0  502    0 -0.00000000000E+00 -0.00000000000E+00 -0.11379529688E+03  0.11379529688E+03  0.00000000000E+00 0. -1.
         24    2    1    2    0    0  0.36396303724E+02  0.22693268558E+02 -0.75840454921E+02  0.11921374477E+03  0.81366252072E+02 0.  0.
        -13    1    3    3    0    0  0.35969349220E+02  0.49200594464E+02 -0.68535807325E+02  0.91715044920E+02  0.00000000000E+00 0.  1.
         14    1    3    3    0    0  0.42695450384E+00 -0.26507325906E+02 -0.73046475954E+01  0.27498699848E+02  0.00000000000E+00 0. -1.
          1    1    1    2  501    0 -0.36396303724E+02 -0.22693268558E+02  0.12002842437E+02  0.44539236513E+02  0.00000000000E+00 0. -1.
<mgrwt>
<rscale>  1 0.91979032E+02</rscale>
<asrwt>0</asrwt>
<pdfrwt beam="1">  1       21 0.76857978E-02 0.91979032E+02</pdfrwt>
<pdfrwt beam="2">  1        2 0.17506968E-01 0.91979032E+02</pdfrwt>
<totfact> 0.48169726E+05</totfact>
</mgrwt>
</event>
<event>
 6    2  0.9453093E+000  0.8006451E+02  0.7546771E-02  0.1328868E+00
         21   -1    0    0  501  502  0.00000000000E+00  0.00000000000E+00  0.77128451100E+02  0.77128451100E+02  0.00000000000E+00 0.  1.
         -1   -1    0    0    0  501 -0.00000000000E+00 -0.00000000000E+00 -0.42228165885E+02  0.42228165885E+02  0.00000000000E+00 0.  1.
         24    2    1    2    0    0  0.12054545708E+01  0.21553653758E+02  0.21025986360E+01  0.80092111945E+02  0.77099366818E+02 0.  0.
        -11    1    3    3    0    0  0.17395518690E+02  0.46875685751E+02  0.70547860707E+00  0.50004316665E+02  0.00000000000E+00 0.  1.
         12    1    3    3    0    0 -0.16190064119E+02 -0.25322031993E+02  0.13971200289E+01  0.30087795280E+02  0.00000000000E+00 0. -1.
         -2    1    1    2    0  502 -0.12054545708E+01 -0.21553653758E+02  0.32797686579E+02  0.39264505039E+02  0.00000000000E+00 0.  1.
<mgrwt>
<rscale>  1 0.80064508E+02</rscale>
<asrwt>0</asrwt>
<pdfrwt beam="1">  1       21 0.11865916E-01 0.80064508E+02</pdfrwt>
<pdfrwt beam="2">  1       -1 0.64966409E-02 0.80064508E+02</pdfrwt>
<totfact> 0.57658732E+05</totfact>
</mgrwt>
</event>
<event>
 6    2  0.9453093E+000  0.8984589E+02  0.7546771E-02  0.1303225E+00
         21   -1    0    0  501  502  0.00000000000E+00  0.00000000000E+00  0.36854932086E+03  0.36854932086E+03  0.00000000000E+00 0.  1.
          2   -1    0    0  502    0 -0.00000000000E+00 -0.00000000000E+00 -0.11895782558E+02  0.11895782558E+02  0.00000000000E+00 0. -1.
         24    2    1    2    0    0 -0.24933874711E+02 -0.32116565354E+02  0.21362608118E+03  0.23175070081E+03  0.80119366473E+02 0.  0.
        -13    1    3    3    0    0 -0.52989929817E+02 -0.97444434967E+01  0.13308083473E+03  0.14357365850E+03  0.00000000000E+00 0.  1.
         14    1    3    3    0    0  0.28056055106E+02 -0.22372121858E+02  0.80545246449E+02  0.88177042307E+02  0.00000000000E+00 0. -1.
          1    1    1    2  501    0  0.24933874711E+02  0.32116565354E+02  0.14302745712E+03  0.14869440262E+03  0.00000000000E+00 0. -1.
<mgrwt>
<rscale>  1 0.89845895E+02</rscale>
<asrwt>0</asrwt>
<pdfrwt beam="1">  1       21 0.56699887E-01 0.89845895E+02</pdfrwt>
<pdfrwt beam="2">  1        2 0.18301207E-02 0.89845895E+02</pdfrwt>
<totfact> 0.20507564E+05</totfact>
</mgrwt>
</event>
<event>
 6    2  0.9453093E+000  0.7796784E+02  0.7546771E-02  0.1334919E+00
         -1   -1    0    0    0  501 -0.00000000000E+00  0.00000000000E+00  0.21184178069E+03  0.21184178069E+03  0.00000000000E+00 0.  1.
         21   -1    0    0  501  502  0.00000000000E+00 -0.00000000000E+00 -0.25571590083E+02  0.25571590083E+02  0.00000000000E+00 0.  1.
         24    2    1    2    0    0 -0.59194195279E+01 -0.19946934034E+02  0.19851063359E+03  0.21327319369E+03  0.75140294059E+02 0.  0.
        -11    1    3    3    0    0 -0.62207134606E+00 -0.44556623447E+02  0.16752724644E+03  0.17335240975E+03  0.00000000000E+00 0.  1.
         12    1    3    3    0    0 -0.52973481818E+01  0.24609689414E+02  0.30983387151E+02  0.39920783937E+02  0.00000000000E+00 0. -1.
         -2    1    1    2    0  502  0.59194195279E+01  0.19946934034E+02 -0.12240442991E+02  0.24140177081E+02  0.00000000000E+00 0.  1.
<mgrwt>
<rscale>  1 0.77967836E+02</rscale>
<asrwt>0</asrwt>
<pdfrwt beam="1">  1       21 0.39340909E-02 0.77967836E+02</pdfrwt>
<pdfrwt beam="2">  1       -1 0.32591042E-01 0.77967836E+02</pdfrwt>
<totfact> 0.30385234E+05</totfact>
</mgrwt>
</event>
<event>
 6    2  0.9453093E+000  0.1177138E+03  0.7546771E-02  0.1246917E+00
         -1   -1    0    0    0  501 -0.00000000000E+00  0.00000000000E+00  0.16339321639E+02  0.16339321639E+02  0.00000000000E+00 0.  1.
         21   -1    0    0  501  502  0.00000000000E+00 -0.00000000000E+00 -0.63393126560E+03  0.63393126560E+03  0.00000000000E+00 0.  1.
         24    2    1    2    0    0  0.84509818746E+02  0.10996218060E+02 -0.33305674693E+03  0.35324684302E+03  0.81201657352E+02 0.  0.
        -11    1    3    3    0    0  0.29033957229E+02 -0.26124567778E+02 -0.56080506364E+02  0.68340960690E+02  0.00000000000E+00 0.  1.
         12    1    3    3    0    0  0.55475861517E+02  0.37120785838E+02 -0.27697624056E+03  0.28490588233E+03  0.00000000000E+00 0. -1.
         -2    1    1    2    0  502 -0.84509818746E+02 -0.10996218060E+02 -0.28453519704E+03  0.29702374422E+03  0.00000000000E+00 0.  1.
<mgrwt>
<rscale>  1 0.11771379E+03</rscale>
<asrwt>0</asrwt>
<pdfrwt beam="1">  1       21 0.97527866E-01 0.11771379E+03</pdfrwt>
<pdfrwt beam="2">  1       -1 0.25137423E-02 0.11771379E+03</pdfrwt>
<totfact> 0.37148057E+04</totfact>
</mgrwt>
</event>
<event>
 6    2  0.9453093E+000  0.8385758E+02  0.7546771E-02  0.1318447E+00
         21   -1    0    0  501  502  0.00000000000E+00  0.00000000000E+00  0.15515000417E+01  0.15515000417E+01  0.00000000000E+00 0.  1.
          2   -1    0    0  502    0 -0.00000000000E+00 -0.00000000000E+00 -0.21770760527E+04  0.21770760527E+04  0.00000000000E+00 0. -1.
         24    2    1    2    0    0  0.22675672146E+02 -0.51969128343E+01 -0.19712023636E+04  0.19729852639E+04  0.80566118020E+02 0.  0.
        -13    1    3    3    0    0  0.23647700541E+02  0.31432074801E+02 -0.14315858172E+04  0.14321260911E+04  0.00000000000E+00 0.  1.
         14    1    3    3    0    0 -0.97202839456E+00 -0.36628987635E+02 -0.53961654640E+03  0.54085917273E+03  0.00000000000E+00 0. -1.
          1    1    1    2  501    0 -0.22675672146E+02  0.51969128343E+01 -0.20432218908E+03  0.20564228884E+03  0.00000000000E+00 0. -1.
<mgrwt>
<rscale>  1 0.83857578E+02</rscale>
<asrwt>0</asrwt>
<pdfrwt beam="1">  1       21 0.23869117E-03 0.83857578E+02</pdfrwt>
<pdfrwt beam="2">  1        2 0.33493639E+00 0.83857578E+02</pdfrwt>
<totfact> 0.26060809E+06</totfact>
</mgrwt>
</event>
<event>
 6    2  0.9453093E+000  0.1020512E+03  0.7546771E-02  0.1276041E+00
         21   -1    0    0  501  502  0.00000000000E+00  0.00000000000E+00  0.14444937913E+02  0.14444937913E+02  0.00000000000E+00 0. -1.
          2   -1    0    0  502    0 -0.00000000000E+00 -0.00000000000E+00 -0.12673046232E+04  0.12673046232E+04  0.00000000000E+00 0. -1.
         24    2    1    2    0    0  0.64098460863E+02 -0.58810366817E+00 -0.17953239428E+03  0.20650985195E+03  0.79407051348E+02 0.  0.
        -11    1    3    3    0    0  0.44834945405E+02 -0.26205616965E+02 -0.46621364266E+02  0.69788668822E+02  0.00000000000E+00 0.  1.
         12    1    3    3    0    0  0.19263515458E+02  0.25617513296E+02 -0.13291103002E+03  0.13672118313E+03  0.00000000000E+00 0. -1.
          1    1    1    2  501    0 -0.64098460863E+02  0.58810366817E+00 -0.10733272910E+04  0.10752397092E+04  0.00000000000E+00 0. -1.
<mgrwt>
<rscale>  1 0.10205116E+03</rscale>
<asrwt>0</asrwt>
<pdfrwt beam="1">  1       21 0.22222978E-02 0.10205116E+03</pdfrwt>
<pdfrwt beam="2">  1        2 0.19496998E+00 0.10205116E+03</pdfrwt>
<totfact> 0.23964420E+05</totfact>
</mgrwt>
</event>
<event>
 6    2  0.9453093E+000  0.8564055E+02  0.7546771E-02  0.1313766E+00
         21   -1    0    0  501  502  0.00000000000E+00  0.00000000000E+00  0.20455072636E+01  0.20455072636E+01  0.00000000000E+00 0. -1.
          2   -1    0    0  502    0 -0.00000000000E+00 -0.00000000000E+00 -0.28925710290E+04  0.28925710290E+04  0.00000000000E+00 0. -1.
         24    2    1    2    0    0 -0.19043366545E+02 -0.17550797541E+02 -0.27707521371E+04  0.27720753433E+04  0.81631020043E+02 0.  0.
        -11    1    3    3    0    0  0.68968604072E+01  0.43036658907E+01 -0.29122095110E+02  0.30235486554E+02  0.00000000000E+00 0.  1.
         12    1    3    3    0    0 -0.25940226952E+02 -0.21854463432E+02 -0.27416300420E+04  0.27418398568E+04  0.00000000000E+00 0. -1.
          1    1    1    2  501    0  0.19043366545E+02  0.17550797541E+02 -0.11977338467E+03  0.12254119299E+03  0.00000000000E+00 0. -1.
<mgrwt>
<rscale>  1 0.85640550E+02</rscale>
<asrwt>0</asrwt>
<pdfrwt beam="1">  1       21 0.31469354E-03 0.85640550E+02</pdfrwt>
<pdfrwt beam="2">  1        2 0.44501077E+00 0.85640550E+02</pdfrwt>
<totfact> 0.72109588E+05</totfact>
</mgrwt>
</event>
<event>
 6    2  0.9453093E+000  0.8159000E+02  0.7546771E-02  0.1324599E+00
          2   -1    0    0  502    0 -0.00000000000E+00  0.00000000000E+00  0.26899765220E+04  0.26899765220E+04  0.00000000000E+00 0. -1.
         21   -1    0    0  501  502  0.00000000000E+00 -0.00000000000E+00 -0.10598642118E+01  0.10598642118E+01  0.00000000000E+00 0.  1.
         24    2    1    2    0    0 -0.14529294101E+02 -0.17469831631E+02  0.18279819383E+04  0.18298018731E+04  0.78362188199E+02 0.  0.
        -11    1    3    3    0    0 -0.58512118005E+01 -0.80729238470E+01  0.27122958081E+02  0.28897467606E+02  0.00000000000E+00 0.  1.
         12    1    3    3    0    0 -0.86780823005E+01 -0.93969077841E+01  0.18008589803E+04  0.18009044055E+04  0.00000000000E+00 0. -1.
          1    1    1    2  501    0  0.14529294101E+02  0.17469831631E+02  0.86093471942E+03  0.86123451307E+03  0.00000000000E+00 0. -1.
<mgrwt>
<rscale>  1 0.81589999E+02</rscale>
<asrwt>0</asrwt>
<pdfrwt beam="1">  1       21 0.16305819E-03 0.81589999E+02</pdfrwt>
<pdfrwt beam="2">  1        2 0.41383708E+00 0.81589999E+02</pdfrwt>
<totfact> 0.24905053E+06</totfact>
</mgrwt>
</event>
<event>
 6    2  0.9453093E+000  0.9017341E+02  0.7546771E-02  0.1302432E+00
         21   -1    0    0  501  502  0.00000000000E+00  0.00000000000E+00  0.88446942310E+02  0.88446942310E+02  0.00000000000E+00 0. -1.
          2   -1    0    0  502    0 -0.00000000000E+00 -0.00000000000E+00 -0.52007140854E+02  0.52007140854E+02  0.00000000000E+00 0. -1.
         24    2    1    2    0    0  0.36220167758E+02 -0.27308445327E+02  0.26902733878E+02  0.94101009948E+02  0.77933248646E+02 0.  0.
        -13    1    3    3    0    0 -0.21099002954E+02  0.24449586834E+01 -0.53647540020E+01  0.21907221050E+02  0.00000000000E+00 0.  1.
         14    1    3    3    0    0  0.57319170712E+02 -0.29753404011E+02  0.32267487880E+02  0.72193788898E+02  0.00000000000E+00 0. -1.
          1    1    1    2  501    0 -0.36220167758E+02  0.27308445327E+02  0.95370675782E+01  0.46353073216E+02  0.00000000000E+00 0. -1.
<mgrwt>
<rscale>  1 0.90173405E+02</rscale>
<asrwt>0</asrwt>
<pdfrwt beam="1">  1       21 0.13607222E-01 0.90173405E+02</pdfrwt>
<pdfrwt beam="2">  1        2 0.80010986E-02 0.90173405E+02</pdfrwt>
<totfact> 0.45232721E+05</totfact>
</mgrwt>
</event>
<event>
 6    2  0.9453093E+000  0.8128158E+02  0.7546771E-02  0.1325453E+00
         21   -1    0    0  501  502  0.00000000000E+00  0.00000000000E+00  0.50174025264E+01  0.50174025264E+01  0.00000000000E+00 0. -1.
          2   -1    0    0  502    0 -0.00000000000E+00 -0.00000000000E+00 -0.83627745237E+03  0.83627745237E+03  0.00000000000E+00 0. -1.
         24    2    1    2    0    0  0.58147038953E+01 -0.19938171141E+02 -0.79768465722E+03  0.80181513301E+03  0.78583418879E+02 0.  0.
        -13    1    3    3    0    0  0.23857796926E+02 -0.27690446707E+02 -0.17286339552E+03  0.17668533845E+03  0.00000000000E+00 0.  1.
         14    1    3    3    0    0 -0.18043093030E+02  0.77522755657E+01 -0.62482126170E+03  0.62512979457E+03  0.00000000000E+00 0. -1.
          1    1    1    2  501    0 -0.58147038953E+01  0.19938171141E+02 -0.33575392630E+02  0.39479721884E+02  0.00000000000E+00 0. -1.
<mgrwt>
<rscale>  1 0.81281580E+02</rscale>
<asrwt>0</asrwt>
<pdfrwt beam="1">  1       21 0.77190812E-03 0.81281580E+02</pdfrwt>
<pdfrwt beam="2">  1        2 0.12865806E+00 0.81281580E+02</pdfrwt>
<totfact> 0.22199333E+06</totfact>
</mgrwt>
</event>
<event>
 6    2  0.9453093E+000  0.9370446E+02  0.7546771E-02  0.1294121E+00
          2   -1    0    0  502    0 -0.00000000000E+00  0.00000000000E+00  0.14098165658E+03  0.14098165658E+03  0.00000000000E+00 0. -1.
         21   -1    0    0  501  502  0.00000000000E+00 -0.00000000000E+00 -0.35349893108E+02  0.35349893108E+02  0.00000000000E+00 0.  1.
         24    2    1    2    0    0 -0.43904247973E+02 -0.17887272612E+02  0.67359942012E+02  0.11540315048E+03  0.80826900485E+02 0.  0.
        -11    1    3    3    0    0 -0.75295980489E+01 -0.46576203605E+02  0.30248933762E+02  0.56044942526E+02  0.00000000000E+00 0.  1.
         12    1    3    3    0    0 -0.36374649924E+02  0.28688930993E+02  0.37111008250E+02  0.59358207957E+02  0.00000000000E+00 0. -1.
          1    1    1    2  501    0  0.43904247973E+02  0.17887272612E+02  0.38271821456E+02  0.60928399201E+02  0.00000000000E+00 0. -1.
<mgrwt>
<rscale>  1 0.93704457E+02</rscale>
<asrwt>0</asrwt>
<pdfrwt beam="1">  1       21 0.54384452E-02 0.93704457E+02</pdfrwt>
<pdfrwt beam="2">  1        2 0.21689485E-01 0.93704457E+02</pdfrwt>
<totfact> 0.68053165E+05</totfact>
</mgrwt>
</event>
<event>
 6    2  0.9453093E+000  0.8594407E+02  0.7546771E-02  0.1312982E+00
          2   -1    0    0  502    0 -0.00000000000E+00  0.00000000000E+00  0.83464637848E+03  0.83464637848E+03  0.00000000000E+00 0. -1.
         21   -1    0    0  501  502  0.00000000000E+00 -0.00000000000E+00 -0.31339274902E+02  0.31339274902E+02  0.00000000000E+00 0. -1.
         24    2    1    2    0    0  0.24055486617E+02  0.23472074545E+02  0.82270368919E+03  0.82718059890E+03  0.79099799452E+02 0.  0.
        -11    1    3    3    0    0 -0.14760691494E+02 -0.93508473678E+01  0.53123292775E+02  0.55923166891E+02  0.00000000000E+00 0.  1.
         12    1    3    3    0    0  0.38816178110E+02  0.32822921913E+02  0.76958039641E+03  0.77125743201E+03  0.00000000000E+00 0. -1.
          1    1    1    2  501    0 -0.24055486617E+02 -0.23472074545E+02 -0.19396585611E+02  0.38805054480E+02  0.00000000000E+00 0. -1.
<mgrwt>
<rscale>  1 0.85944069E+02</rscale>
<asrwt>0</asrwt>
<pdfrwt beam="1">  1       21 0.48214275E-02 0.85944069E+02</pdfrwt>
<pdfrwt beam="2">  1        2 0.12840712E+00 0.85944069E+02</pdfrwt>
<totfact> 0.11975110E+05</totfact>
</mgrwt>
</event>
<event>
 6    2  0.9453093E+000  0.8490568E+02  0.7546771E-02  0.1315679E+00
          2   -1    0    0  502    0 -0.00000000000E+00  0.00000000000E+00  0.71727953601E+03  0.71727953601E+03  0.00000000000E+00 0. -1.
         21   -1    0    0  501  502  0.00000000000E+00 -0.00000000000E+00 -0.70927437087E+01  0.70927437087E+01  0.00000000000E+00 0.  1.
         24    2    1    2    0    0  0.17833713988E+02 -0.23827990763E+02  0.66413254329E+03  0.66953790774E+03  0.79518301951E+02 0.  0.
        -11    1    3    3    0    0 -0.41756161427E+01 -0.11701113022E+02  0.13224407509E+02  0.18144882752E+02  0.00000000000E+00 0.  1.
         12    1    3    3    0    0  0.22009330131E+02 -0.12126877742E+02  0.65090813578E+03  0.65139302499E+03  0.00000000000E+00 0. -1.
          1    1    1    2  501    0 -0.17833713988E+02  0.23827990763E+02  0.46054249016E+02  0.54834371984E+02  0.00000000000E+00 0. -1.
<mgrwt>
<rscale>  1 0.84905682E+02</rscale>
<asrwt>0</asrwt>
<pdfrwt beam="1">  1       21 0.10911919E-02 0.84905682E+02</pdfrwt>
<pdfrwt beam="2">  1        2 0.11035064E+00 0.84905682E+02</pdfrwt>
<totfact> 0.15653624E+06</totfact>
</mgrwt>
</event>
<event>
 6    2  0.9453093E+000  0.7940319E+02  0.7546771E-02  0.1330754E+00
         -3   -1    0    0    0  501 -0.00000000000E+00  0.00000000000E+00  0.13995996328E+03  0.13995996328E+03  0.00000000000E+00 0.  1.
         21   -1    0    0  501  502  0.00000000000E+00 -0.00000000000E+00 -0.89461883018E+02  0.89461883018E+02  0.00000000000E+00 0.  1.
         24    2    1    2    0    0 -0.33044710792E+01 -0.22994113563E+02  0.12682890906E+03  0.14963435221E+03  0.75929035295E+02 0.  0.
        -11    1    3    3    0    0 -0.63472456877E+01 -0.50452707441E+02  0.92640898308E+02  0.10567922812E+03  0.00000000000E+00 0.  1.
         12    1    3    3    0    0  0.30427746084E+01  0.27458593878E+02  0.34188010750E+02  0.43955124094E+02  0.00000000000E+00 0. -1.
         -4    1    1    2    0  502  0.33044710792E+01  0.22994113563E+02 -0.76330828797E+02  0.79787494086E+02  0.00000000000E+00 0.  1.
<mgrwt>
<rscale>  1 0.79403194E+02</rscale>
<asrwt>0</asrwt>
<pdfrwt beam="1">  1       21 0.13763367E-01 0.79403194E+02</pdfrwt>
<pdfrwt beam="2">  1       -3 0.21532302E-01 0.79403194E+02</pdfrwt>
<totfact> 0.40894994E+04</totfact>
</mgrwt>
</event>
<event>
 6    2  0.9453093E+000  0.8200637E+02  0.7546771E-02  0.1323452E+00
          2   -1    0    0  502    0 -0.00000000000E+00  0.00000000000E+00  0.32210396928E+03  0.32210396928E+03  0.00000000000E+00 0. -1.
         21   -1    0    0  501  502  0.00000000000E+00 -0.00000000000E+00 -0.98519692674E+01  0.98519692674E+01  0.00000000000E+00 0.  1.
         24    2    1    2    0    0  0.21832961992E+02  0.11369282675E+02  0.27753828336E+03  0.28940031681E+03  0.78224713616E+02 0.  0.
        -13    1    3    3    0    0  0.27619433023E+02  0.24362099727E+02  0.53728536611E+02  0.65139086807E+02  0.00000000000E+00 0.  1.
         14    1    3    3    0    0 -0.57864710311E+01 -0.12992817052E+02  0.22380974675E+03  0.22426123000E+03  0.00000000000E+00 0. -1.
          1    1    1    2  501    0 -0.21832961992E+02 -0.11369282675E+02  0.34713716658E+02  0.42555621745E+02  0.00000000000E+00 0. -1.
<mgrwt>
<rscale>  1 0.82006369E+02</rscale>
<asrwt>0</asrwt>
<pdfrwt beam="1">  1       21 0.15156878E-02 0.82006369E+02</pdfrwt>
<pdfrwt beam="2">  1        2 0.49554449E-01 0.82006369E+02</pdfrwt>
<totfact> 0.22119306E+06</totfact>
</mgrwt>
</event>
<event>
 6    2  0.9453093E+000  0.7884100E+02  0.7546771E-02  0.1332373E+00
          2   -1    0    0  502    0 -0.00000000000E+00  0.00000000000E+00  0.26750885789E+04  0.26750885789E+04  0.00000000000E+00 0. -1.
         21   -1    0    0  501  502  0.00000000000E+00 -0.00000000000E+00 -0.13160505671E+01  0.13160505671E+01  0.00000000000E+00 0. -1.
         24    2    1    2    0    0  0.22154881977E+02  0.42964665346E+01  0.24905374150E+04  0.24917850065E+04  0.75542072853E+02 0.  0.
        -11    1    3    3    0    0 -0.16276954430E+02  0.21527911630E+02  0.44725506396E+03  0.44806861356E+03  0.00000000000E+00 0.  1.
         12    1    3    3    0    0  0.38431836407E+02 -0.17231445095E+02  0.20432823510E+04  0.20437163929E+04  0.00000000000E+00 0. -1.
          1    1    1    2  501    0 -0.22154881977E+02 -0.42964665346E+01  0.18323511340E+03  0.18461962301E+03  0.00000000000E+00 0. -1.
<mgrwt>
<rscale>  1 0.78840999E+02</rscale>
<asrwt>0</asrwt>
<pdfrwt beam="1">  1       21 0.20247146E-03 0.78840999E+02</pdfrwt>
<pdfrwt beam="2">  1        2 0.41154774E+00 0.78840999E+02</pdfrwt>
<totfact> 0.18335138E+06</totfact>
</mgrwt>
</event>
<event>
 6    2  0.9453093E+000  0.8579515E+02  0.7546771E-02  0.1313366E+00
         21   -1    0    0  501  502  0.00000000000E+00  0.00000000000E+00  0.50783999224E+02  0.50783999224E+02  0.00000000000E+00 0. -1.
         -1   -1    0    0    0  501 -0.00000000000E+00 -0.00000000000E+00 -0.90264155800E+02  0.90264155800E+02  0.00000000000E+00 0.  1.
         24    2    1    2    0    0 -0.16699798497E+02 -0.23769234679E+02  0.71684046715E+01  0.86094101002E+02  0.80727618661E+02 0.  0.
        -11    1    3    3    0    0 -0.44564217037E+02 -0.60134146407E+01 -0.13707454253E+02  0.47010901904E+02  0.00000000000E+00 0.  1.
         12    1    3    3    0    0  0.27864418541E+02 -0.17755820038E+02  0.20875858924E+02  0.39083199097E+02  0.00000000000E+00 0. -1.
         -2    1    1    2    0  502  0.16699798497E+02  0.23769234679E+02 -0.46648561247E+02  0.54954054023E+02  0.00000000000E+00 0.  1.
<mgrwt>
<rscale>  1 0.85795153E+02</rscale>
<asrwt>0</asrwt>
<pdfrwt beam="1">  1       21 0.78129230E-02 0.85795153E+02</pdfrwt>
<pdfrwt beam="2">  1       -1 0.13886793E-01 0.85795153E+02</pdfrwt>
<totfact> 0.38132400E+05</totfact>
</mgrwt>
</event>
<event>
 6    2  0.9453093E+000  0.1095100E+03  0.7546771E-02  0.1261480E+00
         21   -1    0    0  501  502  0.00000000000E+00  0.00000000000E+00  0.19727453975E+02  0.19727453975E+02  0.00000000000E+00 0. -1.
          2   -1    0    0  502    0 -0.00000000000E+00 -0.00000000000E+00 -0.48517817477E+03  0.48517817477E+03  0.00000000000E+00 0. -1.
         24    2    1    2    0    0 -0.48090987501E+02 -0.53095934359E+02 -0.18080084491E+03  0.21137969605E+03  0.82828189992E+02 0.  0.
        -13    1    3    3    0    0  0.19466254185E+01 -0.56400701942E+02 -0.11969267524E+03  0.13232975869E+03  0.00000000000E+00 0.  1.
         14    1    3    3    0    0 -0.50037612920E+02  0.33047675829E+01 -0.61108169678E+02  0.79049937362E+02  0.00000000000E+00 0. -1.
          1    1    1    2  501    0  0.48090987501E+02  0.53095934359E+02 -0.28464987588E+03  0.29352593269E+03  0.00000000000E+00 0. -1.
<mgrwt>
<rscale>  1 0.10950996E+03</rscale>
<asrwt>0</asrwt>
<pdfrwt beam="1">  1       21 0.30349928E-02 0.10950996E+03</pdfrwt>
<pdfrwt beam="2">  1        2 0.74642799E-01 0.10950996E+03</pdfrwt>
<totfact> 0.48385477E+05</totfact>
</mgrwt>
</event>
<event>
 6    2  0.9453093E+000  0.9207791E+02  0.7546771E-02  0.1297896E+00
         21   -1    0    0  501  502  0.00000000000E+00  0.00000000000E+00  0.65740677042E+01  0.65740677042E+01  0.00000000000E+00 0. -1.
         -1   -1    0    0    0  501 -0.00000000000E+00 -0.00000000000E+00 -0.58854026473E+03  0.58854026473E+03  0.00000000000E+00 0.  1.
         24    2    1    2    0    0 -0.25719162851E+02  0.19370675672E+02 -0.41904600558E+03  0.42904300079E+03  0.86264959976E+02 0.  0.
        -11    1    3    3    0    0 -0.50563642858E+01  0.46231712853E+02 -0.33818143915E+03  0.34136435649E+03  0.00000000000E+00 0.  1.
         12    1    3    3    0    0 -0.20662798566E+02 -0.26861037180E+02 -0.80864566429E+02  0.87678644302E+02  0.00000000000E+00 0. -1.
         -2    1    1    2    0  502  0.25719162851E+02 -0.19370675672E+02 -0.16292019145E+03  0.16607133165E+03  0.00000000000E+00 0.  1.
<mgrwt>
<rscale>  1 0.92077911E+02</rscale>
<asrwt>0</asrwt>
<pdfrwt beam="1">  1       21 0.10113948E-02 0.92077911E+02</pdfrwt>
<pdfrwt beam="2">  1       -1 0.90544675E-01 0.92077911E+02</pdfrwt>
<totfact> 0.40807145E+05</totfact>
</mgrwt>
</event>
<event>
 6    2  0.9453093E+000  0.8194841E+02  0.7546771E-02  0.1323611E+00
         -1   -1    0    0    0  501 -0.00000000000E+00  0.00000000000E+00  0.72404490046E+02  0.72404490046E+02  0.00000000000E+00 0.  1.
         21   -1    0    0  501  502  0.00000000000E+00 -0.00000000000E+00 -0.41908334139E+02  0.41908334139E+02  0.00000000000E+00 0. -1.
         24    2    1    2    0    0  0.14053525636E+02  0.15198660723E+02  0.40399522698E+02  0.91365546692E+02  0.79290862131E+02 0.  0.
        -11    1    3    3    0    0  0.98784849153E+01 -0.28949749277E+02  0.35328934632E+02  0.46731210873E+02  0.00000000000E+00 0.  1.
         12    1    3    3    0    0  0.41750407209E+01  0.44148410001E+02  0.50705880661E+01  0.44634335818E+02  0.00000000000E+00 0. -1.
         -2    1    1    2    0  502 -0.14053525636E+02 -0.15198660723E+02 -0.99033667908E+01  0.22947277494E+02  0.00000000000E+00 0.  1.
<mgrwt>
<rscale>  1 0.81948409E+02</rscale>
<asrwt>0</asrwt>
<pdfrwt beam="1">  1       21 0.64474360E-02 0.81948409E+02</pdfrwt>
<pdfrwt beam="2">  1       -1 0.11139152E-01 0.81948409E+02</pdfrwt>
<totfact> 0.73522824E+05</totfact>
</mgrwt>
</event>
<event>
 6    2  0.9453093E+000  0.8255507E+02  0.7546771E-02  0.1321953E+00
         21   -1    0    0  501  502  0.00000000000E+00  0.00000000000E+00  0.14971008452E+02  0.14971008452E+02  0.00000000000E+00 0. -1.
          2   -1    0    0  502    0 -0.00000000000E+00 -0.00000000000E+00 -0.49183606188E+03  0.49183606188E+03  0.00000000000E+00 0. -1.
         24    2    1    2    0    0 -0.20410434966E+02 -0.16592315763E+01 -0.47914299763E+03  0.48620299465E+03  0.79975001890E+02 0.  0.
        -11    1    3    3    0    0 -0.83425473182E+01  0.27223350579E+02 -0.66050223811E+02  0.71925940926E+02  0.00000000000E+00 0.  1.
         12    1    3    3    0    0 -0.12067887648E+02 -0.28882582156E+02 -0.41309277381E+03  0.41427705372E+03  0.00000000000E+00 0. -1.
          1    1    1    2  501    0  0.20410434966E+02  0.16592315763E+01  0.22779441974E+01  0.20604075682E+02  0.00000000000E+00 0. -1.
<mgrwt>
<rscale>  1 0.82555072E+02</rscale>
<asrwt>0</asrwt>
<pdfrwt beam="1">  1       21 0.23032322E-02 0.82555072E+02</pdfrwt>
<pdfrwt beam="2">  1        2 0.75667082E-01 0.82555072E+02</pdfrwt>
<totfact> 0.72846490E+05</totfact>
</mgrwt>
</event>
<event>
 6    2  0.9453093E+000  0.1026080E+03  0.7546771E-02  0.1274905E+00
          2   -1    0    0  502    0 -0.00000000000E+00  0.00000000000E+00  0.19879379375E+04  0.19879379375E+04  0.00000000000E+00 0. -1.
         21   -1    0    0  501  502  0.00000000000E+00 -0.00000000000E+00 -0.45914253191E+01  0.45914253191E+01  0.00000000000E+00 0.  1.
         24    2    1    2    0    0 -0.53696590143E+02  0.36606838469E+02  0.69381190767E+03  0.70135823526E+03  0.79404197144E+02 0.  0.
        -13    1    3    3    0    0 -0.71489861565E+02  0.14775983937E+02  0.54908729606E+03  0.55391875641E+03  0.00000000000E+00 0.  1.
         14    1    3    3    0    0  0.17793271422E+02  0.21830854532E+02  0.14472461161E+03  0.14743947885E+03  0.00000000000E+00 0. -1.
          1    1    1    2  501    0  0.53696590143E+02 -0.36606838469E+02  0.12895346045E+04  0.12911711275E+04  0.00000000000E+00 0. -1.
<mgrwt>
<rscale>  1 0.10260805E+03</rscale>
<asrwt>0</asrwt>
<pdfrwt beam="1">  1       21 0.70637471E-03 0.10260805E+03</pdfrwt>
<pdfrwt beam="2">  1        2 0.30583592E+00 0.10260805E+03</pdfrwt>
<totfact> 0.62657946E+05</totfact>
</mgrwt>
</event>
<event>
 6    2  0.9453093E+000  0.8587227E+02  0.7546771E-02  0.1313167E+00
         21   -1    0    0  501  502  0.00000000000E+00  0.00000000000E+00  0.43756471349E+01  0.43756471349E+01  0.00000000000E+00 0. -1.
          2   -1    0    0  502    0 -0.00000000000E+00 -0.00000000000E+00 -0.81853615530E+03  0.81853615530E+03  0.00000000000E+00 0. -1.
         24    2    1    2    0    0 -0.24517869834E+02 -0.11995708161E+02 -0.71230231554E+03  0.71745984958E+03  0.81418818978E+02 0.  0.
        -13    1    3    3    0    0 -0.15171201724E+02  0.31583176508E+02 -0.45317143198E+03  0.45452393685E+03  0.00000000000E+00 0.  1.
         14    1    3    3    0    0 -0.93466681103E+01 -0.43578884669E+02 -0.25913088356E+03  0.26293591274E+03  0.00000000000E+00 0. -1.
          1    1    1    2  501    0  0.24517869834E+02  0.11995708161E+02 -0.10185819262E+03  0.10545195285E+03  0.00000000000E+00 0. -1.
<mgrwt>
<rscale>  1 0.85872272E+02</rscale>
<asrwt>0</asrwt>
<pdfrwt beam="1">  1       21 0.67317663E-03 0.85872272E+02</pdfrwt>
<pdfrwt beam="2">  1        2 0.12592861E+00 0.85872272E+02</pdfrwt>
<totfact> 0.28332118E+06</totfact>
</mgrwt>
</event>
<event>
 6    2  0.9453093E+000  0.1099975E+03  0.7546771E-02  0.1260574E+00
         21   -1    0    0  501  502  0.00000000000E+00  0.00000000000E+00  0.34439993312E+02  0.34439993312E+02  0.00000000000E+00 0. -1.
          2   -1    0    0  502    0 -0.00000000000E+00 -0.00000000000E+00 -0.35346848741E+03  0.35346848741E+03  0.00000000000E+00 0. -1.
         24    2    1    2    0    0  0.70700857993E+02  0.27184590409E+02 -0.28379764718E+03  0.30436911365E+03  0.79761140412E+02 0.  0.
        -11    1    3    3    0    0  0.17230171578E+02 -0.85762325494E+01 -0.74577956812E+01  0.20640961551E+02  0.00000000000E+00 0.  1.
         12    1    3    3    0    0  0.53470686415E+02  0.35760822958E+02 -0.27633985150E+03  0.28372815210E+03  0.00000000000E+00 0. -1.
          1    1    1    2  501    0 -0.70700857993E+02 -0.27184590409E+02 -0.35230846912E+02  0.83539367072E+02  0.00000000000E+00 0. -1.
<mgrwt>
<rscale>  1 0.10999751E+03</rscale>
<asrwt>0</asrwt>
<pdfrwt beam="1">  1       21 0.52984606E-02 0.10999751E+03</pdfrwt>
<pdfrwt beam="2">  1        2 0.54379766E-01 0.10999751E+03</pdfrwt>
<totfact> 0.26968105E+05</totfact>
</mgrwt>
</event>
<event>
 6    2  0.9453093E+000  0.8529181E+02  0.7546771E-02  0.1314671E+00
          2   -1    0    0  502    0 -0.00000000000E+00  0.00000000000E+00  0.81734826792E+03  0.81734826792E+03  0.00000000000E+00 0. -1.
         21   -1    0    0  501  502  0.00000000000E+00 -0.00000000000E+00 -0.39191991579E+01  0.39191991579E+01  0.00000000000E+00 0.  1.
         24    2    1    2    0    0 -0.15135410267E+01  0.20646934968E+02  0.74238573006E+03  0.74726920559E+03  0.82741203091E+02 0.  0.
        -13    1    3    3    0    0 -0.15492550749E+02  0.20040459467E+02  0.65329585220E+02  0.70068493986E+02  0.00000000000E+00 0.  1.
         14    1    3    3    0    0  0.13979009722E+02  0.60647550101E+00  0.67705614484E+03  0.67720071160E+03  0.00000000000E+00 0. -1.
          1    1    1    2  501    0  0.15135410267E+01 -0.20646934968E+02  0.71043338702E+02  0.73998261493E+02  0.00000000000E+00 0. -1.
<mgrwt>
<rscale>  1 0.85291813E+02</rscale>
<asrwt>0</asrwt>
<pdfrwt beam="1">  1       21 0.60295437E-03 0.85291813E+02</pdfrwt>
<pdfrwt beam="2">  1        2 0.12574575E+00 0.85291813E+02</pdfrwt>
<totfact> 0.33606151E+06</totfact>
</mgrwt>
</event>
<event>
 6    2  0.9453093E+000  0.8616580E+02  0.7546771E-02  0.1312412E+00
         21   -1    0    0  501  502  0.00000000000E+00  0.00000000000E+00  0.62757805769E+03  0.62757805769E+03  0.00000000000E+00 0.  1.
         -1   -1    0    0    0  501 -0.00000000000E+00 -0.00000000000E+00 -0.57199704841E+01  0.57199704841E+01  0.00000000000E+00 0.  1.
         24    2    1    2    0    0  0.30546306578E+02 -0.86450954340E+01  0.39962027773E+03  0.40880424545E+03  0.80104495537E+02 0.  0.
        -13    1    3    3    0    0  0.14041102882E+02 -0.14239882752E+02  0.18366776230E+02  0.27152629707E+02  0.00000000000E+00 0.  1.
         14    1    3    3    0    0  0.16505203696E+02  0.55947873177E+01  0.38125350150E+03  0.38165161574E+03  0.00000000000E+00 0. -1.
         -2    1    1    2    0  502 -0.30546306578E+02  0.86450954340E+01  0.22223780947E+03  0.22449378272E+03  0.00000000000E+00 0.  1.
<mgrwt>
<rscale>  1 0.86165798E+02</rscale>
<asrwt>0</asrwt>
<pdfrwt beam="1">  1       21 0.96550416E-01 0.86165798E+02</pdfrwt>
<pdfrwt beam="2">  1       -1 0.87999595E-03 0.86165798E+02</pdfrwt>
<totfact> 0.16701143E+05</totfact>
</mgrwt>
</event>
<event>
 6    2  0.9453093E+000  0.8478872E+02  0.7546771E-02  0.1315986E+00
          2   -1    0    0  502    0 -0.00000000000E+00  0.00000000000E+00  0.88663487680E+02  0.88663487680E+02  0.00000000000E+00 0. -1.
         21   -1    0    0  501  502  0.00000000000E+00 -0.00000000000E+00 -0.37294257346E+02  0.37294257346E+02  0.00000000000E+00 0.  1.
         24    2    1    2    0    0 -0.58928530211E+00  0.24990836252E+02  0.54456234470E+02  0.10077007446E+03  0.81019980752E+02 0.  0.
        -13    1    3    3    0    0 -0.21357744183E+02  0.48000037870E+02  0.25687990359E+02  0.58481020175E+02  0.00000000000E+00 0.  1.
         14    1    3    3    0    0  0.20768458881E+02 -0.23009201618E+02  0.28768244112E+02  0.42289054289E+02  0.00000000000E+00 0. -1.
          1    1    1    2  501    0  0.58928530211E+00 -0.24990836252E+02 -0.30870041363E+01  0.25187670561E+02  0.00000000000E+00 0. -1.
<mgrwt>
<rscale>  1 0.84788716E+02</rscale>
<asrwt>0</asrwt>
<pdfrwt beam="1">  1       21 0.57375781E-02 0.84788716E+02</pdfrwt>
<pdfrwt beam="2">  1        2 0.13640537E-01 0.84788716E+02</pdfrwt>
<totfact> 0.10429560E+06</totfact>
</mgrwt>
</event>
<event>
 6    2  0.9453093E+000  0.8762458E+02  0.7546771E-02  0.1308708E+00
          2   -1    0    0  502    0 -0.00000000000E+00  0.00000000000E+00  0.26971412363E+03  0.26971412363E+03  0.00000000000E+00 0. -1.
         21   -1    0    0  501  502  0.00000000000E+00 -0.00000000000E+00 -0.15312571509E+02  0.15312571509E+02  0.00000000000E+00 0. -1.
         24    2    1    2    0    0 -0.27602649930E+01  0.38417628392E+02  0.20017265635E+03  0.21851123550E+03  0.78705364852E+02 0.  0.
        -13    1    3    3    0    0 -0.89420381743E+01  0.10843579939E+02 -0.21554052571E+01  0.14219319408E+02  0.00000000000E+00 0.  1.
         14    1    3    3    0    0  0.61817731813E+01  0.27574048453E+02  0.20232806161E+03  0.20429191609E+03  0.00000000000E+00 0. -1.
          1    1    1    2  501    0  0.27602649930E+01 -0.38417628392E+02  0.54228895771E+02  0.66515459637E+02  0.00000000000E+00 0. -1.
<mgrwt>
<rscale>  1 0.87624584E+02</rscale>
<asrwt>0</asrwt>
<pdfrwt beam="1">  1       21 0.23557804E-02 0.87624584E+02</pdfrwt>
<pdfrwt beam="2">  1        2 0.41494477E-01 0.87624584E+02</pdfrwt>
<totfact> 0.13283123E+06</totfact>
</mgrwt>
</event>
<event>
 6    2  0.9453093E+000  0.8437190E+02  0.7546771E-02  0.1317083E+00
          2   -1    0    0  502    0 -0.00000000000E+00  0.00000000000E+00  0.76569494445E+03  0.76569494445E+03  0.00000000000E+00 0. -1.
         21   -1    0    0  501  502  0.00000000000E+00 -0.00000000000E+00 -0.82457241495E+01  0.82457241495E+01  0.00000000000E+00 0. -1.
         24    2    1    2    0    0 -0.18458862202E+02 -0.78515536891E+01  0.74617542847E+03  0.75093034763E+03  0.81952671984E+02 0.  0.
        -11    1    3    3    0    0  0.25160774734E+02  0.20191276726E+02  0.25833101464E+03  0.26033759883E+03  0.00000000000E+00 0.  1.
         12    1    3    3    0    0 -0.43619636936E+02 -0.28042830416E+02  0.48784441383E+03  0.49059274879E+03  0.00000000000E+00 0. -1.
          1    1    1    2  501    0  0.18458862202E+02  0.78515536891E+01  0.11273791835E+02  0.23010320977E+02  0.00000000000E+00 0. -1.
<mgrwt>
<rscale>  1 0.84371897E+02</rscale>
<asrwt>0</asrwt>
<pdfrwt beam="1">  1       21 0.12685735E-02 0.84371897E+02</pdfrwt>
<pdfrwt beam="2">  1        2 0.11779917E+00 0.84371897E+02</pdfrwt>
<totfact> 0.11432816E+06</totfact>
</mgrwt>
</event>
<event>
 6    2  0.9453093E+000  0.1243704E+03  0.7546771E-02  0.1236056E+00
         21   -1    0    0  501  502  0.00000000000E+00  0.00000000000E+00  0.22269473418E+03  0.22269473418E+03  0.00000000000E+00 0. -1.
          4   -1    0    0  502    0 -0.00000000000E+00 -0.00000000000E+00 -0.83194165925E+02  0.83194165925E+02  0.00000000000E+00 0. -1.
         24    2    1    2    0    0  0.43328772598E+02  0.83717327552E+02 -0.14619071460E+02  0.12522668266E+03  0.81129719163E+02 0.  0.
        -11    1    3    3    0    0  0.36457859468E+02 -0.77105295577E+00 -0.17419826850E+02  0.40413121720E+02  0.00000000000E+00 0.  1.
         12    1    3    3    0    0  0.68709131305E+01  0.84488380507E+02  0.28007553903E+01  0.84813560937E+02  0.00000000000E+00 0. -1.
          3    1    1    2  501    0 -0.43328772598E+02 -0.83717327552E+02  0.15411963971E+03  0.18066221745E+03  0.00000000000E+00 0. -1.
<mgrwt>
<rscale>  1 0.12437043E+03</rscale>
<asrwt>0</asrwt>
<pdfrwt beam="1">  1       21 0.34260728E-01 0.12437043E+03</pdfrwt>
<pdfrwt beam="2">  1        4 0.12799103E-01 0.12437043E+03</pdfrwt>
<totfact> 0.16580295E+04</totfact>
</mgrwt>
</event>
<event>
 6    2  0.9453093E+000  0.9327839E+02  0.7546771E-02  0.1295101E+00
          2   -1    0    0  502    0 -0.00000000000E+00  0.00000000000E+00  0.27012382569E+04  0.27012382569E+04  0.00000000000E+00 0. -1.
         21   -1    0    0  501  502  0.00000000000E+00 -0.00000000000E+00 -0.52052593499E+01  0.52052593499E+01  0.00000000000E+00 0.  1.
         24    2    1    2    0    0 -0.57684962145E+01  0.50582231418E+02  0.25515335737E+04  0.25532380295E+04  0.78160218610E+02 0.  0.
        -13    1    3    3    0    0 -0.12632784740E+01 -0.13746803757E+02  0.11134334413E+03  0.11219585896E+03  0.00000000000E+00 0.  1.
         14    1    3    3    0    0 -0.45052177405E+01  0.64329035175E+02  0.24401902296E+04  0.24410421706E+04  0.00000000000E+00 0. -1.
          1    1    1    2  501    0  0.57684962145E+01 -0.50582231418E+02  0.14449942385E+03  0.15320548677E+03  0.00000000000E+00 0. -1.
<mgrwt>
<rscale>  1 0.93278387E+02</rscale>
<asrwt>0</asrwt>
<pdfrwt beam="1">  1       21 0.80081129E-03 0.93278387E+02</pdfrwt>
<pdfrwt beam="2">  1        2 0.41557400E+00 0.93278387E+02</pdfrwt>
<totfact> 0.21953316E+05</totfact>
</mgrwt>
</event>
<event>
 6    2  0.9453093E+000  0.8603054E+02  0.7546771E-02  0.1312759E+00
         21   -1    0    0  501  502  0.00000000000E+00  0.00000000000E+00  0.24607683216E+02  0.24607683216E+02  0.00000000000E+00 0. -1.
          4   -1    0    0  502    0 -0.00000000000E+00 -0.00000000000E+00 -0.14953727171E+03  0.14953727171E+03  0.00000000000E+00 0. -1.
         24    2    1    2    0    0 -0.64309739248E+00 -0.24790287818E+02 -0.12184414768E+03  0.14915511921E+03  0.82378888793E+02 0.  0.
        -13    1    3    3    0    0 -0.12608989109E+02  0.10264219892E+02  0.50026798441E+01  0.17010808974E+02  0.00000000000E+00 0.  1.
         14    1    3    3    0    0  0.11965891716E+02 -0.35054507710E+02 -0.12684682752E+03  0.13214431023E+03  0.00000000000E+00 0. -1.
          3    1    1    2  501    0  0.64309739248E+00  0.24790287818E+02 -0.30854408232E+01  0.24989835722E+02  0.00000000000E+00 0. -1.
<mgrwt>
<rscale>  1 0.86030537E+02</rscale>
<asrwt>0</asrwt>
<pdfrwt beam="1">  1       21 0.37857974E-02 0.86030537E+02</pdfrwt>
<pdfrwt beam="2">  1        4 0.23005734E-01 0.86030537E+02</pdfrwt>
<totfact> 0.27555321E+05</totfact>
</mgrwt>
</event>
<event>
 6    2  0.9453093E+000  0.1206627E+03  0.7546771E-02  0.1242008E+00
         21   -1    0    0  501  502  0.00000000000E+00  0.00000000000E+00  0.40965195959E+03  0.40965195959E+03  0.00000000000E+00 0.  1.
         -3   -1    0    0    0  501 -0.00000000000E+00 -0.00000000000E+00 -0.35404976673E+02  0.35404976673E+02  0.00000000000E+00 0.  1.
         24    2    1    2    0    0 -0.89618332142E+02 -0.13759244195E+02  0.10163642939E+03  0.15776392181E+03  0.79616135238E+02 0.  0.
        -11    1    3    3    0    0 -0.91700134716E+02 -0.22506700549E+02  0.52951998912E+02  0.10825608743E+03  0.00000000000E+00 0.  1.
         12    1    3    3    0    0  0.20818025749E+01  0.87474563540E+01  0.48684430474E+02  0.49507834382E+02  0.00000000000E+00 0. -1.
         -4    1    1    2    0  502  0.89618332142E+02  0.13759244195E+02  0.27261055353E+03  0.28729301445E+03  0.00000000000E+00 0.  1.
<mgrwt>
<rscale>  1 0.12066272E+03</rscale>
<asrwt>0</asrwt>
<pdfrwt beam="1">  1       21 0.63023375E-01 0.12066272E+03</pdfrwt>
<pdfrwt beam="2">  1       -3 0.54469198E-02 0.12066272E+03</pdfrwt>
<totfact> 0.22208539E+04</totfact>
</mgrwt>
</event>
<event>
 6    2  0.9453093E+000  0.8570883E+02  0.7546771E-02  0.1313589E+00
         21   -1    0    0  501  502  0.00000000000E+00  0.00000000000E+00  0.50962416991E+01  0.50962416991E+01  0.00000000000E+00 0. -1.
          2   -1    0    0  502    0 -0.00000000000E+00 -0.00000000000E+00 -0.61045319297E+03  0.61045319297E+03  0.00000000000E+00 0. -1.
         24    2    1    2    0    0 -0.25396723932E+02  0.68370486838E+00 -0.44272795092E+03  0.45094793773E+03  0.81856844429E+02 0.  0.
        -11    1    3    3    0    0 -0.24933221944E+01 -0.47265004378E+00  0.33935106005E+01  0.42374482681E+01  0.00000000000E+00 0.  1.
         12    1    3    3    0    0 -0.22903401738E+02  0.11563549122E+01 -0.44612146152E+03  0.44671048946E+03  0.00000000000E+00 0. -1.
          1    1    1    2  501    0  0.25396723932E+02 -0.68370486838E+00 -0.16262900036E+03  0.16460149694E+03  0.00000000000E+00 0. -1.
<mgrwt>
<rscale>  1 0.85708833E+02</rscale>
<asrwt>0</asrwt>
<pdfrwt beam="1">  1       21 0.78403723E-03 0.85708833E+02</pdfrwt>
<pdfrwt beam="2">  1        2 0.93915870E-01 0.85708833E+02</pdfrwt>
<totfact> 0.31535881E+06</totfact>
</mgrwt>
</event>
<event>
 6    2  0.9453093E+000  0.8336038E+02  0.7546771E-02  0.1319777E+00
         21   -1    0    0  501  502  0.00000000000E+00  0.00000000000E+00  0.20550352988E+02  0.20550352988E+02  0.00000000000E+00 0.  1.
          2   -1    0    0  502    0 -0.00000000000E+00 -0.00000000000E+00 -0.13468167626E+03  0.13468167626E+03  0.00000000000E+00 0. -1.
         24    2    1    2    0    0 -0.21392943554E+02 -0.11931885661E+01 -0.96200097223E+02  0.12729261980E+03  0.80559733217E+02 0.  0.
        -13    1    3    3    0    0 -0.38684856089E+02 -0.10504903049E+02 -0.13508454639E+02  0.42300702423E+02  0.00000000000E+00 0.  1.
         14    1    3    3    0    0  0.17291912535E+02  0.93117144826E+01 -0.82691642583E+02  0.84991917374E+02  0.00000000000E+00 0. -1.
          1    1    1    2  501    0  0.21392943554E+02  0.11931885661E+01 -0.17931226048E+02  0.27939409451E+02  0.00000000000E+00 0. -1.
<mgrwt>
<rscale>  1 0.83360376E+02</rscale>
<asrwt>0</asrwt>
<pdfrwt beam="1">  1       21 0.31615927E-02 0.83360376E+02</pdfrwt>
<pdfrwt beam="2">  1        2 0.20720258E-01 0.83360376E+02</pdfrwt>
<totfact> 0.17277092E+06</totfact>
</mgrwt>
</event>
<event>
 6    2  0.9453093E+000  0.7413097E+02  0.7546771E-02  0.1346583E+00
          2   -1    0    0  502    0 -0.00000000000E+00  0.00000000000E+00  0.12125601077E+04  0.12125601077E+04  0.00000000000E+00 0. -1.
         21   -1    0    0  501  502  0.00000000000E+00 -0.00000000000E+00 -0.24388705480E+01  0.24388705480E+01  0.00000000000E+00 0. -1.
         24    2    1    2    0    0  0.16133421049E+00 -0.31186973182E+02  0.97573002272E+03  0.97854201656E+03  0.67251376364E+02 0.  0.
        -11    1    3    3    0    0 -0.21966630630E+02  0.12376545977E+02  0.35042880204E+03  0.35133467955E+03  0.00000000000E+00 0.  1.
         12    1    3    3    0    0  0.22127964841E+02 -0.43563519159E+02  0.62530122067E+03  0.62720733702E+03  0.00000000000E+00 0. -1.
          1    1    1    2  501    0 -0.16133421049E+00  0.31186973182E+02  0.23439121442E+03  0.23645696167E+03  0.00000000000E+00 0. -1.
<mgrwt>
<rscale>  1 0.74130972E+02</rscale>
<asrwt>0</asrwt>
<pdfrwt beam="1">  1       21 0.37521182E-03 0.74130972E+02</pdfrwt>
<pdfrwt beam="2">  1        2 0.18654723E+00 0.74130972E+02</pdfrwt>
<totfact> 0.40105814E+06</totfact>
</mgrwt>
</event>
<event>
 6    2  0.9453093E+000  0.8365020E+02  0.7546771E-02  0.1319001E+00
          2   -1    0    0  502    0 -0.00000000000E+00  0.00000000000E+00  0.36931728261E+03  0.36931728261E+03  0.00000000000E+00 0. -1.
         21   -1    0    0  501  502  0.00000000000E+00 -0.00000000000E+00 -0.77549043813E+01  0.77549043813E+01  0.00000000000E+00 0.  1.
         24    2    1    2    0    0 -0.20136035611E+02 -0.90361695876E+01  0.30758856125E+03  0.31876022244E+03  0.80686083716E+02 0.  0.
        -11    1    3    3    0    0 -0.20305926129E+02 -0.36112562892E+02  0.85304043925E+02  0.94832630168E+02  0.00000000000E+00 0.  1.
         12    1    3    3    0    0  0.16989051727E+00  0.27076393305E+02  0.22228451732E+03  0.22392759227E+03  0.00000000000E+00 0. -1.
          1    1    1    2  501    0  0.20136035611E+02  0.90361695876E+01  0.53973816985E+02  0.58311964560E+02  0.00000000000E+00 0. -1.
<mgrwt>
<rscale>  1 0.83650203E+02</rscale>
<asrwt>0</asrwt>
<pdfrwt beam="1">  1       21 0.11930625E-02 0.83650203E+02</pdfrwt>
<pdfrwt beam="2">  1        2 0.56818030E-01 0.83650203E+02</pdfrwt>
<totfact> 0.28025065E+06</totfact>
</mgrwt>
</event>
<event>
 6    2  0.9453093E+000  0.1438040E+03  0.7546771E-02  0.1208300E+00
          2   -1    0    0  502    0 -0.00000000000E+00  0.00000000000E+00  0.50395975998E+03  0.50395975998E+03  0.00000000000E+00 0. -1.
         21   -1    0    0  501  502  0.00000000000E+00 -0.00000000000E+00 -0.39446292833E+02  0.39446292833E+02  0.00000000000E+00 0.  1.
         24    2    1    2    0    0  0.11127414087E+03  0.42435177083E+02  0.15333375160E+03  0.21021617595E+03  0.80603489814E+02 0.  0.
        -13    1    3    3    0    0  0.11321999535E+03  0.52875214104E+02  0.11288685308E+03  0.16839832901E+03  0.00000000000E+00 0.  1.
         14    1    3    3    0    0 -0.19458544861E+01 -0.10440037021E+02  0.40446898522E+02  0.41817846941E+02  0.00000000000E+00 0. -1.
          1    1    1    2  501    0 -0.11127414087E+03 -0.42435177083E+02  0.31117971554E+03  0.33318987686E+03  0.00000000000E+00 0. -1.
<mgrwt>
<rscale>  1 0.14380404E+03</rscale>
<asrwt>0</asrwt>
<pdfrwt beam="1">  1       21 0.60686608E-02 0.14380404E+03</pdfrwt>
<pdfrwt beam="2">  1        2 0.77532266E-01 0.14380404E+03</pdfrwt>
<totfact> 0.14832610E+05</totfact>
</mgrwt>
</event>
<event>
 6    2  0.9453093E+000  0.8503201E+02  0.7546771E-02  0.1315349E+00
          4   -1    0    0  502    0 -0.00000000000E+00  0.00000000000E+00  0.47172988776E+01  0.47172988776E+01  0.00000000000E+00 0. -1.
         21   -1    0    0  501  502  0.00000000000E+00 -0.00000000000E+00 -0.63938577552E+03  0.63938577552E+03  0.00000000000E+00 0. -1.
         24    2    1    2    0    0 -0.24468962119E+02 -0.19641771793E+01 -0.51014069302E+03  0.51717885687E+03  0.81411640613E+02 0.  0.
        -13    1    3    3    0    0  0.25956534065E+02 -0.97422145947E+01 -0.96512156470E+02  0.10041538105E+03  0.00000000000E+00 0.  1.
         14    1    3    3    0    0 -0.50425496184E+02  0.77780374154E+01 -0.41362853655E+03  0.41676347582E+03  0.00000000000E+00 0. -1.
          3    1    1    2  501    0  0.24468962119E+02  0.19641771793E+01 -0.12452778363E+03  0.12692421753E+03  0.00000000000E+00 0. -1.
<mgrwt>
<rscale>  1 0.85032014E+02</rscale>
<asrwt>0</asrwt>
<pdfrwt beam="1">  1       21 0.98366973E-01 0.85032014E+02</pdfrwt>
<pdfrwt beam="2">  1        4 0.72573880E-03 0.85032014E+02</pdfrwt>
<totfact> 0.15563192E+05</totfact>
</mgrwt>
</event>
<event>
 6    2  0.9453093E+000  0.2331863E+03  0.7546771E-02  0.1124417E+00
         21   -1    0    0  501  502  0.00000000000E+00  0.00000000000E+00  0.39912381464E+03  0.39912381464E+03  0.00000000000E+00 0.  1.
         -3   -1    0    0    0  501 -0.00000000000E+00 -0.00000000000E+00 -0.18911092974E+03  0.18911092974E+03  0.00000000000E+00 0.  1.
         24    2    1    2    0    0  0.20146421517E+03  0.85840916599E+02  0.27428195915E+03  0.36000896392E+03  0.80120958751E+02 0.  0.
        -13    1    3    3    0    0  0.16644376831E+03  0.56415869125E+02  0.16302181552E+03  0.23971314239E+03  0.00000000000E+00 0.  1.
         14    1    3    3    0    0  0.35020446862E+02  0.29425047474E+02  0.11126014364E+03  0.12029582154E+03  0.00000000000E+00 0. -1.
         -4    1    1    2    0  502 -0.20146421517E+03 -0.85840916599E+02 -0.64269074247E+02  0.22822578045E+03  0.00000000000E+00 0.  1.
<mgrwt>
<rscale>  1 0.23318632E+03</rscale>
<asrwt>0</asrwt>
<pdfrwt beam="1">  1       21 0.61403664E-01 0.23318632E+03</pdfrwt>
<pdfrwt beam="2">  1       -3 0.29093989E-01 0.23318632E+03</pdfrwt>
<totfact> 0.13765144E+03</totfact>
</mgrwt>
</event>
<event>
 6    2  0.9453093E+000  0.8691175E+02  0.7546771E-02  0.1310507E+00
         -1   -1    0    0    0  501 -0.00000000000E+00  0.00000000000E+00  0.98993474410E+03  0.98993474410E+03  0.00000000000E+00 0.  1.
         21   -1    0    0  501  502  0.00000000000E+00 -0.00000000000E+00 -0.21880597042E+02  0.21880597042E+02  0.00000000000E+00 0. -1.
         24    2    1    2    0    0  0.13703549832E+02  0.32125571747E+02  0.97270566619E+03  0.97658075205E+03  0.79585253618E+02 0.  0.
        -13    1    3    3    0    0 -0.20812477991E+02  0.16987693143E+02  0.76575241735E+03  0.76622353504E+03  0.00000000000E+00 0.  1.
         14    1    3    3    0    0  0.34516027823E+02  0.15137878604E+02  0.20695324884E+03  0.21035721701E+03  0.00000000000E+00 0. -1.
         -2    1    1    2    0  502 -0.13703549832E+02 -0.32125571747E+02 -0.46515191360E+01  0.35234589090E+02  0.00000000000E+00 0.  1.
<mgrwt>
<rscale>  1 0.86911750E+02</rscale>
<asrwt>0</asrwt>
<pdfrwt beam="1">  1       21 0.33662465E-02 0.86911750E+02</pdfrwt>
<pdfrwt beam="2">  1       -1 0.15229762E+00 0.86911750E+02</pdfrwt>
<totfact> 0.17877203E+04</totfact>
</mgrwt>
</event>
<event>
 6    2  0.9453093E+000  0.8286687E+02  0.7546771E-02  0.1321107E+00
          4   -1    0    0  502    0 -0.00000000000E+00  0.00000000000E+00  0.53232263743E+03  0.53232263743E+03  0.00000000000E+00 0. -1.
         21   -1    0    0  501  502  0.00000000000E+00 -0.00000000000E+00 -0.70562133451E+01  0.70562133451E+01  0.00000000000E+00 0. -1.
         24    2    1    2    0    0 -0.19852432314E+02  0.22619629665E+02  0.46132710824E+03  0.46871059181E+03  0.77208492791E+02 0.  0.
        -13    1    3    3    0    0 -0.12183979468E+02 -0.13921495578E+02  0.26701963296E+02  0.32484646199E+02  0.00000000000E+00 0.  1.
         14    1    3    3    0    0 -0.76684528460E+01  0.36541125243E+02  0.43462514495E+03  0.43622594561E+03  0.00000000000E+00 0. -1.
          3    1    1    2  501    0  0.19852432314E+02 -0.22619629665E+02  0.63939315840E+02  0.70668258964E+02  0.00000000000E+00 0. -1.
<mgrwt>
<rscale>  1 0.82866870E+02</rscale>
<asrwt>0</asrwt>
<pdfrwt beam="1">  1       21 0.10855717E-02 0.82866870E+02</pdfrwt>
<pdfrwt beam="2">  1        4 0.81895758E-01 0.82866870E+02</pdfrwt>
<totfact> 0.16283833E+05</totfact>
</mgrwt>
</event>
<event>
 6    2  0.9453093E+000  0.8702886E+02  0.7546771E-02  0.1310211E+00
         21   -1    0    0  501  502  0.00000000000E+00  0.00000000000E+00  0.13144918924E+01  0.13144918924E+01  0.00000000000E+00 0. -1.
          2   -1    0    0  502    0 -0.00000000000E+00 -0.00000000000E+00 -0.27013632227E+04  0.27013632227E+04  0.00000000000E+00 0. -1.
         24    2    1    2    0    0  0.20969948667E+02  0.62807016816E+01 -0.24837194665E+04  0.24852437326E+04  0.84230848471E+02 0.  0.
        -11    1    3    3    0    0  0.10483142434E+02  0.21808228374E+02 -0.20154081355E+03  0.20298816376E+03  0.00000000000E+00 0.  1.
         12    1    3    3    0    0  0.10486806233E+02 -0.15527526692E+02 -0.22821786530E+04  0.22822555688E+04  0.00000000000E+00 0. -1.
          1    1    1    2  501    0 -0.20969948667E+02 -0.62807016816E+01 -0.21632926425E+03  0.21743398201E+03  0.00000000000E+00 0. -1.
<mgrwt>
<rscale>  1 0.87028856E+02</rscale>
<asrwt>0</asrwt>
<pdfrwt beam="1">  1       21 0.20222795E-03 0.87028856E+02</pdfrwt>
<pdfrwt beam="2">  1        2 0.41559756E+00 0.87028856E+02</pdfrwt>
<totfact> 0.17861926E+06</totfact>
</mgrwt>
</event>
<event>
 6    2  0.9453093E+000  0.1132213E+03  0.7546771E-02  0.1254718E+00
         21   -1    0    0  501  502  0.00000000000E+00  0.00000000000E+00  0.20749833511E+03  0.20749833511E+03  0.00000000000E+00 0.  1.
         -1   -1    0    0    0  501 -0.00000000000E+00 -0.00000000000E+00 -0.15602605222E+03  0.15602605222E+03  0.00000000000E+00 0.  1.
         24    2    1    2    0    0 -0.77436301968E+02 -0.20127519261E+02 -0.12567028034E+03  0.16915107228E+03  0.80109724752E+02 0.  0.
        -11    1    3    3    0    0 -0.88618825216E+02 -0.25740443759E+02 -0.12653293225E+03  0.15660922569E+03  0.00000000000E+00 0.  1.
         12    1    3    3    0    0  0.11182523248E+02  0.56129244972E+01  0.86265191236E+00  0.12541846591E+02  0.00000000000E+00 0. -1.
         -2    1    1    2    0  502  0.77436301968E+02  0.20127519261E+02  0.17714256323E+03  0.19437331505E+03  0.00000000000E+00 0.  1.
<mgrwt>
<rscale>  1 0.11322131E+03</rscale>
<asrwt>0</asrwt>
<pdfrwt beam="1">  1       21 0.31922821E-01 0.11322131E+03</pdfrwt>
<pdfrwt beam="2">  1       -1 0.24004008E-01 0.11322131E+03</pdfrwt>
<totfact> 0.12846512E+04</totfact>
</mgrwt>
</event>
<event>
 6    2  0.9453093E+000  0.8354258E+02  0.7546771E-02  0.1319288E+00
         21   -1    0    0  501  502  0.00000000000E+00  0.00000000000E+00  0.98930745884E+02  0.98930745884E+02  0.00000000000E+00 0.  1.
          2   -1    0    0  502    0 -0.00000000000E+00 -0.00000000000E+00 -0.30602655821E+02  0.30602655821E+02  0.00000000000E+00 0. -1.
         24    2    1    2    0    0  0.18544387673E+02  0.17508397570E+02  0.59419829828E+02  0.10251867609E+03  0.79554537714E+02 0.  0.
        -13    1    3    3    0    0 -0.12635701898E+02  0.42008532171E+02  0.30069439681E+02  0.53184104207E+02  0.00000000000E+00 0.  1.
         14    1    3    3    0    0  0.31180089571E+02 -0.24500134601E+02  0.29350390147E+02  0.49334571883E+02  0.00000000000E+00 0. -1.
          1    1    1    2  501    0 -0.18544387673E+02 -0.17508397570E+02  0.89082602346E+01  0.27014725615E+02  0.00000000000E+00 0. -1.
<mgrwt>
<rscale>  1 0.83542581E+02</rscale>
<asrwt>0</asrwt>
<pdfrwt beam="1">  1       21 0.15220115E-01 0.83542581E+02</pdfrwt>
<pdfrwt beam="2">  1        2 0.47081009E-02 0.83542581E+02</pdfrwt>
<totfact> 0.71999674E+05</totfact>
</mgrwt>
</event>
<event>
 6    2  0.9453093E+000  0.8648976E+02  0.7546771E-02  0.1311582E+00
         21   -1    0    0  501  502  0.00000000000E+00  0.00000000000E+00  0.89466872699E+03  0.89466872699E+03  0.00000000000E+00 0.  1.
         -3   -1    0    0    0  501 -0.00000000000E+00 -0.00000000000E+00 -0.16657250717E+02  0.16657250717E+02  0.00000000000E+00 0.  1.
         24    2    1    2    0    0  0.30950531155E+02 -0.23031361230E+01  0.98041370088E+02  0.13073863067E+03  0.80729421436E+02 0.  0.
        -11    1    3    3    0    0  0.39269863333E+02 -0.17252514170E+02  0.14218709965E+02  0.45187864792E+02  0.00000000000E+00 0.  1.
         12    1    3    3    0    0 -0.83193321777E+01  0.14949378047E+02  0.83822660124E+02  0.85550765876E+02  0.00000000000E+00 0. -1.
         -4    1    1    2    0  502 -0.30950531155E+02  0.23031361230E+01  0.77997010619E+03  0.78058734704E+03  0.00000000000E+00 0.  1.
<mgrwt>
<rscale>  1 0.86489764E+02</rscale>
<asrwt>0</asrwt>
<pdfrwt beam="1">  1       21 0.13764131E+00 0.86489764E+02</pdfrwt>
<pdfrwt beam="2">  1       -3 0.25626547E-02 0.86489764E+02</pdfrwt>
<totfact> 0.11674248E+04</totfact>
</mgrwt>
</event>
<event>
 6    2  0.9453093E+000  0.1169525E+03  0.7546771E-02  0.1248211E+00
          2   -1    0    0  502    0 -0.00000000000E+00  0.00000000000E+00  0.28682055121E+03  0.28682055121E+03  0.00000000000E+00 0. -1.
         21   -1    0    0  501  502  0.00000000000E+00 -0.00000000000E+00 -0.40703035669E+02  0.40703035669E+02  0.00000000000E+00 0. -1.
         24    2    1    2    0    0  0.84350006627E+02  0.30794109533E+01  0.81564779960E+02  0.14258573468E+03  0.80953517611E+02 0.  0.
        -11    1    3    3    0    0  0.17550930068E+02  0.37163327974E+02  0.37315040529E+02  0.55511803628E+02  0.00000000000E+00 0.  1.
         12    1    3    3    0    0  0.66799076559E+02 -0.34083917020E+02  0.44249739431E+02  0.87073931049E+02  0.00000000000E+00 0. -1.
          1    1    1    2  501    0 -0.84350006627E+02 -0.30794109533E+01  0.16455273559E+03  0.18493785221E+03  0.00000000000E+00 0. -1.
<mgrwt>
<rscale>  1 0.11695246E+03</rscale>
<asrwt>0</asrwt>
<pdfrwt beam="1">  1       21 0.62620057E-02 0.11695246E+03</pdfrwt>
<pdfrwt beam="2">  1        2 0.44126237E-01 0.11695246E+03</pdfrwt>
<totfact> 0.25445777E+05</totfact>
</mgrwt>
</event>
<event>
 6    2  0.9453093E+000  0.9370507E+02  0.7546771E-02  0.1294120E+00
         21   -1    0    0  501  502  0.00000000000E+00  0.00000000000E+00  0.31567745994E+01  0.31567745994E+01  0.00000000000E+00 0.  1.
          2   -1    0    0  502    0 -0.00000000000E+00 -0.00000000000E+00 -0.16897911219E+04  0.16897911219E+04  0.00000000000E+00 0. -1.
         24    2    1    2    0    0  0.48574806372E+02  0.10513183947E+02 -0.93917438799E+03  0.94383747098E+03  0.79439295798E+02 0.  0.
        -11    1    3    3    0    0  0.72020843043E+01 -0.28179084593E+02 -0.16114770880E+03  0.16375138130E+03  0.00000000000E+00 0.  1.
         12    1    3    3    0    0  0.41372722068E+02  0.38692268540E+02 -0.77802667920E+03  0.78008608968E+03  0.00000000000E+00 0. -1.
          1    1    1    2  501    0 -0.48574806372E+02 -0.10513183947E+02 -0.74745995930E+03  0.74911042551E+03  0.00000000000E+00 0. -1.
<mgrwt>
<rscale>  1 0.93705072E+02</rscale>
<asrwt>0</asrwt>
<pdfrwt beam="1">  1       21 0.48565835E-03 0.93705072E+02</pdfrwt>
<pdfrwt beam="2">  1        2 0.25996748E+00 0.93705072E+02</pdfrwt>
<totfact> 0.15704611E+06</totfact>
</mgrwt>
</event>
<event>
 6    2  0.9453093E+000  0.8479427E+02  0.7546771E-02  0.1315971E+00
         21   -1    0    0  501  502  0.00000000000E+00  0.00000000000E+00  0.10807811532E+02  0.10807811532E+02  0.00000000000E+00 0. -1.
          2   -1    0    0  502    0 -0.00000000000E+00 -0.00000000000E+00 -0.60089759252E+03  0.60089759252E+03  0.00000000000E+00 0. -1.
         24    2    1    2    0    0 -0.25377646318E+02 -0.88525715487E+01 -0.57431456657E+03  0.58054051442E+03  0.80421853702E+02 0.  0.
        -13    1    3    3    0    0 -0.11818658793E+00 -0.41995583002E+02 -0.33541302773E+03  0.33803186556E+03  0.00000000000E+00 0.  1.
         14    1    3    3    0    0 -0.25259459730E+02  0.33143011454E+02 -0.23890153883E+03  0.24250864886E+03  0.00000000000E+00 0. -1.
          1    1    1    2  501    0  0.25377646318E+02  0.88525715487E+01 -0.15775214414E+02  0.31164889627E+02  0.00000000000E+00 0. -1.
<mgrwt>
<rscale>  1 0.84794266E+02</rscale>
<asrwt>0</asrwt>
<pdfrwt beam="1">  1       21 0.16627398E-02 0.84794266E+02</pdfrwt>
<pdfrwt beam="2">  1        2 0.92445807E-01 0.84794266E+02</pdfrwt>
<totfact> 0.98673178E+05</totfact>
</mgrwt>
</event>
<event>
 6    2  0.9453093E+000  0.8393101E+02  0.7546771E-02  0.1318252E+00
          2   -1    0    0  502    0 -0.00000000000E+00  0.00000000000E+00  0.32322363062E+04  0.32322363062E+04  0.00000000000E+00 0. -1.
         21   -1    0    0  501  502  0.00000000000E+00 -0.00000000000E+00 -0.89473863734E+00  0.89473863734E+00  0.00000000000E+00 0.  1.
         24    2    1    2    0    0 -0.11367169056E+02  0.20123977831E+02  0.26547823936E+04  0.26561088026E+04  0.80685975164E+02 0.  0.
        -13    1    3    3    0    0  0.19729127495E+02 -0.13513126585E+02  0.32598954705E+03  0.32686545833E+03  0.00000000000E+00 0.  1.
         14    1    3    3    0    0 -0.31096296551E+02  0.33637104416E+02  0.23287928466E+04  0.23292433442E+04  0.00000000000E+00 0. -1.
          1    1    1    2  501    0  0.11367169056E+02 -0.20123977831E+02  0.57655917390E+03  0.57702224223E+03  0.00000000000E+00 0. -1.
<mgrwt>
<rscale>  1 0.83931005E+02</rscale>
<asrwt>0</asrwt>
<pdfrwt beam="1">  1       21 0.13765469E-03 0.83931005E+02</pdfrwt>
<pdfrwt beam="2">  1        2 0.49725778E+00 0.83931005E+02</pdfrwt>
<totfact> 0.15857998E+06</totfact>
</mgrwt>
</event>
<event>
 6    2  0.9453093E+000  0.8866069E+02  0.7546771E-02  0.1306128E+00
          2   -1    0    0  502    0 -0.00000000000E+00  0.00000000000E+00  0.34271187611E+04  0.34271187611E+04  0.00000000000E+00 0. -1.
         21   -1    0    0  501  502  0.00000000000E+00 -0.00000000000E+00 -0.11363475580E+01  0.11363475580E+01  0.00000000000E+00 0.  1.
         24    2    1    2    0    0 -0.10770276835E+02 -0.33038412162E+02  0.22137094771E+04  0.22154842284E+04  0.81567038696E+02 0.  0.
        -13    1    3    3    0    0 -0.33270236451E+02 -0.47606300425E+02  0.11813747102E+04  0.11828015364E+04  0.00000000000E+00 0.  1.
         14    1    3    3    0    0  0.22499959616E+02  0.14567888263E+02  0.10323347669E+04  0.10326826921E+04  0.00000000000E+00 0. -1.
          1    1    1    2  501    0  0.10770276835E+02  0.33038412162E+02  0.12122729365E+04  0.12127708803E+04  0.00000000000E+00 0. -1.
<mgrwt>
<rscale>  1 0.88660687E+02</rscale>
<asrwt>0</asrwt>
<pdfrwt beam="1">  1       21 0.17482544E-03 0.88660687E+02</pdfrwt>
<pdfrwt beam="2">  1        2 0.52724077E+00 0.88660687E+02</pdfrwt>
<totfact> 0.84570130E+05</totfact>
</mgrwt>
</event>
<event>
 6    2  0.9453093E+000  0.8415841E+02  0.7546771E-02  0.1317648E+00
         21   -1    0    0  501  502  0.00000000000E+00  0.00000000000E+00  0.75217186413E+01  0.75217186413E+01  0.00000000000E+00 0.  1.
          2   -1    0    0  502    0 -0.00000000000E+00 -0.00000000000E+00 -0.40765976233E+03  0.40765976233E+03  0.00000000000E+00 0. -1.
         24    2    1    2    0    0 -0.72776224656E+01 -0.23697110159E+02 -0.33704777977E+03  0.34739580240E+03  0.80424628412E+02 0.  0.
        -11    1    3    3    0    0  0.30874275497E+02 -0.16227280499E+02 -0.77949016460E+02  0.85396690140E+02  0.00000000000E+00 0.  1.
         12    1    3    3    0    0 -0.38151897963E+02 -0.74698296602E+01 -0.25909876331E+03  0.26199911226E+03  0.00000000000E+00 0. -1.
          1    1    1    2  501    0  0.72776224656E+01  0.23697110159E+02 -0.63090263914E+02  0.67785678571E+02  0.00000000000E+00 0. -1.
<mgrwt>
<rscale>  1 0.84158408E+02</rscale>
<asrwt>0</asrwt>
<pdfrwt beam="1">  1       21 0.11571876E-02 0.84158408E+02</pdfrwt>
<pdfrwt beam="2">  1        2 0.62716883E-01 0.84158408E+02</pdfrwt>
<totfact> 0.26529948E+06</totfact>
</mgrwt>
</event>
<event>
 6    2  0.9453093E+000  0.8654668E+02  0.7546771E-02  0.1311437E+00
         21   -1    0    0  501  502  0.00000000000E+00  0.00000000000E+00  0.39462490417E+01  0.39462490417E+01  0.00000000000E+00 0. -1.
         -1   -1    0    0    0  501 -0.00000000000E+00 -0.00000000000E+00 -0.87281625172E+03  0.87281625172E+03  0.00000000000E+00 0.  1.
         24    2    1    2    0    0 -0.23048281294E+02  0.20251786689E+02 -0.66035582669E+03  0.66600311254E+03  0.80925706282E+02 0.  0.
        -11    1    3    3    0    0  0.89943229127E+01  0.18495614554E+00 -0.53486635276E+03  0.53494200374E+03  0.00000000000E+00 0.  1.
         12    1    3    3    0    0 -0.32042604207E+02  0.20066830544E+02 -0.12548947393E+03  0.13106110880E+03  0.00000000000E+00 0. -1.
         -2    1    1    2    0  502  0.23048281294E+02 -0.20251786689E+02 -0.20851417599E+03  0.21075938822E+03  0.00000000000E+00 0.  1.
<mgrwt>
<rscale>  1 0.86546681E+02</rscale>
<asrwt>0</asrwt>
<pdfrwt beam="1">  1       21 0.60711473E-03 0.86546681E+02</pdfrwt>
<pdfrwt beam="2">  1       -1 0.13427954E+00 0.86546681E+02</pdfrwt>
<totfact> 0.36769045E+05</totfact>
</mgrwt>
</event>
<event>
 6    2  0.9453093E+000  0.8652477E+02  0.7546771E-02  0.1311493E+00
         21   -1    0    0  501  502  0.00000000000E+00  0.00000000000E+00  0.10420871466E+02  0.10420871466E+02  0.00000000000E+00 0. -1.
          2   -1    0    0  502    0 -0.00000000000E+00 -0.00000000000E+00 -0.49722317413E+03  0.49722317413E+03  0.00000000000E+00 0. -1.
         24    2    1    2    0    0  0.28209159905E+02 -0.78291900780E+01 -0.45962524221E+03  0.46769851349E+03  0.81421639205E+02 0.  0.
        -13    1    3    3    0    0 -0.10912593300E+02  0.29762861351E+02 -0.14445503208E+03  0.14789242341E+03  0.00000000000E+00 0.  1.
         14    1    3    3    0    0  0.39121753204E+02 -0.37592051429E+02 -0.31517021012E+03  0.31980609008E+03  0.00000000000E+00 0. -1.
          1    1    1    2  501    0 -0.28209159905E+02  0.78291900780E+01 -0.27177060457E+02  0.39945532102E+02  0.00000000000E+00 0. -1.
<mgrwt>
<rscale>  1 0.86524772E+02</rscale>
<asrwt>0</asrwt>
<pdfrwt beam="1">  1       21 0.16032111E-02 0.86524772E+02</pdfrwt>
<pdfrwt beam="2">  1        2 0.76495867E-01 0.86524772E+02</pdfrwt>
<totfact> 0.12890292E+06</totfact>
</mgrwt>
</event>
<event>
 6    2  0.9453093E+000  0.7972491E+02  0.7546771E-02  0.1329834E+00
          2   -1    0    0  502    0 -0.00000000000E+00  0.00000000000E+00  0.58628689840E+02  0.58628689840E+02  0.00000000000E+00 0. -1.
         21   -1    0    0  501  502  0.00000000000E+00 -0.00000000000E+00 -0.49547932068E+02  0.49547932068E+02  0.00000000000E+00 0. -1.
         24    2    1    2    0    0 -0.14960526328E+01  0.23774695041E+02 -0.60527316724E+01  0.79954347008E+02  0.76082769054E+02 0.  0.
        -13    1    3    3    0    0  0.15651016597E+02  0.23814078323E+02  0.29170140699E+02  0.40779428089E+02  0.00000000000E+00 0.  1.
         14    1    3    3    0    0 -0.17147069230E+02 -0.39383281773E-01 -0.35222872371E+02  0.39174918919E+02  0.00000000000E+00 0. -1.
          1    1    1    2  501    0  0.14960526328E+01 -0.23774695041E+02  0.15133489444E+02  0.28222274900E+02  0.00000000000E+00 0. -1.
<mgrwt>
<rscale>  1 0.79724915E+02</rscale>
<asrwt>0</asrwt>
<pdfrwt beam="1">  1       21 0.76227588E-02 0.79724915E+02</pdfrwt>
<pdfrwt beam="2">  1        2 0.90197984E-02 0.79724915E+02</pdfrwt>
<totfact> 0.10511704E+06</totfact>
</mgrwt>
</event>
<event>
 6    2  0.9453093E+000  0.1053295E+03  0.7546771E-02  0.1269472E+00
         21   -1    0    0  501  502  0.00000000000E+00  0.00000000000E+00  0.55092103695E+02  0.55092103695E+02  0.00000000000E+00 0.  1.
          4   -1    0    0  502    0 -0.00000000000E+00 -0.00000000000E+00 -0.14361235239E+03  0.14361235239E+03  0.00000000000E+00 0. -1.
         24    2    1    2    0    0 -0.19714315089E+02  0.65532976452E+02 -0.32394851634E+02  0.11019860646E+03  0.80069227743E+02 0.  0.
        -13    1    3    3    0    0 -0.41910022051E+02  0.48913970731E+02  0.38920970017E+01  0.64530418409E+02  0.00000000000E+00 0.  1.
         14    1    3    3    0    0  0.22195706961E+02  0.16619005721E+02 -0.36286948635E+02  0.45668188052E+02  0.00000000000E+00 0. -1.
          3    1    1    2  501    0  0.19714315089E+02 -0.65532976452E+02 -0.56125397059E+02  0.88505849621E+02  0.00000000000E+00 0. -1.
<mgrwt>
<rscale>  1 0.10532951E+03</rscale>
<asrwt>0</asrwt>
<pdfrwt beam="1">  1       21 0.84757084E-02 0.10532951E+03</pdfrwt>
<pdfrwt beam="2">  1        4 0.22094208E-01 0.10532951E+03</pdfrwt>
<totfact> 0.79393630E+04</totfact>
</mgrwt>
</event>
<event>
 6    2  0.9453093E+000  0.8836117E+02  0.7546771E-02  0.1306870E+00
         -3   -1    0    0    0  501 -0.00000000000E+00  0.00000000000E+00  0.19276715291E+02  0.19276715291E+02  0.00000000000E+00 0.  1.
         21   -1    0    0  501  502  0.00000000000E+00 -0.00000000000E+00 -0.21319599349E+03  0.21319599349E+03  0.00000000000E+00 0. -1.
         24    2    1    2    0    0  0.23911658339E+02 -0.30874366607E+02 -0.12203526610E+03  0.15066619856E+03  0.79263505476E+02 0.  0.
        -13    1    3    3    0    0  0.36875379342E+02 -0.40325296819E+02 -0.41680174270E+02  0.68725250763E+02  0.00000000000E+00 0.  1.
         14    1    3    3    0    0 -0.12963721004E+02  0.94509302117E+01 -0.80355091825E+02  0.81940947799E+02  0.00000000000E+00 0. -1.
         -4    1    1    2    0  502 -0.23911658339E+02  0.30874366607E+02 -0.71884012105E+02  0.81806510219E+02  0.00000000000E+00 0.  1.
<mgrwt>
<rscale>  1 0.88361175E+02</rscale>
<asrwt>0</asrwt>
<pdfrwt beam="1">  1       21 0.32799383E-01 0.88361175E+02</pdfrwt>
<pdfrwt beam="2">  1       -3 0.29656485E-02 0.88361175E+02</pdfrwt>
<totfact> 0.20774974E+05</totfact>
</mgrwt>
</event>
<event>
 6    2  0.1010480E+001  0.8900440E+02  0.7546771E-02  0.1305281E+00
         21   -1    0    0  501  502  0.00000000000E+00  0.00000000000E+00  0.50841949253E+02  0.50841949253E+02  0.00000000000E+00 0.  1.
         -3   -1    0    0    0  501 -0.00000000000E+00 -0.00000000000E+00 -0.79164584472E+03  0.79164584472E+03  0.00000000000E+00 0.  1.
         24    2    1    2    0    0 -0.16307761430E+01 -0.36869045170E+02 -0.78207467422E+03  0.78712297571E+03  0.80992573121E+02 0.  0.
        -11    1    3    3    0    0 -0.10713866866E+02 -0.57246780541E+02 -0.68706136123E+03  0.68952541282E+03  0.00000000000E+00 0.  1.
         12    1    3    3    0    0  0.90830907234E+01  0.20377735371E+02 -0.95013312991E+02  0.97597562887E+02  0.00000000000E+00 0. -1.
         -4    1    1    2    0  502  0.16307761430E+01  0.36869045170E+02  0.41270778756E+02  0.55364818267E+02  0.00000000000E+00 0.  1.
<mgrwt>
<rscale>  1 0.89004398E+02</rscale>
<asrwt>0</asrwt>
<pdfrwt beam="1">  1       21 0.78218380E-02 0.89004398E+02</pdfrwt>
<pdfrwt beam="2">  1       -3 0.12179167E+00 0.89004398E+02</pdfrwt>
<totfact> 0.34204714E+03</totfact>
</mgrwt>
</event>
<event>
 6    2  0.9453093E+000  0.8871230E+02  0.7546771E-02  0.1306000E+00
          2   -1    0    0  502    0 -0.00000000000E+00  0.00000000000E+00  0.66621377860E+03  0.66621377860E+03  0.00000000000E+00 0. -1.
         21   -1    0    0  501  502  0.00000000000E+00 -0.00000000000E+00 -0.61674375202E+01  0.61674375202E+01  0.00000000000E+00 0.  1.
         24    2    1    2    0    0 -0.24740750286E+02 -0.30460689130E+02  0.43793413754E+03  0.44682902866E+03  0.79560754916E+02 0.  0.
        -13    1    3    3    0    0  0.55056162105E+01 -0.50361694103E+02  0.29861898468E+03  0.30288596873E+03  0.00000000000E+00 0.  1.
         14    1    3    3    0    0 -0.30246366497E+02  0.19901004973E+02  0.13931515286E+03  0.14394305993E+03  0.00000000000E+00 0. -1.
          1    1    1    2  501    0  0.24740750286E+02  0.30460689130E+02  0.22211220354E+03  0.22555218746E+03  0.00000000000E+00 0. -1.
<mgrwt>
<rscale>  1 0.88712299E+02</rscale>
<asrwt>0</asrwt>
<pdfrwt beam="1">  1       21 0.94883707E-03 0.88712299E+02</pdfrwt>
<pdfrwt beam="2">  1        2 0.10249437E+00 0.88712299E+02</pdfrwt>
<totfact> 0.21315357E+06</totfact>
</mgrwt>
</event>
<event>
 6    2  0.9453093E+000  0.8370497E+02  0.7546771E-02  0.1318854E+00
         21   -1    0    0  501  502  0.00000000000E+00  0.00000000000E+00  0.14846556770E+02  0.14846556770E+02  0.00000000000E+00 0.  1.
          2   -1    0    0  502    0 -0.00000000000E+00 -0.00000000000E+00 -0.20758027436E+03  0.20758027436E+03  0.00000000000E+00 0. -1.
         24    2    1    2    0    0 -0.17859639073E+02 -0.16998554116E+02 -0.16690861995E+03  0.18672174441E+03  0.79991279969E+02 0.  0.
        -13    1    3    3    0    0 -0.33569341824E+02 -0.37465854652E+02 -0.68501957104E+02  0.84988876345E+02  0.00000000000E+00 0.  1.
         14    1    3    3    0    0  0.15709702751E+02  0.20467300536E+02 -0.98406662846E+02  0.10173286806E+03  0.00000000000E+00 0. -1.
          1    1    1    2  501    0  0.17859639073E+02  0.16998554116E+02 -0.25825097642E+02  0.35705086725E+02  0.00000000000E+00 0. -1.
<mgrwt>
<rscale>  1 0.83704972E+02</rscale>
<asrwt>0</asrwt>
<pdfrwt beam="1">  1       21 0.22840857E-02 0.83704972E+02</pdfrwt>
<pdfrwt beam="2">  1        2 0.31935427E-01 0.83704972E+02</pdfrwt>
<totfact> 0.18288541E+06</totfact>
</mgrwt>
</event>
<event>
 6    2  0.9453093E+000  0.8363335E+02  0.7546771E-02  0.1319046E+00
         21   -1    0    0  501  502  0.00000000000E+00  0.00000000000E+00  0.19825931351E+01  0.19825931351E+01  0.00000000000E+00 0. -1.
          2   -1    0    0  502    0 -0.00000000000E+00 -0.00000000000E+00 -0.13815431899E+04  0.13815431899E+04  0.00000000000E+00 0. -1.
         24    2    1    2    0    0 -0.18843031191E+02  0.92677800226E+01 -0.11175975180E+04  0.11207224227E+04  0.80954214942E+02 0.  0.
        -13    1    3    3    0    0  0.25266378682E+02  0.16701758543E+02 -0.71620731388E+03  0.71684744198E+03  0.00000000000E+00 0.  1.
         14    1    3    3    0    0 -0.44109409873E+02 -0.74339785199E+01 -0.40139020411E+03  0.40387498070E+03  0.00000000000E+00 0. -1.
          1    1    1    2  501    0  0.18843031191E+02 -0.92677800226E+01 -0.26196307880E+03  0.26280336038E+03  0.00000000000E+00 0. -1.
<mgrwt>
<rscale>  1 0.83633346E+02</rscale>
<asrwt>0</asrwt>
<pdfrwt beam="1">  1       21 0.30501376E-03 0.83633346E+02</pdfrwt>
<pdfrwt beam="2">  1        2 0.21254550E+00 0.83633346E+02</pdfrwt>
<totfact> 0.45300027E+06</totfact>
</mgrwt>
</event>
<event>
 6    2  0.9453093E+000  0.8887302E+02  0.7546771E-02  0.1305604E+00
         21   -1    0    0  501  502  0.00000000000E+00  0.00000000000E+00  0.98883313226E+02  0.98883313226E+02  0.00000000000E+00 0. -1.
          2   -1    0    0  502    0 -0.00000000000E+00 -0.00000000000E+00 -0.12543451484E+03  0.12543451484E+03  0.00000000000E+00 0. -1.
         24    2    1    2    0    0 -0.74788447159E+01 -0.37188111123E+02 -0.10476970115E+03  0.13738669212E+03  0.80371165011E+02 0.  0.
        -11    1    3    3    0    0  0.99830940297E+01 -0.25983707179E+02  0.26688945857E+01  0.27963157967E+02  0.00000000000E+00 0.  1.
         12    1    3    3    0    0 -0.17461938746E+02 -0.11204403943E+02 -0.10743859574E+03  0.10942353415E+03  0.00000000000E+00 0. -1.
          1    1    1    2  501    0  0.74788447159E+01  0.37188111123E+02  0.78218499537E+02  0.86931135946E+02  0.00000000000E+00 0. -1.
<mgrwt>
<rscale>  1 0.88873016E+02</rscale>
<asrwt>0</asrwt>
<pdfrwt beam="1">  1       21 0.15212817E-01 0.88873016E+02</pdfrwt>
<pdfrwt beam="2">  1        2 0.19297618E-01 0.88873016E+02</pdfrwt>
<totfact> 0.13093853E+05</totfact>
</mgrwt>
</event>
<event>
 6    2  0.9453093E+000  0.8588865E+02  0.7546771E-02  0.1313125E+00
         21   -1    0    0  501  502  0.00000000000E+00  0.00000000000E+00  0.17210272760E+03  0.17210272760E+03  0.00000000000E+00 0. -1.
          2   -1    0    0  502    0 -0.00000000000E+00 -0.00000000000E+00 -0.36671486724E+02  0.36671486724E+02  0.00000000000E+00 0. -1.
         24    2    1    2    0    0  0.31166292583E+01 -0.22941565102E+02  0.16309551024E+02  0.87423459153E+02  0.82709316092E+02 0.  0.
        -13    1    3    3    0    0  0.70733104097E+00 -0.77087920904E+01  0.49881529963E+02  0.50478637305E+02  0.00000000000E+00 0.  1.
         14    1    3    3    0    0  0.24092982174E+01 -0.15232773012E+02 -0.33571978939E+02  0.36944821848E+02  0.00000000000E+00 0. -1.
          1    1    1    2  501    0 -0.31166292583E+01  0.22941565102E+02  0.11912168985E+03  0.12135075517E+03  0.00000000000E+00 0. -1.
<mgrwt>
<rscale>  1 0.85888647E+02</rscale>
<asrwt>0</asrwt>
<pdfrwt beam="1">  1       21 0.26477342E-01 0.85888647E+02</pdfrwt>
<pdfrwt beam="2">  1        2 0.56417673E-02 0.85888647E+02</pdfrwt>
<totfact> 0.20787406E+05</totfact>
</mgrwt>
</event>
<event>
 6    2  0.9453093E+000  0.1040478E+03  0.7546771E-02  0.1272007E+00
         21   -1    0    0  501  502  0.00000000000E+00  0.00000000000E+00  0.78928712863E+02  0.78928712863E+02  0.00000000000E+00 0. -1.
          2   -1    0    0  502    0 -0.00000000000E+00 -0.00000000000E+00 -0.98511542525E+02  0.98511542525E+02  0.00000000000E+00 0. -1.
         24    2    1    2    0    0  0.28442461147E+02  0.55385774987E+02 -0.40655811892E+02  0.11170876942E+03  0.83363040124E+02 0.  0.
        -13    1    3    3    0    0 -0.12760092414E+02 -0.92484237133E+01  0.11051982633E+02  0.19248366677E+02  0.00000000000E+00 0.  1.
         14    1    3    3    0    0  0.41202553561E+02  0.64634198700E+02 -0.51707794525E+02  0.92460402747E+02  0.00000000000E+00 0. -1.
          1    1    1    2  501    0 -0.28442461147E+02 -0.55385774987E+02  0.21072982229E+02  0.65731485964E+02  0.00000000000E+00 0. -1.
<mgrwt>
<rscale>  1 0.10404785E+03</rscale>
<asrwt>0</asrwt>
<pdfrwt beam="1">  1       21 0.12142879E-01 0.10404785E+03</pdfrwt>
<pdfrwt beam="2">  1        2 0.15155622E-01 0.10404785E+03</pdfrwt>
<totfact> 0.25980939E+05</totfact>
</mgrwt>
</event>
<event>
 6    2  0.9453093E+000  0.8521519E+02  0.7546771E-02  0.1314871E+00
         21   -1    0    0  501  502  0.00000000000E+00  0.00000000000E+00  0.44504170020E+03  0.44504170020E+03  0.00000000000E+00 0.  1.
         -3   -1    0    0    0  501 -0.00000000000E+00 -0.00000000000E+00 -0.79720975673E+01  0.79720975673E+01  0.00000000000E+00 0.  1.
         24    2    1    2    0    0  0.10180290787E+02 -0.27980760294E+02  0.36908715458E+03  0.37879672082E+03  0.79844015193E+02 0.  0.
        -13    1    3    3    0    0  0.33599321086E+02 -0.40770144393E+02  0.30220370460E+03  0.30678689367E+03  0.00000000000E+00 0.  1.
         14    1    3    3    0    0 -0.23419030298E+02  0.12789384099E+02  0.66883449976E+02  0.72009827152E+02  0.00000000000E+00 0. -1.
         -4    1    1    2    0  502 -0.10180290787E+02  0.27980760294E+02  0.67982448055E+02  0.74217076948E+02  0.00000000000E+00 0.  1.
<mgrwt>
<rscale>  1 0.85215187E+02</rscale>
<asrwt>0</asrwt>
<pdfrwt beam="1">  1       21 0.68467935E-01 0.85215187E+02</pdfrwt>
<pdfrwt beam="2">  1       -3 0.12264769E-02 0.85215187E+02</pdfrwt>
<totfact> 0.17569759E+05</totfact>
</mgrwt>
</event>
<event>
 6    2  0.9453093E+000  0.9264687E+02  0.7546771E-02  0.1296566E+00
          2   -1    0    0  502    0 -0.00000000000E+00  0.00000000000E+00  0.29434863247E+04  0.29434863247E+04  0.00000000000E+00 0. -1.
         21   -1    0    0  501  502  0.00000000000E+00 -0.00000000000E+00 -0.17473819624E+01  0.17473819624E+01  0.00000000000E+00 0.  1.
         24    2    1    2    0    0 -0.45359620598E+01  0.44923489160E+02  0.23244668849E+04  0.23263124772E+04  0.80899616704E+02 0.  0.
        -11    1    3    3    0    0  0.13805835314E+02  0.49155580797E+02  0.75126869602E+03  0.75300167718E+03  0.00000000000E+00 0.  1.
         12    1    3    3    0    0 -0.18341797374E+02 -0.42320916369E+01  0.15731981889E+04  0.15733108001E+04  0.00000000000E+00 0. -1.
          1    1    1    2  501    0  0.45359620598E+01 -0.44923489160E+02  0.61727205783E+03  0.61892122940E+03  0.00000000000E+00 0. -1.
<mgrwt>
<rscale>  1 0.92646872E+02</rscale>
<asrwt>0</asrwt>
<pdfrwt beam="1">  1       21 0.26883035E-03 0.92646872E+02</pdfrwt>
<pdfrwt beam="2">  1        2 0.45284008E+00 0.92646872E+02</pdfrwt>
<totfact> 0.85799228E+05</totfact>
</mgrwt>
</event>
<event>
 6    2  0.9453093E+000  0.9751251E+02  0.7546771E-02  0.1285615E+00
         21   -1    0    0  501  502  0.00000000000E+00  0.00000000000E+00  0.82958873834E+01  0.82958873834E+01  0.00000000000E+00 0. -1.
          2   -1    0    0  502    0 -0.00000000000E+00 -0.00000000000E+00 -0.78845790329E+03  0.78845790329E+03  0.00000000000E+00 0. -1.
         24    2    1    2    0    0  0.23132200596E+02  0.49884357535E+02 -0.61490538197E+03  0.62258920504E+03  0.80530376986E+02 0.  0.
        -11    1    3    3    0    0 -0.21855180445E+02  0.73438261900E+01 -0.60621082184E+02  0.64857507666E+02  0.00000000000E+00 0.  1.
         12    1    3    3    0    0  0.44987381041E+02  0.42540531345E+02 -0.55428429979E+03  0.55773169737E+03  0.00000000000E+00 0. -1.
          1    1    1    2  501    0 -0.23132200596E+02 -0.49884357535E+02 -0.16525663394E+03  0.17416458564E+03  0.00000000000E+00 0. -1.
<mgrwt>
<rscale>  1 0.97512509E+02</rscale>
<asrwt>0</asrwt>
<pdfrwt beam="1">  1       21 0.12762903E-02 0.97512509E+02</pdfrwt>
<pdfrwt beam="2">  1        2 0.12130122E+00 0.97512509E+02</pdfrwt>
<totfact> 0.11071170E+06</totfact>
</mgrwt>
</event>
<event>
 6    2  0.9453093E+000  0.9988964E+02  0.7546771E-02  0.1280528E+00
         -1   -1    0    0    0  501 -0.00000000000E+00  0.00000000000E+00  0.29139530641E+03  0.29139530641E+03  0.00000000000E+00 0.  1.
         21   -1    0    0  501  502  0.00000000000E+00 -0.00000000000E+00 -0.26960148895E+02  0.26960148895E+02  0.00000000000E+00 0.  1.
         24    2    1    2    0    0  0.61506442463E+02 -0.11363007587E+02  0.22004738989E+03  0.24165842589E+03  0.77883121413E+02 0.  0.
        -11    1    3    3    0    0  0.50647853136E+02  0.22426866318E+02  0.17910177637E+03  0.18747163961E+03  0.00000000000E+00 0.  1.
         12    1    3    3    0    0  0.10858589327E+02 -0.33789873906E+02  0.40945613521E+02  0.54186786280E+02  0.00000000000E+00 0. -1.
         -2    1    1    2    0  502 -0.61506442463E+02  0.11363007587E+02  0.44387767623E+02  0.76697029411E+02  0.00000000000E+00 0.  1.
<mgrwt>
<rscale>  1 0.99889644E+02</rscale>
<asrwt>0</asrwt>
<pdfrwt beam="1">  1       21 0.41477154E-02 0.99889644E+02</pdfrwt>
<pdfrwt beam="2">  1       -1 0.44830045E-01 0.99889644E+02</pdfrwt>
<totfact> 0.16434098E+05</totfact>
</mgrwt>
</event>
<event>
 6    2  0.9453093E+000  0.8100693E+02  0.7546771E-02  0.1326218E+00
         -3   -1    0    0    0  501 -0.00000000000E+00  0.00000000000E+00  0.41315822072E+01  0.41315822072E+01  0.00000000000E+00 0.  1.
         21   -1    0    0  501  502  0.00000000000E+00 -0.00000000000E+00 -0.85977225453E+03  0.85977225453E+03  0.00000000000E+00 0. -1.
         24    2    1    2    0    0 -0.16542128263E+02  0.11402418893E+02 -0.41654437101E+03  0.42434813038E+03  0.78475891669E+02 0.  0.
        -11    1    3    3    0    0 -0.36680486723E+02  0.29028388668E+01 -0.92242485813E+02  0.99310426284E+02  0.00000000000E+00 0.  1.
         12    1    3    3    0    0  0.20138358460E+02  0.84995800264E+01 -0.32430188520E+03  0.32503770410E+03  0.00000000000E+00 0. -1.
         -4    1    1    2    0  502  0.16542128263E+02 -0.11402418893E+02 -0.43909630132E+03  0.43955570636E+03  0.00000000000E+00 0.  1.
<mgrwt>
<rscale>  1 0.81006930E+02</rscale>
<asrwt>0</asrwt>
<pdfrwt beam="1">  1       21 0.13227262E+00 0.81006930E+02</pdfrwt>
<pdfrwt beam="2">  1       -3 0.63562821E-03 0.81006930E+02</pdfrwt>
<totfact> 0.10203535E+05</totfact>
</mgrwt>
</event>
<event>
 6    2  0.9453093E+000  0.8990784E+02  0.7546771E-02  0.1303075E+00
         21   -1    0    0  501  502  0.00000000000E+00  0.00000000000E+00  0.18800849244E+01  0.18800849244E+01  0.00000000000E+00 0.  1.
          2   -1    0    0  502    0 -0.00000000000E+00 -0.00000000000E+00 -0.21286495752E+04  0.21286495752E+04  0.00000000000E+00 0. -1.
         24    2    1    2    0    0 -0.16338884444E+02 -0.32255841319E+02 -0.15954427299E+04  0.15979740061E+04  0.82316590253E+02 0.  0.
        -13    1    3    3    0    0 -0.29409666367E+02 -0.15613937591E+02 -0.23302621847E+03  0.23539316476E+03  0.00000000000E+00 0.  1.
         14    1    3    3    0    0  0.13070781923E+02 -0.16641903729E+02 -0.13624165115E+04  0.13625808413E+04  0.00000000000E+00 0. -1.
          1    1    1    2  501    0  0.16338884444E+02  0.32255841319E+02 -0.53132676036E+03  0.53255565410E+03  0.00000000000E+00 0. -1.
<mgrwt>
<rscale>  1 0.89907839E+02</rscale>
<asrwt>0</asrwt>
<pdfrwt beam="1">  1       21 0.28924550E-03 0.89907839E+02</pdfrwt>
<pdfrwt beam="2">  1        2 0.32748266E+00 0.89907839E+02</pdfrwt>
<totfact> 0.20737061E+06</totfact>
</mgrwt>
</event>
<event>
 6    2  0.9453093E+000  0.8391584E+02  0.7546771E-02  0.1318292E+00
          2   -1    0    0  502    0 -0.00000000000E+00  0.00000000000E+00  0.29700549363E+04  0.29700549363E+04  0.00000000000E+00 0. -1.
         21   -1    0    0  501  502  0.00000000000E+00 -0.00000000000E+00 -0.97329637911E+00  0.97329637911E+00  0.00000000000E+00 0.  1.
         24    2    1    2    0    0 -0.22683779946E+02  0.46415657355E+01  0.24332465543E+04  0.24346931350E+04  0.80658351496E+02 0.  0.
        -11    1    3    3    0    0  0.74442604721E+01  0.17810828100E+02  0.15344565587E+03  0.15465513867E+03  0.00000000000E+00 0.  1.
         12    1    3    3    0    0 -0.30128040419E+02 -0.13169262365E+02  0.22798008984E+04  0.22800379963E+04  0.00000000000E+00 0. -1.
          1    1    1    2  501    0  0.22683779946E+02 -0.46415657355E+01  0.53583508561E+03  0.53633509766E+03  0.00000000000E+00 0. -1.
<mgrwt>
<rscale>  1 0.83915837E+02</rscale>
<asrwt>0</asrwt>
<pdfrwt beam="1">  1       21 0.14974028E-03 0.83915837E+02</pdfrwt>
<pdfrwt beam="2">  1        2 0.45692427E+00 0.83915837E+02</pdfrwt>
<totfact> 0.19856178E+06</totfact>
</mgrwt>
</event>
<event>
 6    2  0.9453093E+000  0.1024961E+03  0.7546771E-02  0.1275133E+00
         -1   -1    0    0    0  501 -0.00000000000E+00  0.00000000000E+00  0.52285476665E+02  0.52285476665E+02  0.00000000000E+00 0.  1.
         21   -1    0    0  501  502  0.00000000000E+00 -0.00000000000E+00 -0.13418211522E+03  0.13418211522E+03  0.00000000000E+00 0. -1.
         24    2    1    2    0    0 -0.55141406951E+02  0.31795362638E+02 -0.61952605890E+02  0.11976463629E+03  0.80336311119E+02 0.  0.
        -11    1    3    3    0    0 -0.28077260211E+02  0.55412367055E+02 -0.21664729432E+02  0.65789235176E+02  0.00000000000E+00 0.  1.
         12    1    3    3    0    0 -0.27064146739E+02 -0.23617004417E+02 -0.40287876458E+02  0.53975401118E+02  0.00000000000E+00 0. -1.
         -2    1    1    2    0  502  0.55141406951E+02 -0.31795362638E+02 -0.19944032666E+02  0.66702955593E+02  0.00000000000E+00 0.  1.
<mgrwt>
<rscale>  1 0.10249606E+03</rscale>
<asrwt>0</asrwt>
<pdfrwt beam="1">  1       21 0.20643402E-01 0.10249606E+03</pdfrwt>
<pdfrwt beam="2">  1       -1 0.80439195E-02 0.10249606E+03</pdfrwt>
<totfact> 0.15925016E+05</totfact>
</mgrwt>
</event>
<event>
 6    2  0.9453093E+000  0.1315797E+03  0.7546771E-02  0.1225130E+00
          2   -1    0    0  502    0 -0.00000000000E+00  0.00000000000E+00  0.34248717012E+04  0.34248717012E+04  0.00000000000E+00 0. -1.
         21   -1    0    0  501  502  0.00000000000E+00 -0.00000000000E+00 -0.10722957871E+02  0.10722957871E+02  0.00000000000E+00 0.  1.
         24    2    1    2    0    0 -0.10321594415E+03 -0.93375137316E+01  0.43079853037E+03  0.45044487833E+03  0.81070921761E+02 0.  0.
        -13    1    3    3    0    0 -0.34671816173E+02  0.28670151624E+01  0.37985887495E+02  0.51510020981E+02  0.00000000000E+00 0.  1.
         14    1    3    3    0    0 -0.68544127979E+02 -0.12204528894E+02  0.39281264287E+03  0.39893485735E+03  0.00000000000E+00 0. -1.
          1    1    1    2  501    0  0.10321594415E+03  0.93375137316E+01  0.29833502129E+04  0.29851497807E+04  0.00000000000E+00 0. -1.
<mgrwt>
<rscale>  1 0.13157969E+03</rscale>
<asrwt>0</asrwt>
<pdfrwt beam="1">  1       21 0.16496886E-02 0.13157969E+03</pdfrwt>
<pdfrwt beam="2">  1        2 0.52690247E+00 0.13157969E+03</pdfrwt>
<totfact> 0.26177339E+04</totfact>
</mgrwt>
</event>
<event>
 6    2  0.9453093E+000  0.8086024E+02  0.7546771E-02  0.1326628E+00
         -1   -1    0    0    0  501 -0.00000000000E+00  0.00000000000E+00  0.53311940852E+02  0.53311940852E+02  0.00000000000E+00 0.  1.
         21   -1    0    0  501  502  0.00000000000E+00 -0.00000000000E+00 -0.84975236177E+02  0.84975236177E+02  0.00000000000E+00 0.  1.
         24    2    1    2    0    0  0.20653738436E+02 -0.41143179143E+01  0.19310753231E+02  0.83134134054E+02  0.78069677412E+02 0.  0.
        -11    1    3    3    0    0 -0.94373496466E+01  0.48364280519E+01  0.42692352512E+02  0.43989675694E+02  0.00000000000E+00 0.  1.
         12    1    3    3    0    0  0.30091088082E+02 -0.89507459662E+01 -0.23381599281E+02  0.39144458360E+02  0.00000000000E+00 0. -1.
         -2    1    1    2    0  502 -0.20653738436E+02  0.41143179143E+01 -0.50974048556E+02  0.55153042975E+02  0.00000000000E+00 0.  1.
<mgrwt>
<rscale>  1 0.80860244E+02</rscale>
<asrwt>0</asrwt>
<pdfrwt beam="1">  1       21 0.13073113E-01 0.80860244E+02</pdfrwt>
<pdfrwt beam="2">  1       -1 0.82018370E-02 0.80860244E+02</pdfrwt>
<totfact> 0.34486479E+05</totfact>
</mgrwt>
</event>
<event>
 6    2  0.9453093E+000  0.8280210E+02  0.7546771E-02  0.1321282E+00
         21   -1    0    0  501  502  0.00000000000E+00  0.00000000000E+00  0.14425952562E+01  0.14425952562E+01  0.00000000000E+00 0.  1.
          4   -1    0    0  502    0 -0.00000000000E+00 -0.00000000000E+00 -0.18698687437E+04  0.18698687437E+04  0.00000000000E+00 0. -1.
         24    2    1    2    0    0  0.20182356995E+02  0.35374104250E+01 -0.15706309066E+04  0.15728120142E+04  0.80226843914E+02 0.  0.
        -11    1    3    3    0    0 -0.99015895322E+00  0.12759207752E+02 -0.39799694073E+02  0.41806619638E+02  0.00000000000E+00 0.  1.
         12    1    3    3    0    0  0.21172515949E+02 -0.92217973270E+01 -0.15308312125E+04  0.15310053946E+04  0.00000000000E+00 0. -1.
          3    1    1    2  501    0 -0.20182356995E+02 -0.35374104250E+01 -0.29779524185E+03  0.29849932474E+03  0.00000000000E+00 0. -1.
<mgrwt>
<rscale>  1 0.82802097E+02</rscale>
<asrwt>0</asrwt>
<pdfrwt beam="1">  1       21 0.22193770E-03 0.82802097E+02</pdfrwt>
<pdfrwt beam="2">  1        4 0.28767216E+00 0.82802097E+02</pdfrwt>
<totfact> 0.66074104E+04</totfact>
</mgrwt>
</event>
<event>
 6    2  0.9453093E+000  0.8320769E+02  0.7546771E-02  0.1320187E+00
         21   -1    0    0  501  502  0.00000000000E+00  0.00000000000E+00  0.17525844952E+02  0.17525844952E+02  0.00000000000E+00 0. -1.
          2   -1    0    0  502    0 -0.00000000000E+00 -0.00000000000E+00 -0.14207800088E+04  0.14207800088E+04  0.00000000000E+00 0. -1.
         24    2    1    2    0    0 -0.93057934161E+01  0.19545875119E+02 -0.14123684526E+04  0.14148173611E+04  0.80342270430E+02 0.  0.
        -11    1    3    3    0    0  0.96695678428E+01  0.27254194679E+02 -0.18238717829E+03  0.18466557469E+03  0.00000000000E+00 0.  1.
         12    1    3    3    0    0 -0.18975361259E+02 -0.77083195600E+01 -0.12299812743E+04  0.12301517864E+04  0.00000000000E+00 0. -1.
          1    1    1    2  501    0  0.93057934161E+01 -0.19545875119E+02  0.91142887697E+01  0.23488492609E+02  0.00000000000E+00 0. -1.
<mgrwt>
<rscale>  1 0.83207689E+02</rscale>
<asrwt>0</asrwt>
<pdfrwt beam="1">  1       21 0.26962840E-02 0.83207689E+02</pdfrwt>
<pdfrwt beam="2">  1        2 0.21858153E+00 0.83207689E+02</pdfrwt>
<totfact> 0.14500752E+05</totfact>
</mgrwt>
</event>
<event>
 6    2  0.9453093E+000  0.8140962E+02  0.7546771E-02  0.1325098E+00
         -3   -1    0    0    0  501 -0.00000000000E+00  0.00000000000E+00  0.12750312732E+03  0.12750312732E+03  0.00000000000E+00 0.  1.
         21   -1    0    0  501  502  0.00000000000E+00 -0.00000000000E+00 -0.71837661836E+02  0.71837661836E+02  0.00000000000E+00 0.  1.
         24    2    1    2    0    0  0.16716856377E+02 -0.11921048269E+02  0.11252582627E+03  0.13888696125E+03  0.78777926774E+02 0.  0.
        -11    1    3    3    0    0 -0.23159895703E+02  0.89116220804E+00  0.86554583452E+02  0.89603966741E+02  0.00000000000E+00 0.  1.
         12    1    3    3    0    0  0.39876752080E+02 -0.12812210477E+02  0.25971242820E+02  0.49282994505E+02  0.00000000000E+00 0. -1.
         -4    1    1    2    0  502 -0.16716856377E+02  0.11921048269E+02 -0.56860360793E+02  0.60453827906E+02  0.00000000000E+00 0.  1.
<mgrwt>
<rscale>  1 0.81409621E+02</rscale>
<asrwt>0</asrwt>
<pdfrwt beam="1">  1       21 0.11051948E-01 0.81409621E+02</pdfrwt>
<pdfrwt beam="2">  1       -3 0.19615866E-01 0.81409621E+02</pdfrwt>
<totfact> 0.70896541E+04</totfact>
</mgrwt>
</event>
<event>
 6    2  0.9453093E+000  0.8973651E+02  0.7546771E-02  0.1303491E+00
          2   -1    0    0  502    0 -0.00000000000E+00  0.00000000000E+00  0.74565815849E+03  0.74565815849E+03  0.00000000000E+00 0. -1.
         21   -1    0    0  501  502  0.00000000000E+00 -0.00000000000E+00 -0.24474423679E+02  0.24474423679E+02  0.00000000000E+00 0. -1.
         24    2    1    2    0    0 -0.94340052781E+01  0.38223935759E+02  0.72504102714E+03  0.73057315315E+03  0.80638522740E+02 0.  0.
        -11    1    3    3    0    0 -0.11560615610E+02  0.17797709366E+02  0.40496091903E+02  0.45720233501E+02  0.00000000000E+00 0.  1.
         12    1    3    3    0    0  0.21266103314E+01  0.20426226393E+02  0.68454493523E+03  0.68485291965E+03  0.00000000000E+00 0. -1.
          1    1    1    2  501    0  0.94340052781E+01 -0.38223935759E+02 -0.38572923242E+01  0.39559429022E+02  0.00000000000E+00 0. -1.
<mgrwt>
<rscale>  1 0.89736509E+02</rscale>
<asrwt>0</asrwt>
<pdfrwt beam="1">  1       21 0.37652965E-02 0.89736509E+02</pdfrwt>
<pdfrwt beam="2">  1        2 0.11471662E+00 0.89736509E+02</pdfrwt>
<totfact> 0.20684464E+05</totfact>
</mgrwt>
</event>
<event>
 6    2  0.9453093E+000  0.8132924E+02  0.7546771E-02  0.1325321E+00
         21   -1    0    0  501  502  0.00000000000E+00  0.00000000000E+00  0.17656634751E+02  0.17656634751E+02  0.00000000000E+00 0.  1.
          2   -1    0    0  502    0 -0.00000000000E+00 -0.00000000000E+00 -0.22154766267E+03  0.22154766267E+03  0.00000000000E+00 0. -1.
         24    2    1    2    0    0  0.85213454217E+01  0.20846941021E+02 -0.20057968105E+03  0.21644087729E+03  0.78148810842E+02 0.  0.
        -11    1    3    3    0    0 -0.51245735003E+01  0.33874621754E+02 -0.32230328295E+02  0.47037700992E+02  0.00000000000E+00 0.  1.
         12    1    3    3    0    0  0.13645918922E+02 -0.13027680733E+02 -0.16834935275E+03  0.16940317630E+03  0.00000000000E+00 0. -1.
          1    1    1    2  501    0 -0.85213454217E+01 -0.20846941021E+02 -0.33113468684E+01  0.22763420126E+02  0.00000000000E+00 0. -1.
<mgrwt>
<rscale>  1 0.81329238E+02</rscale>
<asrwt>0</asrwt>
<pdfrwt beam="1">  1       21 0.27164053E-02 0.81329238E+02</pdfrwt>
<pdfrwt beam="2">  1        2 0.34084256E-01 0.81329238E+02</pdfrwt>
<totfact> 0.12870172E+06</totfact>
</mgrwt>
</event>
<event>
 6    2  0.9453093E+000  0.8612349E+02  0.7546771E-02  0.1312520E+00
         21   -1    0    0  501  502  0.00000000000E+00  0.00000000000E+00  0.27847973855E+02  0.27847973855E+02  0.00000000000E+00 0. -1.
          4   -1    0    0  502    0 -0.00000000000E+00 -0.00000000000E+00 -0.12034728535E+03  0.12034728535E+03  0.00000000000E+00 0. -1.
         24    2    1    2    0    0  0.13626429260E+02  0.25928623089E+02 -0.74024720766E+02  0.11356458534E+03  0.80989398623E+02 0.  0.
        -11    1    3    3    0    0  0.76526823052E+00 -0.20762801888E+02  0.45446028091E+01  0.21268121506E+02  0.00000000000E+00 0.  1.
         12    1    3    3    0    0  0.12861161029E+02  0.46691424976E+02 -0.78569323575E+02  0.92296463834E+02  0.00000000000E+00 0. -1.
          3    1    1    2  501    0 -0.13626429260E+02 -0.25928623089E+02 -0.18474590726E+02  0.34630673862E+02  0.00000000000E+00 0. -1.
<mgrwt>
<rscale>  1 0.86123491E+02</rscale>
<asrwt>0</asrwt>
<pdfrwt beam="1">  1       21 0.42843037E-02 0.86123491E+02</pdfrwt>
<pdfrwt beam="2">  1        4 0.18514967E-01 0.86123491E+02</pdfrwt>
<totfact> 0.33152443E+05</totfact>
</mgrwt>
</event>
<event>
 6    2  0.9453093E+000  0.1026426E+03  0.7546771E-02  0.1274835E+00
          2   -1    0    0  502    0 -0.00000000000E+00  0.00000000000E+00  0.12809706001E+03  0.12809706001E+03  0.00000000000E+00 0. -1.
         21   -1    0    0  501  502  0.00000000000E+00 -0.00000000000E+00 -0.58111053050E+02  0.58111053050E+02  0.00000000000E+00 0. -1.
         24    2    1    2    0    0  0.67118314804E+02 -0.19149584211E+02  0.45004664834E+02  0.11207551421E+03  0.75259061062E+02 0.  0.
        -13    1    3    3    0    0  0.12896411248E+01  0.23747398038E+02  0.69762499619E+01  0.24784473997E+02  0.00000000000E+00 0.  1.
         14    1    3    3    0    0  0.65828673679E+02 -0.42896982249E+02  0.38028414872E+02  0.87291040216E+02  0.00000000000E+00 0. -1.
          1    1    1    2  501    0 -0.67118314804E+02  0.19149584211E+02  0.24981342129E+02  0.74132598849E+02  0.00000000000E+00 0. -1.
<mgrwt>
<rscale>  1 0.10264259E+03</rscale>
<asrwt>0</asrwt>
<pdfrwt beam="1">  1       21 0.89401620E-02 0.10264259E+03</pdfrwt>
<pdfrwt beam="2">  1        2 0.19707240E-01 0.10264259E+03</pdfrwt>
<totfact> 0.32807582E+05</totfact>
</mgrwt>
</event>
<event>
 6    2  0.9453093E+000  0.8461352E+02  0.7546771E-02  0.1316446E+00
          2   -1    0    0  502    0 -0.00000000000E+00  0.00000000000E+00  0.25755689684E+04  0.25755689684E+04  0.00000000000E+00 0. -1.
         21   -1    0    0  501  502  0.00000000000E+00 -0.00000000000E+00 -0.13799695125E+01  0.13799695125E+01  0.00000000000E+00 0.  1.
         24    2    1    2    0    0 -0.25220963635E+02  0.69540676534E+01  0.22887428889E+04  0.22903064118E+04  0.80467337608E+02 0.  0.
        -13    1    3    3    0    0 -0.46597472132E+02  0.24329787618E+02  0.11127844112E+04  0.11140253178E+04  0.00000000000E+00 0.  1.
         14    1    3    3    0    0  0.21376508497E+02 -0.17375719965E+02  0.11759584778E+04  0.11762810940E+04  0.00000000000E+00 0. -1.
          1    1    1    2  501    0  0.25220963635E+02 -0.69540676534E+01  0.28544610993E+03  0.28664252605E+03  0.00000000000E+00 0. -1.
<mgrwt>
<rscale>  1 0.84613524E+02</rscale>
<asrwt>0</asrwt>
<pdfrwt beam="1">  1       21 0.21230506E-03 0.84613524E+02</pdfrwt>
<pdfrwt beam="2">  1        2 0.39623753E+00 0.84613524E+02</pdfrwt>
<totfact> 0.19360000E+06</totfact>
</mgrwt>
</event>
<event>
 6    2  0.9453093E+000  0.9180581E+02  0.7546771E-02  0.1298537E+00
         -1   -1    0    0    0  501 -0.00000000000E+00  0.00000000000E+00  0.55337579535E+02  0.55337579535E+02  0.00000000000E+00 0.  1.
         21   -1    0    0  501  502  0.00000000000E+00 -0.00000000000E+00 -0.84917178374E+02  0.84917178374E+02  0.00000000000E+00 0.  1.
         24    2    1    2    0    0 -0.24454405636E+02 -0.38114757936E+02 -0.20567230953E+02  0.94081437664E+02  0.79859584248E+02 0.  0.
        -11    1    3    3    0    0 -0.53284750565E+02 -0.17038512118E+02 -0.15172166887E+02  0.57963524617E+02  0.00000000000E+00 0.  1.
         12    1    3    3    0    0  0.28830344930E+02 -0.21076245818E+02 -0.53950640663E+01  0.36117913046E+02  0.00000000000E+00 0. -1.
         -2    1    1    2    0  502  0.24454405636E+02  0.38114757936E+02 -0.90123678857E+01  0.46173320245E+02  0.00000000000E+00 0.  1.
<mgrwt>
<rscale>  1 0.91805806E+02</rscale>
<asrwt>0</asrwt>
<pdfrwt beam="1">  1       21 0.13064181E-01 0.91805806E+02</pdfrwt>
<pdfrwt beam="2">  1       -1 0.85134738E-02 0.91805806E+02</pdfrwt>
<totfact> 0.33076498E+05</totfact>
</mgrwt>
</event>
<event>
 6    2  0.9453093E+000  0.8636062E+02  0.7546771E-02  0.1311912E+00
         21   -1    0    0  501  502  0.00000000000E+00  0.00000000000E+00  0.30682120080E+01  0.30682120080E+01  0.00000000000E+00 0.  1.
          2   -1    0    0  502    0 -0.00000000000E+00 -0.00000000000E+00 -0.11550072199E+04  0.11550072199E+04  0.00000000000E+00 0. -1.
         24    2    1    2    0    0  0.41572591268E+01  0.31937118087E+02 -0.88372386405E+03  0.88793356973E+03  0.80130481381E+02 0.  0.
        -11    1    3    3    0    0 -0.10804237361E+02  0.16225981933E+02 -0.46399654147E+02  0.50328341316E+02  0.00000000000E+00 0.  1.
         12    1    3    3    0    0  0.14961496488E+02  0.15711136154E+02 -0.83732420991E+03  0.83760522842E+03  0.00000000000E+00 0. -1.
          1    1    1    2  501    0 -0.41572591268E+01 -0.31937118087E+02 -0.26821514389E+03  0.27014186222E+03  0.00000000000E+00 0. -1.
<mgrwt>
<rscale>  1 0.86360618E+02</rscale>
<asrwt>0</asrwt>
<pdfrwt beam="1">  1       21 0.47203229E-03 0.86360618E+02</pdfrwt>
<pdfrwt beam="2">  1        2 0.17769354E+00 0.86360618E+02</pdfrwt>
<totfact> 0.30895627E+06</totfact>
</mgrwt>
</event>
<event>
 6    2  0.9453093E+000  0.8429269E+02  0.7546771E-02  0.1317293E+00
          2   -1    0    0  502    0 -0.00000000000E+00  0.00000000000E+00  0.19748951779E+03  0.19748951779E+03  0.00000000000E+00 0. -1.
         21   -1    0    0  501  502  0.00000000000E+00 -0.00000000000E+00 -0.18532507650E+02  0.18532507650E+02  0.00000000000E+00 0.  1.
         24    2    1    2    0    0 -0.21928293767E+02 -0.26703556623E+01  0.85787336965E+02  0.12026938127E+03  0.81346641107E+02 0.  0.
        -13    1    3    3    0    0 -0.83434938343E+01 -0.21574514815E+02 -0.73465374477E+01  0.24270253219E+02  0.00000000000E+00 0.  1.
         14    1    3    3    0    0 -0.13584799932E+02  0.18904159152E+02  0.93133874413E+02  0.95999128046E+02  0.00000000000E+00 0. -1.
          1    1    1    2  501    0  0.21928293767E+02  0.26703556623E+01  0.93169673173E+02  0.95752644173E+02  0.00000000000E+00 0. -1.
<mgrwt>
<rscale>  1 0.84292686E+02</rscale>
<asrwt>0</asrwt>
<pdfrwt beam="1">  1       21 0.28511552E-02 0.84292686E+02</pdfrwt>
<pdfrwt beam="2">  1        2 0.30383001E-01 0.84292686E+02</pdfrwt>
<totfact> 0.13499872E+06</totfact>
</mgrwt>
</event>
<event>
 6    2  0.9453093E+000  0.8479400E+02  0.7546771E-02  0.1315972E+00
         -3   -1    0    0    0  501 -0.00000000000E+00  0.00000000000E+00  0.20068954024E+03  0.20068954024E+03  0.00000000000E+00 0.  1.
         21   -1    0    0  501  502  0.00000000000E+00 -0.00000000000E+00 -0.11665716050E+03  0.11665716050E+03  0.00000000000E+00 0.  1.
         24    2    1    2    0    0 -0.16882155785E+02 -0.19264273589E+02  0.19014036830E+03  0.20819073592E+03  0.80832564279E+02 0.  0.
        -11    1    3    3    0    0 -0.22603774423E+02  0.17559409138E+02  0.15272225589E+03  0.15538130812E+03  0.00000000000E+00 0.  1.
         12    1    3    3    0    0  0.57216186377E+01 -0.36823682726E+02  0.37418112403E+02  0.52809427806E+02  0.00000000000E+00 0. -1.
         -4    1    1    2    0  502  0.16882155785E+02  0.19264273589E+02 -0.10610798855E+03  0.10915596482E+03  0.00000000000E+00 0.  1.
<mgrwt>
<rscale>  1 0.84794003E+02</rscale>
<asrwt>0</asrwt>
<pdfrwt beam="1">  1       21 0.17947255E-01 0.84794003E+02</pdfrwt>
<pdfrwt beam="2">  1       -3 0.30875314E-01 0.84794003E+02</pdfrwt>
<totfact> 0.13423610E+04</totfact>
</mgrwt>
</event>
<event>
 6    2  0.9453093E+000  0.8535298E+02  0.7546771E-02  0.1314512E+00
         21   -1    0    0  501  502  0.00000000000E+00  0.00000000000E+00  0.10839803307E+01  0.10839803307E+01  0.00000000000E+00 0.  1.
          2   -1    0    0  502    0 -0.00000000000E+00 -0.00000000000E+00 -0.30143025152E+04  0.30143025152E+04  0.00000000000E+00 0. -1.
         24    2    1    2    0    0 -0.37613607550E+01 -0.28670330964E+02 -0.22096634501E+04  0.22113113063E+04  0.80305634018E+02 0.  0.
        -11    1    3    3    0    0  0.11836262136E+02  0.85745239991E+01 -0.83842471371E+02  0.85106871454E+02  0.00000000000E+00 0.  1.
         12    1    3    3    0    0 -0.15597622891E+02 -0.37244854963E+02 -0.21258209787E+04  0.21262044348E+04  0.00000000000E+00 0. -1.
          1    1    1    2  501    0  0.37613607550E+01  0.28670330964E+02 -0.80355508476E+03  0.80407518924E+03  0.00000000000E+00 0. -1.
<mgrwt>
<rscale>  1 0.85352976E+02</rscale>
<asrwt>0</asrwt>
<pdfrwt beam="1">  1       21 0.16676963E-03 0.85352976E+02</pdfrwt>
<pdfrwt beam="2">  1        2 0.46372932E+00 0.85352976E+02</pdfrwt>
<totfact> 0.15976135E+06</totfact>
</mgrwt>
</event>
<event>
 6    2  0.9453093E+000  0.8757983E+02  0.7546771E-02  0.1308821E+00
          2   -1    0    0  502    0 -0.00000000000E+00  0.00000000000E+00  0.40288371301E+04  0.40288371301E+04  0.00000000000E+00 0. -1.
         21   -1    0    0  501  502  0.00000000000E+00 -0.00000000000E+00 -0.20679640009E+01  0.20679640009E+01  0.00000000000E+00 0. -1.
         24    2    1    2    0    0  0.29208370712E+02 -0.16832060881E+02  0.38473316284E+04  0.38483283236E+04  0.80831801266E+02 0.  0.
        -13    1    3    3    0    0  0.37024354194E+02 -0.45041970493E+02  0.25517021866E+04  0.25523682397E+04  0.00000000000E+00 0.  1.
         14    1    3    3    0    0 -0.78159834816E+01  0.28209909613E+02  0.12956294418E+04  0.12959600839E+04  0.00000000000E+00 0. -1.
          1    1    1    2  501    0 -0.29208370712E+02  0.16832060881E+02  0.17943753770E+03  0.18257677050E+03  0.00000000000E+00 0. -1.
<mgrwt>
<rscale>  1 0.87579834E+02</rscale>
<asrwt>0</asrwt>
<pdfrwt beam="1">  1       21 0.31815153E-03 0.87579834E+02</pdfrwt>
<pdfrwt beam="2">  1        2 0.61981481E+00 0.87579834E+02</pdfrwt>
<totfact> 0.13390055E+05</totfact>
</mgrwt>
</event>
<event>
 6    2  0.9453093E+000  0.8800197E+02  0.7546771E-02  0.1307764E+00
         21   -1    0    0  501  502  0.00000000000E+00  0.00000000000E+00  0.37741279685E+02  0.37741279685E+02  0.00000000000E+00 0. -1.
         -1   -1    0    0    0  501 -0.00000000000E+00 -0.00000000000E+00 -0.84338000145E+02  0.84338000145E+02  0.00000000000E+00 0.  1.
         24    2    1    2    0    0 -0.20033484411E+02  0.67898447214E+01 -0.49109974743E+02  0.10077766167E+03  0.85421923323E+02 0.  0.
        -11    1    3    3    0    0  0.21942659972E+02 -0.26503598055E+02 -0.20180912554E+02  0.39889726347E+02  0.00000000000E+00 0.  1.
         12    1    3    3    0    0 -0.41976144383E+02  0.33293442777E+02 -0.28929062189E+02  0.60887935326E+02  0.00000000000E+00 0. -1.
         -2    1    1    2    0  502  0.20033484411E+02 -0.67898447214E+01  0.25132542823E+01  0.21301618156E+02  0.00000000000E+00 0.  1.
<mgrwt>
<rscale>  1 0.88001974E+02</rscale>
<asrwt>0</asrwt>
<pdfrwt beam="1">  1       21 0.58063508E-02 0.88001974E+02</pdfrwt>
<pdfrwt beam="2">  1       -1 0.12975077E-01 0.88001974E+02</pdfrwt>
<totfact> 0.70083459E+05</totfact>
</mgrwt>
</event>
<event>
 6    2  0.9453093E+000  0.8508489E+02  0.7546771E-02  0.1315211E+00
         21   -1    0    0  501  502  0.00000000000E+00  0.00000000000E+00  0.32721777949E+02  0.32721777949E+02  0.00000000000E+00 0. -1.
         -3   -1    0    0    0  501 -0.00000000000E+00 -0.00000000000E+00 -0.11843413411E+03  0.11843413411E+03  0.00000000000E+00 0.  1.
         24    2    1    2    0    0  0.39200988963E+01  0.25009307422E+02 -0.30446682816E+02  0.90368353436E+02  0.81231805194E+02 0.  0.
        -13    1    3    3    0    0 -0.31800222899E+02 -0.10428641536E+02 -0.45379022048E+01  0.33772818910E+02  0.00000000000E+00 0.  1.
         14    1    3    3    0    0  0.35720321796E+02  0.35437948957E+02 -0.25908780611E+02  0.56595534526E+02  0.00000000000E+00 0. -1.
         -4    1    1    2    0  502 -0.39200988963E+01 -0.25009307422E+02 -0.55265673341E+02  0.60787558620E+02  0.00000000000E+00 0.  1.
<mgrwt>
<rscale>  1 0.85084892E+02</rscale>
<asrwt>0</asrwt>
<pdfrwt beam="1">  1       21 0.50341196E-02 0.85084892E+02</pdfrwt>
<pdfrwt beam="2">  1       -3 0.18220636E-01 0.85084892E+02</pdfrwt>
<totfact> 0.30830058E+05</totfact>
</mgrwt>
</event>
<event>
 6    2  0.9453093E+000  0.8330875E+02  0.7546771E-02  0.1319916E+00
         21   -1    0    0  501  502  0.00000000000E+00  0.00000000000E+00  0.32588778602E+01  0.32588778602E+01  0.00000000000E+00 0.  1.
          2   -1    0    0  502    0 -0.00000000000E+00 -0.00000000000E+00 -0.10001768280E+04  0.10001768280E+04  0.00000000000E+00 0. -1.
         24    2    1    2    0    0  0.19717554434E+02 -0.60505772211E+01 -0.92118769016E+03  0.92494708430E+03  0.80715282452E+02 0.  0.
        -13    1    3    3    0    0  0.45629584292E+02 -0.21939670971E+02 -0.46509387480E+03  0.46784155491E+03  0.00000000000E+00 0.  1.
         14    1    3    3    0    0 -0.25912029858E+02  0.15889093750E+02 -0.45609381536E+03  0.45710552940E+03  0.00000000000E+00 0. -1.
          1    1    1    2  501    0 -0.19717554434E+02  0.60505772211E+01 -0.75730260029E+02  0.78488621606E+02  0.00000000000E+00 0. -1.
<mgrwt>
<rscale>  1 0.83308753E+02</rscale>
<asrwt>0</asrwt>
<pdfrwt beam="1">  1       21 0.50136556E-03 0.83308753E+02</pdfrwt>
<pdfrwt beam="2">  1        2 0.15387344E+00 0.83308753E+02</pdfrwt>
<totfact> 0.34332681E+06</totfact>
</mgrwt>
</event>
<event>
 6    2  0.9453093E+000  0.1095769E+03  0.7546771E-02  0.1261355E+00
          2   -1    0    0  502    0 -0.00000000000E+00  0.00000000000E+00  0.14889759238E+02  0.14889759238E+02  0.00000000000E+00 0. -1.
         21   -1    0    0  501  502  0.00000000000E+00 -0.00000000000E+00 -0.48444870873E+03  0.48444870873E+03  0.00000000000E+00 0.  1.
         24    2    1    2    0    0 -0.28184826915E+02 -0.52678564533E+02 -0.32247362247E+03  0.34058233721E+03  0.91856821180E+02 0.  0.
        -11    1    3    3    0    0  0.50931250552E+01  0.10229355493E+02 -0.18878999964E+03  0.18913551650E+03  0.00000000000E+00 0.  1.
         12    1    3    3    0    0 -0.33277951971E+02 -0.62907920026E+02 -0.13368362283E+03  0.15144682071E+03  0.00000000000E+00 0. -1.
          1    1    1    2  501    0  0.28184826915E+02  0.52678564533E+02 -0.14708532702E+03  0.15875613076E+03  0.00000000000E+00 0. -1.
<mgrwt>
<rscale>  1 0.10957687E+03</rscale>
<asrwt>0</asrwt>
<pdfrwt beam="1">  1       21 0.74530579E-01 0.10957687E+03</pdfrwt>
<pdfrwt beam="2">  1        2 0.22907319E-02 0.10957687E+03</pdfrwt>
<totfact> 0.85402743E+04</totfact>
</mgrwt>
</event>
<event>
 6    2  0.9453093E+000  0.7961428E+02  0.7546771E-02  0.1330150E+00
         21   -1    0    0  501  502  0.00000000000E+00  0.00000000000E+00  0.15400234047E+02  0.15400234047E+02  0.00000000000E+00 0. -1.
         -1   -1    0    0    0  501 -0.00000000000E+00 -0.00000000000E+00 -0.20009851604E+03  0.20009851604E+03  0.00000000000E+00 0.  1.
         24    2    1    2    0    0  0.23329266945E+02  0.18625323232E+02 -0.14923579101E+03  0.16914418582E+03  0.73805669948E+02 0.  0.
        -11    1    3    3    0    0 -0.17700216803E+02  0.20888743824E+02 -0.10607109067E+03  0.10954776844E+03  0.00000000000E+00 0.  1.
         12    1    3    3    0    0  0.41029483748E+02 -0.22634205914E+01 -0.43164700337E+02  0.59596417381E+02  0.00000000000E+00 0. -1.
         -2    1    1    2    0  502 -0.23329266945E+02 -0.18625323232E+02 -0.35462490982E+02  0.46354564266E+02  0.00000000000E+00 0.  1.
<mgrwt>
<rscale>  1 0.79614284E+02</rscale>
<asrwt>0</asrwt>
<pdfrwt beam="1">  1       21 0.23692670E-02 0.79614284E+02</pdfrwt>
<pdfrwt beam="2">  1       -1 0.30784385E-01 0.79614284E+02</pdfrwt>
<totfact> 0.76206000E+05</totfact>
</mgrwt>
</event>
<event>
 6    2  0.9453093E+000  0.8812370E+02  0.7546771E-02  0.1307460E+00
         -3   -1    0    0    0  501 -0.00000000000E+00  0.00000000000E+00  0.40451533104E+02  0.40451533104E+02  0.00000000000E+00 0.  1.
         21   -1    0    0  501  502  0.00000000000E+00 -0.00000000000E+00 -0.13534166782E+03  0.13534166782E+03  0.00000000000E+00 0.  1.
         24    2    1    2    0    0  0.55450856576E+01 -0.36761678788E+02 -0.17370209444E+02  0.89819322237E+02  0.79897543571E+02 0.  0.
        -13    1    3    3    0    0  0.10778860549E+02 -0.19388020047E+02  0.31022014578E+02  0.38137180606E+02  0.00000000000E+00 0.  1.
         14    1    3    3    0    0 -0.52337748916E+01 -0.17373658741E+02 -0.48392224023E+02  0.51682141631E+02  0.00000000000E+00 0. -1.
         -4    1    1    2    0  502 -0.55450856576E+01  0.36761678788E+02 -0.77519925268E+02  0.85973878683E+02  0.00000000000E+00 0.  1.
<mgrwt>
<rscale>  1 0.88123700E+02</rscale>
<asrwt>0</asrwt>
<pdfrwt beam="1">  1       21 0.20821796E-01 0.88123700E+02</pdfrwt>
<pdfrwt beam="2">  1       -3 0.62233126E-02 0.88123700E+02</pdfrwt>
<totfact> 0.15407365E+05</totfact>
</mgrwt>
</event>
<event>
 6    2  0.9453093E+000  0.8314628E+02  0.7546771E-02  0.1320353E+00
         21   -1    0    0  501  502  0.00000000000E+00  0.00000000000E+00  0.30949653577E+02  0.30949653577E+02  0.00000000000E+00 0.  1.
         -1   -1    0    0    0  501 -0.00000000000E+00 -0.00000000000E+00 -0.21790869288E+03  0.21790869288E+03  0.00000000000E+00 0.  1.
         24    2    1    2    0    0  0.18466252009E+02 -0.24785129998E+02 -0.19901242745E+03  0.21568321574E+03  0.77188069932E+02 0.  0.
        -13    1    3    3    0    0  0.35061248772E+02  0.14912493163E+02 -0.70176298302E+02  0.79852278998E+02  0.00000000000E+00 0.  1.
         14    1    3    3    0    0 -0.16594996763E+02 -0.39697623161E+02 -0.12883612914E+03  0.13583093674E+03  0.00000000000E+00 0. -1.
         -2    1    1    2    0  502 -0.18466252009E+02  0.24785129998E+02  0.12053388148E+02  0.33175130718E+02  0.00000000000E+00 0.  1.
<mgrwt>
<rscale>  1 0.83146276E+02</rscale>
<asrwt>0</asrwt>
<pdfrwt beam="1">  1       21 0.47614851E-02 0.83146276E+02</pdfrwt>
<pdfrwt beam="2">  1       -1 0.33524415E-01 0.83146276E+02</pdfrwt>
<totfact> 0.21285672E+05</totfact>
</mgrwt>
</event>
<event>
 6    2  0.9453093E+000  0.1019939E+03  0.7546771E-02  0.1276158E+00
         21   -1    0    0  501  502  0.00000000000E+00  0.00000000000E+00  0.30188530123E+02  0.30188530123E+02  0.00000000000E+00 0. -1.
          2   -1    0    0  502    0 -0.00000000000E+00 -0.00000000000E+00 -0.48238156620E+03  0.48238156620E+03  0.00000000000E+00 0. -1.
         24    2    1    2    0    0 -0.44304901278E+02  0.45628319795E+02 -0.43484631994E+03  0.44664759330E+03  0.79736332900E+02 0.  0.
        -11    1    3    3    0    0 -0.57058577864E+02  0.90325821441E+01 -0.18489296161E+03  0.19370770791E+03  0.00000000000E+00 0.  1.
         12    1    3    3    0    0  0.12753676586E+02  0.36595737651E+02 -0.24995335833E+03  0.25293988539E+03  0.00000000000E+00 0. -1.
          1    1    1    2  501    0  0.44304901278E+02 -0.45628319795E+02 -0.17346716132E+02  0.65922503025E+02  0.00000000000E+00 0. -1.
<mgrwt>
<rscale>  1 0.10199388E+03</rscale>
<asrwt>0</asrwt>
<pdfrwt beam="1">  1       21 0.46443893E-02 0.10199388E+03</pdfrwt>
<pdfrwt beam="2">  1        2 0.74212547E-01 0.10199388E+03</pdfrwt>
<totfact> 0.24035966E+05</totfact>
</mgrwt>
</event>
<event>
 6    2  0.9453093E+000  0.1012230E+03  0.7546771E-02  0.1277745E+00
         21   -1    0    0  501  502  0.00000000000E+00  0.00000000000E+00  0.91298944749E+01  0.91298944749E+01  0.00000000000E+00 0.  1.
          2   -1    0    0  502    0 -0.00000000000E+00 -0.00000000000E+00 -0.78036268178E+03  0.78036268178E+03  0.00000000000E+00 0. -1.
         24    2    1    2    0    0 -0.45810910936E+02 -0.28271898712E+02 -0.33522543850E+03  0.35017452742E+03  0.85721439679E+02 0.  0.
        -13    1    3    3    0    0 -0.47469521696E+02 -0.18547770300E+02 -0.80619490400E+02  0.95377552419E+02  0.00000000000E+00 0.  1.
         14    1    3    3    0    0  0.16586107606E+01 -0.97241284121E+01 -0.25460594810E+03  0.25479697500E+03  0.00000000000E+00 0. -1.
          1    1    1    2  501    0  0.45810910936E+02  0.28271898712E+02 -0.43600734881E+03  0.43931804884E+03  0.00000000000E+00 0. -1.
<mgrwt>
<rscale>  1 0.10122305E+03</rscale>
<asrwt>0</asrwt>
<pdfrwt beam="1">  1       21 0.14045990E-02 0.10122305E+03</pdfrwt>
<pdfrwt beam="2">  1        2 0.12005581E+00 0.10122305E+03</pdfrwt>
<totfact> 0.96651395E+05</totfact>
</mgrwt>
</event>
<event>
 6    2  0.9453093E+000  0.9893844E+02  0.7546771E-02  0.1282544E+00
          2   -1    0    0  502    0 -0.00000000000E+00  0.00000000000E+00  0.19388645137E+03  0.19388645137E+03  0.00000000000E+00 0. -1.
         21   -1    0    0  501  502  0.00000000000E+00 -0.00000000000E+00 -0.35092676046E+02  0.35092676046E+02  0.00000000000E+00 0. -1.
         24    2    1    2    0    0 -0.28349631438E+02  0.50013714048E+02  0.13351328849E+03  0.16617645064E+03  0.80521682469E+02 0.  0.
        -13    1    3    3    0    0  0.26106144086E+02  0.84784939273E+01  0.21423808833E+02  0.34819465867E+02  0.00000000000E+00 0.  1.
         14    1    3    3    0    0 -0.54455775524E+02  0.41535220121E+02  0.11208947966E+03  0.13135698477E+03  0.00000000000E+00 0. -1.
          1    1    1    2  501    0  0.28349631438E+02 -0.50013714048E+02  0.25280486828E+02  0.62802676773E+02  0.00000000000E+00 0. -1.
<mgrwt>
<rscale>  1 0.98938438E+02</rscale>
<asrwt>0</asrwt>
<pdfrwt beam="1">  1       21 0.53988734E-02 0.98938438E+02</pdfrwt>
<pdfrwt beam="2">  1        2 0.29828684E-01 0.98938438E+02</pdfrwt>
<totfact> 0.48921384E+05</totfact>
</mgrwt>
</event>
<event>
 6    2  0.9453093E+000  0.1131743E+03  0.7546771E-02  0.1254802E+00
         21   -1    0    0  501  502  0.00000000000E+00  0.00000000000E+00  0.29190788127E+02  0.29190788127E+02  0.00000000000E+00 0.  1.
         -3   -1    0    0    0  501 -0.00000000000E+00 -0.00000000000E+00 -0.73280254591E+03  0.73280254591E+03  0.00000000000E+00 0.  1.
         24    2    1    2    0    0  0.75286215564E+02  0.17769888670E+02 -0.66678168195E+03  0.67631814695E+03  0.82611387290E+02 0.  0.
        -11    1    3    3    0    0  0.38053078219E+02  0.31824935892E+02 -0.56277747774E+03  0.56495960277E+03  0.00000000000E+00 0.  1.
         12    1    3    3    0    0  0.37233137345E+02 -0.14055047221E+02 -0.10400420421E+03  0.11135854418E+03  0.00000000000E+00 0. -1.
         -4    1    1    2    0  502 -0.75286215564E+02 -0.17769888670E+02 -0.36830075839E+02  0.85675187094E+02  0.00000000000E+00 0.  1.
<mgrwt>
<rscale>  1 0.11317431E+03</rscale>
<asrwt>0</asrwt>
<pdfrwt beam="1">  1       21 0.44908905E-02 0.11317431E+03</pdfrwt>
<pdfrwt beam="2">  1       -3 0.11273885E+00 0.11317431E+03</pdfrwt>
<totfact> 0.10583794E+04</totfact>
</mgrwt>
</event>
<event>
 6    2  0.1019044E+001  0.8682153E+02  0.7546771E-02  0.1310737E+00
         21   -1    0    0  501  502  0.00000000000E+00  0.00000000000E+00  0.67695035676E+01  0.67695035676E+01  0.00000000000E+00 0.  1.
         -1   -1    0    0    0  501 -0.00000000000E+00 -0.00000000000E+00 -0.88060390904E+03  0.88060390904E+03  0.00000000000E+00 0.  1.
         24    2    1    2    0    0 -0.14918703186E+02 -0.30807082372E+02 -0.81257065491E+03  0.81719584381E+03  0.79789309398E+02 0.  0.
        -13    1    3    3    0    0  0.36805089887E+01 -0.51472239897E+02 -0.66705036609E+03  0.66904344293E+03  0.00000000000E+00 0.  1.
         14    1    3    3    0    0 -0.18599212175E+02  0.20665157525E+02 -0.14552028882E+03  0.14815240088E+03  0.00000000000E+00 0. -1.
         -2    1    1    2    0  502  0.14918703186E+02  0.30807082372E+02 -0.61263750561E+02  0.70177568794E+02  0.00000000000E+00 0.  1.
<mgrwt>
<rscale>  1 0.86821529E+02</rscale>
<asrwt>0</asrwt>
<pdfrwt beam="1">  1       21 0.10414618E-02 0.86821529E+02</pdfrwt>
<pdfrwt beam="2">  1       -1 0.13547756E+00 0.86821529E+02</pdfrwt>
<totfact> 0.15585913E+05</totfact>
</mgrwt>
</event>
<event>
 6    2  0.9453093E+000  0.7968511E+02  0.7546771E-02  0.1329947E+00
          2   -1    0    0  502    0 -0.00000000000E+00  0.00000000000E+00  0.31252506753E+01  0.31252506753E+01  0.00000000000E+00 0. -1.
         21   -1    0    0  501  502  0.00000000000E+00 -0.00000000000E+00 -0.82387967533E+03  0.82387967533E+03  0.00000000000E+00 0.  1.
         24    2    1    2    0    0  0.37962197442E+01  0.20987693956E+02 -0.67785360776E+03  0.68252123125E+03  0.76777750471E+02 0.  0.
        -11    1    3    3    0    0  0.19595184837E+02  0.15478847783E+02 -0.64650332278E+03  0.64698540352E+03  0.00000000000E+00 0.  1.
         12    1    3    3    0    0 -0.15798965093E+02  0.55088461726E+01 -0.31350284979E+02  0.35535827729E+02  0.00000000000E+00 0. -1.
          1    1    1    2  501    0 -0.37962197442E+01 -0.20987693956E+02 -0.14290081690E+03  0.14448369476E+03  0.00000000000E+00 0. -1.
<mgrwt>
<rscale>  1 0.79685115E+02</rscale>
<asrwt>0</asrwt>
<pdfrwt beam="1">  1       21 0.12675083E+00 0.79685115E+02</pdfrwt>
<pdfrwt beam="2">  1        2 0.48080737E-03 0.79685115E+02</pdfrwt>
<totfact> 0.20828551E+05</totfact>
</mgrwt>
</event>
<event>
 6    2  0.9453093E+000  0.8245787E+02  0.7546771E-02  0.1322218E+00
         21   -1    0    0  501  502  0.00000000000E+00  0.00000000000E+00  0.11301864684E+03  0.11301864684E+03  0.00000000000E+00 0.  1.
          2   -1    0    0  502    0 -0.00000000000E+00 -0.00000000000E+00 -0.23969019813E+02  0.23969019813E+02  0.00000000000E+00 0. -1.
         24    2    1    2    0    0 -0.11464925770E+02  0.16988295949E+02  0.78868202769E+02  0.11410299663E+03  0.79870230436E+02 0.  0.
        -11    1    3    3    0    0 -0.14181659222E+02 -0.10009109247E+01  0.91085466398E+02  0.92188304409E+02  0.00000000000E+00 0.  1.
         12    1    3    3    0    0  0.27167334513E+01  0.17989206874E+02 -0.12217263629E+02  0.21914692222E+02  0.00000000000E+00 0. -1.
          1    1    1    2  501    0  0.11464925770E+02 -0.16988295949E+02  0.10181424261E+02  0.22884670025E+02  0.00000000000E+00 0. -1.
<mgrwt>
<rscale>  1 0.82457871E+02</rscale>
<asrwt>0</asrwt>
<pdfrwt beam="1">  1       21 0.17387484E-01 0.82457871E+02</pdfrwt>
<pdfrwt beam="2">  1        2 0.36875416E-02 0.82457871E+02</pdfrwt>
<totfact> 0.77817860E+05</totfact>
</mgrwt>
</event>
<event>
 6    2  0.9453093E+000  0.8449034E+02  0.7546771E-02  0.1316771E+00
         21   -1    0    0  501  502  0.00000000000E+00  0.00000000000E+00  0.22634340709E+02  0.22634340709E+02  0.00000000000E+00 0.  1.
          2   -1    0    0  502    0 -0.00000000000E+00 -0.00000000000E+00 -0.12617083380E+03  0.12617083380E+03  0.00000000000E+00 0. -1.
         24    2    1    2    0    0  0.31228771176E+01 -0.21787926158E+02 -0.76849372053E+02  0.11421227759E+03  0.81572987444E+02 0.  0.
        -13    1    3    3    0    0 -0.36599429968E+02  0.44077613662E+01 -0.31721796914E+02  0.48633517595E+02  0.00000000000E+00 0.  1.
         14    1    3    3    0    0  0.39722307085E+02 -0.26195687524E+02 -0.45127575139E+02  0.65578759999E+02  0.00000000000E+00 0. -1.
          1    1    1    2  501    0 -0.31228771176E+01  0.21787926158E+02 -0.26687121040E+02  0.34592896918E+02  0.00000000000E+00 0. -1.
<mgrwt>
<rscale>  1 0.84490345E+02</rscale>
<asrwt>0</asrwt>
<pdfrwt beam="1">  1       21 0.34822062E-02 0.84490345E+02</pdfrwt>
<pdfrwt beam="2">  1        2 0.19410898E-01 0.84490345E+02</pdfrwt>
<totfact> 0.15900779E+06</totfact>
</mgrwt>
</event>
<event>
 6    2  0.9453093E+000  0.9519860E+02  0.7546771E-02  0.1290729E+00
          2   -1    0    0  502    0 -0.00000000000E+00  0.00000000000E+00  0.82479248272E+03  0.82479248272E+03  0.00000000000E+00 0. -1.
         21   -1    0    0  501  502  0.00000000000E+00 -0.00000000000E+00 -0.24834919852E+02  0.24834919852E+02  0.00000000000E+00 0. -1.
         24    2    1    2    0    0  0.39415667969E+02 -0.32273829986E+02  0.79243394289E+03  0.79813177323E+03  0.80421257246E+02 0.  0.
        -11    1    3    3    0    0  0.32603003911E+02  0.22485989778E+02  0.36822647101E+03  0.37035025253E+03  0.00000000000E+00 0.  1.
         12    1    3    3    0    0  0.68126640574E+01 -0.54759819764E+02  0.42420747188E+03  0.42778152070E+03  0.00000000000E+00 0. -1.
          1    1    1    2  501    0 -0.39415667969E+02  0.32273829986E+02  0.75236199772E+01  0.51495629338E+02  0.00000000000E+00 0. -1.
<mgrwt>
<rscale>  1 0.95198601E+02</rscale>
<asrwt>0</asrwt>
<pdfrwt beam="1">  1       21 0.38207575E-02 0.95198601E+02</pdfrwt>
<pdfrwt beam="2">  1        2 0.12689113E+00 0.95198601E+02</pdfrwt>
<totfact> 0.17911061E+05</totfact>
</mgrwt>
</event>
<event>
 6    2  0.9453093E+000  0.8534165E+02  0.7546771E-02  0.1314541E+00
         21   -1    0    0  501  502  0.00000000000E+00  0.00000000000E+00  0.44010932092E+03  0.44010932092E+03  0.00000000000E+00 0. -1.
          2   -1    0    0  502    0 -0.00000000000E+00 -0.00000000000E+00 -0.10434304559E+02  0.10434304559E+02  0.00000000000E+00 0. -1.
         24    2    1    2    0    0  0.31569852754E+02  0.21511775417E+01  0.18386810538E+03  0.20270835629E+03  0.79258528665E+02 0.  0.
        -13    1    3    3    0    0  0.14822318956E+02 -0.38416966579E+02  0.97152564829E+02  0.10551864913E+03  0.00000000000E+00 0.  1.
         14    1    3    3    0    0  0.16747533798E+02  0.40568144121E+02  0.86715540554E+02  0.97189707167E+02  0.00000000000E+00 0. -1.
          1    1    1    2  501    0 -0.31569852754E+02 -0.21511775417E+01  0.24580691098E+03  0.24783526918E+03  0.00000000000E+00 0. -1.
<mgrwt>
<rscale>  1 0.85341652E+02</rscale>
<asrwt>0</asrwt>
<pdfrwt beam="1">  1       21 0.67709112E-01 0.85341652E+02</pdfrwt>
<pdfrwt beam="2">  1        2 0.16052780E-02 0.85341652E+02</pdfrwt>
<totfact> 0.16772891E+05</totfact>
</mgrwt>
</event>
<event>
 6    2  0.9453093E+000  0.8699963E+02  0.7546771E-02  0.1310285E+00
         21   -1    0    0  501  502  0.00000000000E+00  0.00000000000E+00  0.19958815738E+01  0.19958815738E+01  0.00000000000E+00 0.  1.
          2   -1    0    0  502    0 -0.00000000000E+00 -0.00000000000E+00 -0.18914551572E+04  0.18914551572E+04  0.00000000000E+00 0. -1.
         24    2    1    2    0    0  0.35828738717E+02  0.69824465515E+00 -0.13136548440E+04  0.13165325614E+04  0.79276415019E+02 0.  0.
        -13    1    3    3    0    0  0.32556968212E+02 -0.36587373495E+02 -0.81960016448E+03  0.82106213022E+03  0.00000000000E+00 0.  1.
         14    1    3    3    0    0  0.32717705055E+01  0.37285618150E+02 -0.49405467955E+03  0.49547043120E+03  0.00000000000E+00 0. -1.
          1    1    1    2  501    0 -0.35828738717E+02 -0.69824465515E+00 -0.57580443158E+03  0.57691847734E+03  0.00000000000E+00 0. -1.
<mgrwt>
<rscale>  1 0.86999632E+02</rscale>
<asrwt>0</asrwt>
<pdfrwt beam="1">  1       21 0.30706061E-03 0.86999632E+02</pdfrwt>
<pdfrwt beam="2">  1        2 0.29099129E+00 0.86999632E+02</pdfrwt>
<totfact> 0.24873838E+06</totfact>
</mgrwt>
</event>
<event>
 6    2  0.9453093E+000  0.8389930E+02  0.7546771E-02  0.1318336E+00
          2   -1    0    0  502    0 -0.00000000000E+00  0.00000000000E+00  0.21740340182E+04  0.21740340182E+04  0.00000000000E+00 0. -1.
         21   -1    0    0  501  502  0.00000000000E+00 -0.00000000000E+00 -0.13877255635E+01  0.13877255635E+01  0.00000000000E+00 0.  1.
         24    2    1    2    0    0  0.85536705188E+01 -0.24376710707E+02  0.16166383562E+04  0.16188139693E+04  0.79822947163E+02 0.  0.
        -13    1    3    3    0    0  0.17683692898E+02 -0.44851545190E+02  0.60182266133E+03  0.60375068513E+03  0.00000000000E+00 0.  1.
         14    1    3    3    0    0 -0.91300223795E+01  0.20474834483E+02  0.10148156949E+04  0.10150632841E+04  0.00000000000E+00 0. -1.
          1    1    1    2  501    0 -0.85536705188E+01  0.24376710707E+02  0.55600793642E+03  0.55660777453E+03  0.00000000000E+00 0. -1.
<mgrwt>
<rscale>  1 0.83899298E+02</rscale>
<asrwt>0</asrwt>
<pdfrwt beam="1">  1       21 0.21349798E-03 0.83899298E+02</pdfrwt>
<pdfrwt beam="2">  1        2 0.33446405E+00 0.83899298E+02</pdfrwt>
<totfact> 0.30918932E+06</totfact>
</mgrwt>
</event>
<event>
 6    2  0.9453093E+000  0.9013383E+02  0.7546771E-02  0.1302528E+00
          2   -1    0    0  502    0 -0.00000000000E+00  0.00000000000E+00  0.42736364534E+03  0.42736364534E+03  0.00000000000E+00 0. -1.
         21   -1    0    0  501  502  0.00000000000E+00 -0.00000000000E+00 -0.91540838252E+01  0.91540838252E+01  0.00000000000E+00 0.  1.
         24    2    1    2    0    0  0.23887667854E+02  0.14656298927E+02  0.36937239907E+03  0.38021056968E+03  0.85666097889E+02 0.  0.
        -13    1    3    3    0    0  0.16452919539E+02 -0.35659020363E+02  0.16029945027E+03  0.16503992866E+03  0.00000000000E+00 0.  1.
         14    1    3    3    0    0  0.74347483147E+01  0.50315319289E+02  0.20907294880E+03  0.21517064102E+03  0.00000000000E+00 0. -1.
          1    1    1    2  501    0 -0.23887667854E+02 -0.14656298927E+02  0.48837162448E+02  0.56307159489E+02  0.00000000000E+00 0. -1.
<mgrwt>
<rscale>  1 0.90133834E+02</rscale>
<asrwt>0</asrwt>
<pdfrwt beam="1">  1       21 0.14083209E-02 0.90133834E+02</pdfrwt>
<pdfrwt beam="2">  1        2 0.65748238E-01 0.90133834E+02</pdfrwt>
<totfact> 0.18685796E+06</totfact>
</mgrwt>
</event>
<event>
 6    2  0.1071256E+001  0.1222765E+03  0.7546771E-02  0.1239388E+00
         -3   -1    0    0    0  501 -0.00000000000E+00  0.00000000000E+00  0.76876006968E+03  0.76876006968E+03  0.00000000000E+00 0.  1.
         21   -1    0    0  501  502  0.00000000000E+00 -0.00000000000E+00 -0.15213776301E+02  0.15213776301E+02  0.00000000000E+00 0.  1.
         24    2    1    2    0    0  0.52780291824E+02 -0.76099766118E+02  0.47230501613E+03  0.48787658217E+03  0.79841076887E+02 0.  0.
        -13    1    3    3    0    0  0.36019905705E+02 -0.87623496173E+02  0.43682134546E+03  0.44697673154E+03  0.00000000000E+00 0.  1.
         14    1    3    3    0    0  0.16760386120E+02  0.11523730055E+02  0.35483670674E+02  0.40899850633E+02  0.00000000000E+00 0. -1.
         -4    1    1    2    0  502 -0.52780291824E+02  0.76099766118E+02  0.28124127725E+03  0.29609726381E+03  0.00000000000E+00 0.  1.
<mgrwt>
<rscale>  1 0.12227645E+03</rscale>
<asrwt>0</asrwt>
<pdfrwt beam="1">  1       21 0.23405816E-02 0.12227645E+03</pdfrwt>
<pdfrwt beam="2">  1       -3 0.11827075E+00 0.12227645E+03</pdfrwt>
<totfact> 0.27786563E+04</totfact>
</mgrwt>
</event>
<event>
 6    2  0.1113675E+001  0.1142070E+03  0.7546771E-02  0.1252972E+00
         -1   -1    0    0    0  501 -0.00000000000E+00  0.00000000000E+00  0.16465903135E+04  0.16465903135E+04  0.00000000000E+00 0.  1.
         21   -1    0    0  501  502  0.00000000000E+00 -0.00000000000E+00 -0.67645279485E+01  0.67645279485E+01  0.00000000000E+00 0.  1.
         24    2    1    2    0    0 -0.81527662507E+02  0.25431801603E+02  0.11919882668E+04  0.11974469785E+04  0.75826788602E+02 0.  0.
        -11    1    3    3    0    0 -0.90946777065E+02  0.33700153813E+02  0.11328961560E+04  0.11370403321E+04  0.00000000000E+00 0.  1.
         12    1    3    3    0    0  0.94191145582E+01 -0.82683522095E+01  0.59092110754E+02  0.60406646329E+02  0.00000000000E+00 0. -1.
         -2    1    1    2    0  502  0.81527662507E+02 -0.25431801603E+02  0.44783751875E+03  0.45590786294E+03  0.00000000000E+00 0.  1.
<mgrwt>
<rscale>  1 0.11420700E+03</rscale>
<asrwt>0</asrwt>
<pdfrwt beam="1">  1       21 0.10406979E-02 0.11420700E+03</pdfrwt>
<pdfrwt beam="2">  1       -1 0.25332127E+00 0.11420700E+03</pdfrwt>
<totfact> 0.25458321E+04</totfact>
</mgrwt>
</event>
<event>
 6    2  0.9453093E+000  0.8682410E+02  0.7546771E-02  0.1310730E+00
          4   -1    0    0  502    0 -0.00000000000E+00  0.00000000000E+00  0.13723926132E+03  0.13723926132E+03  0.00000000000E+00 0. -1.
         21   -1    0    0  501  502  0.00000000000E+00 -0.00000000000E+00 -0.40373157222E+02  0.40373157222E+02  0.00000000000E+00 0. -1.
         24    2    1    2    0    0  0.16959842800E+02 -0.25189863262E+02  0.11356824707E+03  0.14295513852E+03  0.81340392222E+02 0.  0.
        -13    1    3    3    0    0 -0.15348677812E+02  0.12620902289E+01 -0.58292361776E+01  0.16466777971E+02  0.00000000000E+00 0.  1.
         14    1    3    3    0    0  0.32308520612E+02 -0.26451953491E+02  0.11939748325E+03  0.12648836055E+03  0.00000000000E+00 0. -1.
          3    1    1    2  501    0 -0.16959842800E+02  0.25189863262E+02 -0.16702142971E+02  0.34657280026E+02  0.00000000000E+00 0. -1.
<mgrwt>
<rscale>  1 0.86824103E+02</rscale>
<asrwt>0</asrwt>
<pdfrwt beam="1">  1       21 0.62112550E-02 0.86824103E+02</pdfrwt>
<pdfrwt beam="2">  1        4 0.21113732E-01 0.86824103E+02</pdfrwt>
<totfact> 0.14162323E+05</totfact>
</mgrwt>
</event>
<event>
 6    2  0.9453093E+000  0.1787850E+03  0.7546771E-02  0.1168984E+00
         -1   -1    0    0    0  501 -0.00000000000E+00  0.00000000000E+00  0.47391217751E+02  0.47391217751E+02  0.00000000000E+00 0.  1.
         21   -1    0    0  501  502  0.00000000000E+00 -0.00000000000E+00 -0.58876528982E+03  0.58876528982E+03  0.00000000000E+00 0.  1.
         24    2    1    2    0    0 -0.14963955894E+03 -0.27435820133E+02 -0.24856546948E+03  0.30618438818E+03  0.93911474924E+02 0.  0.
        -11    1    3    3    0    0 -0.90912860266E+02  0.12467434243E+02 -0.74509972174E+02  0.11820457280E+03  0.00000000000E+00 0.  1.
         12    1    3    3    0    0 -0.58726698670E+02 -0.39903254376E+02 -0.17405549730E+03  0.18797981537E+03  0.00000000000E+00 0. -1.
         -2    1    1    2    0  502  0.14963955894E+03  0.27435820133E+02 -0.29280860260E+03  0.32997211940E+03  0.00000000000E+00 0.  1.
<mgrwt>
<rscale>  1 0.17878503E+03</rscale>
<asrwt>0</asrwt>
<pdfrwt beam="1">  1       21 0.90579274E-01 0.17878503E+03</pdfrwt>
<pdfrwt beam="2">  1       -1 0.72909567E-02 0.17878503E+03</pdfrwt>
<totfact> 0.91530202E+03</totfact>
</mgrwt>
</event>
<event>
 6    2  0.9453093E+000  0.9760121E+02  0.7546771E-02  0.1285423E+00
         21   -1    0    0  501  502  0.00000000000E+00  0.00000000000E+00  0.21402163881E+01  0.21402163881E+01  0.00000000000E+00 0. -1.
          2   -1    0    0  502    0 -0.00000000000E+00 -0.00000000000E+00 -0.36331490751E+04  0.36331490751E+04  0.00000000000E+00 0. -1.
         24    2    1    2    0    0  0.31381863544E+02  0.43592558354E+02 -0.31074387675E+04  0.31089711625E+04  0.81491489813E+02 0.  0.
        -11    1    3    3    0    0  0.17549875783E+02 -0.88499728026E+01 -0.18724140120E+03  0.18827018479E+03  0.00000000000E+00 0.  1.
         12    1    3    3    0    0  0.13831987762E+02  0.52442531156E+02 -0.29201973663E+04  0.29207009777E+04  0.00000000000E+00 0. -1.
          1    1    1    2  501    0 -0.31381863544E+02 -0.43592558354E+02 -0.52357009123E+03  0.52631812901E+03  0.00000000000E+00 0. -1.
<mgrwt>
<rscale>  1 0.97601206E+02</rscale>
<asrwt>0</asrwt>
<pdfrwt beam="1">  1       21 0.32926402E-03 0.97601206E+02</pdfrwt>
<pdfrwt beam="2">  1        2 0.55894609E+00 0.97601206E+02</pdfrwt>
<totfact> 0.24001553E+05</totfact>
</mgrwt>
</event>
<event>
 6    2  0.9453093E+000  0.1000294E+03  0.7546771E-02  0.1280234E+00
         21   -1    0    0  501  502  0.00000000000E+00  0.00000000000E+00  0.98074774722E+02  0.98074774722E+02  0.00000000000E+00 0. -1.
          2   -1    0    0  502    0 -0.00000000000E+00 -0.00000000000E+00 -0.87348565545E+02  0.87348565545E+02  0.00000000000E+00 0. -1.
         24    2    1    2    0    0 -0.59629321135E+02  0.12375858383E+01 -0.39404919377E+02  0.10751109728E+03  0.80303803203E+02 0.  0.
        -11    1    3    3    0    0 -0.65308398715E+02  0.95161200823E+01  0.87001615220E+00  0.66003790893E+02  0.00000000000E+00 0.  1.
         12    1    3    3    0    0  0.56790775800E+01 -0.82785342440E+01 -0.40274935529E+02  0.41507306384E+02  0.00000000000E+00 0. -1.
          1    1    1    2  501    0  0.59629321135E+02 -0.12375858383E+01  0.50131128553E+02  0.77912242990E+02  0.00000000000E+00 0. -1.
<mgrwt>
<rscale>  1 0.10002944E+03</rscale>
<asrwt>0</asrwt>
<pdfrwt beam="1">  1       21 0.15088427E-01 0.10002944E+03</pdfrwt>
<pdfrwt beam="2">  1        2 0.13438241E-01 0.10002944E+03</pdfrwt>
<totfact> 0.20270849E+05</totfact>
</mgrwt>
</event>
<event>
 6    2  0.1121320E+001  0.8503774E+02  0.7546771E-02  0.1315334E+00
         21   -1    0    0  501  502  0.00000000000E+00  0.00000000000E+00  0.40221488758E+02  0.40221488758E+02  0.00000000000E+00 0.  1.
         -3   -1    0    0    0  501 -0.00000000000E+00 -0.00000000000E+00 -0.20062051215E+03  0.20062051215E+03  0.00000000000E+00 0.  1.
         24    2    1    2    0    0 -0.22218467007E+02  0.11619235135E+02 -0.18630162332E+03  0.20479187491E+03  0.81257309067E+02 0.  0.
        -13    1    3    3    0    0 -0.35396265436E+02  0.15045860519E+02 -0.18723442656E+03  0.19114393533E+03  0.00000000000E+00 0.  1.
         14    1    3    3    0    0  0.13177798429E+02 -0.34266253845E+01  0.93280323563E+00  0.13647939582E+02  0.00000000000E+00 0. -1.
         -4    1    1    2    0  502  0.22218467007E+02 -0.11619235135E+02  0.25902599929E+02  0.36050125996E+02  0.00000000000E+00 0.  1.
<mgrwt>
<rscale>  1 0.85037740E+02</rscale>
<asrwt>0</asrwt>
<pdfrwt beam="1">  1       21 0.61879213E-02 0.85037740E+02</pdfrwt>
<pdfrwt beam="2">  1       -3 0.30864694E-01 0.85037740E+02</pdfrwt>
<totfact> 0.85581874E+04</totfact>
</mgrwt>
</event>
<event>
 6    2  0.9453093E+000  0.1060060E+03  0.7546771E-02  0.1268150E+00
         21   -1    0    0  501  502  0.00000000000E+00  0.00000000000E+00  0.49803559976E+02  0.49803559976E+02  0.00000000000E+00 0. -1.
          2   -1    0    0  502    0 -0.00000000000E+00 -0.00000000000E+00 -0.94036892000E+02  0.94036892000E+02  0.00000000000E+00 0. -1.
         24    2    1    2    0    0  0.15307491026E+02 -0.18175524318E+02 -0.52993936284E+02  0.11851423724E+03  0.10330826773E+03 0.  0.
        -13    1    3    3    0    0  0.69333071484E+01  0.40037630414E+02 -0.20162552701E+01  0.40683508729E+02  0.00000000000E+00 0.  1.
         14    1    3    3    0    0  0.83741838774E+01 -0.58213154732E+02 -0.50977681014E+02  0.77830728514E+02  0.00000000000E+00 0. -1.
          1    1    1    2  501    0 -0.15307491026E+02  0.18175524318E+02  0.87606042600E+01  0.25326214733E+02  0.00000000000E+00 0. -1.
<mgrwt>
<rscale>  1 0.10600598E+03</rscale>
<asrwt>0</asrwt>
<pdfrwt beam="1">  1       21 0.76620862E-02 0.10600598E+03</pdfrwt>
<pdfrwt beam="2">  1        2 0.14467214E-01 0.10600598E+03</pdfrwt>
<totfact> 0.61091769E+05</totfact>
</mgrwt>
</event>
<event>
 6    2  0.9453093E+000  0.1055008E+03  0.7546771E-02  0.1269136E+00
         -1   -1    0    0    0  501 -0.00000000000E+00  0.00000000000E+00  0.42723039923E+03  0.42723039923E+03  0.00000000000E+00 0.  1.
         21   -1    0    0  501  502  0.00000000000E+00 -0.00000000000E+00 -0.22028975016E+02  0.22028975016E+02  0.00000000000E+00 0.  1.
         24    2    1    2    0    0 -0.36842155821E+02 -0.56331153351E+02  0.33825482675E+03  0.35432576483E+03  0.81239624105E+02 0.  0.
        -13    1    3    3    0    0 -0.15724609254E+02 -0.75083156094E+02  0.26243192447E+03  0.27341407910E+03  0.00000000000E+00 0.  1.
         14    1    3    3    0    0 -0.21117546566E+02  0.18752002743E+02  0.75822902274E+02  0.80911685739E+02  0.00000000000E+00 0. -1.
         -2    1    1    2    0  502  0.36842155821E+02  0.56331153351E+02  0.66946597464E+02  0.94933609409E+02  0.00000000000E+00 0.  1.
<mgrwt>
<rscale>  1 0.10550080E+03</rscale>
<asrwt>0</asrwt>
<pdfrwt beam="1">  1       21 0.33890734E-02 0.10550080E+03</pdfrwt>
<pdfrwt beam="2">  1       -1 0.65727748E-01 0.10550080E+03</pdfrwt>
<totfact> 0.11350309E+05</totfact>
</mgrwt>
</event>
<event>
 6    2  0.9453093E+000  0.9076436E+02  0.7546771E-02  0.1301011E+00
          2   -1    0    0  502    0 -0.00000000000E+00  0.00000000000E+00  0.41485642719E+02  0.41485642719E+02  0.00000000000E+00 0. -1.
         21   -1    0    0  501  502  0.00000000000E+00 -0.00000000000E+00 -0.10255216845E+03  0.10255216845E+03  0.00000000000E+00 0.  1.
         24    2    1    2    0    0 -0.20957606458E+02  0.33308042033E+02 -0.37795317042E+02  0.98319148829E+02  0.81789498737E+02 0.  0.
        -13    1    3    3    0    0 -0.37928158084E+01  0.57268146117E+02 -0.10902349320E+02  0.58419921535E+02  0.00000000000E+00 0.  1.
         14    1    3    3    0    0 -0.17164790650E+02 -0.23960104084E+02 -0.26892967722E+02  0.39899227294E+02  0.00000000000E+00 0. -1.
          1    1    1    2  501    0  0.20957606458E+02 -0.33308042033E+02 -0.23271208693E+02  0.45718662344E+02  0.00000000000E+00 0. -1.
<mgrwt>
<rscale>  1 0.90764360E+02</rscale>
<asrwt>0</asrwt>
<pdfrwt beam="1">  1       21 0.15777256E-01 0.90764360E+02</pdfrwt>
<pdfrwt beam="2">  1        2 0.63824067E-02 0.90764360E+02</pdfrwt>
<totfact> 0.46151001E+05</totfact>
</mgrwt>
</event>
<event>
 6    2  0.1100919E+001  0.8275346E+02  0.7546771E-02  0.1321414E+00
         -1   -1    0    0    0  501 -0.00000000000E+00  0.00000000000E+00  0.38893776236E+03  0.38893776236E+03  0.00000000000E+00 0.  1.
         21   -1    0    0  501  502  0.00000000000E+00 -0.00000000000E+00 -0.68819451692E+01  0.68819451692E+01  0.00000000000E+00 0. -1.
         24    2    1    2    0    0 -0.30380341140E+01  0.20412846716E+02  0.29933183050E+03  0.31056026854E+03  0.80138765179E+02 0.  0.
        -11    1    3    3    0    0 -0.18601339204E+02  0.70562352499E+01  0.28463418179E+03  0.28532861357E+03  0.00000000000E+00 0.  1.
         12    1    3    3    0    0  0.15563305090E+02  0.13356611466E+02  0.14697648706E+02  0.25231654973E+02  0.00000000000E+00 0. -1.
         -2    1    1    2    0  502  0.30380341140E+01 -0.20412846716E+02  0.82723986700E+02  0.85259438996E+02  0.00000000000E+00 0.  1.
<mgrwt>
<rscale>  1 0.82753463E+02</rscale>
<asrwt>0</asrwt>
<pdfrwt beam="1">  1       21 0.10587611E-02 0.82753463E+02</pdfrwt>
<pdfrwt beam="2">  1       -1 0.59836562E-01 0.82753463E+02</pdfrwt>
<totfact> 0.85304055E+05</totfact>
</mgrwt>
</event>
<event>
 6    2  0.9453093E+000  0.8590394E+02  0.7546771E-02  0.1313085E+00
         21   -1    0    0  501  502  0.00000000000E+00  0.00000000000E+00  0.38653379793E+02  0.38653379793E+02  0.00000000000E+00 0.  1.
         -1   -1    0    0    0  501 -0.00000000000E+00 -0.00000000000E+00 -0.10954822527E+03  0.10954822527E+03  0.00000000000E+00 0.  1.
         24    2    1    2    0    0 -0.18167057679E+02 -0.15502019301E+02 -0.84681959721E+02  0.12062554468E+03  0.82517471725E+02 0.  0.
        -13    1    3    3    0    0 -0.20687116057E+01 -0.13617709835E+02 -0.98419534580E+02  0.99378701821E+02  0.00000000000E+00 0.  1.
         14    1    3    3    0    0 -0.16098346073E+02 -0.18843094663E+01  0.13737574858E+02  0.21246842858E+02  0.00000000000E+00 0. -1.
         -2    1    1    2    0  502  0.18167057679E+02  0.15502019301E+02  0.13787114244E+02  0.27576060384E+02  0.00000000000E+00 0.  1.
<mgrwt>
<rscale>  1 0.85903945E+02</rscale>
<asrwt>0</asrwt>
<pdfrwt beam="1">  1       21 0.59466739E-02 0.85903945E+02</pdfrwt>
<pdfrwt beam="2">  1       -1 0.16853573E-01 0.85903945E+02</pdfrwt>
<totfact> 0.44804389E+05</totfact>
</mgrwt>
</event>
<event>
 6    2  0.9453093E+000  0.8093941E+02  0.7546771E-02  0.1326406E+00
          2   -1    0    0  502    0 -0.00000000000E+00  0.00000000000E+00  0.19473423286E+03  0.19473423286E+03  0.00000000000E+00 0. -1.
         21   -1    0    0  501  502  0.00000000000E+00 -0.00000000000E+00 -0.13838924599E+02  0.13838924599E+02  0.00000000000E+00 0.  1.
         24    2    1    2    0    0  0.10278663575E+02  0.19122556216E+02  0.12860793418E+03  0.15195785414E+03  0.77973493068E+02 0.  0.
        -11    1    3    3    0    0  0.20820170313E+02 -0.21483197729E+01 -0.24915505716E+00  0.20932196443E+02  0.00000000000E+00 0.  1.
         12    1    3    3    0    0 -0.10541506738E+02  0.21270875989E+02  0.12885708924E+03  0.13102565770E+03  0.00000000000E+00 0. -1.
          1    1    1    2  501    0 -0.10278663575E+02 -0.19122556216E+02  0.52287374081E+02  0.56615303315E+02  0.00000000000E+00 0. -1.
<mgrwt>
<rscale>  1 0.80939414E+02</rscale>
<asrwt>0</asrwt>
<pdfrwt beam="1">  1       21 0.21290655E-02 0.80939414E+02</pdfrwt>
<pdfrwt beam="2">  1        2 0.29959111E-01 0.80939414E+02</pdfrwt>
<totfact> 0.21811615E+06</totfact>
</mgrwt>
</event>
<event>
 6    2  0.9453093E+000  0.8633583E+02  0.7546771E-02  0.1311976E+00
         21   -1    0    0  501  502  0.00000000000E+00  0.00000000000E+00  0.17734727856E+02  0.17734727856E+02  0.00000000000E+00 0. -1.
          2   -1    0    0  502    0 -0.00000000000E+00 -0.00000000000E+00 -0.35306155247E+03  0.35306155247E+03  0.00000000000E+00 0. -1.
         24    2    1    2    0    0  0.46156942299E+01 -0.33883900176E+02 -0.32316868685E+03  0.33450242908E+03  0.79274532960E+02 0.  0.
        -11    1    3    3    0    0  0.38362665490E+02 -0.30483216149E+02 -0.14280958512E+03  0.15098178092E+03  0.00000000000E+00 0.  1.
         12    1    3    3    0    0 -0.33746971260E+02 -0.34006840270E+01 -0.18035910174E+03  0.18352064816E+03  0.00000000000E+00 0. -1.
          1    1    1    2  501    0 -0.46156942299E+01  0.33883900176E+02 -0.12158137765E+02  0.36293851246E+02  0.00000000000E+00 0. -1.
<mgrwt>
<rscale>  1 0.86335826E+02</rscale>
<asrwt>0</asrwt>
<pdfrwt beam="1">  1       21 0.27284197E-02 0.86335826E+02</pdfrwt>
<pdfrwt beam="2">  1        2 0.54317162E-01 0.86335826E+02</pdfrwt>
<totfact> 0.79012084E+05</totfact>
</mgrwt>
</event>
<event>
 6    2  0.9453093E+000  0.8437973E+02  0.7546771E-02  0.1317063E+00
         -1   -1    0    0    0  501 -0.00000000000E+00  0.00000000000E+00  0.14928820053E+03  0.14928820053E+03  0.00000000000E+00 0.  1.
         21   -1    0    0  501  502  0.00000000000E+00 -0.00000000000E+00 -0.20852251096E+02  0.20852251096E+02  0.00000000000E+00 0. -1.
         24    2    1    2    0    0  0.22354070297E+02 -0.13091603526E+02  0.10851732256E+03  0.13746253495E+03  0.80304698974E+02 0.  0.
        -13    1    3    3    0    0  0.33463351359E+02  0.55575686573E+01  0.11057186553E+03  0.11565820291E+03  0.00000000000E+00 0.  1.
         14    1    3    3    0    0 -0.11109281062E+02 -0.18649172183E+02 -0.20545429699E+01  0.21804332039E+02  0.00000000000E+00 0. -1.
         -2    1    1    2    0  502 -0.22354070297E+02  0.13091603526E+02  0.19918626866E+02  0.32677916671E+02  0.00000000000E+00 0.  1.
<mgrwt>
<rscale>  1 0.84379732E+02</rscale>
<asrwt>0</asrwt>
<pdfrwt beam="1">  1       21 0.32080387E-02 0.84379732E+02</pdfrwt>
<pdfrwt beam="2">  1       -1 0.22967415E-01 0.84379732E+02</pdfrwt>
<totfact> 0.75878809E+05</totfact>
</mgrwt>
</event>
<event>
 6    2  0.9453093E+000  0.7641815E+02  0.7546771E-02  0.1339535E+00
          2   -1    0    0  502    0 -0.00000000000E+00  0.00000000000E+00  0.10796986178E+03  0.10796986178E+03  0.00000000000E+00 0. -1.
         21   -1    0    0  501  502  0.00000000000E+00 -0.00000000000E+00 -0.34626235136E+02  0.34626235136E+02  0.00000000000E+00 0.  1.
         24    2    1    2    0    0  0.21514718315E+02 -0.18073739299E+01  0.11735115662E+02  0.77313952878E+02  0.73304738355E+02 0.  0.
        -11    1    3    3    0    0 -0.21585624791E+02  0.18784270832E+02  0.32332220447E+01  0.28796558008E+02  0.00000000000E+00 0.  1.
         12    1    3    3    0    0  0.43100343106E+02 -0.20591644761E+02  0.85018936168E+01  0.48517394870E+02  0.00000000000E+00 0. -1.
          1    1    1    2  501    0 -0.21514718315E+02  0.18073739299E+01  0.61608510981E+02  0.65282144037E+02  0.00000000000E+00 0. -1.
<mgrwt>
<rscale>  1 0.76418155E+02</rscale>
<asrwt>0</asrwt>
<pdfrwt beam="1">  1       21 0.53271131E-02 0.76418155E+02</pdfrwt>
<pdfrwt beam="2">  1        2 0.16610748E-01 0.76418155E+02</pdfrwt>
<totfact> 0.92963913E+05</totfact>
</mgrwt>
</event>
<event>
 6    2  0.9453093E+000  0.9275034E+02  0.7546771E-02  0.1296325E+00
          2   -1    0    0  502    0 -0.00000000000E+00  0.00000000000E+00  0.13028343681E+04  0.13028343681E+04  0.00000000000E+00 0. -1.
         21   -1    0    0  501  502  0.00000000000E+00 -0.00000000000E+00 -0.49159816907E+01  0.49159816907E+01  0.00000000000E+00 0.  1.
         24    2    1    2    0    0  0.76294358883E+00 -0.45515936571E+02  0.49969680039E+03  0.50823175529E+03  0.80810532733E+02 0.  0.
        -13    1    3    3    0    0 -0.14183260417E+02 -0.29325065846E+01  0.13045390536E+02  0.19492221145E+02  0.00000000000E+00 0.  1.
         14    1    3    3    0    0  0.14946204006E+02 -0.42583429986E+02  0.48665140985E+03  0.48873953415E+03  0.00000000000E+00 0. -1.
          1    1    1    2  501    0 -0.76294358883E+00  0.45515936571E+02  0.79822158607E+03  0.79951859455E+03  0.00000000000E+00 0. -1.
<mgrwt>
<rscale>  1 0.92750336E+02</rscale>
<asrwt>0</asrwt>
<pdfrwt beam="1">  1       21 0.75630592E-03 0.92750336E+02</pdfrwt>
<pdfrwt beam="2">  1        2 0.20043578E+00 0.92750336E+02</pdfrwt>
<totfact> 0.12526682E+06</totfact>
</mgrwt>
</event>
<event>
 6    2  0.9453093E+000  0.7658456E+02  0.7546771E-02  0.1339033E+00
          2   -1    0    0  502    0 -0.00000000000E+00  0.00000000000E+00  0.71423613169E+02  0.71423613169E+02  0.00000000000E+00 0. -1.
         21   -1    0    0  501  502  0.00000000000E+00 -0.00000000000E+00 -0.10393324410E+03  0.10393324410E+03  0.00000000000E+00 0. -1.
         24    2    1    2    0    0  0.38183630967E+01 -0.32487742360E+02  0.46671333195E+02  0.89685051052E+02  0.69247106363E+02 0.  0.
        -11    1    3    3    0    0  0.14745988399E+02 -0.17782964114E+02 -0.13520273081E+02  0.26767065038E+02  0.00000000000E+00 0.  1.
         12    1    3    3    0    0 -0.10927625303E+02 -0.14704778247E+02  0.60191606276E+02  0.62917986015E+02  0.00000000000E+00 0. -1.
          1    1    1    2  501    0 -0.38183630967E+01  0.32487742360E+02 -0.79180964130E+02  0.85671806220E+02  0.00000000000E+00 0. -1.
<mgrwt>
<rscale>  1 0.76584561E+02</rscale>
<asrwt>0</asrwt>
<pdfrwt beam="1">  1       21 0.15989730E-01 0.76584561E+02</pdfrwt>
<pdfrwt beam="2">  1        2 0.10988248E-01 0.76584561E+02</pdfrwt>
<totfact> 0.22757912E+05</totfact>
</mgrwt>
</event>
<event>
 6    2  0.9453093E+000  0.8294976E+02  0.7546771E-02  0.1320883E+00
         21   -1    0    0  501  502  0.00000000000E+00  0.00000000000E+00  0.41609683183E+01  0.41609683183E+01  0.00000000000E+00 0.  1.
          2   -1    0    0  502    0 -0.00000000000E+00 -0.00000000000E+00 -0.77119886522E+03  0.77119886522E+03  0.00000000000E+00 0. -1.
         24    2    1    2    0    0  0.10090288070E+02 -0.28576879490E+02 -0.55263638666E+03  0.55882701952E+03  0.77215347731E+02 0.  0.
        -11    1    3    3    0    0  0.85342554516E+01  0.11842962895E+02 -0.20559070615E+02  0.25214374289E+02  0.00000000000E+00 0.  1.
         12    1    3    3    0    0  0.15560326181E+01 -0.40419842385E+02 -0.53207731604E+03  0.53361264523E+03  0.00000000000E+00 0. -1.
          1    1    1    2  501    0 -0.10090288070E+02  0.28576879490E+02 -0.21440151024E+03  0.21653281402E+03  0.00000000000E+00 0. -1.
<mgrwt>
<rscale>  1 0.82949755E+02</rscale>
<asrwt>0</asrwt>
<pdfrwt beam="1">  1       21 0.64014860E-03 0.82949755E+02</pdfrwt>
<pdfrwt beam="2">  1        2 0.11864605E+00 0.82949755E+02</pdfrwt>
<totfact> 0.32781478E+06</totfact>
</mgrwt>
</event>
<event>
 6    2  0.9453093E+000  0.9657874E+02  0.7546771E-02  0.1287659E+00
          2   -1    0    0  502    0 -0.00000000000E+00  0.00000000000E+00  0.12919012749E+04  0.12919012749E+04  0.00000000000E+00 0. -1.
         21   -1    0    0  501  502  0.00000000000E+00 -0.00000000000E+00 -0.72823421361E+01  0.72823421361E+01  0.00000000000E+00 0. -1.
         24    2    1    2    0    0 -0.47156625045E+02  0.27523924100E+02  0.11480345456E+04  0.11520897405E+04  0.79662655658E+02 0.  0.
        -13    1    3    3    0    0 -0.13504683362E+01  0.41168222693E+02  0.31448155533E+03  0.31716761336E+03  0.00000000000E+00 0.  1.
         14    1    3    3    0    0 -0.45806156709E+02 -0.13644298593E+02  0.83355299027E+03  0.83492212719E+03  0.00000000000E+00 0. -1.
          1    1    1    2  501    0  0.47156625045E+02 -0.27523924100E+02  0.13658438720E+03  0.14709387652E+03  0.00000000000E+00 0. -1.
<mgrwt>
<rscale>  1 0.96578737E+02</rscale>
<asrwt>0</asrwt>
<pdfrwt beam="1">  1       21 0.11203614E-02 0.96578737E+02</pdfrwt>
<pdfrwt beam="2">  1        2 0.19875386E+00 0.96578737E+02</pdfrwt>
<totfact> 0.68928766E+05</totfact>
</mgrwt>
</event>
<event>
 6    2  0.9453093E+000  0.9134397E+02  0.7546771E-02  0.1299629E+00
          2   -1    0    0  502    0 -0.00000000000E+00  0.00000000000E+00  0.36220483647E+02  0.36220483647E+02  0.00000000000E+00 0. -1.
         21   -1    0    0  501  502  0.00000000000E+00 -0.00000000000E+00 -0.47713206704E+03  0.47713206704E+03  0.00000000000E+00 0. -1.
         24    2    1    2    0    0  0.27142946555E+02 -0.35564176991E+02 -0.24538139305E+02  0.94582452454E+02  0.79637741046E+02 0.  0.
        -13    1    3    3    0    0  0.21075778994E+02 -0.45256523854E+02 -0.47513211415E+02  0.68919131382E+02  0.00000000000E+00 0.  1.
         14    1    3    3    0    0  0.60671675604E+01  0.96923468632E+01  0.22975072110E+02  0.25663321071E+02  0.00000000000E+00 0. -1.
          1    1    1    2  501    0 -0.27142946555E+02  0.35564176991E+02 -0.41637344408E+03  0.41877009823E+03  0.00000000000E+00 0. -1.
<mgrwt>
<rscale>  1 0.91343965E+02</rscale>
<asrwt>0</asrwt>
<pdfrwt beam="1">  1       21 0.73404926E-01 0.91343965E+02</pdfrwt>
<pdfrwt beam="2">  1        2 0.55723827E-02 0.91343965E+02</pdfrwt>
<totfact> 0.27213349E+04</totfact>
</mgrwt>
</event>
<event>
 6    2  0.9453093E+000  0.8741668E+02  0.7546771E-02  0.1309231E+00
         21   -1    0    0  501  502  0.00000000000E+00  0.00000000000E+00  0.11879481339E+02  0.11879481339E+02  0.00000000000E+00 0. -1.
         -1   -1    0    0    0  501 -0.00000000000E+00 -0.00000000000E+00 -0.28676026137E+03  0.28676026137E+03  0.00000000000E+00 0.  1.
         24    2    1    2    0    0 -0.23310511795E+02 -0.16360203792E+02 -0.22173664497E+03  0.23834600075E+03  0.82647686728E+02 0.  0.
        -13    1    3    3    0    0  0.62727777841E+01 -0.80937369457E+00 -0.19615709457E+03  0.19625903439E+03  0.00000000000E+00 0.  1.
         14    1    3    3    0    0 -0.29583289579E+02 -0.15550830097E+02 -0.25579550400E+02  0.42086966363E+02  0.00000000000E+00 0. -1.
         -2    1    1    2    0  502  0.23310511795E+02  0.16360203792E+02 -0.53144135059E+02  0.60293741959E+02  0.00000000000E+00 0.  1.
<mgrwt>
<rscale>  1 0.87416682E+02</rscale>
<asrwt>0</asrwt>
<pdfrwt beam="1">  1       21 0.18276125E-02 0.87416682E+02</pdfrwt>
<pdfrwt beam="2">  1       -1 0.44116964E-01 0.87416682E+02</pdfrwt>
<totfact> 0.63095232E+05</totfact>
</mgrwt>
</event>
<event>
 6    2  0.9453093E+000  0.8671045E+02  0.7546771E-02  0.1311019E+00
         21   -1    0    0  501  502  0.00000000000E+00  0.00000000000E+00  0.10569747100E+02  0.10569747100E+02  0.00000000000E+00 0. -1.
          2   -1    0    0  502    0 -0.00000000000E+00 -0.00000000000E+00 -0.40814072870E+03  0.40814072870E+03  0.00000000000E+00 0. -1.
         24    2    1    2    0    0 -0.29050238093E+02  0.56260741821E+01 -0.36296528650E+03  0.37317891337E+03  0.81505417834E+02 0.  0.
        -11    1    3    3    0    0 -0.13462301634E+02 -0.48185094344E+01 -0.56550095255E+01  0.15376304211E+02  0.00000000000E+00 0.  1.
         12    1    3    3    0    0 -0.15587936459E+02  0.10444583617E+02 -0.35731027697E+03  0.35780260916E+03  0.00000000000E+00 0. -1.
          1    1    1    2  501    0  0.29050238093E+02 -0.56260741821E+01 -0.34605695102E+02  0.45531562432E+02  0.00000000000E+00 0. -1.
<mgrwt>
<rscale>  1 0.86710450E+02</rscale>
<asrwt>0</asrwt>
<pdfrwt beam="1">  1       21 0.16261148E-02 0.86710450E+02</pdfrwt>
<pdfrwt beam="2">  1        2 0.62790885E-01 0.86710450E+02</pdfrwt>
<totfact> 0.15552852E+06</totfact>
</mgrwt>
</event>
<event>
 6    2  0.9453093E+000  0.8968764E+02  0.7546771E-02  0.1303610E+00
         21   -1    0    0  501  502  0.00000000000E+00  0.00000000000E+00  0.13993208208E+03  0.13993208208E+03  0.00000000000E+00 0. -1.
          2   -1    0    0  502    0 -0.00000000000E+00 -0.00000000000E+00 -0.20181552811E+03  0.20181552811E+03  0.00000000000E+00 0. -1.
         24    2    1    2    0    0 -0.85924370057E+01  0.36618773623E+02 -0.18899055932E+03  0.20919202637E+03  0.81419333260E+02 0.  0.
        -11    1    3    3    0    0  0.35273705760E+02  0.26668604215E+02 -0.82817427913E+02  0.93883838518E+02  0.00000000000E+00 0.  1.
         12    1    3    3    0    0 -0.43866142766E+02  0.99501694082E+01 -0.10617313141E+03  0.11530818785E+03  0.00000000000E+00 0. -1.
          1    1    1    2  501    0  0.85924370057E+01 -0.36618773623E+02  0.12710711328E+03  0.13255558382E+03  0.00000000000E+00 0. -1.
<mgrwt>
<rscale>  1 0.89687638E+02</rscale>
<asrwt>0</asrwt>
<pdfrwt beam="1">  1       21 0.21528013E-01 0.89687638E+02</pdfrwt>
<pdfrwt beam="2">  1        2 0.31048543E-01 0.89687638E+02</pdfrwt>
<totfact> 0.41520000E+04</totfact>
</mgrwt>
</event>
<event>
 6    2  0.9453093E+000  0.1165799E+03  0.7546771E-02  0.1248848E+00
          4   -1    0    0  502    0 -0.00000000000E+00  0.00000000000E+00  0.48215689578E+02  0.48215689578E+02  0.00000000000E+00 0. -1.
         21   -1    0    0  501  502  0.00000000000E+00 -0.00000000000E+00 -0.48424662160E+03  0.48424662160E+03  0.00000000000E+00 0. -1.
         24    2    1    2    0    0 -0.48600964527E+02 -0.68839767719E+02 -0.33631193022E+02  0.12133396465E+03  0.80559955689E+02 0.  0.
        -13    1    3    3    0    0  0.64349114112E+01 -0.11749979748E+02 -0.39606710156E+02  0.41811022450E+02  0.00000000000E+00 0.  1.
         14    1    3    3    0    0 -0.55035875939E+02 -0.57089787971E+02  0.59755171336E+01  0.79522942199E+02  0.00000000000E+00 0. -1.
          3    1    1    2  501    0  0.48600964527E+02  0.68839767719E+02 -0.40239973900E+03  0.41112834653E+03  0.00000000000E+00 0. -1.
<mgrwt>
<rscale>  1 0.11657990E+03</rscale>
<asrwt>0</asrwt>
<pdfrwt beam="1">  1       21 0.74499478E-01 0.11657990E+03</pdfrwt>
<pdfrwt beam="2">  1        4 0.74177986E-02 0.11657990E+03</pdfrwt>
<totfact> 0.82660469E+03</totfact>
</mgrwt>
</event>
<event>
 6    2  0.9453093E+000  0.8705332E+02  0.7546771E-02  0.1310149E+00
         21   -1    0    0  501  502  0.00000000000E+00  0.00000000000E+00  0.15326729780E+02  0.15326729780E+02  0.00000000000E+00 0. -1.
          2   -1    0    0  502    0 -0.00000000000E+00 -0.00000000000E+00 -0.65830530717E+03  0.65830530717E+03  0.00000000000E+00 0. -1.
         24    2    1    2    0    0  0.21764046836E+02  0.27225633238E+02 -0.63069627047E+03  0.63667579386E+03  0.79770746946E+02 0.  0.
        -11    1    3    3    0    0 -0.21312924806E+01 -0.11612929474E+02 -0.14078089891E+02  0.18373762641E+02  0.00000000000E+00 0.  1.
         12    1    3    3    0    0  0.23895339316E+02  0.38838562712E+02 -0.61661818057E+03  0.61830203122E+03  0.00000000000E+00 0. -1.
          1    1    1    2  501    0 -0.21764046836E+02 -0.27225633238E+02 -0.12282306924E+02  0.36956243089E+02  0.00000000000E+00 0. -1.
<mgrwt>
<rscale>  1 0.87053322E+02</rscale>
<asrwt>0</asrwt>
<pdfrwt beam="1">  1       21 0.23579584E-02 0.87053322E+02</pdfrwt>
<pdfrwt beam="2">  1        2 0.10127774E+00 0.87053322E+02</pdfrwt>
<totfact> 0.51062107E+05</totfact>
</mgrwt>
</event>
<event>
 6    2  0.9453093E+000  0.8378738E+02  0.7546771E-02  0.1318634E+00
         21   -1    0    0  501  502  0.00000000000E+00  0.00000000000E+00  0.22235857299E+02  0.22235857299E+02  0.00000000000E+00 0.  1.
          2   -1    0    0  502    0 -0.00000000000E+00 -0.00000000000E+00 -0.25660119268E+03  0.25660119268E+03  0.00000000000E+00 0. -1.
         24    2    1    2    0    0  0.24513497569E+02 -0.29714325147E+02 -0.67532657943E+02  0.10761498673E+03  0.74407478105E+02 0.  0.
        -11    1    3    3    0    0  0.36195658096E+02 -0.27521381775E+01 -0.26596554889E+01  0.36397440801E+02  0.00000000000E+00 0.  1.
         12    1    3    3    0    0 -0.11682160526E+02 -0.26962186970E+02 -0.64873002454E+02  0.71217545929E+02  0.00000000000E+00 0. -1.
          1    1    1    2  501    0 -0.24513497569E+02  0.29714325147E+02 -0.16683267744E+03  0.17122206325E+03  0.00000000000E+00 0. -1.
<mgrwt>
<rscale>  1 0.83787383E+02</rscale>
<asrwt>0</asrwt>
<pdfrwt beam="1">  1       21 0.34209012E-02 0.83787383E+02</pdfrwt>
<pdfrwt beam="2">  1        2 0.39477106E-01 0.83787383E+02</pdfrwt>
<totfact> 0.76107132E+05</totfact>
</mgrwt>
</event>
<event>
 6    2  0.9453093E+000  0.8415725E+02  0.7546771E-02  0.1317651E+00
         -1   -1    0    0    0  501 -0.00000000000E+00  0.00000000000E+00  0.65712541026E+02  0.65712541026E+02  0.00000000000E+00 0.  1.
         21   -1    0    0  501  502  0.00000000000E+00 -0.00000000000E+00 -0.65584478013E+02  0.65584478013E+02  0.00000000000E+00 0. -1.
         24    2    1    2    0    0 -0.25444613283E+02  0.81789679631E+01  0.31701654044E+02  0.89930178301E+02  0.79800490212E+02 0.  0.
        -13    1    3    3    0    0  0.13186024364E+02  0.31484605479E+02  0.28902718566E+02  0.44727159101E+02  0.00000000000E+00 0.  1.
         14    1    3    3    0    0 -0.38630637646E+02 -0.23305637516E+02  0.27989354775E+01  0.45203019200E+02  0.00000000000E+00 0. -1.
         -2    1    1    2    0  502  0.25444613283E+02 -0.81789679631E+01 -0.31573591031E+02  0.41366840738E+02  0.00000000000E+00 0.  1.
<mgrwt>
<rscale>  1 0.84157246E+02</rscale>
<asrwt>0</asrwt>
<pdfrwt beam="1">  1       21 0.10089920E-01 0.84157246E+02</pdfrwt>
<pdfrwt beam="2">  1       -1 0.10109622E-01 0.84157246E+02</pdfrwt>
<totfact> 0.39780769E+05</totfact>
</mgrwt>
</event>
<event>
 6    2  0.9453093E+000  0.8635602E+02  0.7546771E-02  0.1311924E+00
         21   -1    0    0  501  502  0.00000000000E+00  0.00000000000E+00  0.10199289380E+02  0.10199289380E+02  0.00000000000E+00 0. -1.
          2   -1    0    0  502    0 -0.00000000000E+00 -0.00000000000E+00 -0.34786561131E+03  0.34786561131E+03  0.00000000000E+00 0. -1.
         24    2    1    2    0    0  0.27398805114E+02 -0.15397798600E+02 -0.22199475632E+03  0.23819956870E+03  0.80433674352E+02 0.  0.
        -11    1    3    3    0    0 -0.28303749560E+02  0.23642436017E+00 -0.65560679663E+02  0.71409809225E+02  0.00000000000E+00 0.  1.
         12    1    3    3    0    0  0.55702554674E+02 -0.15634222960E+02 -0.15643407666E+03  0.16678975947E+03  0.00000000000E+00 0. -1.
          1    1    1    2  501    0 -0.27398805114E+02  0.15397798600E+02 -0.11567156561E+03  0.11986533200E+03  0.00000000000E+00 0. -1.
<mgrwt>
<rscale>  1 0.86356023E+02</rscale>
<asrwt>0</asrwt>
<pdfrwt beam="1">  1       21 0.15691213E-02 0.86356023E+02</pdfrwt>
<pdfrwt beam="2">  1        2 0.53517791E-01 0.86356023E+02</pdfrwt>
<totfact> 0.19448631E+06</totfact>
</mgrwt>
</event>
<event>
 6    2  0.9453093E+000  0.8574257E+02  0.7546771E-02  0.1313502E+00
         21   -1    0    0  501  502  0.00000000000E+00  0.00000000000E+00  0.24548651252E+02  0.24548651252E+02  0.00000000000E+00 0. -1.
          2   -1    0    0  502    0 -0.00000000000E+00 -0.00000000000E+00 -0.15904528164E+03  0.15904528164E+03  0.00000000000E+00 0. -1.
         24    2    1    2    0    0 -0.28188998242E+02  0.10918922333E+02 -0.12561107644E+03  0.15208527447E+03  0.80236810126E+02 0.  0.
        -13    1    3    3    0    0  0.19780793639E+02 -0.94707497723E+01 -0.78314970258E+01  0.23287491147E+02  0.00000000000E+00 0.  1.
         14    1    3    3    0    0 -0.47969791882E+02  0.20389672105E+02 -0.11777957941E+03  0.12879778332E+03  0.00000000000E+00 0. -1.
          1    1    1    2  501    0  0.28188998242E+02 -0.10918922333E+02 -0.88855539516E+01  0.31508658426E+02  0.00000000000E+00 0. -1.
<mgrwt>
<rscale>  1 0.85742569E+02</rscale>
<asrwt>0</asrwt>
<pdfrwt beam="1">  1       21 0.37767154E-02 0.85742569E+02</pdfrwt>
<pdfrwt beam="2">  1        2 0.24468506E-01 0.85742569E+02</pdfrwt>
<totfact> 0.10802394E+06</totfact>
</mgrwt>
</event>
<event>
 6    2  0.9453093E+000  0.1191569E+03  0.7546771E-02  0.1244494E+00
         -1   -1    0    0    0  501 -0.00000000000E+00  0.00000000000E+00  0.16956959496E+03  0.16956959496E+03  0.00000000000E+00 0.  1.
         21   -1    0    0  501  502  0.00000000000E+00 -0.00000000000E+00 -0.72491687805E+02  0.72491687805E+02  0.00000000000E+00 0. -1.
         24    2    1    2    0    0 -0.86960414997E+02 -0.97166245500E+01  0.11570478745E+02  0.11971731323E+03  0.80881595798E+02 0.  0.
        -13    1    3    3    0    0 -0.10552668637E+02 -0.33978122348E+02  0.16868482646E+02  0.39375338988E+02  0.00000000000E+00 0.  1.
         14    1    3    3    0    0 -0.76407746361E+02  0.24261497798E+02 -0.52980039008E+01  0.80341974239E+02  0.00000000000E+00 0. -1.
         -2    1    1    2    0  502  0.86960414997E+02  0.97166245500E+01  0.85507428411E+02  0.12234396954E+03  0.00000000000E+00 0.  1.
<mgrwt>
<rscale>  1 0.11915687E+03</rscale>
<asrwt>0</asrwt>
<pdfrwt beam="1">  1       21 0.11152567E-01 0.11915687E+03</pdfrwt>
<pdfrwt beam="2">  1       -1 0.26087630E-01 0.11915687E+03</pdfrwt>
<totfact> 0.77562433E+04</totfact>
</mgrwt>
</event>
<event>
 6    2  0.9453093E+000  0.8548214E+02  0.7546771E-02  0.1314176E+00
         21   -1    0    0  501  502  0.00000000000E+00  0.00000000000E+00  0.26310796954E+02  0.26310796954E+02  0.00000000000E+00 0.  1.
         -1   -1    0    0    0  501 -0.00000000000E+00 -0.00000000000E+00 -0.23041810857E+03  0.23041810857E+03  0.00000000000E+00 0.  1.
         24    2    1    2    0    0 -0.18810868620E+02  0.13607665439E+02 -0.21478794079E+03  0.23117321778E+03  0.82268947786E+02 0.  0.
        -11    1    3    3    0    0 -0.49472527768E+02  0.20179219222E+02 -0.14910331943E+03  0.15838728407E+03  0.00000000000E+00 0.  1.
         12    1    3    3    0    0  0.30661659148E+02 -0.65715537825E+01 -0.65684621365E+02  0.72785933701E+02  0.00000000000E+00 0. -1.
         -2    1    1    2    0  502  0.18810868620E+02 -0.13607665439E+02  0.10680629173E+02  0.25555687752E+02  0.00000000000E+00 0.  1.
<mgrwt>
<rscale>  1 0.85482145E+02</rscale>
<asrwt>0</asrwt>
<pdfrwt beam="1">  1       21 0.40478151E-02 0.85482145E+02</pdfrwt>
<pdfrwt beam="2">  1       -1 0.35448939E-01 0.85482145E+02</pdfrwt>
<totfact> 0.25385865E+05</totfact>
</mgrwt>
</event>
<event>
 6    2  0.9453093E+000  0.8410612E+02  0.7546771E-02  0.1317787E+00
         21   -1    0    0  501  502  0.00000000000E+00  0.00000000000E+00  0.22165149274E+02  0.22165149274E+02  0.00000000000E+00 0.  1.
         -1   -1    0    0    0  501 -0.00000000000E+00 -0.00000000000E+00 -0.22837916232E+03  0.22837916232E+03  0.00000000000E+00 0.  1.
         24    2    1    2    0    0  0.17774641732E+02  0.14525417149E+02 -0.21095659143E+03  0.22710465114E+03  0.80912999392E+02 0.  0.
        -13    1    3    3    0    0  0.22855045011E+02  0.45611356697E+02 -0.15087347782E+03  0.15926567506E+03  0.00000000000E+00 0.  1.
         14    1    3    3    0    0 -0.50804032791E+01 -0.31085939548E+02 -0.60083113614E+02  0.67838976087E+02  0.00000000000E+00 0. -1.
         -2    1    1    2    0  502 -0.17774641732E+02 -0.14525417149E+02  0.47425783892E+01  0.23439660446E+02  0.00000000000E+00 0.  1.
<mgrwt>
<rscale>  1 0.84106118E+02</rscale>
<asrwt>0</asrwt>
<pdfrwt beam="1">  1       21 0.34100233E-02 0.84106118E+02</pdfrwt>
<pdfrwt beam="2">  1       -1 0.35135252E-01 0.84106118E+02</pdfrwt>
<totfact> 0.34075306E+05</totfact>
</mgrwt>
</event>
<event>
 6    2  0.9453093E+000  0.8194459E+02  0.7546771E-02  0.1323622E+00
          4   -1    0    0  502    0 -0.00000000000E+00  0.00000000000E+00  0.24129766583E+02  0.24129766583E+02  0.00000000000E+00 0. -1.
         21   -1    0    0  501  502  0.00000000000E+00 -0.00000000000E+00 -0.14203964072E+03  0.14203964072E+03  0.00000000000E+00 0.  1.
         24    2    1    2    0    0 -0.22405804912E+02 -0.86008071548E+01 -0.54614409604E+02  0.98476646924E+02  0.78351274881E+02 0.  0.
        -13    1    3    3    0    0 -0.12676180626E+00 -0.26617505215E+02 -0.63190928801E+02  0.68568222488E+02  0.00000000000E+00 0.  1.
         14    1    3    3    0    0 -0.22279043106E+02  0.18016698060E+02  0.85765191967E+01  0.29908424436E+02  0.00000000000E+00 0. -1.
          3    1    1    2  501    0  0.22405804912E+02  0.86008071548E+01 -0.63295464534E+02  0.67692760381E+02  0.00000000000E+00 0. -1.
<mgrwt>
<rscale>  1 0.81944593E+02</rscale>
<asrwt>0</asrwt>
<pdfrwt beam="1">  1       21 0.21852252E-01 0.81944593E+02</pdfrwt>
<pdfrwt beam="2">  1        4 0.37122719E-02 0.81944593E+02</pdfrwt>
<totfact> 0.27709148E+05</totfact>
</mgrwt>
</event>
<event>
 6    2  0.9453093E+000  0.9214685E+02  0.7546771E-02  0.1297735E+00
         -1   -1    0    0    0  501 -0.00000000000E+00  0.00000000000E+00  0.33412952605E+02  0.33412952605E+02  0.00000000000E+00 0.  1.
         21   -1    0    0  501  502  0.00000000000E+00 -0.00000000000E+00 -0.13409374509E+03  0.13409374509E+03  0.00000000000E+00 0.  1.
         24    2    1    2    0    0  0.22354873321E+02  0.62957649629E+01 -0.36254768135E+02  0.99022468625E+02  0.89172103611E+02 0.  0.
        -11    1    3    3    0    0  0.31682425844E+02  0.19151516143E+02  0.18942279597E+02  0.41585654188E+02  0.00000000000E+00 0.  1.
         12    1    3    3    0    0 -0.93275525229E+01 -0.12855751180E+02 -0.55197047731E+02  0.57436814437E+02  0.00000000000E+00 0. -1.
         -2    1    1    2    0  502 -0.22354873321E+02 -0.62957649629E+01 -0.64426024348E+02  0.68484229067E+02  0.00000000000E+00 0.  1.
<mgrwt>
<rscale>  1 0.92146845E+02</rscale>
<asrwt>0</asrwt>
<pdfrwt beam="1">  1       21 0.20629806E-01 0.92146845E+02</pdfrwt>
<pdfrwt beam="2">  1       -1 0.51404544E-02 0.92146845E+02</pdfrwt>
<totfact> 0.30677074E+05</totfact>
</mgrwt>
</event>
<event>
 6    2  0.9453093E+000  0.9586283E+02  0.7546771E-02  0.1289245E+00
         21   -1    0    0  501  502  0.00000000000E+00  0.00000000000E+00  0.30774809196E+02  0.30774809196E+02  0.00000000000E+00 0. -1.
          2   -1    0    0  502    0 -0.00000000000E+00 -0.00000000000E+00 -0.10111798566E+04  0.10111798566E+04  0.00000000000E+00 0. -1.
         24    2    1    2    0    0  0.20425758176E+02 -0.44733218802E+02 -0.98761188001E+03  0.99225344951E+03  0.82288577931E+02 0.  0.
        -11    1    3    3    0    0  0.70863547865E+01  0.15692966881E+02 -0.55970683950E+02  0.58559398012E+02  0.00000000000E+00 0.  1.
         12    1    3    3    0    0  0.13339403389E+02 -0.60426185683E+02 -0.93164119606E+03  0.93369405149E+03  0.00000000000E+00 0. -1.
          1    1    1    2  501    0 -0.20425758176E+02  0.44733218802E+02  0.72068326327E+01  0.49701216263E+02  0.00000000000E+00 0. -1.
<mgrwt>
<rscale>  1 0.95862832E+02</rscale>
<asrwt>0</asrwt>
<pdfrwt beam="1">  1       21 0.47345854E-02 0.95862832E+02</pdfrwt>
<pdfrwt beam="2">  1        2 0.15556615E+00 0.95862832E+02</pdfrwt>
<totfact> 0.96492295E+04</totfact>
</mgrwt>
</event>
<event>
 6    2  0.9453093E+000  0.8885850E+02  0.7546771E-02  0.1305640E+00
         -3   -1    0    0    0  501 -0.00000000000E+00  0.00000000000E+00  0.43994357714E+02  0.43994357714E+02  0.00000000000E+00 0.  1.
         21   -1    0    0  501  502  0.00000000000E+00 -0.00000000000E+00 -0.15210639566E+03  0.15210639566E+03  0.00000000000E+00 0. -1.
         24    2    1    2    0    0  0.18499205600E+02 -0.32508837295E+02 -0.12636600252E+03  0.15448041781E+03  0.80602653694E+02 0.  0.
        -13    1    3    3    0    0 -0.17468972880E+02 -0.29114898639E+02 -0.14490856017E+02  0.36916490141E+02  0.00000000000E+00 0.  1.
         14    1    3    3    0    0  0.35968178480E+02 -0.33939386563E+01 -0.11187514650E+03  0.11756392767E+03  0.00000000000E+00 0. -1.
         -4    1    1    2    0  502 -0.18499205600E+02  0.32508837295E+02  0.18253964575E+02  0.41620335568E+02  0.00000000000E+00 0.  1.
<mgrwt>
<rscale>  1 0.88858499E+02</rscale>
<asrwt>0</asrwt>
<pdfrwt beam="1">  1       21 0.23400984E-01 0.88858499E+02</pdfrwt>
<pdfrwt beam="2">  1       -3 0.67683627E-02 0.88858499E+02</pdfrwt>
<totfact> 0.10879572E+05</totfact>
</mgrwt>
</event>
<event>
 6    2  0.9453093E+000  0.8449980E+02  0.7546771E-02  0.1316746E+00
         21   -1    0    0  501  502  0.00000000000E+00  0.00000000000E+00  0.31825863228E+02  0.31825863228E+02  0.00000000000E+00 0.  1.
          2   -1    0    0  502    0 -0.00000000000E+00 -0.00000000000E+00 -0.11337496508E+03  0.11337496508E+03  0.00000000000E+00 0. -1.
         24    2    1    2    0    0 -0.11052375015E+01 -0.22988958481E+02 -0.87279978499E+02  0.12148255035E+03  0.81304991425E+02 0.  0.
        -13    1    3    3    0    0  0.35269686228E+00 -0.22477799819E+00  0.15852261921E+02  0.15857778162E+02  0.00000000000E+00 0.  1.
         14    1    3    3    0    0 -0.14579343637E+01 -0.22764180482E+02 -0.10313224042E+03  0.10562477219E+03  0.00000000000E+00 0. -1.
          1    1    1    2  501    0  0.11052375015E+01  0.22988958481E+02  0.57308766511E+01  0.23718277955E+02  0.00000000000E+00 0. -1.
<mgrwt>
<rscale>  1 0.84499795E+02</rscale>
<asrwt>0</asrwt>
<pdfrwt beam="1">  1       21 0.48962868E-02 0.84499795E+02</pdfrwt>
<pdfrwt beam="2">  1        2 0.17442302E-01 0.84499795E+02</pdfrwt>
<totfact> 0.10234338E+06</totfact>
</mgrwt>
</event>
<event>
 6    2  0.9453093E+000  0.8863313E+02  0.7546771E-02  0.1306196E+00
         21   -1    0    0  501  502  0.00000000000E+00  0.00000000000E+00  0.43904854188E+03  0.43904854188E+03  0.00000000000E+00 0. -1.
         -3   -1    0    0    0  501 -0.00000000000E+00 -0.00000000000E+00 -0.94458035148E+01  0.94458035148E+01  0.00000000000E+00 0.  1.
         24    2    1    2    0    0  0.79797978758E+01 -0.35244919223E+02  0.35041902736E+03  0.36145446032E+03  0.80931765361E+02 0.  0.
        -11    1    3    3    0    0 -0.12431698623E+02  0.19008762026E+02  0.43120916940E+02  0.48736984336E+02  0.00000000000E+00 0.  1.
         12    1    3    3    0    0  0.20411496499E+02 -0.54253681249E+02  0.30729811042E+03  0.31271747599E+03  0.00000000000E+00 0. -1.
         -4    1    1    2    0  502 -0.79797978758E+01  0.35244919223E+02  0.79183711003E+02  0.87039885072E+02  0.00000000000E+00 0.  1.
<mgrwt>
<rscale>  1 0.88633132E+02</rscale>
<asrwt>0</asrwt>
<pdfrwt beam="1">  1       21 0.67545914E-01 0.88633132E+02</pdfrwt>
<pdfrwt beam="2">  1       -3 0.14532009E-02 0.88633132E+02</pdfrwt>
<totfact> 0.14120272E+05</totfact>
</mgrwt>
</event>
<event>
 6    2  0.9453093E+000  0.1023438E+03  0.7546771E-02  0.1275443E+00
         -1   -1    0    0    0  501 -0.00000000000E+00  0.00000000000E+00  0.10090397623E+03  0.10090397623E+03  0.00000000000E+00 0.  1.
         21   -1    0    0  501  502  0.00000000000E+00 -0.00000000000E+00 -0.71567668850E+02  0.71567668850E+02  0.00000000000E+00 0. -1.
         24    2    1    2    0    0 -0.56073649381E+02 -0.27497704979E+02  0.38508242620E+02  0.10934873062E+03  0.81079480792E+02 0.  0.
        -11    1    3    3    0    0 -0.55038259569E+02  0.41567568362E+01  0.51146087707E+02  0.75248992894E+02  0.00000000000E+00 0.  1.
         12    1    3    3    0    0 -0.10353898124E+01 -0.31654461815E+02 -0.12637845087E+02  0.34099737731E+02  0.00000000000E+00 0. -1.
         -2    1    1    2    0  502  0.56073649381E+02  0.27497704979E+02 -0.91719352355E+01  0.63122914461E+02  0.00000000000E+00 0.  1.
<mgrwt>
<rscale>  1 0.10234383E+03</rscale>
<asrwt>0</asrwt>
<pdfrwt beam="1">  1       21 0.11010411E-01 0.10234383E+03</pdfrwt>
<pdfrwt beam="2">  1       -1 0.15523689E-01 0.10234383E+03</pdfrwt>
<totfact> 0.18027632E+05</totfact>
</mgrwt>
</event>
<event>
 6    2  0.9453093E+000  0.1524088E+03  0.7546771E-02  0.1197544E+00
          2   -1    0    0  502    0 -0.00000000000E+00  0.00000000000E+00  0.14102307755E+04  0.14102307755E+04  0.00000000000E+00 0. -1.
         21   -1    0    0  501  502  0.00000000000E+00 -0.00000000000E+00 -0.15713974636E+02  0.15713974636E+02  0.00000000000E+00 0. -1.
         24    2    1    2    0    0  0.12903952418E+03 -0.11125174595E+02  0.51952584340E+03  0.54141993762E+03  0.80333545809E+02 0.  0.
        -11    1    3    3    0    0  0.93637431135E+02  0.18588302833E+02  0.43219461645E+03  0.44261233602E+03  0.00000000000E+00 0.  1.
         12    1    3    3    0    0  0.35402093049E+02 -0.29713477428E+02  0.87331226956E+02  0.98807601604E+02  0.00000000000E+00 0. -1.
          1    1    1    2  501    0 -0.12903952418E+03  0.11125174595E+02  0.87499095749E+03  0.88452481254E+03  0.00000000000E+00 0. -1.
<mgrwt>
<rscale>  1 0.15240882E+03</rscale>
<asrwt>0</asrwt>
<pdfrwt beam="1">  1       21 0.24175357E-02 0.15240882E+03</pdfrwt>
<pdfrwt beam="2">  1        2 0.21695848E+00 0.15240882E+03</pdfrwt>
<totfact> 0.17682613E+05</totfact>
</mgrwt>
</event>
<event>
 6    2  0.9453093E+000  0.1006371E+03  0.7546771E-02  0.1278962E+00
         21   -1    0    0  501  502  0.00000000000E+00  0.00000000000E+00  0.33603118412E+01  0.33603118412E+01  0.00000000000E+00 0.  1.
          2   -1    0    0  502    0 -0.00000000000E+00 -0.00000000000E+00 -0.19005394562E+04  0.19005394562E+04  0.00000000000E+00 0. -1.
         24    2    1    2    0    0 -0.57715773621E+02  0.90668668376E+01 -0.12878924561E+04  0.12918184115E+04  0.81942120302E+02 0.  0.
        -13    1    3    3    0    0 -0.48385744456E+02 -0.52770277332E+01 -0.31180890758E+03  0.31558488895E+03  0.00000000000E+00 0.  1.
         14    1    3    3    0    0 -0.93300291648E+01  0.14343894571E+02 -0.97608354856E+03  0.97623352254E+03  0.00000000000E+00 0. -1.
          1    1    1    2  501    0  0.57715773621E+02 -0.90668668376E+01 -0.60928668826E+03  0.61208135660E+03  0.00000000000E+00 0. -1.
<mgrwt>
<rscale>  1 0.10063712E+03</rscale>
<asrwt>0</asrwt>
<pdfrwt beam="1">  1       21 0.51697197E-03 0.10063712E+03</pdfrwt>
<pdfrwt beam="2">  1        2 0.29239017E+00 0.10063712E+03</pdfrwt>
<totfact> 0.11222647E+06</totfact>
</mgrwt>
</event>
<event>
 6    2  0.9453093E+000  0.7858754E+02  0.7546771E-02  0.1333108E+00
         21   -1    0    0  501  502  0.00000000000E+00  0.00000000000E+00  0.61039053169E+01  0.61039053169E+01  0.00000000000E+00 0.  1.
          2   -1    0    0  502    0 -0.00000000000E+00 -0.00000000000E+00 -0.61401202881E+03  0.61401202881E+03  0.00000000000E+00 0. -1.
         24    2    1    2    0    0  0.38516171273E+01  0.33690258149E+02 -0.51980977312E+03  0.52571684627E+03  0.70895231002E+02 0.  0.
        -13    1    3    3    0    0 -0.15166498190E+02 -0.69213304868E+01 -0.34262295702E+02  0.38102918390E+02  0.00000000000E+00 0.  1.
         14    1    3    3    0    0  0.19018115317E+02  0.40611588636E+02 -0.48554747741E+03  0.48761392788E+03  0.00000000000E+00 0. -1.
          1    1    1    2  501    0 -0.38516171273E+01 -0.33690258149E+02 -0.88098350375E+02  0.94399087853E+02  0.00000000000E+00 0. -1.
<mgrwt>
<rscale>  1 0.78587545E+02</rscale>
<asrwt>0</asrwt>
<pdfrwt beam="1">  1       21 0.93906279E-03 0.78587545E+02</pdfrwt>
<pdfrwt beam="2">  1        2 0.94463345E-01 0.78587545E+02</pdfrwt>
<totfact> 0.23433405E+06</totfact>
</mgrwt>
</event>
<event>
 6    2  0.9453093E+000  0.8429598E+02  0.7546771E-02  0.1317284E+00
         -3   -1    0    0    0  501 -0.00000000000E+00  0.00000000000E+00  0.25326510509E+03  0.25326510509E+03  0.00000000000E+00 0.  1.
         21   -1    0    0  501  502  0.00000000000E+00 -0.00000000000E+00 -0.18329861501E+02  0.18329861501E+02  0.00000000000E+00 0.  1.
         24    2    1    2    0    0 -0.10317489945E+02 -0.21673208677E+02  0.23268786008E+03  0.24748626887E+03  0.80806153709E+02 0.  0.
        -11    1    3    3    0    0  0.23084149647E+02 -0.95124856136E+01  0.19132780764E+03  0.19294998140E+03  0.00000000000E+00 0.  1.
         12    1    3    3    0    0 -0.33401639592E+02 -0.12160723064E+02  0.41360052447E+02  0.54536287472E+02  0.00000000000E+00 0. -1.
         -4    1    1    2    0  502  0.10317489945E+02  0.21673208677E+02  0.22473835071E+01  0.24108697720E+02  0.00000000000E+00 0.  1.
<mgrwt>
<rscale>  1 0.84295985E+02</rscale>
<asrwt>0</asrwt>
<pdfrwt beam="1">  1       21 0.28199789E-02 0.84295985E+02</pdfrwt>
<pdfrwt beam="2">  1       -3 0.38963860E-01 0.84295985E+02</pdfrwt>
<totfact> 0.20197691E+05</totfact>
</mgrwt>
</event>
<event>
 6    2  0.9453093E+000  0.6830056E+02  0.7546771E-02  0.1365969E+00
         21   -1    0    0  501  502  0.00000000000E+00  0.00000000000E+00  0.19373019522E+02  0.19373019522E+02  0.00000000000E+00 0.  1.
          2   -1    0    0  502    0 -0.00000000000E+00 -0.00000000000E+00 -0.13036053795E+03  0.13036053795E+03  0.00000000000E+00 0. -1.
         24    2    1    2    0    0  0.25293782052E+02  0.54389275249E+00 -0.10225810404E+03  0.12297026348E+03  0.63442057254E+02 0.  0.
        -11    1    3    3    0    0  0.18030204022E+02  0.30336214275E+02 -0.38533674846E+02  0.52251490416E+02  0.00000000000E+00 0.  1.
         12    1    3    3    0    0  0.72635780308E+01 -0.29792321522E+02 -0.63724429193E+02  0.70718773063E+02  0.00000000000E+00 0. -1.
          1    1    1    2  501    0 -0.25293782052E+02 -0.54389275249E+00 -0.87294143902E+01  0.26763293994E+02  0.00000000000E+00 0. -1.
<mgrwt>
<rscale>  1 0.68300555E+02</rscale>
<asrwt>0</asrwt>
<pdfrwt beam="1">  1       21 0.29804646E-02 0.68300555E+02</pdfrwt>
<pdfrwt beam="2">  1        2 0.20055467E-01 0.68300555E+02</pdfrwt>
<totfact> 0.19186838E+06</totfact>
</mgrwt>
</event>
<event>
 6    2  0.9453093E+000  0.8800783E+02  0.7546771E-02  0.1307749E+00
         21   -1    0    0  501  502  0.00000000000E+00  0.00000000000E+00  0.80320439215E+03  0.80320439215E+03  0.00000000000E+00 0.  1.
         -3   -1    0    0    0  501 -0.00000000000E+00 -0.00000000000E+00 -0.70677489920E+01  0.70677489920E+01  0.00000000000E+00 0.  1.
         24    2    1    2    0    0  0.36478128896E+02  0.77562853633E+01  0.29754283849E+03  0.31028554542E+03  0.79715526144E+02 0.  0.
        -11    1    3    3    0    0  0.57568635379E+02 -0.12115243974E+02  0.20897365987E+03  0.21709656246E+03  0.00000000000E+00 0.  1.
         12    1    3    3    0    0 -0.21090506483E+02  0.19871529337E+02  0.88569178628E+02  0.93188982958E+02  0.00000000000E+00 0. -1.
         -4    1    1    2    0  502 -0.36478128896E+02 -0.77562853633E+01  0.49859380467E+03  0.49998659572E+03  0.00000000000E+00 0.  1.
<mgrwt>
<rscale>  1 0.88007835E+02</rscale>
<asrwt>0</asrwt>
<pdfrwt beam="1">  1       21 0.12356983E+00 0.88007835E+02</pdfrwt>
<pdfrwt beam="2">  1       -3 0.10873466E-02 0.88007835E+02</pdfrwt>
<totfact> 0.55091696E+04</totfact>
</mgrwt>
</event>
<event>
 6    2  0.9453093E+000  0.8567004E+02  0.7546771E-02  0.1313690E+00
          2   -1    0    0  502    0 -0.00000000000E+00  0.00000000000E+00  0.12665487800E+04  0.12665487800E+04  0.00000000000E+00 0. -1.
         21   -1    0    0  501  502  0.00000000000E+00 -0.00000000000E+00 -0.26504267617E+01  0.26504267617E+01  0.00000000000E+00 0.  1.
         24    2    1    2    0    0 -0.17144621675E+02 -0.23163057258E+02  0.10236607810E+04  0.10272393828E+04  0.80677691095E+02 0.  0.
        -11    1    3    3    0    0 -0.29659759617E+02 -0.19713552185E+02  0.18056141196E+03  0.18404007436E+03  0.00000000000E+00 0.  1.
         12    1    3    3    0    0  0.12515137943E+02 -0.34495050730E+01  0.84309936899E+03  0.84319930844E+03  0.00000000000E+00 0. -1.
          1    1    1    2  501    0  0.17144621675E+02  0.23163057258E+02  0.24023757226E+03  0.24195982393E+03  0.00000000000E+00 0. -1.
<mgrwt>
<rscale>  1 0.85670036E+02</rscale>
<asrwt>0</asrwt>
<pdfrwt beam="1">  1       21 0.40775898E-03 0.85670036E+02</pdfrwt>
<pdfrwt beam="2">  1        2 0.19485317E+00 0.85670036E+02</pdfrwt>
<totfact> 0.33595153E+06</totfact>
</mgrwt>
</event>
<event>
 6    2  0.9453093E+000  0.8106600E+02  0.7546771E-02  0.1326053E+00
          4   -1    0    0  502    0 -0.00000000000E+00  0.00000000000E+00  0.14863509624E+02  0.14863509624E+02  0.00000000000E+00 0. -1.
         21   -1    0    0  501  502  0.00000000000E+00 -0.00000000000E+00 -0.20824450647E+03  0.20824450647E+03  0.00000000000E+00 0.  1.
         24    2    1    2    0    0  0.25891496942E+02  0.53130687645E+01 -0.16764851285E+03  0.18621954844E+03  0.76636140595E+02 0.  0.
        -13    1    3    3    0    0  0.15188437748E+02 -0.23708000110E+02 -0.14544106828E+03  0.14814135902E+03  0.00000000000E+00 0.  1.
         14    1    3    3    0    0  0.10703059194E+02  0.29021068875E+02 -0.22207444571E+02  0.38078189415E+02  0.00000000000E+00 0. -1.
          3    1    1    2  501    0 -0.25891496942E+02 -0.53130687645E+01 -0.25732484000E+02  0.36888467662E+02  0.00000000000E+00 0. -1.
<mgrwt>
<rscale>  1 0.81066000E+02</rscale>
<asrwt>0</asrwt>
<pdfrwt beam="1">  1       21 0.32037615E-01 0.81066000E+02</pdfrwt>
<pdfrwt beam="2">  1        4 0.22866939E-02 0.81066000E+02</pdfrwt>
<totfact> 0.28531081E+05</totfact>
</mgrwt>
</event>
<event>
 6    2  0.9453093E+000  0.8618654E+02  0.7546771E-02  0.1312358E+00
          2   -1    0    0  502    0 -0.00000000000E+00  0.00000000000E+00  0.17465261239E+03  0.17465261239E+03  0.00000000000E+00 0. -1.
         21   -1    0    0  501  502  0.00000000000E+00 -0.00000000000E+00 -0.19080502483E+02  0.19080502483E+02  0.00000000000E+00 0.  1.
         24    2    1    2    0    0 -0.54999583021E+01 -0.26923369523E+02  0.13135257565E+03  0.15710384778E+03  0.81688447724E+02 0.  0.
        -11    1    3    3    0    0 -0.30903694551E+02 -0.44465378161E+02  0.95567489495E+02  0.10984240183E+03  0.00000000000E+00 0.  1.
         12    1    3    3    0    0  0.25403736249E+02  0.17542008639E+02  0.35785086153E+02  0.47261445952E+02  0.00000000000E+00 0. -1.
          1    1    1    2  501    0  0.54999583021E+01  0.26923369523E+02  0.24219534259E+02  0.36629267089E+02  0.00000000000E+00 0. -1.
<mgrwt>
<rscale>  1 0.86186541E+02</rscale>
<asrwt>0</asrwt>
<pdfrwt beam="1">  1       21 0.29354620E-02 0.86186541E+02</pdfrwt>
<pdfrwt beam="2">  1        2 0.26869632E-01 0.86186541E+02</pdfrwt>
<totfact> 0.14728919E+06</totfact>
</mgrwt>
</event>
<event>
 6    2  0.1269835E+001  0.8662091E+02  0.7546771E-02  0.1311247E+00
         -1   -1    0    0    0  501 -0.00000000000E+00  0.00000000000E+00  0.15497332128E+04  0.15497332128E+04  0.00000000000E+00 0.  1.
         21   -1    0    0  501  502  0.00000000000E+00 -0.00000000000E+00 -0.21008521338E+01  0.21008521338E+01  0.00000000000E+00 0. -1.
         24    2    1    2    0    0 -0.22750928691E+02 -0.14364676031E+02  0.11094064671E+04  0.11127829490E+04  0.82336100882E+02 0.  0.
        -13    1    3    3    0    0 -0.71089515931E+01  0.23819298151E+02  0.82742753209E+03  0.82780083173E+03  0.00000000000E+00 0.  1.
         14    1    3    3    0    0 -0.15641977098E+02 -0.38183974182E+02  0.28197893504E+03  0.28498211722E+03  0.00000000000E+00 0. -1.
         -2    1    1    2    0  502  0.22750928691E+02  0.14364676031E+02  0.43822589356E+03  0.43905111600E+03  0.00000000000E+00 0.  1.
<mgrwt>
<rscale>  1 0.86620911E+02</rscale>
<asrwt>0</asrwt>
<pdfrwt beam="1">  1       21 0.32320926E-03 0.86620911E+02</pdfrwt>
<pdfrwt beam="2">  1       -1 0.23841958E+00 0.86620911E+02</pdfrwt>
<totfact> 0.18865576E+05</totfact>
</mgrwt>
</event>
<event>
 6    2  0.9453093E+000  0.8821640E+02  0.7546771E-02  0.1307229E+00
         21   -1    0    0  501  502  0.00000000000E+00  0.00000000000E+00  0.62134878058E+01  0.62134878058E+01  0.00000000000E+00 0.  1.
          2   -1    0    0  502    0 -0.00000000000E+00 -0.00000000000E+00 -0.62262537250E+03  0.62262537250E+03  0.00000000000E+00 0. -1.
         24    2    1    2    0    0  0.43907564481E+01 -0.33495953820E+02 -0.38522147489E+03  0.39519326705E+03  0.81491569730E+02 0.  0.
        -11    1    3    3    0    0 -0.22123806959E+02 -0.51525165491E+02 -0.25301756070E+03  0.25915669302E+03  0.00000000000E+00 0.  1.
         12    1    3    3    0    0  0.26514563407E+02  0.18029211670E+02 -0.13220391419E+03  0.13603657403E+03  0.00000000000E+00 0. -1.
          1    1    1    2  501    0 -0.43907564481E+01  0.33495953820E+02 -0.23119040980E+03  0.23364559326E+03  0.00000000000E+00 0. -1.
<mgrwt>
<rscale>  1 0.88216402E+02</rscale>
<asrwt>0</asrwt>
<pdfrwt beam="1">  1       21 0.95592071E-03 0.88216402E+02</pdfrwt>
<pdfrwt beam="2">  1        2 0.95788568E-01 0.88216402E+02</pdfrwt>
<totfact> 0.22741479E+06</totfact>
</mgrwt>
</event>
<event>
 6    2  0.9453093E+000  0.8350431E+02  0.7546771E-02  0.1319391E+00
          2   -1    0    0  502    0 -0.00000000000E+00  0.00000000000E+00  0.40300388372E+03  0.40300388372E+03  0.00000000000E+00 0. -1.
         21   -1    0    0  501  502  0.00000000000E+00 -0.00000000000E+00 -0.99953019741E+01  0.99953019741E+01  0.00000000000E+00 0.  1.
         24    2    1    2    0    0 -0.24323391862E+02  0.31685827453E+01  0.37021163886E+03  0.37951235376E+03  0.79820434711E+02 0.  0.
        -13    1    3    3    0    0  0.88840873580E+01  0.31275030343E+02  0.85074817044E+02  0.91075677467E+02  0.00000000000E+00 0.  1.
         14    1    3    3    0    0 -0.33207479220E+02 -0.28106447597E+02  0.28513682182E+03  0.28843667629E+03  0.00000000000E+00 0. -1.
          1    1    1    2  501    0  0.24323391862E+02 -0.31685827453E+01  0.22796942884E+02  0.33486831936E+02  0.00000000000E+00 0. -1.
<mgrwt>
<rscale>  1 0.83504306E+02</rscale>
<asrwt>0</asrwt>
<pdfrwt beam="1">  1       21 0.15377391E-02 0.83504306E+02</pdfrwt>
<pdfrwt beam="2">  1        2 0.62000585E-01 0.83504306E+02</pdfrwt>
<totfact> 0.17145878E+06</totfact>
</mgrwt>
</event>
<event>
 6    2  0.9453093E+000  0.8521792E+02  0.7546771E-02  0.1314864E+00
         21   -1    0    0  501  502  0.00000000000E+00  0.00000000000E+00  0.80760149577E+01  0.80760149577E+01  0.00000000000E+00 0. -1.
          2   -1    0    0  502    0 -0.00000000000E+00 -0.00000000000E+00 -0.16471634171E+04  0.16471634171E+04  0.00000000000E+00 0. -1.
         24    2    1    2    0    0 -0.93145940405E+01 -0.25483862819E+02 -0.16195837073E+04  0.16218241206E+04  0.80783069356E+02 0.  0.
        -13    1    3    3    0    0  0.25912118334E+02  0.67551232054E+01 -0.25438701436E+03  0.25579253828E+03  0.00000000000E+00 0.  1.
         14    1    3    3    0    0 -0.35226712375E+02 -0.32238986025E+02 -0.13651966930E+04  0.13660315824E+04  0.00000000000E+00 0. -1.
          1    1    1    2  501    0  0.93145940405E+01  0.25483862819E+02 -0.19503694816E+02  0.33415311428E+02  0.00000000000E+00 0. -1.
<mgrwt>
<rscale>  1 0.85217916E+02</rscale>
<asrwt>0</asrwt>
<pdfrwt beam="1">  1       21 0.12424636E-02 0.85217916E+02</pdfrwt>
<pdfrwt beam="2">  1        2 0.25340980E+00 0.85217916E+02</pdfrwt>
<totfact> 0.38241809E+05</totfact>
</mgrwt>
</event>
<event>
 6    2  0.9453093E+000  0.8862776E+02  0.7546771E-02  0.1306209E+00
          2   -1    0    0  502    0 -0.00000000000E+00  0.00000000000E+00  0.14414568610E+04  0.14414568610E+04  0.00000000000E+00 0. -1.
         21   -1    0    0  501  502  0.00000000000E+00 -0.00000000000E+00 -0.35337757842E+01  0.35337757842E+01  0.00000000000E+00 0. -1.
         24    2    1    2    0    0 -0.30302374269E+02  0.31073755558E+02  0.11901007227E+04  0.11933962498E+04  0.77272678412E+02 0.  0.
        -13    1    3    3    0    0  0.15621826294E+02 -0.23274968564E+01  0.66054450997E+02  0.67916486915E+02  0.00000000000E+00 0.  1.
         14    1    3    3    0    0 -0.45924200564E+02  0.33401252414E+02  0.11240462717E+04  0.11254797629E+04  0.00000000000E+00 0. -1.
          1    1    1    2  501    0  0.30302374269E+02 -0.31073755558E+02  0.24782236253E+03  0.25159438694E+03  0.00000000000E+00 0. -1.
<mgrwt>
<rscale>  1 0.88627755E+02</rscale>
<asrwt>0</asrwt>
<pdfrwt beam="1">  1       21 0.54365896E-03 0.88627755E+02</pdfrwt>
<pdfrwt beam="2">  1        2 0.22176212E+00 0.88627755E+02</pdfrwt>
<totfact> 0.17591062E+06</totfact>
</mgrwt>
</event>
<event>
 6    2  0.9453093E+000  0.8648940E+02  0.7546771E-02  0.1311583E+00
         21   -1    0    0  501  502  0.00000000000E+00  0.00000000000E+00  0.59613886251E+03  0.59613886251E+03  0.00000000000E+00 0. -1.
         -1   -1    0    0    0  501 -0.00000000000E+00 -0.00000000000E+00 -0.58785914387E+01  0.58785914387E+01  0.00000000000E+00 0.  1.
         24    2    1    2    0    0 -0.28349237058E+02  0.14649812494E+00  0.37190213132E+03  0.38182667781E+03  0.81711173650E+02 0.  0.
        -11    1    3    3    0    0 -0.22600662117E+02 -0.30778881020E+02  0.84731327219E+02  0.92938298119E+02  0.00000000000E+00 0.  1.
         12    1    3    3    0    0 -0.57485749404E+01  0.30925379145E+02  0.28717080410E+03  0.28888837969E+03  0.00000000000E+00 0. -1.
         -2    1    1    2    0  502  0.28349237058E+02 -0.14649812494E+00  0.21835813975E+03  0.22019077615E+03  0.00000000000E+00 0.  1.
<mgrwt>
<rscale>  1 0.86489402E+02</rscale>
<asrwt>0</asrwt>
<pdfrwt beam="1">  1       21 0.91713623E-01 0.86489402E+02</pdfrwt>
<pdfrwt beam="2">  1       -1 0.90439916E-03 0.86489402E+02</pdfrwt>
<totfact> 0.18071195E+05</totfact>
</mgrwt>
</event>
<event>
 6    2  0.1216267E+001  0.8587828E+02  0.7546771E-02  0.1313152E+00
         21   -1    0    0  501  502  0.00000000000E+00  0.00000000000E+00  0.62162919991E+01  0.62162919991E+01  0.00000000000E+00 0.  1.
         -1   -1    0    0    0  501 -0.00000000000E+00 -0.00000000000E+00 -0.70035909154E+03  0.70035909154E+03  0.00000000000E+00 0.  1.
         24    2    1    2    0    0 -0.18540555121E+02  0.28475834340E+02 -0.60695004249E+03  0.61299545937E+03  0.78869853573E+02 0.  0.
        -11    1    3    3    0    0 -0.10397634456E+02  0.95001591618E+01 -0.57358307222E+03  0.57375596255E+03  0.00000000000E+00 0.  1.
         12    1    3    3    0    0 -0.81429206651E+01  0.18975675179E+02 -0.33366970269E+02  0.39239496816E+02  0.00000000000E+00 0. -1.
         -2    1    1    2    0  502  0.18540555121E+02 -0.28475834340E+02 -0.87192757052E+02  0.93579924172E+02  0.00000000000E+00 0.  1.
<mgrwt>
<rscale>  1 0.85878281E+02</rscale>
<asrwt>0</asrwt>
<pdfrwt beam="1">  1       21 0.95635248E-03 0.85878281E+02</pdfrwt>
<pdfrwt beam="2">  1       -1 0.10774757E+00 0.85878281E+02</pdfrwt>
<totfact> 0.30345322E+05</totfact>
</mgrwt>
</event>
<event>
 6    2  0.9453093E+000  0.8675476E+02  0.7546771E-02  0.1310906E+00
         21   -1    0    0  501  502  0.00000000000E+00  0.00000000000E+00  0.10694882075E+02  0.10694882075E+02  0.00000000000E+00 0. -1.
          2   -1    0    0  502    0 -0.00000000000E+00 -0.00000000000E+00 -0.37746288275E+03  0.37746288275E+03  0.00000000000E+00 0. -1.
         24    2    1    2    0    0  0.13784543200E+02  0.15330653977E+02 -0.35266505751E+03  0.36317906213E+03  0.84269483191E+02 0.  0.
        -13    1    3    3    0    0  0.45173455881E+02 -0.79283665880E+01 -0.15293380723E+03  0.15966292464E+03  0.00000000000E+00 0.  1.
         14    1    3    3    0    0 -0.31388912681E+02  0.23259020565E+02 -0.19973125028E+03  0.20351613748E+03  0.00000000000E+00 0. -1.
          1    1    1    2  501    0 -0.13784543200E+02 -0.15330653977E+02 -0.14102943169E+02  0.24978702701E+02  0.00000000000E+00 0. -1.
<mgrwt>
<rscale>  1 0.86754760E+02</rscale>
<asrwt>0</asrwt>
<pdfrwt beam="1">  1       21 0.16453666E-02 0.86754760E+02</pdfrwt>
<pdfrwt beam="2">  1        2 0.58071207E-01 0.86754760E+02</pdfrwt>
<totfact> 0.16570736E+06</totfact>
</mgrwt>
</event>
<event>
 6    2  0.9453093E+000  0.1144701E+03  0.7546771E-02  0.1252509E+00
         21   -1    0    0  501  502  0.00000000000E+00  0.00000000000E+00  0.22445971822E+04  0.22445971822E+04  0.00000000000E+00 0. -1.
          2   -1    0    0  502    0 -0.00000000000E+00 -0.00000000000E+00 -0.43292098699E+01  0.43292098699E+01  0.00000000000E+00 0. -1.
         24    2    1    2    0    0  0.36618807748E+02  0.73682839639E+02  0.12318052777E+04  0.12371126225E+04  0.79582036351E+02 0.  0.
        -13    1    3    3    0    0 -0.22756843368E+02  0.98049359902E+01  0.39458327856E+03  0.39536056254E+03  0.00000000000E+00 0.  1.
         14    1    3    3    0    0  0.59375651115E+02  0.63877903649E+02  0.83722199918E+03  0.84175205995E+03  0.00000000000E+00 0. -1.
          1    1    1    2  501    0 -0.36618807748E+02 -0.73682839639E+02  0.10084626946E+04  0.10118137695E+04  0.00000000000E+00 0. -1.
<mgrwt>
<rscale>  1 0.11447008E+03</rscale>
<asrwt>0</asrwt>
<pdfrwt beam="1">  1       21 0.34532171E+00 0.11447008E+03</pdfrwt>
<pdfrwt beam="2">  1        2 0.66603408E-03 0.11447008E+03</pdfrwt>
<totfact> 0.60049900E+03</totfact>
</mgrwt>
</event>
<event>
 6    2  0.9453093E+000  0.8970159E+02  0.7546771E-02  0.1303576E+00
         21   -1    0    0  501  502  0.00000000000E+00  0.00000000000E+00  0.25549955274E+03  0.25549955274E+03  0.00000000000E+00 0.  1.
         -1   -1    0    0    0  501 -0.00000000000E+00 -0.00000000000E+00 -0.74046404549E+02  0.74046404549E+02  0.00000000000E+00 0.  1.
         24    2    1    2    0    0  0.35380501790E+02  0.79576189524E+01 -0.44896369824E+02  0.10030981722E+03  0.82044328273E+02 0.  0.
        -11    1    3    3    0    0  0.57995235248E+02  0.15358657442E+02 -0.47294333880E+02  0.76394304022E+02  0.00000000000E+00 0.  1.
         12    1    3    3    0    0 -0.22614733458E+02 -0.74010384891E+01  0.23979640555E+01  0.23915513202E+02  0.00000000000E+00 0. -1.
         -2    1    1    2    0  502 -0.35380501790E+02 -0.79576189524E+01  0.22634951802E+03  0.22923614007E+03  0.00000000000E+00 0.  1.
<mgrwt>
<rscale>  1 0.89701591E+02</rscale>
<asrwt>0</asrwt>
<pdfrwt beam="1">  1       21 0.39307623E-01 0.89701591E+02</pdfrwt>
<pdfrwt beam="2">  1       -1 0.11391755E-01 0.89701591E+02</pdfrwt>
<totfact> 0.27470391E+04</totfact>
</mgrwt>
</event>
<event>
 6    2  0.9453093E+000  0.8392593E+02  0.7546771E-02  0.1318265E+00
         21   -1    0    0  501  502  0.00000000000E+00  0.00000000000E+00  0.11183548363E+03  0.11183548363E+03  0.00000000000E+00 0. -1.
          2   -1    0    0  502    0 -0.00000000000E+00 -0.00000000000E+00 -0.32046077088E+02  0.32046077088E+02  0.00000000000E+00 0. -1.
         24    2    1    2    0    0 -0.19524477925E+02 -0.95804583530E+01  0.29276556636E+02  0.88885757004E+02  0.81059056306E+02 0.  0.
        -11    1    3    3    0    0 -0.12349276122E+01  0.12777881158E+02  0.51096688608E+02  0.52684636088E+02  0.00000000000E+00 0.  1.
         12    1    3    3    0    0 -0.18289550313E+02 -0.22358339511E+02 -0.21820131972E+02  0.36201120916E+02  0.00000000000E+00 0. -1.
          1    1    1    2  501    0  0.19524477925E+02  0.95804583530E+01  0.50512849909E+02  0.54995803716E+02  0.00000000000E+00 0. -1.
<mgrwt>
<rscale>  1 0.83925926E+02</rscale>
<asrwt>0</asrwt>
<pdfrwt beam="1">  1       21 0.17205459E-01 0.83925926E+02</pdfrwt>
<pdfrwt beam="2">  1        2 0.49301658E-02 0.83925926E+02</pdfrwt>
<totfact> 0.54486724E+05</totfact>
</mgrwt>
</event>
<event>
 6    2  0.9453093E+000  0.8499578E+02  0.7546771E-02  0.1315444E+00
         -1   -1    0    0    0  501 -0.00000000000E+00  0.00000000000E+00  0.24450479025E+03  0.24450479025E+03  0.00000000000E+00 0.  1.
         21   -1    0    0  501  502  0.00000000000E+00 -0.00000000000E+00 -0.33599215883E+02  0.33599215883E+02  0.00000000000E+00 0.  1.
         24    2    1    2    0    0  0.82485641673E+01 -0.28841600325E+02  0.22817414869E+03  0.24349070842E+03  0.79526135557E+02 0.  0.
        -11    1    3    3    0    0 -0.25500562598E+02 -0.45166133273E+01  0.17006061944E+03  0.17202119862E+03  0.00000000000E+00 0.  1.
         12    1    3    3    0    0  0.33749126765E+02 -0.24324986998E+02  0.58113529247E+02  0.71469509803E+02  0.00000000000E+00 0. -1.
         -2    1    1    2    0  502 -0.82485641673E+01  0.28841600325E+02 -0.17268574315E+02  0.34613297719E+02  0.00000000000E+00 0.  1.
<mgrwt>
<rscale>  1 0.84995782E+02</rscale>
<asrwt>0</asrwt>
<pdfrwt beam="1">  1       21 0.51691103E-02 0.84995782E+02</pdfrwt>
<pdfrwt beam="2">  1       -1 0.37616120E-01 0.84995782E+02</pdfrwt>
<totfact> 0.15301138E+05</totfact>
</mgrwt>
</event>
<event>
 6    2  0.9453093E+000  0.8355713E+02  0.7546771E-02  0.1319249E+00
          2   -1    0    0  502    0 -0.00000000000E+00  0.00000000000E+00  0.56024671062E+03  0.56024671062E+03  0.00000000000E+00 0. -1.
         21   -1    0    0  501  502  0.00000000000E+00 -0.00000000000E+00 -0.11867960487E+02  0.11867960487E+02  0.00000000000E+00 0. -1.
         24    2    1    2    0    0  0.27159501616E+02  0.35956746448E+01  0.53525386334E+03  0.54173655304E+03  0.78938123035E+02 0.  0.
        -13    1    3    3    0    0 -0.17795662314E+02  0.51936647382E+01  0.36305959304E+02  0.40764965737E+02  0.00000000000E+00 0.  1.
         14    1    3    3    0    0  0.44955163930E+02 -0.15979900934E+01  0.49894790404E+03  0.50097158730E+03  0.00000000000E+00 0. -1.
          1    1    1    2  501    0 -0.27159501616E+02 -0.35956746448E+01  0.13124886788E+02  0.30378118068E+02  0.00000000000E+00 0. -1.
<mgrwt>
<rscale>  1 0.83557134E+02</rscale>
<asrwt>0</asrwt>
<pdfrwt beam="1">  1       21 0.18258405E-02 0.83557134E+02</pdfrwt>
<pdfrwt beam="2">  1        2 0.86191781E-01 0.83557134E+02</pdfrwt>
<totfact> 0.91768188E+05</totfact>
</mgrwt>
</event>
<event>
 6    2  0.9453093E+000  0.9876371E+02  0.7546771E-02  0.1282917E+00
         21   -1    0    0  501  502  0.00000000000E+00  0.00000000000E+00  0.54763368101E+01  0.54763368101E+01  0.00000000000E+00 0. -1.
          2   -1    0    0  502    0 -0.00000000000E+00 -0.00000000000E+00 -0.15600724663E+04  0.15600724663E+04  0.00000000000E+00 0. -1.
         24    2    1    2    0    0 -0.57571494862E+02 -0.10986175653E+02 -0.13219208126E+04  0.13256051094E+04  0.79492755160E+02 0.  0.
        -11    1    3    3    0    0 -0.45074509636E+02 -0.80332083169E+01 -0.28898073523E+03  0.29258521697E+03  0.00000000000E+00 0.  1.
         12    1    3    3    0    0 -0.12496985227E+02 -0.29529673359E+01 -0.10329400774E+04  0.10330198924E+04  0.00000000000E+00 0. -1.
          1    1    1    2  501    0  0.57571494862E+02  0.10986175653E+02 -0.23267531687E+03  0.23994369372E+03  0.00000000000E+00 0. -1.
<mgrwt>
<rscale>  1 0.98763714E+02</rscale>
<asrwt>0</asrwt>
<pdfrwt beam="1">  1       21 0.84251088E-03 0.98763714E+02</pdfrwt>
<pdfrwt beam="2">  1        2 0.24001185E+00 0.98763714E+02</pdfrwt>
<totfact> 0.78236444E+05</totfact>
</mgrwt>
</event>
<event>
 6    2  0.9453093E+000  0.9202944E+02  0.7546771E-02  0.1298010E+00
          2   -1    0    0  502    0 -0.00000000000E+00  0.00000000000E+00  0.29914153061E+04  0.29914153061E+04  0.00000000000E+00 0. -1.
         21   -1    0    0  501  502  0.00000000000E+00 -0.00000000000E+00 -0.16175906941E+01  0.16175906941E+01  0.00000000000E+00 0. -1.
         24    2    1    2    0    0  0.41173885344E+02 -0.22649232983E+02  0.20327985552E+04  0.20348806807E+04  0.79127378550E+02 0.  0.
        -11    1    3    3    0    0 -0.20232032572E+02  0.32352826735E+01  0.25040449817E+03  0.25124134791E+03  0.00000000000E+00 0.  1.
         12    1    3    3    0    0  0.61405917916E+02 -0.25884515657E+02  0.17823940570E+04  0.17836393328E+04  0.00000000000E+00 0. -1.
          1    1    1    2  501    0 -0.41173885344E+02  0.22649232983E+02  0.95699916020E+03  0.95815221610E+03  0.00000000000E+00 0. -1.
<mgrwt>
<rscale>  1 0.92029444E+02</rscale>
<asrwt>0</asrwt>
<pdfrwt beam="1">  1       21 0.24886250E-03 0.92029444E+02</pdfrwt>
<pdfrwt beam="2">  1        2 0.46021331E+00 0.92029444E+02</pdfrwt>
<totfact> 0.90538920E+05</totfact>
</mgrwt>
</event>
<event>
 6    2  0.9453093E+000  0.1015364E+03  0.7546771E-02  0.1277098E+00
         -3   -1    0    0    0  501 -0.00000000000E+00  0.00000000000E+00  0.29760447968E+03  0.29760447968E+03  0.00000000000E+00 0.  1.
         21   -1    0    0  501  502  0.00000000000E+00 -0.00000000000E+00 -0.31200945350E+02  0.31200945350E+02  0.00000000000E+00 0.  1.
         24    2    1    2    0    0 -0.33449531710E+02  0.52614639723E+02  0.24093650207E+03  0.26145751328E+03  0.80140262898E+02 0.  0.
        -13    1    3    3    0    0 -0.47216030399E+02  0.22411768603E+01  0.14079512811E+03  0.14851816219E+03  0.00000000000E+00 0.  1.
         14    1    3    3    0    0  0.13766498688E+02  0.50373462863E+02  0.10014137396E+03  0.11293935109E+03  0.00000000000E+00 0. -1.
         -4    1    1    2    0  502  0.33449531710E+02 -0.52614639723E+02  0.25467032262E+02  0.67347911750E+02  0.00000000000E+00 0.  1.
<mgrwt>
<rscale>  1 0.10153636E+03</rscale>
<asrwt>0</asrwt>
<pdfrwt beam="1">  1       21 0.48001456E-02 0.10153636E+03</pdfrwt>
<pdfrwt beam="2">  1       -3 0.45785303E-01 0.10153636E+03</pdfrwt>
<totfact> 0.63462911E+04</totfact>
</mgrwt>
</event>
<event>
 6    2  0.9453093E+000  0.8294615E+02  0.7546771E-02  0.1320893E+00
          2   -1    0    0  502    0 -0.00000000000E+00  0.00000000000E+00  0.29068143737E+03  0.29068143737E+03  0.00000000000E+00 0. -1.
         21   -1    0    0  501  502  0.00000000000E+00 -0.00000000000E+00 -0.17068039249E+02  0.17068039249E+02  0.00000000000E+00 0.  1.
         24    2    1    2    0    0 -0.10364343665E+02 -0.18285860741E+02  0.27445356517E+03  0.28671383535E+03  0.80238841133E+02 0.  0.
        -11    1    3    3    0    0 -0.18576562265E+02 -0.48313446826E+02  0.16632338224E+03  0.17419169122E+03  0.00000000000E+00 0.  1.
         12    1    3    3    0    0  0.82122185997E+01  0.30027586085E+02  0.10813018293E+03  0.11252214414E+03  0.00000000000E+00 0. -1.
          1    1    1    2  501    0  0.10364343665E+02  0.18285860741E+02 -0.84016705206E+00  0.21035641262E+02  0.00000000000E+00 0. -1.
<mgrwt>
<rscale>  1 0.82946151E+02</rscale>
<asrwt>0</asrwt>
<pdfrwt beam="1">  1       21 0.26258524E-02 0.82946151E+02</pdfrwt>
<pdfrwt beam="2">  1        2 0.44720218E-01 0.82946151E+02</pdfrwt>
<totfact> 0.10252183E+06</totfact>
</mgrwt>
</event>
<event>
 6    2  0.9453093E+000  0.8796699E+02  0.7546771E-02  0.1307851E+00
         21   -1    0    0  501  502  0.00000000000E+00  0.00000000000E+00  0.34453888453E+03  0.34453888453E+03  0.00000000000E+00 0.  1.
         -1   -1    0    0    0  501 -0.00000000000E+00 -0.00000000000E+00 -0.15130554817E+02  0.15130554817E+02  0.00000000000E+00 0.  1.
         24    2    1    2    0    0 -0.13007091071E+02  0.33051621170E+02  0.30271769218E+03  0.31523989724E+03  0.80477310905E+02 0.  0.
        -11    1    3    3    0    0 -0.66192244037E+01  0.56624985481E+02  0.25863199959E+03  0.26484092268E+03  0.00000000000E+00 0.  1.
         12    1    3    3    0    0 -0.63878666672E+01 -0.23573364311E+02  0.44085692590E+02  0.50398974559E+02  0.00000000000E+00 0. -1.
         -2    1    1    2    0  502  0.13007091071E+02 -0.33051621170E+02  0.26690637527E+02  0.44429542106E+02  0.00000000000E+00 0.  1.
<mgrwt>
<rscale>  1 0.87966992E+02</rscale>
<asrwt>0</asrwt>
<pdfrwt beam="1">  1       21 0.53005976E-01 0.87966992E+02</pdfrwt>
<pdfrwt beam="2">  1       -1 0.23277779E-02 0.87966992E+02</pdfrwt>
<totfact> 0.15451661E+05</totfact>
</mgrwt>
</event>
<event>
 6    2  0.9453093E+000  0.8351395E+02  0.7546771E-02  0.1319365E+00
         21   -1    0    0  501  502  0.00000000000E+00  0.00000000000E+00  0.15046935875E+03  0.15046935875E+03  0.00000000000E+00 0. -1.
          2   -1    0    0  502    0 -0.00000000000E+00 -0.00000000000E+00 -0.21590657161E+03  0.21590657161E+03  0.00000000000E+00 0. -1.
         24    2    1    2    0    0  0.21713714381E+02  0.48318433835E+01 -0.20692903831E+03  0.22314615422E+03  0.80496876620E+02 0.  0.
        -13    1    3    3    0    0 -0.20214132810E+02  0.27964512906E+02 -0.69113893099E+02  0.77248659320E+02  0.00000000000E+00 0.  1.
         14    1    3    3    0    0  0.41927847191E+02 -0.23132669523E+02 -0.13781514521E+03  0.14589749490E+03  0.00000000000E+00 0. -1.
          1    1    1    2  501    0 -0.21713714381E+02 -0.48318433835E+01  0.14149182545E+03  0.14322977614E+03  0.00000000000E+00 0. -1.
<mgrwt>
<rscale>  1 0.83513946E+02</rscale>
<asrwt>0</asrwt>
<pdfrwt beam="1">  1       21 0.23149132E-01 0.83513946E+02</pdfrwt>
<pdfrwt beam="2">  1        2 0.33216396E-01 0.83513946E+02</pdfrwt>
<totfact> 0.33755127E+04</totfact>
</mgrwt>
</event>
<event>
 6    2  0.9453093E+000  0.1231004E+03  0.7546771E-02  0.1238068E+00
         21   -1    0    0  501  502  0.00000000000E+00  0.00000000000E+00  0.93741417092E+02  0.93741417092E+02  0.00000000000E+00 0. -1.
         -1   -1    0    0    0  501 -0.00000000000E+00 -0.00000000000E+00 -0.29358661719E+03  0.29358661719E+03  0.00000000000E+00 0.  1.
         24    2    1    2    0    0  0.24005818379E+02  0.89927115180E+02 -0.25212662787E+03  0.28057358215E+03  0.80563845216E+02 0.  0.
        -13    1    3    3    0    0  0.11374940434E+02 -0.13927034716E+02 -0.46664104011E+02  0.50008900898E+02  0.00000000000E+00 0.  1.
         14    1    3    3    0    0  0.12630877945E+02  0.10385414990E+03 -0.20546252386E+03  0.23056468125E+03  0.00000000000E+00 0. -1.
         -2    1    1    2    0  502 -0.24005818379E+02 -0.89927115180E+02  0.52281427773E+02  0.10675445214E+03  0.00000000000E+00 0.  1.
<mgrwt>
<rscale>  1 0.12310036E+03</rscale>
<asrwt>0</asrwt>
<pdfrwt beam="1">  1       21 0.14421757E-01 0.12310036E+03</pdfrwt>
<pdfrwt beam="2">  1       -1 0.45167171E-01 0.12310036E+03</pdfrwt>
<totfact> 0.19241903E+04</totfact>
</mgrwt>
</event>
<event>
 6    2  0.9453093E+000  0.8565390E+02  0.7546771E-02  0.1313731E+00
         21   -1    0    0  501  502  0.00000000000E+00  0.00000000000E+00  0.42643788059E+01  0.42643788059E+01  0.00000000000E+00 0.  1.
          2   -1    0    0  502    0 -0.00000000000E+00 -0.00000000000E+00 -0.79064274604E+03  0.79064274604E+03  0.00000000000E+00 0. -1.
         24    2    1    2    0    0 -0.23117829493E+02  0.17933182140E+02 -0.63233595116E+03  0.63811076324E+03  0.80501912861E+02 0.  0.
        -11    1    3    3    0    0 -0.39023814871E+02  0.36883403037E+02 -0.29340095182E+03  0.29827397150E+03  0.00000000000E+00 0.  1.
         12    1    3    3    0    0  0.15905985378E+02 -0.18950220897E+02 -0.33893499934E+03  0.33983679174E+03  0.00000000000E+00 0. -1.
          1    1    1    2  501    0  0.23117829493E+02 -0.17933182140E+02 -0.15404241608E+03  0.15679636161E+03  0.00000000000E+00 0. -1.
<mgrwt>
<rscale>  1 0.85653903E+02</rscale>
<asrwt>0</asrwt>
<pdfrwt beam="1">  1       21 0.65605885E-03 0.85653903E+02</pdfrwt>
<pdfrwt beam="2">  1        2 0.12163724E+00 0.85653903E+02</pdfrwt>
<totfact> 0.30746189E+06</totfact>
</mgrwt>
</event>
<event>
 6    2  0.9453093E+000  0.8418956E+02  0.7546771E-02  0.1317566E+00
         21   -1    0    0  501  502  0.00000000000E+00  0.00000000000E+00  0.14760743292E+03  0.14760743292E+03  0.00000000000E+00 0. -1.
          2   -1    0    0  502    0 -0.00000000000E+00 -0.00000000000E+00 -0.25808752391E+02  0.25808752391E+02  0.00000000000E+00 0. -1.
         24    2    1    2    0    0  0.19491192218E+02  0.95166899270E+01  0.48903506561E+02  0.97362386267E+02  0.81347448297E+02 0.  0.
        -11    1    3    3    0    0 -0.30522257382E+02 -0.53702912910E+01  0.11072620422E+02  0.32909742437E+02  0.00000000000E+00 0.  1.
         12    1    3    3    0    0  0.50013449600E+02  0.14886981218E+02  0.37830886139E+02  0.64452643831E+02  0.00000000000E+00 0. -1.
          1    1    1    2  501    0 -0.19491192218E+02 -0.95166899270E+01  0.72895173972E+02  0.76053799048E+02  0.00000000000E+00 0. -1.
<mgrwt>
<rscale>  1 0.84189556E+02</rscale>
<asrwt>0</asrwt>
<pdfrwt beam="1">  1       21 0.22708835E-01 0.84189556E+02</pdfrwt>
<pdfrwt beam="2">  1        2 0.39705774E-02 0.84189556E+02</pdfrwt>
<totfact> 0.43487317E+05</totfact>
</mgrwt>
</event>
<event>
 6    2  0.9453093E+000  0.9965392E+02  0.7546771E-02  0.1281025E+00
          2   -1    0    0  502    0 -0.00000000000E+00  0.00000000000E+00  0.20901428325E+02  0.20901428325E+02  0.00000000000E+00 0. -1.
         21   -1    0    0  501  502  0.00000000000E+00 -0.00000000000E+00 -0.28988576371E+03  0.28988576371E+03  0.00000000000E+00 0.  1.
         24    2    1    2    0    0  0.22957403301E+02 -0.50986400982E+02 -0.17783221145E+03  0.20385092527E+03  0.82487870945E+02 0.  0.
        -13    1    3    3    0    0  0.37386613740E+02 -0.34425446145E+02 -0.17435663007E+03  0.18161251245E+03  0.00000000000E+00 0.  1.
         14    1    3    3    0    0 -0.14429210438E+02 -0.16560954837E+02 -0.34755813849E+01  0.22238412825E+02  0.00000000000E+00 0. -1.
          1    1    1    2  501    0 -0.22957403301E+02  0.50986400982E+02 -0.91152123930E+02  0.10693626676E+03  0.00000000000E+00 0. -1.
<mgrwt>
<rscale>  1 0.99653923E+02</rscale>
<asrwt>0</asrwt>
<pdfrwt beam="1">  1       21 0.44597810E-01 0.99653923E+02</pdfrwt>
<pdfrwt beam="2">  1        2 0.32156043E-02 0.99653923E+02</pdfrwt>
<totfact> 0.15857592E+05</totfact>
</mgrwt>
</event>
<event>
 6    2  0.9453093E+000  0.1071622E+03  0.7546771E-02  0.1265917E+00
         21   -1    0    0  501  502  0.00000000000E+00  0.00000000000E+00  0.11533771574E+02  0.11533771574E+02  0.00000000000E+00 0. -1.
          2   -1    0    0  502    0 -0.00000000000E+00 -0.00000000000E+00 -0.10676793351E+04  0.10676793351E+04  0.00000000000E+00 0. -1.
         24    2    1    2    0    0  0.65951342788E+02 -0.22181730990E+02 -0.92093592279E+03  0.92714977857E+03  0.81499259025E+02 0.  0.
        -13    1    3    3    0    0 -0.17493232404E+02 -0.12496860468E+02 -0.13004067335E+03  0.13180577160E+03  0.00000000000E+00 0.  1.
         14    1    3    3    0    0  0.83444575192E+02 -0.96848705220E+01 -0.79089524944E+03  0.79534400697E+03  0.00000000000E+00 0. -1.
          1    1    1    2  501    0 -0.65951342788E+02  0.22181730990E+02 -0.13520964076E+03  0.15206332812E+03  0.00000000000E+00 0. -1.
<mgrwt>
<rscale>  1 0.10716220E+03</rscale>
<asrwt>0</asrwt>
<pdfrwt beam="1">  1       21 0.17744267E-02 0.10716220E+03</pdfrwt>
<pdfrwt beam="2">  1        2 0.16425833E+00 0.10716220E+03</pdfrwt>
<totfact> 0.44436699E+05</totfact>
</mgrwt>
</event>
<event>
 6    2  0.9453093E+000  0.1002022E+03  0.7546771E-02  0.1279871E+00
          4   -1    0    0  502    0 -0.00000000000E+00  0.00000000000E+00  0.76059049480E+03  0.76059049480E+03  0.00000000000E+00 0. -1.
         21   -1    0    0  501  502  0.00000000000E+00 -0.00000000000E+00 -0.19001015759E+02  0.19001015759E+02  0.00000000000E+00 0. -1.
         24    2    1    2    0    0  0.10851013131E+02  0.41894674471E+02  0.72707209229E+03  0.73394435563E+03  0.90374673109E+02 0.  0.
        -13    1    3    3    0    0  0.70523798771E+01  0.24499625323E+02  0.45625737824E+02  0.52265434609E+02  0.00000000000E+00 0.  1.
         14    1    3    3    0    0  0.37986332538E+01  0.17395049148E+02  0.68144635447E+03  0.68167892102E+03  0.00000000000E+00 0. -1.
          3    1    1    2  501    0 -0.10851013131E+02 -0.41894674471E+02  0.14517386752E+02  0.45647154929E+02  0.00000000000E+00 0. -1.
<mgrwt>
<rscale>  1 0.10020224E+03</rscale>
<asrwt>0</asrwt>
<pdfrwt beam="1">  1       21 0.29232338E-02 0.10020224E+03</pdfrwt>
<pdfrwt beam="2">  1        4 0.11701390E+00 0.10020224E+03</pdfrwt>
<totfact> 0.15338268E+04</totfact>
</mgrwt>
</event>
<event>
 6    2  0.9453093E+000  0.8252333E+02  0.7546771E-02  0.1322039E+00
         21   -1    0    0  501  502  0.00000000000E+00  0.00000000000E+00  0.15736238023E+01  0.15736238023E+01  0.00000000000E+00 0. -1.
          2   -1    0    0  502    0 -0.00000000000E+00 -0.00000000000E+00 -0.47384235950E+04  0.47384235950E+04  0.00000000000E+00 0. -1.
         24    2    1    2    0    0 -0.19906856121E+02  0.73023733876E+01 -0.46449412994E+04  0.46456743078E+04  0.79752694239E+02 0.  0.
        -11    1    3    3    0    0 -0.32893437219E+02 -0.15027405396E+02 -0.10198453361E+04  0.10204863109E+04  0.00000000000E+00 0.  1.
         12    1    3    3    0    0  0.12986581098E+02  0.22329778784E+02 -0.36250959632E+04  0.36251879969E+04  0.00000000000E+00 0. -1.
          1    1    1    2  501    0  0.19906856121E+02 -0.73023733876E+01 -0.91908671851E+02  0.94322910998E+02  0.00000000000E+00 0. -1.
<mgrwt>
<rscale>  1 0.82523329E+02</rscale>
<asrwt>0</asrwt>
<pdfrwt beam="1">  1       21 0.24209977E-03 0.82523329E+02</pdfrwt>
<pdfrwt beam="2">  1        2 0.72897681E+00 0.82523329E+02</pdfrwt>
<totfact> 0.49897634E+04</totfact>
</mgrwt>
</event>
<event>
 6    2  0.9453093E+000  0.8448917E+02  0.7546771E-02  0.1316774E+00
         21   -1    0    0  501  502  0.00000000000E+00  0.00000000000E+00  0.17944604252E+01  0.17944604252E+01  0.00000000000E+00 0.  1.
          2   -1    0    0  502    0 -0.00000000000E+00 -0.00000000000E+00 -0.23789237544E+04  0.23789237544E+04  0.00000000000E+00 0. -1.
         24    2    1    2    0    0 -0.62408172144E+00 -0.26637228381E+02 -0.21974957441E+04  0.21991193611E+04  0.80177851412E+02 0.  0.
        -13    1    3    3    0    0  0.10142536397E+02 -0.44653503930E+01 -0.40670628063E+02  0.42153414877E+02  0.00000000000E+00 0.  1.
         14    1    3    3    0    0 -0.10766618119E+02 -0.22171877988E+02 -0.21568251160E+04  0.21569659463E+04  0.00000000000E+00 0. -1.
          1    1    1    2  501    0  0.62408172144E+00  0.26637228381E+02 -0.17963354994E+03  0.18159885374E+03  0.00000000000E+00 0. -1.
<mgrwt>
<rscale>  1 0.84489167E+02</rscale>
<asrwt>0</asrwt>
<pdfrwt beam="1">  1       21 0.27606898E-03 0.84489167E+02</pdfrwt>
<pdfrwt beam="2">  1        2 0.36599072E+00 0.84489167E+02</pdfrwt>
<totfact> 0.16522379E+06</totfact>
</mgrwt>
</event>
<event>
 6    2  0.9453093E+000  0.1281593E+03  0.7546771E-02  0.1230213E+00
          2   -1    0    0  502    0 -0.00000000000E+00  0.00000000000E+00  0.33112898399E+03  0.33112898399E+03  0.00000000000E+00 0. -1.
         21   -1    0    0  501  502  0.00000000000E+00 -0.00000000000E+00 -0.57278305542E+02  0.57278305542E+02  0.00000000000E+00 0.  1.
         24    2    1    2    0    0  0.22112995717E+02  0.93672812099E+02  0.26169963688E+03  0.29139580507E+03  0.84624080279E+02 0.  0.
        -11    1    3    3    0    0  0.89026094294E+00  0.78452025587E+02  0.97571016563E+02  0.12520230092E+03  0.00000000000E+00 0.  1.
         12    1    3    3    0    0  0.21222734774E+02  0.15220786512E+02  0.16412862032E+03  0.16619350415E+03  0.00000000000E+00 0. -1.
          1    1    1    2  501    0 -0.22112995717E+02 -0.93672812099E+02  0.12151041566E+02  0.97011484461E+02  0.00000000000E+00 0. -1.
<mgrwt>
<rscale>  1 0.12815934E+03</rscale>
<asrwt>0</asrwt>
<pdfrwt beam="1">  1       21 0.88120472E-02 0.12815934E+03</pdfrwt>
<pdfrwt beam="2">  1        2 0.50942920E-01 0.12815934E+03</pdfrwt>
<totfact> 0.12225073E+05</totfact>
</mgrwt>
</event>
<event>
 6    2  0.9453093E+000  0.9812378E+02  0.7546771E-02  0.1284292E+00
         21   -1    0    0  501  502  0.00000000000E+00  0.00000000000E+00  0.53730994857E+02  0.53730994857E+02  0.00000000000E+00 0. -1.
         -3   -1    0    0    0  501 -0.00000000000E+00 -0.00000000000E+00 -0.11265829707E+03  0.11265829707E+03  0.00000000000E+00 0.  1.
         24    2    1    2    0    0 -0.56164693822E+02  0.10372228287E+01 -0.47702350411E+02  0.10910449284E+03  0.80453262585E+02 0.  0.
        -11    1    3    3    0    0 -0.30631226783E+02 -0.18194640400E+02 -0.63981405628E+02  0.73232078078E+02  0.00000000000E+00 0.  1.
         12    1    3    3    0    0 -0.25533467040E+02  0.19231863228E+02  0.16279055218E+02  0.35872414765E+02  0.00000000000E+00 0. -1.
         -4    1    1    2    0  502  0.56164693822E+02 -0.10372228287E+01 -0.11224951805E+02  0.57284799087E+02  0.00000000000E+00 0.  1.
<mgrwt>
<rscale>  1 0.98123780E+02</rscale>
<asrwt>0</asrwt>
<pdfrwt beam="1">  1       21 0.82663070E-02 0.98123780E+02</pdfrwt>
<pdfrwt beam="2">  1       -3 0.17332045E-01 0.98123780E+02</pdfrwt>
<totfact> 0.14872779E+05</totfact>
</mgrwt>
</event>
<event>
 6    2  0.9453093E+000  0.8288336E+02  0.7546771E-02  0.1321062E+00
          4   -1    0    0  502    0 -0.00000000000E+00  0.00000000000E+00  0.90886504935E+01  0.90886504935E+01  0.00000000000E+00 0. -1.
         21   -1    0    0  501  502  0.00000000000E+00 -0.00000000000E+00 -0.33565148954E+03  0.33565148954E+03  0.00000000000E+00 0. -1.
         24    2    1    2    0    0 -0.11497560549E+02  0.18992052027E+02 -0.20420574157E+03  0.22038519947E+03  0.79854613631E+02 0.  0.
        -11    1    3    3    0    0  0.24302698515E+02 -0.48380698759E+01 -0.14559647824E+03  0.14769008955E+03  0.00000000000E+00 0.  1.
         12    1    3    3    0    0 -0.35800259063E+02  0.23830121903E+02 -0.58609263333E+02  0.72695109927E+02  0.00000000000E+00 0. -1.
          3    1    1    2  501    0  0.11497560549E+02 -0.18992052027E+02 -0.12235709747E+03  0.12435494055E+03  0.00000000000E+00 0. -1.
<mgrwt>
<rscale>  1 0.82883359E+02</rscale>
<asrwt>0</asrwt>
<pdfrwt beam="1">  1       21 0.51638682E-01 0.82883359E+02</pdfrwt>
<pdfrwt beam="2">  1        4 0.13982542E-02 0.82883359E+02</pdfrwt>
<totfact> 0.23495667E+05</totfact>
</mgrwt>
</event>
<event>
 6    2  0.9453093E+000  0.8340660E+02  0.7546771E-02  0.1319653E+00
          2   -1    0    0  502    0 -0.00000000000E+00  0.00000000000E+00  0.25439226472E+03  0.25439226472E+03  0.00000000000E+00 0. -1.
         21   -1    0    0  501  502  0.00000000000E+00 -0.00000000000E+00 -0.12732793431E+02  0.12732793431E+02  0.00000000000E+00 0.  1.
         24    2    1    2    0    0  0.22477287502E+02  0.25581881734E+01  0.13985697016E+03  0.16283928723E+03  0.80280063423E+02 0.  0.
        -11    1    3    3    0    0  0.31533011880E+02 -0.32064757633E+02  0.57158905905E+02  0.72729774127E+02  0.00000000000E+00 0.  1.
         12    1    3    3    0    0 -0.90557243781E+01  0.34622945806E+02  0.82698064251E+02  0.90109513100E+02  0.00000000000E+00 0. -1.
          1    1    1    2  501    0 -0.22477287502E+02 -0.25581881734E+01  0.10180250114E+03  0.10428577093E+03  0.00000000000E+00 0. -1.
<mgrwt>
<rscale>  1 0.83406603E+02</rscale>
<asrwt>0</asrwt>
<pdfrwt beam="1">  1       21 0.19588915E-02 0.83406603E+02</pdfrwt>
<pdfrwt beam="2">  1        2 0.39137268E-01 0.83406603E+02</pdfrwt>
<totfact> 0.18864760E+06</totfact>
</mgrwt>
</event>
<event>
 6    2  0.9453093E+000  0.8565199E+02  0.7546771E-02  0.1313736E+00
         21   -1    0    0  501  502  0.00000000000E+00  0.00000000000E+00  0.55262185130E+01  0.55262185130E+01  0.00000000000E+00 0.  1.
          4   -1    0    0  502    0 -0.00000000000E+00 -0.00000000000E+00 -0.60403116953E+03  0.60403116953E+03  0.00000000000E+00 0. -1.
         24    2    1    2    0    0 -0.25438670878E+02 -0.85725096990E+01 -0.50745194482E+03  0.51462971118E+03  0.81336642547E+02 0.  0.
        -11    1    3    3    0    0 -0.38141306993E+02 -0.20430729159E+02 -0.13482655105E+03  0.14159933919E+03  0.00000000000E+00 0.  1.
         12    1    3    3    0    0  0.12702636116E+02  0.11858219460E+02 -0.37262539378E+03  0.37303037198E+03  0.00000000000E+00 0. -1.
          3    1    1    2  501    0  0.25438670878E+02  0.85725096990E+01 -0.91053006189E+02  0.94927676863E+02  0.00000000000E+00 0. -1.
<mgrwt>
<rscale>  1 0.85651990E+02</rscale>
<asrwt>0</asrwt>
<pdfrwt beam="1">  1       21 0.85018835E-03 0.85651990E+02</pdfrwt>
<pdfrwt beam="2">  1        4 0.92927776E-01 0.85651990E+02</pdfrwt>
<totfact> 0.18117127E+05</totfact>
</mgrwt>
</event>
<event>
 6    2  0.9453093E+000  0.1087561E+03  0.7546771E-02  0.1262891E+00
          2   -1    0    0  502    0 -0.00000000000E+00  0.00000000000E+00  0.81460354377E+02  0.81460354377E+02  0.00000000000E+00 0. -1.
         21   -1    0    0  501  502  0.00000000000E+00 -0.00000000000E+00 -0.10665234488E+03  0.10665234488E+03  0.00000000000E+00 0. -1.
         24    2    1    2    0    0  0.66760519958E+02 -0.25196282040E+02  0.87244217191E+01  0.10910546749E+03  0.82073551454E+02 0.  0.
        -13    1    3    3    0    0 -0.18730458550E+02  0.37890838982E+00 -0.34341331750E+01  0.19046441130E+02  0.00000000000E+00 0.  1.
         14    1    3    3    0    0  0.85490978508E+02 -0.25575190430E+02  0.12158554894E+02  0.90059026360E+02  0.00000000000E+00 0. -1.
          1    1    1    2  501    0 -0.66760519958E+02  0.25196282040E+02 -0.33916412226E+02  0.79007231770E+02  0.00000000000E+00 0. -1.
<mgrwt>
<rscale>  1 0.10875609E+03</rscale>
<asrwt>0</asrwt>
<pdfrwt beam="1">  1       21 0.16408053E-01 0.10875609E+03</pdfrwt>
<pdfrwt beam="2">  1        2 0.12532362E-01 0.10875609E+03</pdfrwt>
<totfact> 0.19030976E+05</totfact>
</mgrwt>
</event>
<event>
 6    2  0.9453093E+000  0.8245809E+02  0.7546771E-02  0.1322217E+00
         21   -1    0    0  501  502  0.00000000000E+00  0.00000000000E+00  0.54115491131E+01  0.54115491131E+01  0.00000000000E+00 0.  1.
          2   -1    0    0  502    0 -0.00000000000E+00 -0.00000000000E+00 -0.54993853680E+03  0.54993853680E+03  0.00000000000E+00 0. -1.
         24    2    1    2    0    0 -0.70035040549E+01 -0.25420412045E+02 -0.39481486785E+03  0.40333375376E+03  0.78128679900E+02 0.  0.
        -13    1    3    3    0    0 -0.65343232004E+01  0.23081120014E+02 -0.54047899961E+02  0.59132148371E+02  0.00000000000E+00 0.  1.
         14    1    3    3    0    0 -0.46918085457E+00 -0.48501532059E+02 -0.34076696789E+03  0.34420160538E+03  0.00000000000E+00 0. -1.
          1    1    1    2  501    0  0.70035040549E+01  0.25420412045E+02 -0.14971211984E+03  0.15201633216E+03  0.00000000000E+00 0. -1.
<mgrwt>
<rscale>  1 0.82458093E+02</rscale>
<asrwt>0</asrwt>
<pdfrwt beam="1">  1       21 0.83254570E-03 0.82458093E+02</pdfrwt>
<pdfrwt beam="2">  1        2 0.84605961E-01 0.82458093E+02</pdfrwt>
<totfact> 0.32096615E+06</totfact>
</mgrwt>
</event>
<event>
 6    2  0.9453093E+000  0.8809284E+02  0.7546771E-02  0.1307537E+00
          2   -1    0    0  502    0 -0.00000000000E+00  0.00000000000E+00  0.13374497747E+03  0.13374497747E+03  0.00000000000E+00 0. -1.
         21   -1    0    0  501  502  0.00000000000E+00 -0.00000000000E+00 -0.31344776086E+02  0.31344776086E+02  0.00000000000E+00 0.  1.
         24    2    1    2    0    0 -0.39701239065E+02 -0.94966693999E+01  0.62539030010E+02  0.10803462148E+03  0.78063910039E+02 0.  0.
        -11    1    3    3    0    0 -0.18821876135E+01  0.28136541186E+02  0.34289907439E+01  0.28407139202E+02  0.00000000000E+00 0.  1.
         12    1    3    3    0    0 -0.37819051452E+02 -0.37633210586E+02  0.59110039266E+02  0.79627482277E+02  0.00000000000E+00 0. -1.
          1    1    1    2  501    0  0.39701239065E+02  0.94966693999E+01  0.39861171377E+02  0.57055132079E+02  0.00000000000E+00 0. -1.
<mgrwt>
<rscale>  1 0.88092844E+02</rscale>
<asrwt>0</asrwt>
<pdfrwt beam="1">  1       21 0.48222733E-02 0.88092844E+02</pdfrwt>
<pdfrwt beam="2">  1        2 0.20576150E-01 0.88092844E+02</pdfrwt>
<totfact> 0.87605885E+05</totfact>
</mgrwt>
</event>
<event>
 6    2  0.9453093E+000  0.7783246E+02  0.7546771E-02  0.1335318E+00
         21   -1    0    0  501  502  0.00000000000E+00  0.00000000000E+00  0.56575074942E+01  0.56575074942E+01  0.00000000000E+00 0.  1.
          2   -1    0    0  502    0 -0.00000000000E+00 -0.00000000000E+00 -0.51755140028E+03  0.51755140028E+03  0.00000000000E+00 0. -1.
         24    2    1    2    0    0  0.23034252337E+02 -0.11958796390E+02 -0.30854560656E+03  0.31821106607E+03  0.73377800806E+02 0.  0.
        -13    1    3    3    0    0  0.12440924865E+02 -0.11563561381E+02 -0.10482146186E+02  0.19959157096E+02  0.00000000000E+00 0.  1.
         14    1    3    3    0    0  0.10593327472E+02 -0.39523500873E+00 -0.29806346038E+03  0.29825190898E+03  0.00000000000E+00 0. -1.
          1    1    1    2  501    0 -0.23034252337E+02  0.11958796390E+02 -0.20334828623E+03  0.20499784170E+03  0.00000000000E+00 0. -1.
<mgrwt>
<rscale>  1 0.77832456E+02</rscale>
<asrwt>0</asrwt>
<pdfrwt beam="1">  1       21 0.87038591E-03 0.77832456E+02</pdfrwt>
<pdfrwt beam="2">  1        2 0.79623279E-01 0.77832456E+02</pdfrwt>
<totfact> 0.31766119E+06</totfact>
</mgrwt>
</event>
<event>
 6    2  0.9453093E+000  0.8711874E+02  0.7546771E-02  0.1309983E+00
         21   -1    0    0  501  502  0.00000000000E+00  0.00000000000E+00  0.42772688625E+02  0.42772688625E+02  0.00000000000E+00 0. -1.
          4   -1    0    0  502    0 -0.00000000000E+00 -0.00000000000E+00 -0.14618539737E+03  0.14618539737E+03  0.00000000000E+00 0. -1.
         24    2    1    2    0    0 -0.22388197248E+02 -0.17278699135E+02 -0.12570874180E+03  0.15294561718E+03  0.82400784165E+02 0.  0.
        -11    1    3    3    0    0  0.10906676661E+02  0.26885036285E+02 -0.62819543311E+02  0.69195778727E+02  0.00000000000E+00 0.  1.
         12    1    3    3    0    0 -0.33294873909E+02 -0.44163735421E+02 -0.62889198487E+02  0.83749838455E+02  0.00000000000E+00 0. -1.
          3    1    1    2  501    0  0.22388197248E+02  0.17278699135E+02  0.22296033056E+02  0.36012468811E+02  0.00000000000E+00 0. -1.
<mgrwt>
<rscale>  1 0.87118735E+02</rscale>
<asrwt>0</asrwt>
<pdfrwt beam="1">  1       21 0.65804136E-02 0.87118735E+02</pdfrwt>
<pdfrwt beam="2">  1        4 0.22490061E-01 0.87118735E+02</pdfrwt>
<totfact> 0.11477073E+05</totfact>
</mgrwt>
</event>
<event>
 6    2  0.9453093E+000  0.8665171E+02  0.7546771E-02  0.1311169E+00
          2   -1    0    0  502    0 -0.00000000000E+00  0.00000000000E+00  0.84157739390E+03  0.84157739390E+03  0.00000000000E+00 0. -1.
         21   -1    0    0  501  502  0.00000000000E+00 -0.00000000000E+00 -0.99777024903E+01  0.99777024903E+01  0.00000000000E+00 0. -1.
         24    2    1    2    0    0 -0.58794602240E+01 -0.26516589580E+02  0.81527316845E+03  0.81986514645E+03  0.82285002231E+02 0.  0.
        -11    1    3    3    0    0  0.23008895152E+02  0.20178301964E+02  0.35840831994E+03  0.35971251984E+03  0.00000000000E+00 0.  1.
         12    1    3    3    0    0 -0.28888355377E+02 -0.46694891544E+02  0.45686484851E+03  0.46015262661E+03  0.00000000000E+00 0. -1.
          1    1    1    2  501    0  0.58794602240E+01  0.26516589580E+02  0.16326522965E+02  0.31689949946E+02  0.00000000000E+00 0. -1.
<mgrwt>
<rscale>  1 0.86651712E+02</rscale>
<asrwt>0</asrwt>
<pdfrwt beam="1">  1       21 0.15350318E-02 0.86651712E+02</pdfrwt>
<pdfrwt beam="2">  1        2 0.12947339E+00 0.86651712E+02</pdfrwt>
<totfact> 0.75589844E+05</totfact>
</mgrwt>
</event>
<event>
 6    2  0.9453093E+000  0.9384781E+02  0.7546771E-02  0.1293792E+00
          2   -1    0    0  502    0 -0.00000000000E+00  0.00000000000E+00  0.31697769166E+03  0.31697769166E+03  0.00000000000E+00 0. -1.
         21   -1    0    0  501  502  0.00000000000E+00 -0.00000000000E+00 -0.16781957583E+02  0.16781957583E+02  0.00000000000E+00 0. -1.
         24    2    1    2    0    0 -0.29191874960E+02  0.57599613599E+01  0.28558800919E+03  0.30061257781E+03  0.89006001057E+02 0.  0.
        -11    1    3    3    0    0 -0.12818716531E+02  0.12379426160E+02  0.37361048049E+01  0.18207914891E+02  0.00000000000E+00 0.  1.
         12    1    3    3    0    0 -0.16373158429E+02 -0.66194648005E+01  0.28185190438E+03  0.28240466291E+03  0.00000000000E+00 0. -1.
          1    1    1    2  501    0  0.29191874960E+02 -0.57599613599E+01  0.14607724892E+02  0.33147071440E+02  0.00000000000E+00 0. -1.
<mgrwt>
<rscale>  1 0.93847807E+02</rscale>
<asrwt>0</asrwt>
<pdfrwt beam="1">  1       21 0.25818399E-02 0.93847807E+02</pdfrwt>
<pdfrwt beam="2">  1        2 0.48765794E-01 0.93847807E+02</pdfrwt>
<totfact> 0.97499122E+05</totfact>
</mgrwt>
</event>
<event>
 6    2  0.9453093E+000  0.9147214E+02  0.7546771E-02  0.1299325E+00
         21   -1    0    0  501  502  0.00000000000E+00  0.00000000000E+00  0.28529314998E+03  0.28529314998E+03  0.00000000000E+00 0.  1.
         -3   -1    0    0    0  501 -0.00000000000E+00 -0.00000000000E+00 -0.38649528084E+02  0.38649528084E+02  0.00000000000E+00 0.  1.
         24    2    1    2    0    0 -0.11359359873E+02  0.27105660750E+02  0.17760518067E+02  0.93180404025E+02  0.86622166855E+02 0.  0.
        -11    1    3    3    0    0 -0.24449162069E+02  0.47187972457E+02 -0.12479784464E+02  0.54591311495E+02  0.00000000000E+00 0.  1.
         12    1    3    3    0    0  0.13089802196E+02 -0.20082311707E+02  0.30240302532E+02  0.38589092529E+02  0.00000000000E+00 0. -1.
         -4    1    1    2    0  502  0.11359359873E+02 -0.27105660750E+02  0.22888310382E+03  0.23076227404E+03  0.00000000000E+00 0.  1.
<mgrwt>
<rscale>  1 0.91472136E+02</rscale>
<asrwt>0</asrwt>
<pdfrwt beam="1">  1       21 0.43891253E-01 0.91472136E+02</pdfrwt>
<pdfrwt beam="2">  1       -3 0.59460814E-02 0.91472136E+02</pdfrwt>
<totfact> 0.39920607E+04</totfact>
</mgrwt>
</event>
<event>
 6    2  0.9453093E+000  0.8803255E+02  0.7546771E-02  0.1307687E+00
         21   -1    0    0  501  502  0.00000000000E+00  0.00000000000E+00  0.57879994462E+01  0.57879994462E+01  0.00000000000E+00 0.  1.
          2   -1    0    0  502    0 -0.00000000000E+00 -0.00000000000E+00 -0.70959225165E+03  0.70959225165E+03  0.00000000000E+00 0. -1.
         24    2    1    2    0    0 -0.33626527484E+02  0.12386269293E+02 -0.40643132702E+03  0.41585592879E+03  0.80408748983E+02 0.  0.
        -11    1    3    3    0    0  0.14982612757E+02  0.17532070110E+02 -0.39946204914E+02  0.46125388393E+02  0.00000000000E+00 0.  1.
         12    1    3    3    0    0 -0.48609140241E+02 -0.51458008163E+01 -0.36648512210E+03  0.36973054040E+03  0.00000000000E+00 0. -1.
          1    1    1    2  501    0  0.33626527484E+02 -0.12386269293E+02 -0.29737292519E+03  0.29952432230E+03  0.00000000000E+00 0. -1.
<mgrwt>
<rscale>  1 0.88032550E+02</rscale>
<asrwt>0</asrwt>
<pdfrwt beam="1">  1       21 0.89046115E-03 0.88032550E+02</pdfrwt>
<pdfrwt beam="2">  1        2 0.10916808E+00 0.88032550E+02</pdfrwt>
<totfact> 0.21854258E+06</totfact>
</mgrwt>
</event>
<event>
 6    2  0.9453093E+000  0.9649993E+02  0.7546771E-02  0.1287833E+00
         21   -1    0    0  501  502  0.00000000000E+00  0.00000000000E+00  0.17069539383E+03  0.17069539383E+03  0.00000000000E+00 0.  1.
          4   -1    0    0  502    0 -0.00000000000E+00 -0.00000000000E+00 -0.40254292940E+02  0.40254292940E+02  0.00000000000E+00 0. -1.
         24    2    1    2    0    0  0.54844805417E+01 -0.58616824088E+02  0.43262052449E+02  0.10575368837E+03  0.76460616190E+02 0.  0.
        -13    1    3    3    0    0 -0.21913484698E+01 -0.70233696281E+02  0.53628682495E+02  0.88394624766E+02  0.00000000000E+00 0.  1.
         14    1    3    3    0    0  0.76758290116E+01  0.11616872193E+02 -0.10366630047E+02  0.17359063601E+02  0.00000000000E+00 0. -1.
          3    1    1    2  501    0 -0.54844805417E+01  0.58616824088E+02  0.87179048439E+02  0.10519599840E+03  0.00000000000E+00 0. -1.
<mgrwt>
<rscale>  1 0.96499935E+02</rscale>
<asrwt>0</asrwt>
<pdfrwt beam="1">  1       21 0.26260829E-01 0.96499935E+02</pdfrwt>
<pdfrwt beam="2">  1        4 0.61929683E-02 0.96499935E+02</pdfrwt>
<totfact> 0.89676486E+04</totfact>
</mgrwt>
</event>
<event>
 6    2  0.9453093E+000  0.1410820E+03  0.7546771E-02  0.1211880E+00
         21   -1    0    0  501  502  0.00000000000E+00  0.00000000000E+00  0.83941614564E+02  0.83941614564E+02  0.00000000000E+00 0. -1.
         -1   -1    0    0    0  501 -0.00000000000E+00 -0.00000000000E+00 -0.22929370830E+03  0.22929370830E+03  0.00000000000E+00 0.  1.
         24    2    1    2    0    0 -0.10193744103E+03 -0.35392317352E+02 -0.11852878324E+02  0.14157898442E+03  0.90885973041E+02 0.  0.
        -13    1    3    3    0    0 -0.17310138795E+02 -0.22554596088E+02 -0.42095887975E+02  0.50797780406E+02  0.00000000000E+00 0.  1.
         14    1    3    3    0    0 -0.84627302232E+02 -0.12837721264E+02  0.30243009652E+02  0.90781204019E+02  0.00000000000E+00 0. -1.
         -2    1    1    2    0  502  0.10193744103E+03  0.35392317352E+02 -0.13349921542E+03  0.17165633844E+03  0.00000000000E+00 0.  1.
<mgrwt>
<rscale>  1 0.14108196E+03</rscale>
<asrwt>0</asrwt>
<pdfrwt beam="1">  1       21 0.12914095E-01 0.14108196E+03</pdfrwt>
<pdfrwt beam="2">  1       -1 0.35275955E-01 0.14108196E+03</pdfrwt>
<totfact> 0.36232932E+04</totfact>
</mgrwt>
</event>
<event>
 6    2  0.9453093E+000  0.9018326E+02  0.7546771E-02  0.1302409E+00
         21   -1    0    0  501  502  0.00000000000E+00  0.00000000000E+00  0.70001132033E+01  0.70001132033E+01  0.00000000000E+00 0. -1.
          2   -1    0    0  502    0 -0.00000000000E+00 -0.00000000000E+00 -0.88068737219E+03  0.88068737219E+03  0.00000000000E+00 0. -1.
         24    2    1    2    0    0 -0.32080190262E+02  0.33653575023E+02 -0.75254554019E+03  0.75792995092E+03  0.77274308314E+02 0.  0.
        -11    1    3    3    0    0 -0.24094457734E+02  0.14243931189E+02 -0.74892727100E+02  0.79952192225E+02  0.00000000000E+00 0.  1.
         12    1    3    3    0    0 -0.79857325282E+01  0.19409643834E+02 -0.67765281309E+03  0.67797775869E+03  0.00000000000E+00 0. -1.
          1    1    1    2  501    0  0.32080190262E+02 -0.33653575023E+02 -0.12114171880E+03  0.12975753447E+03  0.00000000000E+00 0. -1.
<mgrwt>
<rscale>  1 0.90183260E+02</rscale>
<asrwt>0</asrwt>
<pdfrwt beam="1">  1       21 0.10769408E-02 0.90183260E+02</pdfrwt>
<pdfrwt beam="2">  1        2 0.13549033E+00 0.90183260E+02</pdfrwt>
<totfact> 0.12517356E+06</totfact>
</mgrwt>
</event>
<event>
 6    2  0.9453093E+000  0.9814630E+02  0.7546771E-02  0.1284243E+00
          4   -1    0    0  502    0 -0.00000000000E+00  0.00000000000E+00  0.21507046164E+03  0.21507046164E+03  0.00000000000E+00 0. -1.
         21   -1    0    0  501  502  0.00000000000E+00 -0.00000000000E+00 -0.29147153843E+02  0.29147153843E+02  0.00000000000E+00 0.  1.
         24    2    1    2    0    0 -0.54974134251E+02 -0.18443144628E+02  0.13591056913E+03  0.16764360521E+03  0.79185797631E+02 0.  0.
        -11    1    3    3    0    0 -0.57485171926E+02 -0.18867186362E+02  0.41890196409E+02  0.73588750959E+02  0.00000000000E+00 0.  1.
         12    1    3    3    0    0  0.25110376750E+01  0.42404173408E+00  0.94020372722E+02  0.94054854252E+02  0.00000000000E+00 0. -1.
          3    1    1    2  501    0  0.54974134251E+02  0.18443144628E+02  0.50012738670E+02  0.76574010276E+02  0.00000000000E+00 0. -1.
<mgrwt>
<rscale>  1 0.98146297E+02</rscale>
<asrwt>0</asrwt>
<pdfrwt beam="1">  1       21 0.44841777E-02 0.98146297E+02</pdfrwt>
<pdfrwt beam="2">  1        4 0.33087762E-01 0.98146297E+02</pdfrwt>
<totfact> 0.10882284E+05</totfact>
</mgrwt>
</event>
<event>
 6    2  0.9453093E+000  0.8281875E+02  0.7546771E-02  0.1321237E+00
          2   -1    0    0  502    0 -0.00000000000E+00  0.00000000000E+00  0.10754865946E+04  0.10754865946E+04  0.00000000000E+00 0. -1.
         21   -1    0    0  501  502  0.00000000000E+00 -0.00000000000E+00 -0.26812392172E+01  0.26812392172E+01  0.00000000000E+00 0.  1.
         24    2    1    2    0    0 -0.66262028795E+01  0.21281328154E+02  0.92375956191E+03  0.92746464857E+03  0.79763053030E+02 0.  0.
        -13    1    3    3    0    0 -0.23810875594E+02  0.33150237716E+02  0.24444250050E+03  0.24782661703E+03  0.00000000000E+00 0.  1.
         14    1    3    3    0    0  0.17184672715E+02 -0.11868909562E+02  0.67931706141E+03  0.67963803154E+03  0.00000000000E+00 0. -1.
          1    1    1    2  501    0  0.66262028795E+01 -0.21281328154E+02  0.14904579346E+03  0.15070318524E+03  0.00000000000E+00 0. -1.
<mgrwt>
<rscale>  1 0.82818755E+02</rscale>
<asrwt>0</asrwt>
<pdfrwt beam="1">  1       21 0.41249920E-03 0.82818755E+02</pdfrwt>
<pdfrwt beam="2">  1        2 0.16545913E+00 0.82818755E+02</pdfrwt>
<totfact> 0.41829251E+06</totfact>
</mgrwt>
</event>
<event>
 6    2  0.9453093E+000  0.7791578E+02  0.7546771E-02  0.1335072E+00
         21   -1    0    0  501  502  0.00000000000E+00  0.00000000000E+00  0.41187231832E+02  0.41187231832E+02  0.00000000000E+00 0.  1.
          2   -1    0    0  502    0 -0.00000000000E+00 -0.00000000000E+00 -0.68511960351E+02  0.68511960351E+02  0.00000000000E+00 0. -1.
         24    2    1    2    0    0 -0.30691608121E+01 -0.22566367950E+02 -0.35340035678E+02  0.85555748778E+02  0.74513135196E+02 0.  0.
        -13    1    3    3    0    0 -0.20724087897E+02  0.30021983736E+01  0.15444522386E+02  0.26019882513E+02  0.00000000000E+00 0.  1.
         14    1    3    3    0    0  0.17654927085E+02 -0.25568566324E+02 -0.50784558064E+02  0.59535866266E+02  0.00000000000E+00 0. -1.
          1    1    1    2  501    0  0.30691608121E+01  0.22566367950E+02  0.80153071589E+01  0.24143443404E+02  0.00000000000E+00 0. -1.
<mgrwt>
<rscale>  1 0.77915775E+02</rscale>
<asrwt>0</asrwt>
<pdfrwt beam="1">  1       21 0.63364972E-02 0.77915775E+02</pdfrwt>
<pdfrwt beam="2">  1        2 0.10540302E-01 0.77915775E+02</pdfrwt>
<totfact> 0.11860441E+06</totfact>
</mgrwt>
</event>
<event>
 6    2  0.9453093E+000  0.9157026E+02  0.7546771E-02  0.1299093E+00
          2   -1    0    0  502    0 -0.00000000000E+00  0.00000000000E+00  0.14847507986E+03  0.14847507986E+03  0.00000000000E+00 0. -1.
         21   -1    0    0  501  502  0.00000000000E+00 -0.00000000000E+00 -0.50000634571E+02  0.50000634571E+02  0.00000000000E+00 0. -1.
         24    2    1    2    0    0 -0.25942737981E+02  0.36146270273E+02  0.11843891462E+03  0.14970934749E+03  0.80034578281E+02 0.  0.
        -13    1    3    3    0    0  0.20538848591E+02  0.30303101331E+02  0.22569404553E+02  0.43005816741E+02  0.00000000000E+00 0.  1.
         14    1    3    3    0    0 -0.46481586572E+02  0.58431689422E+01  0.95869510068E+02  0.10670353075E+03  0.00000000000E+00 0. -1.
          1    1    1    2  501    0  0.25942737981E+02 -0.36146270273E+02 -0.19964469334E+02  0.48766366939E+02  0.00000000000E+00 0. -1.
<mgrwt>
<rscale>  1 0.91570258E+02</rscale>
<asrwt>0</asrwt>
<pdfrwt beam="1">  1       21 0.76924054E-02 0.91570258E+02</pdfrwt>
<pdfrwt beam="2">  1        2 0.22842320E-01 0.91570258E+02</pdfrwt>
<totfact> 0.35718341E+05</totfact>
</mgrwt>
</event>
<event>
 6    2  0.1309107E+001  0.8496393E+02  0.7546771E-02  0.1315527E+00
         21   -1    0    0  501  502  0.00000000000E+00  0.00000000000E+00  0.23485391256E+02  0.23485391256E+02  0.00000000000E+00 0.  1.
         -1   -1    0    0    0  501 -0.00000000000E+00 -0.00000000000E+00 -0.26949703408E+03  0.26949703408E+03  0.00000000000E+00 0.  1.
         24    2    1    2    0    0  0.23153099858E+02  0.16850169710E+02 -0.25002502618E+03  0.26406700560E+03  0.79992971436E+02 0.  0.
        -11    1    3    3    0    0  0.23485629908E+02  0.20293582028E+02 -0.25561530967E+03  0.25749289470E+03  0.00000000000E+00 0.  1.
         12    1    3    3    0    0 -0.33253004937E+00 -0.34434123181E+01  0.55902834909E+01  0.65741109007E+01  0.00000000000E+00 0. -1.
         -2    1    1    2    0  502 -0.23153099858E+02 -0.16850169710E+02  0.40133833576E+01  0.28915419732E+02  0.00000000000E+00 0.  1.
<mgrwt>
<rscale>  1 0.84963932E+02</rscale>
<asrwt>0</asrwt>
<pdfrwt beam="1">  1       21 0.36131373E-02 0.84963932E+02</pdfrwt>
<pdfrwt beam="2">  1       -1 0.41461080E-01 0.84963932E+02</pdfrwt>
<totfact> 0.23351094E+05</totfact>
</mgrwt>
</event>
<event>
 6    2  0.9453093E+000  0.8299830E+02  0.7546771E-02  0.1320752E+00
         21   -1    0    0  501  502  0.00000000000E+00  0.00000000000E+00  0.20379353261E+01  0.20379353261E+01  0.00000000000E+00 0.  1.
          2   -1    0    0  502    0 -0.00000000000E+00 -0.00000000000E+00 -0.15694465759E+04  0.15694465759E+04  0.00000000000E+00 0. -1.
         24    2    1    2    0    0 -0.75401446085E+01 -0.20532172649E+02 -0.92868922648E+03  0.93239068883E+03  0.80064307453E+02 0.  0.
        -13    1    3    3    0    0  0.28336639701E+02 -0.27484848373E+02 -0.29238409019E+03  0.29503701164E+03  0.00000000000E+00 0.  1.
         14    1    3    3    0    0 -0.35876784309E+02  0.69526757238E+01 -0.63630513629E+03  0.63735367719E+03  0.00000000000E+00 0. -1.
          1    1    1    2  501    0  0.75401446085E+01  0.20532172649E+02 -0.63871941405E+03  0.63909382236E+03  0.00000000000E+00 0. -1.
<mgrwt>
<rscale>  1 0.82998297E+02</rscale>
<asrwt>0</asrwt>
<pdfrwt beam="1">  1       21 0.31352937E-03 0.82998297E+02</pdfrwt>
<pdfrwt beam="2">  1        2 0.24145266E+00 0.82998297E+02</pdfrwt>
<totfact> 0.34812654E+06</totfact>
</mgrwt>
</event>
<event>
 6    2  0.9453093E+000  0.9558594E+02  0.7546771E-02  0.1289862E+00
         21   -1    0    0  501  502  0.00000000000E+00  0.00000000000E+00  0.17684777512E+02  0.17684777512E+02  0.00000000000E+00 0. -1.
         -1   -1    0    0    0  501 -0.00000000000E+00 -0.00000000000E+00 -0.34098992151E+03  0.34098992151E+03  0.00000000000E+00 0.  1.
         24    2    1    2    0    0 -0.45360431063E+02 -0.29015464770E+02 -0.15637987507E+03  0.18327939889E+03  0.78975988935E+02 0.  0.
        -13    1    3    3    0    0  0.20726706910E+02 -0.12151997787E+02 -0.64660837810E+02  0.68980369497E+02  0.00000000000E+00 0.  1.
         14    1    3    3    0    0 -0.66087137973E+02 -0.16863466982E+02 -0.91719037257E+02  0.11429902939E+03  0.00000000000E+00 0. -1.
         -2    1    1    2    0  502  0.45360431063E+02  0.29015464770E+02 -0.16692526893E+03  0.17539530014E+03  0.00000000000E+00 0.  1.
<mgrwt>
<rscale>  1 0.95585944E+02</rscale>
<asrwt>0</asrwt>
<pdfrwt beam="1">  1       21 0.27207353E-02 0.95585944E+02</pdfrwt>
<pdfrwt beam="2">  1       -1 0.52459982E-01 0.95585944E+02</pdfrwt>
<totfact> 0.24615401E+05</totfact>
</mgrwt>
</event>
<event>
 6    2  0.9453093E+000  0.7326654E+02  0.7546771E-02  0.1349325E+00
         21   -1    0    0  501  502  0.00000000000E+00  0.00000000000E+00  0.33062234906E+01  0.33062234906E+01  0.00000000000E+00 0.  1.
          2   -1    0    0  502    0 -0.00000000000E+00 -0.00000000000E+00 -0.82359881506E+03  0.82359881506E+03  0.00000000000E+00 0. -1.
         24    2    1    2    0    0 -0.24065491186E+02  0.19053306451E+02 -0.60995943557E+03  0.61434395823E+03  0.66526758713E+02 0.  0.
        -13    1    3    3    0    0 -0.40268604080E+02  0.27907951437E+01 -0.21751626223E+03  0.22122991060E+03  0.00000000000E+00 0.  1.
         14    1    3    3    0    0  0.16203112894E+02  0.16262511308E+02 -0.39244317334E+03  0.39311404763E+03  0.00000000000E+00 0. -1.
          1    1    1    2  501    0  0.24065491186E+02 -0.19053306451E+02 -0.21033315601E+03  0.21256108032E+03  0.00000000000E+00 0. -1.
<mgrwt>
<rscale>  1 0.73266541E+02</rscale>
<asrwt>0</asrwt>
<pdfrwt beam="1">  1       21 0.50864930E-03 0.73266541E+02</pdfrwt>
<pdfrwt beam="2">  1        2 0.12670763E+00 0.73266541E+02</pdfrwt>
<totfact> 0.42404565E+06</totfact>
</mgrwt>
</event>
<event>
 6    2  0.9453093E+000  0.8389390E+02  0.7546771E-02  0.1318351E+00
         21   -1    0    0  501  502  0.00000000000E+00  0.00000000000E+00  0.14647632919E+02  0.14647632919E+02  0.00000000000E+00 0. -1.
          2   -1    0    0  502    0 -0.00000000000E+00 -0.00000000000E+00 -0.36356775298E+03  0.36356775298E+03  0.00000000000E+00 0. -1.
         24    2    1    2    0    0 -0.20637885329E+02  0.13765995248E+02 -0.34245176298E+03  0.35257821407E+03  0.80142137044E+02 0.  0.
        -11    1    3    3    0    0 -0.21693692351E+02  0.90003379333E+01 -0.22292531120E+02  0.32381774418E+02  0.00000000000E+00 0.  1.
         12    1    3    3    0    0  0.10558070219E+01  0.47656573146E+01 -0.32015923187E+03  0.32019643965E+03  0.00000000000E+00 0. -1.
          1    1    1    2  501    0  0.20637885329E+02 -0.13765995248E+02 -0.64683570739E+01  0.25637171826E+02  0.00000000000E+00 0. -1.
<mgrwt>
<rscale>  1 0.83893904E+02</rscale>
<asrwt>0</asrwt>
<pdfrwt beam="1">  1       21 0.22534819E-02 0.83893904E+02</pdfrwt>
<pdfrwt beam="2">  1        2 0.55933501E-01 0.83893904E+02</pdfrwt>
<totfact> 0.10396270E+06</totfact>
</mgrwt>
</event>
<event>
 6    2  0.9453093E+000  0.9233813E+02  0.7546771E-02  0.1297286E+00
         21   -1    0    0  501  502  0.00000000000E+00  0.00000000000E+00  0.10100917239E+02  0.10100917239E+02  0.00000000000E+00 0. -1.
          2   -1    0    0  502    0 -0.00000000000E+00 -0.00000000000E+00 -0.64496869394E+03  0.64496869394E+03  0.00000000000E+00 0. -1.
         24    2    1    2    0    0 -0.13477334904E+02  0.43448871265E+02 -0.55925849274E+03  0.56683012574E+03  0.80354755732E+02 0.  0.
        -11    1    3    3    0    0 -0.19508767745E+02 -0.17096007750E+02 -0.90657882512E+02  0.94295902145E+02  0.00000000000E+00 0.  1.
         12    1    3    3    0    0  0.60314328411E+01  0.60544879016E+02 -0.46860061023E+03  0.47253422359E+03  0.00000000000E+00 0. -1.
          1    1    1    2  501    0  0.13477334904E+02 -0.43448871265E+02 -0.75609283959E+02  0.88239485442E+02  0.00000000000E+00 0. -1.
<mgrwt>
<rscale>  1 0.92338127E+02</rscale>
<asrwt>0</asrwt>
<pdfrwt beam="1">  1       21 0.15539870E-02 0.92338127E+02</pdfrwt>
<pdfrwt beam="2">  1        2 0.99225967E-01 0.92338127E+02</pdfrwt>
<totfact> 0.10222985E+06</totfact>
</mgrwt>
</event>
<event>
 6    2  0.9453093E+000  0.7384610E+02  0.7546771E-02  0.1347482E+00
         -3   -1    0    0    0  501 -0.00000000000E+00  0.00000000000E+00  0.42296068136E+03  0.42296068136E+03  0.00000000000E+00 0.  1.
         21   -1    0    0  501  502  0.00000000000E+00 -0.00000000000E+00 -0.67680581778E+01  0.67680581778E+01  0.00000000000E+00 0. -1.
         24    2    1    2    0    0 -0.26261980963E+02 -0.20245522897E+02  0.28633546528E+03  0.29570465849E+03  0.65982372918E+02 0.  0.
        -13    1    3    3    0    0 -0.78124159014E+01 -0.19343449874E+02  0.27070405549E+03  0.27150670075E+03  0.00000000000E+00 0.  1.
         14    1    3    3    0    0 -0.18449565062E+02 -0.90207302321E+00  0.15631409787E+02  0.24197957737E+02  0.00000000000E+00 0. -1.
         -4    1    1    2    0  502  0.26261980963E+02  0.20245522897E+02  0.12985715791E+03  0.13402408105E+03  0.00000000000E+00 0.  1.
<mgrwt>
<rscale>  1 0.73846099E+02</rscale>
<asrwt>0</asrwt>
<pdfrwt beam="1">  1       21 0.10412400E-02 0.73846099E+02</pdfrwt>
<pdfrwt beam="2">  1       -3 0.65070853E-01 0.73846099E+02</pdfrwt>
<totfact> 0.34811775E+05</totfact>
</mgrwt>
</event>
<event>
 6    2  0.9453093E+000  0.1312879E+03  0.7546771E-02  0.1225557E+00
          2   -1    0    0  502    0 -0.00000000000E+00  0.00000000000E+00  0.17432838784E+04  0.17432838784E+04  0.00000000000E+00 0. -1.
         21   -1    0    0  501  502  0.00000000000E+00 -0.00000000000E+00 -0.92425615426E+01  0.92425615426E+01  0.00000000000E+00 0. -1.
         24    2    1    2    0    0  0.30010670481E+02 -0.98877913728E+02  0.12879264171E+04  0.12946006971E+04  0.80987819595E+02 0.  0.
        -11    1    3    3    0    0 -0.25125233430E+02 -0.14328760482E+02  0.21502311986E+03  0.21695974928E+03  0.00000000000E+00 0.  1.
         12    1    3    3    0    0  0.55135903911E+02 -0.84549153245E+02  0.10729032972E+04  0.10776409478E+04  0.00000000000E+00 0. -1.
          1    1    1    2  501    0 -0.30010670481E+02  0.98877913728E+02  0.44611489980E+03  0.45792574287E+03  0.00000000000E+00 0. -1.
<mgrwt>
<rscale>  1 0.13128789E+03</rscale>
<asrwt>0</asrwt>
<pdfrwt beam="1">  1       21 0.14219339E-02 0.13128789E+03</pdfrwt>
<pdfrwt beam="2">  1        2 0.26819726E+00 0.13128789E+03</pdfrwt>
<totfact> 0.27913843E+05</totfact>
</mgrwt>
</event>
<event>
 6    2  0.9453093E+000  0.8490605E+02  0.7546771E-02  0.1315678E+00
          4   -1    0    0  502    0 -0.00000000000E+00  0.00000000000E+00  0.17314632376E+02  0.17314632376E+02  0.00000000000E+00 0. -1.
         21   -1    0    0  501  502  0.00000000000E+00 -0.00000000000E+00 -0.16676910475E+03  0.16676910475E+03  0.00000000000E+00 0. -1.
         24    2    1    2    0    0  0.51549529401E+01  0.21165834004E+02 -0.12726335657E+03  0.15298692556E+03  0.82063825152E+02 0.  0.
        -11    1    3    3    0    0  0.35438661195E+02 -0.12871672656E+02 -0.72768916194E+02  0.81956658231E+02  0.00000000000E+00 0.  1.
         12    1    3    3    0    0 -0.30283708255E+02  0.34037506660E+02 -0.54494440371E+02  0.71030267328E+02  0.00000000000E+00 0. -1.
          3    1    1    2  501    0 -0.51549529401E+01 -0.21165834004E+02 -0.22191115812E+02  0.31096811571E+02  0.00000000000E+00 0. -1.
<mgrwt>
<rscale>  1 0.84906051E+02</rscale>
<asrwt>0</asrwt>
<pdfrwt beam="1">  1       21 0.25656784E-01 0.84906051E+02</pdfrwt>
<pdfrwt beam="2">  1        4 0.26637897E-02 0.84906051E+02</pdfrwt>
<totfact> 0.34675221E+05</totfact>
</mgrwt>
</event>
<event>
 6    2  0.9453093E+000  0.7664561E+02  0.7546771E-02  0.1338850E+00
          4   -1    0    0  502    0 -0.00000000000E+00  0.00000000000E+00  0.90370974994E+02  0.90370974994E+02  0.00000000000E+00 0. -1.
         21   -1    0    0  501  502  0.00000000000E+00 -0.00000000000E+00 -0.35539913148E+02  0.35539913148E+02  0.00000000000E+00 0. -1.
         24    2    1    2    0    0  0.30637486427E+02  0.20013341470E+02  0.39622667047E+02  0.86281546945E+02  0.67345082879E+02 0.  0.
        -11    1    3    3    0    0  0.25228615864E+02  0.38999503683E+02  0.53841393017E+01  0.46759312462E+02  0.00000000000E+00 0.  1.
         12    1    3    3    0    0  0.54088705633E+01 -0.18986162213E+02  0.34238527746E+02  0.39522234483E+02  0.00000000000E+00 0. -1.
          3    1    1    2  501    0 -0.30637486427E+02 -0.20013341470E+02  0.15208394799E+02  0.39629341197E+02  0.00000000000E+00 0. -1.
<mgrwt>
<rscale>  1 0.76645610E+02</rscale>
<asrwt>0</asrwt>
<pdfrwt beam="1">  1       21 0.54676790E-02 0.76645610E+02</pdfrwt>
<pdfrwt beam="2">  1        4 0.13903227E-01 0.76645610E+02</pdfrwt>
<totfact> 0.35542706E+05</totfact>
</mgrwt>
</event>
<event>
 6    2  0.9453093E+000  0.1054792E+03  0.7546771E-02  0.1269178E+00
         -1   -1    0    0    0  501 -0.00000000000E+00  0.00000000000E+00  0.42147255180E+03  0.42147255180E+03  0.00000000000E+00 0.  1.
         21   -1    0    0  501  502  0.00000000000E+00 -0.00000000000E+00 -0.32917008366E+02  0.32917008366E+02  0.00000000000E+00 0.  1.
         24    2    1    2    0    0  0.21758025490E+02 -0.51367504132E+02  0.38422025444E+03  0.39843576776E+03  0.89519969591E+02 0.  0.
        -13    1    3    3    0    0  0.65697748532E+01 -0.41426949582E+01  0.30411476641E+03  0.30421392968E+03  0.00000000000E+00 0.  1.
         14    1    3    3    0    0  0.15188250637E+02 -0.47224809174E+02  0.80105488036E+02  0.94221838086E+02  0.00000000000E+00 0. -1.
         -2    1    1    2    0  502 -0.21758025490E+02  0.51367504132E+02  0.43352889966E+01  0.55953792407E+02  0.00000000000E+00 0.  1.
<mgrwt>
<rscale>  1 0.10547918E+03</rscale>
<asrwt>0</asrwt>
<pdfrwt beam="1">  1       21 0.50641554E-02 0.10547918E+03</pdfrwt>
<pdfrwt beam="2">  1       -1 0.64841927E-01 0.10547918E+03</pdfrwt>
<totfact> 0.59911897E+04</totfact>
</mgrwt>
</event>
<event>
 6    2  0.9453093E+000  0.1085470E+03  0.7546771E-02  0.1263284E+00
          2   -1    0    0  502    0 -0.00000000000E+00  0.00000000000E+00  0.14348218647E+04  0.14348218647E+04  0.00000000000E+00 0. -1.
         21   -1    0    0  501  502  0.00000000000E+00 -0.00000000000E+00 -0.67370884230E+01  0.67370884230E+01  0.00000000000E+00 0. -1.
         24    2    1    2    0    0 -0.27059998038E+00 -0.74755405370E+02  0.10854461713E+04  0.10908601401E+04  0.78702036495E+02 0.  0.
        -11    1    3    3    0    0  0.29784023123E+02 -0.56770013065E+01  0.20982955854E+03  0.21200886778E+03  0.00000000000E+00 0.  1.
         12    1    3    3    0    0 -0.30054623104E+02 -0.69078404064E+02  0.87561661276E+03  0.87885127229E+03  0.00000000000E+00 0. -1.
          1    1    1    2  501    0  0.27059998038E+00  0.74755405370E+02  0.34263860502E+03  0.35069881309E+03  0.00000000000E+00 0. -1.
<mgrwt>
<rscale>  1 0.10854701E+03</rscale>
<asrwt>0</asrwt>
<pdfrwt beam="1">  1       21 0.10364763E-02 0.10854701E+03</pdfrwt>
<pdfrwt beam="2">  1        2 0.22074158E+00 0.10854701E+03</pdfrwt>
<totfact> 0.65935282E+05</totfact>
</mgrwt>
</event>
<event>
 6    2  0.9453093E+000  0.8636536E+02  0.7546771E-02  0.1311900E+00
         21   -1    0    0  501  502  0.00000000000E+00  0.00000000000E+00  0.51448666964E+01  0.51448666964E+01  0.00000000000E+00 0. -1.
          2   -1    0    0  502    0 -0.00000000000E+00 -0.00000000000E+00 -0.13557192435E+04  0.13557192435E+04  0.00000000000E+00 0. -1.
         24    2    1    2    0    0 -0.25266884446E+02  0.20000356600E+02 -0.12839943775E+04  0.12868956979E+04  0.80128309957E+02 0.  0.
        -13    1    3    3    0    0 -0.32935053371E+02  0.33301208001E+02 -0.39476084389E+03  0.39752963671E+03  0.00000000000E+00 0.  1.
         14    1    3    3    0    0  0.76681689244E+01 -0.13300851401E+02 -0.88923353361E+03  0.88936606117E+03  0.00000000000E+00 0. -1.
          1    1    1    2  501    0  0.25266884446E+02 -0.20000356600E+02 -0.66579999331E+02  0.73968412344E+02  0.00000000000E+00 0. -1.
<mgrwt>
<rscale>  1 0.86365362E+02</rscale>
<asrwt>0</asrwt>
<pdfrwt beam="1">  1       21 0.79151714E-03 0.86365362E+02</pdfrwt>
<pdfrwt beam="2">  1        2 0.20857241E+00 0.86365362E+02</pdfrwt>
<totfact> 0.10893814E+06</totfact>
</mgrwt>
</event>
<event>
 6    2  0.9453093E+000  0.8695884E+02  0.7546771E-02  0.1310388E+00
         21   -1    0    0  501  502  0.00000000000E+00  0.00000000000E+00  0.51699310212E+03  0.51699310212E+03  0.00000000000E+00 0.  1.
          2   -1    0    0  502    0 -0.00000000000E+00 -0.00000000000E+00 -0.10478088991E+02  0.10478088991E+02  0.00000000000E+00 0. -1.
         24    2    1    2    0    0  0.17039753920E+02 -0.26901160597E+02  0.18539157036E+03  0.20477273876E+03  0.80918567232E+02 0.  0.
        -11    1    3    3    0    0 -0.16885097956E+02 -0.36079992691E+02  0.14878889463E+03  0.15402924259E+03  0.00000000000E+00 0.  1.
         12    1    3    3    0    0  0.33924851876E+02  0.91788320943E+01  0.36602675729E+02  0.50743496173E+02  0.00000000000E+00 0. -1.
          1    1    1    2  501    0 -0.17039753920E+02  0.26901160597E+02  0.32112344277E+03  0.32269845235E+03  0.00000000000E+00 0. -1.
<mgrwt>
<rscale>  1 0.86958842E+02</rscale>
<asrwt>0</asrwt>
<pdfrwt beam="1">  1       21 0.79537381E-01 0.86958842E+02</pdfrwt>
<pdfrwt beam="2">  1        2 0.16120141E-02 0.86958842E+02</pdfrwt>
<totfact> 0.11770497E+05</totfact>
</mgrwt>
</event>
<event>
 6    2  0.9453093E+000  0.9401143E+02  0.7546771E-02  0.1293418E+00
         21   -1    0    0  501  502  0.00000000000E+00  0.00000000000E+00  0.33464789476E+02  0.33464789476E+02  0.00000000000E+00 0.  1.
         -1   -1    0    0    0  501 -0.00000000000E+00 -0.00000000000E+00 -0.15145567458E+03  0.15145567458E+03  0.00000000000E+00 0.  1.
         24    2    1    2    0    0 -0.24289118128E+02 -0.39094898655E+02 -0.94295499699E+02  0.13315325774E+03  0.81974242440E+02 0.  0.
        -13    1    3    3    0    0 -0.17364881141E+02 -0.58614813775E+02 -0.94370813835E+02  0.11244147809E+03  0.00000000000E+00 0.  1.
         14    1    3    3    0    0 -0.69242369864E+01  0.19519915120E+02  0.75314136539E-01  0.20711779652E+02  0.00000000000E+00 0. -1.
         -2    1    1    2    0  502  0.24289118128E+02  0.39094898655E+02 -0.23695385408E+02  0.51767206318E+02  0.00000000000E+00 0.  1.
<mgrwt>
<rscale>  1 0.94011429E+02</rscale>
<asrwt>0</asrwt>
<pdfrwt beam="1">  1       21 0.51484292E-02 0.94011429E+02</pdfrwt>
<pdfrwt beam="2">  1       -1 0.23300873E-01 0.94011429E+02</pdfrwt>
<totfact> 0.34413867E+05</totfact>
</mgrwt>
</event>
<event>
 6    2  0.9453093E+000  0.8170079E+02  0.7546771E-02  0.1324293E+00
          2   -1    0    0  502    0 -0.00000000000E+00  0.00000000000E+00  0.73337674275E+03  0.73337674275E+03  0.00000000000E+00 0. -1.
         21   -1    0    0  501  502  0.00000000000E+00 -0.00000000000E+00 -0.20306321645E+02  0.20306321645E+02  0.00000000000E+00 0. -1.
         24    2    1    2    0    0  0.25346955227E+02  0.79209160402E+00  0.72214277525E+03  0.72674975495E+03  0.77665455139E+02 0.  0.
        -13    1    3    3    0    0  0.26943107413E+02  0.35427854204E+02  0.31431661206E+03  0.31745235313E+03  0.00000000000E+00 0.  1.
         14    1    3    3    0    0 -0.15961521862E+01 -0.34635762600E+02  0.40782616319E+03  0.40929740182E+03  0.00000000000E+00 0. -1.
          1    1    1    2  501    0 -0.25346955227E+02 -0.79209160402E+00 -0.90723541413E+01  0.26933309452E+02  0.00000000000E+00 0. -1.
<mgrwt>
<rscale>  1 0.81700786E+02</rscale>
<asrwt>0</asrwt>
<pdfrwt beam="1">  1       21 0.31240501E-02 0.81700786E+02</pdfrwt>
<pdfrwt beam="2">  1        2 0.11282717E+00 0.81700786E+02</pdfrwt>
<totfact> 0.28469513E+05</totfact>
</mgrwt>
</event>
<event>
 6    2  0.9453093E+000  0.8708553E+02  0.7546771E-02  0.1310067E+00
          2   -1    0    0  502    0 -0.00000000000E+00  0.00000000000E+00  0.19044150000E+04  0.19044150000E+04  0.00000000000E+00 0. -1.
         21   -1    0    0  501  502  0.00000000000E+00 -0.00000000000E+00 -0.13601850548E+02  0.13601850548E+02  0.00000000000E+00 0. -1.
         24    2    1    2    0    0  0.27708468857E+02  0.10314310700E+01  0.18881548402E+04  0.18901620538E+04  0.82553411493E+02 0.  0.
        -11    1    3    3    0    0  0.20733538746E+02  0.41222870939E+02  0.10573375692E+04  0.10583439611E+04  0.00000000000E+00 0.  1.
         12    1    3    3    0    0  0.69749301112E+01 -0.40191439869E+02  0.83081727099E+03  0.83181809265E+03  0.00000000000E+00 0. -1.
          1    1    1    2  501    0 -0.27708468857E+02 -0.10314310700E+01  0.26583092432E+01  0.27854796795E+02  0.00000000000E+00 0. -1.
<mgrwt>
<rscale>  1 0.87085526E+02</rscale>
<asrwt>0</asrwt>
<pdfrwt beam="1">  1       21 0.20925939E-02 0.87085526E+02</pdfrwt>
<pdfrwt beam="2">  1        2 0.29298671E+00 0.87085526E+02</pdfrwt>
<totfact> 0.12442741E+05</totfact>
</mgrwt>
</event>
<event>
 6    2  0.9453093E+000  0.8374939E+02  0.7546771E-02  0.1318736E+00
         21   -1    0    0  501  502  0.00000000000E+00  0.00000000000E+00  0.20061601227E+01  0.20061601227E+01  0.00000000000E+00 0.  1.
          2   -1    0    0  502    0 -0.00000000000E+00 -0.00000000000E+00 -0.15658731467E+04  0.15658731467E+04  0.00000000000E+00 0. -1.
         24    2    1    2    0    0  0.13976824500E+02 -0.17989057412E+02 -0.13908277000E+04  0.13933469245E+04  0.80591580700E+02 0.  0.
        -13    1    3    3    0    0 -0.26771396402E+01 -0.40077130169E+02 -0.37544309403E+03  0.37758556685E+03  0.00000000000E+00 0.  1.
         14    1    3    3    0    0  0.16653964140E+02  0.22088072757E+02 -0.10153846060E+04  0.10157613576E+04  0.00000000000E+00 0. -1.
          1    1    1    2  501    0 -0.13976824500E+02  0.17989057412E+02 -0.17303928655E+03  0.17453238238E+03  0.00000000000E+00 0. -1.
<mgrwt>
<rscale>  1 0.83749392E+02</rscale>
<asrwt>0</asrwt>
<pdfrwt beam="1">  1       21 0.30864013E-03 0.83749392E+02</pdfrwt>
<pdfrwt beam="2">  1        2 0.24090347E+00 0.83749392E+02</pdfrwt>
<totfact> 0.35827853E+06</totfact>
</mgrwt>
</event>
<event>
 6    2  0.9453093E+000  0.8426657E+02  0.7546771E-02  0.1317362E+00
         21   -1    0    0  501  502  0.00000000000E+00  0.00000000000E+00  0.57652249714E+01  0.57652249714E+01  0.00000000000E+00 0. -1.
          2   -1    0    0  502    0 -0.00000000000E+00 -0.00000000000E+00 -0.86503889141E+03  0.86503889141E+03  0.00000000000E+00 0. -1.
         24    2    1    2    0    0  0.17570345916E+02  0.22440740324E+02 -0.80593483608E+03  0.81032821452E+03  0.79300386879E+02 0.  0.
        -13    1    3    3    0    0 -0.29315417236E+02  0.16688099774E+01 -0.18918443913E+03  0.19144955112E+03  0.00000000000E+00 0.  1.
         14    1    3    3    0    0  0.46885763153E+02  0.20771930347E+02 -0.61675039694E+03  0.61887866340E+03  0.00000000000E+00 0. -1.
          1    1    1    2  501    0 -0.17570345916E+02 -0.22440740324E+02 -0.53338830363E+02  0.60475901865E+02  0.00000000000E+00 0. -1.
<mgrwt>
<rscale>  1 0.84266573E+02</rscale>
<asrwt>0</asrwt>
<pdfrwt beam="1">  1       21 0.88695771E-03 0.84266573E+02</pdfrwt>
<pdfrwt beam="2">  1        2 0.13308290E+00 0.84266573E+02</pdfrwt>
<totfact> 0.17222379E+06</totfact>
</mgrwt>
</event>
<event>
 6    2  0.9453093E+000  0.9070048E+02  0.7546771E-02  0.1301164E+00
         -1   -1    0    0    0  501 -0.00000000000E+00  0.00000000000E+00  0.99544625565E+03  0.99544625565E+03  0.00000000000E+00 0.  1.
         21   -1    0    0  501  502  0.00000000000E+00 -0.00000000000E+00 -0.45065426129E+01  0.45065426129E+01  0.00000000000E+00 0. -1.
         24    2    1    2    0    0  0.10709038417E+02  0.39616519211E+02  0.76024246371E+03  0.76563384268E+03  0.80885260285E+02 0.  0.
        -11    1    3    3    0    0  0.33079191098E+02 -0.75261668430E+01  0.42532430433E+03  0.42667509878E+03  0.00000000000E+00 0.  1.
         12    1    3    3    0    0 -0.22370152681E+02  0.47142686054E+02  0.33491815938E+03  0.33895874390E+03  0.00000000000E+00 0. -1.
         -2    1    1    2    0  502 -0.10709038417E+02 -0.39616519211E+02  0.23069724933E+03  0.23431895558E+03  0.00000000000E+00 0.  1.
<mgrwt>
<rscale>  1 0.90700482E+02</rscale>
<asrwt>0</asrwt>
<pdfrwt beam="1">  1       21 0.69331504E-03 0.90700482E+02</pdfrwt>
<pdfrwt beam="2">  1       -1 0.15314540E+00 0.90700482E+02</pdfrwt>
<totfact> 0.21630689E+05</totfact>
</mgrwt>
</event>
<event>
 6    2  0.9453093E+000  0.8639789E+02  0.7546771E-02  0.1311817E+00
         21   -1    0    0  501  502  0.00000000000E+00  0.00000000000E+00  0.71194415001E+01  0.71194415001E+01  0.00000000000E+00 0. -1.
          2   -1    0    0  502    0 -0.00000000000E+00 -0.00000000000E+00 -0.28196774697E+04  0.28196774697E+04  0.00000000000E+00 0. -1.
         24    2    1    2    0    0 -0.21931801286E+02  0.23473812422E+02 -0.27789933039E+04  0.27803360191E+04  0.80203318123E+02 0.  0.
        -13    1    3    3    0    0 -0.33516715860E+02  0.22551877913E+02 -0.62155703865E+03  0.62286845300E+03  0.00000000000E+00 0.  1.
         14    1    3    3    0    0  0.11584914574E+02  0.92193450899E+00 -0.21574362653E+04  0.21574675661E+04  0.00000000000E+00 0. -1.
          1    1    1    2  501    0  0.21931801286E+02 -0.23473812422E+02 -0.33564724316E+02  0.46460892110E+02  0.00000000000E+00 0. -1.
<mgrwt>
<rscale>  1 0.86397894E+02</rscale>
<asrwt>0</asrwt>
<pdfrwt beam="1">  1       21 0.10952973E-02 0.86397894E+02</pdfrwt>
<pdfrwt beam="2">  1        2 0.43379707E+00 0.86397894E+02</pdfrwt>
<totfact> 0.11623002E+05</totfact>
</mgrwt>
</event>
<event>
 6    2  0.9453093E+000  0.8126809E+02  0.7546771E-02  0.1325491E+00
          4   -1    0    0  502    0 -0.00000000000E+00  0.00000000000E+00  0.16582922572E+02  0.16582922572E+02  0.00000000000E+00 0. -1.
         21   -1    0    0  501  502  0.00000000000E+00 -0.00000000000E+00 -0.16469549066E+03  0.16469549066E+03  0.00000000000E+00 0.  1.
         24    2    1    2    0    0  0.21670389566E+02 -0.31414923981E+01 -0.10360246307E+03  0.13167373394E+03  0.78262552338E+02 0.  0.
        -11    1    3    3    0    0  0.18994964952E+02 -0.32494270636E+02 -0.93038086883E+02  0.10036320007E+03  0.00000000000E+00 0.  1.
         12    1    3    3    0    0  0.26754246139E+01  0.29352778238E+02 -0.10564376184E+02  0.31310533871E+02  0.00000000000E+00 0. -1.
          3    1    1    2  501    0 -0.21670389566E+02  0.31414923981E+01 -0.44510105022E+02  0.49604679291E+02  0.00000000000E+00 0. -1.
<mgrwt>
<rscale>  1 0.81268086E+02</rscale>
<asrwt>0</asrwt>
<pdfrwt beam="1">  1       21 0.25337767E-01 0.81268086E+02</pdfrwt>
<pdfrwt beam="2">  1        4 0.25512190E-02 0.81268086E+02</pdfrwt>
<totfact> 0.37618977E+05</totfact>
</mgrwt>
</event>
<event>
 6    2  0.9453093E+000  0.8759909E+02  0.7546771E-02  0.1308772E+00
         21   -1    0    0  501  502  0.00000000000E+00  0.00000000000E+00  0.30450390132E+01  0.30450390132E+01  0.00000000000E+00 0. -1.
          2   -1    0    0  502    0 -0.00000000000E+00 -0.00000000000E+00 -0.23727182062E+04  0.23727182062E+04  0.00000000000E+00 0. -1.
         24    2    1    2    0    0 -0.26044157295E+02  0.15993563269E+02 -0.22656585989E+04  0.22673514257E+04  0.82094510408E+02 0.  0.
        -11    1    3    3    0    0 -0.35888508245E+02  0.32225902772E+02 -0.73783562340E+03  0.73941050912E+03  0.00000000000E+00 0.  1.
         12    1    3    3    0    0  0.98443509505E+01 -0.16232339503E+02 -0.15278229755E+04  0.15279409166E+04  0.00000000000E+00 0. -1.
          1    1    1    2  501    0  0.26044157295E+02 -0.15993563269E+02 -0.10401456829E+03  0.10841181952E+03  0.00000000000E+00 0. -1.
<mgrwt>
<rscale>  1 0.87599092E+02</rscale>
<asrwt>0</asrwt>
<pdfrwt beam="1">  1       21 0.46846852E-03 0.87599092E+02</pdfrwt>
<pdfrwt beam="2">  1        2 0.36503280E+00 0.87599092E+02</pdfrwt>
<totfact> 0.74704505E+05</totfact>
</mgrwt>
</event>
<event>
 6    2  0.9453093E+000  0.1118277E+03  0.7546771E-02  0.1257222E+00
         21   -1    0    0  501  502  0.00000000000E+00  0.00000000000E+00  0.99864837557E+02  0.99864837557E+02  0.00000000000E+00 0. -1.
         -1   -1    0    0    0  501 -0.00000000000E+00 -0.00000000000E+00 -0.88271184813E+02  0.88271184813E+02  0.00000000000E+00 0.  1.
         24    2    1    2    0    0 -0.69585939375E+02 -0.29901488730E+02  0.25208188626E+01  0.11185615411E+03  0.82274799895E+02 0.  0.
        -13    1    3    3    0    0  0.18503141066E+02  0.78152237994E+00 -0.51671379011E+00  0.18526845379E+02  0.00000000000E+00 0.  1.
         14    1    3    3    0    0 -0.88089080441E+02 -0.30683011110E+02  0.30375326527E+01  0.93329308732E+02  0.00000000000E+00 0. -1.
         -2    1    1    2    0  502  0.69585939375E+02  0.29901488730E+02  0.90728338817E+01  0.76279868259E+02  0.00000000000E+00 0.  1.
<mgrwt>
<rscale>  1 0.11182775E+03</rscale>
<asrwt>0</asrwt>
<pdfrwt beam="1">  1       21 0.15363821E-01 0.11182775E+03</pdfrwt>
<pdfrwt beam="2">  1       -1 0.13580182E-01 0.11182775E+03</pdfrwt>
<totfact> 0.12363708E+05</totfact>
</mgrwt>
</event>
<event>
 6    2  0.9453093E+000  0.8382968E+02  0.7546771E-02  0.1318522E+00
         21   -1    0    0  501  502  0.00000000000E+00  0.00000000000E+00  0.27209868227E+02  0.27209868227E+02  0.00000000000E+00 0. -1.
          2   -1    0    0  502    0 -0.00000000000E+00 -0.00000000000E+00 -0.11281296570E+03  0.11281296570E+03  0.00000000000E+00 0. -1.
         24    2    1    2    0    0  0.15568126524E+02  0.18642736895E+02 -0.78174357518E+02  0.11462392884E+03  0.80234012034E+02 0.  0.
        -13    1    3    3    0    0  0.31763401653E+02 -0.10713677076E+02 -0.46843770027E+01  0.33847303422E+02  0.00000000000E+00 0.  1.
         14    1    3    3    0    0 -0.16195275129E+02  0.29356413971E+02 -0.73489980515E+02  0.80776625418E+02  0.00000000000E+00 0. -1.
          1    1    1    2  501    0 -0.15568126524E+02 -0.18642736895E+02 -0.74287399579E+01  0.25398905090E+02  0.00000000000E+00 0. -1.
<mgrwt>
<rscale>  1 0.83829678E+02</rscale>
<asrwt>0</asrwt>
<pdfrwt beam="1">  1       21 0.41861337E-02 0.83829678E+02</pdfrwt>
<pdfrwt beam="2">  1        2 0.17355841E-01 0.83829678E+02</pdfrwt>
<totfact> 0.13322905E+06</totfact>
</mgrwt>
</event>
<event>
 6    2  0.9453093E+000  0.8617328E+02  0.7546771E-02  0.1312392E+00
          2   -1    0    0  502    0 -0.00000000000E+00  0.00000000000E+00  0.23635400176E+04  0.23635400176E+04  0.00000000000E+00 0. -1.
         21   -1    0    0  501  502  0.00000000000E+00 -0.00000000000E+00 -0.19644803229E+01  0.19644803229E+01  0.00000000000E+00 0. -1.
         24    2    1    2    0    0  0.23831452624E+02  0.19899797850E+02  0.21433326939E+04  0.21450643047E+04  0.80385910491E+02 0.  0.
        -13    1    3    3    0    0 -0.15049548928E+02 -0.23445232097E+02  0.73901897592E+03  0.73954392338E+03  0.00000000000E+00 0.  1.
         14    1    3    3    0    0  0.38881001553E+02  0.43345029946E+02  0.14043137180E+04  0.14055203814E+04  0.00000000000E+00 0. -1.
          1    1    1    2  501    0 -0.23831452624E+02 -0.19899797850E+02  0.21824284333E+03  0.22044019315E+03  0.00000000000E+00 0. -1.
<mgrwt>
<rscale>  1 0.86173283E+02</rscale>
<asrwt>0</asrwt>
<pdfrwt beam="1">  1       21 0.30222963E-03 0.86173283E+02</pdfrwt>
<pdfrwt beam="2">  1        2 0.36361927E+00 0.86173283E+02</pdfrwt>
<totfact> 0.14692692E+06</totfact>
</mgrwt>
</event>
<event>
 6    2  0.9453093E+000  0.8013586E+02  0.7546771E-02  0.1328666E+00
         21   -1    0    0  501  502  0.00000000000E+00  0.00000000000E+00  0.23551832145E+01  0.23551832145E+01  0.00000000000E+00 0.  1.
          2   -1    0    0  502    0 -0.00000000000E+00 -0.00000000000E+00 -0.10858290408E+04  0.10858290408E+04  0.00000000000E+00 0. -1.
         24    2    1    2    0    0  0.30067868092E+01 -0.20009967009E+02 -0.80616704055E+03  0.81014014420E+03  0.77539128352E+02 0.  0.
        -11    1    3    3    0    0 -0.26475724504E+02  0.78017387747E+01 -0.13733394871E+03  0.14008013629E+03  0.00000000000E+00 0.  1.
         12    1    3    3    0    0  0.29482511313E+02 -0.27811705783E+02 -0.66883309185E+03  0.67006000791E+03  0.00000000000E+00 0. -1.
          1    1    1    2  501    0 -0.30067868092E+01  0.20009967009E+02 -0.27730681701E+03  0.27804407979E+03  0.00000000000E+00 0. -1.
<mgrwt>
<rscale>  1 0.80135859E+02</rscale>
<asrwt>0</asrwt>
<pdfrwt beam="1">  1       21 0.36233559E-03 0.80135859E+02</pdfrwt>
<pdfrwt beam="2">  1        2 0.16705075E+00 0.80135859E+02</pdfrwt>
<totfact> 0.50062046E+06</totfact>
</mgrwt>
</event>
<event>
 6    2  0.9453093E+000  0.8866854E+02  0.7546771E-02  0.1306108E+00
          2   -1    0    0  502    0 -0.00000000000E+00  0.00000000000E+00  0.24495600257E+03  0.24495600257E+03  0.00000000000E+00 0. -1.
         21   -1    0    0  501  502  0.00000000000E+00 -0.00000000000E+00 -0.20013992635E+02  0.20013992635E+02  0.00000000000E+00 0. -1.
         24    2    1    2    0    0  0.34511013763E+02 -0.26391410195E+02  0.10516156269E+03  0.13755385751E+03  0.77295490458E+02 0.  0.
        -13    1    3    3    0    0  0.43366356497E+02  0.14251062818E+02  0.42678672256E+02  0.62491621301E+02  0.00000000000E+00 0.  1.
         14    1    3    3    0    0 -0.88553427344E+01 -0.40642473013E+02  0.62482890434E+02  0.75062236208E+02  0.00000000000E+00 0. -1.
          1    1    1    2  501    0 -0.34511013763E+02  0.26391410195E+02  0.11978044725E+03  0.12741613770E+03  0.00000000000E+00 0. -1.
<mgrwt>
<rscale>  1 0.88668537E+02</rscale>
<asrwt>0</asrwt>
<pdfrwt beam="1">  1       21 0.30790760E-02 0.88668537E+02</pdfrwt>
<pdfrwt beam="2">  1        2 0.37685537E-01 0.88668537E+02</pdfrwt>
<totfact> 0.95418331E+05</totfact>
</mgrwt>
</event>
<event>
 6    2  0.1547905E+001  0.8655389E+02  0.7546771E-02  0.1311418E+00
         -1   -1    0    0    0  501 -0.00000000000E+00  0.00000000000E+00  0.79308077188E+03  0.79308077188E+03  0.00000000000E+00 0.  1.
         21   -1    0    0  501  502  0.00000000000E+00 -0.00000000000E+00 -0.14482454170E+02  0.14482454170E+02  0.00000000000E+00 0.  1.
         24    2    1    2    0    0  0.56738048525E+01  0.31424402433E+02  0.76951017530E+03  0.77436263175E+03  0.80448060409E+02 0.  0.
        -13    1    3    3    0    0  0.18776257370E+01  0.22545379086E+02  0.76144523439E+03  0.76178124457E+03  0.00000000000E+00 0.  1.
         14    1    3    3    0    0  0.37961791155E+01  0.88790233469E+01  0.80649409083E+01  0.12581387178E+02  0.00000000000E+00 0. -1.
         -2    1    1    2    0  502 -0.56738048525E+01 -0.31424402433E+02  0.90881424098E+01  0.33200594305E+02  0.00000000000E+00 0.  1.
<mgrwt>
<rscale>  1 0.86553888E+02</rscale>
<asrwt>0</asrwt>
<pdfrwt beam="1">  1       21 0.22280705E-02 0.86553888E+02</pdfrwt>
<pdfrwt beam="2">  1       -1 0.12201239E+00 0.86553888E+02</pdfrwt>
<totfact> 0.60040734E+04</totfact>
</mgrwt>
</event>
<event>
 6    2  0.9453093E+000  0.8720234E+02  0.7546771E-02  0.1309772E+00
         21   -1    0    0  501  502  0.00000000000E+00  0.00000000000E+00  0.67974039434E+01  0.67974039434E+01  0.00000000000E+00 0.  1.
          2   -1    0    0  502    0 -0.00000000000E+00 -0.00000000000E+00 -0.88174075697E+03  0.88174075697E+03  0.00000000000E+00 0. -1.
         24    2    1    2    0    0  0.29090522397E+02  0.11116661024E+02 -0.82557750686E+03  0.83017014387E+03  0.81451883324E+02 0.  0.
        -13    1    3    3    0    0  0.37406402973E+02  0.39896875099E+02 -0.62207664154E+03  0.62447605845E+03  0.00000000000E+00 0.  1.
         14    1    3    3    0    0 -0.83158805762E+01 -0.28780214075E+02 -0.20350086532E+03  0.20569408542E+03  0.00000000000E+00 0. -1.
          1    1    1    2  501    0 -0.29090522397E+02 -0.11116661024E+02 -0.49365846166E+02  0.58368017041E+02  0.00000000000E+00 0. -1.
<mgrwt>
<rscale>  1 0.87202339E+02</rscale>
<asrwt>0</asrwt>
<pdfrwt beam="1">  1       21 0.10457550E-02 0.87202339E+02</pdfrwt>
<pdfrwt beam="2">  1        2 0.13565236E+00 0.87202339E+02</pdfrwt>
<totfact> 0.13046897E+06</totfact>
</mgrwt>
</event>
<event>
 6    2  0.9453093E+000  0.9328329E+02  0.7546771E-02  0.1295090E+00
         -1   -1    0    0    0  501 -0.00000000000E+00  0.00000000000E+00  0.42741292787E+03  0.42741292787E+03  0.00000000000E+00 0.  1.
         21   -1    0    0  501  502  0.00000000000E+00 -0.00000000000E+00 -0.12334889397E+02  0.12334889397E+02  0.00000000000E+00 0.  1.
         24    2    1    2    0    0 -0.42556972963E+02  0.33930747623E+01  0.34759405491E+03  0.35989359420E+03  0.82940721203E+02 0.  0.
        -11    1    3    3    0    0 -0.59652541492E+02  0.25565925082E+02  0.25726460327E+03  0.26532455281E+03  0.00000000000E+00 0.  1.
         12    1    3    3    0    0  0.17095568529E+02 -0.22172850320E+02  0.90329451641E+02  0.94569041385E+02  0.00000000000E+00 0. -1.
         -2    1    1    2    0  502  0.42556972963E+02 -0.33930747623E+01  0.67483983566E+02  0.79854223070E+02  0.00000000000E+00 0.  1.
<mgrwt>
<rscale>  1 0.93283290E+02</rscale>
<asrwt>0</asrwt>
<pdfrwt beam="1">  1       21 0.18976756E-02 0.93283290E+02</pdfrwt>
<pdfrwt beam="2">  1       -1 0.65755823E-01 0.93283290E+02</pdfrwt>
<totfact> 0.28731927E+05</totfact>
</mgrwt>
</event>
<event>
 6    2  0.9453093E+000  0.9849010E+02  0.7546771E-02  0.1283503E+00
         21   -1    0    0  501  502  0.00000000000E+00  0.00000000000E+00  0.24184093915E+02  0.24184093915E+02  0.00000000000E+00 0. -1.
          2   -1    0    0  502    0 -0.00000000000E+00 -0.00000000000E+00 -0.26209123304E+03  0.26209123304E+03  0.00000000000E+00 0. -1.
         24    2    1    2    0    0  0.48058807792E+02  0.30365055801E+02 -0.17965658668E+03  0.20488237591E+03  0.80427689262E+02 0.  0.
        -13    1    3    3    0    0  0.42017509571E+02 -0.17214809279E+02 -0.12021087432E+03  0.12850087577E+03  0.00000000000E+00 0.  1.
         14    1    3    3    0    0  0.60412982205E+01  0.47579865080E+02 -0.59445712360E+02  0.76381500137E+02  0.00000000000E+00 0. -1.
          1    1    1    2  501    0 -0.48058807792E+02 -0.30365055801E+02 -0.58250552450E+02  0.81392951051E+02  0.00000000000E+00 0. -1.
<mgrwt>
<rscale>  1 0.98490095E+02</rscale>
<asrwt>0</asrwt>
<pdfrwt beam="1">  1       21 0.37206298E-02 0.98490095E+02</pdfrwt>
<pdfrwt beam="2">  1        2 0.40321728E-01 0.98490095E+02</pdfrwt>
<totfact> 0.65873038E+05</totfact>
</mgrwt>
</event>
<event>
 6    2  0.9453093E+000  0.9244557E+02  0.7546771E-02  0.1297035E+00
         21   -1    0    0  501  502  0.00000000000E+00  0.00000000000E+00  0.13787123307E+03  0.13787123307E+03  0.00000000000E+00 0.  1.
         -3   -1    0    0    0  501 -0.00000000000E+00 -0.00000000000E+00 -0.55834719557E+02  0.55834719557E+02  0.00000000000E+00 0.  1.
         24    2    1    2    0    0 -0.33626272188E+02  0.33668195067E+02  0.10581612305E+03  0.14051062040E+03  0.79258494850E+02 0.  0.
        -13    1    3    3    0    0  0.16120153692E+02  0.36311614687E+02  0.29961306730E+02  0.49760150896E+02  0.00000000000E+00 0.  1.
         14    1    3    3    0    0 -0.49746425880E+02 -0.26434196205E+01  0.75854816324E+02  0.90750469501E+02  0.00000000000E+00 0. -1.
         -4    1    1    2    0  502  0.33626272188E+02 -0.33668195067E+02 -0.23779609547E+02  0.53195332225E+02  0.00000000000E+00 0.  1.
<mgrwt>
<rscale>  1 0.92445565E+02</rscale>
<asrwt>0</asrwt>
<pdfrwt beam="1">  1       21 0.21210959E-01 0.92445565E+02</pdfrwt>
<pdfrwt beam="2">  1       -3 0.85899569E-02 0.92445565E+02</pdfrwt>
<totfact> 0.89437998E+04</totfact>
</mgrwt>
</event>
<event>
 6    2  0.9453093E+000  0.9387608E+02  0.7546771E-02  0.1293728E+00
         -3   -1    0    0    0  501 -0.00000000000E+00  0.00000000000E+00  0.13917067957E+02  0.13917067957E+02  0.00000000000E+00 0.  1.
         21   -1    0    0  501  502  0.00000000000E+00 -0.00000000000E+00 -0.42928352136E+03  0.42928352136E+03  0.00000000000E+00 0.  1.
         24    2    1    2    0    0 -0.38096427283E+02  0.20835003657E+02 -0.17162571692E+03  0.19562235568E+03  0.83230308092E+02 0.  0.
        -13    1    3    3    0    0 -0.58247844961E+02  0.42931698010E+01 -0.15245976178E+03  0.16326426955E+03  0.00000000000E+00 0.  1.
         14    1    3    3    0    0  0.20151417678E+02  0.16541833856E+02 -0.19165955142E+02  0.32358086134E+02  0.00000000000E+00 0. -1.
         -4    1    1    2    0  502  0.38096427283E+02 -0.20835003657E+02 -0.24374073649E+03  0.24757823364E+03  0.00000000000E+00 0.  1.
<mgrwt>
<rscale>  1 0.93876085E+02</rscale>
<asrwt>0</asrwt>
<pdfrwt beam="1">  1       21 0.66043609E-01 0.93876085E+02</pdfrwt>
<pdfrwt beam="2">  1       -3 0.21410877E-02 0.93876085E+02</pdfrwt>
<totfact> 0.83290583E+04</totfact>
</mgrwt>
</event>
<event>
 6    2  0.9453093E+000  0.8989166E+02  0.7546771E-02  0.1303114E+00
         21   -1    0    0  501  502  0.00000000000E+00  0.00000000000E+00  0.10683204706E+03  0.10683204706E+03  0.00000000000E+00 0.  1.
          2   -1    0    0  502    0 -0.00000000000E+00 -0.00000000000E+00 -0.11674639720E+03  0.11674639720E+03  0.00000000000E+00 0. -1.
         24    2    1    2    0    0 -0.33169333043E+02 -0.22271931840E+02 -0.94258299002E+02  0.13025028500E+03  0.80524941541E+02 0.  0.
        -11    1    3    3    0    0 -0.58697710170E+02 -0.10682551053E+02 -0.49919561138E+02  0.77791391943E+02  0.00000000000E+00 0.  1.
         12    1    3    3    0    0  0.25528377127E+02 -0.11589380787E+02 -0.44338737863E+02  0.52458893060E+02  0.00000000000E+00 0. -1.
          1    1    1    2  501    0  0.33169333043E+02  0.22271931840E+02  0.84343948853E+02  0.93328159258E+02  0.00000000000E+00 0. -1.
<mgrwt>
<rscale>  1 0.89891656E+02</rscale>
<asrwt>0</asrwt>
<pdfrwt beam="1">  1       21 0.16435700E-01 0.89891656E+02</pdfrwt>
<pdfrwt beam="2">  1        2 0.17960984E-01 0.89891656E+02</pdfrwt>
<totfact> 0.12366762E+05</totfact>
</mgrwt>
</event>
<event>
 6    2  0.9453093E+000  0.7696915E+02  0.7546771E-02  0.1337879E+00
         21   -1    0    0  501  502  0.00000000000E+00  0.00000000000E+00  0.82449481985E+00  0.82449481985E+00  0.00000000000E+00 0.  1.
          2   -1    0    0  502    0 -0.00000000000E+00 -0.00000000000E+00 -0.32105294608E+04  0.32105294608E+04  0.00000000000E+00 0. -1.
         24    2    1    2    0    0 -0.25047902549E+01 -0.24594053114E+02 -0.21987438149E+04  0.22000905921E+04  0.72891072310E+02 0.  0.
        -13    1    3    3    0    0 -0.25445191856E+02 -0.61699258533E+01 -0.30599953620E+03  0.30711763532E+03  0.00000000000E+00 0.  1.
         14    1    3    3    0    0  0.22940401601E+02 -0.18424127261E+02 -0.18927442787E+04  0.18929729568E+04  0.00000000000E+00 0. -1.
          1    1    1    2  501    0  0.25047902549E+01  0.24594053114E+02 -0.10109611510E+04  0.10112633635E+04  0.00000000000E+00 0. -1.
<mgrwt>
<rscale>  1 0.76969149E+02</rscale>
<asrwt>0</asrwt>
<pdfrwt beam="1">  1       21 0.12684241E-03 0.76969149E+02</pdfrwt>
<pdfrwt beam="2">  1        2 0.49393909E+00 0.76969149E+02</pdfrwt>
<totfact> 0.18380929E+06</totfact>
</mgrwt>
</event>
<event>
 6    2  0.9453093E+000  0.8508405E+02  0.7546771E-02  0.1315213E+00
         21   -1    0    0  501  502  0.00000000000E+00  0.00000000000E+00  0.67237436047E+02  0.67237436047E+02  0.00000000000E+00 0.  1.
          2   -1    0    0  502    0 -0.00000000000E+00 -0.00000000000E+00 -0.55639637842E+02  0.55639637842E+02  0.00000000000E+00 0. -1.
         24    2    1    2    0    0  0.22157151130E+01 -0.25193494844E+02 -0.14752648945E+02  0.86353552140E+02  0.81238376032E+02 0.  0.
        -13    1    3    3    0    0  0.21511837456E+02 -0.49487802017E+02 -0.73686093847E+01  0.54461895885E+02  0.00000000000E+00 0.  1.
         14    1    3    3    0    0 -0.19296122343E+02  0.24294307172E+02 -0.73840395600E+01  0.31891656255E+02  0.00000000000E+00 0. -1.
          1    1    1    2  501    0 -0.22157151130E+01  0.25193494844E+02  0.26350447150E+02  0.36523521749E+02  0.00000000000E+00 0. -1.
<mgrwt>
<rscale>  1 0.85084049E+02</rscale>
<asrwt>0</asrwt>
<pdfrwt beam="1">  1       21 0.10344221E-01 0.85084049E+02</pdfrwt>
<pdfrwt beam="2">  1        2 0.85599443E-02 0.85084049E+02</pdfrwt>
<totfact> 0.66883786E+05</totfact>
</mgrwt>
</event>
<event>
 6    2  0.9453093E+000  0.8619353E+02  0.7546771E-02  0.1312341E+00
         21   -1    0    0  501  502  0.00000000000E+00  0.00000000000E+00  0.32673094070E+01  0.32673094070E+01  0.00000000000E+00 0. -1.
          2   -1    0    0  502    0 -0.00000000000E+00 -0.00000000000E+00 -0.10105199410E+04  0.10105199410E+04  0.00000000000E+00 0. -1.
         24    2    1    2    0    0  0.27074493140E+02  0.31647379258E+01 -0.82793825089E+03  0.83241280107E+03  0.81769678704E+02 0.  0.
        -11    1    3    3    0    0 -0.87865721989E+01  0.36009974410E+02 -0.31450075745E+03  0.31667751506E+03  0.00000000000E+00 0.  1.
         12    1    3    3    0    0  0.35861065339E+02 -0.32845236484E+02 -0.51343749344E+03  0.51573528601E+03  0.00000000000E+00 0. -1.
          1    1    1    2  501    0 -0.27074493140E+02 -0.31647379258E+01 -0.17931438068E+03  0.18137444931E+03  0.00000000000E+00 0. -1.
<mgrwt>
<rscale>  1 0.86193527E+02</rscale>
<asrwt>0</asrwt>
<pdfrwt beam="1">  1       21 0.50266178E-03 0.86193527E+02</pdfrwt>
<pdfrwt beam="2">  1        2 0.15546498E+00 0.86193527E+02</pdfrwt>
<totfact> 0.33853138E+06</totfact>
</mgrwt>
</event>
<event>
 6    2  0.9453093E+000  0.8370468E+02  0.7546771E-02  0.1318855E+00
         -3   -1    0    0    0  501 -0.00000000000E+00  0.00000000000E+00  0.10081419304E+03  0.10081419304E+03  0.00000000000E+00 0.  1.
         21   -1    0    0  501  502  0.00000000000E+00 -0.00000000000E+00 -0.27685313252E+02  0.27685313252E+02  0.00000000000E+00 0. -1.
         24    2    1    2    0    0  0.69244559450E+01 -0.20819024822E+02  0.57023338630E+02  0.10128244656E+03  0.80778047434E+02 0.  0.
        -13    1    3    3    0    0  0.15221807801E+02  0.28667710732E+02  0.30437408606E+02  0.44496931512E+02  0.00000000000E+00 0.  1.
         14    1    3    3    0    0 -0.82973518558E+01 -0.49486735554E+02  0.26585930024E+02  0.56785515044E+02  0.00000000000E+00 0. -1.
         -4    1    1    2    0  502 -0.69244559450E+01  0.20819024822E+02  0.16105541157E+02  0.27217059735E+02  0.00000000000E+00 0.  1.
<mgrwt>
<rscale>  1 0.83704676E+02</rscale>
<asrwt>0</asrwt>
<pdfrwt beam="1">  1       21 0.42592790E-02 0.83704676E+02</pdfrwt>
<pdfrwt beam="2">  1       -3 0.15509876E-01 0.83704676E+02</pdfrwt>
<totfact> 0.53389781E+05</totfact>
</mgrwt>
</event>
<event>
 6    2  0.9453093E+000  0.8653361E+02  0.7546771E-02  0.1311470E+00
         -1   -1    0    0    0  501 -0.00000000000E+00  0.00000000000E+00  0.50293731628E+03  0.50293731628E+03  0.00000000000E+00 0.  1.
         21   -1    0    0  501  502  0.00000000000E+00 -0.00000000000E+00 -0.11376727888E+02  0.11376727888E+02  0.00000000000E+00 0.  1.
         24    2    1    2    0    0  0.25521838654E+02  0.16597388251E+02  0.46768882902E+03  0.47562685713E+03  0.81001412895E+02 0.  0.
        -11    1    3    3    0    0  0.11800599980E+02  0.42528683408E+02  0.39157856424E+03  0.39405800974E+03  0.00000000000E+00 0.  1.
         12    1    3    3    0    0  0.13721238674E+02 -0.25931295156E+02  0.76110264780E+02  0.81568847388E+02  0.00000000000E+00 0. -1.
         -2    1    1    2    0  502 -0.25521838654E+02 -0.16597388251E+02  0.23871759370E+02  0.38687187032E+02  0.00000000000E+00 0.  1.
<mgrwt>
<rscale>  1 0.86533614E+02</rscale>
<asrwt>0</asrwt>
<pdfrwt beam="1">  1       21 0.17502662E-02 0.86533614E+02</pdfrwt>
<pdfrwt beam="2">  1       -1 0.77374955E-01 0.86533614E+02</pdfrwt>
<totfact> 0.23594452E+05</totfact>
</mgrwt>
</event>
<event>
 6    2  0.1085720E+001  0.8653038E+02  0.7546771E-02  0.1311478E+00
         -1   -1    0    0    0  501 -0.00000000000E+00  0.00000000000E+00  0.85295399180E+03  0.85295399180E+03  0.00000000000E+00 0.  1.
         21   -1    0    0  501  502  0.00000000000E+00 -0.00000000000E+00 -0.40802640524E+01  0.40802640524E+01  0.00000000000E+00 0. -1.
         24    2    1    2    0    0  0.21561029692E+02 -0.21225866813E+02  0.67842562831E+03  0.68392166236E+03  0.81068438223E+02 0.  0.
        -13    1    3    3    0    0  0.32916957218E+02 -0.58081678455E+00  0.62069962988E+03  0.62157211485E+03  0.00000000000E+00 0.  1.
         14    1    3    3    0    0 -0.11355927526E+02 -0.20645050028E+02  0.57725998429E+02  0.62349547515E+02  0.00000000000E+00 0. -1.
         -2    1    1    2    0  502 -0.21561029692E+02  0.21225866813E+02  0.17044809944E+03  0.17311259349E+03  0.00000000000E+00 0.  1.
<mgrwt>
<rscale>  1 0.86530383E+02</rscale>
<asrwt>0</asrwt>
<pdfrwt beam="1">  1       21 0.62773361E-03 0.86530383E+02</pdfrwt>
<pdfrwt beam="2">  1       -1 0.13122355E+00 0.86530383E+02</pdfrwt>
<totfact> 0.36926651E+05</totfact>
</mgrwt>
</event>
<event>
 6    2  0.9453093E+000  0.1021686E+03  0.7546771E-02  0.1275801E+00
         21   -1    0    0  501  502  0.00000000000E+00  0.00000000000E+00  0.91527590493E+02  0.91527590493E+02  0.00000000000E+00 0. -1.
          4   -1    0    0  502    0 -0.00000000000E+00 -0.00000000000E+00 -0.10794811991E+03  0.10794811991E+03  0.00000000000E+00 0. -1.
         24    2    1    2    0    0 -0.63243842454E+02  0.13533210548E+01 -0.63789929099E+02  0.12044739198E+03  0.80229695842E+02 0.  0.
        -13    1    3    3    0    0 -0.11480691418E+02  0.11349433374E+02  0.17340899795E+02  0.23692250189E+02  0.00000000000E+00 0.  1.
         14    1    3    3    0    0 -0.51763151036E+02 -0.99961123191E+01 -0.81130828894E+02  0.96755141794E+02  0.00000000000E+00 0. -1.
          3    1    1    2  501    0  0.63243842454E+02 -0.13533210548E+01  0.47369399681E+02  0.79028318420E+02  0.00000000000E+00 0. -1.
<mgrwt>
<rscale>  1 0.10216858E+03</rscale>
<asrwt>0</asrwt>
<pdfrwt beam="1">  1       21 0.14081168E-01 0.10216858E+03</pdfrwt>
<pdfrwt beam="2">  1        4 0.16607403E-01 0.10216858E+03</pdfrwt>
<totfact> 0.54031321E+04</totfact>
</mgrwt>
</event>
<event>
 6    2  0.9453093E+000  0.8322297E+02  0.7546771E-02  0.1320146E+00
         -1   -1    0    0    0  501 -0.00000000000E+00  0.00000000000E+00  0.73739212356E+02  0.73739212356E+02  0.00000000000E+00 0.  1.
         21   -1    0    0  501  502  0.00000000000E+00 -0.00000000000E+00 -0.39093286081E+02  0.39093286081E+02  0.00000000000E+00 0. -1.
         24    2    1    2    0    0 -0.22919394612E+01  0.23558199843E+02  0.31362933619E+02  0.88936477698E+02  0.79786099628E+02 0.  0.
        -13    1    3    3    0    0  0.92719012666E+01 -0.26155753198E+02 -0.22182671876E+01  0.27839042508E+02  0.00000000000E+00 0.  1.
         14    1    3    3    0    0 -0.11563840728E+02  0.49713953040E+02  0.33581200807E+02  0.61097435191E+02  0.00000000000E+00 0. -1.
         -2    1    1    2    0  502  0.22919394612E+01 -0.23558199843E+02  0.32829926559E+01  0.23896020738E+02  0.00000000000E+00 0.  1.
<mgrwt>
<rscale>  1 0.83222974E+02</rscale>
<asrwt>0</asrwt>
<pdfrwt beam="1">  1       21 0.60143517E-02 0.83222974E+02</pdfrwt>
<pdfrwt beam="2">  1       -1 0.11344494E-01 0.83222974E+02</pdfrwt>
<totfact> 0.80528273E+05</totfact>
</mgrwt>
</event>
<event>
 6    2  0.9453093E+000  0.8407107E+02  0.7546771E-02  0.1317880E+00
          2   -1    0    0  502    0 -0.00000000000E+00  0.00000000000E+00  0.84940939220E+03  0.84940939220E+03  0.00000000000E+00 0. -1.
         21   -1    0    0  501  502  0.00000000000E+00 -0.00000000000E+00 -0.34022378138E+01  0.34022378138E+01  0.00000000000E+00 0. -1.
         24    2    1    2    0    0 -0.26494769309E+01 -0.20218112780E+02  0.74772560818E+03  0.75243706084E+03  0.81560735549E+02 0.  0.
        -13    1    3    3    0    0 -0.14154441331E+02  0.29601759528E+02  0.31279560639E+03  0.31451184994E+03  0.00000000000E+00 0.  1.
         14    1    3    3    0    0  0.11504964400E+02 -0.49819872308E+02  0.43493000179E+03  0.43792521090E+03  0.00000000000E+00 0. -1.
          1    1    1    2  501    0  0.26494769309E+01  0.20218112780E+02  0.98281546212E+02  0.10037456918E+03  0.00000000000E+00 0. -1.
<mgrwt>
<rscale>  1 0.84071073E+02</rscale>
<asrwt>0</asrwt>
<pdfrwt beam="1">  1       21 0.52342188E-03 0.84071073E+02</pdfrwt>
<pdfrwt beam="2">  1        2 0.13067820E+00 0.84071073E+02</pdfrwt>
<totfact> 0.39746007E+06</totfact>
</mgrwt>
</event>
<event>
 6    2  0.9453093E+000  0.9708182E+02  0.7546771E-02  0.1286555E+00
         -1   -1    0    0    0  501 -0.00000000000E+00  0.00000000000E+00  0.28234179978E+02  0.28234179978E+02  0.00000000000E+00 0.  1.
         21   -1    0    0  501  502  0.00000000000E+00 -0.00000000000E+00 -0.25486334905E+03  0.25486334905E+03  0.00000000000E+00 0. -1.
         24    2    1    2    0    0 -0.48692961672E+02 -0.18880730820E+02 -0.74855112218E+02  0.12258942691E+03  0.81837602920E+02 0.  0.
        -11    1    3    3    0    0 -0.25232444325E+02  0.10548879211E+02  0.10507707304E+02  0.29297901154E+02  0.00000000000E+00 0.  1.
         12    1    3    3    0    0 -0.23460517347E+02 -0.29429610031E+02 -0.85362819523E+02  0.93291525754E+02  0.00000000000E+00 0. -1.
         -2    1    1    2    0  502  0.48692961672E+02  0.18880730820E+02 -0.15177405685E+03  0.16050810212E+03  0.00000000000E+00 0.  1.
<mgrwt>
<rscale>  1 0.97081820E+02</rscale>
<asrwt>0</asrwt>
<pdfrwt beam="1">  1       21 0.39209746E-01 0.97081820E+02</pdfrwt>
<pdfrwt beam="2">  1       -1 0.43437200E-02 0.97081820E+02</pdfrwt>
<totfact> 0.11610966E+05</totfact>
</mgrwt>
</event>
<event>
 6    2  0.9453093E+000  0.9152050E+02  0.7546771E-02  0.1299211E+00
         21   -1    0    0  501  502  0.00000000000E+00  0.00000000000E+00  0.65138367327E+02  0.65138367327E+02  0.00000000000E+00 0. -1.
          4   -1    0    0  502    0 -0.00000000000E+00 -0.00000000000E+00 -0.27540665047E+03  0.27540665047E+03  0.00000000000E+00 0. -1.
         24    2    1    2    0    0 -0.20877528773E+02 -0.39662686477E+02 -0.25878578000E+03  0.27449240690E+03  0.79793493514E+02 0.  0.
        -13    1    3    3    0    0 -0.14690067799E+02  0.19205821381E+02 -0.31994774609E+02  0.40103955779E+02  0.00000000000E+00 0.  1.
         14    1    3    3    0    0 -0.61874609745E+01 -0.58868507858E+02 -0.22679100539E+03  0.23438845112E+03  0.00000000000E+00 0. -1.
          3    1    1    2  501    0  0.20877528773E+02  0.39662686477E+02  0.48517496854E+02  0.66052610904E+02  0.00000000000E+00 0. -1.
<mgrwt>
<rscale>  1 0.91520498E+02</rscale>
<asrwt>0</asrwt>
<pdfrwt beam="1">  1       21 0.10021288E-01 0.91520498E+02</pdfrwt>
<pdfrwt beam="2">  1        4 0.42370253E-01 0.91520498E+02</pdfrwt>
<totfact> 0.17105896E+04</totfact>
</mgrwt>
</event>
<event>
 6    2  0.9453093E+000  0.1000788E+03  0.7546771E-02  0.1280130E+00
          2   -1    0    0  502    0 -0.00000000000E+00  0.00000000000E+00  0.16968195380E+03  0.16968195380E+03  0.00000000000E+00 0. -1.
         21   -1    0    0  501  502  0.00000000000E+00 -0.00000000000E+00 -0.41522894496E+02  0.41522894496E+02  0.00000000000E+00 0.  1.
         24    2    1    2    0    0 -0.40642129689E+01 -0.67347736138E+02  0.70028333494E+02  0.12214634689E+03  0.73915676118E+02 0.  0.
        -11    1    3    3    0    0 -0.89011122040E+01 -0.25114443609E+02 -0.12409917385E+02  0.29393385749E+02  0.00000000000E+00 0.  1.
         12    1    3    3    0    0  0.48368992352E+01 -0.42233292529E+02  0.82438250878E+02  0.92752961138E+02  0.00000000000E+00 0. -1.
          1    1    1    2  501    0  0.40642129689E+01  0.67347736138E+02  0.58130725811E+02  0.89058501409E+02  0.00000000000E+00 0. -1.
<mgrwt>
<rscale>  1 0.10007878E+03</rscale>
<asrwt>0</asrwt>
<pdfrwt beam="1">  1       21 0.63881377E-02 0.10007878E+03</pdfrwt>
<pdfrwt beam="2">  1        2 0.26104916E-01 0.10007878E+03</pdfrwt>
<totfact> 0.42609004E+05</totfact>
</mgrwt>
</event>
<event>
 6    2  0.9453093E+000  0.8742130E+02  0.7546771E-02  0.1309219E+00
         21   -1    0    0  501  502  0.00000000000E+00  0.00000000000E+00  0.47589957761E+01  0.47589957761E+01  0.00000000000E+00 0. -1.
          2   -1    0    0  502    0 -0.00000000000E+00 -0.00000000000E+00 -0.22351632771E+04  0.22351632771E+04  0.00000000000E+00 0. -1.
         24    2    1    2    0    0 -0.26921406661E+01 -0.28886820666E+02 -0.21800955101E+04  0.21818475926E+04  0.82466890627E+02 0.  0.
        -11    1    3    3    0    0 -0.23524556593E+02 -0.88875848930E+01 -0.20441392141E+03  0.20595495914E+03  0.00000000000E+00 0.  1.
         12    1    3    3    0    0  0.20832415927E+02 -0.19999235773E+02 -0.19756815887E+04  0.19758926335E+04  0.00000000000E+00 0. -1.
          1    1    1    2  501    0  0.26921406661E+01  0.28886820666E+02 -0.50308771214E+02  0.58074680288E+02  0.00000000000E+00 0. -1.
<mgrwt>
<rscale>  1 0.87421302E+02</rscale>
<asrwt>0</asrwt>
<pdfrwt beam="1">  1       21 0.73215298E-03 0.87421302E+02</pdfrwt>
<pdfrwt beam="2">  1        2 0.34387137E+00 0.87421302E+02</pdfrwt>
<totfact> 0.44218744E+05</totfact>
</mgrwt>
</event>
<event>
 6    2  0.9453093E+000  0.8843605E+02  0.7546771E-02  0.1306684E+00
         -3   -1    0    0    0  501 -0.00000000000E+00  0.00000000000E+00  0.28881758472E+03  0.28881758472E+03  0.00000000000E+00 0.  1.
         21   -1    0    0  501  502  0.00000000000E+00 -0.00000000000E+00 -0.26675895830E+02  0.26675895830E+02  0.00000000000E+00 0.  1.
         24    2    1    2    0    0 -0.16501404599E+02 -0.31460751423E+02  0.26546934544E+03  0.27981227356E+03  0.80986788018E+02 0.  0.
        -11    1    3    3    0    0 -0.39945091948E+02  0.16002110878E+01  0.18988178675E+03  0.19404448971E+03  0.00000000000E+00 0.  1.
         12    1    3    3    0    0  0.23443687349E+02 -0.33060962511E+02  0.75587558692E+02  0.85767783857E+02  0.00000000000E+00 0. -1.
         -4    1    1    2    0  502  0.16501404599E+02  0.31460751423E+02 -0.33276565530E+01  0.35681206986E+02  0.00000000000E+00 0.  1.
<mgrwt>
<rscale>  1 0.88436051E+02</rscale>
<asrwt>0</asrwt>
<pdfrwt beam="1">  1       21 0.41039842E-02 0.88436051E+02</pdfrwt>
<pdfrwt beam="2">  1       -3 0.44433472E-01 0.88436051E+02</pdfrwt>
<totfact> 0.85696681E+04</totfact>
</mgrwt>
</event>
<event>
 6    2  0.9453093E+000  0.1001172E+03  0.7546771E-02  0.1280050E+00
         21   -1    0    0  501  502  0.00000000000E+00  0.00000000000E+00  0.11413889092E+02  0.11413889092E+02  0.00000000000E+00 0. -1.
          2   -1    0    0  502    0 -0.00000000000E+00 -0.00000000000E+00 -0.11168772151E+04  0.11168772151E+04  0.00000000000E+00 0. -1.
         24    2    1    2    0    0 -0.14608916796E+02 -0.57024332029E+02 -0.10177094236E+04  0.10226220819E+04  0.80983063274E+02 0.  0.
        -13    1    3    3    0    0 -0.99628090870E+01 -0.10912166376E+02 -0.26590636855E+02  0.30420304211E+02  0.00000000000E+00 0.  1.
         14    1    3    3    0    0 -0.46461077092E+01 -0.46112165652E+02 -0.99111878676E+03  0.99220177767E+03  0.00000000000E+00 0. -1.
          1    1    1    2  501    0  0.14608916796E+02  0.57024332029E+02 -0.87753902442E+02  0.10566902236E+03  0.00000000000E+00 0. -1.
<mgrwt>
<rscale>  1 0.10011719E+03</rscale>
<asrwt>0</asrwt>
<pdfrwt beam="1">  1       21 0.17559823E-02 0.10011719E+03</pdfrwt>
<pdfrwt beam="2">  1        2 0.17182733E+00 0.10011719E+03</pdfrwt>
<totfact> 0.42228722E+05</totfact>
</mgrwt>
</event>
<event>
 6    2  0.9453093E+000  0.8172906E+02  0.7546771E-02  0.1324215E+00
         21   -1    0    0  501  502  0.00000000000E+00  0.00000000000E+00  0.45085937758E+02  0.45085937758E+02  0.00000000000E+00 0.  1.
          2   -1    0    0  502    0 -0.00000000000E+00 -0.00000000000E+00 -0.57673660873E+02  0.57673660873E+02  0.00000000000E+00 0. -1.
         24    2    1    2    0    0 -0.11312788984E+02 -0.16660810295E+02 -0.81203171187E+01  0.82131474367E+02  0.79209076105E+02 0.  0.
        -13    1    3    3    0    0  0.27199459723E+02 -0.18560535657E+02  0.16040835524E+02  0.36628028850E+02  0.00000000000E+00 0.  1.
         14    1    3    3    0    0 -0.38512248708E+02  0.18997253619E+01 -0.24161152643E+02  0.45503445518E+02  0.00000000000E+00 0. -1.
          1    1    1    2  501    0  0.11312788984E+02  0.16660810295E+02 -0.44674059971E+01  0.20628124263E+02  0.00000000000E+00 0. -1.
<mgrwt>
<rscale>  1 0.81729062E+02</rscale>
<asrwt>0</asrwt>
<pdfrwt beam="1">  1       21 0.69362981E-02 0.81729062E+02</pdfrwt>
<pdfrwt beam="2">  1        2 0.88728709E-02 0.81729062E+02</pdfrwt>
<totfact> 0.12621268E+06</totfact>
</mgrwt>
</event>
<event>
 6    2  0.9453093E+000  0.9666220E+02  0.7546771E-02  0.1287476E+00
         21   -1    0    0  501  502  0.00000000000E+00  0.00000000000E+00  0.11571524338E+03  0.11571524338E+03  0.00000000000E+00 0. -1.
          2   -1    0    0  502    0 -0.00000000000E+00 -0.00000000000E+00 -0.17076868351E+03  0.17076868351E+03  0.00000000000E+00 0. -1.
         24    2    1    2    0    0 -0.43325438854E+02  0.28082164820E+02 -0.14997651801E+03  0.17842795831E+03  0.81718288784E+02 0.  0.
        -11    1    3    3    0    0 -0.31166386491E+02  0.54837415829E+02 -0.75609679383E+02  0.98464762419E+02  0.00000000000E+00 0.  1.
         12    1    3    3    0    0 -0.12159052363E+02 -0.26755251009E+02 -0.74366838625E+02  0.79963195896E+02  0.00000000000E+00 0. -1.
          1    1    1    2  501    0  0.43325438854E+02 -0.28082164820E+02  0.94923077877E+02  0.10805596858E+03  0.00000000000E+00 0. -1.
<mgrwt>
<rscale>  1 0.96662197E+02</rscale>
<asrwt>0</asrwt>
<pdfrwt beam="1">  1       21 0.17802345E-01 0.96662197E+02</pdfrwt>
<pdfrwt beam="2">  1        2 0.26272105E-01 0.96662197E+02</pdfrwt>
<totfact> 0.70467584E+04</totfact>
</mgrwt>
</event>
<event>
 6    2  0.9453093E+000  0.9153713E+02  0.7546771E-02  0.1299171E+00
          2   -1    0    0  502    0 -0.00000000000E+00  0.00000000000E+00  0.50899673772E+03  0.50899673772E+03  0.00000000000E+00 0. -1.
         21   -1    0    0  501  502  0.00000000000E+00 -0.00000000000E+00 -0.10908606391E+02  0.10908606391E+02  0.00000000000E+00 0.  1.
         24    2    1    2    0    0  0.40985208171E+02 -0.78176925096E+01  0.21379721100E+03  0.23256890196E+03  0.81474800546E+02 0.  0.
        -11    1    3    3    0    0  0.30010643688E+02  0.35709924692E+02  0.10829360349E+03  0.11791243367E+03  0.00000000000E+00 0.  1.
         12    1    3    3    0    0  0.10974564482E+02 -0.43527617202E+02  0.10550360751E+03  0.11465646829E+03  0.00000000000E+00 0. -1.
          1    1    1    2  501    0 -0.40985208171E+02  0.78176925096E+01  0.28429092034E+03  0.28733644216E+03  0.00000000000E+00 0. -1.
<mgrwt>
<rscale>  1 0.91537133E+02</rscale>
<asrwt>0</asrwt>
<pdfrwt beam="1">  1       21 0.16782475E-02 0.91537133E+02</pdfrwt>
<pdfrwt beam="2">  1        2 0.78307172E-01 0.91537133E+02</pdfrwt>
<totfact> 0.11755591E+06</totfact>
</mgrwt>
</event>
<event>
 6    2  0.9453093E+000  0.9105779E+02  0.7546771E-02  0.1300310E+00
         21   -1    0    0  501  502  0.00000000000E+00  0.00000000000E+00  0.72937707819E+01  0.72937707819E+01  0.00000000000E+00 0. -1.
         -1   -1    0    0    0  501 -0.00000000000E+00 -0.00000000000E+00 -0.55541242352E+03  0.55541242352E+03  0.00000000000E+00 0.  1.
         24    2    1    2    0    0  0.24818591509E+02 -0.17951383810E+02 -0.47111379955E+03  0.47983302566E+03  0.85751418233E+02 0.  0.
        -11    1    3    3    0    0 -0.13227937477E+02 -0.43031256840E+02 -0.20979035879E+03  0.21456621830E+03  0.00000000000E+00 0.  1.
         12    1    3    3    0    0  0.38046528985E+02  0.25079873030E+02 -0.26132344075E+03  0.26526680736E+03  0.00000000000E+00 0. -1.
         -2    1    1    2    0  502 -0.24818591509E+02  0.17951383810E+02 -0.77004853198E+02  0.82873168644E+02  0.00000000000E+00 0.  1.
<mgrwt>
<rscale>  1 0.91057786E+02</rscale>
<asrwt>0</asrwt>
<pdfrwt beam="1">  1       21 0.11221186E-02 0.91057786E+02</pdfrwt>
<pdfrwt beam="2">  1       -1 0.85448063E-01 0.91057786E+02</pdfrwt>
<totfact> 0.39091322E+05</totfact>
</mgrwt>
</event>
<event>
 6    2  0.9453093E+000  0.7808211E+02  0.7546771E-02  0.1334584E+00
          2   -1    0    0  502    0 -0.00000000000E+00  0.00000000000E+00  0.10630891279E+04  0.10630891279E+04  0.00000000000E+00 0. -1.
         21   -1    0    0  501  502  0.00000000000E+00 -0.00000000000E+00 -0.54678721393E+01  0.54678721393E+01  0.00000000000E+00 0. -1.
         24    2    1    2    0    0 -0.25116405277E+02 -0.55356537664E+01  0.10200024021E+04  0.10229866651E+04  0.73724754253E+02 0.  0.
        -11    1    3    3    0    0 -0.19499558232E+02 -0.91921346066E+00  0.62965922508E+02  0.65922569139E+02  0.00000000000E+00 0.  1.
         12    1    3    3    0    0 -0.56168470441E+01 -0.46164403058E+01  0.95703647960E+03  0.95706409596E+03  0.00000000000E+00 0. -1.
          1    1    1    2  501    0  0.25116405277E+02  0.55356537664E+01  0.37618853672E+02  0.45570334959E+02  0.00000000000E+00 0. -1.
<mgrwt>
<rscale>  1 0.78082115E+02</rscale>
<asrwt>0</asrwt>
<pdfrwt beam="1">  1       21 0.84121194E-03 0.78082115E+02</pdfrwt>
<pdfrwt beam="2">  1        2 0.16355201E+00 0.78082115E+02</pdfrwt>
<totfact> 0.14150942E+06</totfact>
</mgrwt>
</event>
<event>
 6    2  0.9453093E+000  0.9034078E+02  0.7546771E-02  0.1302029E+00
         21   -1    0    0  501  502  0.00000000000E+00  0.00000000000E+00  0.51597167720E+02  0.51597167720E+02  0.00000000000E+00 0. -1.
          2   -1    0    0  502    0 -0.00000000000E+00 -0.00000000000E+00 -0.96394408028E+02  0.96394408028E+02  0.00000000000E+00 0. -1.
         24    2    1    2    0    0  0.23206814128E+02 -0.34458967942E+02 -0.54259345036E+02  0.10538279591E+03  0.80221446360E+02 0.  0.
        -13    1    3    3    0    0  0.18132092492E+02  0.24846104203E+01  0.16985350677E+02  0.24968944805E+02  0.00000000000E+00 0.  1.
         14    1    3    3    0    0  0.50747216364E+01 -0.36943578362E+02 -0.71244695713E+02  0.80413851103E+02  0.00000000000E+00 0. -1.
          1    1    1    2  501    0 -0.23206814128E+02  0.34458967942E+02  0.94621047280E+01  0.42608779840E+02  0.00000000000E+00 0. -1.
<mgrwt>
<rscale>  1 0.90340783E+02</rscale>
<asrwt>0</asrwt>
<pdfrwt beam="1">  1       21 0.79380260E-02 0.90340783E+02</pdfrwt>
<pdfrwt beam="2">  1        2 0.14829909E-01 0.90340783E+02</pdfrwt>
<totfact> 0.55052028E+05</totfact>
</mgrwt>
</event>
<event>
 6    2  0.9453093E+000  0.9277186E+02  0.7546771E-02  0.1296275E+00
         21   -1    0    0  501  502  0.00000000000E+00  0.00000000000E+00  0.16234497243E+02  0.16234497243E+02  0.00000000000E+00 0.  1.
         -1   -1    0    0    0  501 -0.00000000000E+00 -0.00000000000E+00 -0.29675023869E+03  0.29675023869E+03  0.00000000000E+00 0.  1.
         24    2    1    2    0    0 -0.45366789582E+02  0.68192053673E+01 -0.19485729387E+03  0.21581469529E+03  0.80634797492E+02 0.  0.
        -13    1    3    3    0    0 -0.68083435528E+02 -0.12218140553E+01 -0.13274169004E+03  0.14918848246E+03  0.00000000000E+00 0.  1.
         14    1    3    3    0    0  0.22716645946E+02  0.80410194225E+01 -0.62115603830E+02  0.66626212826E+02  0.00000000000E+00 0. -1.
         -2    1    1    2    0  502  0.45366789582E+02 -0.68192053673E+01 -0.85658447568E+02  0.97170040643E+02  0.00000000000E+00 0.  1.
<mgrwt>
<rscale>  1 0.92771858E+02</rscale>
<asrwt>0</asrwt>
<pdfrwt beam="1">  1       21 0.24976149E-02 0.92771858E+02</pdfrwt>
<pdfrwt beam="2">  1       -1 0.45653884E-01 0.92771858E+02</pdfrwt>
<totfact> 0.36212784E+05</totfact>
</mgrwt>
</event>
<event>
 6    2  0.9453093E+000  0.9467485E+02  0.7546771E-02  0.1291910E+00
         21   -1    0    0  501  502  0.00000000000E+00  0.00000000000E+00  0.11437279255E+04  0.11437279255E+04  0.00000000000E+00 0.  1.
         -1   -1    0    0    0  501 -0.00000000000E+00 -0.00000000000E+00 -0.82617656989E+01  0.82617656989E+01  0.00000000000E+00 0.  1.
         24    2    1    2    0    0 -0.46554131273E+02  0.86892903874E+01  0.28719490419E+03  0.30239748666E+03  0.81978875593E+02 0.  0.
        -11    1    3    3    0    0 -0.37020384218E+02 -0.12872133985E+02  0.47665078967E+02  0.61710294392E+02  0.00000000000E+00 0.  1.
         12    1    3    3    0    0 -0.95337470549E+01  0.21561424372E+02  0.23952982522E+03  0.24068719227E+03  0.00000000000E+00 0. -1.
         -2    1    1    2    0  502  0.46554131273E+02 -0.86892903874E+01  0.84827125563E+03  0.84959220455E+03  0.00000000000E+00 0.  1.
<mgrwt>
<rscale>  1 0.94674849E+02</rscale>
<asrwt>0</asrwt>
<pdfrwt beam="1">  1       21 0.17595802E+00 0.94674849E+02</pdfrwt>
<pdfrwt beam="2">  1       -1 0.12710418E-02 0.94674849E+02</pdfrwt>
<totfact> 0.22668161E+04</totfact>
</mgrwt>
</event>
<event>
 6    2  0.9453093E+000  0.8923271E+02  0.7546771E-02  0.1304721E+00
          2   -1    0    0  502    0 -0.00000000000E+00  0.00000000000E+00  0.71473828840E+03  0.71473828840E+03  0.00000000000E+00 0. -1.
         21   -1    0    0  501  502  0.00000000000E+00 -0.00000000000E+00 -0.61171908797E+01  0.61171908797E+01  0.00000000000E+00 0.  1.
         24    2    1    2    0    0 -0.39221657835E+02  0.90597460109E+01  0.55081462079E+03  0.55799571893E+03  0.79637041848E+02 0.  0.
        -13    1    3    3    0    0 -0.40347421766E+02 -0.25639631661E+02  0.20776497731E+03  0.21319378731E+03  0.00000000000E+00 0.  1.
         14    1    3    3    0    0  0.11257639308E+01  0.34699377672E+02  0.34304964348E+03  0.34480193162E+03  0.00000000000E+00 0. -1.
          1    1    1    2  501    0  0.39221657835E+02 -0.90597460109E+01  0.15780647674E+03  0.16285976035E+03  0.00000000000E+00 0. -1.
<mgrwt>
<rscale>  1 0.89232706E+02</rscale>
<asrwt>0</asrwt>
<pdfrwt beam="1">  1       21 0.94110686E-03 0.89232706E+02</pdfrwt>
<pdfrwt beam="2">  1        2 0.10995967E+00 0.89232706E+02</pdfrwt>
<totfact> 0.19910007E+06</totfact>
</mgrwt>
</event>
<event>
 6    2  0.9453093E+000  0.9199914E+02  0.7546771E-02  0.1298081E+00
         -3   -1    0    0    0  501 -0.00000000000E+00  0.00000000000E+00  0.51887027676E+02  0.51887027676E+02  0.00000000000E+00 0.  1.
         21   -1    0    0  501  502  0.00000000000E+00 -0.00000000000E+00 -0.98840708283E+02  0.98840708283E+02  0.00000000000E+00 0.  1.
         24    2    1    2    0    0 -0.14822026535E+02  0.45933465340E+02 -0.15975259889E+02  0.93375854919E+02  0.78321552873E+02 0.  0.
        -13    1    3    3    0    0 -0.32215292929E+02  0.49925079128E+02  0.11591795707E+02  0.60536834672E+02  0.00000000000E+00 0.  1.
         14    1    3    3    0    0  0.17393266395E+02 -0.39916137873E+01 -0.27567055596E+02  0.32839020246E+02  0.00000000000E+00 0. -1.
         -4    1    1    2    0  502  0.14822026535E+02 -0.45933465340E+02 -0.30978420718E+02  0.57351881041E+02  0.00000000000E+00 0.  1.
<mgrwt>
<rscale>  1 0.91999138E+02</rscale>
<asrwt>0</asrwt>
<pdfrwt beam="1">  1       21 0.15206263E-01 0.91999138E+02</pdfrwt>
<pdfrwt beam="2">  1       -3 0.79826198E-02 0.91999138E+02</pdfrwt>
<totfact> 0.18403793E+05</totfact>
</mgrwt>
</event>
<event>
 6    2  0.9453093E+000  0.8489570E+02  0.7546771E-02  0.1315706E+00
          2   -1    0    0  502    0 -0.00000000000E+00  0.00000000000E+00  0.40653026532E+03  0.40653026532E+03  0.00000000000E+00 0. -1.
         21   -1    0    0  501  502  0.00000000000E+00 -0.00000000000E+00 -0.92078675590E+01  0.92078675590E+01  0.00000000000E+00 0. -1.
         24    2    1    2    0    0  0.49605442223E+00  0.20775694944E+02  0.37781361182E+03  0.38723430332E+03  0.82312847255E+02 0.  0.
        -11    1    3    3    0    0 -0.25399628040E+02 -0.11505425261E+02  0.53878498760E+02  0.60666370780E+02  0.00000000000E+00 0.  1.
         12    1    3    3    0    0  0.25895682462E+02  0.32281120206E+02  0.32393511306E+03  0.32656793254E+03  0.00000000000E+00 0. -1.
          1    1    1    2  501    0 -0.49605442223E+00 -0.20775694944E+02  0.19508785937E+02  0.28503829552E+02  0.00000000000E+00 0. -1.
<mgrwt>
<rscale>  1 0.84895703E+02</rscale>
<asrwt>0</asrwt>
<pdfrwt beam="1">  1       21 0.14165953E-02 0.84895703E+02</pdfrwt>
<pdfrwt beam="2">  1        2 0.62543104E-01 0.84895703E+02</pdfrwt>
<totfact> 0.19379150E+06</totfact>
</mgrwt>
</event>
<event>
 6    2  0.9453093E+000  0.8194156E+02  0.7546771E-02  0.1323630E+00
         21   -1    0    0  501  502  0.00000000000E+00  0.00000000000E+00  0.36986836868E+01  0.36986836868E+01  0.00000000000E+00 0.  1.
          2   -1    0    0  502    0 -0.00000000000E+00 -0.00000000000E+00 -0.16328307457E+04  0.16328307457E+04  0.00000000000E+00 0. -1.
         24    2    1    2    0    0 -0.12916980059E+02  0.16267646239E+02 -0.15909826483E+04  0.15930913993E+04  0.79264965470E+02 0.  0.
        -13    1    3    3    0    0 -0.73112775954E+01  0.24992839261E+02 -0.16266885591E+03  0.16473995713E+03  0.00000000000E+00 0.  1.
         14    1    3    3    0    0 -0.56057024633E+01 -0.87251930223E+01 -0.14283137924E+04  0.14283514422E+04  0.00000000000E+00 0. -1.
          1    1    1    2  501    0  0.12916980059E+02 -0.16267646239E+02 -0.38149413689E+02  0.43438030030E+02  0.00000000000E+00 0. -1.
<mgrwt>
<rscale>  1 0.81941561E+02</rscale>
<asrwt>0</asrwt>
<pdfrwt beam="1">  1       21 0.56902841E-03 0.81941561E+02</pdfrwt>
<pdfrwt beam="2">  1        2 0.25120467E+00 0.81941561E+02</pdfrwt>
<totfact> 0.13039109E+06</totfact>
</mgrwt>
</event>
<event>
 6    2  0.9453093E+000  0.1006814E+03  0.7546771E-02  0.1278870E+00
         21   -1    0    0  501  502  0.00000000000E+00  0.00000000000E+00  0.21178607276E+02  0.21178607276E+02  0.00000000000E+00 0. -1.
          2   -1    0    0  502    0 -0.00000000000E+00 -0.00000000000E+00 -0.32753934804E+03  0.32753934804E+03  0.00000000000E+00 0. -1.
         24    2    1    2    0    0 -0.22017507402E+01 -0.60008113312E+02 -0.23363583707E+03  0.25440606324E+03  0.80814103231E+02 0.  0.
        -11    1    3    3    0    0  0.28573632458E+02 -0.29277044198E+02 -0.44977179008E+02  0.60799213978E+02  0.00000000000E+00 0.  1.
         12    1    3    3    0    0 -0.30775383199E+02 -0.30731069114E+02 -0.18865865806E+03  0.19360684926E+03  0.00000000000E+00 0. -1.
          1    1    1    2  501    0  0.22017507402E+01  0.60008113312E+02 -0.72724903695E+02  0.94311892077E+02  0.00000000000E+00 0. -1.
<mgrwt>
<rscale>  1 0.10068138E+03</rscale>
<asrwt>0</asrwt>
<pdfrwt beam="1">  1       21 0.32582472E-02 0.10068138E+03</pdfrwt>
<pdfrwt beam="2">  1        2 0.50390671E-01 0.10068138E+03</pdfrwt>
<totfact> 0.64944035E+05</totfact>
</mgrwt>
</event>
<event>
 6    2  0.9453093E+000  0.9827781E+02  0.7546771E-02  0.1283960E+00
         21   -1    0    0  501  502  0.00000000000E+00  0.00000000000E+00  0.19509912336E+02  0.19509912336E+02  0.00000000000E+00 0. -1.
          2   -1    0    0  502    0 -0.00000000000E+00 -0.00000000000E+00 -0.33929756799E+03  0.33929756799E+03  0.00000000000E+00 0. -1.
         24    2    1    2    0    0 -0.35674533683E+02  0.39368030977E+02 -0.26432985517E+03  0.28200850995E+03  0.82680185854E+02 0.  0.
        -11    1    3    3    0    0  0.24173150913E+02 -0.22752086901E+01 -0.49311659418E+02  0.54965057575E+02  0.00000000000E+00 0.  1.
         12    1    3    3    0    0 -0.59847684596E+02  0.41643239667E+02 -0.21501819576E+03  0.22704345238E+03  0.00000000000E+00 0. -1.
          1    1    1    2  501    0  0.35674533683E+02 -0.39368030977E+02 -0.55457800480E+02  0.76798970375E+02  0.00000000000E+00 0. -1.
<mgrwt>
<rscale>  1 0.98277807E+02</rscale>
<asrwt>0</asrwt>
<pdfrwt beam="1">  1       21 0.30015252E-02 0.98277807E+02</pdfrwt>
<pdfrwt beam="2">  1        2 0.52199623E-01 0.98277807E+02</pdfrwt>
<totfact> 0.71407299E+05</totfact>
</mgrwt>
</event>
<event>
 6    2  0.9453093E+000  0.9034660E+02  0.7546771E-02  0.1302015E+00
         -3   -1    0    0    0  501 -0.00000000000E+00  0.00000000000E+00  0.12665304746E+03  0.12665304746E+03  0.00000000000E+00 0.  1.
         21   -1    0    0  501  502  0.00000000000E+00 -0.00000000000E+00 -0.67045778977E+02  0.67045778977E+02  0.00000000000E+00 0.  1.
         24    2    1    2    0    0  0.22237732281E+02 -0.29168076337E+02  0.10291566111E+03  0.13694576233E+03  0.82566428446E+02 0.  0.
        -11    1    3    3    0    0 -0.34427942686E+01  0.23647213475E+02  0.58873076247E+02  0.63538040923E+02  0.00000000000E+00 0.  1.
         12    1    3    3    0    0  0.25680526550E+02 -0.52815289812E+02  0.44042584858E+02  0.73407721411E+02  0.00000000000E+00 0. -1.
         -4    1    1    2    0  502 -0.22237732281E+02  0.29168076337E+02 -0.43308392619E+02  0.56753064107E+02  0.00000000000E+00 0.  1.
<mgrwt>
<rscale>  1 0.90346602E+02</rscale>
<asrwt>0</asrwt>
<pdfrwt beam="1">  1       21 0.10314735E-01 0.90346602E+02</pdfrwt>
<pdfrwt beam="2">  1       -3 0.19485084E-01 0.90346602E+02</pdfrwt>
<totfact> 0.81987163E+04</totfact>
</mgrwt>
</event>
<event>
 6    2  0.9453093E+000  0.8819809E+02  0.7546771E-02  0.1307275E+00
         -3   -1    0    0    0  501 -0.00000000000E+00  0.00000000000E+00  0.18021503918E+03  0.18021503918E+03  0.00000000000E+00 0.  1.
         21   -1    0    0  501  502  0.00000000000E+00 -0.00000000000E+00 -0.23612351546E+02  0.23612351546E+02  0.00000000000E+00 0.  1.
         24    2    1    2    0    0 -0.34000795978E+02 -0.14374054926E+02  0.81250162035E+02  0.11991868619E+03  0.80101403766E+02 0.  0.
        -13    1    3    3    0    0 -0.11031527741E+02 -0.44001526281E+02  0.64508929941E+02  0.78862100919E+02  0.00000000000E+00 0.  1.
         14    1    3    3    0    0 -0.22969268238E+02  0.29627471355E+02  0.16741232094E+02  0.41056585273E+02  0.00000000000E+00 0. -1.
         -4    1    1    2    0  502  0.34000795978E+02  0.14374054926E+02  0.75352525599E+02  0.83908704532E+02  0.00000000000E+00 0.  1.
<mgrwt>
<rscale>  1 0.88198087E+02</rscale>
<asrwt>0</asrwt>
<pdfrwt beam="1">  1       21 0.36326696E-02 0.88198087E+02</pdfrwt>
<pdfrwt beam="2">  1       -3 0.27725390E-01 0.88198087E+02</pdfrwt>
<totfact> 0.25314944E+05</totfact>
</mgrwt>
</event>
<event>
 6    2  0.9453093E+000  0.1077785E+03  0.7546771E-02  0.1264740E+00
         -1   -1    0    0    0  501 -0.00000000000E+00  0.00000000000E+00  0.22876452356E+03  0.22876452356E+03  0.00000000000E+00 0.  1.
         21   -1    0    0  501  502  0.00000000000E+00 -0.00000000000E+00 -0.46219442542E+02  0.46219442542E+02  0.00000000000E+00 0.  1.
         24    2    1    2    0    0 -0.18953611225E+01  0.70304067291E+02  0.17325575190E+03  0.20404352695E+03  0.81669768288E+02 0.  0.
        -13    1    3    3    0    0 -0.26053012012E+01  0.87751778491E+02  0.15846902104E+03  0.18116178640E+03  0.00000000000E+00 0.  1.
         14    1    3    3    0    0  0.70994007875E+00 -0.17447711200E+02  0.14786730862E+02  0.22881740550E+02  0.00000000000E+00 0. -1.
         -2    1    1    2    0  502  0.18953611225E+01 -0.70304067291E+02  0.92893291161E+01  0.70940439150E+02  0.00000000000E+00 0.  1.
<mgrwt>
<rscale>  1 0.10777850E+03</rscale>
<asrwt>0</asrwt>
<pdfrwt beam="1">  1       21 0.71106836E-02 0.10777850E+03</pdfrwt>
<pdfrwt beam="2">  1       -1 0.35194542E-01 0.10777850E+03</pdfrwt>
<totfact> 0.10183048E+05</totfact>
</mgrwt>
</event>
<event>
 6    2  0.9453093E+000  0.8517161E+02  0.7546771E-02  0.1314984E+00
         -1   -1    0    0    0  501 -0.00000000000E+00  0.00000000000E+00  0.10472941292E+03  0.10472941292E+03  0.00000000000E+00 0.  1.
         21   -1    0    0  501  502  0.00000000000E+00 -0.00000000000E+00 -0.28345320421E+02  0.28345320421E+02  0.00000000000E+00 0.  1.
         24    2    1    2    0    0  0.12999661440E+02  0.17663831513E+02  0.69962174070E+02  0.11022209285E+03  0.82299464212E+02 0.  0.
        -13    1    3    3    0    0  0.12329384455E+02  0.50405316605E+02  0.36801811715E+02  0.63616688130E+02  0.00000000000E+00 0.  1.
         14    1    3    3    0    0  0.67027698567E+00 -0.32741485092E+02  0.33160362355E+02  0.46605404717E+02  0.00000000000E+00 0. -1.
         -2    1    1    2    0  502 -0.12999661440E+02 -0.17663831513E+02  0.64219184305E+01  0.22852640495E+02  0.00000000000E+00 0.  1.
<mgrwt>
<rscale>  1 0.85171615E+02</rscale>
<asrwt>0</asrwt>
<pdfrwt beam="1">  1       21 0.43608186E-02 0.85171615E+02</pdfrwt>
<pdfrwt beam="2">  1       -1 0.16112217E-01 0.85171615E+02</pdfrwt>
<totfact> 0.80432421E+05</totfact>
</mgrwt>
</event>
<event>
 6    2  0.9453093E+000  0.8489663E+02  0.7546771E-02  0.1315703E+00
          2   -1    0    0  502    0 -0.00000000000E+00  0.00000000000E+00  0.17675659793E+03  0.17675659793E+03  0.00000000000E+00 0. -1.
         21   -1    0    0  501  502  0.00000000000E+00 -0.00000000000E+00 -0.35819628685E+02  0.35819628685E+02  0.00000000000E+00 0. -1.
         24    2    1    2    0    0 -0.22350304853E+02  0.86909662992E+01  0.16053832844E+03  0.18160394377E+03  0.81439354559E+02 0.  0.
        -13    1    3    3    0    0 -0.82285489420E+01  0.34428526945E+00 -0.84626898319E+01  0.11808669240E+02  0.00000000000E+00 0.  1.
         14    1    3    3    0    0 -0.14121755911E+02  0.83466810297E+01  0.16900101828E+03  0.16979527453E+03  0.00000000000E+00 0. -1.
          1    1    1    2  501    0  0.22350304853E+02 -0.86909662992E+01 -0.19601359199E+02  0.30972282846E+02  0.00000000000E+00 0. -1.
<mgrwt>
<rscale>  1 0.84896628E+02</rscale>
<asrwt>0</asrwt>
<pdfrwt beam="1">  1       21 0.55107122E-02 0.84896628E+02</pdfrwt>
<pdfrwt beam="2">  1        2 0.27193322E-01 0.84896628E+02</pdfrwt>
<totfact> 0.51512090E+05</totfact>
</mgrwt>
</event>
<event>
 6    2  0.9453093E+000  0.8092984E+02  0.7546771E-02  0.1326433E+00
         21   -1    0    0  501  502  0.00000000000E+00  0.00000000000E+00  0.15786409038E+02  0.15786409038E+02  0.00000000000E+00 0.  1.
         -3   -1    0    0    0  501 -0.00000000000E+00 -0.00000000000E+00 -0.22499556688E+03  0.22499556688E+03  0.00000000000E+00 0.  1.
         24    2    1    2    0    0  0.22883453879E+02  0.59108894205E+01 -0.19939102966E+03  0.21518926766E+03  0.77401854832E+02 0.  0.
        -13    1    3    3    0    0  0.48310508511E+02 -0.97029395547E+01 -0.14510515934E+03  0.15324346491E+03  0.00000000000E+00 0.  1.
         14    1    3    3    0    0 -0.25427054632E+02  0.15613828975E+02 -0.54285870315E+02  0.61945802751E+02  0.00000000000E+00 0. -1.
         -4    1    1    2    0  502 -0.22883453879E+02 -0.59108894205E+01 -0.98181281869E+01  0.25592708263E+02  0.00000000000E+00 0.  1.
<mgrwt>
<rscale>  1 0.80929835E+02</rscale>
<asrwt>0</asrwt>
<pdfrwt beam="1">  1       21 0.24286784E-02 0.80929835E+02</pdfrwt>
<pdfrwt beam="2">  1       -3 0.34614701E-01 0.80929835E+02</pdfrwt>
<totfact> 0.31885241E+05</totfact>
</mgrwt>
</event>
<event>
 6    2  0.9453093E+000  0.1104786E+03  0.7546771E-02  0.1259686E+00
          2   -1    0    0  502    0 -0.00000000000E+00  0.00000000000E+00  0.90740306872E+03  0.90740306872E+03  0.00000000000E+00 0. -1.
         21   -1    0    0  501  502  0.00000000000E+00 -0.00000000000E+00 -0.19821848008E+02  0.19821848008E+02  0.00000000000E+00 0. -1.
         24    2    1    2    0    0 -0.35989188321E+02  0.65742857561E+02  0.15239348339E+03  0.18822670692E+03  0.81167570007E+02 0.  0.
        -11    1    3    3    0    0 -0.20840768090E+02 -0.16189241290E+02  0.27711489672E+02  0.38266902252E+02  0.00000000000E+00 0.  1.
         12    1    3    3    0    0 -0.15148420231E+02  0.81932098851E+02  0.12468199372E+03  0.14995980467E+03  0.00000000000E+00 0. -1.
          1    1    1    2  501    0  0.35989188321E+02 -0.65742857561E+02  0.73518773732E+03  0.73899820981E+03  0.00000000000E+00 0. -1.
<mgrwt>
<rscale>  1 0.11047859E+03</rscale>
<asrwt>0</asrwt>
<pdfrwt beam="1">  1       21 0.30495158E-02 0.11047859E+03</pdfrwt>
<pdfrwt beam="2">  1        2 0.13960044E+00 0.11047859E+03</pdfrwt>
<totfact> 0.23101866E+05</totfact>
</mgrwt>
</event>
<event>
 6    2  0.9453093E+000  0.8292506E+02  0.7546771E-02  0.1320950E+00
          2   -1    0    0  502    0 -0.00000000000E+00  0.00000000000E+00  0.22012727993E+04  0.22012727993E+04  0.00000000000E+00 0. -1.
         21   -1    0    0  501  502  0.00000000000E+00 -0.00000000000E+00 -0.33522003800E+02  0.33522003800E+02  0.00000000000E+00 0. -1.
         24    2    1    2    0    0  0.27672061365E+02  0.13098730846E+02  0.21933316453E+04  0.21948986930E+04  0.77066507378E+02 0.  0.
        -13    1    3    3    0    0 -0.15833859546E+02 -0.17768598973E+02  0.11093725954E+04  0.11096278609E+04  0.00000000000E+00 0.  1.
         14    1    3    3    0    0  0.43505920911E+02  0.30867329819E+02  0.10839590499E+04  0.10852708321E+04  0.00000000000E+00 0. -1.
          1    1    1    2  501    0 -0.27672061365E+02 -0.13098730846E+02 -0.25580849755E+02  0.39896110138E+02  0.00000000000E+00 0. -1.
<mgrwt>
<rscale>  1 0.82925064E+02</rscale>
<asrwt>0</asrwt>
<pdfrwt beam="1">  1       21 0.51572331E-02 0.82925064E+02</pdfrwt>
<pdfrwt beam="2">  1        2 0.33865724E+00 0.82925064E+02</pdfrwt>
<totfact> 0.20306791E+04</totfact>
</mgrwt>
</event>
<event>
 6    2  0.9453093E+000  0.8503670E+02  0.7546771E-02  0.1315337E+00
          2   -1    0    0  502    0 -0.00000000000E+00  0.00000000000E+00  0.15451661146E+04  0.15451661146E+04  0.00000000000E+00 0. -1.
         21   -1    0    0  501  502  0.00000000000E+00 -0.00000000000E+00 -0.27409077785E+01  0.27409077785E+01  0.00000000000E+00 0. -1.
         24    2    1    2    0    0 -0.27392306878E+00 -0.24721860382E+02  0.14411901523E+04  0.14436967461E+04  0.81363347069E+02 0.  0.
        -13    1    3    3    0    0  0.84359388873E+00  0.18807940608E+02  0.97490577877E+02  0.99291807595E+02  0.00000000000E+00 0.  1.
         14    1    3    3    0    0 -0.11175169575E+01 -0.43529800990E+02  0.13436995744E+04  0.13444049385E+04  0.00000000000E+00 0. -1.
          1    1    1    2  501    0  0.27392306878E+00  0.24721860382E+02  0.10123505451E+03  0.10421027625E+03  0.00000000000E+00 0. -1.
<mgrwt>
<rscale>  1 0.85036696E+02</rscale>
<asrwt>0</asrwt>
<pdfrwt beam="1">  1       21 0.42167935E-03 0.85036696E+02</pdfrwt>
<pdfrwt beam="2">  1        2 0.23771717E+00 0.85036696E+02</pdfrwt>
<totfact> 0.22890355E+06</totfact>
</mgrwt>
</event>
<event>
 6    2  0.9453093E+000  0.8280882E+02  0.7546771E-02  0.1321264E+00
         21   -1    0    0  501  502  0.00000000000E+00  0.00000000000E+00  0.22000484460E+01  0.22000484460E+01  0.00000000000E+00 0.  1.
          2   -1    0    0  502    0 -0.00000000000E+00 -0.00000000000E+00 -0.19399493135E+04  0.19399493135E+04  0.00000000000E+00 0. -1.
         24    2    1    2    0    0 -0.17931519701E+02 -0.88704876793E+01 -0.80984740301E+03  0.81407009374E+03  0.80355935759E+02 0.  0.
        -11    1    3    3    0    0 -0.40333063625E+01 -0.44146966991E+01 -0.23250175790E+01  0.64158252705E+01  0.00000000000E+00 0.  1.
         12    1    3    3    0    0 -0.13898213339E+02 -0.44557909802E+01 -0.80752238543E+03  0.80765426847E+03  0.00000000000E+00 0. -1.
          1    1    1    2  501    0  0.17931519701E+02  0.88704876793E+01 -0.11279018620E+04  0.11280792682E+04  0.00000000000E+00 0. -1.
<mgrwt>
<rscale>  1 0.82808824E+02</rscale>
<asrwt>0</asrwt>
<pdfrwt beam="1">  1       21 0.33846841E-03 0.82808824E+02</pdfrwt>
<pdfrwt beam="2">  1        2 0.29845426E+00 0.82808824E+02</pdfrwt>
<totfact> 0.20228371E+06</totfact>
</mgrwt>
</event>
<event>
 6    2  0.9453093E+000  0.8327029E+02  0.7546771E-02  0.1320019E+00
          2   -1    0    0  502    0 -0.00000000000E+00  0.00000000000E+00  0.10132614700E+04  0.10132614700E+04  0.00000000000E+00 0. -1.
         21   -1    0    0  501  502  0.00000000000E+00 -0.00000000000E+00 -0.27233632541E+01  0.27233632541E+01  0.00000000000E+00 0. -1.
         24    2    1    2    0    0  0.11903986295E+02  0.17936225451E+02  0.77233412283E+03  0.77681010418E+03  0.80439589752E+02 0.  0.
        -11    1    3    3    0    0  0.32797221885E+01 -0.29818832285E+02  0.17914678472E+03  0.18164110166E+03  0.00000000000E+00 0.  1.
         12    1    3    3    0    0  0.86242641069E+01  0.47755057736E+02  0.59318733811E+03  0.59516900252E+03  0.00000000000E+00 0. -1.
          1    1    1    2  501    0 -0.11903986295E+02 -0.17936225451E+02  0.23820398396E+03  0.23917472912E+03  0.00000000000E+00 0. -1.
<mgrwt>
<rscale>  1 0.83270287E+02</rscale>
<asrwt>0</asrwt>
<pdfrwt beam="1">  1       21 0.41897977E-03 0.83270287E+02</pdfrwt>
<pdfrwt beam="2">  1        2 0.15588608E+00 0.83270287E+02</pdfrwt>
<totfact> 0.44365279E+06</totfact>
</mgrwt>
</event>
<event>
 6    2  0.9453093E+000  0.1003802E+03  0.7546771E-02  0.1279499E+00
         21   -1    0    0  501  502  0.00000000000E+00  0.00000000000E+00  0.32039423459E+01  0.32039423459E+01  0.00000000000E+00 0. -1.
          2   -1    0    0  502    0 -0.00000000000E+00 -0.00000000000E+00 -0.21205870796E+04  0.21205870796E+04  0.00000000000E+00 0. -1.
         24    2    1    2    0    0  0.56113365650E+02  0.63358197864E+00 -0.10069833492E+04  0.10119741303E+04  0.83228982973E+02 0.  0.
        -11    1    3    3    0    0 -0.16291147626E+00  0.26126542904E+02 -0.11853363175E+03  0.12137892997E+03  0.00000000000E+00 0.  1.
         12    1    3    3    0    0  0.56276277126E+02 -0.25492960925E+02 -0.88844971747E+03  0.89059520036E+03  0.00000000000E+00 0. -1.
          1    1    1    2  501    0 -0.56113365650E+02 -0.63358197864E+00 -0.11103997880E+04  0.11118168916E+04  0.00000000000E+00 0. -1.
<mgrwt>
<rscale>  1 0.10038015E+03</rscale>
<asrwt>0</asrwt>
<pdfrwt beam="1">  1       21 0.49291480E-03 0.10038015E+03</pdfrwt>
<pdfrwt beam="2">  1        2 0.32624378E+00 0.10038015E+03</pdfrwt>
<totfact> 0.93458015E+05</totfact>
</mgrwt>
</event>
<event>
 6    2  0.9453093E+000  0.8484871E+02  0.7546771E-02  0.1315829E+00
          2   -1    0    0  502    0 -0.00000000000E+00  0.00000000000E+00  0.42452892615E+03  0.42452892615E+03  0.00000000000E+00 0. -1.
         21   -1    0    0  501  502  0.00000000000E+00 -0.00000000000E+00 -0.78651934430E+01  0.78651934430E+01  0.00000000000E+00 0.  1.
         24    2    1    2    0    0  0.10891047076E+02 -0.20804636863E+02  0.37583641130E+03  0.38529509630E+03  0.81534381441E+02 0.  0.
        -13    1    3    3    0    0  0.10771108585E+02 -0.35240697622E+02  0.69902687146E+02  0.79020941650E+02  0.00000000000E+00 0.  1.
         14    1    3    3    0    0  0.11993849088E+00  0.14436060758E+02  0.30593372415E+03  0.30627415465E+03  0.00000000000E+00 0. -1.
          1    1    1    2  501    0 -0.10891047076E+02  0.20804636863E+02  0.40827321413E+02  0.47099023294E+02  0.00000000000E+00 0. -1.
<mgrwt>
<rscale>  1 0.84848708E+02</rscale>
<asrwt>0</asrwt>
<pdfrwt beam="1">  1       21 0.12100301E-02 0.84848708E+02</pdfrwt>
<pdfrwt beam="2">  1        2 0.65312125E-01 0.84848708E+02</pdfrwt>
<totfact> 0.23725435E+06</totfact>
</mgrwt>
</event>
<event>
 6    2  0.9453093E+000  0.7506294E+02  0.7546771E-02  0.1343676E+00
          4   -1    0    0  502    0 -0.00000000000E+00  0.00000000000E+00  0.27507965954E+01  0.27507965954E+01  0.00000000000E+00 0. -1.
         21   -1    0    0  501  502  0.00000000000E+00 -0.00000000000E+00 -0.92515732556E+03  0.92515732556E+03  0.00000000000E+00 0.  1.
         24    2    1    2    0    0 -0.28533954692E+01 -0.20952756904E+02 -0.81433432511E+03  0.81778654782E+03  0.72022807912E+02 0.  0.
        -13    1    3    3    0    0 -0.28947593115E+02  0.56618938643E+01 -0.55547582315E+03  0.55625840245E+03  0.00000000000E+00 0.  1.
         14    1    3    3    0    0  0.26094197646E+02 -0.26614650768E+02 -0.25885850196E+03  0.26152814537E+03  0.00000000000E+00 0. -1.
          3    1    1    2  501    0  0.28533954692E+01  0.20952756904E+02 -0.10807220386E+03  0.11012157433E+03  0.00000000000E+00 0. -1.
<mgrwt>
<rscale>  1 0.75062939E+02</rscale>
<asrwt>0</asrwt>
<pdfrwt beam="1">  1       21 0.14233200E+00 0.75062939E+02</pdfrwt>
<pdfrwt beam="2">  1        4 0.42319918E-03 0.75062939E+02</pdfrwt>
<totfact> 0.13935867E+05</totfact>
</mgrwt>
</event>
<event>
 6    2  0.9453093E+000  0.1294215E+03  0.7546771E-02  0.1228317E+00
         21   -1    0    0  501  502  0.00000000000E+00  0.00000000000E+00  0.38225067944E+02  0.38225067944E+02  0.00000000000E+00 0. -1.
          2   -1    0    0  502    0 -0.00000000000E+00 -0.00000000000E+00 -0.47701643904E+03  0.47701643904E+03  0.00000000000E+00 0. -1.
         24    2    1    2    0    0 -0.68512433713E+02 -0.66158951871E+02 -0.38431275140E+03  0.40551967465E+03  0.87629647701E+02 0.  0.
        -13    1    3    3    0    0 -0.41878199258E+02 -0.14234314411E+02 -0.52656935719E+02  0.68768831305E+02  0.00000000000E+00 0.  1.
         14    1    3    3    0    0 -0.26634234456E+02 -0.51924637460E+02 -0.33165581568E+03  0.33675084335E+03  0.00000000000E+00 0. -1.
          1    1    1    2  501    0  0.68512433713E+02  0.66158951871E+02 -0.54478619695E+02  0.10972183233E+03  0.00000000000E+00 0. -1.
<mgrwt>
<rscale>  1 0.12942147E+03</rscale>
<asrwt>0</asrwt>
<pdfrwt beam="1">  1       21 0.58807797E-02 0.12942147E+03</pdfrwt>
<pdfrwt beam="2">  1        2 0.73387144E-01 0.12942147E+03</pdfrwt>
<totfact> 0.16554762E+05</totfact>
</mgrwt>
</event>
<event>
 6    2  0.9453093E+000  0.7220204E+02  0.7546771E-02  0.1352761E+00
         21   -1    0    0  501  502  0.00000000000E+00  0.00000000000E+00  0.12678759904E+03  0.12678759904E+03  0.00000000000E+00 0. -1.
         -3   -1    0    0    0  501 -0.00000000000E+00 -0.00000000000E+00 -0.26105950413E+02  0.26105950413E+02  0.00000000000E+00 0.  1.
         24    2    1    2    0    0  0.23826926834E+02  0.28327023436E+02  0.87858119439E+02  0.11371976230E+03  0.61991874366E+02 0.  0.
        -13    1    3    3    0    0  0.15828597186E+02 -0.13427548645E+02  0.62091335967E+01  0.21665569264E+02  0.00000000000E+00 0.  1.
         14    1    3    3    0    0  0.79983296482E+01  0.41754572080E+02  0.81648985842E+02  0.92054193038E+02  0.00000000000E+00 0. -1.
         -4    1    1    2    0  502 -0.23826926834E+02 -0.28327023436E+02  0.12823529192E+02  0.39173787155E+02  0.00000000000E+00 0.  1.
<mgrwt>
<rscale>  1 0.72202044E+02</rscale>
<asrwt>0</asrwt>
<pdfrwt beam="1">  1       21 0.19505784E-01 0.72202044E+02</pdfrwt>
<pdfrwt beam="2">  1       -3 0.40163001E-02 0.72202044E+02</pdfrwt>
<totfact> 0.33341673E+05</totfact>
</mgrwt>
</event>
<event>
 6    2  0.9453093E+000  0.8037166E+02  0.7546771E-02  0.1328000E+00
         21   -1    0    0  501  502  0.00000000000E+00  0.00000000000E+00  0.62578954137E+03  0.62578954137E+03  0.00000000000E+00 0. -1.
         -3   -1    0    0    0  501 -0.00000000000E+00 -0.00000000000E+00 -0.45358770282E+01  0.45358770282E+01  0.00000000000E+00 0.  1.
         24    2    1    2    0    0 -0.64502051453E+01  0.20548621791E+02  0.55140831224E+03  0.55723489771E+03  0.77432250495E+02 0.  0.
        -11    1    3    3    0    0  0.14520262731E+02 -0.66998075741E+01  0.24821975618E+02  0.29527206521E+02  0.00000000000E+00 0.  1.
         12    1    3    3    0    0 -0.20970467877E+02  0.27248429365E+02  0.52658633662E+03  0.52770769119E+03  0.00000000000E+00 0. -1.
         -4    1    1    2    0  502  0.64502051453E+01 -0.20548621791E+02  0.69845352099E+02  0.73090520683E+02  0.00000000000E+00 0.  1.
<mgrwt>
<rscale>  1 0.80371664E+02</rscale>
<asrwt>0</asrwt>
<pdfrwt beam="1">  1       21 0.96275246E-01 0.80371664E+02</pdfrwt>
<pdfrwt beam="2">  1       -3 0.69782773E-03 0.80371664E+02</pdfrwt>
<totfact> 0.18852245E+05</totfact>
</mgrwt>
</event>
<event>
 6    2  0.9453093E+000  0.8978423E+02  0.7546771E-02  0.1303375E+00
          2   -1    0    0  502    0 -0.00000000000E+00  0.00000000000E+00  0.18379454164E+04  0.18379454164E+04  0.00000000000E+00 0. -1.
         21   -1    0    0  501  502  0.00000000000E+00 -0.00000000000E+00 -0.66465327779E+01  0.66465327779E+01  0.00000000000E+00 0. -1.
         24    2    1    2    0    0 -0.41787748471E+02  0.27775037989E+01  0.17570797235E+04  0.17593721499E+04  0.79418366208E+02 0.  0.
        -13    1    3    3    0    0 -0.52089959840E+02 -0.42852254870E+01  0.61296732594E+03  0.61519157158E+03  0.00000000000E+00 0.  1.
         14    1    3    3    0    0  0.10302211368E+02  0.70627292860E+01  0.11441123975E+04  0.11441805784E+04  0.00000000000E+00 0. -1.
          1    1    1    2  501    0  0.41787748471E+02 -0.27775037989E+01  0.74219160175E+02  0.85219799265E+02  0.00000000000E+00 0. -1.
<mgrwt>
<rscale>  1 0.89784227E+02</rscale>
<asrwt>0</asrwt>
<pdfrwt beam="1">  1       21 0.10225450E-02 0.89784227E+02</pdfrwt>
<pdfrwt beam="2">  1        2 0.28276043E+00 0.89784227E+02</pdfrwt>
<totfact> 0.41716731E+05</totfact>
</mgrwt>
</event>
<event>
 6    2  0.9453093E+000  0.8976467E+02  0.7546771E-02  0.1303423E+00
         -1   -1    0    0    0  501 -0.00000000000E+00  0.00000000000E+00  0.14843517049E+02  0.14843517049E+02  0.00000000000E+00 0.  1.
         21   -1    0    0  501  502  0.00000000000E+00 -0.00000000000E+00 -0.39064225463E+03  0.39064225463E+03  0.00000000000E+00 0.  1.
         24    2    1    2    0    0  0.81104585182E+01 -0.31254163737E+02 -0.13243775723E+03  0.15999204662E+03  0.83756152920E+02 0.  0.
        -11    1    3    3    0    0  0.67657572525E+01 -0.95202105083E+00  0.11236616355E+02  0.13150793223E+02  0.00000000000E+00 0.  1.
         12    1    3    3    0    0  0.13447012657E+01 -0.30302142686E+02 -0.14367437359E+03  0.14684125340E+03  0.00000000000E+00 0. -1.
         -2    1    1    2    0  502 -0.81104585182E+01  0.31254163737E+02 -0.24336098034E+03  0.24549372506E+03  0.00000000000E+00 0.  1.
<mgrwt>
<rscale>  1 0.89764667E+02</rscale>
<asrwt>0</asrwt>
<pdfrwt beam="1">  1       21 0.60098811E-01 0.89764667E+02</pdfrwt>
<pdfrwt beam="2">  1       -1 0.22836179E-02 0.89764667E+02</pdfrwt>
<totfact> 0.12248335E+05</totfact>
</mgrwt>
</event>
<event>
 6    2  0.9453093E+000  0.8582194E+02  0.7546771E-02  0.1313297E+00
         21   -1    0    0  501  502  0.00000000000E+00  0.00000000000E+00  0.32755009258E+02  0.32755009258E+02  0.00000000000E+00 0.  1.
         -3   -1    0    0    0  501 -0.00000000000E+00 -0.00000000000E+00 -0.51650918463E+03  0.51650918463E+03  0.00000000000E+00 0.  1.
         24    2    1    2    0    0 -0.23699597710E+02 -0.37365602592E+01 -0.50797393121E+03  0.51517270834E+03  0.82400071704E+02 0.  0.
        -13    1    3    3    0    0 -0.47388229238E+01  0.31526297584E+02 -0.37368412936E+03  0.37504158758E+03  0.00000000000E+00 0.  1.
         14    1    3    3    0    0 -0.18960774786E+02 -0.35262857843E+02 -0.13428980185E+03  0.14013112075E+03  0.00000000000E+00 0. -1.
         -4    1    1    2    0  502  0.23699597710E+02  0.37365602592E+01  0.24219755835E+02  0.34091485549E+02  0.00000000000E+00 0.  1.
<mgrwt>
<rscale>  1 0.85821936E+02</rscale>
<asrwt>0</asrwt>
<pdfrwt beam="1">  1       21 0.50392325E-02 0.85821936E+02</pdfrwt>
<pdfrwt beam="2">  1       -3 0.79462947E-01 0.85821936E+02</pdfrwt>
<totfact> 0.18598377E+04</totfact>
</mgrwt>
</event>
<event>
 6    2  0.9453093E+000  0.1841457E+03  0.7546771E-02  0.1163850E+00
          2   -1    0    0  502    0 -0.00000000000E+00  0.00000000000E+00  0.22141635525E+04  0.22141635525E+04  0.00000000000E+00 0. -1.
         21   -1    0    0  501  502  0.00000000000E+00 -0.00000000000E+00 -0.39491108054E+02  0.39491108054E+02  0.00000000000E+00 0. -1.
         24    2    1    2    0    0  0.16392387759E+03  0.20365826949E+02  0.20167058527E+04  0.20250955901E+04  0.81387028350E+02 0.  0.
        -11    1    3    3    0    0  0.38112012540E+02 -0.13514015366E+02  0.22100057386E+03  0.22466955236E+03  0.00000000000E+00 0.  1.
         12    1    3    3    0    0  0.12581186505E+03  0.33879842315E+02  0.17957052788E+04  0.18004260378E+04  0.00000000000E+00 0. -1.
          1    1    1    2  501    0 -0.16392387759E+03 -0.20365826949E+02  0.15796659172E+03  0.22855907038E+03  0.00000000000E+00 0. -1.
<mgrwt>
<rscale>  1 0.18414574E+03</rscale>
<asrwt>0</asrwt>
<pdfrwt beam="1">  1       21 0.60755568E-02 0.18414574E+03</pdfrwt>
<pdfrwt beam="2">  1        2 0.34064045E+00 0.18414574E+03</pdfrwt>
<totfact> 0.14424485E+04</totfact>
</mgrwt>
</event>
<event>
 6    2  0.9453093E+000  0.1415341E+03  0.7546771E-02  0.1211279E+00
          2   -1    0    0  502    0 -0.00000000000E+00  0.00000000000E+00  0.24967152310E+04  0.24967152310E+04  0.00000000000E+00 0. -1.
         21   -1    0    0  501  502  0.00000000000E+00 -0.00000000000E+00 -0.11307167542E+02  0.11307167542E+02  0.00000000000E+00 0.  1.
         24    2    1    2    0    0  0.11152681240E+03  0.32568856341E+02  0.51215240943E+03  0.53134922463E+03  0.80826652469E+02 0.  0.
        -11    1    3    3    0    0  0.12041352823E+03  0.38974301582E+02  0.42306335131E+03  0.44158919052E+03  0.00000000000E+00 0.  1.
         12    1    3    3    0    0 -0.88867158376E+01 -0.64054452415E+01  0.89089058117E+02  0.89760034110E+02  0.00000000000E+00 0. -1.
          1    1    1    2  501    0 -0.11152681240E+03 -0.32568856341E+02  0.19732556540E+04  0.19766731739E+04  0.00000000000E+00 0. -1.
<mgrwt>
<rscale>  1 0.14153412E+03</rscale>
<asrwt>0</asrwt>
<pdfrwt beam="1">  1       21 0.17395662E-02 0.14153412E+03</pdfrwt>
<pdfrwt beam="2">  1        2 0.38410960E+00 0.14153412E+03</pdfrwt>
<totfact> 0.82289826E+04</totfact>
</mgrwt>
</event>
<event>
 6    2  0.9453093E+000  0.8973822E+02  0.7546771E-02  0.1303487E+00
          2   -1    0    0  502    0 -0.00000000000E+00  0.00000000000E+00  0.37643765186E+03  0.37643765186E+03  0.00000000000E+00 0. -1.
         21   -1    0    0  501  502  0.00000000000E+00 -0.00000000000E+00 -0.42584719154E+02  0.42584719154E+02  0.00000000000E+00 0. -1.
         24    2    1    2    0    0 -0.17819216160E+02  0.41417367964E+02  0.35716391366E+03  0.36826486254E+03  0.77588819633E+02 0.  0.
        -13    1    3    3    0    0  0.30490513410E+02  0.15730740384E+02  0.16088636065E+03  0.16450394720E+03  0.00000000000E+00 0.  1.
         14    1    3    3    0    0 -0.48309729570E+02  0.25686627581E+02  0.19627755301E+03  0.20376091535E+03  0.00000000000E+00 0. -1.
          1    1    1    2  501    0  0.17819216160E+02 -0.41417367964E+02 -0.23310980948E+02  0.50757508473E+02  0.00000000000E+00 0. -1.
<mgrwt>
<rscale>  1 0.89738218E+02</rscale>
<asrwt>0</asrwt>
<pdfrwt beam="1">  1       21 0.65514955E-02 0.89738218E+02</pdfrwt>
<pdfrwt beam="2">  1        2 0.57913483E-01 0.89738218E+02</pdfrwt>
<totfact> 0.17454261E+05</totfact>
</mgrwt>
</event>
<event>
 6    2  0.9453093E+000  0.9253373E+02  0.7546771E-02  0.1296829E+00
         21   -1    0    0  501  502  0.00000000000E+00  0.00000000000E+00  0.21467998776E+03  0.21467998776E+03  0.00000000000E+00 0. -1.
         -3   -1    0    0    0  501 -0.00000000000E+00 -0.00000000000E+00 -0.29028930030E+02  0.29028930030E+02  0.00000000000E+00 0.  1.
         24    2    1    2    0    0  0.34301611793E+02  0.33544653174E+02  0.62826956627E+02  0.11184685297E+03  0.79124254885E+02 0.  0.
        -13    1    3    3    0    0  0.94641812439E+01  0.31183633364E+02 -0.10622400235E+02  0.34275721775E+02  0.00000000000E+00 0.  1.
         14    1    3    3    0    0  0.24837430549E+02  0.23610198094E+01  0.73449356862E+02  0.77571131191E+02  0.00000000000E+00 0. -1.
         -4    1    1    2    0  502 -0.34301611793E+02 -0.33544653174E+02  0.12282410110E+03  0.13186206482E+03  0.00000000000E+00 0.  1.
<mgrwt>
<rscale>  1 0.92533735E+02</rscale>
<asrwt>0</asrwt>
<pdfrwt beam="1">  1       21 0.33027689E-01 0.92533735E+02</pdfrwt>
<pdfrwt beam="2">  1       -3 0.44659894E-02 0.92533735E+02</pdfrwt>
<totfact> 0.10963418E+05</totfact>
</mgrwt>
</event>
<event>
 6    2  0.9453093E+000  0.8632812E+02  0.7546771E-02  0.1311995E+00
         21   -1    0    0  501  502  0.00000000000E+00  0.00000000000E+00  0.20301289806E+01  0.20301289806E+01  0.00000000000E+00 0.  1.
          2   -1    0    0  502    0 -0.00000000000E+00 -0.00000000000E+00 -0.22807709541E+04  0.22807709541E+04  0.00000000000E+00 0. -1.
         24    2    1    2    0    0  0.29070192485E+02 -0.39548843500E+00 -0.99697843379E+03  0.10007090192E+04  0.81285368390E+02 0.  0.
        -13    1    3    3    0    0  0.33214379426E+02 -0.29068610184E+02 -0.31071436326E+03  0.31383370538E+03  0.00000000000E+00 0.  1.
         14    1    3    3    0    0 -0.41441869403E+01  0.28673121749E+02 -0.68626407053E+03  0.68687531379E+03  0.00000000000E+00 0. -1.
          1    1    1    2  501    0 -0.29070192485E+02  0.39548843500E+00 -0.12817623913E+04  0.12820920639E+04  0.00000000000E+00 0. -1.
<mgrwt>
<rscale>  1 0.86328116E+02</rscale>
<asrwt>0</asrwt>
<pdfrwt beam="1">  1       21 0.31232699E-03 0.86328116E+02</pdfrwt>
<pdfrwt beam="2">  1        2 0.35088845E+00 0.86328116E+02</pdfrwt>
<totfact> 0.15417848E+06</totfact>
</mgrwt>
</event>
<event>
 6    2  0.9453093E+000  0.8252379E+02  0.7546771E-02  0.1322038E+00
          2   -1    0    0  502    0 -0.00000000000E+00  0.00000000000E+00  0.16811727409E+04  0.16811727409E+04  0.00000000000E+00 0. -1.
         21   -1    0    0  501  502  0.00000000000E+00 -0.00000000000E+00 -0.16949952193E+01  0.16949952193E+01  0.00000000000E+00 0.  1.
         24    2    1    2    0    0  0.21509007769E+02  0.15651002047E+01  0.14608119219E+04  0.14631410208E+04  0.79656063831E+02 0.  0.
        -13    1    3    3    0    0 -0.14099982246E+01 -0.20775138006E+02  0.11020728017E+03  0.11215720689E+03  0.00000000000E+00 0.  1.
         14    1    3    3    0    0  0.22919005993E+02  0.22340238210E+02  0.13506046418E+04  0.13509838139E+04  0.00000000000E+00 0. -1.
          1    1    1    2  501    0 -0.21509007769E+02 -0.15651002047E+01  0.21866582374E+03  0.21972671532E+03  0.00000000000E+00 0. -1.
<mgrwt>
<rscale>  1 0.82523787E+02</rscale>
<asrwt>0</asrwt>
<pdfrwt beam="1">  1       21 0.26076984E-03 0.82523787E+02</pdfrwt>
<pdfrwt beam="2">  1        2 0.25864063E+00 0.82523787E+02</pdfrwt>
<totfact> 0.40365339E+06</totfact>
</mgrwt>
</event>
<event>
 6    2  0.9453093E+000  0.8621599E+02  0.7546771E-02  0.1312283E+00
          2   -1    0    0  502    0 -0.00000000000E+00  0.00000000000E+00  0.28784805585E+02  0.28784805585E+02  0.00000000000E+00 0. -1.
         21   -1    0    0  501  502  0.00000000000E+00 -0.00000000000E+00 -0.12479588126E+03  0.12479588126E+03  0.00000000000E+00 0. -1.
         24    2    1    2    0    0  0.33250351987E+01  0.27822824834E+02 -0.49877298950E+02  0.99603925217E+02  0.81535461778E+02 0.  0.
        -11    1    3    3    0    0  0.26790196328E+02  0.68382274917E+00 -0.57037645729E+02  0.63019641884E+02  0.00000000000E+00 0.  1.
         12    1    3    3    0    0 -0.23465161129E+02  0.27139002085E+02  0.71603467798E+01  0.36584283333E+02  0.00000000000E+00 0. -1.
          1    1    1    2  501    0 -0.33250351987E+01 -0.27822824834E+02 -0.46133776729E+02  0.53976761630E+02  0.00000000000E+00 0. -1.
<mgrwt>
<rscale>  1 0.86215990E+02</rscale>
<asrwt>0</asrwt>
<pdfrwt beam="1">  1       21 0.19199367E-01 0.86215990E+02</pdfrwt>
<pdfrwt beam="2">  1        2 0.44284316E-02 0.86215990E+02</pdfrwt>
<totfact> 0.51463725E+05</totfact>
</mgrwt>
</event>
<event>
 6    2  0.9453093E+000  0.9033810E+02  0.7546771E-02  0.1302035E+00
         21   -1    0    0  501  502  0.00000000000E+00  0.00000000000E+00  0.13212327029E+03  0.13212327029E+03  0.00000000000E+00 0.  1.
         -3   -1    0    0    0  501 -0.00000000000E+00 -0.00000000000E+00 -0.37736539372E+02  0.37736539372E+02  0.00000000000E+00 0.  1.
         24    2    1    2    0    0 -0.42014432693E+02 -0.11978322028E+02  0.87248908322E+02  0.12559197411E+03  0.79071355144E+02 0.  0.
        -13    1    3    3    0    0 -0.52229268274E+02 -0.31168482132E+02  0.37893579617E+02  0.71660966495E+02  0.00000000000E+00 0.  1.
         14    1    3    3    0    0  0.10214835581E+02  0.19190160104E+02  0.49355328705E+02  0.53931007615E+02  0.00000000000E+00 0. -1.
         -4    1    1    2    0  502  0.42014432693E+02  0.11978322028E+02  0.71378225972E+01  0.44267835553E+02  0.00000000000E+00 0.  1.
<mgrwt>
<rscale>  1 0.90338098E+02</rscale>
<asrwt>0</asrwt>
<pdfrwt beam="1">  1       21 0.20326657E-01 0.90338098E+02</pdfrwt>
<pdfrwt beam="2">  1       -3 0.58056215E-02 0.90338098E+02</pdfrwt>
<totfact> 0.18039202E+05</totfact>
</mgrwt>
</event>
<event>
 6    2  0.9453093E+000  0.9823324E+02  0.7546771E-02  0.1284056E+00
         21   -1    0    0  501  502  0.00000000000E+00  0.00000000000E+00  0.14716007675E+04  0.14716007675E+04  0.00000000000E+00 0.  1.
         -1   -1    0    0    0  501 -0.00000000000E+00 -0.00000000000E+00 -0.61424381936E+01  0.61424381936E+01  0.00000000000E+00 0.  1.
         24    2    1    2    0    0  0.56606391607E+02 -0.32451358437E+01  0.12811539410E+04  0.12849144682E+04  0.80218173860E+02 0.  0.
        -13    1    3    3    0    0  0.68307337759E+02 -0.91711139684E+01  0.65363746691E+03  0.65726093743E+03  0.00000000000E+00 0.  1.
         14    1    3    3    0    0 -0.11700946152E+02  0.59259781247E+01  0.62751647411E+03  0.62765353073E+03  0.00000000000E+00 0. -1.
         -2    1    1    2    0  502 -0.56606391607E+02  0.32451358437E+01  0.18430438829E+03  0.19282873754E+03  0.00000000000E+00 0.  1.
<mgrwt>
<rscale>  1 0.98233242E+02</rscale>
<asrwt>0</asrwt>
<pdfrwt beam="1">  1       21 0.22639984E+00 0.98233242E+02</pdfrwt>
<pdfrwt beam="2">  1       -1 0.94499167E-03 0.98233242E+02</pdfrwt>
<totfact> 0.16784898E+04</totfact>
</mgrwt>
</event>
<event>
 6    2  0.9453093E+000  0.1043992E+03  0.7546771E-02  0.1271308E+00
          2   -1    0    0  502    0 -0.00000000000E+00  0.00000000000E+00  0.26209932019E+02  0.26209932019E+02  0.00000000000E+00 0. -1.
         21   -1    0    0  501  502  0.00000000000E+00 -0.00000000000E+00 -0.35609150819E+03  0.35609150819E+03  0.00000000000E+00 0. -1.
         24    2    1    2    0    0 -0.71283884792E+02 -0.42997529424E+02 -0.13718660432E+03  0.17239305080E+03  0.63000157080E+02 0.  0.
        -11    1    3    3    0    0 -0.16486107951E+02 -0.42270407339E+02 -0.38473289312E+02  0.59487587633E+02  0.00000000000E+00 0.  1.
         12    1    3    3    0    0 -0.54797776841E+02 -0.72712208548E+00 -0.98713315011E+02  0.11290546317E+03  0.00000000000E+00 0. -1.
          1    1    1    2  501    0  0.71283884792E+02  0.42997529424E+02 -0.19269497185E+03  0.20990838941E+03  0.00000000000E+00 0. -1.
<mgrwt>
<rscale>  1 0.10439923E+03</rscale>
<asrwt>0</asrwt>
<pdfrwt beam="1">  1       21 0.54783305E-01 0.10439923E+03</pdfrwt>
<pdfrwt beam="2">  1        2 0.40322975E-02 0.10439923E+03</pdfrwt>
<totfact> 0.77389442E+04</totfact>
</mgrwt>
</event>
<event>
 6    2  0.9453093E+000  0.9965222E+02  0.7546771E-02  0.1281029E+00
         21   -1    0    0  501  502  0.00000000000E+00  0.00000000000E+00  0.72260209182E+02  0.72260209182E+02  0.00000000000E+00 0.  1.
          2   -1    0    0  502    0 -0.00000000000E+00 -0.00000000000E+00 -0.86758062969E+02  0.86758062969E+02  0.00000000000E+00 0. -1.
         24    2    1    2    0    0 -0.27216165493E+02 -0.52003466615E+02 -0.99415060490E+01  0.10014688259E+03  0.80532504901E+02 0.  0.
        -11    1    3    3    0    0 -0.13351607365E+02 -0.11146474186E+02  0.34233079610E+02  0.38398086483E+02  0.00000000000E+00 0.  1.
         12    1    3    3    0    0 -0.13864558128E+02 -0.40856992429E+02 -0.44174585659E+02  0.61748796106E+02  0.00000000000E+00 0. -1.
          1    1    1    2  501    0  0.27216165493E+02  0.52003466615E+02 -0.45563477378E+01  0.58871389561E+02  0.00000000000E+00 0. -1.
<mgrwt>
<rscale>  1 0.99652218E+02</rscale>
<asrwt>0</asrwt>
<pdfrwt beam="1">  1       21 0.11116955E-01 0.99652218E+02</pdfrwt>
<pdfrwt beam="2">  1        2 0.13347394E-01 0.99652218E+02</pdfrwt>
<totfact> 0.35077371E+05</totfact>
</mgrwt>
</event>
<event>
 6    2  0.1643367E+001  0.5625099E+02  0.7546771E-02  0.1414274E+00
          2   -1    0    0  502    0 -0.00000000000E+00  0.00000000000E+00  0.35548415033E+03  0.35548415033E+03  0.00000000000E+00 0. -1.
         21   -1    0    0  501  502  0.00000000000E+00 -0.00000000000E+00 -0.50407293412E+01  0.50407293412E+01  0.00000000000E+00 0. -1.
         24    2    1    2    0    0 -0.19554594470E+02  0.15504688873E+02  0.28471154770E+03  0.29021515980E+03  0.50412260848E+02 0.  0.
        -13    1    3    3    0    0  0.72783918041E+01 -0.10093641174E+02  0.25611969573E+02  0.28475069181E+02  0.00000000000E+00 0.  1.
         14    1    3    3    0    0 -0.26832986275E+02  0.25598330047E+02  0.25909957813E+03  0.26174009062E+03  0.00000000000E+00 0. -1.
          1    1    1    2  501    0  0.19554594470E+02 -0.15504688873E+02  0.65731873294E+02  0.70309719874E+02  0.00000000000E+00 0. -1.
<mgrwt>
<rscale>  1 0.56250987E+02</rscale>
<asrwt>0</asrwt>
<pdfrwt beam="1">  1       21 0.77549710E-03 0.56250987E+02</pdfrwt>
<pdfrwt beam="2">  1        2 0.54689849E-01 0.56250987E+02</pdfrwt>
<totfact> 0.53580139E+06</totfact>
</mgrwt>
</event>
<event>
 6    2  0.9453093E+000  0.8141313E+02  0.7546771E-02  0.1325088E+00
         21   -1    0    0  501  502  0.00000000000E+00  0.00000000000E+00  0.10747100053E+03  0.10747100053E+03  0.00000000000E+00 0. -1.
         -1   -1    0    0    0  501 -0.00000000000E+00 -0.00000000000E+00 -0.26828344278E+02  0.26828344278E+02  0.00000000000E+00 0.  1.
         24    2    1    2    0    0  0.20383744909E+02  0.10712745328E+02  0.74762801160E+02  0.11053313634E+03  0.78088653610E+02 0.  0.
        -13    1    3    3    0    0  0.35762591119E+02  0.20247335804E+02  0.86606265093E+01  0.41999095017E+02  0.00000000000E+00 0.  1.
         14    1    3    3    0    0 -0.15378846210E+02 -0.95345904758E+01  0.66102174651E+02  0.68534041321E+02  0.00000000000E+00 0. -1.
         -2    1    1    2    0  502 -0.20383744909E+02 -0.10712745328E+02  0.58798550883E+01  0.23766208466E+02  0.00000000000E+00 0.  1.
<mgrwt>
<rscale>  1 0.81413130E+02</rscale>
<asrwt>0</asrwt>
<pdfrwt beam="1">  1       21 0.16534000E-01 0.81413130E+02</pdfrwt>
<pdfrwt beam="2">  1       -1 0.41274376E-02 0.81413130E+02</pdfrwt>
<totfact> 0.62289172E+05</totfact>
</mgrwt>
</event>
<event>
 6    2  0.9453093E+000  0.8318996E+02  0.7546771E-02  0.1320235E+00
         -1   -1    0    0    0  501 -0.00000000000E+00  0.00000000000E+00  0.52041624975E+03  0.52041624975E+03  0.00000000000E+00 0.  1.
         21   -1    0    0  501  502  0.00000000000E+00 -0.00000000000E+00 -0.16285393019E+02  0.16285393019E+02  0.00000000000E+00 0.  1.
         24    2    1    2    0    0  0.10897979557E+02  0.29851965514E+02  0.49728278212E+03  0.50419315266E+03  0.76880842770E+02 0.  0.
        -11    1    3    3    0    0 -0.24218808294E+02  0.38553942699E+02  0.32315356061E+03  0.32634518674E+03  0.00000000000E+00 0.  1.
         12    1    3    3    0    0  0.35116787850E+02 -0.87019771848E+01  0.17412922152E+03  0.17784796592E+03  0.00000000000E+00 0. -1.
         -2    1    1    2    0  502 -0.10897979557E+02 -0.29851965514E+02  0.68480746065E+01  0.32508490111E+02  0.00000000000E+00 0.  1.
<mgrwt>
<rscale>  1 0.83189962E+02</rscale>
<asrwt>0</asrwt>
<pdfrwt beam="1">  1       21 0.25054455E-02 0.83189962E+02</pdfrwt>
<pdfrwt beam="2">  1       -1 0.80064026E-01 0.83189962E+02</pdfrwt>
<totfact> 0.12368992E+05</totfact>
</mgrwt>
</event>
<event>
 6    2  0.9453093E+000  0.8318510E+02  0.7546771E-02  0.1320248E+00
         -1   -1    0    0    0  501 -0.00000000000E+00  0.00000000000E+00  0.41765591316E+03  0.41765591316E+03  0.00000000000E+00 0.  1.
         21   -1    0    0  501  502  0.00000000000E+00 -0.00000000000E+00 -0.68035336923E+01  0.68035336923E+01  0.00000000000E+00 0.  1.
         24    2    1    2    0    0  0.11325424041E+02 -0.20505986850E+02  0.32146610962E+03  0.33205454458E+03  0.79818545568E+02 0.  0.
        -13    1    3    3    0    0  0.16753728515E+02 -0.46858178922E+02  0.26337699167E+03  0.26803696777E+03  0.00000000000E+00 0.  1.
         14    1    3    3    0    0 -0.54283044736E+01  0.26352192072E+02  0.58089117952E+02  0.64017576812E+02  0.00000000000E+00 0. -1.
         -2    1    1    2    0  502 -0.11325424041E+02  0.20505986850E+02  0.89386269851E+02  0.92404902274E+02  0.00000000000E+00 0.  1.
<mgrwt>
<rscale>  1 0.83185100E+02</rscale>
<asrwt>0</asrwt>
<pdfrwt beam="1">  1       21 0.10466978E-02 0.83185100E+02</pdfrwt>
<pdfrwt beam="2">  1       -1 0.64254736E-01 0.83185100E+02</pdfrwt>
<totfact> 0.75951739E+05</totfact>
</mgrwt>
</event>
<event>
 6    2  0.9453093E+000  0.8415966E+02  0.7546771E-02  0.1317645E+00
          2   -1    0    0  502    0 -0.00000000000E+00  0.00000000000E+00  0.61945092289E+03  0.61945092289E+03  0.00000000000E+00 0. -1.
         21   -1    0    0  501  502  0.00000000000E+00 -0.00000000000E+00 -0.47768591252E+01  0.47768591252E+01  0.00000000000E+00 0.  1.
         24    2    1    2    0    0 -0.17262356916E+02  0.16127743055E+02  0.51201913256E+03  0.51888962197E+03  0.80775953179E+02 0.  0.
        -11    1    3    3    0    0 -0.32052372608E+02  0.26320046908E+02  0.13015229935E+03  0.13660058743E+03  0.00000000000E+00 0.  1.
         12    1    3    3    0    0  0.14790015692E+02 -0.10192303853E+02  0.38186683321E+03  0.38228903454E+03  0.00000000000E+00 0. -1.
          1    1    1    2  501    0  0.17262356916E+02 -0.16127743055E+02  0.10265493120E+03  0.10533816005E+03  0.00000000000E+00 0. -1.
<mgrwt>
<rscale>  1 0.84159656E+02</rscale>
<asrwt>0</asrwt>
<pdfrwt beam="1">  1       21 0.73490189E-03 0.84159656E+02</pdfrwt>
<pdfrwt beam="2">  1        2 0.95300079E-01 0.84159656E+02</pdfrwt>
<totfact> 0.34213687E+06</totfact>
</mgrwt>
</event>
<event>
 6    2  0.9453093E+000  0.8780978E+02  0.7546771E-02  0.1308244E+00
         21   -1    0    0  501  502  0.00000000000E+00  0.00000000000E+00  0.11015290099E+02  0.11015290099E+02  0.00000000000E+00 0.  1.
          2   -1    0    0  502    0 -0.00000000000E+00 -0.00000000000E+00 -0.42450851594E+03  0.42450851594E+03  0.00000000000E+00 0. -1.
         24    2    1    2    0    0 -0.92101542059E+01  0.24341249010E+02 -0.17681104498E+03  0.19741505341E+03  0.83864380643E+02 0.  0.
        -11    1    3    3    0    0  0.15358487103E+02  0.39131113945E+01  0.18159576666E+01  0.15952845173E+02  0.00000000000E+00 0.  1.
         12    1    3    3    0    0 -0.24568641309E+02  0.20428137615E+02 -0.17862700265E+03  0.18146220824E+03  0.00000000000E+00 0. -1.
          1    1    1    2  501    0  0.92101542059E+01 -0.24341249010E+02 -0.23668218086E+03  0.23810875263E+03  0.00000000000E+00 0. -1.
<mgrwt>
<rscale>  1 0.87809781E+02</rscale>
<asrwt>0</asrwt>
<pdfrwt beam="1">  1       21 0.16946600E-02 0.87809781E+02</pdfrwt>
<pdfrwt beam="2">  1        2 0.65309003E-01 0.87809781E+02</pdfrwt>
<totfact> 0.13993895E+06</totfact>
</mgrwt>
</event>
<event>
 6    2  0.9453093E+000  0.8379094E+02  0.7546771E-02  0.1318625E+00
          4   -1    0    0  502    0 -0.00000000000E+00  0.00000000000E+00  0.99432103932E+03  0.99432103932E+03  0.00000000000E+00 0. -1.
         21   -1    0    0  501  502  0.00000000000E+00 -0.00000000000E+00 -0.51483262397E+01  0.51483262397E+01  0.00000000000E+00 0. -1.
         24    2    1    2    0    0 -0.25975091707E+02 -0.76623229823E+01  0.93651312182E+03  0.94025408768E+03  0.79293792170E+02 0.  0.
        -11    1    3    3    0    0 -0.24360843861E+02 -0.28852497521E+02  0.20602856181E+03  0.20946046312E+03  0.00000000000E+00 0.  1.
         12    1    3    3    0    0 -0.16142478451E+01  0.21190174539E+02  0.73048456000E+03  0.73079362456E+03  0.00000000000E+00 0. -1.
          3    1    1    2  501    0  0.25975091707E+02  0.76623229823E+01  0.52659591266E+02  0.59215277885E+02  0.00000000000E+00 0. -1.
<mgrwt>
<rscale>  1 0.83790943E+02</rscale>
<asrwt>0</asrwt>
<pdfrwt beam="1">  1       21 0.79205098E-03 0.83790943E+02</pdfrwt>
<pdfrwt beam="2">  1        4 0.15297232E+00 0.83790943E+02</pdfrwt>
<totfact> 0.61687585E+04</totfact>
</mgrwt>
</event>
<event>
 6    2  0.9453093E+000  0.8812972E+02  0.7546771E-02  0.1307445E+00
          2   -1    0    0  502    0 -0.00000000000E+00  0.00000000000E+00  0.18360441828E+04  0.18360441828E+04  0.00000000000E+00 0. -1.
         21   -1    0    0  501  502  0.00000000000E+00 -0.00000000000E+00 -0.22365227326E+01  0.22365227326E+01  0.00000000000E+00 0. -1.
         24    2    1    2    0    0  0.18894260530E+02  0.32257644608E+02  0.14431415457E+04  0.14458299931E+04  0.79807891320E+02 0.  0.
        -13    1    3    3    0    0 -0.29829672213E+02  0.29197096207E+01  0.38748240136E+03  0.38863986596E+03  0.00000000000E+00 0.  1.
         14    1    3    3    0    0  0.48723932743E+02  0.29337934988E+02  0.10556591443E+04  0.10571901272E+04  0.00000000000E+00 0. -1.
          1    1    1    2  501    0 -0.18894260530E+02 -0.32257644608E+02  0.39066611442E+03  0.39245071241E+03  0.00000000000E+00 0. -1.
<mgrwt>
<rscale>  1 0.88129724E+02</rscale>
<asrwt>0</asrwt>
<pdfrwt beam="1">  1       21 0.34408189E-03 0.88129724E+02</pdfrwt>
<pdfrwt beam="2">  1        2 0.28246713E+00 0.88129724E+02</pdfrwt>
<totfact> 0.22335221E+06</totfact>
</mgrwt>
</event>
<event>
 6    2  0.9453093E+000  0.8558157E+02  0.7546771E-02  0.1313919E+00
          2   -1    0    0  502    0 -0.00000000000E+00  0.00000000000E+00  0.74050575620E+03  0.74050575620E+03  0.00000000000E+00 0. -1.
         21   -1    0    0  501  502  0.00000000000E+00 -0.00000000000E+00 -0.43438847920E+01  0.43438847920E+01  0.00000000000E+00 0.  1.
         24    2    1    2    0    0  0.87231503852E+01 -0.26224671933E+02  0.53617036142E+03  0.54295751426E+03  0.80996166893E+02 0.  0.
        -13    1    3    3    0    0  0.97918714655E+01 -0.18528909664E+02  0.29277892578E+02  0.36005502829E+02  0.00000000000E+00 0.  1.
         14    1    3    3    0    0 -0.10687210802E+01 -0.76957622685E+01  0.50689246884E+03  0.50695201143E+03  0.00000000000E+00 0. -1.
          1    1    1    2  501    0 -0.87231503852E+01  0.26224671933E+02  0.19999150999E+03  0.20189212673E+03  0.00000000000E+00 0. -1.
<mgrwt>
<rscale>  1 0.85581574E+02</rscale>
<asrwt>0</asrwt>
<pdfrwt beam="1">  1       21 0.66829056E-03 0.85581574E+02</pdfrwt>
<pdfrwt beam="2">  1        2 0.11392386E+00 0.85581574E+02</pdfrwt>
<totfact> 0.32320112E+06</totfact>
</mgrwt>
</event>
<event>
 6    2  0.9453093E+000  0.8622651E+02  0.7546771E-02  0.1312256E+00
         21   -1    0    0  501  502  0.00000000000E+00  0.00000000000E+00  0.75147953671E+01  0.75147953671E+01  0.00000000000E+00 0.  1.
         -1   -1    0    0    0  501 -0.00000000000E+00 -0.00000000000E+00 -0.46371590501E+03  0.46371590501E+03  0.00000000000E+00 0.  1.
         24    2    1    2    0    0  0.90775683213E+01 -0.28695767365E+02 -0.37039563517E+03  0.38029979936E+03  0.80803227193E+02 0.  0.
        -13    1    3    3    0    0  0.27982068253E+01 -0.34869111386E+02 -0.36982488294E+03  0.37147561014E+03  0.00000000000E+00 0.  1.
         14    1    3    3    0    0  0.62793614960E+01  0.61733440212E+01 -0.57075223536E+00  0.88241892158E+01  0.00000000000E+00 0. -1.
         -2    1    1    2    0  502 -0.90775683213E+01  0.28695767365E+02 -0.85805474474E+02  0.90930901023E+02  0.00000000000E+00 0.  1.
<mgrwt>
<rscale>  1 0.86226509E+02</rscale>
<asrwt>0</asrwt>
<pdfrwt beam="1">  1       21 0.11561222E-02 0.86226509E+02</pdfrwt>
<pdfrwt beam="2">  1       -1 0.71340918E-01 0.86226509E+02</pdfrwt>
<totfact> 0.53322480E+05</totfact>
</mgrwt>
</event>
<event>
 6    2  0.9453093E+000  0.8711790E+02  0.7546771E-02  0.1309985E+00
          2   -1    0    0  502    0 -0.00000000000E+00  0.00000000000E+00  0.15601300021E+04  0.15601300021E+04  0.00000000000E+00 0. -1.
         21   -1    0    0  501  502  0.00000000000E+00 -0.00000000000E+00 -0.25598529614E+01  0.25598529614E+01  0.00000000000E+00 0. -1.
         24    2    1    2    0    0  0.23241231458E+02 -0.17742455097E+02  0.13783318837E+04  0.13810822965E+04  0.82064476793E+02 0.  0.
        -11    1    3    3    0    0  0.12407006014E+02  0.10754952266E+02  0.54984629737E+02  0.57383902828E+02  0.00000000000E+00 0.  1.
         12    1    3    3    0    0  0.10834225444E+02 -0.28497407363E+02  0.13233472540E+04  0.13236983937E+04  0.00000000000E+00 0. -1.
          1    1    1    2  501    0 -0.23241231458E+02  0.17742455097E+02  0.17923826543E+03  0.18160755861E+03  0.00000000000E+00 0. -1.
<mgrwt>
<rscale>  1 0.87117897E+02</rscale>
<asrwt>0</asrwt>
<pdfrwt beam="1">  1       21 0.39382478E-03 0.87117897E+02</pdfrwt>
<pdfrwt beam="2">  1        2 0.24001924E+00 0.87117897E+02</pdfrwt>
<totfact> 0.25011261E+06</totfact>
</mgrwt>
</event>
<event>
 6    2  0.9453093E+000  0.8318317E+02  0.7546771E-02  0.1320253E+00
          4   -1    0    0  502    0 -0.00000000000E+00  0.00000000000E+00  0.12830197387E+02  0.12830197387E+02  0.00000000000E+00 0. -1.
         21   -1    0    0  501  502  0.00000000000E+00 -0.00000000000E+00 -0.23566323738E+03  0.23566323738E+03  0.00000000000E+00 0.  1.
         24    2    1    2    0    0  0.11300024648E+02  0.21739200739E+02 -0.19096579771E+03  0.20829636352E+03  0.79493117668E+02 0.  0.
        -13    1    3    3    0    0 -0.10170853527E+02  0.24140832456E+02 -0.18361659356E+03  0.18547581913E+03  0.00000000000E+00 0.  1.
         14    1    3    3    0    0  0.21470878175E+02 -0.24016317171E+01 -0.73492041461E+01  0.22820544386E+02  0.00000000000E+00 0. -1.
          3    1    1    2  501    0 -0.11300024648E+02 -0.21739200739E+02 -0.31867242291E+02  0.40197071250E+02  0.00000000000E+00 0. -1.
<mgrwt>
<rscale>  1 0.83183166E+02</rscale>
<asrwt>0</asrwt>
<pdfrwt beam="1">  1       21 0.36255881E-01 0.83183166E+02</pdfrwt>
<pdfrwt beam="2">  1        4 0.19738766E-02 0.83183166E+02</pdfrwt>
<totfact> 0.28256043E+05</totfact>
</mgrwt>
</event>
<event>
 6    2  0.9453093E+000  0.8568625E+02  0.7546771E-02  0.1313648E+00
         21   -1    0    0  501  502  0.00000000000E+00  0.00000000000E+00  0.25203090491E+02  0.25203090491E+02  0.00000000000E+00 0. -1.
         -1   -1    0    0    0  501 -0.00000000000E+00 -0.00000000000E+00 -0.13135588137E+03  0.13135588137E+03  0.00000000000E+00 0.  1.
         24    2    1    2    0    0  0.17259252259E+01  0.29183198460E+02 -0.75542670550E+02  0.11423147067E+03  0.80544993193E+02 0.  0.
        -13    1    3    3    0    0 -0.89318158802E+01 -0.46955594583E+01 -0.77982030429E+02  0.78632198770E+02  0.00000000000E+00 0.  1.
         14    1    3    3    0    0  0.10657741106E+02  0.33878757918E+02  0.24393598788E+01  0.35599271905E+02  0.00000000000E+00 0. -1.
         -2    1    1    2    0  502 -0.17259252259E+01 -0.29183198460E+02 -0.30610120332E+02  0.42327501190E+02  0.00000000000E+00 0.  1.
<mgrwt>
<rscale>  1 0.85686252E+02</rscale>
<asrwt>0</asrwt>
<pdfrwt beam="1">  1       21 0.38773986E-02 0.85686252E+02</pdfrwt>
<pdfrwt beam="2">  1       -1 0.20208597E-01 0.85686252E+02</pdfrwt>
<totfact> 0.68417929E+05</totfact>
</mgrwt>
</event>
<event>
 6    2  0.9453093E+000  0.8749149E+02  0.7546771E-02  0.1309043E+00
          2   -1    0    0  502    0 -0.00000000000E+00  0.00000000000E+00  0.12432327660E+03  0.12432327660E+03  0.00000000000E+00 0. -1.
         21   -1    0    0  501  502  0.00000000000E+00 -0.00000000000E+00 -0.29268241034E+02  0.29268241034E+02  0.00000000000E+00 0. -1.
         24    2    1    2    0    0 -0.22442155753E+02 -0.24023252592E+02  0.64355330366E+02  0.10861108945E+03  0.81080165179E+02 0.  0.
        -11    1    3    3    0    0 -0.20351197673E+02  0.28208434903E+02  0.31073626522E+02  0.46641797903E+02  0.00000000000E+00 0.  1.
         12    1    3    3    0    0 -0.20909580805E+01 -0.52231687495E+02  0.33281703844E+02  0.61969291548E+02  0.00000000000E+00 0. -1.
          1    1    1    2  501    0  0.22442155753E+02  0.24023252592E+02  0.30699705196E+02  0.44980428177E+02  0.00000000000E+00 0. -1.
<mgrwt>
<rscale>  1 0.87491486E+02</rscale>
<asrwt>0</asrwt>
<pdfrwt beam="1">  1       21 0.45028064E-02 0.87491486E+02</pdfrwt>
<pdfrwt beam="2">  1        2 0.19126658E-01 0.87491486E+02</pdfrwt>
<totfact> 0.10640321E+06</totfact>
</mgrwt>
</event>
<event>
 6    2  0.9453093E+000  0.8655409E+02  0.7546771E-02  0.1311418E+00
         21   -1    0    0  501  502  0.00000000000E+00  0.00000000000E+00  0.91761798279E+03  0.91761798279E+03  0.00000000000E+00 0. -1.
          2   -1    0    0  502    0 -0.00000000000E+00 -0.00000000000E+00 -0.20460427595E+02  0.20460427595E+02  0.00000000000E+00 0. -1.
         24    2    1    2    0    0 -0.24294196320E+02  0.15678953744E+02  0.72478481180E+02  0.11289260544E+03  0.81581692575E+02 0.  0.
        -11    1    3    3    0    0 -0.34257610530E+02  0.12624052204E+02  0.87384569229E+02  0.94704875865E+02  0.00000000000E+00 0.  1.
         12    1    3    3    0    0  0.99634142099E+01  0.30549015401E+01 -0.14906088049E+02  0.18187729574E+02  0.00000000000E+00 0. -1.
          1    1    1    2  501    0  0.24294196320E+02 -0.15678953744E+02  0.82467907401E+03  0.82518580494E+03  0.00000000000E+00 0. -1.
<mgrwt>
<rscale>  1 0.86554088E+02</rscale>
<asrwt>0</asrwt>
<pdfrwt beam="1">  1       21 0.14117197E+00 0.86554088E+02</pdfrwt>
<pdfrwt beam="2">  1        2 0.31477588E-02 0.86554088E+02</pdfrwt>
<totfact> 0.12519965E+04</totfact>
</mgrwt>
</event>
<event>
 6    2  0.9453093E+000  0.1039749E+03  0.7546771E-02  0.1272153E+00
         21   -1    0    0  501  502  0.00000000000E+00  0.00000000000E+00  0.11473465432E+03  0.11473465432E+03  0.00000000000E+00 0.  1.
         -1   -1    0    0    0  501 -0.00000000000E+00 -0.00000000000E+00 -0.71490617274E+02  0.71490617274E+02  0.00000000000E+00 0.  1.
         24    2    1    2    0    0  0.61305178083E+02 -0.46261111834E+02  0.19068591156E+02  0.10570901539E+03  0.70088297446E+02 0.  0.
        -11    1    3    3    0    0  0.50642275905E+02 -0.64504830978E+02  0.96544262108E+01  0.82575548886E+02  0.00000000000E+00 0.  1.
         12    1    3    3    0    0  0.10662902178E+02  0.18243719144E+02  0.94141649455E+01  0.23133466508E+02  0.00000000000E+00 0. -1.
         -2    1    1    2    0  502 -0.61305178083E+02  0.46261111834E+02  0.24175445886E+02  0.80516256196E+02  0.00000000000E+00 0.  1.
<mgrwt>
<rscale>  1 0.10397492E+03</rscale>
<asrwt>0</asrwt>
<pdfrwt beam="1">  1       21 0.17651485E-01 0.10397492E+03</pdfrwt>
<pdfrwt beam="2">  1       -1 0.10998556E-01 0.10397492E+03</pdfrwt>
<totfact> 0.13235253E+05</totfact>
</mgrwt>
</event>
<event>
 6    2  0.9453093E+000  0.8499689E+02  0.7546771E-02  0.1315441E+00
         -3   -1    0    0    0  501 -0.00000000000E+00  0.00000000000E+00  0.94334037288E+02  0.94334037288E+02  0.00000000000E+00 0.  1.
         21   -1    0    0  501  502  0.00000000000E+00 -0.00000000000E+00 -0.31502855038E+02  0.31502855038E+02  0.00000000000E+00 0.  1.
         24    2    1    2    0    0 -0.22775500888E+02  0.72852246865E+01  0.46562140392E+02  0.96914934190E+02  0.81563923469E+02 0.  0.
        -11    1    3    3    0    0 -0.33608003106E+02  0.80818419778E+01  0.66082074920E+02  0.74576502119E+02  0.00000000000E+00 0.  1.
         12    1    3    3    0    0  0.10832502219E+02 -0.79661729132E+00 -0.19519934528E+02  0.22338432071E+02  0.00000000000E+00 0. -1.
         -4    1    1    2    0  502  0.22775500888E+02 -0.72852246865E+01  0.16269041858E+02  0.28921958135E+02  0.00000000000E+00 0.  1.
<mgrwt>
<rscale>  1 0.84996891E+02</rscale>
<asrwt>0</asrwt>
<pdfrwt beam="1">  1       21 0.48465931E-02 0.84996891E+02</pdfrwt>
<pdfrwt beam="2">  1       -3 0.14512929E-01 0.84996891E+02</pdfrwt>
<totfact> 0.48384714E+05</totfact>
</mgrwt>
</event>
<event>
 6    2  0.9453093E+000  0.8560302E+02  0.7546771E-02  0.1313863E+00
         21   -1    0    0  501  502  0.00000000000E+00  0.00000000000E+00  0.55668608628E+02  0.55668608628E+02  0.00000000000E+00 0. -1.
          2   -1    0    0  502    0 -0.00000000000E+00 -0.00000000000E+00 -0.52084767420E+03  0.52084767420E+03  0.00000000000E+00 0. -1.
         24    2    1    2    0    0 -0.47489188255E+01  0.20166693927E+02 -0.51525818154E+03  0.52232065912E+03  0.83057988933E+02 0.  0.
        -13    1    3    3    0    0  0.21172392307E+02  0.54978109378E+00 -0.34621813446E+02  0.40586234385E+02  0.00000000000E+00 0.  1.
         14    1    3    3    0    0 -0.25921311133E+02  0.19616912833E+02 -0.48063636809E+03  0.48173442473E+03  0.00000000000E+00 0. -1.
          1    1    1    2  501    0  0.47489188255E+01 -0.20166693927E+02  0.50079115964E+02  0.54195623713E+02  0.00000000000E+00 0. -1.
<mgrwt>
<rscale>  1 0.85603022E+02</rscale>
<asrwt>0</asrwt>
<pdfrwt beam="1">  1       21 0.85644014E-02 0.85603022E+02</pdfrwt>
<pdfrwt beam="2">  1        2 0.80130411E-01 0.85603022E+02</pdfrwt>
<totfact> 0.78207924E+04</totfact>
</mgrwt>
</event>
<event>
 6    2  0.9453093E+000  0.8519826E+02  0.7546771E-02  0.1314915E+00
         -1   -1    0    0    0  501 -0.00000000000E+00  0.00000000000E+00  0.25373373612E+02  0.25373373612E+02  0.00000000000E+00 0.  1.
         21   -1    0    0  501  502  0.00000000000E+00 -0.00000000000E+00 -0.36288207440E+03  0.36288207440E+03  0.00000000000E+00 0.  1.
         24    2    1    2    0    0  0.28404944778E+02  0.53245920746E+01 -0.48961864984E+02  0.98264985028E+02  0.80147057908E+02 0.  0.
        -13    1    3    3    0    0  0.89795903540E+01 -0.37043166495E+02 -0.16906875486E+02  0.41697382000E+02  0.00000000000E+00 0.  1.
         14    1    3    3    0    0  0.19425354424E+02  0.42367758570E+02 -0.32054989497E+02  0.56567603029E+02  0.00000000000E+00 0. -1.
         -2    1    1    2    0  502 -0.28404944778E+02 -0.53245920746E+01 -0.28854683580E+03  0.28999046298E+03  0.00000000000E+00 0.  1.
<mgrwt>
<rscale>  1 0.85198257E+02</rscale>
<asrwt>0</asrwt>
<pdfrwt beam="1">  1       21 0.55828013E-01 0.85198257E+02</pdfrwt>
<pdfrwt beam="2">  1       -1 0.39035959E-02 0.85198257E+02</pdfrwt>
<totfact> 0.65847295E+04</totfact>
</mgrwt>
</event>
<event>
 6    2  0.9453093E+000  0.8797853E+02  0.7546771E-02  0.1307822E+00
         21   -1    0    0  501  502  0.00000000000E+00  0.00000000000E+00  0.39301299884E+01  0.39301299884E+01  0.00000000000E+00 0. -1.
          2   -1    0    0  502    0 -0.00000000000E+00 -0.00000000000E+00 -0.20177432338E+04  0.20177432338E+04  0.00000000000E+00 0. -1.
         24    2    1    2    0    0 -0.24725099033E+02 -0.13314838842E+02 -0.19496491790E+04  0.19516331988E+04  0.83376293355E+02 0.  0.
        -11    1    3    3    0    0  0.28420198785E+02 -0.13801189544E+02 -0.49052312880E+03  0.49153954105E+03  0.00000000000E+00 0.  1.
         12    1    3    3    0    0 -0.53145297818E+02  0.48635070214E+00 -0.14591260502E+04  0.14600936578E+04  0.00000000000E+00 0. -1.
          1    1    1    2  501    0  0.24725099033E+02  0.13314838842E+02 -0.64163924875E+02  0.70040164984E+02  0.00000000000E+00 0. -1.
<mgrwt>
<rscale>  1 0.87978530E+02</rscale>
<asrwt>0</asrwt>
<pdfrwt beam="1">  1       21 0.60463584E-03 0.87978530E+02</pdfrwt>
<pdfrwt beam="2">  1        2 0.31042180E+00 0.87978530E+02</pdfrwt>
<totfact> 0.76530233E+05</totfact>
</mgrwt>
</event>
<event>
 6    2  0.9453093E+000  0.8353095E+02  0.7546771E-02  0.1319320E+00
         21   -1    0    0  501  502  0.00000000000E+00  0.00000000000E+00  0.10305233419E+02  0.10305233419E+02  0.00000000000E+00 0. -1.
          2   -1    0    0  502    0 -0.00000000000E+00 -0.00000000000E+00 -0.38462371513E+03  0.38462371513E+03  0.00000000000E+00 0. -1.
         24    2    1    2    0    0 -0.20070297943E+02  0.12056161932E+02 -0.35463975762E+03  0.36434431054E+03  0.80182610593E+02 0.  0.
        -13    1    3    3    0    0  0.19809960026E+02 -0.21571611478E+02 -0.91129478708E+02  0.95720169388E+02  0.00000000000E+00 0.  1.
         14    1    3    3    0    0 -0.39880257969E+02  0.33627773410E+02 -0.26351027891E+03  0.26862414116E+03  0.00000000000E+00 0. -1.
          1    1    1    2  501    0  0.20070297943E+02 -0.12056161932E+02 -0.19678724095E+02  0.30584638008E+02  0.00000000000E+00 0. -1.
<mgrwt>
<rscale>  1 0.83530946E+02</rscale>
<asrwt>0</asrwt>
<pdfrwt beam="1">  1       21 0.15854205E-02 0.83530946E+02</pdfrwt>
<pdfrwt beam="2">  1        2 0.59172881E-01 0.83530946E+02</pdfrwt>
<totfact> 0.17156778E+06</totfact>
</mgrwt>
</event>
<event>
 6    2  0.9453093E+000  0.8267159E+02  0.7546771E-02  0.1321636E+00
         21   -1    0    0  501  502  0.00000000000E+00  0.00000000000E+00  0.15839589367E+01  0.15839589367E+01  0.00000000000E+00 0.  1.
          2   -1    0    0  502    0 -0.00000000000E+00 -0.00000000000E+00 -0.19334480357E+04  0.19334480357E+04  0.00000000000E+00 0. -1.
         24    2    1    2    0    0  0.21236264415E+02 -0.15292798526E+02 -0.12998395679E+04  0.13024659282E+04  0.78420298459E+02 0.  0.
        -13    1    3    3    0    0  0.63343518312E+01  0.17505064933E+02 -0.81710113359E+02  0.83803901679E+02  0.00000000000E+00 0.  1.
         14    1    3    3    0    0  0.14901912583E+02 -0.32797863459E+02 -0.12181294545E+04  0.12186620265E+04  0.00000000000E+00 0. -1.
          1    1    1    2  501    0 -0.21236264415E+02  0.15292798526E+02 -0.63202450893E+03  0.63256606652E+03  0.00000000000E+00 0. -1.
<mgrwt>
<rscale>  1 0.82671590E+02</rscale>
<asrwt>0</asrwt>
<pdfrwt beam="1">  1       21 0.24368625E-03 0.82671590E+02</pdfrwt>
<pdfrwt beam="2">  1        2 0.29745323E+00 0.82671590E+02</pdfrwt>
<totfact> 0.33446046E+06</totfact>
</mgrwt>
</event>
<event>
 6    2  0.9453093E+000  0.1222059E+03  0.7546771E-02  0.1239502E+00
          2   -1    0    0  502    0 -0.00000000000E+00  0.00000000000E+00  0.11823568707E+04  0.11823568707E+04  0.00000000000E+00 0. -1.
         21   -1    0    0  501  502  0.00000000000E+00 -0.00000000000E+00 -0.12021803722E+02  0.12021803722E+02  0.00000000000E+00 0. -1.
         24    2    1    2    0    0 -0.33829039062E+02 -0.85080305756E+02  0.91498671502E+03  0.92311156776E+03  0.80939579621E+02 0.  0.
        -11    1    3    3    0    0 -0.21360810419E+02  0.12937871500E+01  0.60371489018E+02  0.64052125595E+02  0.00000000000E+00 0.  1.
         12    1    3    3    0    0 -0.12468228643E+02 -0.86374092906E+02  0.85461522600E+03  0.85905944216E+03  0.00000000000E+00 0. -1.
          1    1    1    2  501    0  0.33829039062E+02  0.85080305756E+02  0.25534835196E+03  0.27126710667E+03  0.00000000000E+00 0. -1.
<mgrwt>
<rscale>  1 0.12220588E+03</rscale>
<asrwt>0</asrwt>
<pdfrwt beam="1">  1       21 0.18495092E-02 0.12220588E+03</pdfrwt>
<pdfrwt beam="2">  1        2 0.18190097E+00 0.12220588E+03</pdfrwt>
<totfact> 0.36042335E+05</totfact>
</mgrwt>
</event>
<event>
 6    2  0.9453093E+000  0.1036644E+03  0.7546771E-02  0.1272774E+00
         21   -1    0    0  501  502  0.00000000000E+00  0.00000000000E+00  0.30129763959E+02  0.30129763959E+02  0.00000000000E+00 0. -1.
         -1   -1    0    0    0  501 -0.00000000000E+00 -0.00000000000E+00 -0.26275588273E+03  0.26275588273E+03  0.00000000000E+00 0.  1.
         24    2    1    2    0    0 -0.44967793498E+02  0.48762369723E+02 -0.97287506353E+02  0.14216600243E+03  0.79664560517E+02 0.  0.
        -11    1    3    3    0    0 -0.39140529414E+02 -0.13074225924E+02 -0.44071839305E+02  0.60375851514E+02  0.00000000000E+00 0.  1.
         12    1    3    3    0    0 -0.58272640837E+01  0.61836595648E+02 -0.53215667049E+02  0.81790150919E+02  0.00000000000E+00 0. -1.
         -2    1    1    2    0  502  0.44967793498E+02 -0.48762369723E+02 -0.13533861241E+03  0.15071964425E+03  0.00000000000E+00 0.  1.
<mgrwt>
<rscale>  1 0.10366443E+03</rscale>
<asrwt>0</asrwt>
<pdfrwt beam="1">  1       21 0.46353483E-02 0.10366443E+03</pdfrwt>
<pdfrwt beam="2">  1       -1 0.40423982E-01 0.10366443E+03</pdfrwt>
<totfact> 0.16437893E+05</totfact>
</mgrwt>
</event>
<event>
 6    2  0.9453093E+000  0.8926113E+02  0.7546771E-02  0.1304651E+00
         -1   -1    0    0    0  501 -0.00000000000E+00  0.00000000000E+00  0.12751014245E+02  0.12751014245E+02  0.00000000000E+00 0.  1.
         21   -1    0    0  501  502  0.00000000000E+00 -0.00000000000E+00 -0.37706123843E+03  0.37706123843E+03  0.00000000000E+00 0.  1.
         24    2    1    2    0    0  0.39487885806E+02  0.24094533051E+01 -0.17542553824E+03  0.19682903275E+03  0.80015311492E+02 0.  0.
        -13    1    3    3    0    0  0.28876960051E+02 -0.16205324277E+02 -0.17493516925E+02  0.37450160095E+02  0.00000000000E+00 0.  1.
         14    1    3    3    0    0  0.10610925754E+02  0.18614777582E+02 -0.15793202132E+03  0.15937887265E+03  0.00000000000E+00 0. -1.
         -2    1    1    2    0  502 -0.39487885806E+02 -0.24094533051E+01 -0.18888468594E+03  0.19298321993E+03  0.00000000000E+00 0.  1.
<mgrwt>
<rscale>  1 0.89261126E+02</rscale>
<asrwt>0</asrwt>
<pdfrwt beam="1">  1       21 0.58009412E-01 0.89261126E+02</pdfrwt>
<pdfrwt beam="2">  1       -1 0.19616948E-02 0.89261126E+02</pdfrwt>
<totfact> 0.16381041E+05</totfact>
</mgrwt>
</event>
<event>
 6    2  0.9453093E+000  0.9663969E+02  0.7546771E-02  0.1287525E+00
         -1   -1    0    0    0  501 -0.00000000000E+00  0.00000000000E+00  0.11035260750E+02  0.11035260750E+02  0.00000000000E+00 0.  1.
         21   -1    0    0  501  502  0.00000000000E+00 -0.00000000000E+00 -0.59286632101E+03  0.59286632101E+03  0.00000000000E+00 0. -1.
         24    2    1    2    0    0 -0.50172484003E+02 -0.26269864249E+02 -0.26550596871E+03  0.28254671955E+03  0.78306100606E+02 0.  0.
        -13    1    3    3    0    0 -0.49103420640E+02 -0.35533282084E+01 -0.69189191483E+02  0.84917114164E+02  0.00000000000E+00 0.  1.
         14    1    3    3    0    0 -0.10690633625E+01 -0.22716536040E+02 -0.19631677722E+03  0.19762960539E+03  0.00000000000E+00 0. -1.
         -2    1    1    2    0  502  0.50172484003E+02  0.26269864249E+02 -0.31632509155E+03  0.32135486221E+03  0.00000000000E+00 0.  1.
<mgrwt>
<rscale>  1 0.96639688E+02</rscale>
<asrwt>0</asrwt>
<pdfrwt beam="1">  1       21 0.91210171E-01 0.96639688E+02</pdfrwt>
<pdfrwt beam="2">  1       -1 0.16977330E-02 0.96639688E+02</pdfrwt>
<totfact> 0.75551939E+04</totfact>
</mgrwt>
</event>
<event>
 6    2  0.9453093E+000  0.1271768E+03  0.7546771E-02  0.1231706E+00
         -3   -1    0    0    0  501 -0.00000000000E+00  0.00000000000E+00  0.85981165016E+03  0.85981165016E+03  0.00000000000E+00 0.  1.
         21   -1    0    0  501  502  0.00000000000E+00 -0.00000000000E+00 -0.21500027709E+02  0.21500027709E+02  0.00000000000E+00 0.  1.
         24    2    1    2    0    0 -0.69356462295E+02  0.69047160221E+02  0.70246048048E+03  0.71388001428E+03  0.81216494392E+02 0.  0.
        -13    1    3    3    0    0 -0.87636006394E+02  0.58519681814E+02  0.61080036996E+03  0.61982393849E+03  0.00000000000E+00 0.  1.
         14    1    3    3    0    0  0.18279544099E+02  0.10527478407E+02  0.91660110513E+02  0.94056075791E+02  0.00000000000E+00 0. -1.
         -4    1    1    2    0  502  0.69356462295E+02 -0.69047160221E+02  0.13585114198E+03  0.16743166359E+03  0.00000000000E+00 0.  1.
<mgrwt>
<rscale>  1 0.12717684E+03</rscale>
<asrwt>0</asrwt>
<pdfrwt beam="1">  1       21 0.33076972E-02 0.12717684E+03</pdfrwt>
<pdfrwt beam="2">  1       -3 0.13227869E+00 0.12717684E+03</pdfrwt>
<totfact> 0.12142286E+04</totfact>
</mgrwt>
</event>
<event>
 6    2  0.9453093E+000  0.8616554E+02  0.7546771E-02  0.1312412E+00
          2   -1    0    0  502    0 -0.00000000000E+00  0.00000000000E+00  0.33560326866E+03  0.33560326866E+03  0.00000000000E+00 0. -1.
         21   -1    0    0  501  502  0.00000000000E+00 -0.00000000000E+00 -0.12989325803E+02  0.12989325803E+02  0.00000000000E+00 0. -1.
         24    2    1    2    0    0  0.29518760699E+02  0.69970390641E+01  0.29583326024E+03  0.30812630293E+03  0.80648526987E+02 0.  0.
        -11    1    3    3    0    0  0.20752183965E+01 -0.68315384067E+01 -0.29801917912E+01  0.77367946533E+01  0.00000000000E+00 0.  1.
         12    1    3    3    0    0  0.27443542303E+02  0.13828577471E+02  0.29881345203E+03  0.30038950828E+03  0.00000000000E+00 0. -1.
          1    1    1    2  501    0 -0.29518760699E+02 -0.69970390641E+01  0.26780682620E+02  0.40466291534E+02  0.00000000000E+00 0. -1.
<mgrwt>
<rscale>  1 0.86165542E+02</rscale>
<asrwt>0</asrwt>
<pdfrwt beam="1">  1       21 0.19983581E-02 0.86165542E+02</pdfrwt>
<pdfrwt beam="2">  1        2 0.51631266E-01 0.86165542E+02</pdfrwt>
<totfact> 0.13740145E+06</totfact>
</mgrwt>
</event>
<event>
 6    2  0.9453093E+000  0.9931902E+02  0.7546771E-02  0.1281735E+00
         -3   -1    0    0    0  501 -0.00000000000E+00  0.00000000000E+00  0.16411723030E+03  0.16411723030E+03  0.00000000000E+00 0.  1.
         21   -1    0    0  501  502  0.00000000000E+00 -0.00000000000E+00 -0.40142564829E+02  0.40142564829E+02  0.00000000000E+00 0. -1.
         24    2    1    2    0    0  0.52257290038E+02 -0.26606577668E+02  0.99899472835E+02  0.14086934445E+03  0.80159423620E+02 0.  0.
        -11    1    3    3    0    0 -0.84559698097E+00  0.15127786872E+02  0.61157851869E+02  0.63006728332E+02  0.00000000000E+00 0.  1.
         12    1    3    3    0    0  0.53102887019E+02 -0.41734364540E+02  0.38741620967E+02  0.77862616116E+02  0.00000000000E+00 0. -1.
         -4    1    1    2    0  502 -0.52257290038E+02  0.26606577668E+02  0.24075192639E+02  0.63390450684E+02  0.00000000000E+00 0.  1.
<mgrwt>
<rscale>  1 0.99319019E+02</rscale>
<asrwt>0</asrwt>
<pdfrwt beam="1">  1       21 0.61757793E-02 0.99319019E+02</pdfrwt>
<pdfrwt beam="2">  1       -3 0.25248804E-01 0.99319019E+02</pdfrwt>
<totfact> 0.12629330E+05</totfact>
</mgrwt>
</event>
<event>
 6    2  0.9453093E+000  0.8687664E+02  0.7546771E-02  0.1310597E+00
         21   -1    0    0  501  502  0.00000000000E+00  0.00000000000E+00  0.14015551687E+02  0.14015551687E+02  0.00000000000E+00 0.  1.
          2   -1    0    0  502    0 -0.00000000000E+00 -0.00000000000E+00 -0.31709883639E+03  0.31709883639E+03  0.00000000000E+00 0. -1.
         24    2    1    2    0    0  0.30000835407E+02  0.17906421474E+02 -0.14348327035E+03  0.16773490761E+03  0.79541563388E+02 0.  0.
        -11    1    3    3    0    0  0.41044640230E+02 -0.12408730287E+02 -0.37548722139E+02  0.56996014012E+02  0.00000000000E+00 0.  1.
         12    1    3    3    0    0 -0.11043804823E+02  0.30315151761E+02 -0.10593454821E+03  0.11073889360E+03  0.00000000000E+00 0. -1.
          1    1    1    2  501    0 -0.30000835407E+02 -0.17906421474E+02 -0.15960001436E+03  0.16337948047E+03  0.00000000000E+00 0. -1.
<mgrwt>
<rscale>  1 0.86876639E+02</rscale>
<asrwt>0</asrwt>
<pdfrwt beam="1">  1       21 0.21562387E-02 0.86876639E+02</pdfrwt>
<pdfrwt beam="2">  1        2 0.48784436E-01 0.86876639E+02</pdfrwt>
<totfact> 0.12919415E+06</totfact>
</mgrwt>
</event>
<event>
 6    2  0.9453093E+000  0.1077424E+03  0.7546771E-02  0.1264809E+00
          2   -1    0    0  502    0 -0.00000000000E+00  0.00000000000E+00  0.16350802608E+03  0.16350802608E+03  0.00000000000E+00 0. -1.
         21   -1    0    0  501  502  0.00000000000E+00 -0.00000000000E+00 -0.11267114856E+03  0.11267114856E+03  0.00000000000E+00 0. -1.
         24    2    1    2    0    0  0.37747400032E+02  0.55767402433E+02  0.13221211526E+03  0.17055342636E+03  0.84104449569E+02 0.  0.
        -13    1    3    3    0    0  0.38563349733E+02  0.36106783124E+02  0.19776191020E+02  0.56408593862E+02  0.00000000000E+00 0.  1.
         14    1    3    3    0    0 -0.81594970156E+00  0.19660619309E+02  0.11243592424E+03  0.11414483250E+03  0.00000000000E+00 0. -1.
          1    1    1    2  501    0 -0.37747400032E+02 -0.55767402433E+02 -0.81375237739E+02  0.10562574828E+03  0.00000000000E+00 0. -1.
<mgrwt>
<rscale>  1 0.10774241E+03</rscale>
<asrwt>0</asrwt>
<pdfrwt beam="1">  1       21 0.17334023E-01 0.10774241E+03</pdfrwt>
<pdfrwt beam="2">  1        2 0.25155081E-01 0.10774241E+03</pdfrwt>
<totfact> 0.77830516E+04</totfact>
</mgrwt>
</event>
<event>
 6    2  0.9453093E+000  0.8230827E+02  0.7546771E-02  0.1322626E+00
         21   -1    0    0  501  502  0.00000000000E+00  0.00000000000E+00  0.17546019409E+02  0.17546019409E+02  0.00000000000E+00 0. -1.
          2   -1    0    0  502    0 -0.00000000000E+00 -0.00000000000E+00 -0.15926543827E+03  0.15926543827E+03  0.00000000000E+00 0. -1.
         24    2    1    2    0    0  0.11535655596E+02 -0.16340198405E+02 -0.12927728345E+03  0.15325556314E+03  0.79840955558E+02 0.  0.
        -13    1    3    3    0    0  0.67016388921E+01  0.31282642408E+02 -0.34340131501E+02  0.46933573392E+02  0.00000000000E+00 0.  1.
         14    1    3    3    0    0  0.48340167035E+01 -0.47622840813E+02 -0.94937151945E+02  0.10632198975E+03  0.00000000000E+00 0. -1.
          1    1    1    2  501    0 -0.11535655596E+02  0.16340198405E+02 -0.12442135419E+02  0.23555894543E+02  0.00000000000E+00 0. -1.
<mgrwt>
<rscale>  1 0.82308272E+02</rscale>
<asrwt>0</asrwt>
<pdfrwt beam="1">  1       21 0.26993876E-02 0.82308272E+02</pdfrwt>
<pdfrwt beam="2">  1        2 0.24502375E-01 0.82308272E+02</pdfrwt>
<totfact> 0.18535263E+06</totfact>
</mgrwt>
</event>
<event>
 6    2  0.1207248E+001  0.1824254E+03  0.7546771E-02  0.1165476E+00
         -1   -1    0    0    0  501 -0.00000000000E+00  0.00000000000E+00  0.48284058254E+03  0.48284058254E+03  0.00000000000E+00 0.  1.
         21   -1    0    0  501  502  0.00000000000E+00 -0.00000000000E+00 -0.67140585444E+02  0.67140585444E+02  0.00000000000E+00 0.  1.
         24    2    1    2    0    0  0.74425261320E+02 -0.14498135288E+03  0.29629512404E+03  0.34795088334E+03  0.81977463247E+02 0.  0.
        -13    1    3    3    0    0  0.65927080024E+02 -0.14779771983E+03  0.29774224512E+03  0.33888197119E+03  0.00000000000E+00 0.  1.
         14    1    3    3    0    0  0.84981812968E+01  0.28163669472E+01 -0.14471210826E+01  0.90689121487E+01  0.00000000000E+00 0. -1.
         -2    1    1    2    0  502 -0.74425261320E+02  0.14498135288E+03  0.11940487306E+03  0.20203028465E+03  0.00000000000E+00 0.  1.
<mgrwt>
<rscale>  1 0.18242537E+03</rscale>
<asrwt>0</asrwt>
<pdfrwt beam="1">  1       21 0.10329321E-01 0.18242537E+03</pdfrwt>
<pdfrwt beam="2">  1       -1 0.74283164E-01 0.18242537E+03</pdfrwt>
<totfact> 0.13594992E+04</totfact>
</mgrwt>
</event>
<event>
 6    2  0.9453093E+000  0.8919147E+02  0.7546771E-02  0.1304822E+00
         21   -1    0    0  501  502  0.00000000000E+00  0.00000000000E+00  0.35637624289E+01  0.35637624289E+01  0.00000000000E+00 0. -1.
          2   -1    0    0  502    0 -0.00000000000E+00 -0.00000000000E+00 -0.24260851313E+04  0.24260851313E+04  0.00000000000E+00 0. -1.
         24    2    1    2    0    0 -0.17471994174E+02 -0.37226156569E+02 -0.22678814679E+04  0.22696346560E+04  0.79145826300E+02 0.  0.
        -13    1    3    3    0    0  0.67712515326E+01 -0.33796350500E+02 -0.37160117716E+03  0.37319629958E+03  0.00000000000E+00 0.  1.
         14    1    3    3    0    0 -0.24243245706E+02 -0.34298060692E+01 -0.18962802908E+04  0.18964383564E+04  0.00000000000E+00 0. -1.
          1    1    1    2  501    0  0.17471994174E+02  0.37226156569E+02 -0.15463990097E+03  0.16001423775E+03  0.00000000000E+00 0. -1.
<mgrwt>
<rscale>  1 0.89191475E+02</rscale>
<asrwt>0</asrwt>
<pdfrwt beam="1">  1       21 0.54827220E-03 0.89191475E+02</pdfrwt>
<pdfrwt beam="2">  1        2 0.37324315E+00 0.89191475E+02</pdfrwt>
<totfact> 0.55111186E+05</totfact>
</mgrwt>
</event>
<event>
 6    2  0.9453093E+000  0.8332054E+02  0.7546771E-02  0.1319884E+00
          2   -1    0    0  502    0 -0.00000000000E+00  0.00000000000E+00  0.35681442098E+03  0.35681442098E+03  0.00000000000E+00 0. -1.
         21   -1    0    0  501  502  0.00000000000E+00 -0.00000000000E+00 -0.77788315464E+01  0.77788315464E+01  0.00000000000E+00 0.  1.
         24    2    1    2    0    0 -0.10872751914E+02  0.17597045236E+02  0.25342171251E+03  0.26676745738E+03  0.80712075995E+02 0.  0.
        -13    1    3    3    0    0 -0.12514282183E+01  0.15770353267E+01 -0.61771101428E+01  0.64969071660E+01  0.00000000000E+00 0.  1.
         14    1    3    3    0    0 -0.96213236952E+01  0.16020009910E+02  0.25959882265E+03  0.26027055022E+03  0.00000000000E+00 0. -1.
          1    1    1    2  501    0  0.10872751914E+02 -0.17597045236E+02  0.95613876924E+02  0.97825795145E+02  0.00000000000E+00 0. -1.
<mgrwt>
<rscale>  1 0.83320537E+02</rscale>
<asrwt>0</asrwt>
<pdfrwt beam="1">  1       21 0.11967436E-02 0.83320537E+02</pdfrwt>
<pdfrwt beam="2">  1        2 0.54894514E-01 0.83320537E+02</pdfrwt>
<totfact> 0.28897548E+06</totfact>
</mgrwt>
</event>
<event>
 6    2  0.9453093E+000  0.8442403E+02  0.7546771E-02  0.1316946E+00
         21   -1    0    0  501  502  0.00000000000E+00  0.00000000000E+00  0.30733708246E+02  0.30733708246E+02  0.00000000000E+00 0. -1.
          2   -1    0    0  502    0 -0.00000000000E+00 -0.00000000000E+00 -0.10067489548E+03  0.10067489548E+03  0.00000000000E+00 0. -1.
         24    2    1    2    0    0  0.18959884787E+01 -0.25918092222E+02 -0.60051392625E+02  0.10360302310E+03  0.80324805396E+02 0.  0.
        -11    1    3    3    0    0  0.11905711219E+01  0.23752411976E+02  0.22878905031E+01  0.23892027483E+02  0.00000000000E+00 0.  1.
         12    1    3    3    0    0  0.70541735683E+00 -0.49670504198E+02 -0.62339283128E+02  0.79710995615E+02  0.00000000000E+00 0. -1.
          1    1    1    2  501    0 -0.18959884787E+01  0.25918092222E+02 -0.98897946092E+01  0.27805580630E+02  0.00000000000E+00 0. -1.
<mgrwt>
<rscale>  1 0.84424029E+02</rscale>
<asrwt>0</asrwt>
<pdfrwt beam="1">  1       21 0.47282626E-02 0.84424029E+02</pdfrwt>
<pdfrwt beam="2">  1        2 0.15488446E-01 0.84424029E+02</pdfrwt>
<totfact> 0.12417563E+06</totfact>
</mgrwt>
</event>
<event>
 6    2  0.9453093E+000  0.1147803E+03  0.7546771E-02  0.1251965E+00
         21   -1    0    0  501  502  0.00000000000E+00  0.00000000000E+00  0.22927834987E+03  0.22927834987E+03  0.00000000000E+00 0.  1.
         -3   -1    0    0    0  501 -0.00000000000E+00 -0.00000000000E+00 -0.45390783734E+02  0.45390783734E+02  0.00000000000E+00 0.  1.
         24    2    1    2    0    0 -0.68913602140E+02 -0.52569576985E+02  0.82906926483E+02  0.14159120693E+03  0.75245374844E+02 0.  0.
        -13    1    3    3    0    0 -0.53801235049E+02 -0.41432800500E+02  0.96795356824E+02  0.11823954902E+03  0.00000000000E+00 0.  1.
         14    1    3    3    0    0 -0.15112367090E+02 -0.11136776485E+02 -0.13888430341E+02  0.23351657904E+02  0.00000000000E+00 0. -1.
         -4    1    1    2    0  502  0.68913602140E+02  0.52569576985E+02  0.10098063965E+03  0.13307792668E+03  0.00000000000E+00 0.  1.
<mgrwt>
<rscale>  1 0.11478027E+03</rscale>
<asrwt>0</asrwt>
<pdfrwt beam="1">  1       21 0.35273592E-01 0.11478027E+03</pdfrwt>
<pdfrwt beam="2">  1       -3 0.69831976E-02 0.11478027E+03</pdfrwt>
<totfact> 0.48701762E+04</totfact>
</mgrwt>
</event>
<event>
 6    2  0.9453093E+000  0.8424649E+02  0.7546771E-02  0.1317415E+00
          2   -1    0    0  502    0 -0.00000000000E+00  0.00000000000E+00  0.92356068365E+03  0.92356068365E+03  0.00000000000E+00 0. -1.
         21   -1    0    0  501  502  0.00000000000E+00 -0.00000000000E+00 -0.32095288514E+01  0.32095288514E+01  0.00000000000E+00 0.  1.
         24    2    1    2    0    0  0.16771372421E+02  0.16334103814E+02  0.65673511130E+03  0.66211666488E+03  0.80928299212E+02 0.  0.
        -13    1    3    3    0    0  0.23873744453E+02  0.27679577493E+02  0.12554728648E+03  0.13076022265E+03  0.00000000000E+00 0.  1.
         14    1    3    3    0    0 -0.71023720321E+01 -0.11345473680E+02  0.53118782482E+03  0.53135644223E+03  0.00000000000E+00 0. -1.
          1    1    1    2  501    0 -0.16771372421E+02 -0.16334103814E+02  0.26361604349E+03  0.26465354762E+03  0.00000000000E+00 0. -1.
<mgrwt>
<rscale>  1 0.84246492E+02</rscale>
<asrwt>0</asrwt>
<pdfrwt beam="1">  1       21 0.49377440E-03 0.84246492E+02</pdfrwt>
<pdfrwt beam="2">  1        2 0.14208605E+00 0.84246492E+02</pdfrwt>
<totfact> 0.39086283E+06</totfact>
</mgrwt>
</event>
<event>
 6    2  0.9453093E+000  0.8521224E+02  0.7546771E-02  0.1314878E+00
         21   -1    0    0  501  502  0.00000000000E+00  0.00000000000E+00  0.49289554804E+01  0.49289554804E+01  0.00000000000E+00 0. -1.
          2   -1    0    0  502    0 -0.00000000000E+00 -0.00000000000E+00 -0.60965128902E+03  0.60965128902E+03  0.00000000000E+00 0. -1.
         24    2    1    2    0    0  0.50186488896E+01  0.20799396848E+02 -0.41519910479E+03  0.42385306767E+03  0.82482268453E+02 0.  0.
        -13    1    3    3    0    0 -0.23275944972E+02 -0.22911831193E+02 -0.13866807946E+03  0.14246247886E+03  0.00000000000E+00 0.  1.
         14    1    3    3    0    0  0.28294593861E+02  0.43711228041E+02 -0.27653102533E+03  0.28139058881E+03  0.00000000000E+00 0. -1.
          1    1    1    2  501    0 -0.50186488896E+01 -0.20799396848E+02 -0.18952322875E+03  0.19072717683E+03  0.00000000000E+00 0. -1.
<mgrwt>
<rscale>  1 0.85212243E+02</rscale>
<asrwt>0</asrwt>
<pdfrwt beam="1">  1       21 0.75830151E-03 0.85212243E+02</pdfrwt>
<pdfrwt beam="2">  1        2 0.93792424E-01 0.85212243E+02</pdfrwt>
<totfact> 0.33234014E+06</totfact>
</mgrwt>
</event>
<event>
 6    2  0.9453093E+000  0.8484868E+02  0.7546771E-02  0.1315829E+00
          2   -1    0    0  502    0 -0.00000000000E+00  0.00000000000E+00  0.25578809312E+04  0.25578809312E+04  0.00000000000E+00 0. -1.
         21   -1    0    0  501  502  0.00000000000E+00 -0.00000000000E+00 -0.28027955766E+01  0.28027955766E+01  0.00000000000E+00 0. -1.
         24    2    1    2    0    0 -0.11334030224E+02 -0.23838914010E+02  0.24732186318E+04  0.24746736551E+04  0.80638356633E+02 0.  0.
        -13    1    3    3    0    0  0.16239737362E+01  0.11086564251E+02  0.53145831576E+02  0.54314165845E+02  0.00000000000E+00 0.  1.
         14    1    3    3    0    0 -0.12958003960E+02 -0.34925478262E+02  0.24200728002E+04  0.24203594892E+04  0.00000000000E+00 0. -1.
          1    1    1    2  501    0  0.11334030224E+02  0.23838914010E+02  0.81859503919E+02  0.86010071760E+02  0.00000000000E+00 0. -1.
<mgrwt>
<rscale>  1 0.84848681E+02</rscale>
<asrwt>0</asrwt>
<pdfrwt beam="1">  1       21 0.43120136E-03 0.84848681E+02</pdfrwt>
<pdfrwt beam="2">  1        2 0.39351828E+00 0.84848681E+02</pdfrwt>
<totfact> 0.67815894E+05</totfact>
</mgrwt>
</event>
<event>
 6    2  0.9453093E+000  0.1105486E+03  0.7546771E-02  0.1259557E+00
          2   -1    0    0  502    0 -0.00000000000E+00  0.00000000000E+00  0.84043842020E+02  0.84043842020E+02  0.00000000000E+00 0. -1.
         21   -1    0    0  501  502  0.00000000000E+00 -0.00000000000E+00 -0.97612946666E+02  0.97612946666E+02  0.00000000000E+00 0. -1.
         24    2    1    2    0    0  0.49968670615E+02 -0.48942387245E+02 -0.15827768674E+02  0.11167588504E+03  0.85608175575E+02 0.  0.
        -13    1    3    3    0    0 -0.20066123014E+02 -0.98052529917E+01 -0.21820785033E+02  0.31224012211E+02  0.00000000000E+00 0.  1.
         14    1    3    3    0    0  0.70034793629E+02 -0.39137134254E+02  0.59930163592E+01  0.80451872826E+02  0.00000000000E+00 0. -1.
          1    1    1    2  501    0 -0.49968670615E+02  0.48942387245E+02  0.22586640281E+01  0.69980903648E+02  0.00000000000E+00 0. -1.
<mgrwt>
<rscale>  1 0.11054856E+03</rscale>
<asrwt>0</asrwt>
<pdfrwt beam="1">  1       21 0.15017376E-01 0.11054856E+03</pdfrwt>
<pdfrwt beam="2">  1        2 0.12929822E-01 0.11054856E+03</pdfrwt>
<totfact> 0.21533197E+05</totfact>
</mgrwt>
</event>
<event>
 6    2  0.9453093E+000  0.8219764E+02  0.7546771E-02  0.1322928E+00
         21   -1    0    0  501  502  0.00000000000E+00  0.00000000000E+00  0.38982366389E+03  0.38982366389E+03  0.00000000000E+00 0.  1.
         -1   -1    0    0    0  501 -0.00000000000E+00 -0.00000000000E+00 -0.79533974973E+01  0.79533974973E+01  0.00000000000E+00 0.  1.
         24    2    1    2    0    0  0.21765780722E+02  0.19410669728E+02  0.28277145978E+03  0.29447606051E+03  0.76850038640E+02 0.  0.
        -11    1    3    3    0    0  0.15635234853E+02  0.23320156411E+02  0.28175301411E+02  0.39776096761E+02  0.00000000000E+00 0.  1.
         12    1    3    3    0    0  0.61305458693E+01 -0.39094866830E+01  0.25459615837E+03  0.25469996375E+03  0.00000000000E+00 0. -1.
         -2    1    1    2    0  502 -0.21765780722E+02 -0.19410669728E+02  0.99098806612E+02  0.10330100087E+03  0.00000000000E+00 0.  1.
<mgrwt>
<rscale>  1 0.82197638E+02</rscale>
<asrwt>0</asrwt>
<pdfrwt beam="1">  1       21 0.59972857E-01 0.82197638E+02</pdfrwt>
<pdfrwt beam="2">  1       -1 0.12235999E-02 0.82197638E+02</pdfrwt>
<totfact> 0.29625632E+05</totfact>
</mgrwt>
</event>
<event>
 6    2  0.9453093E+000  0.8271560E+02  0.7546771E-02  0.1321517E+00
          2   -1    0    0  502    0 -0.00000000000E+00  0.00000000000E+00  0.33452463601E+03  0.33452463601E+03  0.00000000000E+00 0. -1.
         21   -1    0    0  501  502  0.00000000000E+00 -0.00000000000E+00 -0.10283116436E+02  0.10283116436E+02  0.00000000000E+00 0. -1.
         24    2    1    2    0    0 -0.19437775669E+02  0.67794723278E+01  0.30702260181E+03  0.31796972911E+03  0.80112934261E+02 0.  0.
        -13    1    3    3    0    0  0.25520354444E+02 -0.13771048893E+02  0.16649192742E+03  0.16899849755E+03  0.00000000000E+00 0.  1.
         14    1    3    3    0    0 -0.44958130113E+02  0.20550521220E+02  0.14053067439E+03  0.14897123155E+03  0.00000000000E+00 0. -1.
          1    1    1    2  501    0  0.19437775669E+02 -0.67794723278E+01  0.17218917765E+02  0.26838023344E+02  0.00000000000E+00 0. -1.
<mgrwt>
<rscale>  1 0.82715601E+02</rscale>
<asrwt>0</asrwt>
<pdfrwt beam="1">  1       21 0.15820182E-02 0.82715601E+02</pdfrwt>
<pdfrwt beam="2">  1        2 0.51465320E-01 0.82715601E+02</pdfrwt>
<totfact> 0.19893029E+06</totfact>
</mgrwt>
</event>
<event>
 6    2  0.9453093E+000  0.1038974E+03  0.7546771E-02  0.1272307E+00
          2   -1    0    0  502    0 -0.00000000000E+00  0.00000000000E+00  0.42655305366E+03  0.42655305366E+03  0.00000000000E+00 0. -1.
         21   -1    0    0  501  502  0.00000000000E+00 -0.00000000000E+00 -0.17993014714E+02  0.17993014714E+02  0.00000000000E+00 0.  1.
         24    2    1    2    0    0 -0.26628190936E+02 -0.65200968952E+02  0.22117017395E+03  0.24435818560E+03  0.76383572326E+02 0.  0.
        -13    1    3    3    0    0  0.63901178303E+01 -0.29592536372E+01 -0.42216385795E+01  0.82105432384E+01  0.00000000000E+00 0.  1.
         14    1    3    3    0    0 -0.33018308766E+02 -0.62241715315E+02  0.22539181253E+03  0.23614764236E+03  0.00000000000E+00 0. -1.
          1    1    1    2  501    0  0.26628190936E+02  0.65200968952E+02  0.18738986500E+03  0.20018788277E+03  0.00000000000E+00 0. -1.
<mgrwt>
<rscale>  1 0.10389744E+03</rscale>
<asrwt>0</asrwt>
<pdfrwt beam="1">  1       21 0.27681564E-02 0.10389744E+03</pdfrwt>
<pdfrwt beam="2">  1        2 0.65623539E-01 0.10389744E+03</pdfrwt>
<totfact> 0.64289552E+05</totfact>
</mgrwt>
</event>
<event>
 6    2  0.9453093E+000  0.8320359E+02  0.7546771E-02  0.1320198E+00
         -1   -1    0    0    0  501 -0.00000000000E+00  0.00000000000E+00  0.93444713705E+02  0.93444713705E+02  0.00000000000E+00 0.  1.
         21   -1    0    0  501  502  0.00000000000E+00 -0.00000000000E+00 -0.28558101915E+02  0.28558101915E+02  0.00000000000E+00 0. -1.
         24    2    1    2    0    0 -0.16241579927E+02 -0.11820717867E+02  0.51180662610E+02  0.97684687971E+02  0.80742304583E+02 0.  0.
        -11    1    3    3    0    0  0.10277611701E+02 -0.15078925129E+02  0.65063843005E+02  0.67574454877E+02  0.00000000000E+00 0.  1.
         12    1    3    3    0    0 -0.26519191628E+02  0.32582072617E+01 -0.13883180394E+02  0.30110233095E+02  0.00000000000E+00 0. -1.
         -2    1    1    2    0  502  0.16241579927E+02  0.11820717867E+02  0.13705949180E+02  0.24318127649E+02  0.00000000000E+00 0.  1.
<mgrwt>
<rscale>  1 0.83203594E+02</rscale>
<asrwt>0</asrwt>
<pdfrwt beam="1">  1       21 0.43935542E-02 0.83203594E+02</pdfrwt>
<pdfrwt beam="2">  1       -1 0.14376110E-01 0.83203594E+02</pdfrwt>
<totfact> 0.94506974E+05</totfact>
</mgrwt>
</event>
<event>
 6    2  0.9453093E+000  0.1424113E+03  0.7546771E-02  0.1210121E+00
          2   -1    0    0  502    0 -0.00000000000E+00  0.00000000000E+00  0.13218863300E+04  0.13218863300E+04  0.00000000000E+00 0. -1.
         21   -1    0    0  501  502  0.00000000000E+00 -0.00000000000E+00 -0.13338465741E+02  0.13338465741E+02  0.00000000000E+00 0. -1.
         24    2    1    2    0    0 -0.94872399873E+02 -0.72068924879E+02  0.82597954755E+03  0.83816656728E+03  0.78014609804E+02 0.  0.
        -11    1    3    3    0    0 -0.53349205759E+01 -0.99468846427E+01  0.10430581187E+02  0.15368764282E+02  0.00000000000E+00 0.  1.
         12    1    3    3    0    0 -0.89537479298E+02 -0.62122040236E+02  0.81554896637E+03  0.82279780300E+03  0.00000000000E+00 0. -1.
          1    1    1    2  501    0  0.94872399873E+02  0.72068924879E+02  0.48256831672E+03  0.49705822847E+03  0.00000000000E+00 0. -1.
<mgrwt>
<rscale>  1 0.14241131E+03</rscale>
<asrwt>0</asrwt>
<pdfrwt beam="1">  1       21 0.20520727E-02 0.14241131E+03</pdfrwt>
<pdfrwt beam="2">  1        2 0.20336702E+00 0.14241131E+03</pdfrwt>
<totfact> 0.25700181E+05</totfact>
</mgrwt>
</event>
<event>
 6    2  0.9453093E+000  0.9921154E+02  0.7546771E-02  0.1281963E+00
         21   -1    0    0  501  502  0.00000000000E+00  0.00000000000E+00  0.24182829355E+01  0.24182829355E+01  0.00000000000E+00 0.  1.
          2   -1    0    0  502    0 -0.00000000000E+00 -0.00000000000E+00 -0.16796544334E+04  0.16796544334E+04  0.00000000000E+00 0. -1.
         24    2    1    2    0    0 -0.17594632417E+02 -0.20214911906E+02 -0.12053215653E+04  0.12093977863E+04  0.95523379749E+02 0.  0.
        -13    1    3    3    0    0  0.31317465060E+01  0.10106970712E+02 -0.14193097419E+02  0.17703183542E+02  0.00000000000E+00 0.  1.
         14    1    3    3    0    0 -0.20726378923E+02 -0.30321882618E+02 -0.11911284678E+04  0.11916946028E+04  0.00000000000E+00 0. -1.
          1    1    1    2  501    0  0.17594632417E+02  0.20214911906E+02 -0.47191458522E+03  0.47267493005E+03  0.00000000000E+00 0. -1.
<mgrwt>
<rscale>  1 0.99211541E+02</rscale>
<asrwt>0</asrwt>
<pdfrwt beam="1">  1       21 0.37204394E-03 0.99211541E+02</pdfrwt>
<pdfrwt beam="2">  1        2 0.25840809E+00 0.99211541E+02</pdfrwt>
<totfact> 0.23973314E+06</totfact>
</mgrwt>
</event>
<event>
 6    2  0.9453093E+000  0.1111174E+03  0.7546771E-02  0.1258515E+00
          2   -1    0    0  502    0 -0.00000000000E+00  0.00000000000E+00  0.72995261078E+03  0.72995261078E+03  0.00000000000E+00 0. -1.
         21   -1    0    0  501  502  0.00000000000E+00 -0.00000000000E+00 -0.13897417497E+02  0.13897417497E+02  0.00000000000E+00 0.  1.
         24    2    1    2    0    0 -0.59361808657E+02 -0.51299381452E+02  0.28856064877E+03  0.30921565728E+03  0.78686871988E+02 0.  0.
        -11    1    3    3    0    0  0.31911720783E+01  0.13636625151E+02  0.12389218003E+02  0.18698498535E+02  0.00000000000E+00 0.  1.
         12    1    3    3    0    0 -0.62552980735E+02 -0.64936006603E+02  0.27617143077E+03  0.29051715874E+03  0.00000000000E+00 0. -1.
          1    1    1    2  501    0  0.59361808657E+02  0.51299381452E+02  0.42749454451E+03  0.43463437100E+03  0.00000000000E+00 0. -1.
<mgrwt>
<rscale>  1 0.11111739E+03</rscale>
<asrwt>0</asrwt>
<pdfrwt beam="1">  1       21 0.21380648E-02 0.11111739E+03</pdfrwt>
<pdfrwt beam="2">  1        2 0.11230037E+00 0.11111739E+03</pdfrwt>
<totfact> 0.53892401E+05</totfact>
</mgrwt>
</event>
<event>
 6    2  0.9453093E+000  0.9865794E+02  0.7546771E-02  0.1283144E+00
         21   -1    0    0  501  502  0.00000000000E+00  0.00000000000E+00  0.12747590964E+02  0.12747590964E+02  0.00000000000E+00 0.  1.
          2   -1    0    0  502    0 -0.00000000000E+00 -0.00000000000E+00 -0.68970616247E+03  0.68970616247E+03  0.00000000000E+00 0. -1.
         24    2    1    2    0    0  0.14811558840E+02 -0.30854723648E+02 -0.65363004258E+03  0.66103375212E+03  0.92531036076E+02 0.  0.
        -11    1    3    3    0    0 -0.79705991692E+01 -0.58058246231E+02 -0.30317227096E+03  0.30878425524E+03  0.00000000000E+00 0.  1.
         12    1    3    3    0    0  0.22782158010E+02  0.27203522583E+02 -0.35045777162E+03  0.35224949688E+03  0.00000000000E+00 0. -1.
          1    1    1    2  501    0 -0.14811558840E+02  0.30854723648E+02 -0.23328528928E+02  0.41420001311E+02  0.00000000000E+00 0. -1.
<mgrwt>
<rscale>  1 0.98657939E+02</rscale>
<asrwt>0</asrwt>
<pdfrwt beam="1">  1       21 0.19611680E-02 0.98657939E+02</pdfrwt>
<pdfrwt beam="2">  1        2 0.10610863E+00 0.98657939E+02</pdfrwt>
<totfact> 0.65648814E+05</totfact>
</mgrwt>
</event>
<event>
 6    2  0.9453093E+000  0.8556080E+02  0.7546771E-02  0.1313972E+00
          4   -1    0    0  502    0 -0.00000000000E+00  0.00000000000E+00  0.19820658163E+02  0.19820658163E+02  0.00000000000E+00 0. -1.
         21   -1    0    0  501  502  0.00000000000E+00 -0.00000000000E+00 -0.22792771654E+03  0.22792771654E+03  0.00000000000E+00 0.  1.
         24    2    1    2    0    0 -0.25494485754E+02 -0.79405784832E+01 -0.20336132557E+03  0.22062746819E+03  0.81287326135E+02 0.  0.
        -11    1    3    3    0    0 -0.69530220446E+01 -0.41523753392E+02 -0.68389733726E+02  0.80310163058E+02  0.00000000000E+00 0.  1.
         12    1    3    3    0    0 -0.18541463709E+02  0.33583174909E+02 -0.13497159184E+03  0.14031730513E+03  0.00000000000E+00 0. -1.
          3    1    1    2  501    0  0.25494485754E+02  0.79405784832E+01 -0.47457328090E+01  0.27120906519E+02  0.00000000000E+00 0. -1.
<mgrwt>
<rscale>  1 0.85560803E+02</rscale>
<asrwt>0</asrwt>
<pdfrwt beam="1">  1       21 0.35065801E-01 0.85560803E+02</pdfrwt>
<pdfrwt beam="2">  1        4 0.30493322E-02 0.85560803E+02</pdfrwt>
<totfact> 0.15527376E+05</totfact>
</mgrwt>
</event>
<event>
 6    2  0.9453093E+000  0.8405129E+02  0.7546771E-02  0.1317932E+00
         21   -1    0    0  501  502  0.00000000000E+00  0.00000000000E+00  0.30000384954E+01  0.30000384954E+01  0.00000000000E+00 0.  1.
          2   -1    0    0  502    0 -0.00000000000E+00 -0.00000000000E+00 -0.96094560258E+03  0.96094560258E+03  0.00000000000E+00 0. -1.
         24    2    1    2    0    0  0.18794918816E+02  0.11704714290E+02 -0.81055880611E+03  0.81490502333E+03  0.81082486307E+02 0.  0.
        -13    1    3    3    0    0  0.32777009752E+02 -0.21778887667E+02 -0.24102703155E+03  0.24421851333E+03  0.00000000000E+00 0.  1.
         14    1    3    3    0    0 -0.13982090936E+02  0.33483601957E+02 -0.56953177456E+03  0.57068651000E+03  0.00000000000E+00 0. -1.
          1    1    1    2  501    0 -0.18794918816E+02 -0.11704714290E+02 -0.14738675798E+03  0.14904061774E+03  0.00000000000E+00 0. -1.
<mgrwt>
<rscale>  1 0.84051287E+02</rscale>
<asrwt>0</asrwt>
<pdfrwt beam="1">  1       21 0.46154482E-03 0.84051287E+02</pdfrwt>
<pdfrwt beam="2">  1        2 0.14783764E+00 0.84051287E+02</pdfrwt>
<totfact> 0.41134205E+06</totfact>
</mgrwt>
</event>
<event>
 6    2  0.9453093E+000  0.2857713E+03  0.7546771E-02  0.1092578E+00
         21   -1    0    0  501  502  0.00000000000E+00  0.00000000000E+00  0.48518203755E+02  0.48518203755E+02  0.00000000000E+00 0. -1.
          2   -1    0    0  502    0 -0.00000000000E+00 -0.00000000000E+00 -0.24258903396E+04  0.24258903396E+04  0.00000000000E+00 0. -1.
         24    2    1    2    0    0  0.25274066511E+03  0.10634859071E+03 -0.19199073279E+04  0.19410588297E+04  0.80482085668E+02 0.  0.
        -11    1    3    3    0    0 -0.19007740799E+01 -0.54225148342E+01 -0.17148644625E+02  0.18085702135E+02  0.00000000000E+00 0.  1.
         12    1    3    3    0    0  0.25464143919E+03  0.11177110554E+03 -0.19027586833E+04  0.19229731276E+04  0.00000000000E+00 0. -1.
          1    1    1    2  501    0 -0.25274066511E+03 -0.10634859071E+03 -0.45746480796E+03  0.53334971367E+03  0.00000000000E+00 0. -1.
<mgrwt>
<rscale>  1 0.28577129E+03</rscale>
<asrwt>0</asrwt>
<pdfrwt beam="1">  1       21 0.74643400E-02 0.28577129E+03</pdfrwt>
<pdfrwt beam="2">  1        2 0.37321385E+00 0.28577129E+03</pdfrwt>
<totfact> 0.74817035E+03</totfact>
</mgrwt>
</event>
<event>
 6    2  0.9453093E+000  0.1040134E+03  0.7546771E-02  0.1272076E+00
         -1   -1    0    0    0  501 -0.00000000000E+00  0.00000000000E+00  0.20084388422E+03  0.20084388422E+03  0.00000000000E+00 0.  1.
         21   -1    0    0  501  502  0.00000000000E+00 -0.00000000000E+00 -0.37709392830E+02  0.37709392830E+02  0.00000000000E+00 0.  1.
         24    2    1    2    0    0 -0.25518861521E+02 -0.61082522991E+02  0.74570529187E+02  0.12798265568E+03  0.80227859401E+02 0.  0.
        -13    1    3    3    0    0  0.12217311458E+00 -0.70201544639E+02  0.72139899155E+02  0.10066000619E+03  0.00000000000E+00 0.  1.
         14    1    3    3    0    0 -0.25641034636E+02  0.91190216472E+01  0.24306300327E+01  0.27322649494E+02  0.00000000000E+00 0. -1.
         -2    1    1    2    0  502  0.25518861521E+02  0.61082522991E+02  0.88563962201E+02  0.11057062137E+03  0.00000000000E+00 0.  1.
<mgrwt>
<rscale>  1 0.10401344E+03</rscale>
<asrwt>0</asrwt>
<pdfrwt beam="1">  1       21 0.58014452E-02 0.10401344E+03</pdfrwt>
<pdfrwt beam="2">  1       -1 0.30899058E-01 0.10401344E+03</pdfrwt>
<totfact> 0.17868709E+05</totfact>
</mgrwt>
</event>
<event>
 6    2  0.9453093E+000  0.8545717E+02  0.7546771E-02  0.1314241E+00
          2   -1    0    0  502    0 -0.00000000000E+00  0.00000000000E+00  0.17085713220E+04  0.17085713220E+04  0.00000000000E+00 0. -1.
         21   -1    0    0  501  502  0.00000000000E+00 -0.00000000000E+00 -0.17173327694E+01  0.17173327694E+01  0.00000000000E+00 0.  1.
         24    2    1    2    0    0  0.22347788042E+02 -0.38795156642E+01  0.13890602674E+04  0.13916865143E+04  0.82392070995E+02 0.  0.
        -11    1    3    3    0    0  0.23848592999E+02 -0.25780597933E+02  0.25426711234E+03  0.25668104534E+03  0.00000000000E+00 0.  1.
         12    1    3    3    0    0 -0.15008049569E+01  0.21901082269E+02  0.11347931550E+04  0.11350054689E+04  0.00000000000E+00 0. -1.
          1    1    1    2  501    0 -0.22347788042E+02  0.38795156642E+01  0.31779372182E+03  0.31860214045E+03  0.00000000000E+00 0. -1.
<mgrwt>
<rscale>  1 0.85457168E+02</rscale>
<asrwt>0</asrwt>
<pdfrwt beam="1">  1       21 0.26420641E-03 0.85457168E+02</pdfrwt>
<pdfrwt beam="2">  1        2 0.26285577E+00 0.85457168E+02</pdfrwt>
<totfact> 0.38469230E+06</totfact>
</mgrwt>
</event>
<event>
 6    2  0.9453093E+000  0.8593908E+02  0.7546771E-02  0.1312995E+00
          2   -1    0    0  502    0 -0.00000000000E+00  0.00000000000E+00  0.82793959273E+03  0.82793959273E+03  0.00000000000E+00 0. -1.
         21   -1    0    0  501  502  0.00000000000E+00 -0.00000000000E+00 -0.36636219764E+01  0.36636219764E+01  0.00000000000E+00 0.  1.
         24    2    1    2    0    0 -0.13949091114E+02 -0.19410222532E+02  0.61791275559E+03  0.62386031963E+03  0.82548113289E+02 0.  0.
        -13    1    3    3    0    0 -0.20895625802E+02 -0.48948850490E+02  0.31877457277E+03  0.32318701302E+03  0.00000000000E+00 0.  1.
         14    1    3    3    0    0  0.69465346877E+01  0.29538627958E+02  0.29913818282E+03  0.30067330661E+03  0.00000000000E+00 0. -1.
          1    1    1    2  501    0  0.13949091114E+02  0.19410222532E+02  0.20636321516E+03  0.20774289507E+03  0.00000000000E+00 0. -1.
<mgrwt>
<rscale>  1 0.85939077E+02</rscale>
<asrwt>0</asrwt>
<pdfrwt beam="1">  1       21 0.56363481E-03 0.85939077E+02</pdfrwt>
<pdfrwt beam="2">  1        2 0.12737517E+00 0.85939077E+02</pdfrwt>
<totfact> 0.36721891E+06</totfact>
</mgrwt>
</event>
<event>
 6    2  0.9453093E+000  0.8296275E+02  0.7546771E-02  0.1320848E+00
          2   -1    0    0  502    0 -0.00000000000E+00  0.00000000000E+00  0.40623692315E+03  0.40623692315E+03  0.00000000000E+00 0. -1.
         21   -1    0    0  501  502  0.00000000000E+00 -0.00000000000E+00 -0.68240007338E+01  0.68240007338E+01  0.00000000000E+00 0.  1.
         24    2    1    2    0    0  0.21776258326E+02 -0.22223154202E+01  0.33058307438E+03  0.34083425227E+03  0.80022961315E+02 0.  0.
        -11    1    3    3    0    0  0.47823792353E+02 -0.17270663869E+02  0.16933713599E+03  0.17680626848E+03  0.00000000000E+00 0.  1.
         12    1    3    3    0    0 -0.26047534027E+02  0.15048348449E+02  0.16124593839E+03  0.16402798379E+03  0.00000000000E+00 0. -1.
          1    1    1    2  501    0 -0.21776258326E+02  0.22223154202E+01  0.68829848028E+02  0.72226671612E+02  0.00000000000E+00 0. -1.
<mgrwt>
<rscale>  1 0.82962753E+02</rscale>
<asrwt>0</asrwt>
<pdfrwt beam="1">  1       21 0.10498466E-02 0.82962753E+02</pdfrwt>
<pdfrwt beam="2">  1        2 0.62497969E-01 0.82962753E+02</pdfrwt>
<totfact> 0.30951529E+06</totfact>
</mgrwt>
</event>
<event>
 6    2  0.9453093E+000  0.8648847E+02  0.7546771E-02  0.1311585E+00
          2   -1    0    0  502    0 -0.00000000000E+00  0.00000000000E+00  0.97008340468E+03  0.97008340468E+03  0.00000000000E+00 0. -1.
         21   -1    0    0  501  502  0.00000000000E+00 -0.00000000000E+00 -0.51735756016E+01  0.51735756016E+01  0.00000000000E+00 0.  1.
         24    2    1    2    0    0  0.48750666537E+01 -0.33076470625E+02  0.87616004697E+03  0.88041847012E+03  0.79764876055E+02 0.  0.
        -13    1    3    3    0    0 -0.47395737079E+01 -0.44056791276E+02  0.23789385432E+03  0.24198543414E+03  0.00000000000E+00 0.  1.
         14    1    3    3    0    0  0.96146403616E+01  0.10980320651E+02  0.63826619265E+03  0.63843303598E+03  0.00000000000E+00 0. -1.
          1    1    1    2  501    0 -0.48750666537E+01  0.33076470625E+02  0.88749782109E+02  0.94838510154E+02  0.00000000000E+00 0. -1.
<mgrwt>
<rscale>  1 0.86488465E+02</rscale>
<asrwt>0</asrwt>
<pdfrwt beam="1">  1       21 0.79593548E-03 0.86488465E+02</pdfrwt>
<pdfrwt beam="2">  1        2 0.14924346E+00 0.86488465E+02</pdfrwt>
<totfact> 0.17619927E+06</totfact>
</mgrwt>
</event>
<event>
 6    2  0.9453093E+000  0.8290106E+02  0.7546771E-02  0.1321015E+00
          2   -1    0    0  502    0 -0.00000000000E+00  0.00000000000E+00  0.54495616196E+03  0.54495616196E+03  0.00000000000E+00 0. -1.
         21   -1    0    0  501  502  0.00000000000E+00 -0.00000000000E+00 -0.59872848373E+01  0.59872848373E+01  0.00000000000E+00 0.  1.
         24    2    1    2    0    0  0.16978806775E+02 -0.15257450960E+02  0.48939094945E+03  0.49636285866E+03  0.79696401192E+02 0.  0.
        -11    1    3    3    0    0  0.34992129050E+02  0.97227641034E+01  0.11252640544E+03  0.11824201097E+03  0.00000000000E+00 0.  1.
         12    1    3    3    0    0 -0.18013322275E+02 -0.24980215063E+02  0.37686454402E+03  0.37812084769E+03  0.00000000000E+00 0. -1.
          1    1    1    2  501    0 -0.16978806775E+02  0.15257450960E+02  0.49577927675E+02  0.54580588141E+02  0.00000000000E+00 0. -1.
<mgrwt>
<rscale>  1 0.82901062E+02</rscale>
<asrwt>0</asrwt>
<pdfrwt beam="1">  1       21 0.92112117E-03 0.82901062E+02</pdfrwt>
<pdfrwt beam="2">  1        2 0.83839371E-01 0.82901062E+02</pdfrwt>
<totfact> 0.27724786E+06</totfact>
</mgrwt>
</event>
<event>
 6    2  0.9453093E+000  0.8755252E+02  0.7546771E-02  0.1308889E+00
         21   -1    0    0  501  502  0.00000000000E+00  0.00000000000E+00  0.18150025189E+01  0.18150025189E+01  0.00000000000E+00 0. -1.
          2   -1    0    0  502    0 -0.00000000000E+00 -0.00000000000E+00 -0.28233974805E+04  0.28233974805E+04  0.00000000000E+00 0. -1.
         24    2    1    2    0    0 -0.13540900686E+02  0.34808585221E+02 -0.24889952695E+04  0.24905346605E+04  0.79186174879E+02 0.  0.
        -13    1    3    3    0    0  0.24638953524E+02  0.28437677217E+02 -0.62129896473E+03  0.62243729250E+03  0.00000000000E+00 0.  1.
         14    1    3    3    0    0 -0.38179854210E+02  0.63709080039E+01 -0.18676963047E+04  0.18680973680E+04  0.00000000000E+00 0. -1.
          1    1    1    2  501    0  0.13540900686E+02 -0.34808585221E+02 -0.33258720851E+03  0.33467782248E+03  0.00000000000E+00 0. -1.
<mgrwt>
<rscale>  1 0.87552521E+02</rscale>
<asrwt>0</asrwt>
<pdfrwt beam="1">  1       21 0.27923124E-03 0.87552521E+02</pdfrwt>
<pdfrwt beam="2">  1        2 0.43436872E+00 0.87552521E+02</pdfrwt>
<totfact> 0.94390014E+05</totfact>
</mgrwt>
</event>
<event>
 6    2  0.9453093E+000  0.8723574E+02  0.7546771E-02  0.1309687E+00
          2   -1    0    0  502    0 -0.00000000000E+00  0.00000000000E+00  0.35642994702E+03  0.35642994702E+03  0.00000000000E+00 0. -1.
         21   -1    0    0  501  502  0.00000000000E+00 -0.00000000000E+00 -0.17285831044E+02  0.17285831044E+02  0.00000000000E+00 0.  1.
         24    2    1    2    0    0 -0.48521829778E+02  0.29594293971E+01  0.11490488075E+03  0.14426783015E+03  0.72435826829E+02 0.  0.
        -13    1    3    3    0    0 -0.47288274315E+02  0.16807889985E+02  0.30504525212E+02  0.58729993290E+02  0.00000000000E+00 0.  1.
         14    1    3    3    0    0 -0.12335554636E+01 -0.13848460588E+02  0.84400355534E+02  0.85537836856E+02  0.00000000000E+00 0. -1.
          1    1    1    2  501    0  0.48521829778E+02 -0.29594293971E+01  0.22423923523E+03  0.22944794791E+03  0.00000000000E+00 0. -1.
<mgrwt>
<rscale>  1 0.87235745E+02</rscale>
<asrwt>0</asrwt>
<pdfrwt beam="1">  1       21 0.26593589E-02 0.87235745E+02</pdfrwt>
<pdfrwt beam="2">  1        2 0.54835371E-01 0.87235745E+02</pdfrwt>
<totfact> 0.81624572E+05</totfact>
</mgrwt>
</event>
<event>
 6    2  0.9453093E+000  0.1038364E+03  0.7546771E-02  0.1272429E+00
          2   -1    0    0  502    0 -0.00000000000E+00  0.00000000000E+00  0.96059826740E+03  0.96059826740E+03  0.00000000000E+00 0. -1.
         21   -1    0    0  501  502  0.00000000000E+00 -0.00000000000E+00 -0.92568015608E+01  0.92568015608E+01  0.00000000000E+00 0.  1.
         24    2    1    2    0    0  0.54400476176E+02  0.28027140247E+02  0.34114580421E+03  0.35659845231E+03  0.83887210343E+02 0.  0.
        -11    1    3    3    0    0  0.77080573523E+02  0.18765807294E+02  0.26230107048E+03  0.27403543915E+03  0.00000000000E+00 0.  1.
         12    1    3    3    0    0 -0.22680097347E+02  0.92613329535E+01  0.78844733733E+02  0.82563013155E+02  0.00000000000E+00 0. -1.
          1    1    1    2  501    0 -0.54400476176E+02 -0.28027140247E+02  0.61019566163E+03  0.61325661665E+03  0.00000000000E+00 0. -1.
<mgrwt>
<rscale>  1 0.10383639E+03</rscale>
<asrwt>0</asrwt>
<pdfrwt beam="1">  1       21 0.14241241E-02 0.10383639E+03</pdfrwt>
<pdfrwt beam="2">  1        2 0.14778427E+00 0.10383639E+03</pdfrwt>
<totfact> 0.72761114E+05</totfact>
</mgrwt>
</event>
<event>
 6    2  0.9453093E+000  0.9113071E+02  0.7546771E-02  0.1300136E+00
         21   -1    0    0  501  502  0.00000000000E+00  0.00000000000E+00  0.54308516740E+02  0.54308516740E+02  0.00000000000E+00 0. -1.
         -1   -1    0    0    0  501 -0.00000000000E+00 -0.00000000000E+00 -0.82947932217E+02  0.82947932217E+02  0.00000000000E+00 0.  1.
         24    2    1    2    0    0  0.39242768760E+02  0.14594153767E+02 -0.10883290600E+02  0.91778276228E+02  0.80943324301E+02 0.  0.
        -11    1    3    3    0    0 -0.16319029490E+01 -0.30186088704E+02 -0.69621191171E+01  0.31021511264E+02  0.00000000000E+00 0.  1.
         12    1    3    3    0    0  0.40874671709E+02  0.44780242471E+02 -0.39211714834E+01  0.60756764964E+02  0.00000000000E+00 0. -1.
         -2    1    1    2    0  502 -0.39242768760E+02 -0.14594153767E+02 -0.17756124877E+02  0.45478172729E+02  0.00000000000E+00 0.  1.
<mgrwt>
<rscale>  1 0.91130708E+02</rscale>
<asrwt>0</asrwt>
<pdfrwt beam="1">  1       21 0.83551564E-02 0.91130708E+02</pdfrwt>
<pdfrwt beam="2">  1       -1 0.12761220E-01 0.91130708E+02</pdfrwt>
<totfact> 0.38960940E+05</totfact>
</mgrwt>
</event>
<event>
 6    2  0.9453093E+000  0.9908350E+02  0.7546771E-02  0.1282235E+00
          2   -1    0    0  502    0 -0.00000000000E+00  0.00000000000E+00  0.11383144799E+04  0.11383144799E+04  0.00000000000E+00 0. -1.
         21   -1    0    0  501  502  0.00000000000E+00 -0.00000000000E+00 -0.55394625818E+01  0.55394625818E+01  0.00000000000E+00 0.  1.
         24    2    1    2    0    0 -0.25938327031E+02  0.46928061770E+02  0.57170735333E+03  0.58022998685E+03  0.83321665827E+02 0.  0.
        -11    1    3    3    0    0 -0.39671312699E+01 -0.15103373023E+01 -0.15435652067E+01  0.45168399160E+01  0.00000000000E+00 0.  1.
         12    1    3    3    0    0 -0.21971195761E+02  0.48438399072E+02  0.57325091854E+03  0.57571314694E+03  0.00000000000E+00 0. -1.
          1    1    1    2  501    0  0.25938327031E+02 -0.46928061770E+02  0.56106766401E+03  0.56362395566E+03  0.00000000000E+00 0. -1.
<mgrwt>
<rscale>  1 0.99083499E+02</rscale>
<asrwt>0</asrwt>
<pdfrwt beam="1">  1       21 0.85222592E-03 0.99083499E+02</pdfrwt>
<pdfrwt beam="2">  1        2 0.17512512E+00 0.99083499E+02</pdfrwt>
<totfact> 0.12836097E+06</totfact>
</mgrwt>
</event>
<event>
 6    2  0.9453093E+000  0.9244161E+02  0.7546771E-02  0.1297044E+00
          4   -1    0    0  502    0 -0.00000000000E+00  0.00000000000E+00  0.46835510206E+03  0.46835510206E+03  0.00000000000E+00 0. -1.
         21   -1    0    0  501  502  0.00000000000E+00 -0.00000000000E+00 -0.11263741030E+02  0.11263741030E+02  0.00000000000E+00 0. -1.
         24    2    1    2    0    0 -0.48778729967E+01  0.27321680133E+02  0.43333749339E+03  0.44308784149E+03  0.88177005214E+02 0.  0.
        -13    1    3    3    0    0 -0.38653109628E+02 -0.78745404185E+01  0.13000020065E+03  0.13585331590E+03  0.00000000000E+00 0.  1.
         14    1    3    3    0    0  0.33775236631E+02  0.35196220552E+02  0.30333729273E+03  0.30723452559E+03  0.00000000000E+00 0. -1.
          3    1    1    2  501    0  0.48778729967E+01 -0.27321680133E+02  0.23753867649E+02  0.36531001609E+02  0.00000000000E+00 0. -1.
<mgrwt>
<rscale>  1 0.92441615E+02</rscale>
<asrwt>0</asrwt>
<pdfrwt beam="1">  1       21 0.17328836E-02 0.92441615E+02</pdfrwt>
<pdfrwt beam="2">  1        4 0.72054616E-01 0.92441615E+02</pdfrwt>
<totfact> 0.10492667E+05</totfact>
</mgrwt>
</event>
<event>
 6    2  0.9453093E+000  0.8764069E+02  0.7546771E-02  0.1308668E+00
          2   -1    0    0  502    0 -0.00000000000E+00  0.00000000000E+00  0.51510929176E+03  0.51510929176E+03  0.00000000000E+00 0. -1.
         21   -1    0    0  501  502  0.00000000000E+00 -0.00000000000E+00 -0.74867829813E+01  0.74867829813E+01  0.00000000000E+00 0.  1.
         24    2    1    2    0    0  0.14143333928E+02  0.33525726990E+02  0.37099867372E+03  0.38120979333E+03  0.79730059355E+02 0.  0.
        -13    1    3    3    0    0  0.39932302939E+02 -0.27161561661E+00  0.24498178568E+03  0.24821510411E+03  0.00000000000E+00 0.  1.
         14    1    3    3    0    0 -0.25788969011E+02  0.33797342606E+02  0.12601688804E+03  0.13299468922E+03  0.00000000000E+00 0. -1.
          1    1    1    2  501    0 -0.14143333928E+02 -0.33525726990E+02  0.13662383506E+03  0.14138628141E+03  0.00000000000E+00 0. -1.
<mgrwt>
<rscale>  1 0.87640690E+02</rscale>
<asrwt>0</asrwt>
<pdfrwt beam="1">  1       21 0.11518132E-02 0.87640690E+02</pdfrwt>
<pdfrwt beam="2">  1        2 0.79247555E-01 0.87640690E+02</pdfrwt>
<totfact> 0.20928691E+06</totfact>
</mgrwt>
</event>
<event>
 6    2  0.9453093E+000  0.8620912E+02  0.7546771E-02  0.1312301E+00
         21   -1    0    0  501  502  0.00000000000E+00  0.00000000000E+00  0.32310106728E+02  0.32310106728E+02  0.00000000000E+00 0. -1.
         -1   -1    0    0    0  501 -0.00000000000E+00 -0.00000000000E+00 -0.12810408822E+03  0.12810408822E+03  0.00000000000E+00 0.  1.
         24    2    1    2    0    0  0.10851977407E+02  0.31729067804E+02 -0.92928394224E+02  0.12675842653E+03  0.79419853227E+02 0.  0.
        -11    1    3    3    0    0  0.12142081558E+02 -0.65556964497E+00 -0.93555123958E+02  0.94342043305E+02  0.00000000000E+00 0.  1.
         12    1    3    3    0    0 -0.12901041511E+01  0.32384637449E+02  0.62672973367E+00  0.32416383228E+02  0.00000000000E+00 0. -1.
         -2    1    1    2    0  502 -0.10851977407E+02 -0.31729067804E+02 -0.28655872695E+01  0.33655768418E+02  0.00000000000E+00 0.  1.
<mgrwt>
<rscale>  1 0.86209119E+02</rscale>
<asrwt>0</asrwt>
<pdfrwt beam="1">  1       21 0.49707857E-02 0.86209119E+02</pdfrwt>
<pdfrwt beam="2">  1       -1 0.19708321E-01 0.86209119E+02</pdfrwt>
<totfact> 0.47266820E+05</totfact>
</mgrwt>
</event>
<event>
 6    2  0.9453093E+000  0.8739840E+02  0.7546771E-02  0.1309277E+00
         21   -1    0    0  501  502  0.00000000000E+00  0.00000000000E+00  0.14393921143E+02  0.14393921143E+02  0.00000000000E+00 0. -1.
          2   -1    0    0  502    0 -0.00000000000E+00 -0.00000000000E+00 -0.14823818430E+04  0.14823818430E+04  0.00000000000E+00 0. -1.
         24    2    1    2    0    0  0.33176359500E+02  0.87345643775E+01 -0.14585884021E+04  0.14612045058E+04  0.80383566223E+02 0.  0.
        -11    1    3    3    0    0  0.11488811978E+01 -0.16900746713E+02 -0.70373731406E+02  0.72383818907E+02  0.00000000000E+00 0.  1.
         12    1    3    3    0    0  0.32027478302E+02  0.25635311090E+02 -0.13882146707E+04  0.13888206869E+04  0.00000000000E+00 0. -1.
          1    1    1    2  501    0 -0.33176359500E+02 -0.87345643775E+01 -0.93995197438E+01  0.35571258284E+02  0.00000000000E+00 0. -1.
<mgrwt>
<rscale>  1 0.87398405E+02</rscale>
<asrwt>0</asrwt>
<pdfrwt beam="1">  1       21 0.22144487E-02 0.87398405E+02</pdfrwt>
<pdfrwt beam="2">  1        2 0.22805881E+00 0.87398405E+02</pdfrwt>
<totfact> 0.18530701E+05</totfact>
</mgrwt>
</event>
<event>
 6    2  0.9453093E+000  0.8465374E+02  0.7546771E-02  0.1316341E+00
         -3   -1    0    0    0  501 -0.00000000000E+00  0.00000000000E+00  0.90411631762E+03  0.90411631762E+03  0.00000000000E+00 0.  1.
         21   -1    0    0  501  502  0.00000000000E+00 -0.00000000000E+00 -0.44948542537E+01  0.44948542537E+01  0.00000000000E+00 0.  1.
         24    2    1    2    0    0  0.22766033797E+02 -0.85796597487E+01  0.83944573402E+03  0.84370338144E+03  0.81082381795E+02 0.  0.
        -11    1    3    3    0    0  0.42811945924E+02  0.90347296453E+01  0.71931111234E+03  0.72064066316E+03  0.00000000000E+00 0.  1.
         12    1    3    3    0    0 -0.20045912127E+02 -0.17614389394E+02  0.12013462168E+03  0.12306271829E+03  0.00000000000E+00 0. -1.
         -4    1    1    2    0  502 -0.22766033797E+02  0.85796597487E+01  0.60175729346E+02  0.64907790431E+02  0.00000000000E+00 0.  1.
<mgrwt>
<rscale>  1 0.84653739E+02</rscale>
<asrwt>0</asrwt>
<pdfrwt beam="1">  1       21 0.69151676E-03 0.84653739E+02</pdfrwt>
<pdfrwt beam="2">  1       -3 0.13909467E+00 0.84653739E+02</pdfrwt>
<totfact> 0.12416811E+05</totfact>
</mgrwt>
</event>
<event>
 6    2  0.9453093E+000  0.1073676E+03  0.7546771E-02  0.1265524E+00
         21   -1    0    0  501  502  0.00000000000E+00  0.00000000000E+00  0.14232038333E+02  0.14232038333E+02  0.00000000000E+00 0.  1.
          2   -1    0    0  502    0 -0.00000000000E+00 -0.00000000000E+00 -0.55404439346E+03  0.55404439346E+03  0.00000000000E+00 0. -1.
         24    2    1    2    0    0 -0.32784453810E+02 -0.59780172883E+02 -0.37075775325E+03  0.38599108433E+03  0.82941642804E+02 0.  0.
        -11    1    3    3    0    0 -0.38545962753E+02 -0.70353228769E+02 -0.21028126314E+03  0.22506349697E+03  0.00000000000E+00 0.  1.
         12    1    3    3    0    0  0.57615089439E+01  0.10573055887E+02 -0.16047649011E+03  0.16092758736E+03  0.00000000000E+00 0. -1.
          1    1    1    2  501    0  0.32784453810E+02  0.59780172883E+02 -0.16905460188E+03  0.18228534746E+03  0.00000000000E+00 0. -1.
<mgrwt>
<rscale>  1 0.10736762E+03</rscale>
<asrwt>0</asrwt>
<pdfrwt beam="1">  1       21 0.21895444E-02 0.10736762E+03</pdfrwt>
<pdfrwt beam="2">  1        2 0.85237597E-01 0.10736762E+03</pdfrwt>
<totfact> 0.70968755E+05</totfact>
</mgrwt>
</event>
<event>
 6    2  0.9453093E+000  0.8819919E+02  0.7546771E-02  0.1307272E+00
         21   -1    0    0  501  502  0.00000000000E+00  0.00000000000E+00  0.83821412707E+01  0.83821412707E+01  0.00000000000E+00 0. -1.
          2   -1    0    0  502    0 -0.00000000000E+00 -0.00000000000E+00 -0.80652619388E+03  0.80652619388E+03  0.00000000000E+00 0. -1.
         24    2    1    2    0    0  0.25883076385E+02  0.24023148799E+02 -0.75017794100E+03  0.75534498077E+03  0.80821108012E+02 0.  0.
        -11    1    3    3    0    0 -0.95047837540E+00 -0.20449700533E+02 -0.63787432703E+02  0.66992016180E+02  0.00000000000E+00 0.  1.
         12    1    3    3    0    0  0.26833554761E+02  0.44472849332E+02 -0.68639050829E+03  0.68835296459E+03  0.00000000000E+00 0. -1.
          1    1    1    2  501    0 -0.25883076385E+02 -0.24023148799E+02 -0.47966111611E+02  0.59563354375E+02  0.00000000000E+00 0. -1.
<mgrwt>
<rscale>  1 0.88199188E+02</rscale>
<asrwt>0</asrwt>
<pdfrwt beam="1">  1       21 0.12895603E-02 0.88199188E+02</pdfrwt>
<pdfrwt beam="2">  1        2 0.12408094E+00 0.88199188E+02</pdfrwt>
<totfact> 0.10504515E+06</totfact>
</mgrwt>
</event>
<event>
 6    2  0.9453093E+000  0.8425061E+02  0.7546771E-02  0.1317404E+00
         21   -1    0    0  501  502  0.00000000000E+00  0.00000000000E+00  0.19639346813E+02  0.19639346813E+02  0.00000000000E+00 0.  1.
          2   -1    0    0  502    0 -0.00000000000E+00 -0.00000000000E+00 -0.19124025888E+03  0.19124025888E+03  0.00000000000E+00 0. -1.
         24    2    1    2    0    0 -0.12431597241E+02  0.20785570964E+02 -0.16579561818E+03  0.18597406400E+03  0.80694367217E+02 0.  0.
        -11    1    3    3    0    0 -0.19238847571E+02  0.35418974544E+02 -0.32698797157E+02  0.51902296184E+02  0.00000000000E+00 0.  1.
         12    1    3    3    0    0  0.68072503304E+01 -0.14633403579E+02 -0.13309682102E+03  0.13407176781E+03  0.00000000000E+00 0. -1.
          1    1    1    2  501    0  0.12431597241E+02 -0.20785570964E+02 -0.58052938894E+01  0.24905541701E+02  0.00000000000E+00 0. -1.
<mgrwt>
<rscale>  1 0.84250611E+02</rscale>
<asrwt>0</asrwt>
<pdfrwt beam="1">  1       21 0.30214380E-02 0.84250611E+02</pdfrwt>
<pdfrwt beam="2">  1        2 0.29421578E-01 0.84250611E+02</pdfrwt>
<totfact> 0.12716247E+06</totfact>
</mgrwt>
</event>
<event>
 6    2  0.9453093E+000  0.8563926E+02  0.7546771E-02  0.1313769E+00
          2   -1    0    0  502    0 -0.00000000000E+00  0.00000000000E+00  0.45579419339E+03  0.45579419339E+03  0.00000000000E+00 0. -1.
         21   -1    0    0  501  502  0.00000000000E+00 -0.00000000000E+00 -0.74082507138E+01  0.74082507138E+01  0.00000000000E+00 0. -1.
         24    2    1    2    0    0  0.22968536640E+02 -0.14936511409E+02  0.28690438595E+03  0.29941310925E+03  0.81138340298E+02 0.  0.
        -13    1    3    3    0    0 -0.24825400945E+02 -0.21531237441E+02  0.71777468197E+02  0.78942381891E+02  0.00000000000E+00 0.  1.
         14    1    3    3    0    0  0.47793937585E+02  0.65947260318E+01  0.21512691775E+03  0.22047072736E+03  0.00000000000E+00 0. -1.
          1    1    1    2  501    0 -0.22968536640E+02  0.14936511409E+02  0.16148155672E+03  0.16378933485E+03  0.00000000000E+00 0. -1.
<mgrwt>
<rscale>  1 0.85639263E+02</rscale>
<asrwt>0</asrwt>
<pdfrwt beam="1">  1       21 0.11397312E-02 0.85639263E+02</pdfrwt>
<pdfrwt beam="2">  1        2 0.70122162E-01 0.85639263E+02</pdfrwt>
<totfact> 0.24197866E+06</totfact>
</mgrwt>
</event>
<event>
 6    2  0.9453093E+000  0.1747242E+03  0.7546771E-02  0.1173009E+00
          2   -1    0    0  502    0 -0.00000000000E+00  0.00000000000E+00  0.18745880877E+04  0.18745880877E+04  0.00000000000E+00 0. -1.
         21   -1    0    0  501  502  0.00000000000E+00 -0.00000000000E+00 -0.15845798997E+02  0.15845798997E+02  0.00000000000E+00 0. -1.
         24    2    1    2    0    0 -0.68920552415E+02 -0.13833074823E+03  0.12604510142E+04  0.12725035609E+04  0.81505304932E+02 0.  0.
        -13    1    3    3    0    0 -0.64303659821E+02 -0.86766103620E+02  0.57180803854E+03  0.58191730542E+03  0.00000000000E+00 0.  1.
         14    1    3    3    0    0 -0.46168925944E+01 -0.51564644612E+02  0.68864297569E+03  0.69058625547E+03  0.00000000000E+00 0. -1.
          1    1    1    2  501    0  0.68920552415E+02  0.13833074823E+03  0.59829127449E+03  0.61793032583E+03  0.00000000000E+00 0. -1.
<mgrwt>
<rscale>  1 0.17472422E+03</rscale>
<asrwt>0</asrwt>
<pdfrwt beam="1">  1       21 0.24378167E-02 0.17472422E+03</pdfrwt>
<pdfrwt beam="2">  1        2 0.28839799E+00 0.17472422E+03</pdfrwt>
<totfact> 0.99935125E+04</totfact>
</mgrwt>
</event>
<event>
 6    2  0.9453093E+000  0.8432032E+02  0.7546771E-02  0.1317220E+00
         21   -1    0    0  501  502  0.00000000000E+00  0.00000000000E+00  0.10386822434E+02  0.10386822434E+02  0.00000000000E+00 0.  1.
          4   -1    0    0  502    0 -0.00000000000E+00 -0.00000000000E+00 -0.34057971475E+03  0.34057971475E+03  0.00000000000E+00 0. -1.
         24    2    1    2    0    0  0.30181682707E+02  0.11212586064E+02 -0.20419026136E+03  0.22091532010E+03  0.77931121917E+02 0.  0.
        -13    1    3    3    0    0  0.31156333301E+02  0.27294853552E+02 -0.45977203160E+02  0.61883999108E+02  0.00000000000E+00 0.  1.
         14    1    3    3    0    0 -0.97465059440E+00 -0.16082267488E+02 -0.15821305820E+03  0.15903132099E+03  0.00000000000E+00 0. -1.
          3    1    1    2  501    0 -0.30181682707E+02 -0.11212586064E+02 -0.12600263095E+03  0.13005121708E+03  0.00000000000E+00 0. -1.
<mgrwt>
<rscale>  1 0.84320317E+02</rscale>
<asrwt>0</asrwt>
<pdfrwt beam="1">  1       21 0.15979726E-02 0.84320317E+02</pdfrwt>
<pdfrwt beam="2">  1        4 0.52396881E-01 0.84320317E+02</pdfrwt>
<totfact> 0.22818173E+05</totfact>
</mgrwt>
</event>
<event>
 6    2  0.9453093E+000  0.8676906E+02  0.7546771E-02  0.1310870E+00
          2   -1    0    0  502    0 -0.00000000000E+00  0.00000000000E+00  0.43393713894E+03  0.43393713894E+03  0.00000000000E+00 0. -1.
         21   -1    0    0  501  502  0.00000000000E+00 -0.00000000000E+00 -0.80361507172E+01  0.80361507172E+01  0.00000000000E+00 0.  1.
         24    2    1    2    0    0  0.17242841819E+02  0.13430424045E+02  0.39306674630E+03  0.40252992106E+03  0.83971295176E+02 0.  0.
        -11    1    3    3    0    0  0.13969711218E+02  0.43617764481E+02  0.13234381432E+03  0.14004480497E+03  0.00000000000E+00 0.  1.
         12    1    3    3    0    0  0.32731306009E+01 -0.30187340437E+02  0.26072293198E+03  0.26248511609E+03  0.00000000000E+00 0. -1.
          1    1    1    2  501    0 -0.17242841819E+02 -0.13430424045E+02  0.32834241920E+02  0.39443368599E+02  0.00000000000E+00 0. -1.
<mgrwt>
<rscale>  1 0.86769063E+02</rscale>
<asrwt>0</asrwt>
<pdfrwt beam="1">  1       21 0.12363312E-02 0.86769063E+02</pdfrwt>
<pdfrwt beam="2">  1        2 0.66759542E-01 0.86769063E+02</pdfrwt>
<totfact> 0.22473463E+06</totfact>
</mgrwt>
</event>
<event>
 6    2  0.9453093E+000  0.1003261E+03  0.7546771E-02  0.1279612E+00
          4   -1    0    0  502    0 -0.00000000000E+00  0.00000000000E+00  0.24885044571E+03  0.24885044571E+03  0.00000000000E+00 0. -1.
         21   -1    0    0  501  502  0.00000000000E+00 -0.00000000000E+00 -0.33634319973E+02  0.33634319973E+02  0.00000000000E+00 0.  1.
         24    2    1    2    0    0  0.48505666754E+02 -0.34551590973E+02  0.61598119012E+02  0.11772705225E+03  0.80738580736E+02 0.  0.
        -13    1    3    3    0    0  0.13593226140E+02 -0.46581753816E+02  0.31957213564E+01  0.48629705124E+02  0.00000000000E+00 0.  1.
         14    1    3    3    0    0  0.34912440614E+02  0.12030162843E+02  0.58402397655E+02  0.69097347124E+02  0.00000000000E+00 0. -1.
          3    1    1    2  501    0 -0.48505666754E+02  0.34551590973E+02  0.15361800673E+03  0.16475771344E+03  0.00000000000E+00 0. -1.
<mgrwt>
<rscale>  1 0.10032612E+03</rscale>
<asrwt>0</asrwt>
<pdfrwt beam="1">  1       21 0.51745109E-02 0.10032612E+03</pdfrwt>
<pdfrwt beam="2">  1        4 0.38284683E-01 0.10032612E+03</pdfrwt>
<totfact> 0.65000626E+04</totfact>
</mgrwt>
</event>
<event>
 6    2  0.9453093E+000  0.8214535E+02  0.7546771E-02  0.1323071E+00
         -3   -1    0    0    0  501 -0.00000000000E+00  0.00000000000E+00  0.22373021240E+02  0.22373021240E+02  0.00000000000E+00 0.  1.
         21   -1    0    0  501  502  0.00000000000E+00 -0.00000000000E+00 -0.14104724742E+03  0.14104724742E+03  0.00000000000E+00 0. -1.
         24    2    1    2    0    0  0.20172843606E+02  0.19050967356E+00 -0.60993904422E+02  0.10231380884E+03  0.79629637638E+02 0.  0.
        -13    1    3    3    0    0 -0.16749555829E+02  0.29244666171E+02 -0.35131796434E+02  0.48683069342E+02  0.00000000000E+00 0.  1.
         14    1    3    3    0    0  0.36922399436E+02 -0.29054156498E+02 -0.25862107988E+02  0.53630739501E+02  0.00000000000E+00 0. -1.
         -4    1    1    2    0  502 -0.20172843606E+02 -0.19050967356E+00 -0.57680321762E+02  0.61106459820E+02  0.00000000000E+00 0.  1.
<mgrwt>
<rscale>  1 0.82145354E+02</rscale>
<asrwt>0</asrwt>
<pdfrwt beam="1">  1       21 0.21699576E-01 0.82145354E+02</pdfrwt>
<pdfrwt beam="2">  1       -3 0.34420033E-02 0.82145354E+02</pdfrwt>
<totfact> 0.35571179E+05</totfact>
</mgrwt>
</event>
<event>
 6    2  0.9453093E+000  0.8464675E+02  0.7546771E-02  0.1316359E+00
         21   -1    0    0  501  502  0.00000000000E+00  0.00000000000E+00  0.15369488730E+04  0.15369488730E+04  0.00000000000E+00 0. -1.
          2   -1    0    0  502    0 -0.00000000000E+00 -0.00000000000E+00 -0.12249063286E+02  0.12249063286E+02  0.00000000000E+00 0. -1.
         24    2    1    2    0    0  0.26479704942E+02  0.22676570015E+01  0.13564864423E+03  0.15989254963E+03  0.80366384174E+02 0.  0.
        -11    1    3    3    0    0  0.41090694411E+02 -0.14364260796E+02  0.12992994281E+03  0.13702761471E+03  0.00000000000E+00 0.  1.
         12    1    3    3    0    0 -0.14610989468E+02  0.16631917798E+02  0.57187014138E+01  0.22864934916E+02  0.00000000000E+00 0. -1.
          1    1    1    2  501    0 -0.26479704942E+02 -0.22676570015E+01  0.13890511654E+04  0.13893053866E+04  0.00000000000E+00 0. -1.
<mgrwt>
<rscale>  1 0.84646753E+02</rscale>
<asrwt>0</asrwt>
<pdfrwt beam="1">  1       21 0.23645352E+00 0.84646753E+02</pdfrwt>
<pdfrwt beam="2">  1        2 0.18844725E-02 0.84646753E+02</pdfrwt>
<totfact> 0.60350366E+03</totfact>
</mgrwt>
</event>
<event>
 6    2  0.9453093E+000  0.9010821E+02  0.7546771E-02  0.1302590E+00
          2   -1    0    0  502    0 -0.00000000000E+00  0.00000000000E+00  0.82193628496E+03  0.82193628496E+03  0.00000000000E+00 0. -1.
         21   -1    0    0  501  502  0.00000000000E+00 -0.00000000000E+00 -0.70162960501E+01  0.70162960501E+01  0.00000000000E+00 0.  1.
         24    2    1    2    0    0  0.31872559739E+02 -0.26041108350E+02  0.32359071546E+03  0.33590242704E+03  0.80159153976E+02 0.  0.
        -13    1    3    3    0    0  0.52142538282E+02 -0.16723173793E+02  0.13044076244E+03  0.14146837578E+03  0.00000000000E+00 0.  1.
         14    1    3    3    0    0 -0.20269978543E+02 -0.93179345567E+01  0.19314995302E+03  0.19443405125E+03  0.00000000000E+00 0. -1.
          1    1    1    2  501    0 -0.31872559739E+02  0.26041108350E+02  0.49132927345E+03  0.49305015398E+03  0.00000000000E+00 0. -1.
<mgrwt>
<rscale>  1 0.90108209E+02</rscale>
<asrwt>0</asrwt>
<pdfrwt beam="1">  1       21 0.10794308E-02 0.90108209E+02</pdfrwt>
<pdfrwt beam="2">  1        2 0.12645166E+00 0.90108209E+02</pdfrwt>
<totfact> 0.13596830E+06</totfact>
</mgrwt>
</event>
<event>
 6    2  0.9453093E+000  0.8742329E+02  0.7546771E-02  0.1309214E+00
         21   -1    0    0  501  502  0.00000000000E+00  0.00000000000E+00  0.22551833674E+02  0.22551833674E+02  0.00000000000E+00 0. -1.
         -1   -1    0    0    0  501 -0.00000000000E+00 -0.00000000000E+00 -0.16863138604E+03  0.16863138604E+03  0.00000000000E+00 0.  1.
         24    2    1    2    0    0 -0.30548121342E+02 -0.18551573576E+02 -0.10819625678E+03  0.13910162331E+03  0.79783977254E+02 0.  0.
        -13    1    3    3    0    0 -0.46318937929E+02 -0.32754600428E+02 -0.10245927549E+03  0.11711622857E+03  0.00000000000E+00 0.  1.
         14    1    3    3    0    0  0.15770816587E+02  0.14203026852E+02 -0.57369812895E+01  0.21985394741E+02  0.00000000000E+00 0. -1.
         -2    1    1    2    0  502  0.30548121342E+02  0.18551573576E+02 -0.37883295588E+02  0.52081596407E+02  0.00000000000E+00 0.  1.
<mgrwt>
<rscale>  1 0.87423290E+02</rscale>
<asrwt>0</asrwt>
<pdfrwt beam="1">  1       21 0.34695129E-02 0.87423290E+02</pdfrwt>
<pdfrwt beam="2">  1       -1 0.25943290E-01 0.87423290E+02</pdfrwt>
<totfact> 0.55054316E+05</totfact>
</mgrwt>
</event>
<event>
 6    2  0.9453093E+000  0.8181945E+02  0.7546771E-02  0.1323966E+00
         21   -1    0    0  501  502  0.00000000000E+00  0.00000000000E+00  0.10099221642E+04  0.10099221642E+04  0.00000000000E+00 0.  1.
         -3   -1    0    0    0  501 -0.00000000000E+00 -0.00000000000E+00 -0.96709813892E+01  0.96709813892E+01  0.00000000000E+00 0.  1.
         24    2    1    2    0    0 -0.20274191973E+02  0.53144937889E+01  0.16590243213E+03  0.18498118517E+03  0.79089412550E+02 0.  0.
        -13    1    3    3    0    0 -0.30302723265E+02  0.36855385856E+02  0.83338430792E+02  0.96030560504E+02  0.00000000000E+00 0.  1.
         14    1    3    3    0    0  0.10028531292E+02 -0.31540892067E+02  0.82564001337E+02  0.88950624669E+02  0.00000000000E+00 0. -1.
         -4    1    1    2    0  502  0.20274191973E+02 -0.53144937889E+01  0.83434875070E+03  0.83461196044E+03  0.00000000000E+00 0.  1.
<mgrwt>
<rscale>  1 0.81819447E+02</rscale>
<asrwt>0</asrwt>
<pdfrwt beam="1">  1       21 0.15537256E+00 0.81819447E+02</pdfrwt>
<pdfrwt beam="2">  1       -3 0.14878441E-02 0.81819447E+02</pdfrwt>
<totfact> 0.19438357E+04</totfact>
</mgrwt>
</event>
<event>
 6    2  0.9453093E+000  0.8578155E+02  0.7546771E-02  0.1313401E+00
          2   -1    0    0  502    0 -0.00000000000E+00  0.00000000000E+00  0.97012007386E+02  0.97012007386E+02  0.00000000000E+00 0. -1.
         21   -1    0    0  501  502  0.00000000000E+00 -0.00000000000E+00 -0.38573427961E+02  0.38573427961E+02  0.00000000000E+00 0.  1.
         24    2    1    2    0    0 -0.41914646219E+01  0.26848354243E+02  0.65005210447E+02  0.10762969990E+03  0.81363827434E+02 0.  0.
        -11    1    3    3    0    0 -0.18330388447E+02 -0.22481385519E+02  0.63476796022E+01  0.29693583007E+02  0.00000000000E+00 0.  1.
         12    1    3    3    0    0  0.14138923825E+02  0.49329739762E+02  0.58657530844E+02  0.77936116895E+02  0.00000000000E+00 0. -1.
          1    1    1    2  501    0  0.41914646219E+01 -0.26848354243E+02 -0.65666310218E+01  0.27955735444E+02  0.00000000000E+00 0. -1.
<mgrwt>
<rscale>  1 0.85781553E+02</rscale>
<asrwt>0</asrwt>
<pdfrwt beam="1">  1       21 0.59343736E-02 0.85781553E+02</pdfrwt>
<pdfrwt beam="2">  1        2 0.14924924E-01 0.85781553E+02</pdfrwt>
<totfact> 0.88908994E+05</totfact>
</mgrwt>
</event>
<event>
 6    2  0.9453093E+000  0.8825310E+02  0.7546771E-02  0.1307138E+00
         21   -1    0    0  501  502  0.00000000000E+00  0.00000000000E+00  0.10378244764E+02  0.10378244764E+02  0.00000000000E+00 0.  1.
         -1   -1    0    0    0  501 -0.00000000000E+00 -0.00000000000E+00 -0.46843612908E+03  0.46843612908E+03  0.00000000000E+00 0.  1.
         24    2    1    2    0    0 -0.29980144345E+02  0.54288975249E+01 -0.19552593429E+03  0.21452039592E+03  0.82827092799E+02 0.  0.
        -13    1    3    3    0    0 -0.37232646519E+02 -0.31763851586E+02 -0.90798485278E+02  0.10314832603E+03  0.00000000000E+00 0.  1.
         14    1    3    3    0    0  0.72525021741E+01  0.37192749111E+02 -0.10472744901E+03  0.11137206989E+03  0.00000000000E+00 0. -1.
         -2    1    1    2    0  502  0.29980144345E+02 -0.54288975249E+01 -0.26253195002E+03  0.26429397792E+03  0.00000000000E+00 0.  1.
<mgrwt>
<rscale>  1 0.88253098E+02</rscale>
<asrwt>0</asrwt>
<pdfrwt beam="1">  1       21 0.15966526E-02 0.88253098E+02</pdfrwt>
<pdfrwt beam="2">  1       -1 0.72067119E-01 0.88253098E+02</pdfrwt>
<totfact> 0.31491976E+05</totfact>
</mgrwt>
</event>
<event>
 6    2  0.9453093E+000  0.9036355E+02  0.7546771E-02  0.1301974E+00
          4   -1    0    0  502    0 -0.00000000000E+00  0.00000000000E+00  0.33398804999E+03  0.33398804999E+03  0.00000000000E+00 0. -1.
         21   -1    0    0  501  502  0.00000000000E+00 -0.00000000000E+00 -0.43705982699E+02  0.43705982699E+02  0.00000000000E+00 0. -1.
         24    2    1    2    0    0 -0.35404030363E+02 -0.18834507434E+02  0.31691992320E+03  0.32955091891E+03  0.80977690755E+02 0.  0.
        -11    1    3    3    0    0 -0.97060129778E+01  0.26375420639E+02  0.47778381711E+02  0.55431428457E+02  0.00000000000E+00 0.  1.
         12    1    3    3    0    0 -0.25698017385E+02 -0.45209928072E+02  0.26914154149E+03  0.27411949046E+03  0.00000000000E+00 0. -1.
          3    1    1    2  501    0  0.35404030363E+02  0.18834507434E+02 -0.26637855910E+02  0.48143113773E+02  0.00000000000E+00 0. -1.
<mgrwt>
<rscale>  1 0.90363546E+02</rscale>
<asrwt>0</asrwt>
<pdfrwt beam="1">  1       21 0.67239976E-02 0.90363546E+02</pdfrwt>
<pdfrwt beam="2">  1        4 0.51382775E-01 0.90363546E+02</pdfrwt>
<totfact> 0.23001202E+04</totfact>
</mgrwt>
</event>
<event>
 6    2  0.9453093E+000  0.8459297E+02  0.7546771E-02  0.1316500E+00
         21   -1    0    0  501  502  0.00000000000E+00  0.00000000000E+00  0.45740729108E+02  0.45740729108E+02  0.00000000000E+00 0.  1.
          2   -1    0    0  502    0 -0.00000000000E+00 -0.00000000000E+00 -0.76837522321E+02  0.76837522321E+02  0.00000000000E+00 0. -1.
         24    2    1    2    0    0  0.44388083640E+01  0.25578592365E+02 -0.41970058335E+02  0.94432287216E+02  0.80510891593E+02 0.  0.
        -11    1    3    3    0    0  0.22080090993E+02  0.13141094846E+02  0.17551976524E+02  0.31117369296E+02  0.00000000000E+00 0.  1.
         12    1    3    3    0    0 -0.17641282629E+02  0.12437497519E+02 -0.59522034859E+02  0.63314917919E+02  0.00000000000E+00 0. -1.
          1    1    1    2  501    0 -0.44388083640E+01 -0.25578592365E+02  0.10873265122E+02  0.28145964213E+02  0.00000000000E+00 0. -1.
<mgrwt>
<rscale>  1 0.84592973E+02</rscale>
<asrwt>0</asrwt>
<pdfrwt beam="1">  1       21 0.70370353E-02 0.84592973E+02</pdfrwt>
<pdfrwt beam="2">  1        2 0.11821157E-01 0.84592973E+02</pdfrwt>
<totfact> 0.87526319E+05</totfact>
</mgrwt>
</event>
<event>
 6    2  0.9453093E+000  0.8896685E+02  0.7546771E-02  0.1305373E+00
         -3   -1    0    0    0  501 -0.00000000000E+00  0.00000000000E+00  0.47891819725E+03  0.47891819725E+03  0.00000000000E+00 0.  1.
         21   -1    0    0  501  502  0.00000000000E+00 -0.00000000000E+00 -0.19987850421E+02  0.19987850421E+02  0.00000000000E+00 0.  1.
         24    2    1    2    0    0 -0.39105435375E+02 -0.74023502868E-01  0.45010998225E+03  0.45881815191E+03  0.79911575164E+02 0.  0.
        -13    1    3    3    0    0 -0.78462500579E+01  0.17550545058E+02  0.37585719378E+03  0.37634852915E+03  0.00000000000E+00 0.  1.
         14    1    3    3    0    0 -0.31259185317E+02 -0.17624568561E+02  0.74252788468E+02  0.82469622764E+02  0.00000000000E+00 0. -1.
         -4    1    1    2    0  502  0.39105435375E+02  0.74023502868E-01  0.88203645800E+01  0.40087895763E+02  0.00000000000E+00 0.  1.
<mgrwt>
<rscale>  1 0.88966850E+02</rscale>
<asrwt>0</asrwt>
<pdfrwt beam="1">  1       21 0.30750543E-02 0.88966850E+02</pdfrwt>
<pdfrwt beam="2">  1       -3 0.73679714E-01 0.88966850E+02</pdfrwt>
<totfact> 0.49417573E+04</totfact>
</mgrwt>
</event>
<event>
 6    2  0.9453093E+000  0.9815718E+02  0.7546771E-02  0.1284220E+00
         -3   -1    0    0    0  501 -0.00000000000E+00  0.00000000000E+00  0.45784978422E+02  0.45784978422E+02  0.00000000000E+00 0.  1.
         21   -1    0    0  501  502  0.00000000000E+00 -0.00000000000E+00 -0.13139543331E+03  0.13139543331E+03  0.00000000000E+00 0. -1.
         24    2    1    2    0    0  0.19738076051E+01  0.56021574644E+02 -0.45125001794E+02  0.10803285462E+03  0.80576169858E+02 0.  0.
        -11    1    3    3    0    0 -0.14760868915E+01 -0.19007827503E+02  0.23021339191E+01  0.19203545492E+02  0.00000000000E+00 0.  1.
         12    1    3    3    0    0  0.34498944966E+01  0.75029402147E+02 -0.47427135713E+02  0.88829309130E+02  0.00000000000E+00 0. -1.
         -4    1    1    2    0  502 -0.19738076051E+01 -0.56021574644E+02 -0.40485453098E+02  0.69147557113E+02  0.00000000000E+00 0.  1.
<mgrwt>
<rscale>  1 0.98157180E+02</rscale>
<asrwt>0</asrwt>
<pdfrwt beam="1">  1       21 0.20214682E-01 0.98157180E+02</pdfrwt>
<pdfrwt beam="2">  1       -3 0.70438429E-02 0.98157180E+02</pdfrwt>
<totfact> 0.13552310E+05</totfact>
</mgrwt>
</event>
<event>
 6    2  0.9453093E+000  0.1029397E+03  0.7546771E-02  0.1274233E+00
         21   -1    0    0  501  502  0.00000000000E+00  0.00000000000E+00  0.22594800534E+01  0.22594800534E+01  0.00000000000E+00 0.  1.
          2   -1    0    0  502    0 -0.00000000000E+00 -0.00000000000E+00 -0.21982468301E+04  0.21982468301E+04  0.00000000000E+00 0. -1.
         24    2    1    2    0    0 -0.26015426152E+02  0.20134855049E+02 -0.18787069219E+04  0.18815249864E+04  0.97541588366E+02 0.  0.
        -11    1    3    3    0    0 -0.48653649286E+02  0.42236422170E+02 -0.89822755296E+03  0.90053530183E+03  0.00000000000E+00 0.  1.
         12    1    3    3    0    0  0.22638223134E+02 -0.22101567121E+02 -0.98047936890E+03  0.98098968458E+03  0.00000000000E+00 0. -1.
          1    1    1    2  501    0  0.26015426152E+02 -0.20134855049E+02 -0.31728042815E+03  0.31898132370E+03  0.00000000000E+00 0. -1.
<mgrwt>
<rscale>  1 0.10293967E+03</rscale>
<asrwt>0</asrwt>
<pdfrwt beam="1">  1       21 0.34761457E-03 0.10293967E+03</pdfrwt>
<pdfrwt beam="2">  1        2 0.33818963E+00 0.10293967E+03</pdfrwt>
<totfact> 0.14568302E+06</totfact>
</mgrwt>
</event>
<event>
 6    2  0.9453093E+000  0.8888859E+02  0.7546771E-02  0.1305566E+00
         -1   -1    0    0    0  501 -0.00000000000E+00  0.00000000000E+00  0.49356082686E+03  0.49356082686E+03  0.00000000000E+00 0.  1.
         21   -1    0    0  501  502  0.00000000000E+00 -0.00000000000E+00 -0.19367357152E+02  0.19367357152E+02  0.00000000000E+00 0.  1.
         24    2    1    2    0    0  0.39563417452E+02 -0.49547762479E-01  0.46349809635E+03  0.47194455963E+03  0.79598464775E+02 0.  0.
        -11    1    3    3    0    0  0.39568401874E+02  0.35492696042E+02  0.29276016448E+03  0.29754647335E+03  0.00000000000E+00 0.  1.
         12    1    3    3    0    0 -0.49844216506E-02 -0.35542243804E+02  0.17073793187E+03  0.17439808628E+03  0.00000000000E+00 0. -1.
         -2    1    1    2    0  502 -0.39563417452E+02  0.49547762479E-01  0.10695373355E+02  0.40983624372E+02  0.00000000000E+00 0.  1.
<mgrwt>
<rscale>  1 0.88888593E+02</rscale>
<asrwt>0</asrwt>
<pdfrwt beam="1">  1       21 0.29795938E-02 0.88888593E+02</pdfrwt>
<pdfrwt beam="2">  1       -1 0.75932425E-01 0.88888593E+02</pdfrwt>
<totfact> 0.10442094E+05</totfact>
</mgrwt>
</event>
<event>
 6    2  0.9453093E+000  0.8095997E+02  0.7546771E-02  0.1326349E+00
          2   -1    0    0  502    0 -0.00000000000E+00  0.00000000000E+00  0.17368666722E+02  0.17368666722E+02  0.00000000000E+00 0. -1.
         21   -1    0    0  501  502  0.00000000000E+00 -0.00000000000E+00 -0.35762940656E+03  0.35762940656E+03  0.00000000000E+00 0. -1.
         24    2    1    2    0    0 -0.13177322763E+02 -0.23177057507E+02 -0.81534102974E+02  0.11490137885E+03  0.76444091235E+02 0.  0.
        -11    1    3    3    0    0  0.20594954051E+02 -0.25199957000E+02 -0.73123302118E+02  0.80038786084E+02  0.00000000000E+00 0.  1.
         12    1    3    3    0    0 -0.33772276814E+02  0.20228994929E+01 -0.84108008553E+01  0.34862592769E+02  0.00000000000E+00 0. -1.
          1    1    1    2  501    0  0.13177322763E+02  0.23177057507E+02 -0.25872663687E+03  0.26009669443E+03  0.00000000000E+00 0. -1.
<mgrwt>
<rscale>  1 0.80959971E+02</rscale>
<asrwt>0</asrwt>
<pdfrwt beam="1">  1       21 0.55019909E-01 0.80959971E+02</pdfrwt>
<pdfrwt beam="2">  1        2 0.26721025E-02 0.80959971E+02</pdfrwt>
<totfact> 0.13043718E+05</totfact>
</mgrwt>
</event>
<event>
 6    2  0.9453093E+000  0.8640227E+02  0.7546771E-02  0.1311806E+00
         21   -1    0    0  501  502  0.00000000000E+00  0.00000000000E+00  0.45385798907E+01  0.45385798907E+01  0.00000000000E+00 0. -1.
          2   -1    0    0  502    0 -0.00000000000E+00 -0.00000000000E+00 -0.10075176980E+04  0.10075176980E+04  0.00000000000E+00 0. -1.
         24    2    1    2    0    0  0.13897623701E+02  0.21390700211E+02 -0.94203358565E+03  0.94598764747E+03  0.82550873172E+02 0.  0.
        -11    1    3    3    0    0  0.43386456564E+01  0.85134196873E+01 -0.10054755486E+02  0.13870842396E+02  0.00000000000E+00 0.  1.
         12    1    3    3    0    0  0.95589780450E+01  0.12877280524E+02 -0.93197883017E+03  0.93211680507E+03  0.00000000000E+00 0. -1.
          1    1    1    2  501    0 -0.13897623701E+02 -0.21390700211E+02 -0.60945532491E+02  0.66068630459E+02  0.00000000000E+00 0. -1.
<mgrwt>
<rscale>  1 0.86402272E+02</rscale>
<asrwt>0</asrwt>
<pdfrwt beam="1">  1       21 0.69824230E-03 0.86402272E+02</pdfrwt>
<pdfrwt beam="2">  1        2 0.15500289E+00 0.86402272E+02</pdfrwt>
<totfact> 0.20510223E+06</totfact>
</mgrwt>
</event>
<event>
 6    2  0.9453093E+000  0.8573640E+02  0.7546771E-02  0.1313518E+00
          2   -1    0    0  502    0 -0.00000000000E+00  0.00000000000E+00  0.25843408250E+03  0.25843408250E+03  0.00000000000E+00 0. -1.
         21   -1    0    0  501  502  0.00000000000E+00 -0.00000000000E+00 -0.34405867236E+02  0.34405867236E+02  0.00000000000E+00 0. -1.
         24    2    1    2    0    0 -0.26558918842E+02  0.23161058364E+02  0.23947783736E+03  0.25436266270E+03  0.78159572641E+02 0.  0.
        -11    1    3    3    0    0  0.11051828828E+02 -0.19645371064E+02  0.31593478884E+02  0.38810197535E+02  0.00000000000E+00 0.  1.
         12    1    3    3    0    0 -0.37610747669E+02  0.42806429428E+02  0.20788435847E+03  0.21555246517E+03  0.00000000000E+00 0. -1.
          1    1    1    2  501    0  0.26558918842E+02 -0.23161058364E+02 -0.15449622096E+02  0.38477287034E+02  0.00000000000E+00 0. -1.
<mgrwt>
<rscale>  1 0.85736396E+02</rscale>
<asrwt>0</asrwt>
<pdfrwt beam="1">  1       21 0.52932105E-02 0.85736396E+02</pdfrwt>
<pdfrwt beam="2">  1        2 0.39759088E-01 0.85736396E+02</pdfrwt>
<totfact> 0.36859937E+05</totfact>
</mgrwt>
</event>
<event>
 6    2  0.9453093E+000  0.9199476E+02  0.7546771E-02  0.1298092E+00
         21   -1    0    0  501  502  0.00000000000E+00  0.00000000000E+00  0.32654839175E+01  0.32654839175E+01  0.00000000000E+00 0. -1.
          2   -1    0    0  502    0 -0.00000000000E+00 -0.00000000000E+00 -0.27973781382E+04  0.27973781382E+04  0.00000000000E+00 0. -1.
         24    2    1    2    0    0 -0.28562386949E+01 -0.27674114300E+02 -0.27188101699E+04  0.27203661106E+04  0.87687063109E+02 0.  0.
        -13    1    3    3    0    0 -0.52599018936E+01  0.15300782168E+02 -0.10837327893E+03  0.10957439522E+03  0.00000000000E+00 0.  1.
         14    1    3    3    0    0  0.24036631987E+01 -0.42974896468E+02 -0.26104368910E+04  0.26107917154E+04  0.00000000000E+00 0. -1.
          1    1    1    2  501    0  0.28562386949E+01  0.27674114300E+02 -0.75302484400E+02  0.80277511537E+02  0.00000000000E+00 0. -1.
<mgrwt>
<rscale>  1 0.91994759E+02</rscale>
<asrwt>0</asrwt>
<pdfrwt beam="1">  1       21 0.50238255E-03 0.91994759E+02</pdfrwt>
<pdfrwt beam="2">  1        2 0.43036552E+00 0.91994759E+02</pdfrwt>
<totfact> 0.39959205E+05</totfact>
</mgrwt>
</event>
<event>
 6    2  0.9453093E+000  0.8626504E+02  0.7546771E-02  0.1312157E+00
         21   -1    0    0  501  502  0.00000000000E+00  0.00000000000E+00  0.87094262032E+01  0.87094262032E+01  0.00000000000E+00 0. -1.
         -3   -1    0    0    0  501 -0.00000000000E+00 -0.00000000000E+00 -0.55237539153E+03  0.55237539153E+03  0.00000000000E+00 0.  1.
         24    2    1    2    0    0 -0.25015834956E+02  0.34829496823E+02 -0.44825372264E+03  0.45647897706E+03  0.74851658595E+02 0.  0.
        -11    1    3    3    0    0 -0.11488818562E+02 -0.96275053718E+01 -0.31497481893E+03  0.31533128353E+03  0.00000000000E+00 0.  1.
         12    1    3    3    0    0 -0.13527016394E+02  0.44457002194E+02 -0.13327890371E+03  0.14114769353E+03  0.00000000000E+00 0. -1.
         -4    1    1    2    0  502  0.25015834956E+02 -0.34829496823E+02 -0.95412242697E+02  0.10460584068E+03  0.00000000000E+00 0.  1.
<mgrwt>
<rscale>  1 0.86265037E+02</rscale>
<asrwt>0</asrwt>
<pdfrwt beam="1">  1       21 0.13399112E-02 0.86265037E+02</pdfrwt>
<pdfrwt beam="2">  1       -3 0.84980866E-01 0.86265037E+02</pdfrwt>
<totfact> 0.13687250E+05</totfact>
</mgrwt>
</event>
<event>
 6    2  0.9453093E+000  0.8573487E+02  0.7546771E-02  0.1313522E+00
          2   -1    0    0  502    0 -0.00000000000E+00  0.00000000000E+00  0.20156567498E+04  0.20156567498E+04  0.00000000000E+00 0. -1.
         21   -1    0    0  501  502  0.00000000000E+00 -0.00000000000E+00 -0.43439796883E+01  0.43439796883E+01  0.00000000000E+00 0. -1.
         24    2    1    2    0    0  0.12182435222E+02 -0.24578418379E+02  0.19594953901E+04  0.19613700955E+04  0.81227809576E+02 0.  0.
        -11    1    3    3    0    0  0.18940325603E+02 -0.48623744147E+02  0.85412161716E+03  0.85571417035E+03  0.00000000000E+00 0.  1.
         12    1    3    3    0    0 -0.67578903811E+01  0.24045325769E+02  0.11053737730E+04  0.11056559251E+04  0.00000000000E+00 0. -1.
          1    1    1    2  501    0 -0.12182435222E+02  0.24578418379E+02  0.51817379955E+02  0.58630634001E+02  0.00000000000E+00 0. -1.
<mgrwt>
<rscale>  1 0.85734867E+02</rscale>
<asrwt>0</asrwt>
<pdfrwt beam="1">  1       21 0.66830618E-03 0.85734867E+02</pdfrwt>
<pdfrwt beam="2">  1        2 0.31010029E+00 0.85734867E+02</pdfrwt>
<totfact> 0.65678709E+05</totfact>
</mgrwt>
</event>
<event>
 6    2  0.9453093E+000  0.8258789E+02  0.7546771E-02  0.1321864E+00
          4   -1    0    0  502    0 -0.00000000000E+00  0.00000000000E+00  0.14865315112E+04  0.14865315112E+04  0.00000000000E+00 0. -1.
         21   -1    0    0  501  502  0.00000000000E+00 -0.00000000000E+00 -0.25395726676E+01  0.25395726676E+01  0.00000000000E+00 0. -1.
         24    2    1    2    0    0  0.31986761189E+00  0.23357522593E+02  0.13808234466E+04  0.13832910578E+04  0.79215426959E+02 0.  0.
        -13    1    3    3    0    0  0.19333854858E+02  0.59617767679E+01  0.91502574624E+02  0.93712655968E+02  0.00000000000E+00 0.  1.
         14    1    3    3    0    0 -0.19013987246E+02  0.17395745825E+02  0.12893208719E+04  0.12895784018E+04  0.00000000000E+00 0. -1.
          3    1    1    2  501    0 -0.31986761189E+00 -0.23357522593E+02  0.10316849195E+03  0.10578002604E+03  0.00000000000E+00 0. -1.
<mgrwt>
<rscale>  1 0.82587893E+02</rscale>
<asrwt>0</asrwt>
<pdfrwt beam="1">  1       21 0.39070467E-03 0.82587893E+02</pdfrwt>
<pdfrwt beam="2">  1        4 0.22869646E+00 0.82587893E+02</pdfrwt>
<totfact> 0.60553895E+04</totfact>
</mgrwt>
</event>
<event>
 6    2  0.1128368E+001  0.8412000E+02  0.7546771E-02  0.1317750E+00
         -1   -1    0    0    0  501 -0.00000000000E+00  0.00000000000E+00  0.38220457087E+03  0.38220457087E+03  0.00000000000E+00 0.  1.
         21   -1    0    0  501  502  0.00000000000E+00 -0.00000000000E+00 -0.85329282560E+01  0.85329282560E+01  0.00000000000E+00 0. -1.
         24    2    1    2    0    0  0.22451573643E+02 -0.17941369643E+02  0.25009717192E+03  0.26386506039E+03  0.79058261986E+02 0.  0.
        -13    1    3    3    0    0 -0.12670604071E+02  0.85348800208E+01  0.18300084272E+03  0.18363740583E+03  0.00000000000E+00 0.  1.
         14    1    3    3    0    0  0.35122177714E+02 -0.26476249663E+02  0.67096329200E+02  0.80227654557E+02  0.00000000000E+00 0. -1.
         -2    1    1    2    0  502 -0.22451573643E+02  0.17941369643E+02  0.12357447069E+03  0.12687243873E+03  0.00000000000E+00 0.  1.
<mgrwt>
<rscale>  1 0.84120002E+02</rscale>
<asrwt>0</asrwt>
<pdfrwt beam="1">  1       21 0.13127585E-02 0.84120002E+02</pdfrwt>
<pdfrwt beam="2">  1       -1 0.58800690E-01 0.84120002E+02</pdfrwt>
<totfact> 0.63033611E+05</totfact>
</mgrwt>
</event>
<event>
 6    2  0.9453093E+000  0.8638024E+02  0.7546771E-02  0.1311862E+00
         -1   -1    0    0    0  501 -0.00000000000E+00  0.00000000000E+00  0.61508329663E+02  0.61508329663E+02  0.00000000000E+00 0.  1.
         21   -1    0    0  501  502  0.00000000000E+00 -0.00000000000E+00 -0.72311071329E+02  0.72311071329E+02  0.00000000000E+00 0.  1.
         24    2    1    2    0    0  0.30693733274E+02 -0.11368975212E+02  0.20227456301E+02  0.88716939357E+02  0.79938641975E+02 0.  0.
        -11    1    3    3    0    0  0.51109897658E+02 -0.25474600552E+02  0.26746408652E+02  0.63059870660E+02  0.00000000000E+00 0.  1.
         12    1    3    3    0    0 -0.20416164384E+02  0.14105625339E+02 -0.65189523513E+01  0.25657068697E+02  0.00000000000E+00 0. -1.
         -2    1    1    2    0  502 -0.30693733274E+02  0.11368975212E+02 -0.31030197967E+02  0.45102461635E+02  0.00000000000E+00 0.  1.
<mgrwt>
<rscale>  1 0.86380237E+02</rscale>
<asrwt>0</asrwt>
<pdfrwt beam="1">  1       21 0.11124780E-01 0.86380237E+02</pdfrwt>
<pdfrwt beam="2">  1       -1 0.94628200E-02 0.86380237E+02</pdfrwt>
<totfact> 0.37190911E+05</totfact>
</mgrwt>
</event>
<event>
 6    2  0.9453093E+000  0.8574874E+02  0.7546771E-02  0.1313486E+00
          2   -1    0    0  502    0 -0.00000000000E+00  0.00000000000E+00  0.27481513807E+03  0.27481513807E+03  0.00000000000E+00 0. -1.
         21   -1    0    0  501  502  0.00000000000E+00 -0.00000000000E+00 -0.17766341356E+02  0.17766341356E+02  0.00000000000E+00 0.  1.
         24    2    1    2    0    0  0.27299195987E+02  0.10732749651E+02  0.24718255018E+03  0.26163344496E+03  0.80575482561E+02 0.  0.
        -13    1    3    3    0    0  0.13881049967E+02  0.42601142796E+02  0.88131233929E+02  0.98866856477E+02  0.00000000000E+00 0.  1.
         14    1    3    3    0    0  0.13418146020E+02 -0.31868393145E+02  0.15905131626E+03  0.16276658848E+03  0.00000000000E+00 0. -1.
          1    1    1    2  501    0 -0.27299195987E+02 -0.10732749651E+02  0.98662465276E+01  0.30948034463E+02  0.00000000000E+00 0. -1.
<mgrwt>
<rscale>  1 0.85748740E+02</rscale>
<asrwt>0</asrwt>
<pdfrwt beam="1">  1       21 0.27332835E-02 0.85748740E+02</pdfrwt>
<pdfrwt beam="2">  1        2 0.42279249E-01 0.85748740E+02</pdfrwt>
<totfact> 0.10224898E+06</totfact>
</mgrwt>
</event>
<event>
 6    2  0.9453093E+000  0.9326985E+02  0.7546771E-02  0.1295121E+00
         21   -1    0    0  501  502  0.00000000000E+00  0.00000000000E+00  0.73022396416E+03  0.73022396416E+03  0.00000000000E+00 0.  1.
         -3   -1    0    0    0  501 -0.00000000000E+00 -0.00000000000E+00 -0.16228143513E+02  0.16228143513E+02  0.00000000000E+00 0.  1.
         24    2    1    2    0    0 -0.48653651463E+02  0.45074650100E+01  0.12775760582E+03  0.15818113307E+03  0.79446648586E+02 0.  0.
        -13    1    3    3    0    0 -0.56950675379E+02 -0.24313396726E+01  0.39707636172E+02  0.69469325670E+02  0.00000000000E+00 0.  1.
         14    1    3    3    0    0  0.82970239159E+01  0.69388046826E+01  0.88049969651E+02  0.88711807398E+02  0.00000000000E+00 0. -1.
         -4    1    1    2    0  502  0.48653651463E+02 -0.45074650100E+01  0.58623821483E+03  0.58827097461E+03  0.00000000000E+00 0.  1.
<mgrwt>
<rscale>  1 0.93269851E+02</rscale>
<asrwt>0</asrwt>
<pdfrwt beam="1">  1       21 0.11234212E+00 0.93269851E+02</pdfrwt>
<pdfrwt beam="2">  1       -3 0.24966380E-02 0.93269851E+02</pdfrwt>
<totfact> 0.19967814E+04</totfact>
</mgrwt>
</event>
<event>
 6    2  0.9453093E+000  0.9153615E+02  0.7546771E-02  0.1299174E+00
         -3   -1    0    0    0  501 -0.00000000000E+00  0.00000000000E+00  0.15755993605E+02  0.15755993605E+02  0.00000000000E+00 0.  1.
         21   -1    0    0  501  502  0.00000000000E+00 -0.00000000000E+00 -0.17493579047E+04  0.17493579047E+04  0.00000000000E+00 0. -1.
         24    2    1    2    0    0  0.36230209636E+02 -0.21980235233E+02 -0.11985862833E+03  0.15081431598E+03  0.81136356140E+02 0.  0.
        -11    1    3    3    0    0  0.17054773863E+02  0.58848812170E+01  0.71289289795E+01  0.19398937261E+02  0.00000000000E+00 0.  1.
         12    1    3    3    0    0  0.19175435773E+02 -0.27865116449E+02 -0.12698755731E+03  0.13141537872E+03  0.00000000000E+00 0. -1.
         -4    1    1    2    0  502 -0.36230209636E+02  0.21980235233E+02 -0.16137432827E+04  0.16142995823E+04  0.00000000000E+00 0.  1.
<mgrwt>
<rscale>  1 0.91536152E+02</rscale>
<asrwt>0</asrwt>
<pdfrwt beam="1">  1       21 0.26913190E+00 0.91536152E+02</pdfrwt>
<pdfrwt beam="2">  1       -3 0.24239998E-02 0.91536152E+02</pdfrwt>
<totfact> 0.18924561E+03</totfact>
</mgrwt>
</event>
<event>
 6    2  0.9453093E+000  0.1057462E+03  0.7546771E-02  0.1268656E+00
         21   -1    0    0  501  502  0.00000000000E+00  0.00000000000E+00  0.86434318696E+02  0.86434318696E+02  0.00000000000E+00 0.  1.
         -1   -1    0    0    0  501 -0.00000000000E+00 -0.00000000000E+00 -0.95357612886E+02  0.95357612886E+02  0.00000000000E+00 0.  1.
         24    2    1    2    0    0  0.54044885135E+02  0.46840062299E+02 -0.24613351826E+02  0.10857295212E+03  0.77893695494E+02 0.  0.
        -11    1    3    3    0    0  0.74276532962E+02  0.34907392134E+02 -0.16422071147E+02  0.83697155240E+02  0.00000000000E+00 0.  1.
         12    1    3    3    0    0 -0.20231647827E+02  0.11932670166E+02 -0.81912806790E+01  0.24875796877E+02  0.00000000000E+00 0. -1.
         -2    1    1    2    0  502 -0.54044885135E+02 -0.46840062299E+02  0.15690057636E+02  0.73218979466E+02  0.00000000000E+00 0.  1.
<mgrwt>
<rscale>  1 0.10574625E+03</rscale>
<asrwt>0</asrwt>
<pdfrwt beam="1">  1       21 0.13297587E-01 0.10574625E+03</pdfrwt>
<pdfrwt beam="2">  1       -1 0.14670402E-01 0.10574625E+03</pdfrwt>
<totfact> 0.14148064E+05</totfact>
</mgrwt>
</event>
<event>
 6    2  0.9453093E+000  0.1574947E+03  0.7546771E-02  0.1191555E+00
         21   -1    0    0  501  502  0.00000000000E+00  0.00000000000E+00  0.14760227309E+03  0.14760227309E+03  0.00000000000E+00 0. -1.
          2   -1    0    0  502    0 -0.00000000000E+00 -0.00000000000E+00 -0.27345914435E+03  0.27345914435E+03  0.00000000000E+00 0. -1.
         24    2    1    2    0    0 -0.12933302618E+03 -0.40662274076E+02 -0.20924614102E+03  0.26189413907E+03  0.80150735227E+02 0.  0.
        -11    1    3    3    0    0 -0.92651952540E+02 -0.55908676261E+02 -0.18781207767E+03  0.21675687050E+03  0.00000000000E+00 0.  1.
         12    1    3    3    0    0 -0.36681073635E+02  0.15246402185E+02 -0.21434063349E+02  0.45137268573E+02  0.00000000000E+00 0. -1.
          1    1    1    2  501    0  0.12933302618E+03  0.40662274076E+02  0.83389269761E+02  0.15916727837E+03  0.00000000000E+00 0. -1.
<mgrwt>
<rscale>  1 0.15749474E+03</rscale>
<asrwt>0</asrwt>
<pdfrwt beam="1">  1       21 0.22708042E-01 0.15749474E+03</pdfrwt>
<pdfrwt beam="2">  1        2 0.42070638E-01 0.15749474E+03</pdfrwt>
<totfact> 0.27299890E+04</totfact>
</mgrwt>
</event>
<event>
 6    2  0.9453093E+000  0.8431671E+02  0.7546771E-02  0.1317229E+00
         21   -1    0    0  501  502  0.00000000000E+00  0.00000000000E+00  0.13410719486E+03  0.13410719486E+03  0.00000000000E+00 0.  1.
         -3   -1    0    0    0  501 -0.00000000000E+00 -0.00000000000E+00 -0.31084284603E+02  0.31084284603E+02  0.00000000000E+00 0.  1.
         24    2    1    2    0    0  0.25918139070E+02  0.47527734895E+01  0.33297977343E+02  0.90653535713E+02  0.80093504440E+02 0.  0.
        -13    1    3    3    0    0  0.17396728204E+02  0.42205948343E+02  0.14560362261E+02  0.47916514657E+02  0.00000000000E+00 0.  1.
         14    1    3    3    0    0  0.85214108661E+01 -0.37453174854E+02  0.18737615082E+02  0.42737021056E+02  0.00000000000E+00 0. -1.
         -4    1    1    2    0  502 -0.25918139070E+02 -0.47527734895E+01  0.69724932913E+02  0.74537943750E+02  0.00000000000E+00 0.  1.
<mgrwt>
<rscale>  1 0.84316714E+02</rscale>
<asrwt>0</asrwt>
<pdfrwt beam="1">  1       21 0.20631876E-01 0.84316714E+02</pdfrwt>
<pdfrwt beam="2">  1       -3 0.47821977E-02 0.84316714E+02</pdfrwt>
<totfact> 0.23552949E+05</totfact>
</mgrwt>
</event>
<event>
 6    2  0.9453093E+000  0.8467346E+02  0.7546771E-02  0.1316289E+00
          2   -1    0    0  502    0 -0.00000000000E+00  0.00000000000E+00  0.34161343435E+04  0.34161343435E+04  0.00000000000E+00 0. -1.
         21   -1    0    0  501  502  0.00000000000E+00 -0.00000000000E+00 -0.94026933189E+01  0.94026933189E+01  0.00000000000E+00 0. -1.
         24    2    1    2    0    0  0.24805279086E+02  0.18946947615E+02  0.33881568114E+04  0.33892146838E+04  0.78710261851E+02 0.  0.
        -13    1    3    3    0    0 -0.85662370686E+01 -0.16045738446E+02  0.24063390996E+03  0.24132037785E+03  0.00000000000E+00 0.  1.
         14    1    3    3    0    0  0.33371516155E+02  0.34992686060E+02  0.31475229014E+04  0.31478943059E+04  0.00000000000E+00 0. -1.
          1    1    1    2  501    0 -0.24805279086E+02 -0.18946947615E+02  0.18574838749E+02  0.36322353021E+02  0.00000000000E+00 0. -1.
<mgrwt>
<rscale>  1 0.84673455E+02</rscale>
<asrwt>0</asrwt>
<pdfrwt beam="1">  1       21 0.14465709E-02 0.84673455E+02</pdfrwt>
<pdfrwt beam="2">  1        2 0.52555814E+00 0.84673455E+02</pdfrwt>
<totfact> 0.33725497E+04</totfact>
</mgrwt>
</event>
<event>
 6    2  0.9453093E+000  0.9779675E+02  0.7546771E-02  0.1284998E+00
          2   -1    0    0  502    0 -0.00000000000E+00  0.00000000000E+00  0.10622223056E+04  0.10622223056E+04  0.00000000000E+00 0. -1.
         21   -1    0    0  501  502  0.00000000000E+00 -0.00000000000E+00 -0.62829944656E+01  0.62829944656E+01  0.00000000000E+00 0. -1.
         24    2    1    2    0    0 -0.39794362309E+02  0.46986130942E+02  0.75696645871E+03  0.76325777058E+03  0.75979714147E+02 0.  0.
        -11    1    3    3    0    0  0.97266148662E+01 -0.66040987993E+01  0.24596608588E+02  0.27261957225E+02  0.00000000000E+00 0.  1.
         12    1    3    3    0    0 -0.49520977175E+02  0.53590229741E+02  0.73236985013E+03  0.73599581336E+03  0.00000000000E+00 0. -1.
          1    1    1    2  501    0  0.39794362309E+02 -0.46986130942E+02  0.29897285245E+03  0.30524752952E+03  0.00000000000E+00 0. -1.
<mgrwt>
<rscale>  1 0.97796752E+02</rscale>
<asrwt>0</asrwt>
<pdfrwt beam="1">  1       21 0.96661537E-03 0.97796752E+02</pdfrwt>
<pdfrwt beam="2">  1        2 0.16341867E+00 0.97796752E+02</pdfrwt>
<totfact> 0.11627990E+06</totfact>
</mgrwt>
</event>
<event>
 6    2  0.9453093E+000  0.8427504E+02  0.7546771E-02  0.1317339E+00
         21   -1    0    0  501  502  0.00000000000E+00  0.00000000000E+00  0.30515890401E+03  0.30515890401E+03  0.00000000000E+00 0. -1.
          4   -1    0    0  502    0 -0.00000000000E+00 -0.00000000000E+00 -0.17794363098E+02  0.17794363098E+02  0.00000000000E+00 0. -1.
         24    2    1    2    0    0 -0.20511763190E+02 -0.10213754476E+02  0.86429615503E+02  0.12071603646E+03  0.81100122158E+02 0.  0.
        -13    1    3    3    0    0  0.21260863558E+02  0.21513703957E+02  0.43235219317E+02  0.52765025979E+02  0.00000000000E+00 0.  1.
         14    1    3    3    0    0 -0.41772626748E+02 -0.31727458433E+02  0.43194396186E+02  0.67951010485E+02  0.00000000000E+00 0. -1.
          3    1    1    2  501    0  0.20511763190E+02  0.10213754476E+02  0.20093492540E+03  0.20223723064E+03  0.00000000000E+00 0. -1.
<mgrwt>
<rscale>  1 0.84275044E+02</rscale>
<asrwt>0</asrwt>
<pdfrwt beam="1">  1       21 0.46947520E-01 0.84275044E+02</pdfrwt>
<pdfrwt beam="2">  1        4 0.27375945E-02 0.84275044E+02</pdfrwt>
<totfact> 0.10272571E+05</totfact>
</mgrwt>
</event>
<event>
 6    2  0.9453093E+000  0.8686647E+02  0.7546771E-02  0.1310622E+00
         -3   -1    0    0    0  501 -0.00000000000E+00  0.00000000000E+00  0.18907580455E+02  0.18907580455E+02  0.00000000000E+00 0.  1.
         21   -1    0    0  501  502  0.00000000000E+00 -0.00000000000E+00 -0.19213781401E+03  0.19213781401E+03  0.00000000000E+00 0.  1.
         24    2    1    2    0    0  0.29954651380E+02  0.12880423442E+02 -0.11270785546E+03  0.14229843309E+03  0.80514575894E+02 0.  0.
        -11    1    3    3    0    0  0.35221587385E+02  0.36625293867E+02 -0.10522479926E+03  0.11685131898E+03  0.00000000000E+00 0.  1.
         12    1    3    3    0    0 -0.52669360056E+01 -0.23744870426E+02 -0.74830561972E+01  0.25447114109E+02  0.00000000000E+00 0. -1.
         -4    1    1    2    0  502 -0.29954651380E+02 -0.12880423442E+02 -0.60522378095E+02  0.68746961370E+02  0.00000000000E+00 0.  1.
<mgrwt>
<rscale>  1 0.86866469E+02</rscale>
<asrwt>0</asrwt>
<pdfrwt beam="1">  1       21 0.29559663E-01 0.86866469E+02</pdfrwt>
<pdfrwt beam="2">  1       -3 0.29088586E-02 0.86866469E+02</pdfrwt>
<totfact> 0.26050543E+05</totfact>
</mgrwt>
</event>
<event>
 6    2  0.9453093E+000  0.8870253E+02  0.7546771E-02  0.1306024E+00
         21   -1    0    0  501  502  0.00000000000E+00  0.00000000000E+00  0.15651082207E+02  0.15651082207E+02  0.00000000000E+00 0.  1.
          2   -1    0    0  502    0 -0.00000000000E+00 -0.00000000000E+00 -0.25410262505E+03  0.25410262505E+03  0.00000000000E+00 0. -1.
         24    2    1    2    0    0 -0.31104090441E+01 -0.37219319827E+02 -0.17198928052E+03  0.19351602153E+03  0.80456109526E+02 0.  0.
        -11    1    3    3    0    0 -0.21998830291E+02 -0.50088826201E+02 -0.69181219800E+02  0.88197960393E+02  0.00000000000E+00 0.  1.
         12    1    3    3    0    0  0.18888421247E+02  0.12869506374E+02 -0.10280806072E+03  0.10531806114E+03  0.00000000000E+00 0. -1.
          1    1    1    2  501    0  0.31104090441E+01  0.37219319827E+02 -0.66462262323E+02  0.76237685733E+02  0.00000000000E+00 0. -1.
<mgrwt>
<rscale>  1 0.88702525E+02</rscale>
<asrwt>0</asrwt>
<pdfrwt beam="1">  1       21 0.24078589E-02 0.88702525E+02</pdfrwt>
<pdfrwt beam="2">  1        2 0.39092710E-01 0.88702525E+02</pdfrwt>
<totfact> 0.13668927E+06</totfact>
</mgrwt>
</event>
<event>
 6    2  0.9453093E+000  0.8631945E+02  0.7546771E-02  0.1312018E+00
         21   -1    0    0  501  502  0.00000000000E+00  0.00000000000E+00  0.11769335885E+03  0.11769335885E+03  0.00000000000E+00 0. -1.
         -1   -1    0    0    0  501 -0.00000000000E+00 -0.00000000000E+00 -0.31615224591E+02  0.31615224591E+02  0.00000000000E+00 0.  1.
         24    2    1    2    0    0  0.11189963231E+02  0.32499667914E+02  0.51308578586E+02  0.10041721719E+03  0.79180828368E+02 0.  0.
        -13    1    3    3    0    0 -0.25411039646E+02  0.13258429460E+02 -0.64537863030E+01  0.29379554886E+02  0.00000000000E+00 0.  1.
         14    1    3    3    0    0  0.36601002877E+02  0.19241238454E+02  0.57762364889E+02  0.71037662309E+02  0.00000000000E+00 0. -1.
         -2    1    1    2    0  502 -0.11189963231E+02 -0.32499667914E+02  0.34769555675E+02  0.48891366246E+02  0.00000000000E+00 0.  1.
<mgrwt>
<rscale>  1 0.86319449E+02</rscale>
<asrwt>0</asrwt>
<pdfrwt beam="1">  1       21 0.18106670E-01 0.86319449E+02</pdfrwt>
<pdfrwt beam="2">  1       -1 0.48638808E-02 0.86319449E+02</pdfrwt>
<totfact> 0.41922312E+05</totfact>
</mgrwt>
</event>
<event>
 6    2  0.9453093E+000  0.8188692E+02  0.7546771E-02  0.1323780E+00
         21   -1    0    0  501  502  0.00000000000E+00  0.00000000000E+00  0.31007727782E+03  0.31007727782E+03  0.00000000000E+00 0.  1.
         -1   -1    0    0    0  501 -0.00000000000E+00 -0.00000000000E+00 -0.11207812039E+02  0.11207812039E+02  0.00000000000E+00 0.  1.
         24    2    1    2    0    0  0.22559056539E+02  0.22116385814E+01  0.15179133099E+03  0.17247050686E+03  0.78687134897E+02 0.  0.
        -13    1    3    3    0    0  0.30955272858E+02  0.32151012148E+02  0.55131187240E+02  0.70932110545E+02  0.00000000000E+00 0.  1.
         14    1    3    3    0    0 -0.83962163189E+01 -0.29939373567E+02  0.96660143747E+02  0.10153839632E+03  0.00000000000E+00 0. -1.
         -2    1    1    2    0  502 -0.22559056539E+02 -0.22116385814E+01  0.14707813479E+03  0.14881458299E+03  0.00000000000E+00 0.  1.
<mgrwt>
<rscale>  1 0.81886919E+02</rscale>
<asrwt>0</asrwt>
<pdfrwt beam="1">  1       21 0.47704190E-01 0.81886919E+02</pdfrwt>
<pdfrwt beam="2">  1       -1 0.17242790E-02 0.81886919E+02</pdfrwt>
<totfact> 0.29194726E+05</totfact>
</mgrwt>
</event>
<event>
 6    2  0.1956590E+001  0.8842877E+02  0.7546771E-02  0.1306702E+00
         21   -1    0    0  501  502  0.00000000000E+00  0.00000000000E+00  0.65736120695E+01  0.65736120695E+01  0.00000000000E+00 0. -1.
         -1   -1    0    0    0  501 -0.00000000000E+00 -0.00000000000E+00 -0.12326108102E+04  0.12326108102E+04  0.00000000000E+00 0.  1.
         24    2    1    2    0    0  0.18788687692E+02 -0.33499746582E+02 -0.31062445702E+03  0.32296625262E+03  0.79651737124E+02 0.  0.
        -11    1    3    3    0    0  0.95059851993E+01  0.15210664817E+02 -0.21022605343E+03  0.21098986141E+03  0.00000000000E+00 0.  1.
         12    1    3    3    0    0  0.92827024924E+01 -0.48710411400E+02 -0.10039840359E+03  0.11197639121E+03  0.00000000000E+00 0. -1.
         -2    1    1    2    0  502 -0.18788687692E+02  0.33499746582E+02 -0.91541274109E+03  0.91621816963E+03  0.00000000000E+00 0.  1.
<mgrwt>
<rscale>  1 0.88428768E+02</rscale>
<asrwt>0</asrwt>
<pdfrwt beam="1">  1       21 0.10113247E-02 0.88428768E+02</pdfrwt>
<pdfrwt beam="2">  1       -1 0.18963248E+00 0.88428768E+02</pdfrwt>
<totfact> 0.66912368E+04</totfact>
</mgrwt>
</event>
<event>
 6    2  0.9453093E+000  0.1012321E+03  0.7546771E-02  0.1277726E+00
          2   -1    0    0  502    0 -0.00000000000E+00  0.00000000000E+00  0.10391395927E+02  0.10391395927E+02  0.00000000000E+00 0. -1.
         21   -1    0    0  501  502  0.00000000000E+00 -0.00000000000E+00 -0.10733017241E+04  0.10733017241E+04  0.00000000000E+00 0.  1.
         24    2    1    2    0    0  0.42289157916E+02  0.43839166753E+02 -0.26848026806E+03  0.28693132009E+03  0.80855937907E+02 0.  0.
        -13    1    3    3    0    0 -0.53031035699E+01  0.52139213629E+02 -0.15406267987E+03  0.16273269443E+03  0.00000000000E+00 0.  1.
         14    1    3    3    0    0  0.47592261486E+02 -0.83000468765E+01 -0.11441758818E+03  0.12419862567E+03  0.00000000000E+00 0. -1.
          1    1    1    2  501    0 -0.42289157916E+02 -0.43839166753E+02 -0.79443006015E+03  0.79676179996E+03  0.00000000000E+00 0. -1.
<mgrwt>
<rscale>  1 0.10123205E+03</rscale>
<asrwt>0</asrwt>
<pdfrwt beam="1">  1       21 0.16512330E+00 0.10123205E+03</pdfrwt>
<pdfrwt beam="2">  1        2 0.15986767E-02 0.10123205E+03</pdfrwt>
<totfact> 0.20743995E+04</totfact>
</mgrwt>
</event>
<event>
 6    2  0.9453093E+000  0.8627550E+02  0.7546771E-02  0.1312130E+00
         21   -1    0    0  501  502  0.00000000000E+00  0.00000000000E+00  0.41700692518E+03  0.41700692518E+03  0.00000000000E+00 0.  1.
         -1   -1    0    0    0  501 -0.00000000000E+00 -0.00000000000E+00 -0.91920807808E+01  0.91920807808E+01  0.00000000000E+00 0.  1.
         24    2    1    2    0    0 -0.18335047085E+02  0.25368344442E+02  0.22997509185E+03  0.24562573984E+03  0.80397352870E+02 0.  0.
        -11    1    3    3    0    0 -0.19739144677E+02  0.22638299386E+02  0.21048282834E+02  0.36676377165E+02  0.00000000000E+00 0.  1.
         12    1    3    3    0    0  0.14040975920E+01  0.27300450563E+01  0.20892680902E+03  0.20894936268E+03  0.00000000000E+00 0. -1.
         -2    1    1    2    0  502  0.18335047085E+02 -0.25368344442E+02  0.17783975255E+03  0.18057326612E+03  0.00000000000E+00 0.  1.
<mgrwt>
<rscale>  1 0.86275496E+02</rscale>
<asrwt>0</asrwt>
<pdfrwt beam="1">  1       21 0.64154897E-01 0.86275496E+02</pdfrwt>
<pdfrwt beam="2">  1       -1 0.14141666E-02 0.86275496E+02</pdfrwt>
<totfact> 0.21036852E+05</totfact>
</mgrwt>
</event>
<event>
 6    2  0.9453093E+000  0.1245861E+03  0.7546771E-02  0.1235718E+00
         21   -1    0    0  501  502  0.00000000000E+00  0.00000000000E+00  0.45529638591E+02  0.45529638591E+02  0.00000000000E+00 0. -1.
          2   -1    0    0  502    0 -0.00000000000E+00 -0.00000000000E+00 -0.68233697675E+03  0.68233697675E+03  0.00000000000E+00 0. -1.
         24    2    1    2    0    0  0.11252820958E+02  0.96000268912E+02 -0.61667574286E+03  0.62913486391E+03  0.78606790739E+02 0.  0.
        -11    1    3    3    0    0 -0.58502876605E+01  0.24683777973E+02 -0.37136684730E+02  0.44973860335E+02  0.00000000000E+00 0.  1.
         12    1    3    3    0    0  0.17103108619E+02  0.71316490938E+02 -0.57953905813E+03  0.58416100358E+03  0.00000000000E+00 0. -1.
          1    1    1    2  501    0 -0.11252820958E+02 -0.96000268912E+02 -0.20131595300E+02  0.98731751428E+02  0.00000000000E+00 0. -1.
<mgrwt>
<rscale>  1 0.12458614E+03</rscale>
<asrwt>0</asrwt>
<pdfrwt beam="1">  1       21 0.70045595E-02 0.12458614E+03</pdfrwt>
<pdfrwt beam="2">  1        2 0.10497492E+00 0.12458614E+03</pdfrwt>
<totfact> 0.82094234E+04</totfact>
</mgrwt>
</event>
<event>
 6    2  0.9453093E+000  0.8937811E+02  0.7546771E-02  0.1304365E+00
          2   -1    0    0  502    0 -0.00000000000E+00  0.00000000000E+00  0.61332951949E+03  0.61332951949E+03  0.00000000000E+00 0. -1.
         21   -1    0    0  501  502  0.00000000000E+00 -0.00000000000E+00 -0.92761776528E+01  0.92761776528E+01  0.00000000000E+00 0.  1.
         24    2    1    2    0    0 -0.41320972262E+02  0.13845284712E+02  0.52297770402E+03  0.53056019913E+03  0.78034167762E+02 0.  0.
        -13    1    3    3    0    0 -0.48468304430E+02  0.37213414636E+02  0.29406506464E+03  0.30034692774E+03  0.00000000000E+00 0.  1.
         14    1    3    3    0    0  0.71473321672E+01 -0.23368129924E+02  0.22891263939E+03  0.23021327139E+03  0.00000000000E+00 0. -1.
          1    1    1    2  501    0  0.41320972262E+02 -0.13845284712E+02  0.81075637816E+02  0.92045498015E+02  0.00000000000E+00 0. -1.
<mgrwt>
<rscale>  1 0.89378107E+02</rscale>
<asrwt>0</asrwt>
<pdfrwt beam="1">  1       21 0.14271047E-02 0.89378107E+02</pdfrwt>
<pdfrwt beam="2">  1        2 0.94358356E-01 0.89378107E+02</pdfrwt>
<totfact> 0.12346879E+06</totfact>
</mgrwt>
</event>
<event>
 6    2  0.9453093E+000  0.8418734E+02  0.7546771E-02  0.1317572E+00
         21   -1    0    0  501  502  0.00000000000E+00  0.00000000000E+00  0.44344764216E+02  0.44344764216E+02  0.00000000000E+00 0.  1.
          2   -1    0    0  502    0 -0.00000000000E+00 -0.00000000000E+00 -0.79678895720E+02  0.79678895720E+02  0.00000000000E+00 0. -1.
         24    2    1    2    0    0 -0.12273522402E+02 -0.25236398798E+02 -0.43547921551E+02  0.94783592847E+02  0.79372494135E+02 0.  0.
        -11    1    3    3    0    0  0.21045569700E+02 -0.73352333507E-01  0.12814775488E+02  0.24640208103E+02  0.00000000000E+00 0.  1.
         12    1    3    3    0    0 -0.33319092102E+02 -0.25163046465E+02 -0.56362697039E+02  0.70143384744E+02  0.00000000000E+00 0. -1.
          1    1    1    2  501    0  0.12273522402E+02  0.25236398798E+02  0.82137900469E+01  0.29240067089E+02  0.00000000000E+00 0. -1.
<mgrwt>
<rscale>  1 0.84187339E+02</rscale>
<asrwt>0</asrwt>
<pdfrwt beam="1">  1       21 0.68222714E-02 0.84187339E+02</pdfrwt>
<pdfrwt beam="2">  1        2 0.12258292E-01 0.84187339E+02</pdfrwt>
<totfact> 0.88304894E+05</totfact>
</mgrwt>
</event>
<event>
 6    2  0.9453093E+000  0.8304644E+02  0.7546771E-02  0.1320622E+00
          2   -1    0    0  502    0 -0.00000000000E+00  0.00000000000E+00  0.91177756991E+03  0.91177756991E+03  0.00000000000E+00 0. -1.
         21   -1    0    0  501  502  0.00000000000E+00 -0.00000000000E+00 -0.91078960391E+01  0.91078960391E+01  0.00000000000E+00 0. -1.
         24    2    1    2    0    0  0.18397601134E+02 -0.23904450971E+02  0.87799703824E+03  0.88191581811E+03  0.77374521448E+02 0.  0.
        -13    1    3    3    0    0  0.15892203780E+02  0.21716987089E+02  0.14366181904E+03  0.14616055527E+03  0.00000000000E+00 0.  1.
         14    1    3    3    0    0  0.25053973537E+01 -0.45621438060E+02  0.73433521920E+03  0.73575526284E+03  0.00000000000E+00 0. -1.
          1    1    1    2  501    0 -0.18397601134E+02  0.23904450971E+02  0.24672635627E+02  0.38969647836E+02  0.00000000000E+00 0. -1.
<mgrwt>
<rscale>  1 0.83046439E+02</rscale>
<asrwt>0</asrwt>
<pdfrwt beam="1">  1       21 0.14012155E-02 0.83046439E+02</pdfrwt>
<pdfrwt beam="2">  1        2 0.14027340E+00 0.83046439E+02</pdfrwt>
<totfact> 0.78636127E+05</totfact>
</mgrwt>
</event>
<event>
 6    2  0.9453093E+000  0.9474675E+02  0.7546771E-02  0.1291747E+00
          2   -1    0    0  502    0 -0.00000000000E+00  0.00000000000E+00  0.13175385381E+04  0.13175385381E+04  0.00000000000E+00 0. -1.
         21   -1    0    0  501  502  0.00000000000E+00 -0.00000000000E+00 -0.40926125037E+01  0.40926125037E+01  0.00000000000E+00 0.  1.
         24    2    1    2    0    0 -0.20420041360E+02 -0.36104757937E+02  0.11077610780E+04  0.11118055369E+04  0.85184589666E+02 0.  0.
        -13    1    3    3    0    0  0.30333896347E+02 -0.31347493918E+02  0.47986749011E+03  0.48184605291E+03  0.00000000000E+00 0.  1.
         14    1    3    3    0    0 -0.50753937707E+02 -0.47572640189E+01  0.62789358793E+03  0.62995948403E+03  0.00000000000E+00 0. -1.
          1    1    1    2  501    0  0.20420041360E+02  0.36104757937E+02  0.20568484756E+03  0.20982561366E+03  0.00000000000E+00 0. -1.
<mgrwt>
<rscale>  1 0.94746746E+02</rscale>
<asrwt>0</asrwt>
<pdfrwt beam="1">  1       21 0.62963374E-03 0.94746746E+02</pdfrwt>
<pdfrwt beam="2">  1        2 0.20269790E+00 0.94746746E+02</pdfrwt>
<totfact> 0.16365662E+06</totfact>
</mgrwt>
</event>
<event>
 6    2  0.9453093E+000  0.8459554E+02  0.7546771E-02  0.1316494E+00
         21   -1    0    0  501  502  0.00000000000E+00  0.00000000000E+00  0.25698337088E+02  0.25698337088E+02  0.00000000000E+00 0. -1.
          2   -1    0    0  502    0 -0.00000000000E+00 -0.00000000000E+00 -0.11691986284E+03  0.11691986284E+03  0.00000000000E+00 0. -1.
         24    2    1    2    0    0 -0.21040796061E+02 -0.13020510650E+02 -0.74789397015E+02  0.11291527665E+03  0.80895964040E+02 0.  0.
        -11    1    3    3    0    0  0.28269626741E+02  0.10164328096E+02 -0.28716418773E+02  0.41558610045E+02  0.00000000000E+00 0.  1.
         12    1    3    3    0    0 -0.49310422802E+02 -0.23184838746E+02 -0.46072978242E+02  0.71356666603E+02  0.00000000000E+00 0. -1.
          1    1    1    2  501    0  0.21040796061E+02  0.13020510650E+02 -0.16432128732E+02  0.29702923276E+02  0.00000000000E+00 0. -1.
<mgrwt>
<rscale>  1 0.84595542E+02</rscale>
<asrwt>0</asrwt>
<pdfrwt beam="1">  1       21 0.39535903E-02 0.84595542E+02</pdfrwt>
<pdfrwt beam="2">  1        2 0.17987671E-01 0.84595542E+02</pdfrwt>
<totfact> 0.14071285E+06</totfact>
</mgrwt>
</event>
<event>
 6    2  0.9453093E+000  0.8610814E+02  0.7546771E-02  0.1312560E+00
         21   -1    0    0  501  502  0.00000000000E+00  0.00000000000E+00  0.19359292839E+02  0.19359292839E+02  0.00000000000E+00 0. -1.
          2   -1    0    0  502    0 -0.00000000000E+00 -0.00000000000E+00 -0.42752379446E+03  0.42752379446E+03  0.00000000000E+00 0. -1.
         24    2    1    2    0    0  0.28075900741E+02  0.16150949028E+02 -0.40532313165E+03  0.41436874061E+03  0.79784101124E+02 0.  0.
        -13    1    3    3    0    0 -0.20924004483E+02  0.12699209735E+02 -0.50033620893E+02  0.55699615000E+02  0.00000000000E+00 0.  1.
         14    1    3    3    0    0  0.48999905223E+02  0.34517392932E+01 -0.35528951075E+03  0.35866912561E+03  0.00000000000E+00 0. -1.
          1    1    1    2  501    0 -0.28075900741E+02 -0.16150949028E+02 -0.28413699704E+01  0.32514346683E+02  0.00000000000E+00 0. -1.
<mgrwt>
<rscale>  1 0.86108142E+02</rscale>
<asrwt>0</asrwt>
<pdfrwt beam="1">  1       21 0.29783531E-02 0.86108142E+02</pdfrwt>
<pdfrwt beam="2">  1        2 0.65772884E-01 0.86108142E+02</pdfrwt>
<totfact> 0.56064488E+05</totfact>
</mgrwt>
</event>
<event>
 6    2  0.9453093E+000  0.1371997E+03  0.7546771E-02  0.1217147E+00
          4   -1    0    0  502    0 -0.00000000000E+00  0.00000000000E+00  0.98706649133E+02  0.98706649133E+02  0.00000000000E+00 0. -1.
         21   -1    0    0  501  502  0.00000000000E+00 -0.00000000000E+00 -0.22767886660E+03  0.22767886660E+03  0.00000000000E+00 0. -1.
         24    2    1    2    0    0  0.76933456965E+02 -0.82547660704E+02  0.20900970756E+02  0.13878262227E+03  0.78044170677E+02 0.  0.
        -11    1    3    3    0    0  0.16557605351E+02 -0.26779743843E+01 -0.23815217711E+02  0.29128859168E+02  0.00000000000E+00 0.  1.
         12    1    3    3    0    0  0.60375851613E+02 -0.79869686320E+02  0.44716188468E+02  0.10965376310E+03  0.00000000000E+00 0. -1.
          3    1    1    2  501    0 -0.76933456965E+02  0.82547660704E+02 -0.14987318822E+03  0.18760289347E+03  0.00000000000E+00 0. -1.
<mgrwt>
<rscale>  1 0.13719973E+03</rscale>
<asrwt>0</asrwt>
<pdfrwt beam="1">  1       21 0.35027517E-01 0.13719973E+03</pdfrwt>
<pdfrwt beam="2">  1        4 0.15185639E-01 0.13719973E+03</pdfrwt>
<totfact> 0.11905809E+04</totfact>
</mgrwt>
</event>
<event>
 6    2  0.9453093E+000  0.8561244E+02  0.7546771E-02  0.1313839E+00
         21   -1    0    0  501  502  0.00000000000E+00  0.00000000000E+00  0.72513993289E+01  0.72513993289E+01  0.00000000000E+00 0. -1.
          2   -1    0    0  502    0 -0.00000000000E+00 -0.00000000000E+00 -0.70053785275E+03  0.70053785275E+03  0.00000000000E+00 0. -1.
         24    2    1    2    0    0 -0.31358447141E+02 -0.45369937661E+01 -0.64070190910E+03  0.64639649338E+03  0.79533350276E+02 0.  0.
        -11    1    3    3    0    0  0.16852382083E+02 -0.20736979220E+02 -0.10737416395E+03  0.11064915803E+03  0.00000000000E+00 0.  1.
         12    1    3    3    0    0 -0.48210829224E+02  0.16199985454E+02 -0.53332774515E+03  0.53574733535E+03  0.00000000000E+00 0. -1.
          1    1    1    2  501    0  0.31358447141E+02  0.45369937661E+01 -0.52584544318E+02  0.61392758699E+02  0.00000000000E+00 0. -1.
<mgrwt>
<rscale>  1 0.85612443E+02</rscale>
<asrwt>0</asrwt>
<pdfrwt beam="1">  1       21 0.11155997E-02 0.85612443E+02</pdfrwt>
<pdfrwt beam="2">  1        2 0.10777508E+00 0.85612443E+02</pdfrwt>
<totfact> 0.15556815E+06</totfact>
</mgrwt>
</event>
<event>
 6    2  0.9453093E+000  0.8449326E+02  0.7546771E-02  0.1316763E+00
          2   -1    0    0  502    0 -0.00000000000E+00  0.00000000000E+00  0.49154427697E+03  0.49154427697E+03  0.00000000000E+00 0. -1.
         21   -1    0    0  501  502  0.00000000000E+00 -0.00000000000E+00 -0.72438743217E+01  0.72438743217E+01  0.00000000000E+00 0.  1.
         24    2    1    2    0    0 -0.20616369606E+02 -0.12362657468E+02  0.44313079782E+03  0.45111419239E+03  0.81001485210E+02 0.  0.
        -13    1    3    3    0    0 -0.11560499139E+02  0.31411743919E+02  0.10948334688E+03  0.11448557132E+03  0.00000000000E+00 0.  1.
         14    1    3    3    0    0 -0.90558704670E+01 -0.43774401387E+02  0.33364745094E+03  0.33662862108E+03  0.00000000000E+00 0. -1.
          1    1    1    2  501    0  0.20616369606E+02  0.12362657468E+02  0.41169604833E+02  0.47673958903E+02  0.00000000000E+00 0. -1.
<mgrwt>
<rscale>  1 0.84493258E+02</rscale>
<asrwt>0</asrwt>
<pdfrwt beam="1">  1       21 0.11144426E-02 0.84493258E+02</pdfrwt>
<pdfrwt beam="2">  1        2 0.75622170E-01 0.84493258E+02</pdfrwt>
<totfact> 0.23081638E+06</totfact>
</mgrwt>
</event>
<event>
 6    2  0.9596201E+000  0.8525826E+02  0.7546771E-02  0.1314759E+00
         21   -1    0    0  501  502  0.00000000000E+00  0.00000000000E+00  0.30956525642E+02  0.30956525642E+02  0.00000000000E+00 0.  1.
         -3   -1    0    0    0  501 -0.00000000000E+00 -0.00000000000E+00 -0.19651816595E+03  0.19651816595E+03  0.00000000000E+00 0.  1.
         24    2    1    2    0    0 -0.28834753162E+02  0.10056164630E+02 -0.17570368747E+03  0.19529658479E+03  0.79601512556E+02 0.  0.
        -11    1    3    3    0    0 -0.37975000556E+02 -0.41887719659E+01 -0.17415981856E+03  0.17830111856E+03  0.00000000000E+00 0.  1.
         12    1    3    3    0    0  0.91402473947E+01  0.14244936596E+02 -0.15438689086E+01  0.16995466226E+02  0.00000000000E+00 0. -1.
         -4    1    1    2    0  502  0.28834753162E+02 -0.10056164630E+02  0.10142047163E+02  0.32178106806E+02  0.00000000000E+00 0.  1.
<mgrwt>
<rscale>  1 0.85258256E+02</rscale>
<asrwt>0</asrwt>
<pdfrwt beam="1">  1       21 0.47625424E-02 0.85258256E+02</pdfrwt>
<pdfrwt beam="2">  1       -3 0.30233564E-01 0.85258256E+02</pdfrwt>
<totfact> 0.13763670E+05</totfact>
</mgrwt>
</event>
<event>
 6    2  0.1258015E+001  0.8569895E+02  0.7546771E-02  0.1313615E+00
         -1   -1    0    0    0  501 -0.00000000000E+00  0.00000000000E+00  0.15256534892E+03  0.15256534892E+03  0.00000000000E+00 0.  1.
         21   -1    0    0  501  502  0.00000000000E+00 -0.00000000000E+00 -0.19860710498E+02  0.19860710498E+02  0.00000000000E+00 0. -1.
         24    2    1    2    0    0 -0.10859021072E+02 -0.17294711925E+02  0.85796858026E+02  0.12126586727E+03  0.83230308889E+02 0.  0.
        -13    1    3    3    0    0  0.71354025509E+01 -0.17678473095E+02  0.97794327251E+02  0.99635198716E+02  0.00000000000E+00 0.  1.
         14    1    3    3    0    0 -0.17994423623E+02  0.38376117027E+00 -0.11997469226E+02  0.21630668551E+02  0.00000000000E+00 0. -1.
         -2    1    1    2    0  502  0.10859021072E+02  0.17294711925E+02  0.46907780396E+02  0.51160192151E+02  0.00000000000E+00 0.  1.
<mgrwt>
<rscale>  1 0.85698948E+02</rscale>
<asrwt>0</asrwt>
<pdfrwt beam="1">  1       21 0.30554940E-02 0.85698948E+02</pdfrwt>
<pdfrwt beam="2">  1       -1 0.23471591E-01 0.85698948E+02</pdfrwt>
<totfact> 0.79464965E+05</totfact>
</mgrwt>
</event>
<event>
 6    2  0.9453093E+000  0.8666115E+02  0.7546771E-02  0.1311145E+00
          2   -1    0    0  502    0 -0.00000000000E+00  0.00000000000E+00  0.12520988042E+03  0.12520988042E+03  0.00000000000E+00 0. -1.
         21   -1    0    0  501  502  0.00000000000E+00 -0.00000000000E+00 -0.52016506159E+02  0.52016506159E+02  0.00000000000E+00 0.  1.
         24    2    1    2    0    0 -0.40351763185E+01 -0.37647694255E+02  0.98872940528E+02  0.13147628653E+03  0.77952062328E+02 0.  0.
        -13    1    3    3    0    0 -0.39950164811E+02 -0.12242378556E+02  0.38821433933E+02  0.57035035143E+02  0.00000000000E+00 0.  1.
         14    1    3    3    0    0  0.35914988492E+02 -0.25405315699E+02  0.60051506596E+02  0.74441251390E+02  0.00000000000E+00 0. -1.
          1    1    1    2  501    0  0.40351763185E+01  0.37647694255E+02 -0.25679566267E+02  0.45750100047E+02  0.00000000000E+00 0. -1.
<mgrwt>
<rscale>  1 0.86661154E+02</rscale>
<asrwt>0</asrwt>
<pdfrwt beam="1">  1       21 0.80025394E-02 0.86661154E+02</pdfrwt>
<pdfrwt beam="2">  1        2 0.19263058E-01 0.86661154E+02</pdfrwt>
<totfact> 0.40153037E+05</totfact>
</mgrwt>
</event>
<event>
 6    2  0.9453093E+000  0.8794075E+02  0.7546771E-02  0.1307916E+00
         21   -1    0    0  501  502  0.00000000000E+00  0.00000000000E+00  0.94448425803E+01  0.94448425803E+01  0.00000000000E+00 0.  1.
          4   -1    0    0  502    0 -0.00000000000E+00 -0.00000000000E+00 -0.41175445310E+03  0.41175445310E+03  0.00000000000E+00 0. -1.
         24    2    1    2    0    0  0.23168333661E+02 -0.28188201479E+02 -0.29712137356E+03  0.30986236747E+03  0.80013934815E+02 0.  0.
        -11    1    3    3    0    0  0.34611673904E+02  0.11307982013E+02 -0.68538989230E+02  0.77610769048E+02  0.00000000000E+00 0.  1.
         12    1    3    3    0    0 -0.11443340243E+02 -0.39496183492E+02 -0.22858238433E+03  0.23225159843E+03  0.00000000000E+00 0. -1.
          3    1    1    2  501    0 -0.23168333661E+02  0.28188201479E+02 -0.10518823697E+03  0.11133692821E+03  0.00000000000E+00 0. -1.
<mgrwt>
<rscale>  1 0.87940754E+02</rscale>
<asrwt>0</asrwt>
<pdfrwt beam="1">  1       21 0.14530526E-02 0.87940754E+02</pdfrwt>
<pdfrwt beam="2">  1        4 0.63346843E-01 0.87940754E+02</pdfrwt>
<totfact> 0.18075033E+05</totfact>
</mgrwt>
</event>
<event>
 6    2  0.9453093E+000  0.8764095E+02  0.7546771E-02  0.1308667E+00
          2   -1    0    0  502    0 -0.00000000000E+00  0.00000000000E+00  0.10289443523E+04  0.10289443523E+04  0.00000000000E+00 0. -1.
         21   -1    0    0  501  502  0.00000000000E+00 -0.00000000000E+00 -0.34617376250E+01  0.34617376250E+01  0.00000000000E+00 0. -1.
         24    2    1    2    0    0 -0.21871792354E+02 -0.55034664134E+01  0.93717138269E+03  0.94126039810E+03  0.84689273570E+02 0.  0.
        -11    1    3    3    0    0  0.19327665839E+02 -0.14041817166E+01  0.58743351252E+02  0.61857188017E+02  0.00000000000E+00 0.  1.
         12    1    3    3    0    0 -0.41199458193E+02 -0.40992846968E+01  0.87842803144E+03  0.87940321008E+03  0.00000000000E+00 0. -1.
          1    1    1    2  501    0  0.21871792354E+02  0.55034664134E+01  0.88311231991E+02  0.91145691830E+02  0.00000000000E+00 0. -1.
<mgrwt>
<rscale>  1 0.87640952E+02</rscale>
<asrwt>0</asrwt>
<pdfrwt beam="1">  1       21 0.53257584E-03 0.87640952E+02</pdfrwt>
<pdfrwt beam="2">  1        2 0.15829889E+00 0.87640952E+02</pdfrwt>
<totfact> 0.30285192E+06</totfact>
</mgrwt>
</event>
<event>
 6    2  0.9453093E+000  0.9094473E+02  0.7546771E-02  0.1300580E+00
         21   -1    0    0  501  502  0.00000000000E+00  0.00000000000E+00  0.35106233240E+03  0.35106233240E+03  0.00000000000E+00 0. -1.
          4   -1    0    0  502    0 -0.00000000000E+00 -0.00000000000E+00 -0.26278581538E+02  0.26278581538E+02  0.00000000000E+00 0. -1.
         24    2    1    2    0    0 -0.40266294454E+02 -0.15288672004E+02  0.59718480460E+02  0.10879908194E+03  0.80098847442E+02 0.  0.
        -13    1    3    3    0    0  0.23723719688E+02  0.41055572009E+01  0.15366698680E+02  0.28562316154E+02  0.00000000000E+00 0.  1.
         14    1    3    3    0    0 -0.63990014143E+02 -0.19394229205E+02  0.44351781780E+02  0.80236765784E+02  0.00000000000E+00 0. -1.
          3    1    1    2  501    0  0.40266294454E+02  0.15288672004E+02  0.26506527040E+03  0.26854183200E+03  0.00000000000E+00 0. -1.
<mgrwt>
<rscale>  1 0.90944727E+02</rscale>
<asrwt>0</asrwt>
<pdfrwt beam="1">  1       21 0.54009586E-01 0.90944727E+02</pdfrwt>
<pdfrwt beam="2">  1        4 0.40428589E-02 0.90944727E+02</pdfrwt>
<totfact> 0.42468946E+04</totfact>
</mgrwt>
</event>
<event>
 6    2  0.9453093E+000  0.8305291E+02  0.7546771E-02  0.1320604E+00
         -3   -1    0    0    0  501 -0.00000000000E+00  0.00000000000E+00  0.11687704655E+04  0.11687704655E+04  0.00000000000E+00 0.  1.
         21   -1    0    0  501  502  0.00000000000E+00 -0.00000000000E+00 -0.23997902825E+01  0.23997902825E+01  0.00000000000E+00 0. -1.
         24    2    1    2    0    0  0.11819027175E+02 -0.19015164943E+02  0.87008540626E+03  0.87404027328E+03  0.79978242204E+02 0.  0.
        -11    1    3    3    0    0 -0.34268618813E+02 -0.45891824594E+01  0.39215400260E+03  0.39367519681E+03  0.00000000000E+00 0.  1.
         12    1    3    3    0    0  0.46087645988E+02 -0.14425982483E+02  0.47793140367E+03  0.48036507647E+03  0.00000000000E+00 0. -1.
         -4    1    1    2    0  502 -0.11819027175E+02  0.19015164943E+02  0.29628526893E+03  0.29712998248E+03  0.00000000000E+00 0.  1.
<mgrwt>
<rscale>  1 0.83052906E+02</rscale>
<asrwt>0</asrwt>
<pdfrwt beam="1">  1       21 0.36919944E-03 0.83052906E+02</pdfrwt>
<pdfrwt beam="2">  1       -3 0.17981039E+00 0.83052906E+02</pdfrwt>
<totfact> 0.17035131E+05</totfact>
</mgrwt>
</event>
<event>
 6    2  0.9453093E+000  0.9421631E+02  0.7546771E-02  0.1292951E+00
         21   -1    0    0  501  502  0.00000000000E+00  0.00000000000E+00  0.10763679141E+02  0.10763679141E+02  0.00000000000E+00 0.  1.
         -3   -1    0    0    0  501 -0.00000000000E+00 -0.00000000000E+00 -0.48360981911E+03  0.48360981911E+03  0.00000000000E+00 0.  1.
         24    2    1    2    0    0  0.42537537028E+02  0.23823101526E+02 -0.27848733006E+03  0.29399303710E+03  0.80620906937E+02 0.  0.
        -13    1    3    3    0    0  0.60170621509E+02  0.11456094301E+02 -0.25444911793E+03  0.26171759475E+03  0.00000000000E+00 0.  1.
         14    1    3    3    0    0 -0.17633084481E+02  0.12367007224E+02 -0.24038212130E+02  0.32275442342E+02  0.00000000000E+00 0. -1.
         -4    1    1    2    0  502 -0.42537537028E+02 -0.23823101526E+02 -0.19435880991E+03  0.20038046116E+03  0.00000000000E+00 0.  1.
<mgrwt>
<rscale>  1 0.94216309E+02</rscale>
<asrwt>0</asrwt>
<pdfrwt beam="1">  1       21 0.16559508E-02 0.94216309E+02</pdfrwt>
<pdfrwt beam="2">  1       -3 0.74401502E-01 0.94216309E+02</pdfrwt>
<totfact> 0.13196457E+05</totfact>
</mgrwt>
</event>
<event>
 6    2  0.9453093E+000  0.8348464E+02  0.7546771E-02  0.1319444E+00
          2   -1    0    0  502    0 -0.00000000000E+00  0.00000000000E+00  0.27022880837E+04  0.27022880837E+04  0.00000000000E+00 0. -1.
         21   -1    0    0  501  502  0.00000000000E+00 -0.00000000000E+00 -0.30547003680E+01  0.30547003680E+01  0.00000000000E+00 0. -1.
         24    2    1    2    0    0  0.18038887842E+01 -0.22777137253E+02  0.26471734736E+04  0.26484895854E+04  0.80297152456E+02 0.  0.
        -11    1    3    3    0    0 -0.11952045698E+02  0.23284797648E+02  0.43048656914E+03  0.43128148512E+03  0.00000000000E+00 0.  1.
         12    1    3    3    0    0  0.13755934482E+02 -0.46061934901E+02  0.22166869045E+04  0.22172081003E+04  0.00000000000E+00 0. -1.
          1    1    1    2  501    0 -0.18038887842E+01  0.22777137253E+02  0.52059909704E+02  0.56853198631E+02  0.00000000000E+00 0. -1.
<mgrwt>
<rscale>  1 0.83484637E+02</rscale>
<asrwt>0</asrwt>
<pdfrwt beam="1">  1       21 0.46995606E-03 0.83484637E+02</pdfrwt>
<pdfrwt beam="2">  1        2 0.41573472E+00 0.83484637E+02</pdfrwt>
<totfact> 0.49800535E+05</totfact>
</mgrwt>
</event>
<event>
 6    2  0.9453093E+000  0.8520312E+02  0.7546771E-02  0.1314902E+00
         21   -1    0    0  501  502  0.00000000000E+00  0.00000000000E+00  0.95179929472E+02  0.95179929472E+02  0.00000000000E+00 0.  1.
          4   -1    0    0  502    0 -0.00000000000E+00 -0.00000000000E+00 -0.38076099228E+02  0.38076099228E+02  0.00000000000E+00 0. -1.
         24    2    1    2    0    0  0.26767154048E+02  0.79013409268E+01  0.21236846158E+02  0.87809881759E+02  0.80502546392E+02 0.  0.
        -13    1    3    3    0    0 -0.77403639188E+01  0.27597923324E+02  0.35470760363E+02  0.45604094620E+02  0.00000000000E+00 0.  1.
         14    1    3    3    0    0  0.34507517967E+02 -0.19696582397E+02 -0.14233914206E+02  0.42205787139E+02  0.00000000000E+00 0. -1.
          3    1    1    2  501    0 -0.26767154048E+02 -0.79013409268E+01  0.35866984086E+02  0.45446146940E+02  0.00000000000E+00 0. -1.
<mgrwt>
<rscale>  1 0.85203120E+02</rscale>
<asrwt>0</asrwt>
<pdfrwt beam="1">  1       21 0.14643066E-01 0.85203120E+02</pdfrwt>
<pdfrwt beam="2">  1        4 0.58578614E-02 0.85203120E+02</pdfrwt>
<totfact> 0.27949251E+05</totfact>
</mgrwt>
</event>
<event>
 6    2  0.1165570E+001  0.8846418E+02  0.7546771E-02  0.1306614E+00
         21   -1    0    0  501  502  0.00000000000E+00  0.00000000000E+00  0.88379400995E+01  0.88379400995E+01  0.00000000000E+00 0. -1.
         -3   -1    0    0    0  501 -0.00000000000E+00 -0.00000000000E+00 -0.45758774086E+03  0.45758774086E+03  0.00000000000E+00 0.  1.
         24    2    1    2    0    0 -0.36534760268E+02 -0.55282578605E+01 -0.27851449164E+03  0.29222633878E+03  0.80377613072E+02 0.  0.
        -11    1    3    3    0    0 -0.79602829281E+01  0.20848124704E+02 -0.22484333385E+03  0.22594808073E+03  0.00000000000E+00 0.  1.
         12    1    3    3    0    0 -0.28574477340E+02 -0.26376382565E+02 -0.53671157788E+02  0.66278258055E+02  0.00000000000E+00 0. -1.
         -4    1    1    2    0  502  0.36534760268E+02  0.55282578605E+01 -0.17023530912E+03  0.17419934217E+03  0.00000000000E+00 0.  1.
<mgrwt>
<rscale>  1 0.88464179E+02</rscale>
<asrwt>0</asrwt>
<pdfrwt beam="1">  1       21 0.13596831E-02 0.88464179E+02</pdfrwt>
<pdfrwt beam="2">  1       -3 0.70398112E-01 0.88464179E+02</pdfrwt>
<totfact> 0.20073425E+05</totfact>
</mgrwt>
</event>
<event>
 6    2  0.9453093E+000  0.8405552E+02  0.7546771E-02  0.1317921E+00
         21   -1    0    0  501  502  0.00000000000E+00  0.00000000000E+00  0.34117465730E+02  0.34117465730E+02  0.00000000000E+00 0. -1.
          2   -1    0    0  502    0 -0.00000000000E+00 -0.00000000000E+00 -0.12871069631E+03  0.12871069631E+03  0.00000000000E+00 0. -1.
         24    2    1    2    0    0 -0.95756692027E+01 -0.23714287519E+02 -0.10561388031E+03  0.13498008143E+03  0.80070405233E+02 0.  0.
        -13    1    3    3    0    0 -0.89822156605E+01  0.23485340225E+02 -0.77247566910E+01  0.26304244326E+02  0.00000000000E+00 0.  1.
         14    1    3    3    0    0 -0.59345354212E+00 -0.47199627744E+02 -0.97889123620E+02  0.10867583710E+03  0.00000000000E+00 0. -1.
          1    1    1    2  501    0  0.95756692027E+01  0.23714287519E+02  0.11020649734E+02  0.27848080612E+02  0.00000000000E+00 0. -1.
<mgrwt>
<rscale>  1 0.84055521E+02</rscale>
<asrwt>0</asrwt>
<pdfrwt beam="1">  1       21 0.52488410E-02 0.84055521E+02</pdfrwt>
<pdfrwt beam="2">  1        2 0.19801645E-01 0.84055521E+02</pdfrwt>
<totfact> 0.79009161E+05</totfact>
</mgrwt>
</event>
<event>
 6    2  0.9453093E+000  0.1035727E+03  0.7546771E-02  0.1272957E+00
         21   -1    0    0  501  502  0.00000000000E+00  0.00000000000E+00  0.43791928746E+02  0.43791928746E+02  0.00000000000E+00 0.  1.
         -1   -1    0    0    0  501 -0.00000000000E+00 -0.00000000000E+00 -0.26933204906E+03  0.26933204906E+03  0.00000000000E+00 0.  1.
         24    2    1    2    0    0 -0.49220432534E+02 -0.40259054644E+02 -0.22700751393E+03  0.24951898033E+03  0.81754924649E+02 0.  0.
        -13    1    3    3    0    0 -0.62449096935E+01 -0.53508836237E+02 -0.15994236651E+03  0.16877130993E+03  0.00000000000E+00 0.  1.
         14    1    3    3    0    0 -0.42975522840E+02  0.13249781592E+02 -0.67065147421E+02  0.80747670395E+02  0.00000000000E+00 0. -1.
         -2    1    1    2    0  502  0.49220432534E+02  0.40259054644E+02  0.14673936183E+01  0.63604997474E+02  0.00000000000E+00 0.  1.
<mgrwt>
<rscale>  1 0.10357273E+03</rscale>
<asrwt>0</asrwt>
<pdfrwt beam="1">  1       21 0.67372198E-02 0.10357273E+03</pdfrwt>
<pdfrwt beam="2">  1       -1 0.41435700E-01 0.10357273E+03</pdfrwt>
<totfact> 0.83986228E+04</totfact>
</mgrwt>
</event>
<event>
 6    2  0.9453093E+000  0.8711819E+02  0.7546771E-02  0.1309984E+00
         21   -1    0    0  501  502  0.00000000000E+00  0.00000000000E+00  0.13639698657E+01  0.13639698657E+01  0.00000000000E+00 0.  1.
          2   -1    0    0  502    0 -0.00000000000E+00 -0.00000000000E+00 -0.24438397745E+04  0.24438397745E+04  0.00000000000E+00 0. -1.
         24    2    1    2    0    0 -0.36550002219E+01 -0.27852752335E+02 -0.19146082296E+04  0.19165892236E+04  0.82464805558E+02 0.  0.
        -11    1    3    3    0    0  0.14489831089E+02 -0.32643009419E+02 -0.34026947412E+03  0.34213862145E+03  0.00000000000E+00 0.  1.
         12    1    3    3    0    0 -0.18144831311E+02  0.47902570840E+01 -0.15743387555E+04  0.15744506021E+04  0.00000000000E+00 0. -1.
          1    1    1    2  501    0  0.36550002219E+01  0.27852752335E+02 -0.52786757497E+03  0.52861452075E+03  0.00000000000E+00 0. -1.
<mgrwt>
<rscale>  1 0.87118190E+02</rscale>
<asrwt>0</asrwt>
<pdfrwt beam="1">  1       21 0.20984383E-03 0.87118190E+02</pdfrwt>
<pdfrwt beam="2">  1        2 0.37597121E+00 0.87118190E+02</pdfrwt>
<totfact> 0.23132984E+06</totfact>
</mgrwt>
</event>
<event>
 6    2  0.9453093E+000  0.9729394E+02  0.7546771E-02  0.1286092E+00
         21   -1    0    0  501  502  0.00000000000E+00  0.00000000000E+00  0.85753734733E+01  0.85753734733E+01  0.00000000000E+00 0.  1.
         -1   -1    0    0    0  501 -0.00000000000E+00 -0.00000000000E+00 -0.66671656143E+03  0.66671656143E+03  0.00000000000E+00 0.  1.
         24    2    1    2    0    0 -0.33982575326E+02  0.41879094886E+02 -0.42391765923E+03  0.43493941167E+03  0.80977997041E+02 0.  0.
        -11    1    3    3    0    0 -0.47808829913E+02  0.21763477126E+02 -0.38783449079E+03  0.39137568320E+03  0.00000000000E+00 0.  1.
         12    1    3    3    0    0  0.13826254588E+02  0.20115617759E+02 -0.36083168443E+02  0.43563728475E+02  0.00000000000E+00 0. -1.
         -2    1    1    2    0  502  0.33982575326E+02 -0.41879094886E+02 -0.23422352872E+03  0.24035252323E+03  0.00000000000E+00 0.  1.
<mgrwt>
<rscale>  1 0.97293936E+02</rscale>
<asrwt>0</asrwt>
<pdfrwt beam="1">  1       21 0.13192877E-02 0.97293936E+02</pdfrwt>
<pdfrwt beam="2">  1       -1 0.10257182E+00 0.97293936E+02</pdfrwt>
<totfact> 0.20645345E+05</totfact>
</mgrwt>
</event>
<event>
 6    2  0.9453093E+000  0.9427164E+02  0.7546771E-02  0.1292825E+00
         21   -1    0    0  501  502  0.00000000000E+00  0.00000000000E+00  0.47752246272E+01  0.47752246272E+01  0.00000000000E+00 0. -1.
          2   -1    0    0  502    0 -0.00000000000E+00 -0.00000000000E+00 -0.12756379161E+04  0.12756379161E+04  0.00000000000E+00 0. -1.
         24    2    1    2    0    0  0.48738517938E+02 -0.15445734914E+02 -0.10228648582E+04  0.10271999120E+04  0.79203076738E+02 0.  0.
        -13    1    3    3    0    0  0.49827707595E+01  0.30283663885E+02 -0.29735690425E+03  0.29893654311E+03  0.00000000000E+00 0.  1.
         14    1    3    3    0    0  0.43755747179E+02 -0.45729398798E+02 -0.72550795392E+03  0.72826336894E+03  0.00000000000E+00 0. -1.
          1    1    1    2  501    0 -0.48738517938E+02  0.15445734914E+02 -0.24799783332E+03  0.25321322870E+03  0.00000000000E+00 0. -1.
<mgrwt>
<rscale>  1 0.94271635E+02</rscale>
<asrwt>0</asrwt>
<pdfrwt beam="1">  1       21 0.73464969E-03 0.94271635E+02</pdfrwt>
<pdfrwt beam="2">  1        2 0.19625206E+00 0.94271635E+02</pdfrwt>
<totfact> 0.13562997E+06</totfact>
</mgrwt>
</event>
<event>
 6    2  0.9453093E+000  0.1182758E+03  0.7546771E-02  0.1245969E+00
          4   -1    0    0  502    0 -0.00000000000E+00  0.00000000000E+00  0.92111081454E+02  0.92111081454E+02  0.00000000000E+00 0. -1.
         21   -1    0    0  501  502  0.00000000000E+00 -0.00000000000E+00 -0.26975790231E+03  0.26975790231E+03  0.00000000000E+00 0.  1.
         24    2    1    2    0    0 -0.22294382976E+01  0.88418007242E+02  0.41660322053E+02  0.12539839927E+03  0.78526821574E+02 0.  0.
        -11    1    3    3    0    0  0.15091642164E+02  0.39086023569E+02 -0.18406885593E+02  0.45763395185E+02  0.00000000000E+00 0.  1.
         12    1    3    3    0    0 -0.17321080461E+02  0.49331983672E+02  0.60067207646E+02  0.79635004086E+02  0.00000000000E+00 0. -1.
          3    1    1    2  501    0  0.22294382976E+01 -0.88418007242E+02 -0.21930714290E+03  0.23647058449E+03  0.00000000000E+00 0. -1.
<mgrwt>
<rscale>  1 0.11827585E+03</rscale>
<asrwt>0</asrwt>
<pdfrwt beam="1">  1       21 0.41501216E-01 0.11827585E+03</pdfrwt>
<pdfrwt beam="2">  1        4 0.14170936E-01 0.11827585E+03</pdfrwt>
<totfact> 0.94751550E+03</totfact>
</mgrwt>
</event>
<event>
 6    2  0.9453093E+000  0.8805570E+02  0.7546771E-02  0.1307630E+00
         21   -1    0    0  501  502  0.00000000000E+00  0.00000000000E+00  0.29089942534E+01  0.29089942534E+01  0.00000000000E+00 0. -1.
          4   -1    0    0  502    0 -0.00000000000E+00 -0.00000000000E+00 -0.15054905405E+04  0.15054905405E+04  0.00000000000E+00 0. -1.
         24    2    1    2    0    0  0.31970979340E+02 -0.17199314371E+02 -0.12649173444E+04  0.12679785856E+04  0.80223721779E+02 0.  0.
        -11    1    3    3    0    0 -0.98495474438E+01 -0.56323224441E+01 -0.26821884836E+02  0.29123017480E+02  0.00000000000E+00 0.  1.
         12    1    3    3    0    0  0.41820526783E+02 -0.11566991927E+02 -0.12380954595E+04  0.12388555681E+04  0.00000000000E+00 0. -1.
          3    1    1    2  501    0 -0.31970979340E+02  0.17199314371E+02 -0.23766420190E+03  0.24042094917E+03  0.00000000000E+00 0. -1.
<mgrwt>
<rscale>  1 0.88055695E+02</rscale>
<asrwt>0</asrwt>
<pdfrwt beam="1">  1       21 0.44753926E-03 0.88055695E+02</pdfrwt>
<pdfrwt beam="2">  1        4 0.23161306E+00 0.88055695E+02</pdfrwt>
<totfact> 0.47794366E+04</totfact>
</mgrwt>
</event>
<event>
 6    2  0.9683244E+000  0.8544040E+02  0.7546771E-02  0.1314285E+00
         21   -1    0    0  501  502  0.00000000000E+00  0.00000000000E+00  0.53101709871E+01  0.53101709871E+01  0.00000000000E+00 0. -1.
         -3   -1    0    0    0  501 -0.00000000000E+00 -0.00000000000E+00 -0.61899583911E+03  0.61899583911E+03  0.00000000000E+00 0.  1.
         24    2    1    2    0    0 -0.24731907875E+02 -0.14822273038E+02 -0.43542512838E+03  0.44372863867E+03  0.80428199647E+02 0.  0.
        -11    1    3    3    0    0 -0.28304689376E+02 -0.22155864195E+02 -0.43395317028E+03  0.43543930892E+03  0.00000000000E+00 0.  1.
         12    1    3    3    0    0  0.35727815014E+01  0.73335911563E+01 -0.14719581025E+01  0.82893297413E+01  0.00000000000E+00 0. -1.
         -4    1    1    2    0  502  0.24731907875E+02  0.14822273038E+02 -0.17826053974E+03  0.18057737143E+03  0.00000000000E+00 0.  1.
<mgrwt>
<rscale>  1 0.85440402E+02</rscale>
<asrwt>0</asrwt>
<pdfrwt beam="1">  1       21 0.81694958E-03 0.85440402E+02</pdfrwt>
<pdfrwt beam="2">  1       -3 0.95230106E-01 0.85440402E+02</pdfrwt>
<totfact> 0.23065424E+05</totfact>
</mgrwt>
</event>
<event>
 6    2  0.9453093E+000  0.9600455E+02  0.7546771E-02  0.1288929E+00
          2   -1    0    0  502    0 -0.00000000000E+00  0.00000000000E+00  0.19489290524E+04  0.19489290524E+04  0.00000000000E+00 0. -1.
         21   -1    0    0  501  502  0.00000000000E+00 -0.00000000000E+00 -0.10496751556E+02  0.10496751556E+02  0.00000000000E+00 0. -1.
         24    2    1    2    0    0 -0.38584768269E+02  0.35554524269E+02  0.18734384192E+04  0.18758966881E+04  0.80398790315E+02 0.  0.
        -11    1    3    3    0    0  0.10602839150E+02  0.24084580331E+02  0.20346667888E+03  0.20516134290E+03  0.00000000000E+00 0.  1.
         12    1    3    3    0    0 -0.49187607419E+02  0.11469943938E+02  0.16699717403E+04  0.16707353452E+04  0.00000000000E+00 0. -1.
          1    1    1    2  501    0  0.38584768269E+02 -0.35554524269E+02  0.64993881635E+02  0.83529115812E+02  0.00000000000E+00 0. -1.
<mgrwt>
<rscale>  1 0.96004552E+02</rscale>
<asrwt>0</asrwt>
<pdfrwt beam="1">  1       21 0.16148864E-02 0.96004552E+02</pdfrwt>
<pdfrwt beam="2">  1        2 0.29983495E+00 0.96004552E+02</pdfrwt>
<totfact> 0.17876359E+05</totfact>
</mgrwt>
</event>
<event>
 6    2  0.9453093E+000  0.9410973E+02  0.7546771E-02  0.1293194E+00
          2   -1    0    0  502    0 -0.00000000000E+00  0.00000000000E+00  0.11995105306E+04  0.11995105306E+04  0.00000000000E+00 0. -1.
         21   -1    0    0  501  502  0.00000000000E+00 -0.00000000000E+00 -0.41861325435E+01  0.41861325435E+01  0.00000000000E+00 0. -1.
         24    2    1    2    0    0  0.20191652729E+02  0.11576798958E+01  0.11525071359E+04  0.11563430888E+04  0.91910813875E+02 0.  0.
        -13    1    3    3    0    0  0.41449462362E+02  0.34604126029E+02  0.72164039938E+03  0.72365763278E+03  0.00000000000E+00 0.  1.
         14    1    3    3    0    0 -0.21257809634E+02 -0.33446446133E+02  0.43086673650E+03  0.43268545602E+03  0.00000000000E+00 0. -1.
          1    1    1    2  501    0 -0.20191652729E+02 -0.11576798958E+01  0.42817262197E+02  0.47353574360E+02  0.00000000000E+00 0. -1.
<mgrwt>
<rscale>  1 0.94109727E+02</rscale>
<asrwt>0</asrwt>
<pdfrwt beam="1">  1       21 0.64402135E-03 0.94109727E+02</pdfrwt>
<pdfrwt beam="2">  1        2 0.18453981E+00 0.94109727E+02</pdfrwt>
<totfact> 0.18270689E+06</totfact>
</mgrwt>
</event>
<event>
 6    2  0.9453093E+000  0.9254283E+02  0.7546771E-02  0.1296808E+00
         -1   -1    0    0    0  501 -0.00000000000E+00  0.00000000000E+00  0.97960849945E+03  0.97960849945E+03  0.00000000000E+00 0.  1.
         21   -1    0    0  501  502  0.00000000000E+00 -0.00000000000E+00 -0.77648789063E+01  0.77648789063E+01  0.00000000000E+00 0.  1.
         24    2    1    2    0    0  0.16294344731E+02  0.46756673812E+02  0.86117338136E+03  0.86613149591E+03  0.78182371684E+02 0.  0.
        -11    1    3    3    0    0 -0.24748112423E+02  0.19665150704E+02  0.56662424801E+03  0.56750526487E+03  0.00000000000E+00 0.  1.
         12    1    3    3    0    0  0.41042457154E+02  0.27091523109E+02  0.29454913335E+03  0.29862623105E+03  0.00000000000E+00 0. -1.
         -2    1    1    2    0  502 -0.16294344731E+02 -0.46756673812E+02  0.11067023919E+03  0.12124188244E+03  0.00000000000E+00 0.  1.
<mgrwt>
<rscale>  1 0.92542830E+02</rscale>
<asrwt>0</asrwt>
<pdfrwt beam="1">  1       21 0.11945975E-02 0.92542830E+02</pdfrwt>
<pdfrwt beam="2">  1       -1 0.15070890E+00 0.92542830E+02</pdfrwt>
<totfact> 0.96652174E+04</totfact>
</mgrwt>
</event>
<event>
 6    2  0.9453093E+000  0.8745799E+02  0.7546771E-02  0.1309127E+00
          2   -1    0    0  502    0 -0.00000000000E+00  0.00000000000E+00  0.56181194468E+01  0.56181194468E+01  0.00000000000E+00 0. -1.
         21   -1    0    0  501  502  0.00000000000E+00 -0.00000000000E+00 -0.66182163870E+03  0.66182163870E+03  0.00000000000E+00 0.  1.
         24    2    1    2    0    0 -0.19775932448E+02 -0.28264556055E+02 -0.47069989017E+03  0.47875597762E+03  0.80367449019E+02 0.  0.
        -11    1    3    3    0    0 -0.30634873103E+02  0.19153320057E+02 -0.26093551749E+03  0.26342492176E+03  0.00000000000E+00 0.  1.
         12    1    3    3    0    0  0.10858940655E+02 -0.47417876112E+02 -0.20976437268E+03  0.21533105585E+03  0.00000000000E+00 0. -1.
          1    1    1    2  501    0  0.19775932448E+02  0.28264556055E+02 -0.18550362908E+03  0.18868378053E+03  0.00000000000E+00 0. -1.
<mgrwt>
<rscale>  1 0.87457987E+02</rscale>
<asrwt>0</asrwt>
<pdfrwt beam="1">  1       21 0.10181867E+00 0.87457987E+02</pdfrwt>
<pdfrwt beam="2">  1        2 0.86432642E-03 0.87457987E+02</pdfrwt>
<totfact> 0.15763957E+05</totfact>
</mgrwt>
</event>
<event>
 6    2  0.9453093E+000  0.7938285E+02  0.7546771E-02  0.1330812E+00
         21   -1    0    0  501  502  0.00000000000E+00  0.00000000000E+00  0.42658994990E+03  0.42658994990E+03  0.00000000000E+00 0.  1.
         -1   -1    0    0    0  501 -0.00000000000E+00 -0.00000000000E+00 -0.10472949114E+02  0.10472949114E+02  0.00000000000E+00 0.  1.
         24    2    1    2    0    0 -0.17134399030E+02  0.17423043806E+02  0.14897157859E+03  0.16880215517E+03  0.75528049613E+02 0.  0.
        -13    1    3    3    0    0 -0.39970598051E+02  0.14368563653E+02  0.43325225000E+02  0.60672724113E+02  0.00000000000E+00 0.  1.
         14    1    3    3    0    0  0.22836199021E+02  0.30544801527E+01  0.10564635359E+03  0.10812943106E+03  0.00000000000E+00 0. -1.
         -2    1    1    2    0  502  0.17134399030E+02 -0.17423043806E+02  0.26714542219E+03  0.26826074383E+03  0.00000000000E+00 0.  1.
<mgrwt>
<rscale>  1 0.79382847E+02</rscale>
<asrwt>0</asrwt>
<pdfrwt beam="1">  1       21 0.65629210E-01 0.79382847E+02</pdfrwt>
<pdfrwt beam="2">  1       -1 0.16112233E-02 0.79382847E+02</pdfrwt>
<totfact> 0.16553928E+05</totfact>
</mgrwt>
</event>
<event>
 6    2  0.9453093E+000  0.8823291E+02  0.7546771E-02  0.1307188E+00
          2   -1    0    0  502    0 -0.00000000000E+00  0.00000000000E+00  0.89810335396E+03  0.89810335396E+03  0.00000000000E+00 0. -1.
         21   -1    0    0  501  502  0.00000000000E+00 -0.00000000000E+00 -0.61443946838E+01  0.61443946838E+01  0.00000000000E+00 0.  1.
         24    2    1    2    0    0  0.68867934872E+01  0.32948760629E+02  0.82080263314E+03  0.82553134946E+03  0.81559779419E+02 0.  0.
        -11    1    3    3    0    0  0.92696081046E+01  0.51879245767E+02  0.31570471551E+03  0.32007319346E+03  0.00000000000E+00 0.  1.
         12    1    3    3    0    0 -0.23828146174E+01 -0.18930485138E+02  0.50509791762E+03  0.50545815599E+03  0.00000000000E+00 0. -1.
          1    1    1    2  501    0 -0.68867934872E+01 -0.32948760629E+02  0.71156326144E+02  0.78716399192E+02  0.00000000000E+00 0. -1.
<mgrwt>
<rscale>  1 0.88232910E+02</rscale>
<asrwt>0</asrwt>
<pdfrwt beam="1">  1       21 0.94529220E-03 0.88232910E+02</pdfrwt>
<pdfrwt beam="2">  1        2 0.13816964E+00 0.88232910E+02</pdfrwt>
<totfact> 0.14938342E+06</totfact>
</mgrwt>
</event>
<event>
 6    2  0.1130255E+001  0.8573446E+02  0.7546771E-02  0.1313523E+00
         21   -1    0    0  501  502  0.00000000000E+00  0.00000000000E+00  0.17756595331E+02  0.17756595331E+02  0.00000000000E+00 0. -1.
         -3   -1    0    0    0  501 -0.00000000000E+00 -0.00000000000E+00 -0.18352636569E+03  0.18352636569E+03  0.00000000000E+00 0.  1.
         24    2    1    2    0    0  0.16536414627E+02  0.19835127496E+02 -0.10715714191E+03  0.13723356208E+03  0.81752750451E+02 0.  0.
        -13    1    3    3    0    0 -0.20018225895E+02 -0.33448687821E+01 -0.87270087541E+02  0.89599027308E+02  0.00000000000E+00 0.  1.
         14    1    3    3    0    0  0.36554640521E+02  0.23179996278E+02 -0.19887054369E+02  0.47634534768E+02  0.00000000000E+00 0. -1.
         -4    1    1    2    0  502 -0.16536414627E+02 -0.19835127496E+02 -0.58612628453E+02  0.64049398949E+02  0.00000000000E+00 0.  1.
<mgrwt>
<rscale>  1 0.85734459E+02</rscale>
<asrwt>0</asrwt>
<pdfrwt beam="1">  1       21 0.27317839E-02 0.85734459E+02</pdfrwt>
<pdfrwt beam="2">  1       -3 0.28234826E-01 0.85734459E+02</pdfrwt>
<totfact> 0.38758083E+05</totfact>
</mgrwt>
</event>
<event>
 6    2  0.9453093E+000  0.9280150E+02  0.7546771E-02  0.1296206E+00
         -1   -1    0    0    0  501 -0.00000000000E+00  0.00000000000E+00  0.23931777091E+03  0.23931777091E+03  0.00000000000E+00 0.  1.
         21   -1    0    0  501  502  0.00000000000E+00 -0.00000000000E+00 -0.32103332479E+02  0.32103332479E+02  0.00000000000E+00 0.  1.
         24    2    1    2    0    0 -0.37018320667E+02 -0.26455024350E+02  0.20596255640E+03  0.22590416602E+03  0.80881970850E+02 0.  0.
        -13    1    3    3    0    0 -0.41396519117E+02 -0.50935529050E+02  0.16953449606E+03  0.18179671414E+03  0.00000000000E+00 0.  1.
         14    1    3    3    0    0  0.43781984494E+01  0.24480504701E+02  0.36428060336E+02  0.44107451887E+02  0.00000000000E+00 0. -1.
         -2    1    1    2    0  502  0.37018320667E+02  0.26455024350E+02  0.12518820266E+01  0.45516937364E+02  0.00000000000E+00 0.  1.
<mgrwt>
<rscale>  1 0.92801496E+02</rscale>
<asrwt>0</asrwt>
<pdfrwt beam="1">  1       21 0.49389744E-02 0.92801496E+02</pdfrwt>
<pdfrwt beam="2">  1       -1 0.36818117E-01 0.92801496E+02</pdfrwt>
<totfact> 0.17241024E+05</totfact>
</mgrwt>
</event>
<event>
 6    2  0.9453093E+000  0.8982939E+02  0.7546771E-02  0.1303265E+00
          2   -1    0    0  502    0 -0.00000000000E+00  0.00000000000E+00  0.80691287746E+03  0.80691287746E+03  0.00000000000E+00 0. -1.
         21   -1    0    0  501  502  0.00000000000E+00 -0.00000000000E+00 -0.75645516890E+01  0.75645516890E+01  0.00000000000E+00 0. -1.
         24    2    1    2    0    0 -0.25496372370E+01  0.35663141376E+02  0.73818313031E+03  0.74362870694E+03  0.82407278867E+02 0.  0.
        -13    1    3    3    0    0  0.18590876025E+02 -0.17303350378E+02  0.11149531091E+03  0.11435134874E+03  0.00000000000E+00 0.  1.
         14    1    3    3    0    0 -0.21140513262E+02  0.52966491754E+02  0.62668781940E+03  0.62927735819E+03  0.00000000000E+00 0. -1.
          1    1    1    2  501    0  0.25496372370E+01 -0.35663141376E+02  0.61165195470E+02  0.70848722217E+02  0.00000000000E+00 0. -1.
<mgrwt>
<rscale>  1 0.89829393E+02</rscale>
<asrwt>0</asrwt>
<pdfrwt beam="1">  1       21 0.11637778E-02 0.89829393E+02</pdfrwt>
<pdfrwt beam="2">  1        2 0.12414037E+00 0.89829393E+02</pdfrwt>
<totfact> 0.12357122E+06</totfact>
</mgrwt>
</event>
<event>
 6    2  0.9453093E+000  0.1277833E+03  0.7546771E-02  0.1230782E+00
         21   -1    0    0  501  502  0.00000000000E+00  0.00000000000E+00  0.11594674574E+02  0.11594674574E+02  0.00000000000E+00 0. -1.
          2   -1    0    0  502    0 -0.00000000000E+00 -0.00000000000E+00 -0.12033043206E+04  0.12033043206E+04  0.00000000000E+00 0. -1.
         24    2    1    2    0    0 -0.89359379098E+02  0.42680437154E+02 -0.49688718682E+03  0.51305501809E+03  0.80758013934E+02 0.  0.
        -13    1    3    3    0    0 -0.46155991008E+02 -0.21045251691E+02 -0.18936553779E+03  0.19604230418E+03  0.00000000000E+00 0.  1.
         14    1    3    3    0    0 -0.43203388090E+02  0.63725688844E+02 -0.30752164903E+03  0.31701271392E+03  0.00000000000E+00 0. -1.
          1    1    1    2  501    0  0.89359379098E+02 -0.42680437154E+02 -0.69482245917E+03  0.70184397704E+03  0.00000000000E+00 0. -1.
<mgrwt>
<rscale>  1 0.12778331E+03</rscale>
<asrwt>0</asrwt>
<pdfrwt beam="1">  1       21 0.17837971E-02 0.12778331E+03</pdfrwt>
<pdfrwt beam="2">  1        2 0.18512364E+00 0.12778331E+03</pdfrwt>
<totfact> 0.37256904E+05</totfact>
</mgrwt>
</event>
<event>
 6    2  0.9453093E+000  0.8709910E+02  0.7546771E-02  0.1310033E+00
         21   -1    0    0  501  502  0.00000000000E+00  0.00000000000E+00  0.53933514413E+01  0.53933514413E+01  0.00000000000E+00 0.  1.
          2   -1    0    0  502    0 -0.00000000000E+00 -0.00000000000E+00 -0.90487269659E+03  0.90487269659E+03  0.00000000000E+00 0. -1.
         24    2    1    2    0    0  0.31031229573E+02  0.13473544263E+02 -0.80889342218E+03  0.81356918642E+03  0.80260694337E+02 0.  0.
        -13    1    3    3    0    0 -0.19952427480E+02  0.98573539195E+01 -0.84717399920E+02  0.87591692744E+02  0.00000000000E+00 0.  1.
         14    1    3    3    0    0  0.50983657052E+02  0.36161903436E+01 -0.72417602226E+03  0.72597749368E+03  0.00000000000E+00 0. -1.
          1    1    1    2  501    0 -0.31031229573E+02 -0.13473544263E+02 -0.90585922968E+02  0.96696861602E+02  0.00000000000E+00 0. -1.
<mgrwt>
<rscale>  1 0.87099097E+02</rscale>
<asrwt>0</asrwt>
<pdfrwt beam="1">  1       21 0.82974562E-03 0.87099097E+02</pdfrwt>
<pdfrwt beam="2">  1        2 0.13921131E+00 0.87099097E+02</pdfrwt>
<totfact> 0.18100110E+06</totfact>
</mgrwt>
</event>
<event>
 6    2  0.1069595E+001  0.9334683E+02  0.7546771E-02  0.1294943E+00
         -1   -1    0    0    0  501 -0.00000000000E+00  0.00000000000E+00  0.19819324933E+03  0.19819324933E+03  0.00000000000E+00 0.  1.
         21   -1    0    0  501  502  0.00000000000E+00 -0.00000000000E+00 -0.59675472356E+02  0.59675472356E+02  0.00000000000E+00 0.  1.
         24    2    1    2    0    0  0.47419987057E+02  0.64298241665E+01  0.17456576877E+03  0.19795665676E+03  0.80147567134E+02 0.  0.
        -13    1    3    3    0    0  0.56799198136E+02  0.14520864896E+01  0.17795918342E+03  0.18680933710E+03  0.00000000000E+00 0.  1.
         14    1    3    3    0    0 -0.93792110788E+01  0.49777376769E+01 -0.33934146411E+01  0.11147319667E+02  0.00000000000E+00 0. -1.
         -2    1    1    2    0  502 -0.47419987057E+02 -0.64298241665E+01 -0.36047991796E+02  0.59912064927E+02  0.00000000000E+00 0.  1.
<mgrwt>
<rscale>  1 0.93346828E+02</rscale>
<asrwt>0</asrwt>
<pdfrwt beam="1">  1       21 0.91808420E-02 0.93346828E+02</pdfrwt>
<pdfrwt beam="2">  1       -1 0.30491269E-01 0.93346828E+02</pdfrwt>
<totfact> 0.83016405E+04</totfact>
</mgrwt>
</event>
<event>
 6    2  0.9453093E+000  0.8897031E+02  0.7546771E-02  0.1305365E+00
         21   -1    0    0  501  502  0.00000000000E+00  0.00000000000E+00  0.26372438849E+01  0.26372438849E+01  0.00000000000E+00 0. -1.
          2   -1    0    0  502    0 -0.00000000000E+00 -0.00000000000E+00 -0.27116918641E+04  0.27116918641E+04  0.00000000000E+00 0. -1.
         24    2    1    2    0    0  0.21024849000E+02  0.33750123240E+02 -0.24966398061E+04  0.24982245769E+04  0.79590201639E+02 0.  0.
        -11    1    3    3    0    0 -0.23354742949E+02  0.10863286604E+02 -0.32793907835E+03  0.32894907527E+03  0.00000000000E+00 0.  1.
         12    1    3    3    0    0  0.44379591950E+02  0.22886836636E+02 -0.21687007277E+04  0.21692755016E+04  0.00000000000E+00 0. -1.
          1    1    1    2  501    0 -0.21024849000E+02 -0.33750123240E+02 -0.21241481413E+03  0.21610453109E+03  0.00000000000E+00 0. -1.
<mgrwt>
<rscale>  1 0.88970306E+02</rscale>
<asrwt>0</asrwt>
<pdfrwt beam="1">  1       21 0.40572802E-03 0.88970306E+02</pdfrwt>
<pdfrwt beam="2">  1        2 0.41718522E+00 0.88970306E+02</pdfrwt>
<totfact> 0.61652923E+05</totfact>
</mgrwt>
</event>
<event>
 6    2  0.9453093E+000  0.8494056E+02  0.7546771E-02  0.1315588E+00
         21   -1    0    0  501  502  0.00000000000E+00  0.00000000000E+00  0.57605550444E+03  0.57605550444E+03  0.00000000000E+00 0.  1.
         -1   -1    0    0    0  501 -0.00000000000E+00 -0.00000000000E+00 -0.46706198286E+02  0.46706198286E+02  0.00000000000E+00 0.  1.
         24    2    1    2    0    0  0.19543990042E+02  0.66582370055E+01 -0.77245919243E+01  0.85291078726E+02  0.82392955543E+02 0.  0.
        -13    1    3    3    0    0  0.69800220259E+01  0.23132573270E+02 -0.40121567303E+02  0.46835636181E+02  0.00000000000E+00 0.  1.
         14    1    3    3    0    0  0.12563968016E+02 -0.16474336264E+02  0.32396975379E+02  0.38455442546E+02  0.00000000000E+00 0. -1.
         -2    1    1    2    0  502 -0.19543990042E+02 -0.66582370055E+01  0.53707389808E+03  0.53747062400E+03  0.00000000000E+00 0.  1.
<mgrwt>
<rscale>  1 0.84940560E+02</rscale>
<asrwt>0</asrwt>
<pdfrwt beam="1">  1       21 0.88623918E-01 0.84940560E+02</pdfrwt>
<pdfrwt beam="2">  1       -1 0.71855694E-02 0.84940560E+02</pdfrwt>
<totfact> 0.99458671E+03</totfact>
</mgrwt>
</event>
<event>
 6    2  0.9453093E+000  0.8552383E+02  0.7546771E-02  0.1314068E+00
          2   -1    0    0  502    0 -0.00000000000E+00  0.00000000000E+00  0.19868569625E+04  0.19868569625E+04  0.00000000000E+00 0. -1.
         21   -1    0    0  501  502  0.00000000000E+00 -0.00000000000E+00 -0.16691789326E+01  0.16691789326E+01  0.00000000000E+00 0.  1.
         24    2    1    2    0    0 -0.34668991630E+01 -0.28037815192E+02  0.13459989830E+04  0.13487133085E+04  0.80722906905E+02 0.  0.
        -11    1    3    3    0    0  0.55068613739E+01 -0.10264020233E+02  0.25172965241E+02  0.27737227917E+02  0.00000000000E+00 0.  1.
         12    1    3    3    0    0 -0.89737605369E+01 -0.17773794959E+02  0.13208260178E+04  0.13209760806E+04  0.00000000000E+00 0. -1.
          1    1    1    2  501    0  0.34668991630E+01  0.28037815192E+02  0.63918880052E+03  0.63981283293E+03  0.00000000000E+00 0. -1.
<mgrwt>
<rscale>  1 0.85523834E+02</rscale>
<asrwt>0</asrwt>
<pdfrwt beam="1">  1       21 0.25679835E-03 0.85523834E+02</pdfrwt>
<pdfrwt beam="2">  1        2 0.30566841E+00 0.85523834E+02</pdfrwt>
<totfact> 0.29144854E+06</totfact>
</mgrwt>
</event>
<event>
 6    2  0.9453093E+000  0.9938266E+02  0.7546771E-02  0.1281599E+00
         -3   -1    0    0    0  501 -0.00000000000E+00  0.00000000000E+00  0.15918355519E+03  0.15918355519E+03  0.00000000000E+00 0.  1.
         21   -1    0    0  501  502  0.00000000000E+00 -0.00000000000E+00 -0.38683905499E+02  0.38683905499E+02  0.00000000000E+00 0. -1.
         24    2    1    2    0    0  0.94228122884E+01 -0.55890361074E+02  0.86630427451E+02  0.13183984474E+03  0.81635726548E+02 0.  0.
        -13    1    3    3    0    0 -0.11438288333E+02  0.85763380169E+01  0.55429219943E+02  0.57243221758E+02  0.00000000000E+00 0.  1.
         14    1    3    3    0    0  0.20861100621E+02 -0.64466699091E+02  0.31201207508E+02  0.74596622985E+02  0.00000000000E+00 0. -1.
         -4    1    1    2    0  502 -0.94228122884E+01  0.55890361074E+02  0.33869222240E+02  0.66027615946E+02  0.00000000000E+00 0.  1.
<mgrwt>
<rscale>  1 0.99382663E+02</rscale>
<asrwt>0</asrwt>
<pdfrwt beam="1">  1       21 0.59513702E-02 0.99382663E+02</pdfrwt>
<pdfrwt beam="2">  1       -3 0.24489777E-01 0.99382663E+02</pdfrwt>
<totfact> 0.14199349E+05</totfact>
</mgrwt>
</event>
<event>
 6    2  0.9453093E+000  0.8889256E+02  0.7546771E-02  0.1305556E+00
          4   -1    0    0  502    0 -0.00000000000E+00  0.00000000000E+00  0.13062493658E+02  0.13062493658E+02  0.00000000000E+00 0. -1.
         21   -1    0    0  501  502  0.00000000000E+00 -0.00000000000E+00 -0.62158693368E+03  0.62158693368E+03  0.00000000000E+00 0.  1.
         24    2    1    2    0    0 -0.33343574123E+02  0.20464487079E+02 -0.57861505360E+03  0.58540350809E+03  0.79820410055E+02 0.  0.
        -13    1    3    3    0    0 -0.52431237339E+02  0.17523676847E+02 -0.53312483226E+03  0.53598339590E+03  0.00000000000E+00 0.  1.
         14    1    3    3    0    0  0.19087663216E+02  0.29408102327E+01 -0.45490221340E+02  0.49420112195E+02  0.00000000000E+00 0. -1.
          3    1    1    2  501    0  0.33343574123E+02 -0.20464487079E+02 -0.29909386422E+02  0.49245919251E+02  0.00000000000E+00 0. -1.
<mgrwt>
<rscale>  1 0.88892559E+02</rscale>
<asrwt>0</asrwt>
<pdfrwt beam="1">  1       21 0.95628784E-01 0.88892559E+02</pdfrwt>
<pdfrwt beam="2">  1        4 0.20096139E-02 0.88892559E+02</pdfrwt>
<totfact> 0.36214368E+04</totfact>
</mgrwt>
</event>
<event>
 6    2  0.9453093E+000  0.9078973E+02  0.7546771E-02  0.1300950E+00
         21   -1    0    0  501  502  0.00000000000E+00  0.00000000000E+00  0.38645159912E+02  0.38645159912E+02  0.00000000000E+00 0. -1.
          2   -1    0    0  502    0 -0.00000000000E+00 -0.00000000000E+00 -0.60812520344E+03  0.60812520344E+03  0.00000000000E+00 0. -1.
         24    2    1    2    0    0  0.43892353026E+02  0.26108127410E+01 -0.59091855974E+03  0.59785242212E+03  0.79431853725E+02 0.  0.
        -13    1    3    3    0    0  0.13177728515E+02  0.30665133491E+02 -0.10547771013E+03  0.11063250099E+03  0.00000000000E+00 0.  1.
         14    1    3    3    0    0  0.30714624511E+02 -0.28054320750E+02 -0.48544084962E+03  0.48721992113E+03  0.00000000000E+00 0. -1.
          1    1    1    2  501    0 -0.43892353026E+02 -0.26108127410E+01  0.21438516213E+02  0.48917941235E+02  0.00000000000E+00 0. -1.
<mgrwt>
<rscale>  1 0.90789726E+02</rscale>
<asrwt>0</asrwt>
<pdfrwt beam="1">  1       21 0.59454097E-02 0.90789726E+02</pdfrwt>
<pdfrwt beam="2">  1        2 0.93557716E-01 0.90789726E+02</pdfrwt>
<totfact> 0.12267485E+05</totfact>
</mgrwt>
</event>
<event>
 6    2  0.9453093E+000  0.8575401E+02  0.7546771E-02  0.1313472E+00
          2   -1    0    0  502    0 -0.00000000000E+00  0.00000000000E+00  0.25043404254E+02  0.25043404254E+02  0.00000000000E+00 0. -1.
         21   -1    0    0  501  502  0.00000000000E+00 -0.00000000000E+00 -0.70197305499E+03  0.70197305499E+03  0.00000000000E+00 0. -1.
         24    2    1    2    0    0  0.25019483006E+02 -0.11547564310E+01 -0.49356037617E+02  0.98943256604E+02  0.82014886367E+02 0.  0.
        -11    1    3    3    0    0 -0.69253885959E+01  0.21048753664E+02  0.12819459595E+02  0.25599796529E+02  0.00000000000E+00 0.  1.
         12    1    3    3    0    0  0.31944871601E+02 -0.22203510095E+02 -0.62175497213E+02  0.73343460075E+02  0.00000000000E+00 0. -1.
          1    1    1    2  501    0 -0.25019483006E+02  0.11547564310E+01 -0.62757361312E+03  0.62807320264E+03  0.00000000000E+00 0. -1.
<mgrwt>
<rscale>  1 0.85754006E+02</rscale>
<asrwt>0</asrwt>
<pdfrwt beam="1">  1       21 0.10799587E+00 0.85754006E+02</pdfrwt>
<pdfrwt beam="2">  1        2 0.38528310E-02 0.85754006E+02</pdfrwt>
<totfact> 0.18349537E+04</totfact>
</mgrwt>
</event>
<event>
 6    2  0.9453093E+000  0.8596065E+02  0.7546771E-02  0.1312939E+00
          4   -1    0    0  502    0 -0.00000000000E+00  0.00000000000E+00  0.76683338001E+03  0.76683338001E+03  0.00000000000E+00 0. -1.
         21   -1    0    0  501  502  0.00000000000E+00 -0.00000000000E+00 -0.65403216619E+01  0.65403216619E+01  0.00000000000E+00 0. -1.
         24    2    1    2    0    0  0.29232352049E+02  0.13481488120E+02  0.69781939560E+03  0.70309397867E+03  0.79705414096E+02 0.  0.
        -11    1    3    3    0    0  0.51847369607E+02  0.94891999436E+01  0.29872763952E+03  0.30334204665E+03  0.00000000000E+00 0.  1.
         12    1    3    3    0    0 -0.22615017558E+02  0.39922881761E+01  0.39909175608E+03  0.39975193202E+03  0.00000000000E+00 0. -1.
          3    1    1    2  501    0 -0.29232352049E+02 -0.13481488120E+02  0.62473662747E+02  0.70279723002E+02  0.00000000000E+00 0. -1.
<mgrwt>
<rscale>  1 0.85960654E+02</rscale>
<asrwt>0</asrwt>
<pdfrwt beam="1">  1       21 0.10062039E-02 0.85960654E+02</pdfrwt>
<pdfrwt beam="2">  1        4 0.11797429E+00 0.85960654E+02</pdfrwt>
<totfact> 0.80449569E+04</totfact>
</mgrwt>
</event>
<event>
 6    2  0.9453093E+000  0.1105989E+03  0.7546771E-02  0.1259465E+00
         21   -1    0    0  501  502  0.00000000000E+00  0.00000000000E+00  0.10949638997E+02  0.10949638997E+02  0.00000000000E+00 0. -1.
          2   -1    0    0  502    0 -0.00000000000E+00 -0.00000000000E+00 -0.80456534439E+03  0.80456534439E+03  0.00000000000E+00 0. -1.
         24    2    1    2    0    0  0.71822922036E+02  0.11018257607E+02 -0.38857981784E+03  0.40401285176E+03  0.83379706293E+02 0.  0.
        -13    1    3    3    0    0  0.18133856671E+02 -0.20166732682E+02 -0.31462082800E+02  0.41537892568E+02  0.00000000000E+00 0.  1.
         14    1    3    3    0    0  0.53689065365E+02  0.31184990289E+02 -0.35711773504E+03  0.36247495919E+03  0.00000000000E+00 0. -1.
          1    1    1    2  501    0 -0.71822922036E+02 -0.11018257607E+02 -0.40503588755E+03  0.41150213163E+03  0.00000000000E+00 0. -1.
<mgrwt>
<rscale>  1 0.11059887E+03</rscale>
<asrwt>0</asrwt>
<pdfrwt beam="1">  1       21 0.16845601E-02 0.11059887E+03</pdfrwt>
<pdfrwt beam="2">  1        2 0.12377927E+00 0.11059887E+03</pdfrwt>
<totfact> 0.70185461E+05</totfact>
</mgrwt>
</event>
<event>
 6    2  0.9453093E+000  0.1023004E+03  0.7546771E-02  0.1275532E+00
          2   -1    0    0  502    0 -0.00000000000E+00  0.00000000000E+00  0.49006978581E+02  0.49006978581E+02  0.00000000000E+00 0. -1.
         21   -1    0    0  501  502  0.00000000000E+00 -0.00000000000E+00 -0.13466643939E+03  0.13466643939E+03  0.00000000000E+00 0. -1.
         24    2    1    2    0    0 -0.11305295659E+02 -0.58568000278E+02 -0.61163101265E+02  0.11919014884E+03  0.83110446147E+02 0.  0.
        -11    1    3    3    0    0 -0.37293410878E+00  0.18041149997E+02  0.34559785525E+01  0.18372968209E+02  0.00000000000E+00 0.  1.
         12    1    3    3    0    0 -0.10932361550E+02 -0.76609150275E+02 -0.64619079817E+02  0.10081718064E+03  0.00000000000E+00 0. -1.
          1    1    1    2  501    0  0.11305295659E+02  0.58568000278E+02 -0.24496359549E+02  0.64483269130E+02  0.00000000000E+00 0. -1.
<mgrwt>
<rscale>  1 0.10230037E+03</rscale>
<asrwt>0</asrwt>
<pdfrwt beam="1">  1       21 0.20717914E-01 0.10230037E+03</pdfrwt>
<pdfrwt beam="2">  1        2 0.75395351E-02 0.10230037E+03</pdfrwt>
<totfact> 0.23028885E+05</totfact>
</mgrwt>
</event>
<event>
 6    2  0.9453093E+000  0.9895176E+02  0.7546771E-02  0.1282516E+00
         21   -1    0    0  501  502  0.00000000000E+00  0.00000000000E+00  0.66838034189E+01  0.66838034189E+01  0.00000000000E+00 0.  1.
          2   -1    0    0  502    0 -0.00000000000E+00 -0.00000000000E+00 -0.10046377646E+04  0.10046377646E+04  0.00000000000E+00 0. -1.
         24    2    1    2    0    0 -0.42781667456E+02  0.40557966288E+02 -0.48500753487E+03  0.49499874655E+03  0.79474716166E+02 0.  0.
        -11    1    3    3    0    0 -0.46384676806E+01  0.17686892251E+02 -0.17269622858E+02  0.25151171217E+02  0.00000000000E+00 0.  1.
         12    1    3    3    0    0 -0.38143199776E+02  0.22871074037E+02 -0.46773791201E+03  0.46984757533E+03  0.00000000000E+00 0. -1.
          1    1    1    2  501    0  0.42781667456E+02 -0.40557966288E+02 -0.51294642628E+03  0.51632282144E+03  0.00000000000E+00 0. -1.
<mgrwt>
<rscale>  1 0.98951757E+02</rscale>
<asrwt>0</asrwt>
<pdfrwt beam="1">  1       21 0.10282767E-02 0.98951757E+02</pdfrwt>
<pdfrwt beam="2">  1        2 0.15455977E+00 0.98951757E+02</pdfrwt>
<totfact> 0.11408000E+06</totfact>
</mgrwt>
</event>
<event>
 6    2  0.9453093E+000  0.8475213E+02  0.7546771E-02  0.1316082E+00
          2   -1    0    0  502    0 -0.00000000000E+00  0.00000000000E+00  0.60812108948E+03  0.60812108948E+03  0.00000000000E+00 0. -1.
         21   -1    0    0  501  502  0.00000000000E+00 -0.00000000000E+00 -0.52824629838E+01  0.52824629838E+01  0.00000000000E+00 0.  1.
         24    2    1    2    0    0  0.23087779737E+02  0.60679028793E+01  0.53051375597E+03  0.53724088500E+03  0.81320712145E+02 0.  0.
        -11    1    3    3    0    0  0.71933674170E+01 -0.37213712526E+02  0.20450632301E+03  0.20798904078E+03  0.00000000000E+00 0.  1.
         12    1    3    3    0    0  0.15894412320E+02  0.43281615406E+02  0.32600743297E+03  0.32925184422E+03  0.00000000000E+00 0. -1.
          1    1    1    2  501    0 -0.23087779737E+02 -0.60679028793E+01  0.72324870519E+02  0.76162667457E+02  0.00000000000E+00 0. -1.
<mgrwt>
<rscale>  1 0.84752128E+02</rscale>
<asrwt>0</asrwt>
<pdfrwt beam="1">  1       21 0.81268709E-03 0.84752128E+02</pdfrwt>
<pdfrwt beam="2">  1        2 0.93557035E-01 0.84752128E+02</pdfrwt>
<totfact> 0.29916241E+06</totfact>
</mgrwt>
</event>
<event>
 6    2  0.9453093E+000  0.8440086E+02  0.7546771E-02  0.1317007E+00
          2   -1    0    0  502    0 -0.00000000000E+00  0.00000000000E+00  0.23982702615E+04  0.23982702615E+04  0.00000000000E+00 0. -1.
         21   -1    0    0  501  502  0.00000000000E+00 -0.00000000000E+00 -0.13588571775E+01  0.13588571775E+01  0.00000000000E+00 0.  1.
         24    2    1    2    0    0 -0.14411515682E+02 -0.19575791105E+02  0.21108732958E+04  0.21125599582E+04  0.80824517334E+02 0.  0.
        -13    1    3    3    0    0  0.16529372298E+02 -0.13890373355E+02  0.16196155271E+03  0.16339433031E+03  0.00000000000E+00 0.  1.
         14    1    3    3    0    0 -0.30940887980E+02 -0.56854177503E+01  0.19489117431E+04  0.19491656279E+04  0.00000000000E+00 0. -1.
          1    1    1    2  501    0  0.14411515682E+02  0.19575791105E+02  0.28603810853E+03  0.28706916050E+03  0.00000000000E+00 0. -1.
<mgrwt>
<rscale>  1 0.84400865E+02</rscale>
<asrwt>0</asrwt>
<pdfrwt beam="1">  1       21 0.20905687E-03 0.84400865E+02</pdfrwt>
<pdfrwt beam="2">  1        2 0.36896127E+00 0.84400865E+02</pdfrwt>
<totfact> 0.24519275E+06</totfact>
</mgrwt>
</event>
<event>
 6    2  0.9453093E+000  0.8307416E+02  0.7546771E-02  0.1320547E+00
          2   -1    0    0  502    0 -0.00000000000E+00  0.00000000000E+00  0.25336551298E+04  0.25336551298E+04  0.00000000000E+00 0. -1.
         21   -1    0    0  501  502  0.00000000000E+00 -0.00000000000E+00 -0.26220629189E+01  0.26220629189E+01  0.00000000000E+00 0. -1.
         24    2    1    2    0    0  0.21469573067E+02  0.21427965134E+01  0.24724811585E+04  0.24738763905E+04  0.80223326462E+02 0.  0.
        -11    1    3    3    0    0 -0.24382227469E+02 -0.90468453103E+01  0.39292411094E+03  0.39378381809E+03  0.00000000000E+00 0.  1.
         12    1    3    3    0    0  0.45851800536E+02  0.11189641824E+02  0.20795570476E+04  0.20800925724E+04  0.00000000000E+00 0. -1.
          1    1    1    2  501    0 -0.21469573067E+02 -0.21427965134E+01  0.58551908382E+02  0.62400802237E+02  0.00000000000E+00 0. -1.
<mgrwt>
<rscale>  1 0.83074161E+02</rscale>
<asrwt>0</asrwt>
<pdfrwt beam="1">  1       21 0.40339632E-03 0.83074161E+02</pdfrwt>
<pdfrwt beam="2">  1        2 0.38979114E+00 0.83074161E+02</pdfrwt>
<totfact> 0.77249450E+05</totfact>
</mgrwt>
</event>
<event>
 6    2  0.9453093E+000  0.1104765E+03  0.7546771E-02  0.1259690E+00
          2   -1    0    0  502    0 -0.00000000000E+00  0.00000000000E+00  0.20380131940E+03  0.20380131940E+03  0.00000000000E+00 0. -1.
         21   -1    0    0  501  502  0.00000000000E+00 -0.00000000000E+00 -0.42331587876E+02  0.42331587876E+02  0.00000000000E+00 0. -1.
         24    2    1    2    0    0 -0.65923662138E+02 -0.33308742716E+02  0.11146034924E+03  0.15693458954E+03  0.82156280160E+02 0.  0.
        -13    1    3    3    0    0  0.18486828929E+01 -0.39416280109E+02  0.24240604853E+02  0.46310557001E+02  0.00000000000E+00 0.  1.
         14    1    3    3    0    0 -0.67772345031E+02  0.61075373926E+01  0.87219744383E+02  0.11062403253E+03  0.00000000000E+00 0. -1.
          1    1    1    2  501    0  0.65923662138E+02  0.33308742716E+02  0.50009382286E+02  0.89198317740E+02  0.00000000000E+00 0. -1.
<mgrwt>
<rscale>  1 0.11047649E+03</rscale>
<asrwt>0</asrwt>
<pdfrwt beam="1">  1       21 0.65125521E-02 0.11047649E+03</pdfrwt>
<pdfrwt beam="2">  1        2 0.31354049E-01 0.11047649E+03</pdfrwt>
<totfact> 0.34097787E+05</totfact>
</mgrwt>
</event>
<event>
 6    2  0.9453093E+000  0.8376555E+02  0.7546771E-02  0.1318693E+00
          2   -1    0    0  502    0 -0.00000000000E+00  0.00000000000E+00  0.32378318983E+03  0.32378318983E+03  0.00000000000E+00 0. -1.
         21   -1    0    0  501  502  0.00000000000E+00 -0.00000000000E+00 -0.98344871358E+01  0.98344871358E+01  0.00000000000E+00 0. -1.
         24    2    1    2    0    0 -0.19176524025E+02  0.19876853475E+02  0.25735312264E+03  0.27064237975E+03  0.79081221579E+02 0.  0.
        -13    1    3    3    0    0 -0.39179608098E+01 -0.29998676097E+02  0.11896842248E+03  0.12275486358E+03  0.00000000000E+00 0.  1.
         14    1    3    3    0    0 -0.15258563215E+02  0.49875529571E+02  0.13838470016E+03  0.14788751617E+03  0.00000000000E+00 0. -1.
          1    1    1    2  501    0  0.19176524025E+02 -0.19876853475E+02  0.56595580056E+02  0.62975297217E+02  0.00000000000E+00 0. -1.
<mgrwt>
<rscale>  1 0.83765554E+02</rscale>
<asrwt>0</asrwt>
<pdfrwt beam="1">  1       21 0.15129983E-02 0.83765554E+02</pdfrwt>
<pdfrwt beam="2">  1        2 0.49812790E-01 0.83765554E+02</pdfrwt>
<totfact> 0.22120766E+06</totfact>
</mgrwt>
</event>
<event>
 6    2  0.9453093E+000  0.8661230E+02  0.7546771E-02  0.1311269E+00
         21   -1    0    0  501  502  0.00000000000E+00  0.00000000000E+00  0.23749614716E+01  0.23749614716E+01  0.00000000000E+00 0.  1.
          2   -1    0    0  502    0 -0.00000000000E+00 -0.00000000000E+00 -0.15496846849E+04  0.15496846849E+04  0.00000000000E+00 0. -1.
         24    2    1    2    0    0  0.16468323475E+02  0.30531802280E+02 -0.11204892602E+04  0.11238317813E+04  0.79361790019E+02 0.  0.
        -11    1    3    3    0    0 -0.12421120795E+02  0.42731972874E+02 -0.36667402592E+03  0.36936451783E+03  0.00000000000E+00 0.  1.
         12    1    3    3    0    0  0.28889444270E+02 -0.12200170594E+02 -0.75381523428E+03  0.75446726343E+03  0.00000000000E+00 0. -1.
          1    1    1    2  501    0 -0.16468323475E+02 -0.30531802280E+02 -0.42682046320E+03  0.42822786509E+03  0.00000000000E+00 0. -1.
<mgrwt>
<rscale>  1 0.86612299E+02</rscale>
<asrwt>0</asrwt>
<pdfrwt beam="1">  1       21 0.36537914E-03 0.86612299E+02</pdfrwt>
<pdfrwt beam="2">  1        2 0.23841273E+00 0.86612299E+02</pdfrwt>
<totfact> 0.28359957E+06</totfact>
</mgrwt>
</event>
<event>
 6    2  0.9453093E+000  0.9130569E+02  0.7546771E-02  0.1299720E+00
         21   -1    0    0  501  502  0.00000000000E+00  0.00000000000E+00  0.11582754617E+02  0.11582754617E+02  0.00000000000E+00 0. -1.
          2   -1    0    0  502    0 -0.00000000000E+00 -0.00000000000E+00 -0.44883111498E+03  0.44883111498E+03  0.00000000000E+00 0. -1.
         24    2    1    2    0    0 -0.21622402793E+01 -0.46761616474E+02 -0.34618124488E+03  0.35801980932E+03  0.78392636763E+02 0.  0.
        -13    1    3    3    0    0 -0.23352094142E+02  0.62473532689E+00 -0.32226084072E+02  0.39802400552E+02  0.00000000000E+00 0.  1.
         14    1    3    3    0    0  0.21189853862E+02 -0.47386351801E+02 -0.31395516081E+03  0.31821740877E+03  0.00000000000E+00 0. -1.
          1    1    1    2  501    0  0.21622402793E+01  0.46761616474E+02 -0.91067115480E+02  0.10239406028E+03  0.00000000000E+00 0. -1.
<mgrwt>
<rscale>  1 0.91305693E+02</rscale>
<asrwt>0</asrwt>
<pdfrwt beam="1">  1       21 0.17819624E-02 0.91305693E+02</pdfrwt>
<pdfrwt beam="2">  1        2 0.69050933E-01 0.91305693E+02</pdfrwt>
<totfact> 0.12228219E+06</totfact>
</mgrwt>
</event>
<event>
 6    2  0.9453093E+000  0.1541660E+03  0.7546771E-02  0.1195445E+00
         -1   -1    0    0    0  501 -0.00000000000E+00  0.00000000000E+00  0.30312950003E+03  0.30312950003E+03  0.00000000000E+00 0.  1.
         21   -1    0    0  501  502  0.00000000000E+00 -0.00000000000E+00 -0.86518497606E+02  0.86518497606E+02  0.00000000000E+00 0.  1.
         24    2    1    2    0    0 -0.97278893245E+02 -0.92356936371E+02  0.20288060768E+03  0.25480916604E+03  0.75988047481E+02 0.  0.
        -11    1    3    3    0    0 -0.26116581452E+02 -0.33284418819E+02  0.13103677914E+03  0.13769737052E+03  0.00000000000E+00 0.  1.
         12    1    3    3    0    0 -0.71162311794E+02 -0.59072517552E+02  0.71843828542E+02  0.11711179552E+03  0.00000000000E+00 0. -1.
         -2    1    1    2    0  502  0.97278893245E+02  0.92356936371E+02  0.13730394750E+02  0.13483883160E+03  0.00000000000E+00 0.  1.
<mgrwt>
<rscale>  1 0.15416605E+03</rscale>
<asrwt>0</asrwt>
<pdfrwt beam="1">  1       21 0.13310538E-01 0.15416605E+03</pdfrwt>
<pdfrwt beam="2">  1       -1 0.46635307E-01 0.15416605E+03</pdfrwt>
<totfact> 0.21021007E+04</totfact>
</mgrwt>
</event>
<event>
 6    2  0.9453093E+000  0.9367439E+02  0.7546771E-02  0.1294190E+00
         21   -1    0    0  501  502  0.00000000000E+00  0.00000000000E+00  0.43435820753E+02  0.43435820753E+02  0.00000000000E+00 0. -1.
          2   -1    0    0  502    0 -0.00000000000E+00 -0.00000000000E+00 -0.21736585398E+03  0.21736585398E+03  0.00000000000E+00 0. -1.
         24    2    1    2    0    0 -0.48539695622E+02  0.94316732310E+00 -0.18817881930E+03  0.21020503926E+03  0.80111789899E+02 0.  0.
        -11    1    3    3    0    0 -0.63585300533E+02  0.16406703698E+02 -0.10156971357E+03  0.12094906815E+03  0.00000000000E+00 0.  1.
         12    1    3    3    0    0  0.15045604911E+02 -0.15463536375E+02 -0.86609105731E+02  0.89255971116E+02  0.00000000000E+00 0. -1.
          1    1    1    2  501    0  0.48539695622E+02 -0.94316732310E+00  0.14248786083E+02  0.50596635466E+02  0.00000000000E+00 0. -1.
<mgrwt>
<rscale>  1 0.93674385E+02</rscale>
<asrwt>0</asrwt>
<pdfrwt beam="1">  1       21 0.66824340E-02 0.93674385E+02</pdfrwt>
<pdfrwt beam="2">  1        2 0.33440900E-01 0.93674385E+02</pdfrwt>
<totfact> 0.30115314E+05</totfact>
</mgrwt>
</event>
<event>
 6    2  0.9453093E+000  0.8368944E+02  0.7546771E-02  0.1318896E+00
         -1   -1    0    0    0  501 -0.00000000000E+00  0.00000000000E+00  0.50470875942E+02  0.50470875942E+02  0.00000000000E+00 0.  1.
         21   -1    0    0  501  502  0.00000000000E+00 -0.00000000000E+00 -0.58514614413E+02  0.58514614413E+02  0.00000000000E+00 0. -1.
         24    2    1    2    0    0  0.20066248728E+02 -0.35437217974E+01  0.65142414857E+01  0.83942585519E+02  0.81170869277E+02 0.  0.
        -11    1    3    3    0    0 -0.18533508297E+02  0.19605580550E+02 -0.18248530563E+02  0.32571131178E+02  0.00000000000E+00 0.  1.
         12    1    3    3    0    0  0.38599757025E+02 -0.23149302347E+02  0.24762772049E+02  0.51371454341E+02  0.00000000000E+00 0. -1.
         -2    1    1    2    0  502 -0.20066248728E+02  0.35437217974E+01 -0.14557979957E+02  0.25042904836E+02  0.00000000000E+00 0.  1.
<mgrwt>
<rscale>  1 0.83689440E+02</rscale>
<asrwt>0</asrwt>
<pdfrwt beam="1">  1       21 0.90022483E-02 0.83689440E+02</pdfrwt>
<pdfrwt beam="2">  1       -1 0.77647502E-02 0.83689440E+02</pdfrwt>
<totfact> 0.71833622E+05</totfact>
</mgrwt>
</event>
<event>
 6    2  0.9453093E+000  0.8627970E+02  0.7546771E-02  0.1312119E+00
         21   -1    0    0  501  502  0.00000000000E+00  0.00000000000E+00  0.81096923827E+01  0.81096923827E+01  0.00000000000E+00 0.  1.
          2   -1    0    0  502    0 -0.00000000000E+00 -0.00000000000E+00 -0.40181581434E+03  0.40181581434E+03  0.00000000000E+00 0. -1.
         24    2    1    2    0    0 -0.17297179846E+02  0.21274669604E+02 -0.28201272225E+03  0.29491585698E+03  0.81806987391E+02 0.  0.
        -13    1    3    3    0    0  0.83739681359E+01  0.36983383237E+02 -0.60732823456E+02  0.71598671936E+02  0.00000000000E+00 0.  1.
         14    1    3    3    0    0 -0.25671147982E+02 -0.15708713633E+02 -0.22127989880E+03  0.22331718504E+03  0.00000000000E+00 0. -1.
          1    1    1    2  501    0  0.17297179846E+02 -0.21274669604E+02 -0.11169339971E+03  0.11500964975E+03  0.00000000000E+00 0. -1.
<mgrwt>
<rscale>  1 0.86279703E+02</rscale>
<asrwt>0</asrwt>
<pdfrwt beam="1">  1       21 0.12476452E-02 0.86279703E+02</pdfrwt>
<pdfrwt beam="2">  1        2 0.61817805E-01 0.86279703E+02</pdfrwt>
<totfact> 0.24009220E+06</totfact>
</mgrwt>
</event>
<event>
 6    2  0.9453093E+000  0.8896235E+02  0.7546771E-02  0.1305384E+00
         21   -1    0    0  501  502  0.00000000000E+00  0.00000000000E+00  0.14699414698E+01  0.14699414698E+01  0.00000000000E+00 0. -1.
          2   -1    0    0  502    0 -0.00000000000E+00 -0.00000000000E+00 -0.27520856110E+04  0.27520856110E+04  0.00000000000E+00 0. -1.
         24    2    1    2    0    0  0.27367465044E+02 -0.25752420268E+02 -0.17992412534E+04  0.18014392544E+04  0.80635812361E+02 0.  0.
        -11    1    3    3    0    0 -0.16540078721E+02  0.11734598759E+02 -0.17481590574E+03  0.17598828345E+03  0.00000000000E+00 0.  1.
         12    1    3    3    0    0  0.43907543765E+02 -0.37487019027E+02 -0.16244253476E+04  0.16254509710E+04  0.00000000000E+00 0. -1.
          1    1    1    2  501    0 -0.27367465044E+02  0.25752420268E+02 -0.95137441615E+03  0.95211629805E+03  0.00000000000E+00 0. -1.
<mgrwt>
<rscale>  1 0.88962349E+02</rscale>
<asrwt>0</asrwt>
<pdfrwt beam="1">  1       21 0.22614313E-03 0.88962349E+02</pdfrwt>
<pdfrwt beam="2">  1        2 0.42340100E+00 0.88962349E+02</pdfrwt>
<totfact> 0.14191371E+06</totfact>
</mgrwt>
</event>
<event>
 6    2  0.9453093E+000  0.9687295E+02  0.7546771E-02  0.1287013E+00
          2   -1    0    0  502    0 -0.00000000000E+00  0.00000000000E+00  0.16469942328E+04  0.16469942328E+04  0.00000000000E+00 0. -1.
         21   -1    0    0  501  502  0.00000000000E+00 -0.00000000000E+00 -0.34515841190E+01  0.34515841190E+01  0.00000000000E+00 0. -1.
         24    2    1    2    0    0 -0.26005392063E+02  0.42503261861E+02  0.12526351802E+04  0.12563754468E+04  0.83075634115E+02 0.  0.
        -13    1    3    3    0    0 -0.82519943156E+00  0.92043168904E+00 -0.11260328712E+01  0.16721538873E+01  0.00000000000E+00 0.  1.
         14    1    3    3    0    0 -0.25180192631E+02  0.41582830172E+02  0.12537612130E+04  0.12547032929E+04  0.00000000000E+00 0. -1.
          1    1    1    2  501    0  0.26005392063E+02 -0.42503261861E+02  0.39090746856E+03  0.39407037019E+03  0.00000000000E+00 0. -1.
<mgrwt>
<rscale>  1 0.96872951E+02</rscale>
<asrwt>0</asrwt>
<pdfrwt beam="1">  1       21 0.53101426E-03 0.96872951E+02</pdfrwt>
<pdfrwt beam="2">  1        2 0.25338310E+00 0.96872951E+02</pdfrwt>
<totfact> 0.14422507E+06</totfact>
</mgrwt>
</event>
<event>
 6    2  0.9453093E+000  0.9829097E+02  0.7546771E-02  0.1283931E+00
          2   -1    0    0  502    0 -0.00000000000E+00  0.00000000000E+00  0.52942342851E+03  0.52942342851E+03  0.00000000000E+00 0. -1.
         21   -1    0    0  501  502  0.00000000000E+00 -0.00000000000E+00 -0.19446746867E+02  0.19446746867E+02  0.00000000000E+00 0. -1.
         24    2    1    2    0    0 -0.44034552092E+02 -0.33524591840E+02  0.47107964503E+03  0.48122463234E+03  0.81229149764E+02 0.  0.
        -13    1    3    3    0    0 -0.38931058223E+02 -0.15353666461E+02  0.85591279755E+02  0.95274495738E+02  0.00000000000E+00 0.  1.
         14    1    3    3    0    0 -0.51034938690E+01 -0.18170925379E+02  0.38548836527E+03  0.38595013660E+03  0.00000000000E+00 0. -1.
          1    1    1    2  501    0  0.44034552092E+02  0.33524591840E+02  0.38897036618E+02  0.67645543043E+02  0.00000000000E+00 0. -1.
<mgrwt>
<rscale>  1 0.98290970E+02</rscale>
<asrwt>0</asrwt>
<pdfrwt beam="1">  1       21 0.29918076E-02 0.98290970E+02</pdfrwt>
<pdfrwt beam="2">  1        2 0.81449747E-01 0.98290970E+02</pdfrwt>
<totfact> 0.44693350E+05</totfact>
</mgrwt>
</event>
<event>
 6    2  0.9453093E+000  0.8411544E+02  0.7546771E-02  0.1317762E+00
         -3   -1    0    0    0  501 -0.00000000000E+00  0.00000000000E+00  0.33061904187E+02  0.33061904187E+02  0.00000000000E+00 0.  1.
         21   -1    0    0  501  502  0.00000000000E+00 -0.00000000000E+00 -0.87416383494E+02  0.87416383494E+02  0.00000000000E+00 0. -1.
         24    2    1    2    0    0  0.19129632775E+02  0.10908449748E+02 -0.34806547020E+02  0.91032425787E+02  0.81181707934E+02 0.  0.
        -13    1    3    3    0    0 -0.31465492098E+02 -0.18554949328E+01 -0.87725406829E+01  0.32718152828E+02  0.00000000000E+00 0.  1.
         14    1    3    3    0    0  0.50595124874E+02  0.12763944680E+02 -0.26034006337E+02  0.58314272959E+02  0.00000000000E+00 0. -1.
         -4    1    1    2    0  502 -0.19129632775E+02 -0.10908449748E+02 -0.19547932287E+02  0.29445861894E+02  0.00000000000E+00 0.  1.
<mgrwt>
<rscale>  1 0.84115438E+02</rscale>
<asrwt>0</asrwt>
<pdfrwt beam="1">  1       21 0.13448674E-01 0.84115438E+02</pdfrwt>
<pdfrwt beam="2">  1       -3 0.50864468E-02 0.84115438E+02</pdfrwt>
<totfact> 0.46148413E+05</totfact>
</mgrwt>
</event>
<event>
 6    2  0.9453093E+000  0.9987927E+02  0.7546771E-02  0.1280550E+00
         21   -1    0    0  501  502  0.00000000000E+00  0.00000000000E+00  0.32803048306E+02  0.32803048306E+02  0.00000000000E+00 0.  1.
          2   -1    0    0  502    0 -0.00000000000E+00 -0.00000000000E+00 -0.19835728762E+03  0.19835728762E+03  0.00000000000E+00 0. -1.
         24    2    1    2    0    0 -0.33361059255E+02  0.42639750054E+02 -0.13816752866E+03  0.17048793297E+03  0.83933073071E+02 0.  0.
        -13    1    3    3    0    0 -0.25170457549E+02 -0.57883543307E+01 -0.21997209030E+01  0.25920951972E+02  0.00000000000E+00 0.  1.
         14    1    3    3    0    0 -0.81906017063E+01  0.48428104385E+02 -0.13596780775E+03  0.14456698100E+03  0.00000000000E+00 0. -1.
          1    1    1    2  501    0  0.33361059255E+02 -0.42639750054E+02 -0.27386710655E+02  0.60672402950E+02  0.00000000000E+00 0. -1.
<mgrwt>
<rscale>  1 0.99879274E+02</rscale>
<asrwt>0</asrwt>
<pdfrwt beam="1">  1       21 0.50466228E-02 0.99879274E+02</pdfrwt>
<pdfrwt beam="2">  1        2 0.30516506E-01 0.99879274E+02</pdfrwt>
<totfact> 0.53484998E+05</totfact>
</mgrwt>
</event>
<event>
 6    2  0.9453093E+000  0.8713549E+02  0.7546771E-02  0.1309941E+00
         21   -1    0    0  501  502  0.00000000000E+00  0.00000000000E+00  0.18504350876E+01  0.18504350876E+01  0.00000000000E+00 0. -1.
          2   -1    0    0  502    0 -0.00000000000E+00 -0.00000000000E+00 -0.28088261346E+04  0.28088261346E+04  0.00000000000E+00 0. -1.
         24    2    1    2    0    0 -0.14721615882E+02 -0.18328345113E+02 -0.26873794448E+04  0.26887917128E+04  0.83904350440E+02 0.  0.
        -13    1    3    3    0    0 -0.14825672210E+02  0.35868567446E+01 -0.87477606765E+02  0.88797510006E+02  0.00000000000E+00 0.  1.
         14    1    3    3    0    0  0.10405632861E+00 -0.21915201857E+02 -0.25999018380E+04  0.25999942028E+04  0.00000000000E+00 0. -1.
          1    1    1    2  501    0  0.14721615882E+02  0.18328345113E+02 -0.11959625467E+03  0.12188485689E+03  0.00000000000E+00 0. -1.
<mgrwt>
<rscale>  1 0.87135494E+02</rscale>
<asrwt>0</asrwt>
<pdfrwt beam="1">  1       21 0.28468127E-03 0.87135494E+02</pdfrwt>
<pdfrwt beam="2">  1        2 0.43212869E+00 0.87135494E+02</pdfrwt>
<totfact> 0.93369645E+05</totfact>
</mgrwt>
</event>
<event>
 6    2  0.9453093E+000  0.8742503E+02  0.7546771E-02  0.1309210E+00
         21   -1    0    0  501  502  0.00000000000E+00  0.00000000000E+00  0.57873914682E+02  0.57873914682E+02  0.00000000000E+00 0.  1.
         -3   -1    0    0    0  501 -0.00000000000E+00 -0.00000000000E+00 -0.26596542637E+03  0.26596542637E+03  0.00000000000E+00 0.  1.
         24    2    1    2    0    0 -0.15421381322E+02  0.27558335574E+02 -0.25371358421E+03  0.26835371802E+03  0.81522109277E+02 0.  0.
        -13    1    3    3    0    0 -0.21647017671E+02  0.55072722249E+02 -0.17559908968E+03  0.18530147977E+03  0.00000000000E+00 0.  1.
         14    1    3    3    0    0  0.62256363490E+01 -0.27514386675E+02 -0.78114494531E+02  0.83052238247E+02  0.00000000000E+00 0. -1.
         -4    1    1    2    0  502  0.15421381322E+02 -0.27558335574E+02  0.45622072524E+02  0.55485623029E+02  0.00000000000E+00 0.  1.
<mgrwt>
<rscale>  1 0.87425026E+02</rscale>
<asrwt>0</asrwt>
<pdfrwt beam="1">  1       21 0.89036790E-02 0.87425026E+02</pdfrwt>
<pdfrwt beam="2">  1       -3 0.40917759E-01 0.87425026E+02</pdfrwt>
<totfact> 0.27289272E+04</totfact>
</mgrwt>
</event>
<event>
 6    2  0.9453093E+000  0.8430265E+02  0.7546771E-02  0.1317266E+00
          2   -1    0    0  502    0 -0.00000000000E+00  0.00000000000E+00  0.49685383534E+03  0.49685383534E+03  0.00000000000E+00 0. -1.
         21   -1    0    0  501  502  0.00000000000E+00 -0.00000000000E+00 -0.32833006820E+02  0.32833006820E+02  0.00000000000E+00 0. -1.
         24    2    1    2    0    0 -0.61778947870E+00 -0.22661884915E+02  0.48884952821E+03  0.49606531601E+03  0.81197252624E+02 0.  0.
        -11    1    3    3    0    0  0.37376936789E+02  0.39957299334E+01  0.19817252881E+03  0.20170610411E+03  0.00000000000E+00 0.  1.
         12    1    3    3    0    0 -0.37994726267E+02 -0.26657614848E+02  0.29067699939E+03  0.29435921190E+03  0.00000000000E+00 0. -1.
          1    1    1    2  501    0  0.61778947870E+00  0.22661884915E+02 -0.24828699691E+02  0.33621526142E+02  0.00000000000E+00 0. -1.
<mgrwt>
<rscale>  1 0.84302648E+02</rscale>
<asrwt>0</asrwt>
<pdfrwt beam="1">  1       21 0.50512322E-02 0.84302648E+02</pdfrwt>
<pdfrwt beam="2">  1        2 0.76439046E-01 0.84302648E+02</pdfrwt>
<totfact> 0.20034527E+05</totfact>
</mgrwt>
</event>
<event>
 6    2  0.9453093E+000  0.8564070E+02  0.7546771E-02  0.1313765E+00
         21   -1    0    0  501  502  0.00000000000E+00  0.00000000000E+00  0.37564458161E+02  0.37564458161E+02  0.00000000000E+00 0. -1.
          2   -1    0    0  502    0 -0.00000000000E+00 -0.00000000000E+00 -0.98168439854E+02  0.98168439854E+02  0.00000000000E+00 0. -1.
         24    2    1    2    0    0  0.55057445610E+00  0.21830581514E+02 -0.71281874964E+02  0.11142456968E+03  0.82809731369E+02 0.  0.
        -11    1    3    3    0    0 -0.26186936670E+02 -0.15416855177E+02 -0.54874674366E+02  0.62726907803E+02  0.00000000000E+00 0.  1.
         12    1    3    3    0    0  0.26737511126E+02  0.37247436691E+02 -0.16407200598E+02  0.48697661882E+02  0.00000000000E+00 0. -1.
          1    1    1    2  501    0 -0.55057445610E+00 -0.21830581514E+02  0.10677893271E+02  0.24308328330E+02  0.00000000000E+00 0. -1.
<mgrwt>
<rscale>  1 0.85640697E+02</rscale>
<asrwt>0</asrwt>
<pdfrwt beam="1">  1       21 0.57791475E-02 0.85640697E+02</pdfrwt>
<pdfrwt beam="2">  1        2 0.15102837E-01 0.85640697E+02</pdfrwt>
<totfact> 0.91666733E+05</totfact>
</mgrwt>
</event>
<event>
 6    2  0.9453093E+000  0.8959380E+02  0.7546771E-02  0.1303838E+00
          4   -1    0    0  502    0 -0.00000000000E+00  0.00000000000E+00  0.53851485214E+02  0.53851485214E+02  0.00000000000E+00 0. -1.
         21   -1    0    0  501  502  0.00000000000E+00 -0.00000000000E+00 -0.17573422719E+03  0.17573422719E+03  0.00000000000E+00 0. -1.
         24    2    1    2    0    0 -0.21773170823E+02  0.33496226130E+02  0.11518043190E+02  0.90331133968E+02  0.80193393197E+02 0.  0.
        -13    1    3    3    0    0  0.28148323140E+02  0.61171486410E+01 -0.84099037470E+01  0.30007900361E+02  0.00000000000E+00 0.  1.
         14    1    3    3    0    0 -0.49921493963E+02  0.27379077489E+02  0.19927946937E+02  0.60323233607E+02  0.00000000000E+00 0. -1.
          3    1    1    2  501    0  0.21773170823E+02 -0.33496226130E+02 -0.13340078517E+03  0.13925457844E+03  0.00000000000E+00 0. -1.
<mgrwt>
<rscale>  1 0.89593797E+02</rscale>
<asrwt>0</asrwt>
<pdfrwt beam="1">  1       21 0.27036035E-01 0.89593797E+02</pdfrwt>
<pdfrwt beam="2">  1        4 0.82848438E-02 0.89593797E+02</pdfrwt>
<totfact> 0.52258307E+04</totfact>
</mgrwt>
</event>
<event>
 6    2  0.9453093E+000  0.9692633E+02  0.7546771E-02  0.1286896E+00
          2   -1    0    0  502    0 -0.00000000000E+00  0.00000000000E+00  0.60231175654E+02  0.60231175654E+02  0.00000000000E+00 0. -1.
         21   -1    0    0  501  502  0.00000000000E+00 -0.00000000000E+00 -0.83817355999E+02  0.83817355999E+02  0.00000000000E+00 0.  1.
         24    2    1    2    0    0 -0.38288396803E+02  0.22791974827E+02 -0.22364882215E+02  0.99473123462E+02  0.86076935868E+02 0.  0.
        -11    1    3    3    0    0 -0.15443364291E+02  0.27906981543E+02 -0.52429396326E+02  0.61368874184E+02  0.00000000000E+00 0.  1.
         12    1    3    3    0    0 -0.22845032513E+02 -0.51150067159E+01  0.30064514112E+02  0.38104249277E+02  0.00000000000E+00 0. -1.
          1    1    1    2  501    0  0.38288396803E+02 -0.22791974827E+02 -0.12212981298E+01  0.44575408191E+02  0.00000000000E+00 0. -1.
<mgrwt>
<rscale>  1 0.96926335E+02</rscale>
<asrwt>0</asrwt>
<pdfrwt beam="1">  1       21 0.12894978E-01 0.96926335E+02</pdfrwt>
<pdfrwt beam="2">  1        2 0.92663348E-02 0.96926335E+02</pdfrwt>
<totfact> 0.41783013E+05</totfact>
</mgrwt>
</event>
<event>
 6    2  0.9453093E+000  0.9464116E+02  0.7546771E-02  0.1291986E+00
         21   -1    0    0  501  502  0.00000000000E+00  0.00000000000E+00  0.47557755759E+02  0.47557755759E+02  0.00000000000E+00 0. -1.
          2   -1    0    0  502    0 -0.00000000000E+00 -0.00000000000E+00 -0.11451892092E+03  0.11451892092E+03  0.00000000000E+00 0. -1.
         24    2    1    2    0    0  0.21640489782E+02  0.47782689850E+02 -0.36619759564E+02  0.10147884552E+03  0.78774698038E+02 0.  0.
        -11    1    3    3    0    0 -0.17968421658E+01  0.29824316878E+01  0.23025474465E+02  0.23287250050E+02  0.00000000000E+00 0.  1.
         12    1    3    3    0    0  0.23437331948E+02  0.44800258162E+02 -0.59645234029E+02  0.78191595473E+02  0.00000000000E+00 0. -1.
          1    1    1    2  501    0 -0.21640489782E+02 -0.47782689850E+02 -0.30341405601E+02  0.60597831158E+02  0.00000000000E+00 0. -1.
<mgrwt>
<rscale>  1 0.94641161E+02</rscale>
<asrwt>0</asrwt>
<pdfrwt beam="1">  1       21 0.73165779E-02 0.94641161E+02</pdfrwt>
<pdfrwt beam="2">  1        2 0.17618295E-01 0.94641161E+02</pdfrwt>
<totfact> 0.52137467E+05</totfact>
</mgrwt>
</event>
<event>
 6    2  0.9453093E+000  0.8714698E+02  0.7546771E-02  0.1309912E+00
          2   -1    0    0  502    0 -0.00000000000E+00  0.00000000000E+00  0.15599888793E+03  0.15599888793E+03  0.00000000000E+00 0. -1.
         21   -1    0    0  501  502  0.00000000000E+00 -0.00000000000E+00 -0.72471078380E+02  0.72471078380E+02  0.00000000000E+00 0. -1.
         24    2    1    2    0    0 -0.28776785606E+02 -0.29821759550E+01  0.14006355408E+03  0.16496180012E+03  0.82204620031E+02 0.  0.
        -11    1    3    3    0    0 -0.78951520558E+01 -0.51683177274E+00 -0.10382428443E+02  0.13053557425E+02  0.00000000000E+00 0.  1.
         12    1    3    3    0    0 -0.20881633550E+02 -0.24653441823E+01  0.15044598253E+03  0.15190824270E+03  0.00000000000E+00 0. -1.
          1    1    1    2  501    0  0.28776785606E+02  0.29821759550E+01 -0.56535744530E+02  0.63508166190E+02  0.00000000000E+00 0. -1.
<mgrwt>
<rscale>  1 0.87146981E+02</rscale>
<asrwt>0</asrwt>
<pdfrwt beam="1">  1       21 0.11149397E-01 0.87146981E+02</pdfrwt>
<pdfrwt beam="2">  1        2 0.23999829E-01 0.87146981E+02</pdfrwt>
<totfact> 0.17780139E+05</totfact>
</mgrwt>
</event>
<event>
 6    2  0.9453093E+000  0.8287403E+02  0.7546771E-02  0.1321088E+00
          2   -1    0    0  502    0 -0.00000000000E+00  0.00000000000E+00  0.23685596938E+03  0.23685596938E+03  0.00000000000E+00 0. -1.
         21   -1    0    0  501  502  0.00000000000E+00 -0.00000000000E+00 -0.23073062556E+02  0.23073062556E+02  0.00000000000E+00 0. -1.
         24    2    1    2    0    0 -0.22561259301E+02 -0.23453157078E+02  0.21167217871E+03  0.22731743627E+03  0.76217088622E+02 0.  0.
        -13    1    3    3    0    0 -0.49849253943E+01 -0.93409187442E+01 -0.33591411319E+01  0.11107928399E+02  0.00000000000E+00 0.  1.
         14    1    3    3    0    0 -0.17576333907E+02 -0.14112238334E+02  0.21503131984E+03  0.21620950788E+03  0.00000000000E+00 0. -1.
          1    1    1    2  501    0  0.22561259301E+02  0.23453157078E+02  0.21107281141E+01  0.32611595657E+02  0.00000000000E+00 0. -1.
<mgrwt>
<rscale>  1 0.82874035E+02</rscale>
<asrwt>0</asrwt>
<pdfrwt beam="1">  1       21 0.35497021E-02 0.82874035E+02</pdfrwt>
<pdfrwt beam="2">  1        2 0.36439378E-01 0.82874035E+02</pdfrwt>
<totfact> 0.77843400E+05</totfact>
</mgrwt>
</event>
<event>
 6    2  0.9453093E+000  0.8486572E+02  0.7546771E-02  0.1315784E+00
          2   -1    0    0  502    0 -0.00000000000E+00  0.00000000000E+00  0.31725516689E+04  0.31725516689E+04  0.00000000000E+00 0. -1.
         21   -1    0    0  501  502  0.00000000000E+00 -0.00000000000E+00 -0.12360813227E+01  0.12360813227E+01  0.00000000000E+00 0. -1.
         24    2    1    2    0    0  0.23979283491E+02 -0.92036386425E+01  0.29043018584E+04  0.29055415116E+04  0.80885583048E+02 0.  0.
        -11    1    3    3    0    0  0.22604103306E+02  0.68930809168E+01  0.23389691634E+03  0.23508770177E+03  0.00000000000E+00 0.  1.
         12    1    3    3    0    0  0.13751801850E+01 -0.16096719559E+02  0.26704049421E+04  0.26704538098E+04  0.00000000000E+00 0. -1.
          1    1    1    2  501    0 -0.23979283491E+02  0.92036386425E+01  0.26701372914E+03  0.26824623865E+03  0.00000000000E+00 0. -1.
<mgrwt>
<rscale>  1 0.84865721E+02</rscale>
<asrwt>0</asrwt>
<pdfrwt beam="1">  1       21 0.19016890E-03 0.84865721E+02</pdfrwt>
<pdfrwt beam="2">  1        2 0.48807835E+00 0.84865721E+02</pdfrwt>
<totfact> 0.10634374E+06</totfact>
</mgrwt>
</event>
<event>
 6    2  0.9453093E+000  0.8527774E+02  0.7546771E-02  0.1314708E+00
          2   -1    0    0  502    0 -0.00000000000E+00  0.00000000000E+00  0.15123240745E+04  0.15123240745E+04  0.00000000000E+00 0. -1.
         21   -1    0    0  501  502  0.00000000000E+00 -0.00000000000E+00 -0.28038624159E+01  0.28038624159E+01  0.00000000000E+00 0. -1.
         24    2    1    2    0    0 -0.27161655330E+02  0.13827072205E+02  0.13519618835E+04  0.13546487471E+04  0.79645151992E+02 0.  0.
        -13    1    3    3    0    0  0.49213637039E+01 -0.26688958809E+02  0.74380624417E+03  0.74430118178E+03  0.00000000000E+00 0.  1.
         14    1    3    3    0    0 -0.32083019034E+02  0.40516031014E+02  0.60815563930E+03  0.61034756532E+03  0.00000000000E+00 0. -1.
          1    1    1    2  501    0  0.27161655330E+02 -0.13827072205E+02  0.15755832859E+03  0.16047918979E+03  0.00000000000E+00 0. -1.
<mgrwt>
<rscale>  1 0.85277744E+02</rscale>
<asrwt>0</asrwt>
<pdfrwt beam="1">  1       21 0.43136466E-03 0.85277744E+02</pdfrwt>
<pdfrwt beam="2">  1        2 0.23266459E+00 0.85277744E+02</pdfrwt>
<totfact> 0.22982587E+06</totfact>
</mgrwt>
</event>
<event>
 6    2  0.9453093E+000  0.1015743E+03  0.7546771E-02  0.1277020E+00
         21   -1    0    0  501  502  0.00000000000E+00  0.00000000000E+00  0.86567533964E+02  0.86567533964E+02  0.00000000000E+00 0. -1.
          2   -1    0    0  502    0 -0.00000000000E+00 -0.00000000000E+00 -0.82621907900E+02  0.82621907900E+02  0.00000000000E+00 0. -1.
         24    2    1    2    0    0 -0.22829145666E+02  0.58379107777E+02  0.22056611688E+02  0.10394146935E+03  0.79925245168E+02 0.  0.
        -11    1    3    3    0    0 -0.90926650577E+01  0.31428199974E+02  0.51962433884E+02  0.61404420416E+02  0.00000000000E+00 0.  1.
         12    1    3    3    0    0 -0.13736480609E+02  0.26950907803E+02 -0.29905822197E+02  0.42537048936E+02  0.00000000000E+00 0. -1.
          1    1    1    2  501    0  0.22829145666E+02 -0.58379107777E+02 -0.18110985624E+02  0.65247972512E+02  0.00000000000E+00 0. -1.
<mgrwt>
<rscale>  1 0.10157428E+03</rscale>
<asrwt>0</asrwt>
<pdfrwt beam="1">  1       21 0.13318082E-01 0.10157428E+03</pdfrwt>
<pdfrwt beam="2">  1        2 0.12711063E-01 0.10157428E+03</pdfrwt>
<totfact> 0.27068137E+05</totfact>
</mgrwt>
</event>
<event>
 6    2  0.1374838E+001  0.8498033E+02  0.7546771E-02  0.1315484E+00
         -1   -1    0    0    0  501 -0.00000000000E+00  0.00000000000E+00  0.48055302396E+03  0.48055302396E+03  0.00000000000E+00 0.  1.
         21   -1    0    0  501  502  0.00000000000E+00 -0.00000000000E+00 -0.24421533316E+02  0.24421533316E+02  0.00000000000E+00 0.  1.
         24    2    1    2    0    0  0.11116438884E+02 -0.24143732053E+02  0.46815231155E+03  0.47580273618E+03  0.80716553050E+02 0.  0.
        -13    1    3    3    0    0  0.19750506315E+02 -0.21295654304E+02  0.46539740387E+03  0.46630283178E+03  0.00000000000E+00 0.  1.
         14    1    3    3    0    0 -0.86340674317E+01 -0.28480777493E+01  0.27549076713E+01  0.94999043973E+01  0.00000000000E+00 0. -1.
         -2    1    1    2    0  502 -0.11116438884E+02  0.24143732053E+02 -0.12020820905E+02  0.29171821097E+02  0.00000000000E+00 0.  1.
<mgrwt>
<rscale>  1 0.84980333E+02</rscale>
<asrwt>0</asrwt>
<pdfrwt beam="1">  1       21 0.37571593E-02 0.84980333E+02</pdfrwt>
<pdfrwt beam="2">  1       -1 0.73931228E-01 0.84980333E+02</pdfrwt>
<totfact> 0.75214421E+04</totfact>
</mgrwt>
</event>
<event>
 6    2  0.9453093E+000  0.8227448E+02  0.7546771E-02  0.1322718E+00
         21   -1    0    0  501  502  0.00000000000E+00  0.00000000000E+00  0.79435528914E+01  0.79435528914E+01  0.00000000000E+00 0. -1.
          2   -1    0    0  502    0 -0.00000000000E+00 -0.00000000000E+00 -0.58148213089E+03  0.58148213089E+03  0.00000000000E+00 0. -1.
         24    2    1    2    0    0  0.40084610329E+02  0.34494392700E+02 -0.31785761023E+03  0.32833298684E+03  0.63027381020E+02 0.  0.
        -11    1    3    3    0    0 -0.75253370293E+01  0.91840586329E+01 -0.92522860124E+01  0.15052655142E+02  0.00000000000E+00 0.  1.
         12    1    3    3    0    0  0.47609947358E+02  0.25310334067E+02 -0.30860532421E+03  0.31328033170E+03  0.00000000000E+00 0. -1.
          1    1    1    2  501    0 -0.40084610329E+02 -0.34494392700E+02 -0.25568096777E+03  0.26109269693E+03  0.00000000000E+00 0. -1.
<mgrwt>
<rscale>  1 0.82274479E+02</rscale>
<asrwt>0</asrwt>
<pdfrwt beam="1">  1       21 0.12220841E-02 0.82274479E+02</pdfrwt>
<pdfrwt beam="2">  1        2 0.89458859E-01 0.82274479E+02</pdfrwt>
<totfact> 0.16584121E+06</totfact>
</mgrwt>
</event>
<event>
 6    2  0.9453093E+000  0.1128869E+03  0.7546771E-02  0.1255315E+00
         21   -1    0    0  501  502  0.00000000000E+00  0.00000000000E+00  0.49250862998E+03  0.49250862998E+03  0.00000000000E+00 0. -1.
          2   -1    0    0  502    0 -0.00000000000E+00 -0.00000000000E+00 -0.10948264656E+03  0.10948264656E+03  0.00000000000E+00 0. -1.
         24    2    1    2    0    0 -0.71915227186E+02  0.30655063694E+02 -0.76174532239E+02  0.13618375576E+03  0.81436620379E+02 0.  0.
        -13    1    3    3    0    0 -0.34852630014E+02  0.39173253897E+02 -0.15826707184E+01  0.52457168112E+02  0.00000000000E+00 0.  1.
         14    1    3    3    0    0 -0.37062597172E+02 -0.85181902029E+01 -0.74591861520E+02  0.83726587644E+02  0.00000000000E+00 0. -1.
          1    1    1    2  501    0  0.71915227186E+02 -0.30655063694E+02  0.45920051566E+03  0.46580752078E+03  0.00000000000E+00 0. -1.
<mgrwt>
<rscale>  1 0.11288692E+03</rscale>
<asrwt>0</asrwt>
<pdfrwt beam="1">  1       21 0.75770557E-01 0.11288692E+03</pdfrwt>
<pdfrwt beam="2">  1        2 0.16843484E-01 0.11288692E+03</pdfrwt>
<totfact> 0.65796965E+03</totfact>
</mgrwt>
</event>
<event>
 6    2  0.9453093E+000  0.1742599E+03  0.7546771E-02  0.1173477E+00
          4   -1    0    0  502    0 -0.00000000000E+00  0.00000000000E+00  0.25618053857E+02  0.25618053857E+02  0.00000000000E+00 0. -1.
         21   -1    0    0  501  502  0.00000000000E+00 -0.00000000000E+00 -0.19904685499E+04  0.19904685499E+04  0.00000000000E+00 0. -1.
         24    2    1    2    0    0  0.40511109082E+02 -0.14878194771E+03 -0.32298125929E+03  0.36699236493E+03  0.81174405706E+02 0.  0.
        -13    1    3    3    0    0 -0.85020859773E+01  0.46711186530E+01 -0.42028045324E+02  0.43133066309E+02  0.00000000000E+00 0.  1.
         14    1    3    3    0    0  0.49013195059E+02 -0.15345306637E+03 -0.28095321397E+03  0.32385929862E+03  0.00000000000E+00 0. -1.
          3    1    1    2  501    0 -0.40511109082E+02  0.14878194771E+03 -0.16418692367E+04  0.16490942388E+04  0.00000000000E+00 0. -1.
<mgrwt>
<rscale>  1 0.17425987E+03</rscale>
<asrwt>0</asrwt>
<pdfrwt beam="1">  1       21 0.30622608E+00 0.17425987E+03</pdfrwt>
<pdfrwt beam="2">  1        4 0.39412371E-02 0.17425987E+03</pdfrwt>
<totfact> 0.46867648E+02</totfact>
</mgrwt>
</event>
<event>
 6    2  0.9453093E+000  0.8921868E+02  0.7546771E-02  0.1304755E+00
          2   -1    0    0  502    0 -0.00000000000E+00  0.00000000000E+00  0.22838430254E+03  0.22838430254E+03  0.00000000000E+00 0. -1.
         21   -1    0    0  501  502  0.00000000000E+00 -0.00000000000E+00 -0.30611695887E+02  0.30611695887E+02  0.00000000000E+00 0.  1.
         24    2    1    2    0    0 -0.16578644055E+01 -0.37517339393E+02  0.41725390683E+02  0.98493559561E+02  0.80930054849E+02 0.  0.
        -11    1    3    3    0    0  0.26797451021E+02 -0.50728065236E+02  0.31765492946E+02  0.65578094864E+02  0.00000000000E+00 0.  1.
         12    1    3    3    0    0 -0.28455315427E+02  0.13210725843E+02  0.99598977364E+01  0.32915464697E+02  0.00000000000E+00 0. -1.
          1    1    1    2  501    0  0.16578644055E+01  0.37517339393E+02  0.15604721597E+03  0.16050243887E+03  0.00000000000E+00 0. -1.
<mgrwt>
<rscale>  1 0.89218681E+02</rscale>
<asrwt>0</asrwt>
<pdfrwt beam="1">  1       21 0.47094918E-02 0.89218681E+02</pdfrwt>
<pdfrwt beam="2">  1        2 0.35136045E-01 0.89218681E+02</pdfrwt>
<totfact> 0.51153972E+05</totfact>
</mgrwt>
</event>
<event>
 6    2  0.9453093E+000  0.1066414E+03  0.7546771E-02  0.1266919E+00
          2   -1    0    0  502    0 -0.00000000000E+00  0.00000000000E+00  0.68148950219E+03  0.68148950219E+03  0.00000000000E+00 0. -1.
         21   -1    0    0  501  502  0.00000000000E+00 -0.00000000000E+00 -0.13719699676E+02  0.13719699676E+02  0.00000000000E+00 0. -1.
         24    2    1    2    0    0  0.18231829660E+02  0.66385666909E+02  0.53635578169E+03  0.54685455498E+03  0.81442761285E+02 0.  0.
        -11    1    3    3    0    0 -0.10790643542E+01 -0.47842749835E+01 -0.52541852864E+00  0.49325177778E+01  0.00000000000E+00 0.  1.
         12    1    3    3    0    0  0.19310894014E+02  0.71169941892E+02  0.53688120022E+03  0.54192203720E+03  0.00000000000E+00 0. -1.
          1    1    1    2  501    0 -0.18231829660E+02 -0.66385666909E+02  0.13141402083E+03  0.14835464689E+03  0.00000000000E+00 0. -1.
<mgrwt>
<rscale>  1 0.10664136E+03</rscale>
<asrwt>0</asrwt>
<pdfrwt beam="1">  1       21 0.21107236E-02 0.10664136E+03</pdfrwt>
<pdfrwt beam="2">  1        2 0.10484451E+00 0.10664136E+03</pdfrwt>
<totfact> 0.59497433E+05</totfact>
</mgrwt>
</event>
<event>
 6    2  0.9453093E+000  0.9532138E+02  0.7546771E-02  0.1290454E+00
         21   -1    0    0  501  502  0.00000000000E+00  0.00000000000E+00  0.15686058186E+02  0.15686058186E+02  0.00000000000E+00 0. -1.
          2   -1    0    0  502    0 -0.00000000000E+00 -0.00000000000E+00 -0.96224818356E+03  0.96224818356E+03  0.00000000000E+00 0. -1.
         24    2    1    2    0    0  0.48217943856E+02 -0.13810401895E+02 -0.91212760623E+03  0.91709483495E+03  0.81058429151E+02 0.  0.
        -11    1    3    3    0    0  0.17548096019E+02 -0.23780474991E+01 -0.33803568967E+02  0.38161132828E+02  0.00000000000E+00 0.  1.
         12    1    3    3    0    0  0.30669847837E+02 -0.11432354396E+02 -0.87832403727E+03  0.87893370213E+03  0.00000000000E+00 0. -1.
          1    1    1    2  501    0 -0.48217943856E+02  0.13810401895E+02 -0.34434519137E+02  0.60839406789E+02  0.00000000000E+00 0. -1.
<mgrwt>
<rscale>  1 0.95321384E+02</rscale>
<asrwt>0</asrwt>
<pdfrwt beam="1">  1       21 0.24132393E-02 0.95321384E+02</pdfrwt>
<pdfrwt beam="2">  1        2 0.14803821E+00 0.95321384E+02</pdfrwt>
<totfact> 0.31076594E+05</totfact>
</mgrwt>
</event>
<event>
 6    2  0.9453093E+000  0.8255072E+02  0.7546771E-02  0.1321965E+00
          4   -1    0    0  502    0 -0.00000000000E+00  0.00000000000E+00  0.37697488425E+03  0.37697488425E+03  0.00000000000E+00 0. -1.
         21   -1    0    0  501  502  0.00000000000E+00 -0.00000000000E+00 -0.10454196408E+03  0.10454196408E+03  0.00000000000E+00 0. -1.
         24    2    1    2    0    0  0.89119856097E+01  0.25443448887E+02  0.37061674840E+03  0.37969908609E+03  0.78024542304E+02 0.  0.
        -11    1    3    3    0    0  0.12757215919E+02  0.51427199619E+02  0.29315791031E+03  0.29790781090E+03  0.00000000000E+00 0.  1.
         12    1    3    3    0    0 -0.38452303089E+01 -0.25983750732E+02  0.77458838095E+02  0.81791275191E+02  0.00000000000E+00 0. -1.
          3    1    1    2  501    0 -0.89119856097E+01 -0.25443448887E+02 -0.98183828238E+02  0.10181776223E+03  0.00000000000E+00 0. -1.
<mgrwt>
<rscale>  1 0.82550722E+02</rscale>
<asrwt>0</asrwt>
<pdfrwt beam="1">  1       21 0.16083379E-01 0.82550722E+02</pdfrwt>
<pdfrwt beam="2">  1        4 0.57996135E-01 0.82550722E+02</pdfrwt>
<totfact> 0.39062262E+03</totfact>
</mgrwt>
</event>
<event>
 6    2  0.9453093E+000  0.1232996E+03  0.7546771E-02  0.1237751E+00
          4   -1    0    0  502    0 -0.00000000000E+00  0.00000000000E+00  0.15563464414E+04  0.15563464414E+04  0.00000000000E+00 0. -1.
         21   -1    0    0  501  502  0.00000000000E+00 -0.00000000000E+00 -0.18607096714E+02  0.18607096714E+02  0.00000000000E+00 0. -1.
         24    2    1    2    0    0  0.93201640694E+02 -0.50992824449E+01  0.14169358339E+04  0.14222903902E+04  0.80562076873E+02 0.  0.
        -13    1    3    3    0    0 -0.99285297555E+01  0.82416370398E+01  0.59798698356E+02  0.61175032564E+02  0.00000000000E+00 0.  1.
         14    1    3    3    0    0  0.10313017045E+03 -0.13340919485E+02  0.13571371355E+04  0.13611153576E+04  0.00000000000E+00 0. -1.
          3    1    1    2  501    0 -0.93201640694E+02  0.50992824449E+01  0.12080351086E+03  0.15266314796E+03  0.00000000000E+00 0. -1.
<mgrwt>
<rscale>  1 0.12329962E+03</rscale>
<asrwt>0</asrwt>
<pdfrwt beam="1">  1       21 0.28626315E-02 0.12329962E+03</pdfrwt>
<pdfrwt beam="2">  1        4 0.23943781E+00 0.12329962E+03</pdfrwt>
<totfact> 0.23775817E+03</totfact>
</mgrwt>
</event>
<event>
 6    2  0.9453093E+000  0.9082145E+02  0.7546771E-02  0.1300875E+00
          4   -1    0    0  502    0 -0.00000000000E+00  0.00000000000E+00  0.75972937835E+02  0.75972937835E+02  0.00000000000E+00 0. -1.
         21   -1    0    0  501  502  0.00000000000E+00 -0.00000000000E+00 -0.38892545613E+03  0.38892545613E+03  0.00000000000E+00 0. -1.
         24    2    1    2    0    0 -0.33737871304E+02  0.25315319706E+02  0.47151987994E+02  0.10233203477E+03  0.80432742064E+02 0.  0.
        -11    1    3    3    0    0  0.10446833277E+02  0.29699359164E+01 -0.17683456930E+02  0.20752385257E+02  0.00000000000E+00 0.  1.
         12    1    3    3    0    0 -0.44184704582E+02  0.22345383789E+02  0.64835444924E+02  0.81579649510E+02  0.00000000000E+00 0. -1.
          3    1    1    2  501    0  0.33737871304E+02 -0.25315319706E+02 -0.36010450629E+03  0.36256635920E+03  0.00000000000E+00 0. -1.
<mgrwt>
<rscale>  1 0.90821448E+02</rscale>
<asrwt>0</asrwt>
<pdfrwt beam="1">  1       21 0.59834684E-01 0.90821448E+02</pdfrwt>
<pdfrwt beam="2">  1        4 0.11688145E-01 0.90821448E+02</pdfrwt>
<totfact> 0.60926913E+03</totfact>
</mgrwt>
</event>
<event>
 6    2  0.9453093E+000  0.9168299E+02  0.7546771E-02  0.1298827E+00
          2   -1    0    0  502    0 -0.00000000000E+00  0.00000000000E+00  0.25457287853E+04  0.25457287853E+04  0.00000000000E+00 0. -1.
         21   -1    0    0  501  502  0.00000000000E+00 -0.00000000000E+00 -0.20955263370E+01  0.20955263370E+01  0.00000000000E+00 0. -1.
         24    2    1    2    0    0 -0.43258559271E+02 -0.13155674736E+02  0.20723473465E+04  0.20743744346E+04  0.79758359295E+02 0.  0.
        -13    1    3    3    0    0  0.96996764212E+01 -0.13290395131E+02  0.10224346987E+03  0.10355889849E+03  0.00000000000E+00 0.  1.
         14    1    3    3    0    0 -0.52958235692E+02  0.13472039508E+00  0.19701038766E+04  0.19708155362E+04  0.00000000000E+00 0. -1.
          1    1    1    2  501    0  0.43258559271E+02  0.13155674736E+02  0.47128591246E+03  0.47344987698E+03  0.00000000000E+00 0. -1.
<mgrwt>
<rscale>  1 0.91682990E+02</rscale>
<asrwt>0</asrwt>
<pdfrwt beam="1">  1       21 0.32239070E-03 0.91682990E+02</pdfrwt>
<pdfrwt beam="2">  1        2 0.39164811E+00 0.91682990E+02</pdfrwt>
<totfact> 0.10733092E+06</totfact>
</mgrwt>
</event>
<event>
 6    2  0.9453093E+000  0.8809798E+02  0.7546771E-02  0.1307524E+00
         21   -1    0    0  501  502  0.00000000000E+00  0.00000000000E+00  0.39201345974E+02  0.39201345974E+02  0.00000000000E+00 0.  1.
         -1   -1    0    0    0  501 -0.00000000000E+00 -0.00000000000E+00 -0.31894752045E+03  0.31894752045E+03  0.00000000000E+00 0.  1.
         24    2    1    2    0    0  0.23998575474E+02 -0.30768754051E+02 -0.13581110780E+02  0.89138664047E+02  0.78984853025E+02 0.  0.
        -11    1    3    3    0    0 -0.67041741322E+01 -0.50826612174E+02 -0.10538006416E+02  0.52338704943E+02  0.00000000000E+00 0.  1.
         12    1    3    3    0    0  0.30702749606E+02  0.20057858123E+02 -0.30431043639E+01  0.36799959104E+02  0.00000000000E+00 0. -1.
         -2    1    1    2    0  502 -0.23998575474E+02  0.30768754051E+02 -0.26616506370E+03  0.26901020238E+03  0.00000000000E+00 0.  1.
<mgrwt>
<rscale>  1 0.88097984E+02</rscale>
<asrwt>0</asrwt>
<pdfrwt beam="1">  1       21 0.60309762E-02 0.88097984E+02</pdfrwt>
<pdfrwt beam="2">  1       -1 0.49068850E-01 0.88097984E+02</pdfrwt>
<totfact> 0.74357381E+04</totfact>
</mgrwt>
</event>
<event>
 6    2  0.9453093E+000  0.1093575E+03  0.7546771E-02  0.1261764E+00
          2   -1    0    0  502    0 -0.00000000000E+00  0.00000000000E+00  0.37301836468E+03  0.37301836468E+03  0.00000000000E+00 0. -1.
         21   -1    0    0  501  502  0.00000000000E+00 -0.00000000000E+00 -0.47822930792E+02  0.47822930792E+02  0.00000000000E+00 0. -1.
         24    2    1    2    0    0  0.57796396575E+02 -0.49198011011E+02  0.32712126842E+03  0.34491648673E+03  0.78728589575E+02 0.  0.
        -13    1    3    3    0    0 -0.18608265541E+02 -0.18243388740E+02  0.98411645039E+02  0.10180344129E+03  0.00000000000E+00 0.  1.
         14    1    3    3    0    0  0.76404662116E+02 -0.30954622270E+02  0.22870962338E+03  0.24311304544E+03  0.00000000000E+00 0. -1.
          1    1    1    2  501    0 -0.57796396575E+02  0.49198011011E+02 -0.19258345348E+01  0.75924808746E+02  0.00000000000E+00 0. -1.
<mgrwt>
<rscale>  1 0.10935748E+03</rscale>
<asrwt>0</asrwt>
<pdfrwt beam="1">  1       21 0.73573742E-02 0.10935748E+03</pdfrwt>
<pdfrwt beam="2">  1        2 0.57387439E-01 0.10935748E+03</pdfrwt>
<totfact> 0.14611334E+05</totfact>
</mgrwt>
</event>
<event>
 6    2  0.9453093E+000  0.8376343E+02  0.7546771E-02  0.1318698E+00
         21   -1    0    0  501  502  0.00000000000E+00  0.00000000000E+00  0.19975179569E+01  0.19975179569E+01  0.00000000000E+00 0.  1.
          4   -1    0    0  502    0 -0.00000000000E+00 -0.00000000000E+00 -0.13982558676E+04  0.13982558676E+04  0.00000000000E+00 0. -1.
         24    2    1    2    0    0 -0.21685571530E+02  0.27023121660E+01 -0.10844121623E+04  0.10876424275E+04  0.80862512737E+02 0.  0.
        -11    1    3    3    0    0 -0.76867924051E+01 -0.38990611778E+02 -0.53198654547E+03  0.53346887364E+03  0.00000000000E+00 0.  1.
         12    1    3    3    0    0 -0.13998779125E+02  0.41692923944E+02 -0.55242561681E+03  0.55417355390E+03  0.00000000000E+00 0. -1.
          3    1    1    2  501    0  0.21685571530E+02 -0.27023121660E+01 -0.31184618739E+03  0.31261095805E+03  0.00000000000E+00 0. -1.
<mgrwt>
<rscale>  1 0.83763432E+02</rscale>
<asrwt>0</asrwt>
<pdfrwt beam="1">  1       21 0.30731006E-03 0.83763432E+02</pdfrwt>
<pdfrwt beam="2">  1        4 0.21511657E+00 0.83763432E+02</pdfrwt>
<totfact> 0.10473552E+05</totfact>
</mgrwt>
</event>
<event>
 6    2  0.9453093E+000  0.1194162E+03  0.7546771E-02  0.1244063E+00
         21   -1    0    0  501  502  0.00000000000E+00  0.00000000000E+00  0.13630965039E+02  0.13630965039E+02  0.00000000000E+00 0. -1.
          2   -1    0    0  502    0 -0.00000000000E+00 -0.00000000000E+00 -0.11389999204E+04  0.11389999204E+04  0.00000000000E+00 0. -1.
         24    2    1    2    0    0 -0.92491809220E+02  0.24231320432E+01 -0.91571454815E+03  0.92346811183E+03  0.75495784909E+02 0.  0.
        -11    1    3    3    0    0  0.42204935657E+01  0.80968284932E+01 -0.15014031536E+02  0.17572488172E+02  0.00000000000E+00 0.  1.
         12    1    3    3    0    0 -0.96712302785E+02 -0.56736964500E+01 -0.90070051661E+03  0.90589562366E+03  0.00000000000E+00 0. -1.
          1    1    1    2  501    0  0.92491809220E+02 -0.24231320432E+01 -0.20965440718E+03  0.22916277357E+03  0.00000000000E+00 0. -1.
<mgrwt>
<rscale>  1 0.11941616E+03</rscale>
<asrwt>0</asrwt>
<pdfrwt beam="1">  1       21 0.20970726E-02 0.11941616E+03</pdfrwt>
<pdfrwt beam="2">  1        2 0.17523067E+00 0.11941616E+03</pdfrwt>
<totfact> 0.31100061E+05</totfact>
</mgrwt>
</event>
<event>
 6    2  0.9453093E+000  0.9970371E+02  0.7546771E-02  0.1280920E+00
         21   -1    0    0  501  502  0.00000000000E+00  0.00000000000E+00  0.70322606492E+02  0.70322606492E+02  0.00000000000E+00 0.  1.
         -1   -1    0    0    0  501 -0.00000000000E+00 -0.00000000000E+00 -0.42553662828E+03  0.42553662828E+03  0.00000000000E+00 0.  1.
         24    2    1    2    0    0 -0.53913374589E+02  0.80944824572E+00 -0.40823752772E+03  0.42023649119E+03  0.83866097580E+02 0.  0.
        -11    1    3    3    0    0 -0.65750258206E+02  0.25999460496E+02 -0.31980125386E+03  0.32752390809E+03  0.00000000000E+00 0.  1.
         12    1    3    3    0    0  0.11836883617E+02 -0.25190012250E+02 -0.88436273854E+02  0.92712583094E+02  0.00000000000E+00 0. -1.
         -2    1    1    2    0  502  0.53913374589E+02 -0.80944824572E+00  0.53023505930E+02  0.75622743584E+02  0.00000000000E+00 0.  1.
<mgrwt>
<rscale>  1 0.99703709E+02</rscale>
<asrwt>0</asrwt>
<pdfrwt beam="1">  1       21 0.10818862E-01 0.99703709E+02</pdfrwt>
<pdfrwt beam="2">  1       -1 0.65467175E-01 0.99703709E+02</pdfrwt>
<totfact> 0.16069343E+04</totfact>
</mgrwt>
</event>
<event>
 6    2  0.9453093E+000  0.9329727E+02  0.7546771E-02  0.1295058E+00
         21   -1    0    0  501  502  0.00000000000E+00  0.00000000000E+00  0.10210526688E+02  0.10210526688E+02  0.00000000000E+00 0. -1.
          2   -1    0    0  502    0 -0.00000000000E+00 -0.00000000000E+00 -0.68776710253E+03  0.68776710253E+03  0.00000000000E+00 0. -1.
         24    2    1    2    0    0  0.18999788605E+02 -0.47602162486E+02 -0.58305047048E+03  0.59046780738E+03  0.77957825709E+02 0.  0.
        -11    1    3    3    0    0  0.29257806385E+02  0.12858374026E+02 -0.19492203498E+03  0.19752457249E+03  0.00000000000E+00 0.  1.
         12    1    3    3    0    0 -0.10258017780E+02 -0.60460536512E+02 -0.38812843550E+03  0.39294323489E+03  0.00000000000E+00 0. -1.
          1    1    1    2  501    0 -0.18999788605E+02  0.47602162486E+02 -0.94506105366E+02  0.10750982184E+03  0.00000000000E+00 0. -1.
<mgrwt>
<rscale>  1 0.93297269E+02</rscale>
<asrwt>0</asrwt>
<pdfrwt beam="1">  1       21 0.15708500E-02 0.93297269E+02</pdfrwt>
<pdfrwt beam="2">  1        2 0.10581034E+00 0.93297269E+02</pdfrwt>
<totfact> 0.93414096E+05</totfact>
</mgrwt>
</event>
<event>
 6    2  0.9453093E+000  0.5654238E+02  0.7546771E-02  0.1412943E+00
         21   -1    0    0  501  502  0.00000000000E+00  0.00000000000E+00  0.27539863924E+03  0.27539863924E+03  0.00000000000E+00 0.  1.
          2   -1    0    0  502    0 -0.00000000000E+00 -0.00000000000E+00 -0.60770212301E+01  0.60770212301E+01  0.00000000000E+00 0. -1.
         24    2    1    2    0    0 -0.15924983249E+02  0.19064665669E+02  0.17317874754E+03  0.18217551893E+03  0.50793449655E+02 0.  0.
        -13    1    3    3    0    0 -0.11509986747E+02  0.36324336939E+02  0.12990104829E+03  0.13537436831E+03  0.00000000000E+00 0.  1.
         14    1    3    3    0    0 -0.44149965013E+01 -0.17259671270E+02  0.43277699253E+02  0.46801150617E+02  0.00000000000E+00 0. -1.
          1    1    1    2  501    0  0.15924983249E+02 -0.19064665669E+02  0.96142870472E+02  0.99300141546E+02  0.00000000000E+00 0. -1.
<mgrwt>
<rscale>  1 0.56542383E+02</rscale>
<asrwt>0</asrwt>
<pdfrwt beam="1">  1       21 0.42369012E-01 0.56542383E+02</pdfrwt>
<pdfrwt beam="2">  1        2 0.93492656E-03 0.56542383E+02</pdfrwt>
<totfact> 0.87164562E+05</totfact>
</mgrwt>
</event>
<event>
 6    2  0.9453093E+000  0.9286414E+02  0.7546771E-02  0.1296060E+00
          2   -1    0    0  502    0 -0.00000000000E+00  0.00000000000E+00  0.18956099584E+04  0.18956099584E+04  0.00000000000E+00 0. -1.
         21   -1    0    0  501  502  0.00000000000E+00 -0.00000000000E+00 -0.30386040520E+01  0.30386040520E+01  0.00000000000E+00 0.  1.
         24    2    1    2    0    0 -0.43113719250E+02  0.17753109646E+02  0.85463399006E+03  0.85966447312E+03  0.80310545371E+02 0.  0.
        -11    1    3    3    0    0  0.10223652050E+02 -0.23006886516E+02  0.19340954009E+03  0.19504125227E+03  0.00000000000E+00 0.  1.
         12    1    3    3    0    0 -0.53337371300E+02  0.40759996162E+02  0.66122444996E+03  0.66462322085E+03  0.00000000000E+00 0. -1.
          1    1    1    2  501    0  0.43113719250E+02 -0.17753109646E+02  0.10379373643E+04  0.10389840893E+04  0.00000000000E+00 0. -1.
<mgrwt>
<rscale>  1 0.92864145E+02</rscale>
<asrwt>0</asrwt>
<pdfrwt beam="1">  1       21 0.46747906E-03 0.92864145E+02</pdfrwt>
<pdfrwt beam="2">  1        2 0.29163136E+00 0.92864145E+02</pdfrwt>
<totfact> 0.13115661E+06</totfact>
</mgrwt>
</event>
<event>
 6    2  0.1998405E+001  0.1234555E+03  0.7546771E-02  0.1237503E+00
         -3   -1    0    0    0  501 -0.00000000000E+00  0.00000000000E+00  0.20129525437E+04  0.20129525437E+04  0.00000000000E+00 0.  1.
         21   -1    0    0  501  502  0.00000000000E+00 -0.00000000000E+00 -0.14811820461E+02  0.14811820461E+02  0.00000000000E+00 0. -1.
         24    2    1    2    0    0  0.75286641471E+02  0.39238146667E+02  0.26285640730E+03  0.29040447983E+03  0.89630131704E+02 0.  0.
        -13    1    3    3    0    0  0.70099105097E+01  0.20936068084E+02  0.18061501149E+03  0.18195944649E+03  0.00000000000E+00 0.  1.
         14    1    3    3    0    0  0.68276730962E+02  0.18302078582E+02  0.82241395815E+02  0.10844503334E+03  0.00000000000E+00 0. -1.
         -4    1    1    2    0  502 -0.75286641471E+02 -0.39238146667E+02  0.17352843159E+04  0.17373598843E+04  0.00000000000E+00 0.  1.
<mgrwt>
<rscale>  1 0.12345554E+03</rscale>
<asrwt>0</asrwt>
<pdfrwt beam="1">  1       21 0.22787432E-02 0.12345554E+03</pdfrwt>
<pdfrwt beam="2">  1       -3 0.30968479E+00 0.12345554E+03</pdfrwt>
<totfact> 0.19564954E+03</totfact>
</mgrwt>
</event>
<event>
 6    2  0.9453093E+000  0.9495499E+02  0.7546771E-02  0.1291277E+00
         21   -1    0    0  501  502  0.00000000000E+00  0.00000000000E+00  0.23569490400E+03  0.23569490400E+03  0.00000000000E+00 0. -1.
         -1   -1    0    0    0  501 -0.00000000000E+00 -0.00000000000E+00 -0.20679422057E+02  0.20679422057E+02  0.00000000000E+00 0.  1.
         24    2    1    2    0    0  0.44267622292E+02  0.59362607244E+01  0.14763685826E+03  0.17553658422E+03  0.83794921745E+02 0.  0.
        -11    1    3    3    0    0  0.59349613737E+01 -0.33552772454E+02  0.88101798954E+02  0.94461311048E+02  0.00000000000E+00 0.  1.
         12    1    3    3    0    0  0.38332660918E+02  0.39489033179E+02  0.59535059304E+02  0.81075273177E+02  0.00000000000E+00 0. -1.
         -2    1    1    2    0  502 -0.44267622292E+02 -0.59362607244E+01  0.67378623687E+02  0.80837741833E+02  0.00000000000E+00 0.  1.
<mgrwt>
<rscale>  1 0.94954992E+02</rscale>
<asrwt>0</asrwt>
<pdfrwt beam="1">  1       21 0.36260752E-01 0.94954992E+02</pdfrwt>
<pdfrwt beam="2">  1       -1 0.31814497E-02 0.94954992E+02</pdfrwt>
<totfact> 0.21244122E+05</totfact>
</mgrwt>
</event>
<event>
 6    2  0.9453093E+000  0.9212280E+02  0.7546771E-02  0.1297791E+00
          2   -1    0    0  502    0 -0.00000000000E+00  0.00000000000E+00  0.30575618736E+03  0.30575618736E+03  0.00000000000E+00 0. -1.
         21   -1    0    0  501  502  0.00000000000E+00 -0.00000000000E+00 -0.18215914943E+02  0.18215914943E+02  0.00000000000E+00 0.  1.
         24    2    1    2    0    0 -0.46147952359E+01 -0.36650837603E+02  0.11412835642E+03  0.14666933063E+03  0.84392123906E+02 0.  0.
        -11    1    3    3    0    0 -0.40280048840E+00 -0.62868039418E+02  0.62702741278E+02  0.88792941117E+02  0.00000000000E+00 0.  1.
         12    1    3    3    0    0 -0.42119947475E+01  0.26217201814E+02  0.51425615141E+02  0.57876389516E+02  0.00000000000E+00 0. -1.
          1    1    1    2  501    0  0.46147952359E+01  0.36650837603E+02  0.17341191600E+03  0.17730277167E+03  0.00000000000E+00 0. -1.
<mgrwt>
<rscale>  1 0.92122803E+02</rscale>
<asrwt>0</asrwt>
<pdfrwt beam="1">  1       21 0.28024487E-02 0.92122803E+02</pdfrwt>
<pdfrwt beam="2">  1        2 0.47039410E-01 0.92122803E+02</pdfrwt>
<totfact> 0.88497149E+05</totfact>
</mgrwt>
</event>
<event>
 6    2  0.9453093E+000  0.8345878E+02  0.7546771E-02  0.1319513E+00
         21   -1    0    0  501  502  0.00000000000E+00  0.00000000000E+00  0.26888412391E+02  0.26888412391E+02  0.00000000000E+00 0. -1.
         -3   -1    0    0    0  501 -0.00000000000E+00 -0.00000000000E+00 -0.14870382761E+03  0.14870382761E+03  0.00000000000E+00 0.  1.
         24    2    1    2    0    0  0.13505673770E+02 -0.22535387902E+02 -0.45875778319E+02  0.95236310634E+02  0.79215660667E+02 0.  0.
        -13    1    3    3    0    0 -0.30574860880E+02  0.58844483408E+00 -0.30372053776E+02  0.43100232433E+02  0.00000000000E+00 0.  1.
         14    1    3    3    0    0  0.44080534651E+02 -0.23123832736E+02 -0.15503724543E+02  0.52136078201E+02  0.00000000000E+00 0. -1.
         -4    1    1    2    0  502 -0.13505673770E+02  0.22535387902E+02 -0.75939636900E+02  0.80355929367E+02  0.00000000000E+00 0.  1.
<mgrwt>
<rscale>  1 0.83458779E+02</rscale>
<asrwt>0</asrwt>
<pdfrwt beam="1">  1       21 0.41366789E-02 0.83458779E+02</pdfrwt>
<pdfrwt beam="2">  1       -3 0.22877512E-01 0.83458779E+02</pdfrwt>
<totfact> 0.28579315E+05</totfact>
</mgrwt>
</event>
<event>
 6    2  0.9453093E+000  0.8301186E+02  0.7546771E-02  0.1320715E+00
          2   -1    0    0  502    0 -0.00000000000E+00  0.00000000000E+00  0.29693360704E+03  0.29693360704E+03  0.00000000000E+00 0. -1.
         21   -1    0    0  501  502  0.00000000000E+00 -0.00000000000E+00 -0.73291409468E+02  0.73291409468E+02  0.00000000000E+00 0. -1.
         24    2    1    2    0    0 -0.16153701663E+02  0.14606507485E+02  0.28933947388E+03  0.30101212571E+03  0.80104160549E+02 0.  0.
        -13    1    3    3    0    0 -0.40816477960E+02 -0.25264771866E+01  0.83312056685E+02  0.92807686907E+02  0.00000000000E+00 0.  1.
         14    1    3    3    0    0  0.24662776297E+02  0.17132984672E+02  0.20602741720E+03  0.20820443880E+03  0.00000000000E+00 0. -1.
          1    1    1    2  501    0  0.16153701663E+02 -0.14606507485E+02 -0.65697276311E+02  0.69212890801E+02  0.00000000000E+00 0. -1.
<mgrwt>
<rscale>  1 0.83011859E+02</rscale>
<asrwt>0</asrwt>
<pdfrwt beam="1">  1       21 0.11275602E-01 0.83011859E+02</pdfrwt>
<pdfrwt beam="2">  1        2 0.45682093E-01 0.83011859E+02</pdfrwt>
<totfact> 0.87832348E+04</totfact>
</mgrwt>
</event>
<event>
 6    2  0.9453093E+000  0.8775049E+02  0.7546771E-02  0.1308392E+00
         -3   -1    0    0    0  501 -0.00000000000E+00  0.00000000000E+00  0.45648744032E+02  0.45648744032E+02  0.00000000000E+00 0.  1.
         21   -1    0    0  501  502  0.00000000000E+00 -0.00000000000E+00 -0.92206194499E+02  0.92206194499E+02  0.00000000000E+00 0.  1.
         24    2    1    2    0    0 -0.14460133806E+02  0.29007936356E+02 -0.89474285972E+01  0.88205471401E+02  0.81545035810E+02 0.  0.
        -11    1    3    3    0    0  0.62703906310E+01  0.38996931755E+01  0.33728124283E+02  0.34526971677E+02  0.00000000000E+00 0.  1.
         12    1    3    3    0    0 -0.20730524437E+02  0.25108243180E+02 -0.42675552880E+02  0.53678499724E+02  0.00000000000E+00 0. -1.
         -4    1    1    2    0  502  0.14460133806E+02 -0.29007936356E+02 -0.37610021870E+02  0.49649467131E+02  0.00000000000E+00 0.  1.
<mgrwt>
<rscale>  1 0.87750491E+02</rscale>
<asrwt>0</asrwt>
<pdfrwt beam="1">  1       21 0.14185568E-01 0.87750491E+02</pdfrwt>
<pdfrwt beam="2">  1       -3 0.70228838E-02 0.87750491E+02</pdfrwt>
<totfact> 0.25396011E+05</totfact>
</mgrwt>
</event>
<event>
 6    2  0.9453093E+000  0.8464981E+02  0.7546771E-02  0.1316351E+00
         21   -1    0    0  501  502  0.00000000000E+00  0.00000000000E+00  0.20956404052E+02  0.20956404052E+02  0.00000000000E+00 0. -1.
          2   -1    0    0  502    0 -0.00000000000E+00 -0.00000000000E+00 -0.17679056788E+03  0.17679056788E+03  0.00000000000E+00 0. -1.
         24    2    1    2    0    0 -0.45171747163E+00  0.30298930931E+02 -0.13988531541E+03  0.16350379699E+03  0.79040248597E+02 0.  0.
        -13    1    3    3    0    0 -0.33189197007E+02  0.12546304829E+02 -0.26861173546E+02  0.44502305638E+02  0.00000000000E+00 0.  1.
         14    1    3    3    0    0  0.32737479535E+02  0.17752626102E+02 -0.11302414186E+03  0.11900149135E+03  0.00000000000E+00 0. -1.
          1    1    1    2  501    0  0.45171747163E+00 -0.30298930931E+02 -0.15948848419E+02  0.34243174943E+02  0.00000000000E+00 0. -1.
<mgrwt>
<rscale>  1 0.84649809E+02</rscale>
<asrwt>0</asrwt>
<pdfrwt beam="1">  1       21 0.32240622E-02 0.84649809E+02</pdfrwt>
<pdfrwt beam="2">  1        2 0.27198548E-01 0.84649809E+02</pdfrwt>
<totfact> 0.12455344E+06</totfact>
</mgrwt>
</event>
<event>
 6    2  0.9453093E+000  0.9069353E+02  0.7546771E-02  0.1301181E+00
         21   -1    0    0  501  502  0.00000000000E+00  0.00000000000E+00  0.89786832141E+01  0.89786832141E+01  0.00000000000E+00 0. -1.
          2   -1    0    0  502    0 -0.00000000000E+00 -0.00000000000E+00 -0.70567929696E+03  0.70567929696E+03  0.00000000000E+00 0. -1.
         24    2    1    2    0    0  0.32823751998E+02 -0.32796959651E+02 -0.60628758373E+03  0.61303340021E+03  0.77924811972E+02 0.  0.
        -11    1    3    3    0    0 -0.16458429038E+02  0.14825830290E+02 -0.14423993282E+03  0.14593095405E+03  0.00000000000E+00 0.  1.
         12    1    3    3    0    0  0.49282181036E+02 -0.47622789941E+02 -0.46204765091E+03  0.46710244615E+03  0.00000000000E+00 0. -1.
          1    1    1    2  501    0 -0.32823751998E+02  0.32796959651E+02 -0.90413030008E+02  0.10162457996E+03  0.00000000000E+00 0. -1.
<mgrwt>
<rscale>  1 0.90693526E+02</rscale>
<asrwt>0</asrwt>
<pdfrwt beam="1">  1       21 0.13813364E-02 0.90693526E+02</pdfrwt>
<pdfrwt beam="2">  1        2 0.10856601E+00 0.90693526E+02</pdfrwt>
<totfact> 0.11085130E+06</totfact>
</mgrwt>
</event>
<event>
 6    2  0.9453093E+000  0.8475644E+02  0.7546771E-02  0.1316071E+00
          2   -1    0    0  502    0 -0.00000000000E+00  0.00000000000E+00  0.26504274340E+03  0.26504274340E+03  0.00000000000E+00 0. -1.
         21   -1    0    0  501  502  0.00000000000E+00 -0.00000000000E+00 -0.25435015208E+02  0.25435015208E+02  0.00000000000E+00 0. -1.
         24    2    1    2    0    0 -0.14405583885E+02  0.22247664825E+02  0.24847233669E+03  0.26253029501E+03  0.80505740559E+02 0.  0.
        -11    1    3    3    0    0 -0.22338018343E+02 -0.27655657093E+01  0.13814419460E+02  0.26409725524E+02  0.00000000000E+00 0.  1.
         12    1    3    3    0    0  0.79324344582E+01  0.25013230534E+02  0.23465791723E+03  0.23612056949E+03  0.00000000000E+00 0. -1.
          1    1    1    2  501    0  0.14405583885E+02 -0.22247664825E+02 -0.88646085016E+01  0.27947463590E+02  0.00000000000E+00 0. -1.
<mgrwt>
<rscale>  1 0.84756438E+02</rscale>
<asrwt>0</asrwt>
<pdfrwt beam="1">  1       21 0.39130795E-02 0.84756438E+02</pdfrwt>
<pdfrwt beam="2">  1        2 0.40775805E-01 0.84756438E+02</pdfrwt>
<totfact> 0.59112264E+05</totfact>
</mgrwt>
</event>
<event>
 6    2  0.9453093E+000  0.8558430E+02  0.7546771E-02  0.1313912E+00
         -1   -1    0    0    0  501 -0.00000000000E+00  0.00000000000E+00  0.59151814017E+03  0.59151814017E+03  0.00000000000E+00 0.  1.
         21   -1    0    0  501  502  0.00000000000E+00 -0.00000000000E+00 -0.18957764152E+02  0.18957764152E+02  0.00000000000E+00 0.  1.
         24    2    1    2    0    0  0.17377995776E+01 -0.27594412254E+02  0.57625974773E+03  0.58258044079E+03  0.80995071442E+02 0.  0.
        -11    1    3    3    0    0 -0.73972390955E+01  0.19963831707E+02  0.37393853546E+03  0.37454412560E+03  0.00000000000E+00 0.  1.
         12    1    3    3    0    0  0.91350386731E+01 -0.47558243961E+02  0.20232121227E+03  0.20803631519E+03  0.00000000000E+00 0. -1.
         -2    1    1    2    0  502 -0.17377995776E+01  0.27594412254E+02 -0.36993717081E+01  0.27895463539E+02  0.00000000000E+00 0.  1.
<mgrwt>
<rscale>  1 0.85584304E+02</rscale>
<asrwt>0</asrwt>
<pdfrwt beam="1">  1       21 0.29165796E-02 0.85584304E+02</pdfrwt>
<pdfrwt beam="2">  1       -1 0.91002777E-01 0.85584304E+02</pdfrwt>
<totfact> 0.74443807E+04</totfact>
</mgrwt>
</event>
<event>
 6    2  0.9453093E+000  0.8873108E+02  0.7546771E-02  0.1305954E+00
         21   -1    0    0  501  502  0.00000000000E+00  0.00000000000E+00  0.71351310616E+01  0.71351310616E+01  0.00000000000E+00 0.  1.
          2   -1    0    0  502    0 -0.00000000000E+00 -0.00000000000E+00 -0.82731223614E+03  0.82731223614E+03  0.00000000000E+00 0. -1.
         24    2    1    2    0    0 -0.37472803446E+02 -0.17797983363E+02 -0.30615543744E+03  0.31875438294E+03  0.78436124092E+02 0.  0.
        -11    1    3    3    0    0 -0.19764304512E+02  0.11997308579E+02 -0.20187543473E+02  0.30693648487E+02  0.00000000000E+00 0.  1.
         12    1    3    3    0    0 -0.17708498934E+02 -0.29795291942E+02 -0.28596789396E+03  0.28806073446E+03  0.00000000000E+00 0. -1.
          1    1    1    2  501    0  0.37472803446E+02  0.17797983363E+02 -0.51402166764E+03  0.51569298426E+03  0.00000000000E+00 0. -1.
<mgrwt>
<rscale>  1 0.88731081E+02</rscale>
<asrwt>0</asrwt>
<pdfrwt beam="1">  1       21 0.10977125E-02 0.88731081E+02</pdfrwt>
<pdfrwt beam="2">  1        2 0.12727881E+00 0.88731081E+02</pdfrwt>
<totfact> 0.13118642E+06</totfact>
</mgrwt>
</event>
<event>
 6    2  0.9453093E+000  0.8348069E+02  0.7546771E-02  0.1319454E+00
         21   -1    0    0  501  502  0.00000000000E+00  0.00000000000E+00  0.55551127591E+01  0.55551127591E+01  0.00000000000E+00 0.  1.
          2   -1    0    0  502    0 -0.00000000000E+00 -0.00000000000E+00 -0.82594241012E+03  0.82594241012E+03  0.00000000000E+00 0. -1.
         24    2    1    2    0    0 -0.21794934411E+02  0.20248163641E+02 -0.33664333116E+03  0.34683967230E+03  0.78000119017E+02 0.  0.
        -13    1    3    3    0    0 -0.22877538208E+02 -0.34607012595E+01 -0.24145722861E+02  0.33442101312E+02  0.00000000000E+00 0.  1.
         14    1    3    3    0    0  0.10826037964E+01  0.23708864900E+02 -0.31249760830E+03  0.31339757099E+03  0.00000000000E+00 0. -1.
          1    1    1    2  501    0  0.21794934411E+02 -0.20248163641E+02 -0.48374396619E+03  0.48465785058E+03  0.00000000000E+00 0. -1.
<mgrwt>
<rscale>  1 0.83480692E+02</rscale>
<asrwt>0</asrwt>
<pdfrwt beam="1">  1       21 0.85463284E-03 0.83480692E+02</pdfrwt>
<pdfrwt beam="2">  1        2 0.12706805E+00 0.83480692E+02</pdfrwt>
<totfact> 0.19306817E+06</totfact>
</mgrwt>
</event>
<event>
 6    2  0.1100651E+001  0.8522973E+02  0.7546771E-02  0.1314833E+00
         -3   -1    0    0    0  501 -0.00000000000E+00  0.00000000000E+00  0.94335229459E+03  0.94335229459E+03  0.00000000000E+00 0.  1.
         21   -1    0    0  501  502  0.00000000000E+00 -0.00000000000E+00 -0.43793512548E+02  0.43793512548E+02  0.00000000000E+00 0.  1.
         24    2    1    2    0    0  0.17151779267E+02 -0.16087887767E+02  0.93811788774E+03  0.94198157022E+03  0.81921326153E+02 0.  0.
        -11    1    3    3    0    0 -0.71425191508E+01 -0.27919063374E+02  0.83128000038E+03  0.83177937502E+03  0.00000000000E+00 0.  1.
         12    1    3    3    0    0  0.24294298418E+02  0.11831175607E+02  0.10683788736E+03  0.11020219520E+03  0.00000000000E+00 0. -1.
         -4    1    1    2    0  502 -0.17151779267E+02  0.16087887767E+02 -0.38559105692E+02  0.45164236920E+02  0.00000000000E+00 0.  1.
<mgrwt>
<rscale>  1 0.85229733E+02</rscale>
<asrwt>0</asrwt>
<pdfrwt beam="1">  1       21 0.67374642E-02 0.85229733E+02</pdfrwt>
<pdfrwt beam="2">  1       -3 0.14513111E+00 0.85229733E+02</pdfrwt>
<totfact> 0.28924775E+03</totfact>
</mgrwt>
</event>
<event>
 6    2  0.9453093E+000  0.8346970E+02  0.7546771E-02  0.1319484E+00
         21   -1    0    0  501  502  0.00000000000E+00  0.00000000000E+00  0.74046409059E+02  0.74046409059E+02  0.00000000000E+00 0.  1.
          2   -1    0    0  502    0 -0.00000000000E+00 -0.00000000000E+00 -0.69182754074E+02  0.69182754074E+02  0.00000000000E+00 0. -1.
         24    2    1    2    0    0  0.19769149484E+02 -0.67597560303E+01 -0.40877954111E+02  0.92941904552E+02  0.80812603699E+02 0.  0.
        -13    1    3    3    0    0 -0.20768070106E+02 -0.89533496762E+01  0.12531035464E+02  0.25855406711E+02  0.00000000000E+00 0.  1.
         14    1    3    3    0    0  0.40537219590E+02  0.21935936459E+01 -0.53408989575E+02  0.67086497841E+02  0.00000000000E+00 0. -1.
          1    1    1    2  501    0 -0.19769149484E+02  0.67597560303E+01  0.45741609096E+02  0.50287258581E+02  0.00000000000E+00 0. -1.
<mgrwt>
<rscale>  1 0.83469698E+02</rscale>
<asrwt>0</asrwt>
<pdfrwt beam="1">  1       21 0.11391755E-01 0.83469698E+02</pdfrwt>
<pdfrwt beam="2">  1        2 0.10643501E-01 0.83469698E+02</pdfrwt>
<totfact> 0.43320399E+05</totfact>
</mgrwt>
</event>
<event>
 6    2  0.9453093E+000  0.9921515E+02  0.7546771E-02  0.1281955E+00
          2   -1    0    0  502    0 -0.00000000000E+00  0.00000000000E+00  0.19383239679E+04  0.19383239679E+04  0.00000000000E+00 0. -1.
         21   -1    0    0  501  502  0.00000000000E+00 -0.00000000000E+00 -0.37788758262E+01  0.37788758262E+01  0.00000000000E+00 0. -1.
         24    2    1    2    0    0 -0.16178253185E+02  0.48371035440E+02  0.16530131251E+04  0.16559879344E+04  0.85100845932E+02 0.  0.
        -13    1    3    3    0    0  0.15099309642E+02 -0.19307321714E+02  0.37113902677E+03  0.37194749497E+03  0.00000000000E+00 0.  1.
         14    1    3    3    0    0 -0.31277562826E+02  0.67678357154E+02  0.12818740983E+04  0.12840404394E+04  0.00000000000E+00 0. -1.
          1    1    1    2  501    0  0.16178253185E+02 -0.48371035440E+02  0.28153196700E+03  0.28611490941E+03  0.00000000000E+00 0. -1.
<mgrwt>
<rscale>  1 0.99215155E+02</rscale>
<asrwt>0</asrwt>
<pdfrwt beam="1">  1       21 0.58136706E-03 0.99215155E+02</pdfrwt>
<pdfrwt beam="2">  1        2 0.29820289E+00 0.99215155E+02</pdfrwt>
<totfact> 0.89592874E+05</totfact>
</mgrwt>
</event>
<event>
 6    2  0.9453093E+000  0.7370997E+02  0.7546771E-02  0.1347913E+00
          2   -1    0    0  502    0 -0.00000000000E+00  0.00000000000E+00  0.42834904634E+02  0.42834904634E+02  0.00000000000E+00 0. -1.
         21   -1    0    0  501  502  0.00000000000E+00 -0.00000000000E+00 -0.79151742782E+02  0.79151742782E+02  0.00000000000E+00 0. -1.
         24    2    1    2    0    0 -0.15965381507E+02 -0.19066378327E+02  0.48741826930E+01  0.73870949488E+02  0.69388322736E+02 0.  0.
        -13    1    3    3    0    0 -0.22698972466E+02  0.13472104688E+02 -0.19368378624E+02  0.32739502840E+02  0.00000000000E+00 0.  1.
         14    1    3    3    0    0  0.67335909587E+01 -0.32538483015E+02  0.24242561317E+02  0.41131446648E+02  0.00000000000E+00 0. -1.
          1    1    1    2  501    0  0.15965381507E+02  0.19066378327E+02 -0.41191020841E+02  0.48115697928E+02  0.00000000000E+00 0. -1.
<mgrwt>
<rscale>  1 0.73709969E+02</rscale>
<asrwt>0</asrwt>
<pdfrwt beam="1">  1       21 0.12177191E-01 0.73709969E+02</pdfrwt>
<pdfrwt beam="2">  1        2 0.65899853E-02 0.73709969E+02</pdfrwt>
<totfact> 0.68586730E+05</totfact>
</mgrwt>
</event>
<event>
 6    2  0.9453093E+000  0.8273987E+02  0.7546771E-02  0.1321451E+00
          4   -1    0    0  502    0 -0.00000000000E+00  0.00000000000E+00  0.11779547432E+03  0.11779547432E+03  0.00000000000E+00 0. -1.
         21   -1    0    0  501  502  0.00000000000E+00 -0.00000000000E+00 -0.28358975783E+02  0.28358975783E+02  0.00000000000E+00 0.  1.
         24    2    1    2    0    0 -0.17562205196E+02 -0.26671077439E+02  0.55945071336E+02  0.99878612790E+02  0.76328951669E+02 0.  0.
        -13    1    3    3    0    0 -0.37658620292E+02 -0.39956135186E+02  0.51701843401E+02  0.75417140177E+02  0.00000000000E+00 0.  1.
         14    1    3    3    0    0  0.20096415097E+02  0.13285057747E+02  0.42432279346E+01  0.24461472613E+02  0.00000000000E+00 0. -1.
          3    1    1    2  501    0  0.17562205196E+02  0.26671077439E+02  0.33491427203E+02  0.46275837315E+02  0.00000000000E+00 0. -1.
<mgrwt>
<rscale>  1 0.82739871E+02</rscale>
<asrwt>0</asrwt>
<pdfrwt beam="1">  1       21 0.43629194E-02 0.82739871E+02</pdfrwt>
<pdfrwt beam="2">  1        4 0.18122380E-01 0.82739871E+02</pdfrwt>
<totfact> 0.33137965E+05</totfact>
</mgrwt>
</event>
<event>
 6    2  0.9453093E+000  0.8465869E+02  0.7546771E-02  0.1316328E+00
         21   -1    0    0  501  502  0.00000000000E+00  0.00000000000E+00  0.49157580903E+01  0.49157580903E+01  0.00000000000E+00 0. -1.
          2   -1    0    0  502    0 -0.00000000000E+00 -0.00000000000E+00 -0.58773834373E+03  0.58773834373E+03  0.00000000000E+00 0. -1.
         24    2    1    2    0    0  0.21815634909E+02  0.79671953203E+00 -0.49305473669E+03  0.50026999392E+03  0.81795701294E+02 0.  0.
        -11    1    3    3    0    0  0.17044884759E+01 -0.37406538169E+02 -0.30681544805E+03  0.30909201468E+03  0.00000000000E+00 0.  1.
         12    1    3    3    0    0  0.20111146434E+02  0.38203257701E+02 -0.18623928864E+03  0.19117797923E+03  0.00000000000E+00 0. -1.
          1    1    1    2  501    0 -0.21815634909E+02 -0.79671953203E+00 -0.89767848949E+02  0.92384107906E+02  0.00000000000E+00 0. -1.
<mgrwt>
<rscale>  1 0.84658688E+02</rscale>
<asrwt>0</asrwt>
<pdfrwt beam="1">  1       21 0.75627026E-03 0.84658688E+02</pdfrwt>
<pdfrwt beam="2">  1        2 0.90421310E-01 0.84658688E+02</pdfrwt>
<totfact> 0.34734119E+06</totfact>
</mgrwt>
</event>
<event>
 6    2  0.9453093E+000  0.8326181E+02  0.7546771E-02  0.1320042E+00
         21   -1    0    0  501  502  0.00000000000E+00  0.00000000000E+00  0.62654961264E+01  0.62654961264E+01  0.00000000000E+00 0. -1.
         -1   -1    0    0    0  501 -0.00000000000E+00 -0.00000000000E+00 -0.43263266060E+03  0.43263266060E+03  0.00000000000E+00 0.  1.
         24    2    1    2    0    0  0.44386421053E+01  0.19819914259E+02 -0.35940622883E+03  0.36892460853E+03  0.80746510215E+02 0.  0.
        -11    1    3    3    0    0 -0.22254048926E+02 -0.20912486784E+02 -0.87109849058E+02  0.92307641070E+02  0.00000000000E+00 0.  1.
         12    1    3    3    0    0  0.26692691031E+02  0.40732401043E+02 -0.27229637978E+03  0.27661696746E+03  0.00000000000E+00 0. -1.
         -2    1    1    2    0  502 -0.44386421053E+01 -0.19819914259E+02 -0.66960935640E+02  0.69973548194E+02  0.00000000000E+00 0.  1.
<mgrwt>
<rscale>  1 0.83261813E+02</rscale>
<asrwt>0</asrwt>
<pdfrwt beam="1">  1       21 0.96392239E-03 0.83261813E+02</pdfrwt>
<pdfrwt beam="2">  1       -1 0.66558877E-01 0.83261813E+02</pdfrwt>
<totfact> 0.80743525E+05</totfact>
</mgrwt>
</event>
<event>
 6    2  0.9453093E+000  0.8889128E+02  0.7546771E-02  0.1305559E+00
         21   -1    0    0  501  502  0.00000000000E+00  0.00000000000E+00  0.58532877695E+01  0.58532877695E+01  0.00000000000E+00 0. -1.
          2   -1    0    0  502    0 -0.00000000000E+00 -0.00000000000E+00 -0.37086384156E+04  0.37086384156E+04  0.00000000000E+00 0. -1.
         24    2    1    2    0    0  0.38800199300E+02 -0.25644328087E+00 -0.36372174053E+04  0.36383034663E+04  0.79975860837E+02 0.  0.
        -11    1    3    3    0    0 -0.11089742489E+02  0.13532389543E+01 -0.84491226575E+02  0.85226644967E+02  0.00000000000E+00 0.  1.
         12    1    3    3    0    0  0.49889941789E+02 -0.16096822351E+01 -0.35527261787E+04  0.35530768214E+04  0.00000000000E+00 0. -1.
          1    1    1    2  501    0 -0.38800199300E+02  0.25644328087E+00 -0.65567722554E+02  0.76188237083E+02  0.00000000000E+00 0. -1.
<mgrwt>
<rscale>  1 0.88891279E+02</rscale>
<asrwt>0</asrwt>
<pdfrwt beam="1">  1       21 0.90050400E-03 0.88891279E+02</pdfrwt>
<pdfrwt beam="2">  1        2 0.57056090E+00 0.88891279E+02</pdfrwt>
<totfact> 0.45692190E+04</totfact>
</mgrwt>
</event>
<event>
 6    2  0.9453093E+000  0.1169127E+03  0.7546771E-02  0.1248279E+00
         21   -1    0    0  501  502  0.00000000000E+00  0.00000000000E+00  0.74630435211E+02  0.74630435211E+02  0.00000000000E+00 0. -1.
          2   -1    0    0  502    0 -0.00000000000E+00 -0.00000000000E+00 -0.14423700595E+03  0.14423700595E+03  0.00000000000E+00 0. -1.
         24    2    1    2    0    0  0.26838765551E+02 -0.79183590461E+02 -0.67986680984E+02  0.13524337538E+03  0.81720385820E+02 0.  0.
        -13    1    3    3    0    0 -0.28400859999E+02 -0.16192691998E+02 -0.24460372034E+02  0.40830404392E+02  0.00000000000E+00 0.  1.
         14    1    3    3    0    0  0.55239625550E+02 -0.62990898463E+02 -0.43526308950E+02  0.94412970989E+02  0.00000000000E+00 0. -1.
          1    1    1    2  501    0 -0.26838765551E+02  0.79183590461E+02 -0.16198897546E+01  0.83624065779E+02  0.00000000000E+00 0. -1.
<mgrwt>
<rscale>  1 0.11691271E+03</rscale>
<asrwt>0</asrwt>
<pdfrwt beam="1">  1       21 0.11481606E-01 0.11691271E+03</pdfrwt>
<pdfrwt beam="2">  1        2 0.22190308E-01 0.11691271E+03</pdfrwt>
<totfact> 0.18732251E+05</totfact>
</mgrwt>
</event>
<event>
 6    2  0.9453093E+000  0.1055360E+03  0.7546771E-02  0.1269067E+00
          2   -1    0    0  502    0 -0.00000000000E+00  0.00000000000E+00  0.80205116087E+03  0.80205116087E+03  0.00000000000E+00 0. -1.
         21   -1    0    0  501  502  0.00000000000E+00 -0.00000000000E+00 -0.42383644890E+02  0.42383644890E+02  0.00000000000E+00 0. -1.
         24    2    1    2    0    0  0.32486085766E+02 -0.29761788002E+02  0.78603578934E+03  0.79308896237E+03  0.95899584546E+02 0.  0.
        -11    1    3    3    0    0  0.52104341902E+02 -0.43359475833E+02  0.35630144786E+03  0.36269219503E+03  0.00000000000E+00 0.  1.
         12    1    3    3    0    0 -0.19618256136E+02  0.13597687831E+02  0.42973434148E+03  0.43039676734E+03  0.00000000000E+00 0. -1.
          1    1    1    2  501    0 -0.32486085766E+02  0.29761788002E+02 -0.26368273361E+02  0.51345843390E+02  0.00000000000E+00 0. -1.
<mgrwt>
<rscale>  1 0.10553597E+03</rscale>
<asrwt>0</asrwt>
<pdfrwt beam="1">  1       21 0.65205613E-02 0.10553597E+03</pdfrwt>
<pdfrwt beam="2">  1        2 0.12339248E+00 0.10553597E+03</pdfrwt>
<totfact> 0.76181265E+04</totfact>
</mgrwt>
</event>
<event>
 6    2  0.9453093E+000  0.8360448E+02  0.7546771E-02  0.1319123E+00
         -1   -1    0    0    0  501 -0.00000000000E+00  0.00000000000E+00  0.83869204488E+02  0.83869204488E+02  0.00000000000E+00 0.  1.
         21   -1    0    0  501  502  0.00000000000E+00 -0.00000000000E+00 -0.35776543328E+02  0.35776543328E+02  0.00000000000E+00 0.  1.
         24    2    1    2    0    0 -0.69114606445E+01 -0.25007394750E+02  0.37196019359E+02  0.91505476265E+02  0.79476853548E+02 0.  0.
        -11    1    3    3    0    0 -0.29870252201E+02 -0.44324305193E+02  0.26438696878E+02  0.59631205673E+02  0.00000000000E+00 0.  1.
         12    1    3    3    0    0  0.22958791557E+02  0.19316910443E+02  0.10757322481E+02  0.31874270592E+02  0.00000000000E+00 0. -1.
         -2    1    1    2    0  502  0.69114606445E+01  0.25007394750E+02  0.10896641801E+02  0.28140271551E+02  0.00000000000E+00 0.  1.
<mgrwt>
<rscale>  1 0.83604476E+02</rscale>
<asrwt>0</asrwt>
<pdfrwt beam="1">  1       21 0.55040836E-02 0.83604476E+02</pdfrwt>
<pdfrwt beam="2">  1       -1 0.12902954E-01 0.83604476E+02</pdfrwt>
<totfact> 0.76811998E+05</totfact>
</mgrwt>
</event>
<event>
 6    2  0.9453093E+000  0.1573656E+03  0.7546771E-02  0.1191703E+00
         21   -1    0    0  501  502  0.00000000000E+00  0.00000000000E+00  0.63266676422E+02  0.63266676422E+02  0.00000000000E+00 0. -1.
          2   -1    0    0  502    0 -0.00000000000E+00 -0.00000000000E+00 -0.58487440485E+03  0.58487440485E+03  0.00000000000E+00 0. -1.
         24    2    1    2    0    0 -0.92592157342E+02 -0.98525817954E+02 -0.48232021691E+03  0.50734281081E+03  0.80518889928E+02 0.  0.
        -13    1    3    3    0    0  0.35256369676E+01 -0.22888626966E+02 -0.25563427768E+02  0.34493596502E+02  0.00000000000E+00 0.  1.
         14    1    3    3    0    0 -0.96117794309E+02 -0.75637190988E+02 -0.45675678914E+03  0.47284921431E+03  0.00000000000E+00 0. -1.
          1    1    1    2  501    0  0.92592157342E+02  0.98525817954E+02 -0.39287511521E+02  0.14079827047E+03  0.00000000000E+00 0. -1.
<mgrwt>
<rscale>  1 0.15736561E+03</rscale>
<asrwt>0</asrwt>
<pdfrwt beam="1">  1       21 0.97333347E-02 0.15736561E+03</pdfrwt>
<pdfrwt beam="2">  1        2 0.89980679E-01 0.15736561E+03</pdfrwt>
<totfact> 0.55626111E+04</totfact>
</mgrwt>
</event>
<event>
 6    2  0.9453093E+000  0.9147115E+02  0.7546771E-02  0.1299328E+00
         21   -1    0    0  501  502  0.00000000000E+00  0.00000000000E+00  0.28164520409E+02  0.28164520409E+02  0.00000000000E+00 0. -1.
          2   -1    0    0  502    0 -0.00000000000E+00 -0.00000000000E+00 -0.16290616872E+03  0.16290616872E+03  0.00000000000E+00 0. -1.
         24    2    1    2    0    0 -0.31878805554E+02 -0.30165812174E+02 -0.94652048160E+02  0.13162819164E+03  0.80254197060E+02 0.  0.
        -13    1    3    3    0    0  0.22671790765E+02  0.64920286738E+01 -0.38672203037E+02  0.45295649024E+02  0.00000000000E+00 0.  1.
         14    1    3    3    0    0 -0.54550596319E+02 -0.36657840847E+02 -0.55979845123E+02  0.86332542615E+02  0.00000000000E+00 0. -1.
          1    1    1    2  501    0  0.31878805554E+02  0.30165812174E+02 -0.40089600153E+02  0.59442497492E+02  0.00000000000E+00 0. -1.
<mgrwt>
<rscale>  1 0.91471146E+02</rscale>
<asrwt>0</asrwt>
<pdfrwt beam="1">  1       21 0.43330032E-02 0.91471146E+02</pdfrwt>
<pdfrwt beam="2">  1        2 0.25062487E-01 0.91471146E+02</pdfrwt>
<totfact> 0.84529720E+05</totfact>
</mgrwt>
</event>
<event>
 6    2  0.9453093E+000  0.8463483E+02  0.7546771E-02  0.1316390E+00
          2   -1    0    0  502    0 -0.00000000000E+00  0.00000000000E+00  0.30193534410E+02  0.30193534410E+02  0.00000000000E+00 0. -1.
         21   -1    0    0  501  502  0.00000000000E+00 -0.00000000000E+00 -0.95557891948E+02  0.95557891948E+02  0.00000000000E+00 0.  1.
         24    2    1    2    0    0 -0.11792985117E+02 -0.19505812010E+02 -0.51592149721E+02  0.99120149477E+02  0.81507686260E+02 0.  0.
        -13    1    3    3    0    0 -0.69430707755E+01  0.11107412604E+02 -0.64300386906E+02  0.65621037807E+02  0.00000000000E+00 0.  1.
         14    1    3    3    0    0 -0.48499143418E+01 -0.30613224614E+02  0.12708237185E+02  0.33499111671E+02  0.00000000000E+00 0. -1.
          1    1    1    2  501    0  0.11792985117E+02  0.19505812010E+02 -0.13772207816E+02  0.26631276881E+02  0.00000000000E+00 0. -1.
<mgrwt>
<rscale>  1 0.84634828E+02</rscale>
<asrwt>0</asrwt>
<pdfrwt beam="1">  1       21 0.14701214E-01 0.84634828E+02</pdfrwt>
<pdfrwt beam="2">  1        2 0.46451591E-02 0.84634828E+02</pdfrwt>
<totfact> 0.78047207E+05</totfact>
</mgrwt>
</event>
<event>
 6    2  0.9453093E+000  0.9126735E+02  0.7546771E-02  0.1299811E+00
         21   -1    0    0  501  502  0.00000000000E+00  0.00000000000E+00  0.40110614938E+01  0.40110614938E+01  0.00000000000E+00 0. -1.
          2   -1    0    0  502    0 -0.00000000000E+00 -0.00000000000E+00 -0.14285737738E+04  0.14285737738E+04  0.00000000000E+00 0. -1.
         24    2    1    2    0    0 -0.17030276473E+02 -0.12874614160E+02 -0.13815882899E+04  0.13845995564E+04  0.88735240263E+02 0.  0.
        -13    1    3    3    0    0  0.18764736859E+02  0.26202720445E+02 -0.30277348001E+03  0.30448395378E+03  0.00000000000E+00 0.  1.
         14    1    3    3    0    0 -0.35795013332E+02 -0.39077334605E+02 -0.10788148099E+04  0.10801156026E+04  0.00000000000E+00 0. -1.
          1    1    1    2  501    0  0.17030276473E+02  0.12874614160E+02 -0.42974422389E+02  0.47985278849E+02  0.00000000000E+00 0. -1.
<mgrwt>
<rscale>  1 0.91267348E+02</rscale>
<asrwt>0</asrwt>
<pdfrwt beam="1">  1       21 0.61708555E-03 0.91267348E+02</pdfrwt>
<pdfrwt beam="2">  1        2 0.21978088E+00 0.91267348E+02</pdfrwt>
<totfact> 0.14732331E+06</totfact>
</mgrwt>
</event>
<event>
 6    2  0.9453093E+000  0.9424822E+02  0.7546771E-02  0.1292878E+00
         -3   -1    0    0    0  501 -0.00000000000E+00  0.00000000000E+00  0.23701407246E+01  0.23701407246E+01  0.00000000000E+00 0.  1.
         21   -1    0    0  501  502  0.00000000000E+00 -0.00000000000E+00 -0.15227079335E+04  0.15227079335E+04  0.00000000000E+00 0. -1.
         24    2    1    2    0    0  0.23870599065E+02  0.45865174928E+01 -0.12974901207E+04  0.13009086593E+04  0.91059787285E+02 0.  0.
        -11    1    3    3    0    0  0.10471297354E+02 -0.38797658286E+02 -0.34422979601E+03  0.34656753861E+03  0.00000000000E+00 0.  1.
         12    1    3    3    0    0  0.13399301711E+02  0.43384175779E+02 -0.95326032471E+03  0.95434112070E+03  0.00000000000E+00 0. -1.
         -4    1    1    2    0  502 -0.23870599065E+02 -0.45865174928E+01 -0.22284767203E+03  0.22416941489E+03  0.00000000000E+00 0.  1.
<mgrwt>
<rscale>  1 0.94248218E+02</rscale>
<asrwt>0</asrwt>
<pdfrwt beam="1">  1       21 0.23426390E+00 0.94248218E+02</pdfrwt>
<pdfrwt beam="2">  1       -3 0.36463526E-03 0.94248218E+02</pdfrwt>
<totfact> 0.49074226E+04</totfact>
</mgrwt>
</event>
<event>
 6    2  0.9453093E+000  0.8341681E+02  0.7546771E-02  0.1319625E+00
          2   -1    0    0  502    0 -0.00000000000E+00  0.00000000000E+00  0.11023444741E+04  0.11023444741E+04  0.00000000000E+00 0. -1.
         21   -1    0    0  501  502  0.00000000000E+00 -0.00000000000E+00 -0.31175818471E+01  0.31175818471E+01  0.00000000000E+00 0. -1.
         24    2    1    2    0    0  0.14925170491E+02 -0.14504169953E+02  0.59648330035E+03  0.60228788047E+03  0.80778906364E+02 0.  0.
        -11    1    3    3    0    0 -0.25949977713E+02 -0.20985678059E+02  0.13959336406E+03  0.14352737480E+03  0.00000000000E+00 0.  1.
         12    1    3    3    0    0  0.40875148204E+02  0.64815081065E+01  0.45688993629E+03  0.45876050567E+03  0.00000000000E+00 0. -1.
          1    1    1    2  501    0 -0.14925170491E+02  0.14504169953E+02  0.50274359193E+03  0.50317417550E+03  0.00000000000E+00 0. -1.
<mgrwt>
<rscale>  1 0.83416805E+02</rscale>
<asrwt>0</asrwt>
<pdfrwt beam="1">  1       21 0.47962885E-03 0.83416805E+02</pdfrwt>
<pdfrwt beam="2">  1        2 0.16959115E+00 0.83416805E+02</pdfrwt>
<totfact> 0.32129130E+06</totfact>
</mgrwt>
</event>
<event>
 6    2  0.9453093E+000  0.8765167E+02  0.7546771E-02  0.1308640E+00
         21   -1    0    0  501  502  0.00000000000E+00  0.00000000000E+00  0.10608696022E+02  0.10608696022E+02  0.00000000000E+00 0. -1.
          2   -1    0    0  502    0 -0.00000000000E+00 -0.00000000000E+00 -0.53675005393E+03  0.53675005393E+03  0.00000000000E+00 0. -1.
         24    2    1    2    0    0 -0.14294213993E+02  0.28215162100E+02 -0.49593993543E+03  0.50362608658E+03  0.81745921007E+02 0.  0.
        -13    1    3    3    0    0  0.10601915933E+02 -0.88649367716E+00 -0.60448148590E+01  0.12236269006E+02  0.00000000000E+00 0.  1.
         14    1    3    3    0    0 -0.24896129927E+02  0.29101655777E+02 -0.48989512057E+03  0.49138981757E+03  0.00000000000E+00 0. -1.
          1    1    1    2  501    0  0.14294213993E+02 -0.28215162100E+02 -0.30201422476E+02  0.43732663371E+02  0.00000000000E+00 0. -1.
<mgrwt>
<rscale>  1 0.87651672E+02</rscale>
<asrwt>0</asrwt>
<pdfrwt beam="1">  1       21 0.16321075E-02 0.87651672E+02</pdfrwt>
<pdfrwt beam="2">  1        2 0.82576911E-01 0.87651672E+02</pdfrwt>
<totfact> 0.11547808E+06</totfact>
</mgrwt>
</event>
<event>
 6    2  0.9453093E+000  0.8376270E+02  0.7546771E-02  0.1318700E+00
         21   -1    0    0  501  502  0.00000000000E+00  0.00000000000E+00  0.34985386932E+03  0.34985386932E+03  0.00000000000E+00 0.  1.
         -3   -1    0    0    0  501 -0.00000000000E+00 -0.00000000000E+00 -0.11568522715E+03  0.11568522715E+03  0.00000000000E+00 0.  1.
         24    2    1    2    0    0 -0.23989871489E+02  0.70615875213E+01 -0.99994282158E+02  0.13044173756E+03  0.79942544874E+02 0.  0.
        -11    1    3    3    0    0 -0.20155302765E+02  0.42308931914E+02 -0.68631043644E+02  0.83105367461E+02  0.00000000000E+00 0.  1.
         12    1    3    3    0    0 -0.38345687236E+01 -0.35247344392E+02 -0.31363238514E+02  0.47336370099E+02  0.00000000000E+00 0. -1.
         -4    1    1    2    0  502  0.23989871489E+02 -0.70615875213E+01  0.33416292433E+03  0.33509735891E+03  0.00000000000E+00 0.  1.
<mgrwt>
<rscale>  1 0.83762703E+02</rscale>
<asrwt>0</asrwt>
<pdfrwt beam="1">  1       21 0.53823672E-01 0.83762703E+02</pdfrwt>
<pdfrwt beam="2">  1       -3 0.17797727E-01 0.83762703E+02</pdfrwt>
<totfact> 0.43258121E+03</totfact>
</mgrwt>
</event>
<event>
 6    2  0.9453093E+000  0.7888119E+02  0.7546771E-02  0.1332257E+00
         -1   -1    0    0    0  501 -0.00000000000E+00  0.00000000000E+00  0.38343463795E+03  0.38343463795E+03  0.00000000000E+00 0.  1.
         21   -1    0    0  501  502  0.00000000000E+00 -0.00000000000E+00 -0.10955093825E+02  0.10955093825E+02  0.00000000000E+00 0. -1.
         24    2    1    2    0    0  0.41684914412E+01 -0.21021649678E+02  0.36207268457E+03  0.37056560951E+03  0.75914135447E+02 0.  0.
        -13    1    3    3    0    0  0.32759593491E+02  0.37368877529E+01  0.25261940361E+03  0.25476208191E+03  0.00000000000E+00 0.  1.
         14    1    3    3    0    0 -0.28591102050E+02 -0.24758537431E+02  0.10945328096E+03  0.11580352760E+03  0.00000000000E+00 0. -1.
         -2    1    1    2    0  502 -0.41684914412E+01  0.21021649678E+02  0.10406859555E+02  0.23824122269E+02  0.00000000000E+00 0.  1.
<mgrwt>
<rscale>  1 0.78881189E+02</rscale>
<asrwt>0</asrwt>
<pdfrwt beam="1">  1       21 0.16853993E-02 0.78881189E+02</pdfrwt>
<pdfrwt beam="2">  1       -1 0.58989934E-01 0.78881189E+02</pdfrwt>
<totfact> 0.41934387E+05</totfact>
</mgrwt>
</event>
<event>
 6    2  0.9453093E+000  0.9126444E+02  0.7546771E-02  0.1299818E+00
         21   -1    0    0  501  502  0.00000000000E+00  0.00000000000E+00  0.11766490493E+03  0.11766490493E+03  0.00000000000E+00 0. -1.
          4   -1    0    0  502    0 -0.00000000000E+00 -0.00000000000E+00 -0.69951529410E+02  0.69951529410E+02  0.00000000000E+00 0. -1.
         24    2    1    2    0    0 -0.40305673492E+02 -0.15157493459E+02 -0.32250478045E+02  0.96795099838E+02  0.80466770129E+02 0.  0.
        -13    1    3    3    0    0 -0.33305278061E+02 -0.19127307554E+02  0.20430564592E+02  0.43502912667E+02  0.00000000000E+00 0.  1.
         14    1    3    3    0    0 -0.70003954312E+01  0.39698140954E+01 -0.52681042637E+02  0.53292187171E+02  0.00000000000E+00 0. -1.
          3    1    1    2  501    0  0.40305673492E+02  0.15157493459E+02  0.79963853561E+02  0.90821334497E+02  0.00000000000E+00 0. -1.
<mgrwt>
<rscale>  1 0.91264440E+02</rscale>
<asrwt>0</asrwt>
<pdfrwt beam="1">  1       21 0.18102293E-01 0.91264440E+02</pdfrwt>
<pdfrwt beam="2">  1        4 0.10761774E-01 0.91264440E+02</pdfrwt>
<totfact> 0.71222951E+04</totfact>
</mgrwt>
</event>
<event>
 6    2  0.9453093E+000  0.8234312E+02  0.7546771E-02  0.1322530E+00
         21   -1    0    0  501  502  0.00000000000E+00  0.00000000000E+00  0.57631033662E+01  0.57631033662E+01  0.00000000000E+00 0.  1.
         -1   -1    0    0    0  501 -0.00000000000E+00 -0.00000000000E+00 -0.70033048402E+03  0.70033048402E+03  0.00000000000E+00 0.  1.
         24    2    1    2    0    0  0.25164508219E+02 -0.59589902191E+01 -0.64452965779E+03  0.64976831998E+03  0.78176900986E+02 0.  0.
        -11    1    3    3    0    0  0.49027171000E+02 -0.59330674625E+01 -0.27000132416E+03  0.27448056368E+03  0.00000000000E+00 0.  1.
         12    1    3    3    0    0 -0.23862662781E+02 -0.25922756622E-01 -0.37452833362E+03  0.37528775631E+03  0.00000000000E+00 0. -1.
         -2    1    1    2    0  502 -0.25164508219E+02  0.59589902191E+01 -0.50037722865E+02  0.56325267401E+02  0.00000000000E+00 0.  1.
<mgrwt>
<rscale>  1 0.82343123E+02</rscale>
<asrwt>0</asrwt>
<pdfrwt beam="1">  1       21 0.88663120E-03 0.82343123E+02</pdfrwt>
<pdfrwt beam="2">  1       -1 0.10774316E+00 0.82343123E+02</pdfrwt>
<totfact> 0.34007089E+05</totfact>
</mgrwt>
</event>
<event>
 6    2  0.9453093E+000  0.8794995E+02  0.7546771E-02  0.1307894E+00
         -1   -1    0    0    0  501 -0.00000000000E+00  0.00000000000E+00  0.16852010756E+03  0.16852010756E+03  0.00000000000E+00 0.  1.
         21   -1    0    0  501  502  0.00000000000E+00 -0.00000000000E+00 -0.21636521612E+02  0.21636521612E+02  0.00000000000E+00 0. -1.
         24    2    1    2    0    0  0.50932700091E+01 -0.30709126951E+02  0.12149449212E+03  0.14998701425E+03  0.82256920387E+02 0.  0.
        -13    1    3    3    0    0 -0.10727542011E+02 -0.46996445504E+02  0.11740416751E+03  0.12691526542E+03  0.00000000000E+00 0.  1.
         14    1    3    3    0    0  0.15820812020E+02  0.16287318554E+02  0.40903246039E+01  0.23071748829E+02  0.00000000000E+00 0. -1.
         -2    1    1    2    0  502 -0.50932700091E+01  0.30709126951E+02  0.25389093835E+02  0.40169614925E+02  0.00000000000E+00 0.  1.
<mgrwt>
<rscale>  1 0.87949945E+02</rscale>
<asrwt>0</asrwt>
<pdfrwt beam="1">  1       21 0.33286957E-02 0.87949945E+02</pdfrwt>
<pdfrwt beam="2">  1       -1 0.25926169E-01 0.87949945E+02</pdfrwt>
<totfact> 0.59012216E+05</totfact>
</mgrwt>
</event>
<event>
 6    2  0.9453093E+000  0.8236700E+02  0.7546771E-02  0.1322465E+00
         21   -1    0    0  501  502  0.00000000000E+00  0.00000000000E+00  0.13092448043E+03  0.13092448043E+03  0.00000000000E+00 0. -1.
         -3   -1    0    0    0  501 -0.00000000000E+00 -0.00000000000E+00 -0.23353943863E+02  0.23353943863E+02  0.00000000000E+00 0.  1.
         24    2    1    2    0    0  0.18650308927E+02  0.77953656810E+01  0.57982878929E+02  0.10072903084E+03  0.79848116169E+02 0.  0.
        -11    1    3    3    0    0  0.43934335626E+01  0.56881584392E+00 -0.20327216135E+02  0.20804363141E+02  0.00000000000E+00 0.  1.
         12    1    3    3    0    0  0.14256875364E+02  0.72265498371E+01  0.78310095063E+02  0.79924667697E+02  0.00000000000E+00 0. -1.
         -4    1    1    2    0  502 -0.18650308927E+02 -0.77953656810E+01  0.49587657635E+02  0.53549393450E+02  0.00000000000E+00 0.  1.
<mgrwt>
<rscale>  1 0.82367004E+02</rscale>
<asrwt>0</asrwt>
<pdfrwt beam="1">  1       21 0.20142227E-01 0.82367004E+02</pdfrwt>
<pdfrwt beam="2">  1       -3 0.35929145E-02 0.82367004E+02</pdfrwt>
<totfact> 0.38188846E+05</totfact>
</mgrwt>
</event>
<event>
 6    2  0.9453093E+000  0.1014675E+03  0.7546771E-02  0.1277240E+00
          2   -1    0    0  502    0 -0.00000000000E+00  0.00000000000E+00  0.11369838633E+03  0.11369838633E+03  0.00000000000E+00 0. -1.
         21   -1    0    0  501  502  0.00000000000E+00 -0.00000000000E+00 -0.59151930122E+02  0.59151930122E+02  0.00000000000E+00 0.  1.
         24    2    1    2    0    0  0.60229727083E+02  0.16747698080E+02  0.35500698631E+02  0.10749860417E+03  0.79922117594E+02 0.  0.
        -13    1    3    3    0    0  0.53117901759E+02 -0.25249785961E+02  0.18787563268E+02  0.61741685366E+02  0.00000000000E+00 0.  1.
         14    1    3    3    0    0  0.71118253242E+01  0.41997484041E+02  0.16713135363E+02  0.45756918808E+02  0.00000000000E+00 0. -1.
          1    1    1    2  501    0 -0.60229727083E+02 -0.16747698080E+02  0.19045757573E+02  0.65351712273E+02  0.00000000000E+00 0. -1.
<mgrwt>
<rscale>  1 0.10146748E+03</rscale>
<asrwt>0</asrwt>
<pdfrwt beam="1">  1       21 0.91002970E-02 0.10146748E+03</pdfrwt>
<pdfrwt beam="2">  1        2 0.17492059E-01 0.10146748E+03</pdfrwt>
<totfact> 0.36378543E+05</totfact>
</mgrwt>
</event>
<event>
 6    2  0.9453093E+000  0.8403680E+02  0.7546771E-02  0.1317971E+00
         21   -1    0    0  501  502  0.00000000000E+00  0.00000000000E+00  0.25568779580E+02  0.25568779580E+02  0.00000000000E+00 0.  1.
          2   -1    0    0  502    0 -0.00000000000E+00 -0.00000000000E+00 -0.12047985686E+03  0.12047985686E+03  0.00000000000E+00 0. -1.
         24    2    1    2    0    0  0.22904105982E+02  0.11904027925E+02 -0.63141250371E+02  0.10511422728E+03  0.79974241643E+02 0.  0.
        -13    1    3    3    0    0  0.18898690611E+02  0.48459860589E+01  0.16199948520E+02  0.25359069773E+02  0.00000000000E+00 0.  1.
         14    1    3    3    0    0  0.40054153709E+01  0.70580418662E+01 -0.79341198891E+02  0.79755157506E+02  0.00000000000E+00 0. -1.
          1    1    1    2  501    0 -0.22904105982E+02 -0.11904027925E+02 -0.31769826913E+02  0.40934409166E+02  0.00000000000E+00 0. -1.
<mgrwt>
<rscale>  1 0.84036797E+02</rscale>
<asrwt>0</asrwt>
<pdfrwt beam="1">  1       21 0.39336583E-02 0.84036797E+02</pdfrwt>
<pdfrwt beam="2">  1        2 0.18535363E-01 0.84036797E+02</pdfrwt>
<totfact> 0.13705902E+06</totfact>
</mgrwt>
</event>
<event>
 6    2  0.9453093E+000  0.1011530E+03  0.7546771E-02  0.1277890E+00
         21   -1    0    0  501  502  0.00000000000E+00  0.00000000000E+00  0.15148542180E+02  0.15148542180E+02  0.00000000000E+00 0.  1.
          2   -1    0    0  502    0 -0.00000000000E+00 -0.00000000000E+00 -0.44295684002E+03  0.44295684002E+03  0.00000000000E+00 0. -1.
         24    2    1    2    0    0 -0.48941063756E+02  0.38935968959E+02 -0.25513779462E+03  0.27445805692E+03  0.79502788407E+02 0.  0.
        -13    1    3    3    0    0 -0.54220665753E+02  0.26164373304E+02 -0.87263675174E+02  0.10601605553E+03  0.00000000000E+00 0.  1.
         14    1    3    3    0    0  0.52796019970E+01  0.12771595654E+02 -0.16787411945E+03  0.16844200139E+03  0.00000000000E+00 0. -1.
          1    1    1    2  501    0  0.48941063756E+02 -0.38935968959E+02 -0.17267050322E+03  0.18364732528E+03  0.00000000000E+00 0. -1.
<mgrwt>
<rscale>  1 0.10115301E+03</rscale>
<asrwt>0</asrwt>
<pdfrwt beam="1">  1       21 0.23305446E-02 0.10115301E+03</pdfrwt>
<pdfrwt beam="2">  1        2 0.68147216E-01 0.10115301E+03</pdfrwt>
<totfact> 0.81418262E+05</totfact>
</mgrwt>
</event>
<event>
 6    2  0.9453093E+000  0.8598732E+02  0.7546771E-02  0.1312871E+00
         21   -1    0    0  501  502  0.00000000000E+00  0.00000000000E+00  0.21496993745E+02  0.21496993745E+02  0.00000000000E+00 0.  1.
          4   -1    0    0  502    0 -0.00000000000E+00 -0.00000000000E+00 -0.16765614143E+03  0.16765614143E+03  0.00000000000E+00 0. -1.
         24    2    1    2    0    0 -0.27353052164E+02 -0.17371459242E+02 -0.11933816320E+03  0.14708982257E+03  0.79648362493E+02 0.  0.
        -11    1    3    3    0    0 -0.12766216590E+02 -0.49164706372E+02 -0.65538829808E+02  0.82918531410E+02  0.00000000000E+00 0.  1.
         12    1    3    3    0    0 -0.14586835574E+02  0.31793247131E+02 -0.53799333397E+02  0.64171291160E+02  0.00000000000E+00 0. -1.
          3    1    1    2  501    0  0.27353052164E+02  0.17371459242E+02 -0.26820984483E+02  0.42063312608E+02  0.00000000000E+00 0. -1.
<mgrwt>
<rscale>  1 0.85987317E+02</rscale>
<asrwt>0</asrwt>
<pdfrwt beam="1">  1       21 0.33072298E-02 0.85987317E+02</pdfrwt>
<pdfrwt beam="2">  1        4 0.25793253E-01 0.85987317E+02</pdfrwt>
<totfact> 0.27902138E+05</totfact>
</mgrwt>
</event>
<event>
 6    2  0.9453093E+000  0.9123590E+02  0.7546771E-02  0.1299886E+00
         21   -1    0    0  501  502  0.00000000000E+00  0.00000000000E+00  0.14485555945E+03  0.14485555945E+03  0.00000000000E+00 0. -1.
          4   -1    0    0  502    0 -0.00000000000E+00 -0.00000000000E+00 -0.70920300485E+02  0.70920300485E+02  0.00000000000E+00 0. -1.
         24    2    1    2    0    0 -0.42326465637E+02 -0.16372083126E+02 -0.35036275782E+02  0.97731926654E+02  0.79148051572E+02 0.  0.
        -13    1    3    3    0    0 -0.50558162509E+02 -0.34636017100E+01  0.86779350791E+01  0.51414306281E+02  0.00000000000E+00 0.  1.
         14    1    3    3    0    0  0.82316968714E+01 -0.12908481416E+02 -0.43714210862E+02  0.46317620374E+02  0.00000000000E+00 0. -1.
          3    1    1    2  501    0  0.42326465637E+02  0.16372083126E+02  0.10897153475E+03  0.11804393328E+03  0.00000000000E+00 0. -1.
<mgrwt>
<rscale>  1 0.91235897E+02</rscale>
<asrwt>0</asrwt>
<pdfrwt beam="1">  1       21 0.22285471E-01 0.91235897E+02</pdfrwt>
<pdfrwt beam="2">  1        4 0.10910816E-01 0.91235897E+02</pdfrwt>
<totfact> 0.47548464E+04</totfact>
</mgrwt>
</event>
<event>
 6    2  0.9453093E+000  0.8486527E+02  0.7546771E-02  0.1315785E+00
          2   -1    0    0  502    0 -0.00000000000E+00  0.00000000000E+00  0.70307219263E+03  0.70307219263E+03  0.00000000000E+00 0. -1.
         21   -1    0    0  501  502  0.00000000000E+00 -0.00000000000E+00 -0.49708661807E+01  0.49708661807E+01  0.00000000000E+00 0.  1.
         24    2    1    2    0    0  0.17642545074E+02  0.18731982186E+02  0.62074072904E+03  0.62651509683E+03  0.80870064381E+02 0.  0.
        -11    1    3    3    0    0 -0.28804580354E+01  0.45090527588E+02  0.23316510189E+03  0.23750245779E+03  0.00000000000E+00 0.  1.
         12    1    3    3    0    0  0.20523003109E+02 -0.26358545402E+02  0.38757562714E+03  0.38901263903E+03  0.00000000000E+00 0. -1.
          1    1    1    2  501    0 -0.17642545074E+02 -0.18731982186E+02  0.77360597411E+02  0.81527961983E+02  0.00000000000E+00 0. -1.
<mgrwt>
<rscale>  1 0.84865269E+02</rscale>
<asrwt>0</asrwt>
<pdfrwt beam="1">  1       21 0.76474920E-03 0.84865269E+02</pdfrwt>
<pdfrwt beam="2">  1        2 0.10816487E+00 0.84865269E+02</pdfrwt>
<totfact> 0.27861936E+06</totfact>
</mgrwt>
</event>
<event>
 6    2  0.9453093E+000  0.8362502E+02  0.7546771E-02  0.1319068E+00
         21   -1    0    0  501  502  0.00000000000E+00  0.00000000000E+00  0.76986411276E+01  0.76986411276E+01  0.00000000000E+00 0. -1.
          4   -1    0    0  502    0 -0.00000000000E+00 -0.00000000000E+00 -0.69452415504E+03  0.69452415504E+03  0.00000000000E+00 0. -1.
         24    2    1    2    0    0  0.23819961073E+02  0.16466830696E+01 -0.66381881404E+03  0.66906543877E+03  0.80143879190E+02 0.  0.
        -13    1    3    3    0    0  0.94709757154E+01 -0.23953169436E+02 -0.71122179651E+02  0.75642700542E+02  0.00000000000E+00 0.  1.
         14    1    3    3    0    0  0.14348985357E+02  0.25599852505E+02 -0.59269663439E+03  0.59342273823E+03  0.00000000000E+00 0. -1.
          3    1    1    2  501    0 -0.23819961073E+02 -0.16466830696E+01 -0.23006699874E+02  0.33157357400E+02  0.00000000000E+00 0. -1.
<mgrwt>
<rscale>  1 0.83625017E+02</rscale>
<asrwt>0</asrwt>
<pdfrwt beam="1">  1       21 0.11844061E-02 0.83625017E+02</pdfrwt>
<pdfrwt beam="2">  1        4 0.10684989E+00 0.83625017E+02</pdfrwt>
<totfact> 0.78168910E+04</totfact>
</mgrwt>
</event>
<event>
 6    2  0.9453093E+000  0.1025373E+03  0.7546771E-02  0.1275049E+00
          2   -1    0    0  502    0 -0.00000000000E+00  0.00000000000E+00  0.80991091912E+02  0.80991091912E+02  0.00000000000E+00 0. -1.
         21   -1    0    0  501  502  0.00000000000E+00 -0.00000000000E+00 -0.27938047926E+03  0.27938047926E+03  0.00000000000E+00 0. -1.
         24    2    1    2    0    0 -0.43016116166E+02 -0.47646896665E+02  0.42559117020E+02  0.11101881949E+03  0.79958031669E+02 0.  0.
        -13    1    3    3    0    0 -0.36489486880E+02 -0.93459791407E+01 -0.15851152166E+02  0.40866722451E+02  0.00000000000E+00 0.  1.
         14    1    3    3    0    0 -0.65266292856E+01 -0.38300917524E+02  0.58410269187E+02  0.70152097043E+02  0.00000000000E+00 0. -1.
          1    1    1    2  501    0  0.43016116166E+02  0.47646896665E+02 -0.24094850437E+03  0.24935275168E+03  0.00000000000E+00 0. -1.
<mgrwt>
<rscale>  1 0.10253731E+03</rscale>
<asrwt>0</asrwt>
<pdfrwt beam="1">  1       21 0.42981613E-01 0.10253731E+03</pdfrwt>
<pdfrwt beam="2">  1        2 0.12460168E-01 0.10253731E+03</pdfrwt>
<totfact> 0.30773565E+04</totfact>
</mgrwt>
</event>
<event>
 6    2  0.9453093E+000  0.8534219E+02  0.7546771E-02  0.1314540E+00
          2   -1    0    0  502    0 -0.00000000000E+00  0.00000000000E+00  0.14330845345E+03  0.14330845345E+03  0.00000000000E+00 0. -1.
         21   -1    0    0  501  502  0.00000000000E+00 -0.00000000000E+00 -0.22922194748E+02  0.22922194748E+02  0.00000000000E+00 0.  1.
         24    2    1    2    0    0  0.10483376431E+02  0.25626014635E+02  0.10200388565E+03  0.13299654754E+03  0.80726050084E+02 0.  0.
        -11    1    3    3    0    0 -0.10214402985E+02  0.19363879518E+01 -0.11330472004E+02  0.15377360712E+02  0.00000000000E+00 0.  1.
         12    1    3    3    0    0  0.20697779416E+02  0.23689626684E+02  0.11333435765E+03  0.11761918683E+03  0.00000000000E+00 0. -1.
          1    1    1    2  501    0 -0.10483376431E+02 -0.25626014635E+02  0.18382373052E+02  0.33234100658E+02  0.00000000000E+00 0. -1.
<mgrwt>
<rscale>  1 0.85342188E+02</rscale>
<asrwt>0</asrwt>
<pdfrwt beam="1">  1       21 0.35264916E-02 0.85342188E+02</pdfrwt>
<pdfrwt beam="2">  1        2 0.22047454E-01 0.85342188E+02</pdfrwt>
<totfact> 0.13539484E+06</totfact>
</mgrwt>
</event>
<event>
 6    2  0.9453093E+000  0.8598916E+02  0.7546771E-02  0.1312866E+00
          2   -1    0    0  502    0 -0.00000000000E+00  0.00000000000E+00  0.12762090885E+04  0.12762090885E+04  0.00000000000E+00 0. -1.
         21   -1    0    0  501  502  0.00000000000E+00 -0.00000000000E+00 -0.75176268606E+01  0.75176268606E+01  0.00000000000E+00 0. -1.
         24    2    1    2    0    0  0.13577598425E+02  0.27610463009E+02  0.12354208967E+04  0.12384098384E+04  0.80295995864E+02 0.  0.
        -11    1    3    3    0    0  0.31219908726E+02  0.18548878420E+02  0.23473343000E+03  0.23752584439E+03  0.00000000000E+00 0.  1.
         12    1    3    3    0    0 -0.17642310300E+02  0.90615845893E+01  0.10006874667E+04  0.10008839940E+04  0.00000000000E+00 0. -1.
          1    1    1    2  501    0 -0.13577598425E+02 -0.27610463009E+02  0.33270564892E+02  0.45316876931E+02  0.00000000000E+00 0. -1.
<mgrwt>
<rscale>  1 0.85989161E+02</rscale>
<asrwt>0</asrwt>
<pdfrwt beam="1">  1       21 0.11565590E-02 0.85989161E+02</pdfrwt>
<pdfrwt beam="2">  1        2 0.19633969E+00 0.85989161E+02</pdfrwt>
<totfact> 0.66384147E+05</totfact>
</mgrwt>
</event>
<event>
 6    2  0.9453093E+000  0.8908062E+02  0.7546771E-02  0.1305093E+00
         -1   -1    0    0    0  501 -0.00000000000E+00  0.00000000000E+00  0.44734052583E+02  0.44734052583E+02  0.00000000000E+00 0.  1.
         21   -1    0    0  501  502  0.00000000000E+00 -0.00000000000E+00 -0.11501495579E+03  0.11501495579E+03  0.00000000000E+00 0.  1.
         24    2    1    2    0    0  0.41615846337E+02 -0.19555946780E+02 -0.19398760605E+02  0.91168353983E+02  0.76295760919E+02 0.  0.
        -13    1    3    3    0    0  0.50650068597E+02 -0.27148646812E+02 -0.38175083726E+02  0.68991416061E+02  0.00000000000E+00 0.  1.
         14    1    3    3    0    0 -0.90342222600E+01  0.75927000315E+01  0.18776323122E+02  0.22176937922E+02  0.00000000000E+00 0. -1.
         -2    1    1    2    0  502 -0.41615846337E+02  0.19555946780E+02 -0.50882142604E+02  0.68580654392E+02  0.00000000000E+00 0.  1.
<mgrwt>
<rscale>  1 0.89080620E+02</rscale>
<asrwt>0</asrwt>
<pdfrwt beam="1">  1       21 0.17694608E-01 0.89080620E+02</pdfrwt>
<pdfrwt beam="2">  1       -1 0.68821620E-02 0.89080620E+02</pdfrwt>
<totfact> 0.26321415E+05</totfact>
</mgrwt>
</event>
<event>
 6    2  0.9453093E+000  0.8758822E+02  0.7546771E-02  0.1308800E+00
          2   -1    0    0  502    0 -0.00000000000E+00  0.00000000000E+00  0.16354736425E+04  0.16354736425E+04  0.00000000000E+00 0. -1.
         21   -1    0    0  501  502  0.00000000000E+00 -0.00000000000E+00 -0.16387097539E+02  0.16387097539E+02  0.00000000000E+00 0. -1.
         24    2    1    2    0    0 -0.36307131264E+02 -0.44799642741E+00  0.16125988854E+04  0.16149758080E+04  0.79707509191E+02 0.  0.
        -11    1    3    3    0    0  0.15147545275E+02  0.57573418717E+01  0.86967129851E+02  0.88463985823E+02  0.00000000000E+00 0.  1.
         12    1    3    3    0    0 -0.51454676539E+02 -0.62053382991E+01  0.15256317555E+04  0.15265118222E+04  0.00000000000E+00 0. -1.
          1    1    1    2  501    0  0.36307131264E+02  0.44799642741E+00  0.64876596058E+01  0.36884931999E+02  0.00000000000E+00 0. -1.
<mgrwt>
<rscale>  1 0.87588216E+02</rscale>
<asrwt>0</asrwt>
<pdfrwt beam="1">  1       21 0.25210932E-02 0.87588216E+02</pdfrwt>
<pdfrwt beam="2">  1        2 0.25161120E+00 0.87588216E+02</pdfrwt>
<totfact> 0.12580249E+05</totfact>
</mgrwt>
</event>
<event>
 6    2  0.9453093E+000  0.9087522E+02  0.7546771E-02  0.1300746E+00
         -1   -1    0    0    0  501 -0.00000000000E+00  0.00000000000E+00  0.90000248812E+02  0.90000248812E+02  0.00000000000E+00 0.  1.
         21   -1    0    0  501  502  0.00000000000E+00 -0.00000000000E+00 -0.51292809015E+02  0.51292809015E+02  0.00000000000E+00 0.  1.
         24    2    1    2    0    0 -0.26162869253E+02 -0.32369354596E+02  0.40812925116E+02  0.99619278144E+02  0.80783877580E+02 0.  0.
        -11    1    3    3    0    0 -0.22062812838E+02 -0.52829341387E+02  0.50750514230E+02  0.76507004361E+02  0.00000000000E+00 0.  1.
         12    1    3    3    0    0 -0.41000564154E+01  0.20459986790E+02 -0.99375891135E+01  0.23112273784E+02  0.00000000000E+00 0. -1.
         -2    1    1    2    0  502  0.26162869253E+02  0.32369354596E+02 -0.21054853199E+01  0.41673779682E+02  0.00000000000E+00 0.  1.
<mgrwt>
<rscale>  1 0.90875221E+02</rscale>
<asrwt>0</asrwt>
<pdfrwt beam="1">  1       21 0.78912014E-02 0.90875221E+02</pdfrwt>
<pdfrwt beam="2">  1       -1 0.13846192E-01 0.90875221E+02</pdfrwt>
<totfact> 0.37884679E+05</totfact>
</mgrwt>
</event>
<event>
 6    2  0.9453093E+000  0.6886938E+02  0.7546771E-02  0.1363981E+00
         -1   -1    0    0    0  501 -0.00000000000E+00  0.00000000000E+00  0.23644839454E+03  0.23644839454E+03  0.00000000000E+00 0.  1.
         21   -1    0    0  501  502  0.00000000000E+00 -0.00000000000E+00 -0.98112935577E+01  0.98112935577E+01  0.00000000000E+00 0.  1.
         24    2    1    2    0    0  0.44732839151E+01  0.21821915498E+02  0.20005877646E+03  0.21158096841E+03  0.65167368279E+02 0.  0.
        -13    1    3    3    0    0  0.24221819465E+02  0.33250148098E+02  0.16257489245E+03  0.16769873149E+03  0.00000000000E+00 0.  1.
         14    1    3    3    0    0 -0.19748535550E+02 -0.11428232600E+02  0.37483884009E+02  0.43882236920E+02  0.00000000000E+00 0. -1.
         -2    1    1    2    0  502 -0.44732839151E+01 -0.21821915498E+02  0.26578324523E+02  0.34678719691E+02  0.00000000000E+00 0.  1.
<mgrwt>
<rscale>  1 0.68869385E+02</rscale>
<asrwt>0</asrwt>
<pdfrwt beam="1">  1       21 0.15094300E-02 0.68869385E+02</pdfrwt>
<pdfrwt beam="2">  1       -1 0.36376672E-01 0.68869385E+02</pdfrwt>
<totfact> 0.11562425E+06</totfact>
</mgrwt>
</event>
<event>
 6    2  0.9453093E+000  0.7111249E+02  0.7546771E-02  0.1356350E+00
         21   -1    0    0  501  502  0.00000000000E+00  0.00000000000E+00  0.27388117948E+02  0.27388117948E+02  0.00000000000E+00 0.  1.
          4   -1    0    0  502    0 -0.00000000000E+00 -0.00000000000E+00 -0.13527736594E+03  0.13527736594E+03  0.00000000000E+00 0. -1.
         24    2    1    2    0    0  0.58131884308E+01 -0.29054883548E+02 -0.26228695633E+02  0.75795320832E+02  0.64645237781E+02 0.  0.
        -11    1    3    3    0    0  0.55908376731E+00  0.81770431215E-03  0.20506467001E+02  0.20514086969E+02  0.00000000000E+00 0.  1.
         12    1    3    3    0    0  0.52541046635E+01 -0.29055701252E+02 -0.46735162633E+02  0.55281233863E+02  0.00000000000E+00 0. -1.
          3    1    1    2  501    0 -0.58131884308E+01  0.29054883548E+02 -0.81660552359E+02  0.86870163055E+02  0.00000000000E+00 0. -1.
<mgrwt>
<rscale>  1 0.71112490E+02</rscale>
<asrwt>0</asrwt>
<pdfrwt beam="1">  1       21 0.42135566E-02 0.71112490E+02</pdfrwt>
<pdfrwt beam="2">  1        4 0.20811902E-01 0.71112490E+02</pdfrwt>
<totfact> 0.26608160E+05</totfact>
</mgrwt>
</event>
<event>
 6    2  0.9453093E+000  0.8484745E+02  0.7546771E-02  0.1315832E+00
         21   -1    0    0  501  502  0.00000000000E+00  0.00000000000E+00  0.46990265585E+01  0.46990265585E+01  0.00000000000E+00 0.  1.
          2   -1    0    0  502    0 -0.00000000000E+00 -0.00000000000E+00 -0.66248094294E+03  0.66248094294E+03  0.00000000000E+00 0. -1.
         24    2    1    2    0    0 -0.22596129638E+02  0.29299308644E+00 -0.58029256044E+03  0.58646273959E+03  0.81782750677E+02 0.  0.
        -11    1    3    3    0    0 -0.46089320406E+02 -0.23159660790E+02 -0.34127647971E+03  0.34515247493E+03  0.00000000000E+00 0.  1.
         12    1    3    3    0    0  0.23493190768E+02  0.23452653877E+02 -0.23901608072E+03  0.24131026466E+03  0.00000000000E+00 0. -1.
          1    1    1    2  501    0  0.22596129638E+02 -0.29299308644E+00 -0.77489355944E+02  0.80717229909E+02  0.00000000000E+00 0. -1.
<mgrwt>
<rscale>  1 0.84847447E+02</rscale>
<asrwt>0</asrwt>
<pdfrwt beam="1">  1       21 0.72292788E-03 0.84847447E+02</pdfrwt>
<pdfrwt beam="2">  1        2 0.10192004E+00 0.84847447E+02</pdfrwt>
<totfact> 0.32553263E+06</totfact>
</mgrwt>
</event>
<event>
 6    2  0.9453093E+000  0.8885663E+02  0.7546771E-02  0.1305644E+00
         -1   -1    0    0    0  501 -0.00000000000E+00  0.00000000000E+00  0.99734401221E+01  0.99734401221E+01  0.00000000000E+00 0.  1.
         21   -1    0    0  501  502  0.00000000000E+00 -0.00000000000E+00 -0.42031750453E+03  0.42031750453E+03  0.00000000000E+00 0. -1.
         24    2    1    2    0    0 -0.21194843423E+02 -0.28590976385E+02 -0.23207979532E+03  0.24850861616E+03  0.81417661425E+02 0.  0.
        -11    1    3    3    0    0 -0.30983943628E+02 -0.96814913137E+01 -0.26709117120E+02  0.42037042880E+02  0.00000000000E+00 0.  1.
         12    1    3    3    0    0  0.97891002050E+01 -0.18909485071E+02 -0.20537067820E+03  0.20647157328E+03  0.00000000000E+00 0. -1.
         -2    1    1    2    0  502  0.21194843423E+02  0.28590976385E+02 -0.17826426909E+03  0.18178232849E+03  0.00000000000E+00 0.  1.
<mgrwt>
<rscale>  1 0.88856631E+02</rscale>
<asrwt>0</asrwt>
<pdfrwt beam="1">  1       21 0.64664232E-01 0.88856631E+02</pdfrwt>
<pdfrwt beam="2">  1       -1 0.15343754E-02 0.88856631E+02</pdfrwt>
<totfact> 0.18471496E+05</totfact>
</mgrwt>
</event>
<event>
 6    2  0.9453093E+000  0.8299395E+02  0.7546771E-02  0.1320763E+00
          2   -1    0    0  502    0 -0.00000000000E+00  0.00000000000E+00  0.10535020207E+04  0.10535020207E+04  0.00000000000E+00 0. -1.
         21   -1    0    0  501  502  0.00000000000E+00 -0.00000000000E+00 -0.56262361384E+01  0.56262361384E+01  0.00000000000E+00 0. -1.
         24    2    1    2    0    0  0.17274001199E+02 -0.13463575710E+02  0.10214076132E+04  0.10247738818E+04  0.80052092775E+02 0.  0.
        -13    1    3    3    0    0  0.32177378736E+00 -0.95791253514E+01  0.12672452738E+02  0.15888808617E+02  0.00000000000E+00 0.  1.
         14    1    3    3    0    0  0.16952227411E+02 -0.38844503589E+01  0.10087351604E+04  0.10088850732E+04  0.00000000000E+00 0. -1.
          1    1    1    2  501    0 -0.17274001199E+02  0.13463575710E+02  0.26468171378E+02  0.34354375040E+02  0.00000000000E+00 0. -1.
<mgrwt>
<rscale>  1 0.82993955E+02</rscale>
<asrwt>0</asrwt>
<pdfrwt beam="1">  1       21 0.86557563E-03 0.82993955E+02</pdfrwt>
<pdfrwt beam="2">  1        2 0.16207708E+00 0.82993955E+02</pdfrwt>
<totfact> 0.13783225E+06</totfact>
</mgrwt>
</event>
<event>
 6    2  0.9453093E+000  0.9323584E+02  0.7546771E-02  0.1295200E+00
         21   -1    0    0  501  502  0.00000000000E+00  0.00000000000E+00  0.15647602877E+02  0.15647602877E+02  0.00000000000E+00 0. -1.
          2   -1    0    0  502    0 -0.00000000000E+00 -0.00000000000E+00 -0.29545264000E+03  0.29545264000E+03  0.00000000000E+00 0. -1.
         24    2    1    2    0    0  0.34402044393E+01  0.39986577762E+02 -0.22144015556E+03  0.24026789993E+03  0.84155569238E+02 0.  0.
        -13    1    3    3    0    0  0.26176604361E+02 -0.16992269967E+02 -0.61484614684E+02  0.68951502503E+02  0.00000000000E+00 0.  1.
         14    1    3    3    0    0 -0.22736399922E+02  0.56978847729E+02 -0.15995554088E+03  0.17131639743E+03  0.00000000000E+00 0. -1.
          1    1    1    2  501    0 -0.34402044393E+01 -0.39986577762E+02 -0.58364881562E+02  0.70832342948E+02  0.00000000000E+00 0. -1.
<mgrwt>
<rscale>  1 0.93235837E+02</rscale>
<asrwt>0</asrwt>
<pdfrwt beam="1">  1       21 0.24073237E-02 0.93235837E+02</pdfrwt>
<pdfrwt beam="2">  1        2 0.45454249E-01 0.93235837E+02</pdfrwt>
<totfact> 0.11741780E+06</totfact>
</mgrwt>
</event>
<event>
 6    2  0.9453093E+000  0.9556633E+02  0.7546771E-02  0.1289906E+00
          2   -1    0    0  502    0 -0.00000000000E+00  0.00000000000E+00  0.12273783539E+04  0.12273783539E+04  0.00000000000E+00 0. -1.
         21   -1    0    0  501  502  0.00000000000E+00 -0.00000000000E+00 -0.43279531536E+01  0.43279531536E+01  0.00000000000E+00 0. -1.
         24    2    1    2    0    0  0.18719218835E+02 -0.46086993519E+02  0.84944403791E+03  0.85480295807E+03  0.81599653516E+02 0.  0.
        -11    1    3    3    0    0 -0.24380351540E+02 -0.34016764252E+02  0.59359114068E+03  0.59506468899E+03  0.00000000000E+00 0.  1.
         12    1    3    3    0    0  0.43099570375E+02 -0.12070229267E+02  0.25585289723E+03  0.25973826907E+03  0.00000000000E+00 0. -1.
          1    1    1    2  501    0 -0.18719218835E+02  0.46086993519E+02  0.37360636283E+03  0.37690334898E+03  0.00000000000E+00 0. -1.
<mgrwt>
<rscale>  1 0.95566331E+02</rscale>
<asrwt>0</asrwt>
<pdfrwt beam="1">  1       21 0.66583993E-03 0.95566331E+02</pdfrwt>
<pdfrwt beam="2">  1        2 0.18882716E+00 0.95566331E+02</pdfrwt>
<totfact> 0.16781634E+06</totfact>
</mgrwt>
</event>
<event>
 6    2  0.9453093E+000  0.8649363E+02  0.7546771E-02  0.1311572E+00
         21   -1    0    0  501  502  0.00000000000E+00  0.00000000000E+00  0.26089993335E+01  0.26089993335E+01  0.00000000000E+00 0. -1.
          2   -1    0    0  502    0 -0.00000000000E+00 -0.00000000000E+00 -0.22026502756E+04  0.22026502756E+04  0.00000000000E+00 0. -1.
         24    2    1    2    0    0  0.21722466622E+02 -0.26131011386E+02 -0.20307586936E+04  0.20325998179E+04  0.79539001399E+02 0.  0.
        -11    1    3    3    0    0 -0.25574733437E+02  0.86963789845E+01 -0.52239945447E+03  0.52309739440E+03  0.00000000000E+00 0.  1.
         12    1    3    3    0    0  0.47297200059E+02 -0.34827390370E+02 -0.15083592391E+04  0.15095024235E+04  0.00000000000E+00 0. -1.
          1    1    1    2  501    0 -0.21722466622E+02  0.26131011386E+02 -0.16928258266E+03  0.17265945704E+03  0.00000000000E+00 0. -1.
<mgrwt>
<rscale>  1 0.86493630E+02</rscale>
<asrwt>0</asrwt>
<pdfrwt beam="1">  1       21 0.40138333E-03 0.86493630E+02</pdfrwt>
<pdfrwt beam="2">  1        2 0.33887027E+00 0.86493630E+02</pdfrwt>
<totfact> 0.11548620E+06</totfact>
</mgrwt>
</event>
<event>
 6    2  0.9453093E+000  0.8286351E+02  0.7546771E-02  0.1321116E+00
          2   -1    0    0  502    0 -0.00000000000E+00  0.00000000000E+00  0.36723388376E+02  0.36723388376E+02  0.00000000000E+00 0. -1.
         21   -1    0    0  501  502  0.00000000000E+00 -0.00000000000E+00 -0.77507400796E+02  0.77507400796E+02  0.00000000000E+00 0.  1.
         24    2    1    2    0    0 -0.18541666783E+02  0.14128353917E+02 -0.27010020663E+02  0.87154477747E+02  0.79517029519E+02 0.  0.
        -13    1    3    3    0    0 -0.60273923413E+01  0.27792051589E+02 -0.50064275413E+02  0.57577419729E+02  0.00000000000E+00 0.  1.
         14    1    3    3    0    0 -0.12514274441E+02 -0.13663697672E+02  0.23054254751E+02  0.29577058018E+02  0.00000000000E+00 0. -1.
          1    1    1    2  501    0  0.18541666783E+02 -0.14128353917E+02 -0.13773991757E+02  0.27076311425E+02  0.00000000000E+00 0. -1.
<mgrwt>
<rscale>  1 0.82863513E+02</rscale>
<asrwt>0</asrwt>
<pdfrwt beam="1">  1       21 0.11924215E-01 0.82863513E+02</pdfrwt>
<pdfrwt beam="2">  1        2 0.56497521E-02 0.82863513E+02</pdfrwt>
<totfact> 0.87605701E+05</totfact>
</mgrwt>
</event>
<event>
 6    2  0.9453093E+000  0.9488878E+02  0.7546771E-02  0.1291427E+00
          4   -1    0    0  502    0 -0.00000000000E+00  0.00000000000E+00  0.30122387210E+03  0.30122387210E+03  0.00000000000E+00 0. -1.
         21   -1    0    0  501  502  0.00000000000E+00 -0.00000000000E+00 -0.18993084786E+02  0.18993084786E+02  0.00000000000E+00 0. -1.
         24    2    1    2    0    0 -0.13083441688E+02  0.50018541490E+02  0.21805256710E+03  0.23780412482E+03  0.79566631350E+02 0.  0.
        -11    1    3    3    0    0  0.16360439166E+02 -0.15819559668E+02  0.53692620854E+02  0.58316549726E+02  0.00000000000E+00 0.  1.
         12    1    3    3    0    0 -0.29443880854E+02  0.65838101158E+02  0.16435994624E+03  0.17948757509E+03  0.00000000000E+00 0. -1.
          3    1    1    2  501    0  0.13083441688E+02 -0.50018541490E+02  0.64178220220E+02  0.82412832070E+02  0.00000000000E+00 0. -1.
<mgrwt>
<rscale>  1 0.94888776E+02</rscale>
<asrwt>0</asrwt>
<pdfrwt beam="1">  1       21 0.29220132E-02 0.94888776E+02</pdfrwt>
<pdfrwt beam="2">  1        4 0.46342131E-01 0.94888776E+02</pdfrwt>
<totfact> 0.11342632E+05</totfact>
</mgrwt>
</event>
<event>
 6    2  0.9453093E+000  0.8353028E+02  0.7546771E-02  0.1319321E+00
          2   -1    0    0  502    0 -0.00000000000E+00  0.00000000000E+00  0.31694706767E+03  0.31694706767E+03  0.00000000000E+00 0. -1.
         21   -1    0    0  501  502  0.00000000000E+00 -0.00000000000E+00 -0.92471037194E+01  0.92471037194E+01  0.00000000000E+00 0.  1.
         24    2    1    2    0    0 -0.20865502503E+02  0.59182354898E+01  0.27082329802E+03  0.28341236221E+03  0.80665442417E+02 0.  0.
        -11    1    3    3    0    0  0.43868309877E+01 -0.20404209421E+02  0.16823770623E+02  0.26807001066E+02  0.00000000000E+00 0.  1.
         12    1    3    3    0    0 -0.25252333491E+02  0.26322444911E+02  0.25399952739E+03  0.25660536115E+03  0.00000000000E+00 0. -1.
          1    1    1    2  501    0  0.20865502503E+02 -0.59182354898E+01  0.36876665932E+02  0.42781809175E+02  0.00000000000E+00 0. -1.
<mgrwt>
<rscale>  1 0.83530284E+02</rscale>
<asrwt>0</asrwt>
<pdfrwt beam="1">  1       21 0.14226316E-02 0.83530284E+02</pdfrwt>
<pdfrwt beam="2">  1        2 0.48761079E-01 0.83530284E+02</pdfrwt>
<totfact> 0.24919662E+06</totfact>
</mgrwt>
</event>
<event>
 6    2  0.9453093E+000  0.9962667E+02  0.7546771E-02  0.1281083E+00
         -1   -1    0    0    0  501 -0.00000000000E+00  0.00000000000E+00  0.15584144413E+03  0.15584144413E+03  0.00000000000E+00 0.  1.
         21   -1    0    0  501  502  0.00000000000E+00 -0.00000000000E+00 -0.57173013869E+02  0.57173013869E+02  0.00000000000E+00 0. -1.
         24    2    1    2    0    0  0.48751337529E+02  0.28926670572E+02  0.11678149326E+03  0.15350371752E+03  0.81926973224E+02 0.  0.
        -13    1    3    3    0    0 -0.22588704881E+02  0.99953397731E+00  0.32674722545E+02  0.39735200387E+02  0.00000000000E+00 0.  1.
         14    1    3    3    0    0  0.71340042410E+02  0.27927136595E+02  0.84106770717E+02  0.11376851713E+03  0.00000000000E+00 0. -1.
         -2    1    1    2    0  502 -0.48751337529E+02 -0.28926670572E+02 -0.18113063003E+02  0.59510740481E+02  0.00000000000E+00 0.  1.
<mgrwt>
<rscale>  1 0.99626674E+02</rscale>
<asrwt>0</asrwt>
<pdfrwt beam="1">  1       21 0.87958483E-02 0.99626674E+02</pdfrwt>
<pdfrwt beam="2">  1       -1 0.23975607E-01 0.99626674E+02</pdfrwt>
<totfact> 0.13321214E+05</totfact>
</mgrwt>
</event>
<event>
 6    2  0.9453093E+000  0.8949878E+02  0.7546771E-02  0.1304070E+00
         21   -1    0    0  501  502  0.00000000000E+00  0.00000000000E+00  0.67781013888E+01  0.67781013888E+01  0.00000000000E+00 0. -1.
          2   -1    0    0  502    0 -0.00000000000E+00 -0.00000000000E+00 -0.22993028602E+04  0.22993028602E+04  0.00000000000E+00 0. -1.
         24    2    1    2    0    0  0.29576660984E+02  0.19867126630E+02 -0.22444939539E+04  0.22462776187E+04  0.82100851118E+02 0.  0.
        -11    1    3    3    0    0 -0.11701089381E+02  0.41302253171E+02 -0.11182729565E+04  0.11190965986E+04  0.00000000000E+00 0.  1.
         12    1    3    3    0    0  0.41277750365E+02 -0.21435126541E+02 -0.11262209973E+04  0.11271810202E+04  0.00000000000E+00 0. -1.
          1    1    1    2  501    0 -0.29576660984E+02 -0.19867126630E+02 -0.48030804902E+02  0.59803342842E+02  0.00000000000E+00 0. -1.
<mgrwt>
<rscale>  1 0.89498778E+02</rscale>
<asrwt>0</asrwt>
<pdfrwt beam="1">  1       21 0.10427840E-02 0.89498778E+02</pdfrwt>
<pdfrwt beam="2">  1        2 0.35373917E+00 0.89498778E+02</pdfrwt>
<totfact> 0.23660162E+05</totfact>
</mgrwt>
</event>
<event>
 6    2  0.9453093E+000  0.8284476E+02  0.7546771E-02  0.1321167E+00
         -1   -1    0    0    0  501 -0.00000000000E+00  0.00000000000E+00  0.18130476623E+02  0.18130476623E+02  0.00000000000E+00 0.  1.
         21   -1    0    0  501  502  0.00000000000E+00 -0.00000000000E+00 -0.46647892389E+03  0.46647892389E+03  0.00000000000E+00 0.  1.
         24    2    1    2    0    0  0.19003218159E+02 -0.66920094977E+01 -0.78232479536E+02  0.11394548959E+03  0.80357628460E+02 0.  0.
        -11    1    3    3    0    0  0.43358184413E+02  0.12420912776E+02 -0.23000218283E+02  0.50628265533E+02  0.00000000000E+00 0.  1.
         12    1    3    3    0    0 -0.24354966254E+02 -0.19112922273E+02 -0.55232261252E+02  0.63317224056E+02  0.00000000000E+00 0. -1.
         -2    1    1    2    0  502 -0.19003218159E+02  0.66920094977E+01 -0.37011596773E+03  0.37066391092E+03  0.00000000000E+00 0.  1.
<mgrwt>
<rscale>  1 0.82844757E+02</rscale>
<asrwt>0</asrwt>
<pdfrwt beam="1">  1       21 0.71765990E-01 0.82844757E+02</pdfrwt>
<pdfrwt beam="2">  1       -1 0.27893040E-02 0.82844757E+02</pdfrwt>
<totfact> 0.62731553E+04</totfact>
</mgrwt>
</event>
<event>
 6    2  0.9825598E+000  0.8585005E+02  0.7546771E-02  0.1313224E+00
         -1   -1    0    0    0  501 -0.00000000000E+00  0.00000000000E+00  0.13737545848E+03  0.13737545848E+03  0.00000000000E+00 0.  1.
         21   -1    0    0  501  502  0.00000000000E+00 -0.00000000000E+00 -0.45393944031E+02  0.45393944031E+02  0.00000000000E+00 0.  1.
         24    2    1    2    0    0  0.28723456928E+01 -0.33656599720E+02  0.11380453910E+03  0.14255421284E+03  0.78925366038E+02 0.  0.
        -11    1    3    3    0    0  0.45875220565E+01 -0.36533526785E+02  0.12529101292E+03  0.13058936349E+03  0.00000000000E+00 0.  1.
         12    1    3    3    0    0 -0.17151763637E+01  0.28769270652E+01 -0.11486473817E+02  0.11964849353E+02  0.00000000000E+00 0. -1.
         -2    1    1    2    0  502 -0.28723456928E+01  0.33656599720E+02 -0.21823024658E+02  0.40215189664E+02  0.00000000000E+00 0.  1.
<mgrwt>
<rscale>  1 0.85850046E+02</rscale>
<asrwt>0</asrwt>
<pdfrwt beam="1">  1       21 0.69836838E-02 0.85850046E+02</pdfrwt>
<pdfrwt beam="2">  1       -1 0.21134686E-01 0.85850046E+02</pdfrwt>
<totfact> 0.23910951E+05</totfact>
</mgrwt>
</event>
<event>
 6    2  0.9453093E+000  0.1596388E+03  0.7546771E-02  0.1189105E+00
          2   -1    0    0  502    0 -0.00000000000E+00  0.00000000000E+00  0.43568197271E+03  0.43568197271E+03  0.00000000000E+00 0. -1.
         21   -1    0    0  501  502  0.00000000000E+00 -0.00000000000E+00 -0.51102097842E+02  0.51102097842E+02  0.00000000000E+00 0. -1.
         24    2    1    2    0    0  0.55532942861E+02 -0.12648046882E+03  0.22213865405E+03  0.27355094237E+03  0.80020745506E+02 0.  0.
        -13    1    3    3    0    0  0.17401414531E+02 -0.44106818636E+02  0.19048474462E+02  0.51098581754E+02  0.00000000000E+00 0.  1.
         14    1    3    3    0    0  0.38131528330E+02 -0.82373650181E+02  0.20309017959E+03  0.22245236062E+03  0.00000000000E+00 0. -1.
          1    1    1    2  501    0 -0.55532942861E+02  0.12648046882E+03  0.16244122082E+03  0.21323312818E+03  0.00000000000E+00 0. -1.
<mgrwt>
<rscale>  1 0.15963877E+03</rscale>
<asrwt>0</asrwt>
<pdfrwt beam="1">  1       21 0.78618615E-02 0.15963877E+03</pdfrwt>
<pdfrwt beam="2">  1        2 0.67027993E-01 0.15963877E+03</pdfrwt>
<totfact> 0.11185746E+05</totfact>
</mgrwt>
</event>
<event>
 6    2  0.9453093E+000  0.8907579E+02  0.7546771E-02  0.1305105E+00
         21   -1    0    0  501  502  0.00000000000E+00  0.00000000000E+00  0.24683292353E+01  0.24683292353E+01  0.00000000000E+00 0. -1.
          2   -1    0    0  502    0 -0.00000000000E+00 -0.00000000000E+00 -0.28331618746E+04  0.28331618746E+04  0.00000000000E+00 0. -1.
         24    2    1    2    0    0  0.33658740366E+02  0.35688462751E+02 -0.24712056464E+04  0.24728105149E+04  0.74349973941E+02 0.  0.
        -11    1    3    3    0    0 -0.19413333401E+01 -0.20663081199E+02 -0.40678058964E+03  0.40730968538E+03  0.00000000000E+00 0.  1.
         12    1    3    3    0    0  0.35600073706E+02  0.56351543949E+02 -0.20644250568E+04  0.20655008296E+04  0.00000000000E+00 0. -1.
          1    1    1    2  501    0 -0.33658740366E+02 -0.35688462751E+02 -0.35948789889E+03  0.36281968886E+03  0.00000000000E+00 0. -1.
<mgrwt>
<rscale>  1 0.89075787E+02</rscale>
<asrwt>0</asrwt>
<pdfrwt beam="1">  1       21 0.37974285E-03 0.89075787E+02</pdfrwt>
<pdfrwt beam="2">  1        2 0.43587118E+00 0.89075787E+02</pdfrwt>
<totfact> 0.58532556E+05</totfact>
</mgrwt>
</event>
<event>
 6    2  0.9453093E+000  0.8826577E+02  0.7546771E-02  0.1307107E+00
         21   -1    0    0  501  502  0.00000000000E+00  0.00000000000E+00  0.97435217927E+01  0.97435217927E+01  0.00000000000E+00 0. -1.
         -1   -1    0    0    0  501 -0.00000000000E+00 -0.00000000000E+00 -0.31377252224E+03  0.31377252224E+03  0.00000000000E+00 0.  1.
         24    2    1    2    0    0  0.14001366769E+02 -0.15579659043E+02 -0.26356060406E+03  0.27794790655E+03  0.85744286673E+02 0.  0.
        -13    1    3    3    0    0 -0.33565038919E+02 -0.16812829256E+01 -0.15515034943E+03  0.15874844716E+03  0.00000000000E+00 0.  1.
         14    1    3    3    0    0  0.47566405688E+02 -0.13898376117E+02 -0.10841025464E+03  0.11919945939E+03  0.00000000000E+00 0. -1.
         -2    1    1    2    0  502 -0.14001366769E+02  0.15579659043E+02 -0.40468396388E+02  0.45568137481E+02  0.00000000000E+00 0.  1.
<mgrwt>
<rscale>  1 0.88265773E+02</rscale>
<asrwt>0</asrwt>
<pdfrwt beam="1">  1       21 0.14990034E-02 0.88265773E+02</pdfrwt>
<pdfrwt beam="2">  1       -1 0.48272693E-01 0.88265773E+02</pdfrwt>
<totfact> 0.73736743E+05</totfact>
</mgrwt>
</event>
<event>
 6    2  0.9453093E+000  0.8938908E+02  0.7546771E-02  0.1304338E+00
         21   -1    0    0  501  502  0.00000000000E+00  0.00000000000E+00  0.37121273681E+02  0.37121273681E+02  0.00000000000E+00 0. -1.
          2   -1    0    0  502    0 -0.00000000000E+00 -0.00000000000E+00 -0.10231409286E+03  0.10231409286E+03  0.00000000000E+00 0. -1.
         24    2    1    2    0    0  0.13751282864E+02 -0.19234343129E+02 -0.72056079618E+02  0.11481500749E+03  0.86205275932E+02 0.  0.
        -13    1    3    3    0    0 -0.36567107581E+02 -0.38394784258E+01 -0.29762405912E+02  0.47304288993E+02  0.00000000000E+00 0.  1.
         14    1    3    3    0    0  0.50318390445E+02 -0.15394864703E+02 -0.42293673706E+02  0.67510718495E+02  0.00000000000E+00 0. -1.
          1    1    1    2  501    0 -0.13751282864E+02  0.19234343129E+02  0.68632604393E+01  0.24620359052E+02  0.00000000000E+00 0. -1.
<mgrwt>
<rscale>  1 0.89389078E+02</rscale>
<asrwt>0</asrwt>
<pdfrwt beam="1">  1       21 0.57109652E-02 0.89389078E+02</pdfrwt>
<pdfrwt beam="2">  1        2 0.15740630E-01 0.89389078E+02</pdfrwt>
<totfact> 0.89587471E+05</totfact>
</mgrwt>
</event>
<event>
 6    2  0.9453093E+000  0.9568675E+02  0.7546771E-02  0.1289637E+00
          2   -1    0    0  502    0 -0.00000000000E+00  0.00000000000E+00  0.30197548032E+03  0.30197548032E+03  0.00000000000E+00 0. -1.
         21   -1    0    0  501  502  0.00000000000E+00 -0.00000000000E+00 -0.24315292282E+02  0.24315292282E+02  0.00000000000E+00 0. -1.
         24    2    1    2    0    0  0.39994240953E+02  0.37444639979E+02  0.24374887926E+03  0.26185772801E+03  0.78449430878E+02 0.  0.
        -11    1    3    3    0    0 -0.22547829496E+02  0.12702647257E+02  0.43509572577E+02  0.50624547091E+02  0.00000000000E+00 0.  1.
         12    1    3    3    0    0  0.62542070449E+02  0.24741992722E+02  0.20023930668E+03  0.21123318092E+03  0.00000000000E+00 0. -1.
          1    1    1    2  501    0 -0.39994240953E+02 -0.37444639979E+02  0.33911308782E+02  0.64433044596E+02  0.00000000000E+00 0. -1.
<mgrwt>
<rscale>  1 0.95686747E+02</rscale>
<asrwt>0</asrwt>
<pdfrwt beam="1">  1       21 0.37408144E-02 0.95686747E+02</pdfrwt>
<pdfrwt beam="2">  1        2 0.46457764E-01 0.95686747E+02</pdfrwt>
<totfact> 0.56141118E+05</totfact>
</mgrwt>
</event>
<event>
 6    2  0.9453093E+000  0.1126287E+03  0.7546771E-02  0.1255778E+00
         -3   -1    0    0    0  501 -0.00000000000E+00  0.00000000000E+00  0.24611223560E+02  0.24611223560E+02  0.00000000000E+00 0.  1.
         21   -1    0    0  501  502  0.00000000000E+00 -0.00000000000E+00 -0.37435250386E+03  0.37435250386E+03  0.00000000000E+00 0. -1.
         24    2    1    2    0    0  0.63540612083E+02  0.42123729413E+02 -0.17238620000E+03  0.20591802694E+03  0.82906054705E+02 0.  0.
        -11    1    3    3    0    0 -0.81850273142E+01  0.24956485865E+02 -0.10993159800E+02  0.28472274606E+02  0.00000000000E+00 0.  1.
         12    1    3    3    0    0  0.71725639398E+02  0.17167243548E+02 -0.16139304020E+03  0.17744575234E+03  0.00000000000E+00 0. -1.
         -4    1    1    2    0  502 -0.63540612083E+02 -0.42123729413E+02 -0.17735508030E+03  0.19304570048E+03  0.00000000000E+00 0.  1.
<mgrwt>
<rscale>  1 0.11262873E+03</rscale>
<asrwt>0</asrwt>
<pdfrwt beam="1">  1       21 0.57592688E-01 0.11262873E+03</pdfrwt>
<pdfrwt beam="2">  1       -3 0.37863424E-02 0.11262873E+03</pdfrwt>
<totfact> 0.47306762E+04</totfact>
</mgrwt>
</event>
<event>
 6    2  0.9453093E+000  0.9074094E+02  0.7546771E-02  0.1301067E+00
         -3   -1    0    0    0  501 -0.00000000000E+00  0.00000000000E+00  0.57285964398E+03  0.57285964398E+03  0.00000000000E+00 0.  1.
         21   -1    0    0  501  502  0.00000000000E+00 -0.00000000000E+00 -0.88732337300E+01  0.88732337300E+01  0.00000000000E+00 0. -1.
         24    2    1    2    0    0  0.26272529773E+02  0.35800544043E+02  0.28111946352E+03  0.29540154110E+03  0.79132755152E+02 0.  0.
        -13    1    3    3    0    0 -0.26960656885E+02  0.24243619370E+02  0.11021349527E+03  0.11602432779E+03  0.00000000000E+00 0.  1.
         14    1    3    3    0    0  0.53233186658E+02  0.11556924674E+02  0.17090596825E+03  0.17937721331E+03  0.00000000000E+00 0. -1.
         -4    1    1    2    0  502 -0.26272529773E+02 -0.35800544043E+02  0.28286694673E+03  0.28633133661E+03  0.00000000000E+00 0.  1.
<mgrwt>
<rscale>  1 0.90740937E+02</rscale>
<asrwt>0</asrwt>
<pdfrwt beam="1">  1       21 0.13651133E-02 0.90740937E+02</pdfrwt>
<pdfrwt beam="2">  1       -3 0.88132224E-01 0.90740937E+02</pdfrwt>
<totfact> 0.12371395E+05</totfact>
</mgrwt>
</event>
<event>
 6    2  0.9453093E+000  0.8469073E+02  0.7546771E-02  0.1316243E+00
         21   -1    0    0  501  502  0.00000000000E+00  0.00000000000E+00  0.12471962502E+02  0.12471962502E+02  0.00000000000E+00 0. -1.
         -3   -1    0    0    0  501 -0.00000000000E+00 -0.00000000000E+00 -0.27420935095E+03  0.27420935095E+03  0.00000000000E+00 0.  1.
         24    2    1    2    0    0 -0.22447551285E+02 -0.18496725666E+02 -0.22061214311E+03  0.23630962276E+03  0.79539290307E+02 0.  0.
        -13    1    3    3    0    0 -0.25563770128E+02  0.25294052469E+02 -0.13970072334E+03  0.14425528599E+03  0.00000000000E+00 0.  1.
         14    1    3    3    0    0  0.31162188435E+01 -0.43790778136E+02 -0.80911419771E+02  0.92054336774E+02  0.00000000000E+00 0. -1.
         -4    1    1    2    0  502  0.22447551285E+02  0.18496725666E+02 -0.41125245336E+02  0.50371690691E+02  0.00000000000E+00 0.  1.
<mgrwt>
<rscale>  1 0.84690732E+02</rscale>
<asrwt>0</asrwt>
<pdfrwt beam="1">  1       21 0.19187635E-02 0.84690732E+02</pdfrwt>
<pdfrwt beam="2">  1       -3 0.42186053E-01 0.84690732E+02</pdfrwt>
<totfact> 0.32237851E+05</totfact>
</mgrwt>
</event>
<event>
 6    2  0.9453093E+000  0.8441532E+02  0.7546771E-02  0.1316969E+00
         21   -1    0    0  501  502  0.00000000000E+00  0.00000000000E+00  0.31750927781E+01  0.31750927781E+01  0.00000000000E+00 0. -1.
          2   -1    0    0  502    0 -0.00000000000E+00 -0.00000000000E+00 -0.10374090887E+04  0.10374090887E+04  0.00000000000E+00 0. -1.
         24    2    1    2    0    0  0.17434335193E+02  0.10750281601E+02 -0.95577936744E+03  0.95949994548E+03  0.81892744139E+02 0.  0.
        -13    1    3    3    0    0 -0.24949964269E+02 -0.18451127086E+02 -0.26624641615E+03  0.26804868759E+03  0.00000000000E+00 0.  1.
         14    1    3    3    0    0  0.42384299462E+02  0.29201408687E+02 -0.68953295129E+03  0.69145125788E+03  0.00000000000E+00 0. -1.
          1    1    1    2  501    0 -0.17434335193E+02 -0.10750281601E+02 -0.78454628481E+02  0.81084236003E+02  0.00000000000E+00 0. -1.
<mgrwt>
<rscale>  1 0.84415319E+02</rscale>
<asrwt>0</asrwt>
<pdfrwt beam="1">  1       21 0.48847608E-03 0.84415319E+02</pdfrwt>
<pdfrwt beam="2">  1        2 0.15960131E+00 0.84415319E+02</pdfrwt>
<totfact> 0.34047884E+06</totfact>
</mgrwt>
</event>
<event>
 6    2  0.9453093E+000  0.9427058E+02  0.7546771E-02  0.1292827E+00
          4   -1    0    0  502    0 -0.00000000000E+00  0.00000000000E+00  0.12129116802E+03  0.12129116802E+03  0.00000000000E+00 0. -1.
         21   -1    0    0  501  502  0.00000000000E+00 -0.00000000000E+00 -0.44111453418E+02  0.44111453418E+02  0.00000000000E+00 0.  1.
         24    2    1    2    0    0  0.10166046981E+01 -0.47428683512E+02  0.31101500288E+02  0.99268550496E+02  0.81464276175E+02 0.  0.
        -13    1    3    3    0    0 -0.21073583816E+01 -0.24508800248E+02 -0.27123417933E+02  0.36616963956E+02  0.00000000000E+00 0.  1.
         14    1    3    3    0    0  0.31239630798E+01 -0.22919883264E+02  0.58224918221E+02  0.62651586540E+02  0.00000000000E+00 0. -1.
          3    1    1    2  501    0 -0.10166046981E+01  0.47428683512E+02  0.46078214312E+02  0.66134070939E+02  0.00000000000E+00 0. -1.
<mgrwt>
<rscale>  1 0.94270578E+02</rscale>
<asrwt>0</asrwt>
<pdfrwt beam="1">  1       21 0.67863775E-02 0.94270578E+02</pdfrwt>
<pdfrwt beam="2">  1        4 0.18660180E-01 0.94270578E+02</pdfrwt>
<totfact> 0.15421973E+05</totfact>
</mgrwt>
</event>
<event>
 6    2  0.9453093E+000  0.9058625E+02  0.7546771E-02  0.1301438E+00
         21   -1    0    0  501  502  0.00000000000E+00  0.00000000000E+00  0.61930776282E+02  0.61930776282E+02  0.00000000000E+00 0. -1.
          2   -1    0    0  502    0 -0.00000000000E+00 -0.00000000000E+00 -0.18520974434E+03  0.18520974434E+03  0.00000000000E+00 0. -1.
         24    2    1    2    0    0 -0.37783093478E+02  0.25711207745E+02 -0.16307161019E+03  0.18654280842E+03  0.78212792872E+02 0.  0.
        -13    1    3    3    0    0 -0.41995247171E+02  0.41951685098E+02 -0.69144848338E+02  0.91129329632E+02  0.00000000000E+00 0.  1.
         14    1    3    3    0    0  0.42121536934E+01 -0.16240477354E+02 -0.93926761851E+02  0.95413478792E+02  0.00000000000E+00 0. -1.
          1    1    1    2  501    0  0.37783093478E+02 -0.25711207745E+02  0.39792642128E+02  0.60597712201E+02  0.00000000000E+00 0. -1.
<mgrwt>
<rscale>  1 0.90586254E+02</rscale>
<asrwt>0</asrwt>
<pdfrwt beam="1">  1       21 0.95278119E-02 0.90586254E+02</pdfrwt>
<pdfrwt beam="2">  1        2 0.28493806E-01 0.90586254E+02</pdfrwt>
<totfact> 0.19441950E+05</totfact>
</mgrwt>
</event>
<event>
 6    2  0.9453093E+000  0.8236497E+02  0.7546771E-02  0.1322471E+00
         -1   -1    0    0    0  501 -0.00000000000E+00  0.00000000000E+00  0.11582199254E+03  0.11582199254E+03  0.00000000000E+00 0.  1.
         21   -1    0    0  501  502  0.00000000000E+00 -0.00000000000E+00 -0.29290320702E+02  0.29290320702E+02  0.00000000000E+00 0.  1.
         24    2    1    2    0    0 -0.14797402564E+02 -0.15248028199E+02  0.91685367920E+02  0.12324850593E+03  0.79577145194E+02 0.  0.
        -13    1    3    3    0    0  0.96104892478E+01 -0.22058061867E+02  0.94719209302E+02  0.97727417891E+02  0.00000000000E+00 0.  1.
         14    1    3    3    0    0 -0.24407891812E+02  0.68100336675E+01 -0.30338413817E+01  0.25521088041E+02  0.00000000000E+00 0. -1.
         -2    1    1    2    0  502  0.14797402564E+02  0.15248028199E+02 -0.51536960853E+01  0.21863807307E+02  0.00000000000E+00 0.  1.
<mgrwt>
<rscale>  1 0.82364965E+02</rscale>
<asrwt>0</asrwt>
<pdfrwt beam="1">  1       21 0.45062032E-02 0.82364965E+02</pdfrwt>
<pdfrwt beam="2">  1       -1 0.17818768E-01 0.82364965E+02</pdfrwt>
<totfact> 0.64843196E+05</totfact>
</mgrwt>
</event>
<event>
 6    2  0.9453093E+000  0.8667663E+02  0.7546771E-02  0.1311105E+00
          2   -1    0    0  502    0 -0.00000000000E+00  0.00000000000E+00  0.10896948867E+04  0.10896948867E+04  0.00000000000E+00 0. -1.
         21   -1    0    0  501  502  0.00000000000E+00 -0.00000000000E+00 -0.85080587472E+01  0.85080587472E+01  0.00000000000E+00 0. -1.
         24    2    1    2    0    0  0.25437902605E-01 -0.32104395650E+02  0.10495733352E+04  0.10531462501E+04  0.80511771444E+02 0.  0.
        -13    1    3    3    0    0  0.20480782497E+02  0.14066872169E+02  0.63840987191E+03  0.63889318661E+03  0.00000000000E+00 0.  1.
         14    1    3    3    0    0 -0.20455344594E+02 -0.46171267819E+02  0.41116346330E+03  0.41425306353E+03  0.00000000000E+00 0. -1.
          1    1    1    2  501    0 -0.25437902605E-01  0.32104395650E+02  0.31613492700E+02  0.45056695260E+02  0.00000000000E+00 0. -1.
<mgrwt>
<rscale>  1 0.86676630E+02</rscale>
<asrwt>0</asrwt>
<pdfrwt beam="1">  1       21 0.13089330E-02 0.86676630E+02</pdfrwt>
<pdfrwt beam="2">  1        2 0.16764526E+00 0.86676630E+02</pdfrwt>
<totfact> 0.69103889E+05</totfact>
</mgrwt>
</event>
<event>
 6    2  0.9453093E+000  0.8704550E+02  0.7546771E-02  0.1310168E+00
         -1   -1    0    0    0  501 -0.00000000000E+00  0.00000000000E+00  0.41111764714E+03  0.41111764714E+03  0.00000000000E+00 0.  1.
         21   -1    0    0  501  502  0.00000000000E+00 -0.00000000000E+00 -0.31265507336E+02  0.31265507336E+02  0.00000000000E+00 0.  1.
         24    2    1    2    0    0 -0.31788134174E+02 -0.58644895122E+01  0.39655651789E+03  0.40599752602E+03  0.80821046411E+02 0.  0.
        -13    1    3    3    0    0 -0.33960594409E+02 -0.39666415211E+02  0.26893341735E+03  0.27395607209E+03  0.00000000000E+00 0.  1.
         14    1    3    3    0    0  0.21724602352E+01  0.33801925699E+02  0.12762310054E+03  0.13204145393E+03  0.00000000000E+00 0. -1.
         -2    1    1    2    0  502  0.31788134174E+02  0.58644895122E+01 -0.16704378079E+02  0.36385628461E+02  0.00000000000E+00 0.  1.
<mgrwt>
<rscale>  1 0.87045501E+02</rscale>
<asrwt>0</asrwt>
<pdfrwt beam="1">  1       21 0.48100783E-02 0.87045501E+02</pdfrwt>
<pdfrwt beam="2">  1       -1 0.63248865E-01 0.87045501E+02</pdfrwt>
<totfact> 0.67818653E+04</totfact>
</mgrwt>
</event>
<event>
 6    2  0.9453093E+000  0.1397354E+03  0.7546771E-02  0.1213686E+00
          4   -1    0    0  502    0 -0.00000000000E+00  0.00000000000E+00  0.58913224807E+03  0.58913224807E+03  0.00000000000E+00 0. -1.
         21   -1    0    0  501  502  0.00000000000E+00 -0.00000000000E+00 -0.87636329325E+02  0.87636329325E+02  0.00000000000E+00 0. -1.
         24    2    1    2    0    0 -0.11325776952E+03  0.79093039905E+01  0.53929798739E+03  0.55710707214E+03  0.81462207048E+02 0.  0.
        -11    1    3    3    0    0 -0.41779361692E+02  0.46613462449E+01  0.64781203347E+02  0.77225951074E+02  0.00000000000E+00 0.  1.
         12    1    3    3    0    0 -0.71478407827E+02  0.32479577456E+01  0.47451678404E+03  0.47988112107E+03  0.00000000000E+00 0. -1.
          3    1    1    2  501    0  0.11325776952E+03 -0.79093039905E+01 -0.37802068647E+02  0.11966150526E+03  0.00000000000E+00 0. -1.
<mgrwt>
<rscale>  1 0.13973536E+03</rscale>
<asrwt>0</asrwt>
<pdfrwt beam="1">  1       21 0.13482513E-01 0.13973536E+03</pdfrwt>
<pdfrwt beam="2">  1        4 0.90635728E-01 0.13973536E+03</pdfrwt>
<totfact> 0.21184826E+03</totfact>
</mgrwt>
</event>
<event>
 6    2  0.9453093E+000  0.1050409E+03  0.7546771E-02  0.1270039E+00
         21   -1    0    0  501  502  0.00000000000E+00  0.00000000000E+00  0.30734958115E+02  0.30734958115E+02  0.00000000000E+00 0. -1.
         -1   -1    0    0    0  501 -0.00000000000E+00 -0.00000000000E+00 -0.39469524067E+03  0.39469524067E+03  0.00000000000E+00 0.  1.
         24    2    1    2    0    0 -0.60567107776E+02 -0.18487032468E+02 -0.34300349326E+03  0.35872688604E+03  0.83805951238E+02 0.  0.
        -13    1    3    3    0    0 -0.44842770713E+02  0.29572744700E+02 -0.15510756257E+03  0.16414559781E+03  0.00000000000E+00 0.  1.
         14    1    3    3    0    0 -0.15724337062E+02 -0.48059777168E+02 -0.18789593069E+03  0.19458128822E+03  0.00000000000E+00 0. -1.
         -2    1    1    2    0  502  0.60567107776E+02  0.18487032468E+02 -0.20956789292E+02  0.66703312746E+02  0.00000000000E+00 0.  1.
<mgrwt>
<rscale>  1 0.10504086E+03</rscale>
<asrwt>0</asrwt>
<pdfrwt beam="1">  1       21 0.47284553E-02 0.10504086E+03</pdfrwt>
<pdfrwt beam="2">  1       -1 0.60722342E-01 0.10504086E+03</pdfrwt>
<totfact> 0.76125068E+04</totfact>
</mgrwt>
</event>
<event>
 6    2  0.9453093E+000  0.8302100E+02  0.7546771E-02  0.1320690E+00
          4   -1    0    0  502    0 -0.00000000000E+00  0.00000000000E+00  0.14817413482E+01  0.14817413482E+01  0.00000000000E+00 0. -1.
         21   -1    0    0  501  502  0.00000000000E+00 -0.00000000000E+00 -0.18469736221E+04  0.18469736221E+04  0.00000000000E+00 0.  1.
         24    2    1    2    0    0  0.19736344853E+02 -0.83732806695E+01 -0.14227165442E+04  0.14251367832E+04  0.80205054198E+02 0.  0.
        -11    1    3    3    0    0  0.40070677463E+02 -0.25709669606E+02 -0.56442161631E+03  0.56642599452E+03  0.00000000000E+00 0.  1.
         12    1    3    3    0    0 -0.20334332610E+02  0.17336388937E+02 -0.85829492786E+03  0.85871078871E+03  0.00000000000E+00 0. -1.
          3    1    1    2  501    0 -0.19736344853E+02  0.83732806695E+01 -0.42277533661E+03  0.42331858025E+03  0.00000000000E+00 0. -1.
<mgrwt>
<rscale>  1 0.83020996E+02</rscale>
<asrwt>0</asrwt>
<pdfrwt beam="1">  1       21 0.28415168E+00 0.83020996E+02</pdfrwt>
<pdfrwt beam="2">  1        4 0.22795869E-03 0.83020996E+02</pdfrwt>
<totfact> 0.46800842E+04</totfact>
</mgrwt>
</event>
<event>
 6    2  0.9453093E+000  0.8487168E+02  0.7546771E-02  0.1315768E+00
         21   -1    0    0  501  502  0.00000000000E+00  0.00000000000E+00  0.31553972009E+01  0.31553972009E+01  0.00000000000E+00 0. -1.
          2   -1    0    0  502    0 -0.00000000000E+00 -0.00000000000E+00 -0.29866583963E+04  0.29866583963E+04  0.00000000000E+00 0. -1.
         24    2    1    2    0    0  0.31722679952E+02 -0.64374671587E+01 -0.28825321618E+04  0.28837813485E+04  0.78456566062E+02 0.  0.
        -11    1    3    3    0    0  0.26179807963E+02  0.33334209803E+02 -0.18135035818E+04  0.18139988404E+04  0.00000000000E+00 0.  1.
         12    1    3    3    0    0  0.55428719897E+01 -0.39771676962E+02 -0.10690285800E+04  0.10697825081E+04  0.00000000000E+00 0. -1.
          1    1    1    2  501    0 -0.31722679952E+02  0.64374671587E+01 -0.10097083725E+03  0.10603244495E+03  0.00000000000E+00 0. -1.
<mgrwt>
<rscale>  1 0.84871681E+02</rscale>
<asrwt>0</asrwt>
<pdfrwt beam="1">  1       21 0.48544524E-03 0.84871681E+02</pdfrwt>
<pdfrwt beam="2">  1        2 0.45948636E+00 0.84871681E+02</pdfrwt>
<totfact> 0.33026776E+05</totfact>
</mgrwt>
</event>
<event>
 6    2  0.9453093E+000  0.8270683E+02  0.7546771E-02  0.1321541E+00
         21   -1    0    0  501  502  0.00000000000E+00  0.00000000000E+00  0.25492204562E+01  0.25492204562E+01  0.00000000000E+00 0. -1.
          2   -1    0    0  502    0 -0.00000000000E+00 -0.00000000000E+00 -0.15634013437E+04  0.15634013437E+04  0.00000000000E+00 0. -1.
         24    2    1    2    0    0  0.10930336318E+02  0.18990184140E+02 -0.14759886614E+04  0.14783040782E+04  0.79751612377E+02 0.  0.
        -13    1    3    3    0    0  0.18934699109E+02 -0.22093223533E+02 -0.26506402733E+03  0.26665628052E+03  0.00000000000E+00 0.  1.
         14    1    3    3    0    0 -0.80043627902E+01  0.41083407672E+02 -0.12109246340E+04  0.12116477976E+04  0.00000000000E+00 0. -1.
          1    1    1    2  501    0 -0.10930336318E+02 -0.18990184140E+02 -0.84863461882E+02  0.87646486001E+02  0.00000000000E+00 0. -1.
<mgrwt>
<rscale>  1 0.82706826E+02</rscale>
<asrwt>0</asrwt>
<pdfrwt beam="1">  1       21 0.39218879E-03 0.82706826E+02</pdfrwt>
<pdfrwt beam="2">  1        2 0.24052265E+00 0.82706826E+02</pdfrwt>
<totfact> 0.24964072E+06</totfact>
</mgrwt>
</event>
<event>
 6    2  0.9453093E+000  0.8302789E+02  0.7546771E-02  0.1320672E+00
         -1   -1    0    0    0  501 -0.00000000000E+00  0.00000000000E+00  0.15109267178E+03  0.15109267178E+03  0.00000000000E+00 0.  1.
         21   -1    0    0  501  502  0.00000000000E+00 -0.00000000000E+00 -0.69908018396E+02  0.69908018396E+02  0.00000000000E+00 0.  1.
         24    2    1    2    0    0 -0.21874654548E+02 -0.67176416501E+01  0.13727014335E+03  0.16042669076E+03  0.79812302494E+02 0.  0.
        -11    1    3    3    0    0 -0.51008637312E+02 -0.12942685391E+02  0.96712091319E+02  0.11010278286E+03  0.00000000000E+00 0.  1.
         12    1    3    3    0    0  0.29133982764E+02  0.62250437410E+01  0.40558052035E+02  0.50323907898E+02  0.00000000000E+00 0. -1.
         -2    1    1    2    0  502  0.21874654548E+02  0.67176416501E+01 -0.56085489968E+02  0.60573999421E+02  0.00000000000E+00 0.  1.
<mgrwt>
<rscale>  1 0.83027892E+02</rscale>
<asrwt>0</asrwt>
<pdfrwt beam="1">  1       21 0.10755080E-01 0.83027892E+02</pdfrwt>
<pdfrwt beam="2">  1       -1 0.23245026E-01 0.83027892E+02</pdfrwt>
<totfact> 0.97697156E+04</totfact>
</mgrwt>
</event>
<event>
 6    2  0.9453093E+000  0.8218826E+02  0.7546771E-02  0.1322954E+00
         21   -1    0    0  501  502  0.00000000000E+00  0.00000000000E+00  0.69737624520E+02  0.69737624520E+02  0.00000000000E+00 0. -1.
          2   -1    0    0  502    0 -0.00000000000E+00 -0.00000000000E+00 -0.13469093401E+03  0.13469093401E+03  0.00000000000E+00 0. -1.
         24    2    1    2    0    0  0.21765427208E+02  0.63409841491E+01 -0.11968501791E+03  0.14518751020E+03  0.78999795589E+02 0.  0.
        -13    1    3    3    0    0 -0.25400606771E+02  0.10919532359E+02 -0.75472701784E+02  0.80377582235E+02  0.00000000000E+00 0.  1.
         14    1    3    3    0    0  0.47166033980E+02 -0.45785482097E+01 -0.44212316129E+02  0.64809927964E+02  0.00000000000E+00 0. -1.
          1    1    1    2  501    0 -0.21765427208E+02 -0.63409841491E+01  0.54731708419E+02  0.59241048336E+02  0.00000000000E+00 0. -1.
<mgrwt>
<rscale>  1 0.82188257E+02</rscale>
<asrwt>0</asrwt>
<pdfrwt beam="1">  1       21 0.10728865E-01 0.82188257E+02</pdfrwt>
<pdfrwt beam="2">  1        2 0.20721682E-01 0.82188257E+02</pdfrwt>
<totfact> 0.22255920E+05</totfact>
</mgrwt>
</event>
<event>
 6    2  0.9453093E+000  0.8603210E+02  0.7546771E-02  0.1312755E+00
         21   -1    0    0  501  502  0.00000000000E+00  0.00000000000E+00  0.12428555997E+02  0.12428555997E+02  0.00000000000E+00 0. -1.
          2   -1    0    0  502    0 -0.00000000000E+00 -0.00000000000E+00 -0.27175614939E+03  0.27175614939E+03  0.00000000000E+00 0. -1.
         24    2    1    2    0    0  0.26821086277E+02  0.13613478812E+02 -0.19774211238E+03  0.21564662148E+03  0.80602883770E+02 0.  0.
        -11    1    3    3    0    0 -0.14768385069E+02 -0.14512821435E+02 -0.13576333554E+02  0.24759725691E+02  0.00000000000E+00 0.  1.
         12    1    3    3    0    0  0.41589471346E+02  0.28126300246E+02 -0.18416577883E+03  0.19088689579E+03  0.00000000000E+00 0. -1.
          1    1    1    2  501    0 -0.26821086277E+02 -0.13613478812E+02 -0.61585481015E+02  0.68538083912E+02  0.00000000000E+00 0. -1.
<mgrwt>
<rscale>  1 0.86032101E+02</rscale>
<asrwt>0</asrwt>
<pdfrwt beam="1">  1       21 0.19120855E-02 0.86032101E+02</pdfrwt>
<pdfrwt beam="2">  1        2 0.41808640E-01 0.86032101E+02</pdfrwt>
<totfact> 0.18369602E+06</totfact>
</mgrwt>
</event>
<event>
 6    2  0.9453093E+000  0.8499626E+02  0.7546771E-02  0.1315442E+00
          4   -1    0    0  502    0 -0.00000000000E+00  0.00000000000E+00  0.17276770722E+02  0.17276770722E+02  0.00000000000E+00 0. -1.
         21   -1    0    0  501  502  0.00000000000E+00 -0.00000000000E+00 -0.25404734636E+03  0.25404734636E+03  0.00000000000E+00 0.  1.
         24    2    1    2    0    0 -0.94823444023E+01  0.23272877412E+02 -0.23013940069E+03  0.24533346184E+03  0.81196194932E+02 0.  0.
        -13    1    3    3    0    0 -0.44208133660E+02  0.15341568130E+02 -0.15948177561E+03  0.16620517304E+03  0.00000000000E+00 0.  1.
         14    1    3    3    0    0  0.34725789258E+02  0.79313092823E+01 -0.70657625081E+02  0.79128288801E+02  0.00000000000E+00 0. -1.
          3    1    1    2  501    0  0.94823444023E+01 -0.23272877412E+02 -0.66311749429E+01  0.25990655235E+02  0.00000000000E+00 0. -1.
<mgrwt>
<rscale>  1 0.84996257E+02</rscale>
<asrwt>0</asrwt>
<pdfrwt beam="1">  1       21 0.39084207E-01 0.84996257E+02</pdfrwt>
<pdfrwt beam="2">  1        4 0.26579647E-02 0.84996257E+02</pdfrwt>
<totfact> 0.15516315E+05</totfact>
</mgrwt>
</event>
<event>
 6    2  0.9453093E+000  0.8568179E+02  0.7546771E-02  0.1313659E+00
         21   -1    0    0  501  502  0.00000000000E+00  0.00000000000E+00  0.10690671484E+03  0.10690671484E+03  0.00000000000E+00 0.  1.
          2   -1    0    0  502    0 -0.00000000000E+00 -0.00000000000E+00 -0.37345766839E+02  0.37345766839E+02  0.00000000000E+00 0. -1.
         24    2    1    2    0    0  0.18426229075E+02  0.24108314691E+02  0.23066296574E+02  0.88732310871E+02  0.80128847488E+02 0.  0.
        -11    1    3    3    0    0  0.73057832743E+01  0.33028855684E+02  0.48762137299E+02  0.59346657960E+02  0.00000000000E+00 0.  1.
         12    1    3    3    0    0  0.11120445800E+02 -0.89205409936E+01 -0.25695840725E+02  0.29385652911E+02  0.00000000000E+00 0. -1.
          1    1    1    2  501    0 -0.18426229075E+02 -0.24108314691E+02  0.46494651423E+02  0.55520170804E+02  0.00000000000E+00 0. -1.
<mgrwt>
<rscale>  1 0.85681789E+02</rscale>
<asrwt>0</asrwt>
<pdfrwt beam="1">  1       21 0.16447187E-01 0.85681789E+02</pdfrwt>
<pdfrwt beam="2">  1        2 0.57455026E-02 0.85681789E+02</pdfrwt>
<totfact> 0.48672584E+05</totfact>
</mgrwt>
</event>
<event>
 6    2  0.9453093E+000  0.8168101E+02  0.7546771E-02  0.1324348E+00
         21   -1    0    0  501  502  0.00000000000E+00  0.00000000000E+00  0.74673657742E+00  0.74673657742E+00  0.00000000000E+00 0.  1.
          2   -1    0    0  502    0 -0.00000000000E+00 -0.00000000000E+00 -0.37413369656E+04  0.37413369656E+04  0.00000000000E+00 0. -1.
         24    2    1    2    0    0  0.14556700501E+02  0.18918692926E+02 -0.29779249452E+04  0.29790449420E+04  0.78115122747E+02 0.  0.
        -11    1    3    3    0    0 -0.10037329528E+02  0.21295822045E+02 -0.27467924208E+03  0.27568631822E+03  0.00000000000E+00 0.  1.
         12    1    3    3    0    0  0.24594030029E+02 -0.23771291185E+01 -0.27032457031E+04  0.27033586237E+04  0.00000000000E+00 0. -1.
          1    1    1    2  501    0 -0.14556700501E+02 -0.18918692926E+02 -0.76266528384E+03  0.76303876026E+03  0.00000000000E+00 0. -1.
<mgrwt>
<rscale>  1 0.81681007E+02</rscale>
<asrwt>0</asrwt>
<pdfrwt beam="1">  1       21 0.11488207E-03 0.81681007E+02</pdfrwt>
<pdfrwt beam="2">  1        2 0.57559272E+00 0.81681007E+02</pdfrwt>
<totfact> 0.98429968E+05</totfact>
</mgrwt>
</event>
<event>
 6    2  0.1183603E+001  0.9141084E+02  0.7546771E-02  0.1299471E+00
         -1   -1    0    0    0  501 -0.00000000000E+00  0.00000000000E+00  0.12443879458E+04  0.12443879458E+04  0.00000000000E+00 0.  1.
         21   -1    0    0  501  502  0.00000000000E+00 -0.00000000000E+00 -0.62908504139E+01  0.62908504139E+01  0.00000000000E+00 0.  1.
         24    2    1    2    0    0  0.34507258742E+02  0.25025408774E+02  0.11407673118E+04  0.11444238728E+04  0.80863581619E+02 0.  0.
        -11    1    3    3    0    0  0.37939770084E+02  0.42893943780E+02  0.10635982796E+04  0.10651387782E+04  0.00000000000E+00 0.  1.
         12    1    3    3    0    0 -0.34325113417E+01 -0.17868535007E+02  0.77169032267E+02  0.79285094554E+02  0.00000000000E+00 0. -1.
         -2    1    1    2    0  502 -0.34507258742E+02 -0.25025408774E+02  0.97329783605E+02  0.10625492349E+03  0.00000000000E+00 0.  1.
<mgrwt>
<rscale>  1 0.91410835E+02</rscale>
<asrwt>0</asrwt>
<pdfrwt beam="1">  1       21 0.96782413E-03 0.91410835E+02</pdfrwt>
<pdfrwt beam="2">  1       -1 0.19144410E+00 0.91410835E+02</pdfrwt>
<totfact> 0.69835124E+04</totfact>
</mgrwt>
</event>
<event>
 6    2  0.9453093E+000  0.9733239E+02  0.7546771E-02  0.1286008E+00
         21   -1    0    0  501  502  0.00000000000E+00  0.00000000000E+00  0.13012803416E+03  0.13012803416E+03  0.00000000000E+00 0. -1.
          2   -1    0    0  502    0 -0.00000000000E+00 -0.00000000000E+00 -0.51061733261E+02  0.51061733261E+02  0.00000000000E+00 0. -1.
         24    2    1    2    0    0 -0.52234438521E+02 -0.19951767923E+02  0.19080722056E+02  0.99185015853E+02  0.79668587314E+02 0.  0.
        -13    1    3    3    0    0 -0.40111932521E+02  0.21455986334E+02  0.30234349993E+02  0.54620897097E+02  0.00000000000E+00 0.  1.
         14    1    3    3    0    0 -0.12122506000E+02 -0.41407754257E+02 -0.11153627937E+02  0.44564118756E+02  0.00000000000E+00 0. -1.
          1    1    1    2  501    0  0.52234438521E+02  0.19951767923E+02  0.59985578846E+02  0.82004751571E+02  0.00000000000E+00 0. -1.
<mgrwt>
<rscale>  1 0.97332386E+02</rscale>
<asrwt>0</asrwt>
<pdfrwt beam="1">  1       21 0.20019697E-01 0.97332386E+02</pdfrwt>
<pdfrwt beam="2">  1        2 0.78556513E-02 0.97332386E+02</pdfrwt>
<totfact> 0.23220649E+05</totfact>
</mgrwt>
</event>
<event>
 6    2  0.9453093E+000  0.1327436E+03  0.7546771E-02  0.1223441E+00
         21   -1    0    0  501  502  0.00000000000E+00  0.00000000000E+00  0.21271475787E+03  0.21271475787E+03  0.00000000000E+00 0. -1.
          4   -1    0    0  502    0 -0.00000000000E+00 -0.00000000000E+00 -0.74611804419E+02  0.74611804419E+02  0.00000000000E+00 0. -1.
         24    2    1    2    0    0 -0.78120987741E+02  0.76322292486E+02  0.11514394391E+03  0.17572415562E+03  0.75451109953E+02 0.  0.
        -13    1    3    3    0    0  0.13990480210E+02  0.16434785402E+01  0.10445767374E+02  0.17537064015E+02  0.00000000000E+00 0.  1.
         14    1    3    3    0    0 -0.92111467951E+02  0.74678813946E+02  0.10469817653E+03  0.15818709160E+03  0.00000000000E+00 0. -1.
          3    1    1    2  501    0  0.78120987741E+02 -0.76322292486E+02  0.22959009546E+02  0.11160240667E+03  0.00000000000E+00 0. -1.
<mgrwt>
<rscale>  1 0.13274355E+03</rscale>
<asrwt>0</asrwt>
<pdfrwt beam="1">  1       21 0.32725347E-01 0.13274355E+03</pdfrwt>
<pdfrwt beam="2">  1        4 0.11478739E-01 0.13274355E+03</pdfrwt>
<totfact> 0.21981680E+04</totfact>
</mgrwt>
</event>
<event>
 6    2  0.9453093E+000  0.8916245E+02  0.7546771E-02  0.1304893E+00
         21   -1    0    0  501  502  0.00000000000E+00  0.00000000000E+00  0.17388802903E+01  0.17388802903E+01  0.00000000000E+00 0.  1.
          2   -1    0    0  502    0 -0.00000000000E+00 -0.00000000000E+00 -0.18444844111E+04  0.18444844111E+04  0.00000000000E+00 0. -1.
         24    2    1    2    0    0 -0.24263076786E+01 -0.23971051764E+02 -0.14402224546E+04  0.14429797854E+04  0.85845465054E+02 0.  0.
        -11    1    3    3    0    0  0.29145863096E+02 -0.10136694692E+02 -0.20812213385E+03  0.21039737763E+03  0.00000000000E+00 0.  1.
         12    1    3    3    0    0 -0.31572170775E+02 -0.13834357073E+02 -0.12321003208E+04  0.12325824077E+04  0.00000000000E+00 0. -1.
          1    1    1    2  501    0  0.24263076786E+01  0.23971051764E+02 -0.40252307623E+03  0.40324350607E+03  0.00000000000E+00 0. -1.
<mgrwt>
<rscale>  1 0.89162448E+02</rscale>
<asrwt>0</asrwt>
<pdfrwt beam="1">  1       21 0.26752150E-03 0.89162448E+02</pdfrwt>
<pdfrwt beam="2">  1        2 0.28376529E+00 0.89162448E+02</pdfrwt>
<totfact> 0.32394313E+06</totfact>
</mgrwt>
</event>
<event>
 6    2  0.1136164E+001  0.8872896E+02  0.7546771E-02  0.1305959E+00
         -1   -1    0    0    0  501 -0.00000000000E+00  0.00000000000E+00  0.12371474078E+04  0.12371474078E+04  0.00000000000E+00 0.  1.
         21   -1    0    0  501  502  0.00000000000E+00 -0.00000000000E+00 -0.30679819792E+01  0.30679819792E+01  0.00000000000E+00 0. -1.
         24    2    1    2    0    0 -0.31520562406E+02  0.74265217891E+01  0.79292557702E+03  0.79787455129E+03  0.82608291528E+02 0.  0.
        -13    1    3    3    0    0 -0.26748953778E+02 -0.25484479720E+02  0.65328127243E+03  0.65432513794E+03  0.00000000000E+00 0.  1.
         14    1    3    3    0    0 -0.47716086285E+01  0.32911001509E+02  0.13964430459E+03  0.14354941335E+03  0.00000000000E+00 0. -1.
         -2    1    1    2    0  502  0.31520562406E+02 -0.74265217891E+01  0.44115384878E+03  0.44234083847E+03  0.00000000000E+00 0.  1.
<mgrwt>
<rscale>  1 0.88728963E+02</rscale>
<asrwt>0</asrwt>
<pdfrwt beam="1">  1       21 0.47199821E-03 0.88728963E+02</pdfrwt>
<pdfrwt beam="2">  1       -1 0.19032997E+00 0.88728963E+02</pdfrwt>
<totfact> 0.21501299E+05</totfact>
</mgrwt>
</event>
<event>
 6    2  0.9453093E+000  0.1005811E+03  0.7546771E-02  0.1279079E+00
          2   -1    0    0  502    0 -0.00000000000E+00  0.00000000000E+00  0.19587090356E+04  0.19587090356E+04  0.00000000000E+00 0. -1.
         21   -1    0    0  501  502  0.00000000000E+00 -0.00000000000E+00 -0.44381168083E+01  0.44381168083E+01  0.00000000000E+00 0. -1.
         24    2    1    2    0    0 -0.59652408499E+02 -0.17092366840E+02  0.68337595879E+03  0.69073819370E+03  0.79158021322E+02 0.  0.
        -13    1    3    3    0    0 -0.29191676767E+02 -0.47064172633E+02  0.45899602830E+03  0.46232515001E+03  0.00000000000E+00 0.  1.
         14    1    3    3    0    0 -0.30460731732E+02  0.29971805794E+02  0.22437993050E+03  0.22841304369E+03  0.00000000000E+00 0. -1.
          1    1    1    2  501    0  0.59652408499E+02  0.17092366840E+02  0.12708949600E+04  0.12724089587E+04  0.00000000000E+00 0. -1.
<mgrwt>
<rscale>  1 0.10058107E+03</rscale>
<asrwt>0</asrwt>
<pdfrwt beam="1">  1       21 0.68278876E-03 0.10058107E+03</pdfrwt>
<pdfrwt beam="2">  1        2 0.30133916E+00 0.10058107E+03</pdfrwt>
<totfact> 0.68280919E+05</totfact>
</mgrwt>
</event>
<event>
 6    2  0.9453093E+000  0.8264429E+02  0.7546771E-02  0.1321710E+00
         21   -1    0    0  501  502  0.00000000000E+00  0.00000000000E+00  0.73556706087E+02  0.73556706087E+02  0.00000000000E+00 0.  1.
          2   -1    0    0  502    0 -0.00000000000E+00 -0.00000000000E+00 -0.43628737442E+02  0.43628737442E+02  0.00000000000E+00 0. -1.
         24    2    1    2    0    0  0.11393217968E+02 -0.20526548916E+02  0.47799147977E+01  0.82782402407E+02  0.79239724487E+02 0.  0.
        -11    1    3    3    0    0 -0.10727333746E+02 -0.41757853360E+02  0.21153406978E+02  0.48023542490E+02  0.00000000000E+00 0.  1.
         12    1    3    3    0    0  0.22120551715E+02  0.21231304444E+02 -0.16373492180E+02  0.34758859917E+02  0.00000000000E+00 0. -1.
          1    1    1    2  501    0 -0.11393217968E+02  0.20526548916E+02  0.25148053848E+02  0.34403041122E+02  0.00000000000E+00 0. -1.
<mgrwt>
<rscale>  1 0.82644289E+02</rscale>
<asrwt>0</asrwt>
<pdfrwt beam="1">  1       21 0.11316416E-01 0.82644289E+02</pdfrwt>
<pdfrwt beam="2">  1        2 0.67121135E-02 0.82644289E+02</pdfrwt>
<totfact> 0.77159728E+05</totfact>
</mgrwt>
</event>
<event>
 6    2  0.9453093E+000  0.8390422E+02  0.7546771E-02  0.1318323E+00
          2   -1    0    0  502    0 -0.00000000000E+00  0.00000000000E+00  0.23678344902E+04  0.23678344902E+04  0.00000000000E+00 0. -1.
         21   -1    0    0  501  502  0.00000000000E+00 -0.00000000000E+00 -0.18433467888E+01  0.18433467888E+01  0.00000000000E+00 0. -1.
         24    2    1    2    0    0 -0.78934483852E+01 -0.23172202029E+02  0.22247050534E+04  0.22262867051E+04  0.80253730129E+02 0.  0.
        -13    1    3    3    0    0 -0.85206937387E+01 -0.25270272877E+02  0.22420502458E+03  0.22578547775E+03  0.00000000000E+00 0.  1.
         14    1    3    3    0    0  0.62724535351E+00  0.20980708484E+01  0.20005000288E+04  0.20005012273E+04  0.00000000000E+00 0. -1.
          1    1    1    2  501    0  0.78934483852E+01  0.23172202029E+02  0.14128609004E+03  0.14339113192E+03  0.00000000000E+00 0. -1.
<mgrwt>
<rscale>  1 0.83904223E+02</rscale>
<asrwt>0</asrwt>
<pdfrwt beam="1">  1       21 0.28359371E-03 0.83904223E+02</pdfrwt>
<pdfrwt beam="2">  1        2 0.36427980E+00 0.83904223E+02</pdfrwt>
<totfact> 0.16070870E+06</totfact>
</mgrwt>
</event>
<event>
 6    2  0.9453093E+000  0.9360219E+02  0.7546771E-02  0.1294356E+00
         21   -1    0    0  501  502  0.00000000000E+00  0.00000000000E+00  0.11621527931E+03  0.11621527931E+03  0.00000000000E+00 0.  1.
          2   -1    0    0  502    0 -0.00000000000E+00 -0.00000000000E+00 -0.42266872898E+02  0.42266872898E+02  0.00000000000E+00 0. -1.
         24    2    1    2    0    0  0.19818989711E+02 -0.41773880250E+02  0.54576532237E+02  0.10835113453E+03  0.81385017411E+02 0.  0.
        -13    1    3    3    0    0  0.51767298207E+02 -0.25606477268E+02  0.35259291312E+02  0.67666553522E+02  0.00000000000E+00 0.  1.
         14    1    3    3    0    0 -0.31948308496E+02 -0.16167402982E+02  0.19317240925E+02  0.40684581009E+02  0.00000000000E+00 0. -1.
          1    1    1    2  501    0 -0.19818989711E+02  0.41773880250E+02  0.19371874174E+02  0.50131017676E+02  0.00000000000E+00 0. -1.
<mgrwt>
<rscale>  1 0.93602193E+02</rscale>
<asrwt>0</asrwt>
<pdfrwt beam="1">  1       21 0.17879274E-01 0.93602193E+02</pdfrwt>
<pdfrwt beam="2">  1        2 0.65025959E-02 0.93602193E+02</pdfrwt>
<totfact> 0.36072088E+05</totfact>
</mgrwt>
</event>
<event>
 6    2  0.9453093E+000  0.8374652E+02  0.7546771E-02  0.1318743E+00
          2   -1    0    0  502    0 -0.00000000000E+00  0.00000000000E+00  0.52436665282E+02  0.52436665282E+02  0.00000000000E+00 0. -1.
         21   -1    0    0  501  502  0.00000000000E+00 -0.00000000000E+00 -0.84677292509E+02  0.84677292509E+02  0.00000000000E+00 0. -1.
         24    2    1    2    0    0  0.18070593223E+02  0.16315199458E+02  0.13949516248E+02  0.84900344366E+02  0.80129566311E+02 0.  0.
        -13    1    3    3    0    0 -0.16994610431E+01  0.46812168742E+02  0.12701416401E+02  0.48534454656E+02  0.00000000000E+00 0.  1.
         14    1    3    3    0    0  0.19770054266E+02 -0.30496969284E+02  0.12480998471E+01  0.36365889710E+02  0.00000000000E+00 0. -1.
          1    1    1    2  501    0 -0.18070593223E+02 -0.16315199458E+02 -0.46190143474E+02  0.52213613425E+02  0.00000000000E+00 0. -1.
<mgrwt>
<rscale>  1 0.83746519E+02</rscale>
<asrwt>0</asrwt>
<pdfrwt beam="1">  1       21 0.13027276E-01 0.83746519E+02</pdfrwt>
<pdfrwt beam="2">  1        2 0.80671793E-02 0.83746519E+02</pdfrwt>
<totfact> 0.48011732E+05</totfact>
</mgrwt>
</event>
<event>
 6    2  0.9453093E+000  0.1356864E+03  0.7546771E-02  0.1219254E+00
          2   -1    0    0  502    0 -0.00000000000E+00  0.00000000000E+00  0.33067449145E+03  0.33067449145E+03  0.00000000000E+00 0. -1.
         21   -1    0    0  501  502  0.00000000000E+00 -0.00000000000E+00 -0.58053686816E+02  0.58053686816E+02  0.00000000000E+00 0.  1.
         24    2    1    2    0    0  0.51560454171E+02 -0.96206121611E+02  0.23845074424E+03  0.27435295675E+03  0.80602042026E+02 0.  0.
        -11    1    3    3    0    0  0.63460087071E+02 -0.10074238019E+03  0.18972576674E+03  0.22399124175E+03  0.00000000000E+00 0.  1.
         12    1    3    3    0    0 -0.11899632900E+02  0.45362585767E+01  0.48724977498E+02  0.50361714995E+02  0.00000000000E+00 0. -1.
          1    1    1    2  501    0 -0.51560454171E+02  0.96206121611E+02  0.34170060394E+02  0.11437522152E+03  0.00000000000E+00 0. -1.
<mgrwt>
<rscale>  1 0.13568636E+03</rscale>
<asrwt>0</asrwt>
<pdfrwt beam="1">  1       21 0.89313367E-02 0.13568636E+03</pdfrwt>
<pdfrwt beam="2">  1        2 0.50872997E-01 0.13568636E+03</pdfrwt>
<totfact> 0.11984305E+05</totfact>
</mgrwt>
</event>
<event>
 6    2  0.9453093E+000  0.8853564E+02  0.7546771E-02  0.1306437E+00
         21   -1    0    0  501  502  0.00000000000E+00  0.00000000000E+00  0.43363310890E+01  0.43363310890E+01  0.00000000000E+00 0.  1.
          2   -1    0    0  502    0 -0.00000000000E+00 -0.00000000000E+00 -0.14615966922E+04  0.14615966922E+04  0.00000000000E+00 0. -1.
         24    2    1    2    0    0  0.23321572582E+02 -0.27931939127E+02 -0.13452509685E+04  0.13481612397E+04  0.80712273337E+02 0.  0.
        -13    1    3    3    0    0 -0.10524687723E+02 -0.25588982013E+02 -0.15655728277E+03  0.15898348292E+03  0.00000000000E+00 0.  1.
         14    1    3    3    0    0  0.33846260305E+02 -0.23429571135E+01 -0.11886936857E+04  0.11891777568E+04  0.00000000000E+00 0. -1.
          1    1    1    2  501    0 -0.23321572582E+02  0.27931939127E+02 -0.11200939257E+03  0.11777178353E+03  0.00000000000E+00 0. -1.
<mgrwt>
<rscale>  1 0.88535643E+02</rscale>
<asrwt>0</asrwt>
<pdfrwt beam="1">  1       21 0.66712737E-03 0.88535643E+02</pdfrwt>
<pdfrwt beam="2">  1        2 0.22486119E+00 0.88535643E+02</pdfrwt>
<totfact> 0.12534066E+06</totfact>
</mgrwt>
</event>
<event>
 6    2  0.9453093E+000  0.8240962E+02  0.7546771E-02  0.1322349E+00
         -1   -1    0    0    0  501 -0.00000000000E+00  0.00000000000E+00  0.24045214333E+02  0.24045214333E+02  0.00000000000E+00 0.  1.
         21   -1    0    0  501  502  0.00000000000E+00 -0.00000000000E+00 -0.16103284910E+03  0.16103284910E+03  0.00000000000E+00 0.  1.
         24    2    1    2    0    0 -0.18054563232E+02 -0.10991370584E+02 -0.51868942299E+02  0.97374190723E+02  0.79652798839E+02 0.  0.
        -11    1    3    3    0    0 -0.32342173851E+02 -0.39046129328E+02 -0.35461728731E+02  0.61872050471E+02  0.00000000000E+00 0.  1.
         12    1    3    3    0    0  0.14287610619E+02  0.28054758744E+02 -0.16407213568E+02  0.35502140252E+02  0.00000000000E+00 0. -1.
         -2    1    1    2    0  502  0.18054563232E+02  0.10991370584E+02 -0.85118692466E+02  0.87703872708E+02  0.00000000000E+00 0.  1.
<mgrwt>
<rscale>  1 0.82409622E+02</rscale>
<asrwt>0</asrwt>
<pdfrwt beam="1">  1       21 0.24774284E-01 0.82409622E+02</pdfrwt>
<pdfrwt beam="2">  1       -1 0.36992638E-02 0.82409622E+02</pdfrwt>
<totfact> 0.34896000E+05</totfact>
</mgrwt>
</event>
<event>
 6    2  0.9453093E+000  0.8260995E+02  0.7546771E-02  0.1321804E+00
          2   -1    0    0  502    0 -0.00000000000E+00  0.00000000000E+00  0.68650404317E+02  0.68650404317E+02  0.00000000000E+00 0. -1.
         21   -1    0    0  501  502  0.00000000000E+00 -0.00000000000E+00 -0.38516559742E+02  0.38516559742E+02  0.00000000000E+00 0.  1.
         24    2    1    2    0    0 -0.18354349583E+02 -0.80286551116E+01  0.21568304803E+02  0.85379125179E+02  0.80144006593E+02 0.  0.
        -13    1    3    3    0    0 -0.20483214203E+01 -0.27311876898E+02 -0.21926805162E+02  0.35084455603E+02  0.00000000000E+00 0.  1.
         14    1    3    3    0    0 -0.16306028162E+02  0.19283221786E+02  0.43495109966E+02  0.50294669576E+02  0.00000000000E+00 0. -1.
          1    1    1    2  501    0  0.18354349583E+02  0.80286551116E+01  0.85655397713E+01  0.21787838880E+02  0.00000000000E+00 0. -1.
<mgrwt>
<rscale>  1 0.82609946E+02</rscale>
<asrwt>0</asrwt>
<pdfrwt beam="1">  1       21 0.59256245E-02 0.82609946E+02</pdfrwt>
<pdfrwt beam="2">  1        2 0.10561601E-01 0.82609946E+02</pdfrwt>
<totfact> 0.13335781E+06</totfact>
</mgrwt>
</event>
<event>
 6    2  0.9453093E+000  0.8519574E+02  0.7546771E-02  0.1314921E+00
         21   -1    0    0  501  502  0.00000000000E+00  0.00000000000E+00  0.38676318271E+03  0.38676318271E+03  0.00000000000E+00 0.  1.
          4   -1    0    0  502    0 -0.00000000000E+00 -0.00000000000E+00 -0.12614913294E+02  0.12614913294E+02  0.00000000000E+00 0. -1.
         24    2    1    2    0    0 -0.30037519621E+02  0.23849569519E+02  0.15474329150E+03  0.17664597240E+03  0.76074034660E+02 0.  0.
        -11    1    3    3    0    0 -0.19090147210E+02  0.27326761074E+02  0.16041063322E+03  0.16383759288E+03  0.00000000000E+00 0.  1.
         12    1    3    3    0    0 -0.10947372412E+02 -0.34771915553E+01 -0.56673417163E+01  0.12808379521E+02  0.00000000000E+00 0. -1.
          3    1    1    2  501    0  0.30037519621E+02 -0.23849569519E+02  0.21940497792E+03  0.22273212361E+03  0.00000000000E+00 0. -1.
<mgrwt>
<rscale>  1 0.85195735E+02</rscale>
<asrwt>0</asrwt>
<pdfrwt beam="1">  1       21 0.59502019E-01 0.85195735E+02</pdfrwt>
<pdfrwt beam="2">  1        4 0.19407562E-02 0.85195735E+02</pdfrwt>
<totfact> 0.10713187E+05</totfact>
</mgrwt>
</event>
<event>
 6    2  0.9453093E+000  0.9484804E+02  0.7546771E-02  0.1291519E+00
         -1   -1    0    0    0  501 -0.00000000000E+00  0.00000000000E+00  0.96607036108E+02  0.96607036108E+02  0.00000000000E+00 0.  1.
         21   -1    0    0  501  502  0.00000000000E+00 -0.00000000000E+00 -0.51333053995E+02  0.51333053995E+02  0.00000000000E+00 0.  1.
         24    2    1    2    0    0  0.45583405304E+02 -0.34238157493E+01  0.26131004556E+02  0.98381811853E+02  0.83105849078E+02 0.  0.
        -13    1    3    3    0    0  0.70066456866E+02 -0.65300056001E+00  0.21653015138E+02  0.73338856359E+02  0.00000000000E+00 0.  1.
         14    1    3    3    0    0 -0.24483051563E+02 -0.27708151893E+01  0.44779894185E+01  0.25042955494E+02  0.00000000000E+00 0. -1.
         -2    1    1    2    0  502 -0.45583405304E+02  0.34238157493E+01  0.19142977557E+02  0.49558278250E+02  0.00000000000E+00 0.  1.
<mgrwt>
<rscale>  1 0.94848044E+02</rscale>
<asrwt>0</asrwt>
<pdfrwt beam="1">  1       21 0.78973929E-02 0.94848044E+02</pdfrwt>
<pdfrwt beam="2">  1       -1 0.14862621E-01 0.94848044E+02</pdfrwt>
<totfact> 0.34047303E+05</totfact>
</mgrwt>
</event>
<event>
 6    2  0.9453093E+000  0.1166950E+03  0.7546771E-02  0.1248651E+00
         21   -1    0    0  501  502  0.00000000000E+00  0.00000000000E+00  0.13150120108E+02  0.13150120108E+02  0.00000000000E+00 0. -1.
          2   -1    0    0  502    0 -0.00000000000E+00 -0.00000000000E+00 -0.20880116917E+04  0.20880116917E+04  0.00000000000E+00 0. -1.
         24    2    1    2    0    0 -0.18220792543E+02  0.84459712539E+02 -0.19222485780E+04  0.19257874518E+04  0.78436430796E+02 0.  0.
        -11    1    3    3    0    0  0.89563302303E+01  0.87235799383E+02 -0.13118231800E+04  0.13147510624E+04  0.00000000000E+00 0.  1.
         12    1    3    3    0    0 -0.27177122773E+02 -0.27760868442E+01 -0.61042539804E+03  0.61103638945E+03  0.00000000000E+00 0. -1.
          1    1    1    2  501    0  0.18220792543E+02 -0.84459712539E+02 -0.15261299355E+03  0.17537435994E+03  0.00000000000E+00 0. -1.
<mgrwt>
<rscale>  1 0.11669496E+03</rscale>
<asrwt>0</asrwt>
<pdfrwt beam="1">  1       21 0.20230947E-02 0.11669496E+03</pdfrwt>
<pdfrwt beam="2">  1        2 0.32123268E+00 0.11669496E+03</pdfrwt>
<totfact> 0.10588972E+05</totfact>
</mgrwt>
</event>
<event>
 6    2  0.9453093E+000  0.9223253E+02  0.7546771E-02  0.1297534E+00
         21   -1    0    0  501  502  0.00000000000E+00  0.00000000000E+00  0.71321726056E+01  0.71321726056E+01  0.00000000000E+00 0.  1.
          2   -1    0    0  502    0 -0.00000000000E+00 -0.00000000000E+00 -0.49115271430E+03  0.49115271430E+03  0.00000000000E+00 0. -1.
         24    2    1    2    0    0 -0.98540797560E+01  0.22651265689E+02 -0.34660511106E+03  0.35866689630E+03  0.88863134995E+02 0.  0.
        -13    1    3    3    0    0  0.29540978622E+02  0.27747860096E+02 -0.86237783978E+02  0.95286770033E+02  0.00000000000E+00 0.  1.
         14    1    3    3    0    0 -0.39395058378E+02 -0.50965944068E+01 -0.26036732708E+03  0.26338012627E+03  0.00000000000E+00 0. -1.
          1    1    1    2  501    0  0.98540797560E+01 -0.22651265689E+02 -0.13741543063E+03  0.13961799060E+03  0.00000000000E+00 0. -1.
<mgrwt>
<rscale>  1 0.92232529E+02</rscale>
<asrwt>0</asrwt>
<pdfrwt beam="1">  1       21 0.10972576E-02 0.92232529E+02</pdfrwt>
<pdfrwt beam="2">  1        2 0.75561934E-01 0.92232529E+02</pdfrwt>
<totfact> 0.23918747E+06</totfact>
</mgrwt>
</event>
<event>
 6    2  0.9453093E+000  0.8836462E+02  0.7546771E-02  0.1306861E+00
         21   -1    0    0  501  502  0.00000000000E+00  0.00000000000E+00  0.19154715534E+01  0.19154715534E+01  0.00000000000E+00 0. -1.
          2   -1    0    0  502    0 -0.00000000000E+00 -0.00000000000E+00 -0.40579306549E+04  0.40579306549E+04  0.00000000000E+00 0. -1.
         24    2    1    2    0    0  0.17310573345E+02  0.29664624673E+02 -0.38480053538E+04  0.38490198115E+04  0.81416584356E+02 0.  0.
        -11    1    3    3    0    0  0.35109686073E+02  0.28894812410E+02 -0.10796231771E+04  0.10805803092E+04  0.00000000000E+00 0.  1.
         12    1    3    3    0    0 -0.17799112728E+02  0.76981226248E+00 -0.27683821768E+04  0.27684395023E+04  0.00000000000E+00 0. -1.
          1    1    1    2  501    0 -0.17310573345E+02 -0.29664624673E+02 -0.20800982946E+03  0.21082631491E+03  0.00000000000E+00 0. -1.
<mgrwt>
<rscale>  1 0.88364620E+02</rscale>
<asrwt>0</asrwt>
<pdfrwt beam="1">  1       21 0.29468883E-03 0.88364620E+02</pdfrwt>
<pdfrwt beam="2">  1        2 0.62429512E+00 0.88364620E+02</pdfrwt>
<totfact> 0.14291369E+05</totfact>
</mgrwt>
</event>
<event>
 6    2  0.9453093E+000  0.8982460E+02  0.7546771E-02  0.1303277E+00
         21   -1    0    0  501  502  0.00000000000E+00  0.00000000000E+00  0.30771068447E+01  0.30771068447E+01  0.00000000000E+00 0. -1.
          2   -1    0    0  502    0 -0.00000000000E+00 -0.00000000000E+00 -0.18015616725E+04  0.18015616725E+04  0.00000000000E+00 0. -1.
         24    2    1    2    0    0 -0.27411760755E+02 -0.23829598413E+02 -0.16204108103E+04  0.16228985342E+04  0.82153536241E+02 0.  0.
        -13    1    3    3    0    0 -0.43017410096E+02  0.27165834026E+01 -0.13585133113E+04  0.13591969299E+04  0.00000000000E+00 0.  1.
         14    1    3    3    0    0  0.15605649342E+02 -0.26546181815E+02 -0.26189749908E+03  0.26370160425E+03  0.00000000000E+00 0. -1.
          1    1    1    2  501    0  0.27411760755E+02  0.23829598413E+02 -0.17807375527E+03  0.18174024514E+03  0.00000000000E+00 0. -1.
<mgrwt>
<rscale>  1 0.89824595E+02</rscale>
<asrwt>0</asrwt>
<pdfrwt beam="1">  1       21 0.47340078E-03 0.89824595E+02</pdfrwt>
<pdfrwt beam="2">  1        2 0.27716350E+00 0.89824595E+02</pdfrwt>
<totfact> 0.14312639E+06</totfact>
</mgrwt>
</event>
<event>
 6    2  0.9453093E+000  0.8494690E+02  0.7546771E-02  0.1315571E+00
         21   -1    0    0  501  502  0.00000000000E+00  0.00000000000E+00  0.14606929375E+01  0.14606929375E+01  0.00000000000E+00 0. -1.
          2   -1    0    0  502    0 -0.00000000000E+00 -0.00000000000E+00 -0.21508185197E+04  0.21508185197E+04  0.00000000000E+00 0. -1.
         24    2    1    2    0    0 -0.12639770196E+02 -0.22534597775E+02 -0.14949246252E+04  0.14973361715E+04  0.80922206022E+02 0.  0.
        -11    1    3    3    0    0  0.19757593590E+02 -0.98892255174E+01 -0.12285878589E+03  0.12482964615E+03  0.00000000000E+00 0.  1.
         12    1    3    3    0    0 -0.32397363786E+02 -0.12645372258E+02 -0.13720658393E+04  0.13725065253E+04  0.00000000000E+00 0. -1.
          1    1    1    2  501    0  0.12639770196E+02  0.22534597775E+02 -0.65443320158E+03  0.65494304120E+03  0.00000000000E+00 0. -1.
<mgrwt>
<rscale>  1 0.84946897E+02</rscale>
<asrwt>0</asrwt>
<pdfrwt beam="1">  1       21 0.22472149E-03 0.84946897E+02</pdfrwt>
<pdfrwt beam="2">  1        2 0.33089589E+00 0.84946897E+02</pdfrwt>
<totfact> 0.29442416E+06</totfact>
</mgrwt>
</event>
<event>
 6    2  0.1172431E+001  0.8661748E+02  0.7546771E-02  0.1311256E+00
         21   -1    0    0  501  502  0.00000000000E+00  0.00000000000E+00  0.58270413145E+01  0.58270413145E+01  0.00000000000E+00 0. -1.
         -3   -1    0    0    0  501 -0.00000000000E+00 -0.00000000000E+00 -0.69284031391E+03  0.69284031391E+03  0.00000000000E+00 0.  1.
         24    2    1    2    0    0 -0.29505123291E+02  0.10218479379E+01 -0.35788686732E+03  0.36821949683E+03  0.81430900558E+02 0.  0.
        -11    1    3    3    0    0 -0.39268507743E+02 -0.18829102254E+02 -0.32882278289E+03  0.33169409603E+03  0.00000000000E+00 0.  1.
         12    1    3    3    0    0  0.97633844517E+01  0.19850950192E+02 -0.29064084435E+02  0.36525400799E+02  0.00000000000E+00 0. -1.
         -4    1    1    2    0  502  0.29505123291E+02 -0.10218479379E+01 -0.32912640527E+03  0.33044785839E+03  0.00000000000E+00 0.  1.
<mgrwt>
<rscale>  1 0.86617481E+02</rscale>
<asrwt>0</asrwt>
<pdfrwt beam="1">  1       21 0.89646863E-03 0.86617481E+02</pdfrwt>
<pdfrwt beam="2">  1       -3 0.10659073E+00 0.86617481E+02</pdfrwt>
<totfact> 0.15527397E+05</totfact>
</mgrwt>
</event>
